<event>
 7    1  0.4962385E-011  0.5052885E+02  0.7816164E-02  0.1300439E+00
        -11   -1    0    0    0    0  0.00000000000E+00  0.00000000000E+00  0.45593999997E+02  0.45594000000E+02  0.51100000000E-03 0.  1.
         11   -1    0    0    0    0 -0.00000000000E+00 -0.00000000000E+00 -0.45593999997E+02  0.45594000000E+02  0.51100000000E-03 0. -1.
    9900012    2    1    2    0    0 -0.48083006230E+01 -0.35378514281E+02 -0.19452697937E+02  0.50528849927E+02  0.29999969839E+02 0.  0.
        -12    1    1    2    0    0  0.48083006230E+01  0.35378514281E+02  0.19452697937E+02  0.40659150073E+02  0.00000000000E+00 0.  1.
         11    1    3    3    0    0  0.37279152999E+01 -0.13932122554E+01  0.17706509900E+01  0.43558693807E+01  0.51100000000E-03 0. -1.
        -11    1    3    3    0    0 -0.31528047323E+01 -0.32702065572E+02 -0.11176525361E+02  0.34702737497E+02  0.51100000000E-03 0.  1.
        -12    1    3    3    0    0 -0.53834111907E+01 -0.12832364529E+01 -0.10046823566E+02  0.11470243050E+02  0.00000000000E+00 0.  1.
</event>
<event>
 7    1  0.4962385E-011  0.5052891E+02  0.7816164E-02  0.1300439E+00
        -11   -1    0    0    0    0  0.00000000000E+00  0.00000000000E+00  0.45593999997E+02  0.45594000000E+02  0.51100000000E-03 0.  1.
         11   -1    0    0    0    0 -0.00000000000E+00 -0.00000000000E+00 -0.45593999997E+02  0.45594000000E+02  0.51100000000E-03 0. -1.
    9900012    2    1    2    0    0  0.38876020250E+02  0.68119233804E+01 -0.97680263899E+01  0.50528910116E+02  0.30000152790E+02 0.  0.
        -12    1    1    2    0    0 -0.38876020250E+02 -0.68119233804E+01  0.97680263899E+01  0.40659089884E+02  0.00000000000E+00 0.  1.
         11    1    3    3    0    0  0.29027387020E+01  0.85507677782E-01 -0.25743263674E+01  0.38807679707E+01  0.51100000000E-03 0. -1.
        -11    1    3    3    0    0  0.52115976320E+01  0.12572914514E+02 -0.70668210697E+01  0.15335543340E+02  0.51100000000E-03 0.  1.
        -12    1    3    3    0    0  0.30761683916E+02 -0.58464988113E+01 -0.12687895280E+00  0.31312598805E+02  0.00000000000E+00 0.  1.
</event>
<event>
 7    1  0.4962385E-011  0.5052886E+02  0.7816164E-02  0.1300439E+00
        -11   -1    0    0    0    0  0.00000000000E+00  0.00000000000E+00  0.45593999997E+02  0.45594000000E+02  0.51100000000E-03 0.  1.
         11   -1    0    0    0    0 -0.00000000000E+00 -0.00000000000E+00 -0.45593999997E+02  0.45594000000E+02  0.51100000000E-03 0. -1.
    9900012    2    1    2    0    0 -0.33938103271E+02  0.11129139919E+02 -0.19429696474E+02  0.50528859404E+02  0.29999998645E+02 0.  0.
        -12    1    1    2    0    0  0.33938103271E+02 -0.11129139919E+02  0.19429696474E+02  0.40659140596E+02  0.00000000000E+00 0.  1.
         11    1    3    3    0    0 -0.26620808899E+02  0.11260419386E+02 -0.92403792635E+01  0.30345495883E+02  0.51100000000E-03 0. -1.
        -11    1    3    3    0    0 -0.62181463925E+01 -0.54252248286E+01 -0.11927564538E+02  0.14503972045E+02  0.51100000000E-03 0.  1.
         12    1    3    3    0    0 -0.10991479787E+01  0.52939453607E+01  0.17382473284E+01  0.56793914759E+01  0.00000000000E+00 0. -1.
</event>
<event>
 7    1  0.4962385E-011  0.5052886E+02  0.7816164E-02  0.1300439E+00
        -11   -1    0    0    0    0  0.00000000000E+00  0.00000000000E+00  0.45593999997E+02  0.45594000000E+02  0.51100000000E-03 0.  1.
         11   -1    0    0    0    0 -0.00000000000E+00 -0.00000000000E+00 -0.45593999997E+02  0.45594000000E+02  0.51100000000E-03 0. -1.
    9900012    2    1    2    0    0 -0.10085286631E+01 -0.34408622873E+02 -0.21637824717E+02  0.50528856914E+02  0.29999991074E+02 0.  0.
        -12    1    1    2    0    0  0.10085286631E+01  0.34408622873E+02  0.21637824717E+02  0.40659143086E+02  0.00000000000E+00 0.  1.
         11    1    3    3    0    0  0.36392378369E+01 -0.39742242127E+01 -0.16291410988E+02  0.17159504141E+02  0.51100000000E-03 0. -1.
        -11    1    3    3    0    0 -0.81869009513E+01 -0.18431426226E+02 -0.53109747231E+01  0.20855437485E+02  0.51100000000E-03 0.  1.
         12    1    3    3    0    0  0.35391344514E+01 -0.12002972433E+02 -0.35439006092E-01  0.12513915288E+02  0.00000000000E+00 0. -1.
</event>
<event>
 7    1  0.4962385E-011  0.5052886E+02  0.7816164E-02  0.1300439E+00
        -11   -1    0    0    0    0  0.00000000000E+00  0.00000000000E+00  0.45593999997E+02  0.45594000000E+02  0.51100000000E-03 0. -1.
         11   -1    0    0    0    0 -0.00000000000E+00 -0.00000000000E+00 -0.45593999997E+02  0.45594000000E+02  0.51100000000E-03 0.  1.
    9900012    2    1    2    0    0  0.39573917843E+02  0.64977369755E+01  0.66969962871E+01  0.50528864267E+02  0.30000013426E+02 0.  0.
        -12    1    1    2    0    0 -0.39573917843E+02 -0.64977369755E+01 -0.66969962871E+01  0.40659135733E+02  0.00000000000E+00 0.  1.
         11    1    3    3    0    0  0.28055975189E+01  0.33159199715E+01  0.35261417460E+01  0.55946741254E+01  0.51100000000E-03 0. -1.
        -11    1    3    3    0    0  0.81978533068E+01 -0.23925605829E+01 -0.98576964722E+01  0.13042366541E+02  0.51100000000E-03 0.  1.
        -12    1    3    3    0    0  0.28570467018E+02  0.55743775868E+01  0.13028551013E+02  0.31891823601E+02  0.00000000000E+00 0.  1.
</event>
<event>
 7    1  0.4962385E-011  0.5052885E+02  0.7816164E-02  0.1300439E+00
        -11   -1    0    0    0    0  0.00000000000E+00  0.00000000000E+00  0.45593999997E+02  0.45594000000E+02  0.51100000000E-03 0.  1.
         11   -1    0    0    0    0 -0.00000000000E+00 -0.00000000000E+00 -0.45593999997E+02  0.45594000000E+02  0.51100000000E-03 0. -1.
    9900012    2    1    2    0    0 -0.33624422028E+02 -0.22839848825E+02  0.95174965673E+00  0.50528852463E+02  0.29999977547E+02 0.  0.
        -12    1    1    2    0    0  0.33624422028E+02  0.22839848825E+02 -0.95174965673E+00  0.40659147537E+02  0.00000000000E+00 0.  1.
         11    1    3    3    0    0 -0.17242069295E+02 -0.80288847526E+01 -0.39954726332E+01  0.19434910490E+02  0.51100000000E-03 0. -1.
        -11    1    3    3    0    0  0.14559440226E+01  0.48836095050E+00  0.73149914096E+01  0.74744477387E+01  0.51100000000E-03 0.  1.
        -12    1    3    3    0    0 -0.17838296755E+02 -0.15299325022E+02 -0.23677691197E+01  0.23619494234E+02  0.00000000000E+00 0.  1.
</event>
<event>
 7    1  0.4962385E-011  0.5052886E+02  0.7816164E-02  0.1300439E+00
        -11   -1    0    0    0    0  0.00000000000E+00  0.00000000000E+00  0.45593999997E+02  0.45594000000E+02  0.51100000000E-03 0. -1.
         11   -1    0    0    0    0 -0.00000000000E+00 -0.00000000000E+00 -0.45593999997E+02  0.45594000000E+02  0.51100000000E-03 0.  1.
    9900012    2    1    2    0    0  0.17120241192E+02 -0.25606665664E+02  0.26539815818E+02  0.50528858241E+02  0.29999995109E+02 0.  0.
        -12    1    1    2    0    0 -0.17120241192E+02  0.25606665664E+02 -0.26539815818E+02  0.40659141759E+02  0.00000000000E+00 0.  1.
         11    1    3    3    0    0  0.89955020148E+01 -0.30256451894E+02  0.24248060390E+02  0.39803773322E+02  0.51100000000E-03 0. -1.
        -11    1    3    3    0    0  0.76045328341E+01  0.30494869889E+01  0.41395611733E+00  0.82036364162E+01  0.51100000000E-03 0.  1.
         12    1    3    3    0    0  0.52020634359E+00  0.16002992411E+01  0.18777993106E+01  0.25214485027E+01  0.00000000000E+00 0. -1.
</event>
<event>
 7    1  0.4962385E-011  0.5052886E+02  0.7816164E-02  0.1300439E+00
        -11   -1    0    0    0    0  0.00000000000E+00  0.00000000000E+00  0.45593999997E+02  0.45594000000E+02  0.51100000000E-03 0. -1.
         11   -1    0    0    0    0 -0.00000000000E+00 -0.00000000000E+00 -0.45593999997E+02  0.45594000000E+02  0.51100000000E-03 0.  1.
    9900012    2    1    2    0    0 -0.78309193242E+00 -0.28096945533E+02  0.29378797262E+02  0.50528864375E+02  0.30000013754E+02 0.  0.
        -12    1    1    2    0    0  0.78309193242E+00  0.28096945533E+02 -0.29378797262E+02  0.40659135625E+02  0.00000000000E+00 0.  1.
         11    1    3    3    0    0  0.76328610670E+00 -0.17604337196E+02  0.64493182039E+01  0.18764034730E+02  0.51100000000E-03 0. -1.
        -11    1    3    3    0    0  0.32086252260E+01 -0.55654886249E+01  0.23990496105E+02  0.24835737217E+02  0.51100000000E-03 0.  1.
        -12    1    3    3    0    0 -0.47550032652E+01 -0.49271197117E+01 -0.10610170472E+01  0.69290924283E+01  0.00000000000E+00 0.  1.
</event>
<event>
 7    1  0.4962385E-011  0.5052887E+02  0.7816164E-02  0.1300439E+00
        -11   -1    0    0    0    0  0.00000000000E+00  0.00000000000E+00  0.45593999997E+02  0.45594000000E+02  0.51100000000E-03 0. -1.
         11   -1    0    0    0    0 -0.00000000000E+00 -0.00000000000E+00 -0.45593999997E+02  0.45594000000E+02  0.51100000000E-03 0.  1.
    9900012    2    1    2    0    0 -0.18861456998E+02  0.76736824342E+01  0.35192687603E+02  0.50528865443E+02  0.30000017002E+02 0.  0.
        -12    1    1    2    0    0  0.18861456998E+02 -0.76736824342E+01 -0.35192687603E+02  0.40659134557E+02  0.00000000000E+00 0.  1.
         11    1    3    3    0    0 -0.18442155911E+02 -0.56496609685E+01  0.19311442326E+02  0.27294021116E+02  0.51100000000E-03 0. -1.
        -11    1    3    3    0    0  0.21953351474E+01  0.11727831308E+02  0.69843203067E+01  0.13825420572E+02  0.51100000000E-03 0.  1.
        -12    1    3    3    0    0 -0.26146362341E+01  0.15955120950E+01  0.88969249702E+01  0.94094237554E+01  0.00000000000E+00 0.  1.
</event>
<event>
 7    1  0.4962385E-011  0.5052886E+02  0.7816164E-02  0.1300439E+00
        -11   -1    0    0    0    0  0.00000000000E+00  0.00000000000E+00  0.45593999997E+02  0.45594000000E+02  0.51100000000E-03 0.  1.
         11   -1    0    0    0    0 -0.00000000000E+00 -0.00000000000E+00 -0.45593999997E+02  0.45594000000E+02  0.51100000000E-03 0. -1.
    9900012    2    1    2    0    0 -0.67092716417E+01 -0.21888000694E+02 -0.33601593299E+02  0.50528856224E+02  0.29999988979E+02 0.  0.
        -12    1    1    2    0    0  0.67092716417E+01  0.21888000694E+02  0.33601593299E+02  0.40659143776E+02  0.00000000000E+00 0.  1.
         11    1    3    3    0    0  0.26252930333E+01 -0.17968596120E+02 -0.12024306993E+02  0.21779498822E+02  0.51100000000E-03 0. -1.
        -11    1    3    3    0    0 -0.11602178084E+02 -0.55088911833E+01 -0.85458170224E+01  0.15426905302E+02  0.51100000000E-03 0.  1.
         12    1    3    3    0    0  0.22676134092E+01  0.15894866090E+01 -0.13031469284E+02  0.13322452100E+02  0.00000000000E+00 0. -1.
</event>
<event>
 7    1  0.4962385E-011  0.5052887E+02  0.7816164E-02  0.1300439E+00
        -11   -1    0    0    0    0  0.00000000000E+00  0.00000000000E+00  0.45593999997E+02  0.45594000000E+02  0.51100000000E-03 0.  1.
         11   -1    0    0    0    0 -0.00000000000E+00 -0.00000000000E+00 -0.45593999997E+02  0.45594000000E+02  0.51100000000E-03 0. -1.
    9900012    2    1    2    0    0  0.51324889503E+01  0.15317721226E+02 -0.37312061058E+02  0.50528869085E+02  0.30000028071E+02 0.  0.
        -12    1    1    2    0    0 -0.51324889503E+01 -0.15317721226E+02  0.37312061058E+02  0.40659130915E+02  0.00000000000E+00 0.  1.
         11    1    3    3    0    0  0.39581676127E+01  0.72847136577E+01 -0.21886515244E+02  0.23404138388E+02  0.51100000000E-03 0. -1.
        -11    1    3    3    0    0  0.59876596621E+01  0.45249303355E+01  0.27539210429E+01  0.79944445800E+01  0.51100000000E-03 0.  1.
        -12    1    3    3    0    0 -0.48133383245E+01  0.35080772326E+01 -0.18179466857E+02  0.19130286116E+02  0.00000000000E+00 0.  1.
</event>
<event>
 7    1  0.4962385E-011  0.5052886E+02  0.7816164E-02  0.1300439E+00
        -11   -1    0    0    0    0  0.00000000000E+00  0.00000000000E+00  0.45593999997E+02  0.45594000000E+02  0.51100000000E-03 0.  1.
         11   -1    0    0    0    0 -0.00000000000E+00 -0.00000000000E+00 -0.45593999997E+02  0.45594000000E+02  0.51100000000E-03 0. -1.
    9900012    2    1    2    0    0 -0.37265259222E+02 -0.58718209825E+01 -0.15165341168E+02  0.50528863274E+02  0.30000010409E+02 0.  0.
        -12    1    1    2    0    0  0.37265259222E+02  0.58718209825E+01  0.15165341168E+02  0.40659136726E+02  0.00000000000E+00 0.  1.
         11    1    3    3    0    0 -0.16708259769E+02 -0.13322846877E+02 -0.72912596501E+01  0.22579341465E+02  0.51100000000E-03 0. -1.
        -11    1    3    3    0    0 -0.32975847107E+01  0.76436288110E+01 -0.66337624623E+01  0.10644525870E+02  0.51100000000E-03 0.  1.
        -12    1    3    3    0    0 -0.17259414742E+02 -0.19260291607E+00 -0.12403190557E+01  0.17304995940E+02  0.00000000000E+00 0.  1.
</event>
<event>
 7    1  0.4962385E-011  0.5052886E+02  0.7816164E-02  0.1300439E+00
        -11   -1    0    0    0    0  0.00000000000E+00  0.00000000000E+00  0.45593999997E+02  0.45594000000E+02  0.51100000000E-03 0. -1.
         11   -1    0    0    0    0 -0.00000000000E+00 -0.00000000000E+00 -0.45593999997E+02  0.45594000000E+02  0.51100000000E-03 0.  1.
    9900012    2    1    2    0    0  0.12924509094E+02 -0.84655431787E+01  0.37609273586E+02  0.50528858146E+02  0.29999994822E+02 0.  0.
        -12    1    1    2    0    0 -0.12924509094E+02  0.84655431787E+01 -0.37609273586E+02  0.40659141854E+02  0.00000000000E+00 0.  1.
         11    1    3    3    0    0  0.21579195017E+01 -0.62440556860E+01  0.25966094220E+02  0.26793336807E+02  0.51100000000E-03 0. -1.
        -11    1    3    3    0    0  0.10945914248E+02  0.25161964430E+01  0.72985627237E-01  0.11231634361E+02  0.51100000000E-03 0.  1.
        -12    1    3    3    0    0 -0.17932465539E+00 -0.47376839357E+01  0.11570193739E+02  0.12503886978E+02  0.00000000000E+00 0.  1.
</event>
<event>
 7    1  0.4962385E-011  0.5052889E+02  0.7816164E-02  0.1300439E+00
        -11   -1    0    0    0    0  0.00000000000E+00  0.00000000000E+00  0.45593999997E+02  0.45594000000E+02  0.51100000000E-03 0.  1.
         11   -1    0    0    0    0 -0.00000000000E+00 -0.00000000000E+00 -0.45593999997E+02  0.45594000000E+02  0.51100000000E-03 0. -1.
    9900012    2    1    2    0    0  0.30638302378E+02  0.79020294731E+01 -0.25534592717E+02  0.50528891948E+02  0.30000097565E+02 0.  0.
        -12    1    1    2    0    0 -0.30638302378E+02 -0.79020294731E+01  0.25534592717E+02  0.40659108052E+02  0.00000000000E+00 0.  1.
         11    1    3    3    0    0  0.92918697000E+01  0.11406532027E+01 -0.20792443423E+01  0.95897439771E+01  0.51100000000E-03 0. -1.
        -11    1    3    3    0    0  0.17366418185E+02  0.33185511299E+00 -0.27376047320E+02  0.32421452397E+02  0.51100000000E-03 0.  1.
        -12    1    3    3    0    0  0.39800144929E+01  0.64295211574E+01  0.39206989453E+01  0.85176955743E+01  0.00000000000E+00 0.  1.
</event>
<event>
 7    1  0.4962385E-011  0.5052886E+02  0.7816164E-02  0.1300439E+00
        -11   -1    0    0    0    0  0.00000000000E+00  0.00000000000E+00  0.45593999997E+02  0.45594000000E+02  0.51100000000E-03 0.  1.
         11   -1    0    0    0    0 -0.00000000000E+00 -0.00000000000E+00 -0.45593999997E+02  0.45594000000E+02  0.51100000000E-03 0. -1.
    9900012    2    1    2    0    0 -0.12362159058E+02  0.38646017073E+02 -0.26130622740E+01  0.50528859495E+02  0.29999998922E+02 0.  0.
        -12    1    1    2    0    0  0.12362159058E+02 -0.38646017073E+02  0.26130622740E+01  0.40659140505E+02  0.00000000000E+00 0.  1.
         11    1    3    3    0    0 -0.91686845581E+01  0.11260720266E+02 -0.48816039612E+01  0.15319877771E+02  0.51100000000E-03 0. -1.
        -11    1    3    3    0    0 -0.16350644279E+01  0.27336651767E+02 -0.49454118085E+01  0.27828457804E+02  0.51100000000E-03 0.  1.
        -12    1    3    3    0    0 -0.15584100716E+01  0.48645039244E-01  0.72139534958E+01  0.73805239198E+01  0.00000000000E+00 0.  1.
</event>
<event>
 7    1  0.4962385E-011  0.5052885E+02  0.7816164E-02  0.1300439E+00
        -11   -1    0    0    0    0  0.00000000000E+00  0.00000000000E+00  0.45593999997E+02  0.45594000000E+02  0.51100000000E-03 0. -1.
         11   -1    0    0    0    0 -0.00000000000E+00 -0.00000000000E+00 -0.45593999997E+02  0.45594000000E+02  0.51100000000E-03 0.  1.
    9900012    2    1    2    0    0  0.68462681700E+01 -0.32031589191E+02  0.24088835763E+02  0.50528854628E+02  0.29999984127E+02 0.  0.
        -12    1    1    2    0    0 -0.68462681700E+01  0.32031589191E+02 -0.24088835763E+02  0.40659145372E+02  0.00000000000E+00 0.  1.
         11    1    3    3    0    0 -0.51153208396E+01 -0.21273863202E+02  0.24766470541E+02  0.33047266546E+02  0.51100000000E-03 0. -1.
        -11    1    3    3    0    0  0.52537402670E+01 -0.56218507200E+01 -0.36622160384E+01  0.85216676117E+01  0.51100000000E-03 0.  1.
         12    1    3    3    0    0  0.67078487426E+01 -0.51358752693E+01  0.29845812608E+01  0.89599204705E+01  0.00000000000E+00 0. -1.
</event>
<event>
 7    1  0.4962385E-011  0.5052886E+02  0.7816164E-02  0.1300439E+00
        -11   -1    0    0    0    0  0.00000000000E+00  0.00000000000E+00  0.45593999997E+02  0.45594000000E+02  0.51100000000E-03 0.  1.
         11   -1    0    0    0    0 -0.00000000000E+00 -0.00000000000E+00 -0.45593999997E+02  0.45594000000E+02  0.51100000000E-03 0. -1.
    9900012    2    1    2    0    0 -0.39123923831E+02  0.41991318771E+01  0.10239695051E+02  0.50528862291E+02  0.30000007420E+02 0.  0.
        -12    1    1    2    0    0  0.39123923831E+02 -0.41991318771E+01 -0.10239695051E+02  0.40659137709E+02  0.00000000000E+00 0.  1.
         11    1    3    3    0    0 -0.10340070244E+02 -0.69260736821E+01  0.13704055632E+02  0.18511852699E+02  0.51100000000E-03 0.  1.
        -11    1    3    3    0    0 -0.25981007389E+02  0.10015346696E+02 -0.54959156645E+01  0.28381772384E+02  0.51100000000E-03 0. -1.
        -12    1    3    3    0    0 -0.28028461985E+01  0.11098588629E+01  0.20315550830E+01  0.36352372087E+01  0.00000000000E+00 0.  1.
</event>
<event>
 7    1  0.4962385E-011  0.5052887E+02  0.7816164E-02  0.1300439E+00
        -11   -1    0    0    0    0  0.00000000000E+00  0.00000000000E+00  0.45593999997E+02  0.45594000000E+02  0.51100000000E-03 0.  1.
         11   -1    0    0    0    0 -0.00000000000E+00 -0.00000000000E+00 -0.45593999997E+02  0.45594000000E+02  0.51100000000E-03 0. -1.
    9900012    2    1    2    0    0  0.34689671681E+02 -0.84657728715E+01 -0.19445365031E+02  0.50528869994E+02  0.30000030834E+02 0.  0.
        -12    1    1    2    0    0 -0.34689671681E+02  0.84657728715E+01  0.19445365031E+02  0.40659130006E+02  0.00000000000E+00 0.  1.
         11    1    3    3    0    0  0.13905765090E+02 -0.13891103386E+02 -0.11470284692E+02  0.22757427077E+02  0.51100000000E-03 0. -1.
        -11    1    3    3    0    0 -0.17836107282E+01  0.30744574757E+01 -0.27343323273E+01  0.44844319079E+01  0.51100000000E-03 0.  1.
         12    1    3    3    0    0  0.22567517319E+02  0.23508730384E+01 -0.52407480117E+01  0.23287011009E+02  0.00000000000E+00 0. -1.
</event>
<event>
 7    1  0.4962385E-011  0.5052887E+02  0.7816164E-02  0.1300439E+00
        -11   -1    0    0    0    0  0.00000000000E+00  0.00000000000E+00  0.45593999997E+02  0.45594000000E+02  0.51100000000E-03 0.  1.
         11   -1    0    0    0    0 -0.00000000000E+00 -0.00000000000E+00 -0.45593999997E+02  0.45594000000E+02  0.51100000000E-03 0. -1.
    9900012    2    1    2    0    0 -0.40501390490E+02 -0.35150848304E+01 -0.66836771046E+00  0.50528866113E+02  0.30000019038E+02 0.  0.
        -12    1    1    2    0    0  0.40501390490E+02  0.35150848304E+01  0.66836771046E+00  0.40659133887E+02  0.00000000000E+00 0.  1.
         11    1    3    3    0    0  0.49442635344E-01 -0.54999575015E+01 -0.49111768570E+01  0.73737124622E+01  0.51100000000E-03 0. -1.
        -11    1    3    3    0    0 -0.12430732134E+02  0.71065178271E+01  0.23453985930E+01  0.14509534515E+02  0.51100000000E-03 0.  1.
         12    1    3    3    0    0 -0.28120100991E+02 -0.51216451559E+01  0.18974105535E+01  0.28645619136E+02  0.00000000000E+00 0. -1.
</event>
<event>
 7    1  0.4962385E-011  0.5052886E+02  0.7816164E-02  0.1300439E+00
        -11   -1    0    0    0    0  0.00000000000E+00  0.00000000000E+00  0.45593999997E+02  0.45594000000E+02  0.51100000000E-03 0.  1.
         11   -1    0    0    0    0 -0.00000000000E+00 -0.00000000000E+00 -0.45593999997E+02  0.45594000000E+02  0.51100000000E-03 0. -1.
    9900012    2    1    2    0    0 -0.28828476489E+01 -0.21412141840E+02 -0.34443800563E+02  0.50528855568E+02  0.29999986985E+02 0.  0.
        -12    1    1    2    0    0  0.28828476489E+01  0.21412141840E+02  0.34443800563E+02  0.40659144432E+02  0.00000000000E+00 0.  1.
         11    1    3    3    0    0  0.18595935676E+01 -0.16515050843E+02 -0.14102872656E+02  0.21796697227E+02  0.51100000000E-03 0. -1.
        -11    1    3    3    0    0  0.13260304755E+01 -0.16378642546E+01 -0.21623083279E+02  0.21725530762E+02  0.51100000000E-03 0.  1.
        -12    1    3    3    0    0 -0.60684716919E+01 -0.32592267424E+01  0.12821553725E+01  0.70066275792E+01  0.00000000000E+00 0.  1.
</event>
<event>
 7    1  0.4962385E-011  0.5052889E+02  0.7816164E-02  0.1300439E+00
        -11   -1    0    0    0    0  0.00000000000E+00  0.00000000000E+00  0.45593999997E+02  0.45594000000E+02  0.51100000000E-03 0. -1.
         11   -1    0    0    0    0 -0.00000000000E+00 -0.00000000000E+00 -0.45593999997E+02  0.45594000000E+02  0.51100000000E-03 0.  1.
    9900012    2    1    2    0    0 -0.17729448563E+01  0.40203770343E+02  0.58031765551E+01  0.50528888581E+02  0.30000087331E+02 0.  0.
        -12    1    1    2    0    0  0.17729448563E+01 -0.40203770343E+02 -0.58031765551E+01  0.40659111419E+02  0.00000000000E+00 0.  1.
         11    1    3    3    0    0 -0.10595539090E+02  0.37791729946E+02  0.74976365764E+01  0.39958664335E+02  0.51100000000E-03 0. -1.
        -11    1    3    3    0    0  0.49034713214E+01  0.36074259766E+01 -0.21308965282E+01  0.64496723523E+01  0.51100000000E-03 0.  1.
         12    1    3    3    0    0  0.39191229120E+01 -0.11953855800E+01  0.43643650691E+00  0.41205518937E+01  0.00000000000E+00 0. -1.
</event>
<event>
 7    1  0.4962385E-011  0.5052881E+02  0.7816164E-02  0.1300439E+00
        -11   -1    0    0    0    0  0.00000000000E+00  0.00000000000E+00  0.45593999997E+02  0.45594000000E+02  0.51100000000E-03 0.  1.
         11   -1    0    0    0    0 -0.00000000000E+00 -0.00000000000E+00 -0.45593999997E+02  0.45594000000E+02  0.51100000000E-03 0. -1.
    9900012    2    1    2    0    0 -0.27000104105E+02 -0.17504625112E+02 -0.24854615989E+02  0.50528813364E+02  0.29999858700E+02 0.  0.
        -12    1    1    2    0    0  0.27000104105E+02  0.17504625112E+02  0.24854615989E+02  0.40659186636E+02  0.00000000000E+00 0.  1.
         11    1    3    3    0    0 -0.15368035896E+02 -0.75913054326E+01 -0.24942729275E+02  0.30264569870E+02  0.51100000000E-03 0. -1.
        -11    1    3    3    0    0 -0.30665963014E+01 -0.89811164440E+01 -0.44996251586E+01  0.10502908754E+02  0.51100000000E-03 0.  1.
         12    1    3    3    0    0 -0.85654719068E+01 -0.93220323539E+00  0.45877384448E+01  0.97613347395E+01  0.00000000000E+00 0. -1.
</event>
<event>
 7    1  0.4962385E-011  0.5052886E+02  0.7816164E-02  0.1300439E+00
        -11   -1    0    0    0    0  0.00000000000E+00  0.00000000000E+00  0.45593999997E+02  0.45594000000E+02  0.51100000000E-03 0.  1.
         11   -1    0    0    0    0 -0.00000000000E+00 -0.00000000000E+00 -0.45593999997E+02  0.45594000000E+02  0.51100000000E-03 0. -1.
    9900012    2    1    2    0    0 -0.12291079408E+02 -0.17290956909E+02 -0.34685988581E+02  0.50528860465E+02  0.30000001870E+02 0.  0.
        -12    1    1    2    0    0  0.12291079408E+02  0.17290956909E+02  0.34685988581E+02  0.40659139535E+02  0.00000000000E+00 0.  1.
         11    1    3    3    0    0 -0.11360351482E+02 -0.11092241431E+02 -0.39445849353E+01  0.16360169813E+02  0.51100000000E-03 0.  1.
        -11    1    3    3    0    0 -0.62901887401E+01 -0.58879500408E+01 -0.24306937774E+02  0.25788789314E+02  0.51100000000E-03 0. -1.
        -12    1    3    3    0    0  0.53594608142E+01 -0.31076543737E+00 -0.64344658726E+01  0.83799013384E+01  0.00000000000E+00 0.  1.
</event>
<event>
 7    1  0.4962385E-011  0.5052887E+02  0.7816164E-02  0.1300439E+00
        -11   -1    0    0    0    0  0.00000000000E+00  0.00000000000E+00  0.45593999997E+02  0.45594000000E+02  0.51100000000E-03 0.  1.
         11   -1    0    0    0    0 -0.00000000000E+00 -0.00000000000E+00 -0.45593999997E+02  0.45594000000E+02  0.51100000000E-03 0. -1.
    9900012    2    1    2    0    0 -0.24627181528E+01  0.32851982661E+02 -0.23829550706E+02  0.50528865327E+02  0.30000016649E+02 0.  0.
        -12    1    1    2    0    0  0.24627181528E+01 -0.32851982661E+02  0.23829550706E+02  0.40659134673E+02  0.00000000000E+00 0.  1.
         11    1    3    3    0    0  0.10236503252E+02  0.67768537210E+01 -0.75289519527E+01  0.14401279907E+02  0.51100000000E-03 0. -1.
        -11    1    3    3    0    0 -0.75143820772E+01  0.35366313113E+01 -0.80683153384E+01  0.11578921007E+02  0.51100000000E-03 0.  1.
         12    1    3    3    0    0 -0.51848393279E+01  0.22538497629E+02 -0.82322834151E+01  0.24548664413E+02  0.00000000000E+00 0. -1.
</event>
<event>
 7    1  0.4962385E-011  0.5052886E+02  0.7816164E-02  0.1300439E+00
        -11   -1    0    0    0    0  0.00000000000E+00  0.00000000000E+00  0.45593999997E+02  0.45594000000E+02  0.51100000000E-03 0. -1.
         11   -1    0    0    0    0 -0.00000000000E+00 -0.00000000000E+00 -0.45593999997E+02  0.45594000000E+02  0.51100000000E-03 0.  1.
    9900012    2    1    2    0    0 -0.25918971130E+02 -0.30011455060E+02  0.89824949440E+01  0.50528859395E+02  0.29999998618E+02 0.  0.
        -12    1    1    2    0    0  0.25918971130E+02  0.30011455060E+02 -0.89824949440E+01  0.40659140605E+02  0.00000000000E+00 0.  1.
         11    1    3    3    0    0 -0.10381300617E+02 -0.15355023804E+02  0.36231154331E+01  0.18885844546E+02  0.51100000000E-03 0. -1.
        -11    1    3    3    0    0 -0.76466376789E+00  0.91850473070E+00 -0.68456735985E+01  0.69492164232E+01  0.51100000000E-03 0.  1.
        -12    1    3    3    0    0 -0.14773006745E+02 -0.15574935988E+02  0.12205053109E+02  0.24693798426E+02  0.00000000000E+00 0.  1.
</event>
<event>
 7    1  0.4962385E-011  0.5052886E+02  0.7816164E-02  0.1300439E+00
        -11   -1    0    0    0    0  0.00000000000E+00  0.00000000000E+00  0.45593999997E+02  0.45594000000E+02  0.51100000000E-03 0. -1.
         11   -1    0    0    0    0 -0.00000000000E+00 -0.00000000000E+00 -0.45593999997E+02  0.45594000000E+02  0.51100000000E-03 0.  1.
    9900012    2    1    2    0    0 -0.65605752547E+01  0.11194756596E+02  0.38533129338E+02  0.50528858598E+02  0.29999996195E+02 0.  0.
        -12    1    1    2    0    0  0.65605752547E+01 -0.11194756596E+02 -0.38533129338E+02  0.40659141402E+02  0.00000000000E+00 0.  1.
         11    1    3    3    0    0  0.96820253928E+00  0.56351318730E+01  0.28815513836E+02  0.29377303574E+02  0.51100000000E-03 0. -1.
        -11    1    3    3    0    0 -0.10881676702E+02  0.71052240987E+01  0.27759323505E+01  0.13289127060E+02  0.51100000000E-03 0.  1.
        -12    1    3    3    0    0  0.33528989077E+01 -0.15455993756E+01  0.69416831520E+01  0.78624279645E+01  0.00000000000E+00 0.  1.
</event>
<event>
 7    1  0.4962385E-011  0.5052886E+02  0.7816164E-02  0.1300439E+00
        -11   -1    0    0    0    0  0.00000000000E+00  0.00000000000E+00  0.45593999997E+02  0.45594000000E+02  0.51100000000E-03 0.  1.
         11   -1    0    0    0    0 -0.00000000000E+00 -0.00000000000E+00 -0.45593999997E+02  0.45594000000E+02  0.51100000000E-03 0. -1.
    9900012    2    1    2    0    0 -0.17335355991E+00 -0.39545830381E+02 -0.94478895248E+01  0.50528863654E+02  0.30000011561E+02 0.  0.
        -12    1    1    2    0    0  0.17335355991E+00  0.39545830381E+02  0.94478895248E+01  0.40659136346E+02  0.00000000000E+00 0.  1.
         11    1    3    3    0    0  0.19721678566E+01 -0.14793435078E+02 -0.15408218615E+02  0.21451069172E+02  0.51100000000E-03 0. -1.
        -11    1    3    3    0    0  0.49049128654E+01 -0.17970821063E+02  0.30889123555E+01  0.18882530543E+02  0.51100000000E-03 0.  1.
        -12    1    3    3    0    0 -0.70504342819E+01 -0.67815742392E+01  0.28714167342E+01  0.10195263939E+02  0.00000000000E+00 0.  1.
</event>
<event>
 7    1  0.4962385E-011  0.5052887E+02  0.7816164E-02  0.1300439E+00
        -11   -1    0    0    0    0  0.00000000000E+00  0.00000000000E+00  0.45593999997E+02  0.45594000000E+02  0.51100000000E-03 0.  1.
         11   -1    0    0    0    0 -0.00000000000E+00 -0.00000000000E+00 -0.45593999997E+02  0.45594000000E+02  0.51100000000E-03 0. -1.
    9900012    2    1    2    0    0  0.13735597539E+02 -0.16975994348E+02 -0.34297436091E+02  0.50528866385E+02  0.30000019865E+02 0.  0.
        -12    1    1    2    0    0 -0.13735597539E+02  0.16975994348E+02  0.34297436091E+02  0.40659133615E+02  0.00000000000E+00 0.  1.
         11    1    3    3    0    0  0.70609504493E+01  0.75612932601E+01 -0.10314118725E+02  0.14608600972E+02  0.51100000000E-03 0. -1.
        -11    1    3    3    0    0  0.28112684977E+01 -0.21857473751E+02 -0.19904061717E+02  0.29695522599E+02  0.51100000000E-03 0.  1.
        -12    1    3    3    0    0  0.38633785916E+01 -0.26798138572E+01 -0.40792556492E+01  0.62247428142E+01  0.00000000000E+00 0.  1.
</event>
<event>
 7    1  0.4962385E-011  0.5052885E+02  0.7816164E-02  0.1300439E+00
        -11   -1    0    0    0    0  0.00000000000E+00  0.00000000000E+00  0.45593999997E+02  0.45594000000E+02  0.51100000000E-03 0.  1.
         11   -1    0    0    0    0 -0.00000000000E+00 -0.00000000000E+00 -0.45593999997E+02  0.45594000000E+02  0.51100000000E-03 0. -1.
    9900012    2    1    2    0    0  0.94304260001E+01  0.30786060205E+02 -0.24828451396E+02  0.50528850522E+02  0.29999971648E+02 0.  0.
        -12    1    1    2    0    0 -0.94304260001E+01 -0.30786060205E+02  0.24828451396E+02  0.40659149478E+02  0.00000000000E+00 0.  1.
         11    1    3    3    0    0  0.15981440071E+02  0.19882860892E+02 -0.89929953761E+01  0.27048263347E+02  0.51100000000E-03 0. -1.
        -11    1    3    3    0    0 -0.78843627247E+01  0.89442674924E+01 -0.17059704409E+02  0.20813375779E+02  0.51100000000E-03 0.  1.
        -12    1    3    3    0    0  0.13333486542E+01  0.19589318207E+01  0.12242483890E+01  0.26672113958E+01  0.00000000000E+00 0.  1.
</event>
<event>
 7    1  0.4962385E-011  0.5052886E+02  0.7816164E-02  0.1300439E+00
        -11   -1    0    0    0    0  0.00000000000E+00  0.00000000000E+00  0.45593999997E+02  0.45594000000E+02  0.51100000000E-03 0.  1.
         11   -1    0    0    0    0 -0.00000000000E+00 -0.00000000000E+00 -0.45593999997E+02  0.45594000000E+02  0.51100000000E-03 0. -1.
    9900012    2    1    2    0    0 -0.11600861987E+02  0.44437487200E+00 -0.38966501724E+02  0.50528859275E+02  0.29999998253E+02 0.  0.
        -12    1    1    2    0    0  0.11600861987E+02 -0.44437487200E+00  0.38966501724E+02  0.40659140725E+02  0.00000000000E+00 0.  1.
         11    1    3    3    0    0 -0.19033144511E+01 -0.10770084229E+02 -0.16528725848E+02  0.19819588761E+02  0.51100000000E-03 0. -1.
        -11    1    3    3    0    0 -0.93552733250E+01  0.31678690586E+01 -0.41252458344E+01  0.10703933240E+02  0.51100000000E-03 0.  1.
         12    1    3    3    0    0 -0.34227421073E+00  0.80465900429E+01 -0.18312530041E+02  0.20005337275E+02  0.00000000000E+00 0. -1.
</event>
<event>
 7    1  0.4962385E-011  0.5052887E+02  0.7816164E-02  0.1300439E+00
        -11   -1    0    0    0    0  0.00000000000E+00  0.00000000000E+00  0.45593999997E+02  0.45594000000E+02  0.51100000000E-03 0.  1.
         11   -1    0    0    0    0 -0.00000000000E+00 -0.00000000000E+00 -0.45593999997E+02  0.45594000000E+02  0.51100000000E-03 0. -1.
    9900012    2    1    2    0    0  0.30335112446E+02 -0.27011167536E+02 -0.18282161285E+01  0.50528873190E+02  0.30000040548E+02 0.  0.
        -12    1    1    2    0    0 -0.30335112446E+02  0.27011167536E+02  0.18282161285E+01  0.40659126810E+02  0.00000000000E+00 0.  1.
         11    1    3    3    0    0  0.39657489349E+01 -0.17842721437E+02 -0.40465566749E+01  0.18720696944E+02  0.51100000000E-03 0. -1.
        -11    1    3    3    0    0  0.12583375662E+02  0.34107859055E+01  0.16015906073E+01  0.13135444274E+02  0.51100000000E-03 0.  1.
        -12    1    3    3    0    0  0.13785987849E+02 -0.12579232005E+02  0.61674993905E+00  0.18672731972E+02  0.00000000000E+00 0.  1.
</event>
<event>
 7    1  0.4962385E-011  0.5052888E+02  0.7816164E-02  0.1300439E+00
        -11   -1    0    0    0    0  0.00000000000E+00  0.00000000000E+00  0.45593999997E+02  0.45594000000E+02  0.51100000000E-03 0. -1.
         11   -1    0    0    0    0 -0.00000000000E+00 -0.00000000000E+00 -0.45593999997E+02  0.45594000000E+02  0.51100000000E-03 0.  1.
    9900012    2    1    2    0    0 -0.28909660798E+02 -0.20032626612E+02  0.20398271801E+02  0.50528879143E+02  0.30000058642E+02 0.  0.
        -12    1    1    2    0    0  0.28909660798E+02  0.20032626612E+02 -0.20398271801E+02  0.40659120857E+02  0.00000000000E+00 0.  1.
         11    1    3    3    0    0 -0.25279450579E+02 -0.97699281549E+01  0.26377982880E+02  0.37819308545E+02  0.51100000000E-03 0. -1.
        -11    1    3    3    0    0 -0.21239336083E+01 -0.23810028946E+01 -0.17087571363E+01  0.36194087871E+01  0.51100000000E-03 0.  1.
         12    1    3    3    0    0 -0.15062766101E+01 -0.78816955622E+01 -0.42709539425E+01  0.90901618104E+01  0.00000000000E+00 0. -1.
</event>
<event>
 7    1  0.4962385E-011  0.5052885E+02  0.7816164E-02  0.1300439E+00
        -11   -1    0    0    0    0  0.00000000000E+00  0.00000000000E+00  0.45593999997E+02  0.45594000000E+02  0.51100000000E-03 0.  1.
         11   -1    0    0    0    0 -0.00000000000E+00 -0.00000000000E+00 -0.45593999997E+02  0.45594000000E+02  0.51100000000E-03 0. -1.
    9900012    2    1    2    0    0  0.25368644526E+02  0.18865506349E+02 -0.25567376087E+02  0.50528853737E+02  0.29999981419E+02 0.  0.
        -12    1    1    2    0    0 -0.25368644526E+02 -0.18865506349E+02  0.25567376087E+02  0.40659146263E+02  0.00000000000E+00 0.  1.
         11    1    3    3    0    0 -0.14941576818E+01  0.67356046800E+01 -0.15500966904E+02  0.16967051977E+02  0.51100000000E-03 0.  1.
        -11    1    3    3    0    0  0.14921779532E+02  0.43643077326E+01  0.91847200594E+00  0.15574025731E+02  0.51100000000E-03 0. -1.
         12    1    3    3    0    0  0.11941022676E+02  0.77655939359E+01 -0.10984881189E+02  0.17987776029E+02  0.00000000000E+00 0. -1.
</event>
<event>
 7    1  0.4962385E-011  0.5052886E+02  0.7816164E-02  0.1300439E+00
        -11   -1    0    0    0    0  0.00000000000E+00  0.00000000000E+00  0.45593999997E+02  0.45594000000E+02  0.51100000000E-03 0. -1.
         11   -1    0    0    0    0 -0.00000000000E+00 -0.00000000000E+00 -0.45593999997E+02  0.45594000000E+02  0.51100000000E-03 0.  1.
    9900012    2    1    2    0    0 -0.94867376735E+01 -0.16058953212E+01  0.39504284038E+02  0.50528861436E+02  0.30000004819E+02 0.  0.
        -12    1    1    2    0    0  0.94867376735E+01  0.16058953212E+01 -0.39504284038E+02  0.40659138564E+02  0.00000000000E+00 0.  1.
         11    1    3    3    0    0  0.14603181982E+01 -0.80872041942E+01  0.14089333952E+02  0.16310877732E+02  0.51100000000E-03 0. -1.
        -11    1    3    3    0    0  0.23433659629E+01  0.88997036359E+01  0.12556320779E+02  0.15567828384E+02  0.51100000000E-03 0.  1.
        -12    1    3    3    0    0 -0.13290421835E+02 -0.24183947629E+01  0.12858629307E+02  0.18650155319E+02  0.00000000000E+00 0.  1.
</event>
<event>
 7    1  0.4962385E-011  0.5052887E+02  0.7816164E-02  0.1300439E+00
        -11   -1    0    0    0    0  0.00000000000E+00  0.00000000000E+00  0.45593999997E+02  0.45594000000E+02  0.51100000000E-03 0. -1.
         11   -1    0    0    0    0 -0.00000000000E+00 -0.00000000000E+00 -0.45593999997E+02  0.45594000000E+02  0.51100000000E-03 0.  1.
    9900012    2    1    2    0    0  0.30216430361E+02 -0.25830064991E+02  0.85404664847E+01  0.50528874469E+02  0.30000044434E+02 0.  0.
        -12    1    1    2    0    0 -0.30216430361E+02  0.25830064991E+02 -0.85404664847E+01  0.40659125531E+02  0.00000000000E+00 0.  1.
         11    1    3    3    0    0  0.29867266213E+02 -0.96445119242E+01  0.77986652652E+01  0.32340213071E+02  0.51100000000E-03 0. -1.
        -11    1    3    3    0    0 -0.21020731501E+01 -0.11198654219E+02 -0.26233894875E+01  0.11692336829E+02  0.51100000000E-03 0.  1.
        -12    1    3    3    0    0  0.24512372980E+01 -0.49868988481E+01  0.33651907071E+01  0.64963245691E+01  0.00000000000E+00 0.  1.
</event>
<event>
 7    1  0.4962385E-011  0.5052886E+02  0.7816164E-02  0.1300439E+00
        -11   -1    0    0    0    0  0.00000000000E+00  0.00000000000E+00  0.45593999997E+02  0.45594000000E+02  0.51100000000E-03 0.  1.
         11   -1    0    0    0    0 -0.00000000000E+00 -0.00000000000E+00 -0.45593999997E+02  0.45594000000E+02  0.51100000000E-03 0. -1.
    9900012    2    1    2    0    0 -0.39411825761E+02  0.97953612499E+01  0.19811337594E+01  0.50528855853E+02  0.29999987849E+02 0.  0.
        -12    1    1    2    0    0  0.39411825761E+02 -0.97953612499E+01 -0.19811337594E+01  0.40659144147E+02  0.00000000000E+00 0.  1.
         11    1    3    3    0    0 -0.13963593639E+02 -0.71030114535E+01  0.78432038991E+01  0.17520004757E+02  0.51100000000E-03 0.  1.
        -11    1    3    3    0    0 -0.16171868709E+02  0.13778104910E+02 -0.84839073854E+01  0.22876673649E+02  0.51100000000E-03 0. -1.
        -12    1    3    3    0    0 -0.92763634120E+01  0.31202677936E+01  0.26218372456E+01  0.10132177446E+02  0.00000000000E+00 0.  1.
</event>
<event>
 7    1  0.4962385E-011  0.5052886E+02  0.7816164E-02  0.1300439E+00
        -11   -1    0    0    0    0  0.00000000000E+00  0.00000000000E+00  0.45593999997E+02  0.45594000000E+02  0.51100000000E-03 0. -1.
         11   -1    0    0    0    0 -0.00000000000E+00 -0.00000000000E+00 -0.45593999997E+02  0.45594000000E+02  0.51100000000E-03 0.  1.
    9900012    2    1    2    0    0  0.34944707444E+02 -0.20620652096E+02  0.26117936808E+01  0.50528864035E+02  0.30000012721E+02 0.  0.
        -12    1    1    2    0    0 -0.34944707444E+02  0.20620652096E+02 -0.26117936808E+01  0.40659135965E+02  0.00000000000E+00 0.  1.
         11    1    3    3    0    0  0.12058904913E+02 -0.10844956376E+02 -0.14211127565E+01  0.16280350986E+02  0.51100000000E-03 0. -1.
        -11    1    3    3    0    0  0.13207000552E+02 -0.88181342399E+01  0.13375163007E+02  0.20762450260E+02  0.51100000000E-03 0.  1.
        -12    1    3    3    0    0  0.96788019784E+01 -0.95756147972E+00 -0.93422565702E+01  0.13486062789E+02  0.00000000000E+00 0.  1.
</event>
<event>
 7    1  0.4962385E-011  0.5052885E+02  0.7816164E-02  0.1300439E+00
        -11   -1    0    0    0    0  0.00000000000E+00  0.00000000000E+00  0.45593999997E+02  0.45594000000E+02  0.51100000000E-03 0.  1.
         11   -1    0    0    0    0 -0.00000000000E+00 -0.00000000000E+00 -0.45593999997E+02  0.45594000000E+02  0.51100000000E-03 0. -1.
    9900012    2    1    2    0    0  0.27583451561E+02 -0.99990430212E+01 -0.28148507783E+02  0.50528854021E+02  0.29999982283E+02 0.  0.
        -12    1    1    2    0    0 -0.27583451561E+02  0.99990430212E+01  0.28148507783E+02  0.40659145979E+02  0.00000000000E+00 0.  1.
         11    1    3    3    0    0  0.53384794727E+01 -0.11302054065E+02 -0.13092443724E+02  0.18101046160E+02  0.51100000000E-03 0. -1.
        -11    1    3    3    0    0  0.11767684832E+02  0.75844274132E+01 -0.14564229135E+02  0.20201948323E+02  0.51100000000E-03 0.  1.
        -12    1    3    3    0    0  0.10477287256E+02 -0.62814163698E+01 -0.49183492368E+00  0.12225859538E+02  0.00000000000E+00 0.  1.
</event>
<event>
 7    1  0.4962385E-011  0.5052886E+02  0.7816164E-02  0.1300439E+00
        -11   -1    0    0    0    0  0.00000000000E+00  0.00000000000E+00  0.45593999997E+02  0.45594000000E+02  0.51100000000E-03 0.  1.
         11   -1    0    0    0    0 -0.00000000000E+00 -0.00000000000E+00 -0.45593999997E+02  0.45594000000E+02  0.51100000000E-03 0. -1.
    9900012    2    1    2    0    0  0.64097556913E+01  0.23320838711E+01 -0.40082942639E+02  0.50528857439E+02  0.29999992671E+02 0.  0.
        -12    1    1    2    0    0 -0.64097556913E+01 -0.23320838711E+01  0.40082942639E+02  0.40659142561E+02  0.00000000000E+00 0.  1.
         11    1    3    3    0    0 -0.23151100536E+01  0.53633785117E+01 -0.28196963745E+02  0.28795734551E+02  0.51100000000E-03 0. -1.
        -11    1    3    3    0    0  0.10594965601E+01 -0.75095692751E+01 -0.94362745456E+00  0.76424208660E+01  0.51100000000E-03 0.  1.
        -12    1    3    3    0    0  0.76653691848E+01  0.44782746346E+01 -0.10942351440E+02  0.14090702022E+02  0.00000000000E+00 0.  1.
</event>
<event>
 7    1  0.4962385E-011  0.5052886E+02  0.7816164E-02  0.1300439E+00
        -11   -1    0    0    0    0  0.00000000000E+00  0.00000000000E+00  0.45593999997E+02  0.45594000000E+02  0.51100000000E-03 0.  1.
         11   -1    0    0    0    0 -0.00000000000E+00 -0.00000000000E+00 -0.45593999997E+02  0.45594000000E+02  0.51100000000E-03 0. -1.
    9900012    2    1    2    0    0  0.87285965419E+01  0.39233824792E+02 -0.61387274863E+01  0.50528863504E+02  0.30000011108E+02 0.  0.
        -12    1    1    2    0    0 -0.87285965419E+01 -0.39233824792E+02  0.61387274863E+01  0.40659136496E+02  0.00000000000E+00 0.  1.
         11    1    3    3    0    0  0.36409601099E+01  0.34030209076E+02 -0.13947056365E+02  0.36957165771E+02  0.51100000000E-03 0. -1.
        -11    1    3    3    0    0  0.73296575617E+01  0.48599977756E+01  0.57392271920E+01  0.10501532620E+02  0.51100000000E-03 0.  1.
         12    1    3    3    0    0 -0.22420211297E+01  0.34361794029E+00  0.20691016864E+01  0.30701651134E+01  0.00000000000E+00 0. -1.
</event>
<event>
 7    1  0.4962385E-011  0.5052886E+02  0.7816164E-02  0.1300439E+00
        -11   -1    0    0    0    0  0.00000000000E+00  0.00000000000E+00  0.45593999997E+02  0.45594000000E+02  0.51100000000E-03 0.  1.
         11   -1    0    0    0    0 -0.00000000000E+00 -0.00000000000E+00 -0.45593999997E+02  0.45594000000E+02  0.51100000000E-03 0. -1.
    9900012    2    1    2    0    0  0.29599369367E+02  0.42930346425E+01 -0.27542920100E+02  0.50528864975E+02  0.30000015577E+02 0.  0.
        -12    1    1    2    0    0 -0.29599369367E+02 -0.42930346425E+01  0.27542920100E+02  0.40659135025E+02  0.00000000000E+00 0.  1.
         11    1    3    3    0    0  0.14184319060E+02  0.16904157621E+01 -0.28345198698E+02  0.31741183061E+02  0.51100000000E-03 0. -1.
        -11    1    3    3    0    0  0.91613890569E+01 -0.36952178089E+01  0.81808736461E+00  0.99123635579E+01  0.51100000000E-03 0.  1.
        -12    1    3    3    0    0  0.62536612500E+01  0.62978366893E+01 -0.15808766793E-01  0.88753183555E+01  0.00000000000E+00 0.  1.
</event>
<event>
 7    1  0.4962385E-011  0.5052886E+02  0.7816164E-02  0.1300439E+00
        -11   -1    0    0    0    0  0.00000000000E+00  0.00000000000E+00  0.45593999997E+02  0.45594000000E+02  0.51100000000E-03 0.  1.
         11   -1    0    0    0    0 -0.00000000000E+00 -0.00000000000E+00 -0.45593999997E+02  0.45594000000E+02  0.51100000000E-03 0. -1.
    9900012    2    1    2    0    0 -0.34202668928E+02  0.14723600777E+02 -0.16326627693E+02  0.50528858919E+02  0.29999997169E+02 0.  0.
        -12    1    1    2    0    0  0.34202668928E+02 -0.14723600777E+02  0.16326627693E+02  0.40659141081E+02  0.00000000000E+00 0.  1.
         11    1    3    3    0    0 -0.46029823201E+01  0.58227635181E+01 -0.17598879981E+02  0.19100068012E+02  0.51100000000E-03 0. -1.
        -11    1    3    3    0    0 -0.16378678346E+02  0.74965477619E+01 -0.47549231197E+00  0.18019029550E+02  0.51100000000E-03 0.  1.
         12    1    3    3    0    0 -0.13221008262E+02  0.14042894967E+01  0.17477446000E+01  0.13409761357E+02  0.00000000000E+00 0. -1.
</event>
<event>
 7    1  0.4962385E-011  0.5052886E+02  0.7816164E-02  0.1300439E+00
        -11   -1    0    0    0    0  0.00000000000E+00  0.00000000000E+00  0.45593999997E+02  0.45594000000E+02  0.51100000000E-03 0.  1.
         11   -1    0    0    0    0 -0.00000000000E+00 -0.00000000000E+00 -0.45593999997E+02  0.45594000000E+02  0.51100000000E-03 0. -1.
    9900012    2    1    2    0    0 -0.39154984942E+02  0.43185822151E+01 -0.10069885466E+02  0.50528860911E+02  0.30000003226E+02 0.  0.
        -12    1    1    2    0    0  0.39154984942E+02 -0.43185822151E+01  0.10069885466E+02  0.40659139089E+02  0.00000000000E+00 0.  1.
         11    1    3    3    0    0 -0.98197903565E+01  0.10803395546E+02 -0.79056348378E+01  0.16602430558E+02  0.51100000000E-03 0. -1.
        -11    1    3    3    0    0 -0.19016886988E+02 -0.55777173649E+01  0.60343259849E+01  0.20716322359E+02  0.51100000000E-03 0.  1.
         12    1    3    3    0    0 -0.10318307597E+02 -0.90709596615E+00 -0.81985766130E+01  0.13210107995E+02  0.00000000000E+00 0. -1.
</event>
<event>
 7    1  0.4962385E-011  0.5052886E+02  0.7816164E-02  0.1300439E+00
        -11   -1    0    0    0    0  0.00000000000E+00  0.00000000000E+00  0.45593999997E+02  0.45594000000E+02  0.51100000000E-03 0. -1.
         11   -1    0    0    0    0 -0.00000000000E+00 -0.00000000000E+00 -0.45593999997E+02  0.45594000000E+02  0.51100000000E-03 0.  1.
    9900012    2    1    2    0    0  0.18026252400E+02 -0.54999001842E+01  0.36027363984E+02  0.50528860397E+02  0.30000001662E+02 0.  0.
        -12    1    1    2    0    0 -0.18026252400E+02  0.54999001842E+01 -0.36027363984E+02  0.40659139603E+02  0.00000000000E+00 0.  1.
         11    1    3    3    0    0 -0.31361210718E+01 -0.96100794746E+01  0.86873051158E+01  0.13328846661E+02  0.51100000000E-03 0. -1.
        -11    1    3    3    0    0  0.18088638090E+02  0.96893171115E+00  0.13257761688E+02  0.22447848490E+02  0.51100000000E-03 0.  1.
         12    1    3    3    0    0  0.30737353819E+01  0.31412475793E+01  0.14082297180E+02  0.14752165245E+02  0.00000000000E+00 0. -1.
</event>
<event>
 7    1  0.4962385E-011  0.5052886E+02  0.7816164E-02  0.1300439E+00
        -11   -1    0    0    0    0  0.00000000000E+00  0.00000000000E+00  0.45593999997E+02  0.45594000000E+02  0.51100000000E-03 0. -1.
         11   -1    0    0    0    0 -0.00000000000E+00 -0.00000000000E+00 -0.45593999997E+02  0.45594000000E+02  0.51100000000E-03 0.  1.
    9900012    2    1    2    0    0 -0.37250537633E+02  0.15994615606E+02 -0.31201917299E+01  0.50528857378E+02  0.29999992487E+02 0.  0.
        -12    1    1    2    0    0  0.37250537633E+02 -0.15994615606E+02  0.31201917299E+01  0.40659142622E+02  0.00000000000E+00 0.  1.
         11    1    3    3    0    0 -0.14362759239E+02  0.59188808691E+01  0.21653208328E+01  0.15684725635E+02  0.51100000000E-03 0. -1.
        -11    1    3    3    0    0 -0.31961039909E+01 -0.48781136762E+01 -0.80754665870E+01  0.99611362111E+01  0.51100000000E-03 0.  1.
        -12    1    3    3    0    0 -0.19691674403E+02  0.14953848413E+02  0.27899540243E+01  0.24882995532E+02  0.00000000000E+00 0.  1.
</event>
<event>
 7    1  0.4962385E-011  0.5052886E+02  0.7816164E-02  0.1300439E+00
        -11   -1    0    0    0    0  0.00000000000E+00  0.00000000000E+00  0.45593999997E+02  0.45594000000E+02  0.51100000000E-03 0.  1.
         11   -1    0    0    0    0 -0.00000000000E+00 -0.00000000000E+00 -0.45593999997E+02  0.45594000000E+02  0.51100000000E-03 0. -1.
    9900012    2    1    2    0    0  0.39862781406E+02  0.79466827801E+01  0.98714913856E+00  0.50528861149E+02  0.30000003950E+02 0.  0.
        -12    1    1    2    0    0 -0.39862781406E+02 -0.79466827801E+01 -0.98714913856E+00  0.40659138851E+02  0.00000000000E+00 0.  1.
         11    1    3    3    0    0  0.19047254130E+02  0.13242757820E+02 -0.70391383393E+01  0.24242895730E+02  0.51100000000E-03 0. -1.
        -11    1    3    3    0    0  0.11672980962E+02 -0.18007900918E+01  0.10913375246E+02  0.16081140787E+02  0.51100000000E-03 0.  1.
         12    1    3    3    0    0  0.91425463144E+01 -0.34952849484E+01 -0.28870877684E+01  0.10204824632E+02  0.00000000000E+00 0. -1.
</event>
<event>
 7    1  0.4962385E-011  0.5052885E+02  0.7816164E-02  0.1300439E+00
        -11   -1    0    0    0    0  0.00000000000E+00  0.00000000000E+00  0.45593999997E+02  0.45594000000E+02  0.51100000000E-03 0. -1.
         11   -1    0    0    0    0 -0.00000000000E+00 -0.00000000000E+00 -0.45593999997E+02  0.45594000000E+02  0.51100000000E-03 0.  1.
    9900012    2    1    2    0    0  0.32727867759E+02  0.17011122991E+02  0.17107745700E+02  0.50528848553E+02  0.29999965661E+02 0.  0.
        -12    1    1    2    0    0 -0.32727867759E+02 -0.17011122991E+02 -0.17107745700E+02  0.40659151447E+02  0.00000000000E+00 0.  1.
         11    1    3    3    0    0  0.31071640721E+02  0.11610729360E+02  0.22831955793E+02  0.40268524917E+02  0.51100000000E-03 0. -1.
        -11    1    3    3    0    0 -0.27247998418E+00 -0.11717828098E+01 -0.23161254994E+01  0.26099344599E+01  0.51100000000E-03 0.  1.
         12    1    3    3    0    0  0.19287070219E+01  0.65721764408E+01 -0.34080845938E+01  0.76503891760E+01  0.00000000000E+00 0. -1.
</event>
<event>
 7    1  0.4962385E-011  0.5052886E+02  0.7816164E-02  0.1300439E+00
        -11   -1    0    0    0    0  0.00000000000E+00  0.00000000000E+00  0.45593999997E+02  0.45594000000E+02  0.51100000000E-03 0.  1.
         11   -1    0    0    0    0 -0.00000000000E+00 -0.00000000000E+00 -0.45593999997E+02  0.45594000000E+02  0.51100000000E-03 0. -1.
    9900012    2    1    2    0    0 -0.19488404449E+02  0.10973978209E+02 -0.33954962052E+02  0.50528861376E+02  0.30000004639E+02 0.  0.
        -12    1    1    2    0    0  0.19488404449E+02 -0.10973978209E+02  0.33954962052E+02  0.40659138624E+02  0.00000000000E+00 0.  1.
         11    1    3    3    0    0 -0.80543369705E+01 -0.90158060267E+01 -0.14930991258E+02  0.19211756883E+02  0.51100000000E-03 0. -1.
        -11    1    3    3    0    0 -0.54506788967E+01  0.53615503867E+01 -0.16341695175E+01  0.78183523364E+01  0.51100000000E-03 0.  1.
         12    1    3    3    0    0 -0.59833885816E+01  0.14628233849E+02 -0.17389801277E+02  0.23498752156E+02  0.00000000000E+00 0. -1.
</event>
<event>
 7    1  0.4962385E-011  0.5052878E+02  0.7816164E-02  0.1300439E+00
        -11   -1    0    0    0    0  0.00000000000E+00  0.00000000000E+00  0.45593999997E+02  0.45594000000E+02  0.51100000000E-03 0.  1.
         11   -1    0    0    0    0 -0.00000000000E+00 -0.00000000000E+00 -0.45593999997E+02  0.45594000000E+02  0.51100000000E-03 0. -1.
    9900012    2    1    2    0    0  0.28267583323E+02  0.21495579700E+02 -0.19800404776E+02  0.50528779116E+02  0.29999754600E+02 0.  0.
        -12    1    1    2    0    0 -0.28267583323E+02 -0.21495579700E+02  0.19800404776E+02  0.40659220884E+02  0.00000000000E+00 0.  1.
         11    1    3    3    0    0  0.10942854428E+02  0.86639050385E+01 -0.84027675933E+01  0.16291587309E+02  0.51100000000E-03 0. -1.
        -11    1    3    3    0    0  0.45155870659E+01 -0.43853197319E+01  0.43226933563E+01  0.76359173525E+01  0.51100000000E-03 0.  1.
        -12    1    3    3    0    0  0.12809141829E+02  0.17216994394E+02 -0.15720330539E+02  0.26601274455E+02  0.00000000000E+00 0.  1.
</event>
<event>
 7    1  0.4962385E-011  0.5052887E+02  0.7816164E-02  0.1300439E+00
        -11   -1    0    0    0    0  0.00000000000E+00  0.00000000000E+00  0.45593999997E+02  0.45594000000E+02  0.51100000000E-03 0. -1.
         11   -1    0    0    0    0 -0.00000000000E+00 -0.00000000000E+00 -0.45593999997E+02  0.45594000000E+02  0.51100000000E-03 0.  1.
    9900012    2    1    2    0    0  0.21063123213E+02 -0.98845128255E+01  0.33343759880E+02  0.50528867248E+02  0.30000022486E+02 0.  0.
        -12    1    1    2    0    0 -0.21063123213E+02  0.98845128255E+01 -0.33343759880E+02  0.40659132752E+02  0.00000000000E+00 0.  1.
         11    1    3    3    0    0  0.10834212864E+02 -0.12120879593E+01  0.13616500879E+02  0.17443004960E+02  0.51100000000E-03 0. -1.
        -11    1    3    3    0    0 -0.36384125920E+01 -0.74061264184E+01 -0.79009503031E+00  0.82893308013E+01  0.51100000000E-03 0.  1.
        -12    1    3    3    0    0  0.13867322941E+02 -0.12662984478E+01  0.20517354031E+02  0.24796531486E+02  0.00000000000E+00 0.  1.
</event>
<event>
 7    1  0.4962385E-011  0.5052883E+02  0.7816164E-02  0.1300439E+00
        -11   -1    0    0    0    0  0.00000000000E+00  0.00000000000E+00  0.45593999997E+02  0.45594000000E+02  0.51100000000E-03 0. -1.
         11   -1    0    0    0    0 -0.00000000000E+00 -0.00000000000E+00 -0.45593999997E+02  0.45594000000E+02  0.51100000000E-03 0.  1.
    9900012    2    1    2    0    0 -0.33518606789E+02  0.73916794706E+01 -0.21795285607E+02  0.50528826359E+02  0.29999898201E+02 0.  0.
        -12    1    1    2    0    0  0.33518606789E+02 -0.73916794706E+01  0.21795285607E+02  0.40659173641E+02  0.00000000000E+00 0.  1.
         11    1    3    3    0    0 -0.26500375284E+02  0.11623222861E+02 -0.13569866024E+02  0.31961077329E+02  0.51100000000E-03 0. -1.
        -11    1    3    3    0    0  0.73958594674E+00 -0.68784254272E+01 -0.77039373822E+01  0.10354244308E+02  0.51100000000E-03 0.  1.
        -12    1    3    3    0    0 -0.77578174524E+01  0.26468820363E+01 -0.52148220008E+00  0.82135047223E+01  0.00000000000E+00 0.  1.
</event>
<event>
 7    1  0.4962385E-011  0.5052887E+02  0.7816164E-02  0.1300439E+00
        -11   -1    0    0    0    0  0.00000000000E+00  0.00000000000E+00  0.45593999997E+02  0.45594000000E+02  0.51100000000E-03 0.  1.
         11   -1    0    0    0    0 -0.00000000000E+00 -0.00000000000E+00 -0.45593999997E+02  0.45594000000E+02  0.51100000000E-03 0. -1.
    9900012    2    1    2    0    0 -0.67997117492E+01 -0.22746735676E+02 -0.33007802846E+02  0.50528866801E+02  0.30000021128E+02 0.  0.
        -12    1    1    2    0    0  0.67997117492E+01  0.22746735676E+02  0.33007802846E+02  0.40659133199E+02  0.00000000000E+00 0.  1.
         11    1    3    3    0    0 -0.14253514528E+02 -0.18762133977E+02 -0.32497947051E+02  0.40140963000E+02  0.51100000000E-03 0. -1.
        -11    1    3    3    0    0  0.49444423916E+01  0.76502485814E+00 -0.28815816936E+00  0.50115675181E+01  0.51100000000E-03 0.  1.
        -12    1    3    3    0    0  0.25093603873E+01 -0.47496265573E+01 -0.22169762515E+00  0.53763362826E+01  0.00000000000E+00 0.  1.
</event>
<event>
 7    1  0.4962385E-011  0.5052887E+02  0.7816164E-02  0.1300439E+00
        -11   -1    0    0    0    0  0.00000000000E+00  0.00000000000E+00  0.45593999997E+02  0.45594000000E+02  0.51100000000E-03 0. -1.
         11   -1    0    0    0    0 -0.00000000000E+00 -0.00000000000E+00 -0.45593999997E+02  0.45594000000E+02  0.51100000000E-03 0.  1.
    9900012    2    1    2    0    0 -0.35252782736E+02 -0.19877219112E+02 -0.39117690055E+01  0.50528874739E+02  0.30000045256E+02 0.  0.
        -12    1    1    2    0    0  0.35252782736E+02  0.19877219112E+02  0.39117690055E+01  0.40659125261E+02  0.00000000000E+00 0.  1.
         11    1    3    3    0    0 -0.31095593343E+02 -0.77238757283E+01 -0.64757157551E+01  0.32688363012E+02  0.51100000000E-03 0. -1.
        -11    1    3    3    0    0 -0.32648814931E+00 -0.12727057158E+02  0.45090261364E+01  0.13506142876E+02  0.51100000000E-03 0.  1.
         12    1    3    3    0    0 -0.38307012441E+01  0.57371377455E+00 -0.19450793867E+01  0.43343688511E+01  0.00000000000E+00 0. -1.
</event>
<event>
 7    1  0.4962385E-011  0.5052885E+02  0.7816164E-02  0.1300439E+00
        -11   -1    0    0    0    0  0.00000000000E+00  0.00000000000E+00  0.45593999997E+02  0.45594000000E+02  0.51100000000E-03 0.  1.
         11   -1    0    0    0    0 -0.00000000000E+00 -0.00000000000E+00 -0.45593999997E+02  0.45594000000E+02  0.51100000000E-03 0. -1.
    9900012    2    1    2    0    0  0.34186342555E+01 -0.35443771597E+02 -0.19626982438E+02  0.50528850417E+02  0.29999971326E+02 0.  0.
        -12    1    1    2    0    0 -0.34186342555E+01  0.35443771597E+02  0.19626982438E+02  0.40659149583E+02  0.00000000000E+00 0.  1.
         11    1    3    3    0    0  0.51733063531E+01 -0.12232882358E+01  0.43360233669E+01  0.68600751913E+01  0.51100000000E-03 0. -1.
        -11    1    3    3    0    0 -0.36527914437E+01 -0.60370923402E+01 -0.97828776639E+01  0.12062092062E+02  0.51100000000E-03 0.  1.
         12    1    3    3    0    0  0.18981193461E+01 -0.28183391021E+02 -0.14180128141E+02  0.31606683164E+02  0.00000000000E+00 0. -1.
</event>
<event>
 7    1  0.4962385E-011  0.5052884E+02  0.7816164E-02  0.1300439E+00
        -11   -1    0    0    0    0  0.00000000000E+00  0.00000000000E+00  0.45593999997E+02  0.45594000000E+02  0.51100000000E-03 0. -1.
         11   -1    0    0    0    0 -0.00000000000E+00 -0.00000000000E+00 -0.45593999997E+02  0.45594000000E+02  0.51100000000E-03 0.  1.
    9900012    2    1    2    0    0  0.14856433994E+02  0.29906596063E+02  0.23195893603E+02  0.50528836222E+02  0.29999928180E+02 0.  0.
        -12    1    1    2    0    0 -0.14856433994E+02 -0.29906596063E+02 -0.23195893603E+02  0.40659163778E+02  0.00000000000E+00 0.  1.
         11    1    3    3    0    0  0.20490466262E+02  0.18094719599E+02  0.23107989951E+02  0.35794654417E+02  0.51100000000E-03 0. -1.
        -11    1    3    3    0    0 -0.13937205191E+01 -0.30270530596E-01 -0.15094913973E+01  0.20547354404E+01  0.51100000000E-03 0.  1.
         12    1    3    3    0    0 -0.42403117489E+01  0.11842146994E+02  0.15973950492E+01  0.12679446364E+02  0.00000000000E+00 0. -1.
</event>
<event>
 7    1  0.5741003E-011  0.5052886E+02  0.7816164E-02  0.1300439E+00
        -11   -1    0    0    0    0  0.00000000000E+00  0.00000000000E+00  0.45593999997E+02  0.45594000000E+02  0.51100000000E-03 0. -1.
         11   -1    0    0    0    0 -0.00000000000E+00 -0.00000000000E+00 -0.45593999997E+02  0.45594000000E+02  0.51100000000E-03 0.  1.
    9900012    2    1    2    0    0  0.50651257960E+01 -0.15364167527E+02  0.37302178554E+02  0.50528859969E+02  0.30000000363E+02 0.  0.
        -12    1    1    2    0    0 -0.50651257960E+01  0.15364167527E+02 -0.37302178554E+02  0.40659140031E+02  0.00000000000E+00 0.  1.
         11    1    3    3    0    0 -0.35145346352E+00 -0.48477290179E+01  0.18449152033E+02  0.19078658422E+02  0.51100000000E-03 0. -1.
        -11    1    3    3    0    0 -0.62903016199E+01 -0.53438664516E+00 -0.93851727490E+00  0.63823411451E+01  0.51100000000E-03 0.  1.
        -12    1    3    3    0    0  0.11706880879E+02 -0.99820518643E+01  0.19791543796E+02  0.25067860403E+02  0.00000000000E+00 0.  1.
</event>
<event>
 7    1  0.4962385E-011  0.5052884E+02  0.7816164E-02  0.1300439E+00
        -11   -1    0    0    0    0  0.00000000000E+00  0.00000000000E+00  0.45593999997E+02  0.45594000000E+02  0.51100000000E-03 0. -1.
         11   -1    0    0    0    0 -0.00000000000E+00 -0.00000000000E+00 -0.45593999997E+02  0.45594000000E+02  0.51100000000E-03 0.  1.
    9900012    2    1    2    0    0  0.14905521996E+02  0.34515046927E+02  0.15482384255E+02  0.50528840238E+02  0.29999940388E+02 0.  0.
        -12    1    1    2    0    0 -0.14905521996E+02 -0.34515046927E+02 -0.15482384255E+02  0.40659159762E+02  0.00000000000E+00 0.  1.
         11    1    3    3    0    0  0.93927576540E+01  0.19424601988E+02 -0.30658441827E+01  0.21793082837E+02  0.51100000000E-03 0. -1.
        -11    1    3    3    0    0  0.41782360005E-01 -0.28348675174E+01  0.85381487656E+00  0.29609491234E+01  0.51100000000E-03 0.  1.
         12    1    3    3    0    0  0.54709819821E+01  0.17925312456E+02  0.17694413561E+02  0.25774808278E+02  0.00000000000E+00 0. -1.
</event>
<event>
 7    1  0.4962385E-011  0.5052886E+02  0.7816164E-02  0.1300439E+00
        -11   -1    0    0    0    0  0.00000000000E+00  0.00000000000E+00  0.45593999997E+02  0.45594000000E+02  0.51100000000E-03 0. -1.
         11   -1    0    0    0    0 -0.00000000000E+00 -0.00000000000E+00 -0.45593999997E+02  0.45594000000E+02  0.51100000000E-03 0.  1.
    9900012    2    1    2    0    0  0.29271390118E+02 -0.20539810924E+01  0.28144845313E+02  0.50528862829E+02  0.30000009056E+02 0.  0.
        -12    1    1    2    0    0 -0.29271390118E+02  0.20539810924E+01 -0.28144845313E+02  0.40659137171E+02  0.00000000000E+00 0.  1.
         11    1    3    3    0    0  0.62046090360E+01 -0.17367393089E+01  0.35862299792E+01  0.73739055081E+01  0.51100000000E-03 0. -1.
        -11    1    3    3    0    0  0.11618637630E+02  0.11709693099E+02  0.20021773089E+02  0.25941878319E+02  0.51100000000E-03 0.  1.
        -12    1    3    3    0    0  0.11448143452E+02 -0.12026934883E+02  0.45368422454E+01  0.17213079002E+02  0.00000000000E+00 0.  1.
</event>
<event>
 7    1  0.4962385E-011  0.5052885E+02  0.7816164E-02  0.1300439E+00
        -11   -1    0    0    0    0  0.00000000000E+00  0.00000000000E+00  0.45593999997E+02  0.45594000000E+02  0.51100000000E-03 0.  1.
         11   -1    0    0    0    0 -0.00000000000E+00 -0.00000000000E+00 -0.45593999997E+02  0.45594000000E+02  0.51100000000E-03 0. -1.
    9900012    2    1    2    0    0 -0.60067953778E+01  0.57835854580E+01 -0.39794910918E+02  0.50528851135E+02  0.29999973511E+02 0.  0.
        -12    1    1    2    0    0  0.60067953778E+01 -0.57835854580E+01  0.39794910918E+02  0.40659148865E+02  0.00000000000E+00 0.  1.
         11    1    3    3    0    0 -0.10730470261E+02  0.70475653665E+01 -0.17674450545E+02  0.21844847721E+02  0.51100000000E-03 0. -1.
        -11    1    3    3    0    0  0.89034208951E+00 -0.79061513565E+01 -0.18630632024E+02  0.20258341200E+02  0.51100000000E-03 0.  1.
        -12    1    3    3    0    0  0.38333327933E+01  0.66421714480E+01 -0.34898283480E+01  0.84256622142E+01  0.00000000000E+00 0.  1.
</event>
<event>
 7    1  0.4962385E-011  0.5052889E+02  0.7816164E-02  0.1300439E+00
        -11   -1    0    0    0    0  0.00000000000E+00  0.00000000000E+00  0.45593999997E+02  0.45594000000E+02  0.51100000000E-03 0.  1.
         11   -1    0    0    0    0 -0.00000000000E+00 -0.00000000000E+00 -0.45593999997E+02  0.45594000000E+02  0.51100000000E-03 0. -1.
    9900012    2    1    2    0    0  0.22133741149E+02 -0.31588971429E+02 -0.12860688445E+02  0.50528893757E+02  0.30000103065E+02 0.  0.
        -12    1    1    2    0    0 -0.22133741149E+02  0.31588971429E+02  0.12860688445E+02  0.40659106243E+02  0.00000000000E+00 0.  1.
         11    1    3    3    0    0  0.90246703063E+01  0.20774723464E+01 -0.14620105269E+01  0.93753954865E+01  0.51100000000E-03 0. -1.
        -11    1    3    3    0    0  0.45798198097E+01 -0.29502958838E+02 -0.10373495613E+02  0.31607099538E+02  0.51100000000E-03 0.  1.
        -12    1    3    3    0    0  0.85292510335E+01 -0.41634849368E+01 -0.10251823046E+01  0.95463987330E+01  0.00000000000E+00 0.  1.
</event>
<event>
 7    1  0.4962385E-011  0.5052886E+02  0.7816164E-02  0.1300439E+00
        -11   -1    0    0    0    0  0.00000000000E+00  0.00000000000E+00  0.45593999997E+02  0.45594000000E+02  0.51100000000E-03 0.  1.
         11   -1    0    0    0    0 -0.00000000000E+00 -0.00000000000E+00 -0.45593999997E+02  0.45594000000E+02  0.51100000000E-03 0. -1.
    9900012    2    1    2    0    0  0.63251137032E+01  0.90608640791E+01 -0.39128750883E+02  0.50528862443E+02  0.30000007881E+02 0.  0.
        -12    1    1    2    0    0 -0.63251137032E+01 -0.90608640791E+01  0.39128750883E+02  0.40659137557E+02  0.00000000000E+00 0.  1.
         11    1    3    3    0    0 -0.60731054274E+01  0.39631854565E+01 -0.27032895447E+02  0.27988692091E+02  0.51100000000E-03 0. -1.
        -11    1    3    3    0    0  0.10324773581E+02  0.19008749673E+01 -0.14598539917E+02  0.17981424947E+02  0.51100000000E-03 0.  1.
         12    1    3    3    0    0  0.20734455492E+01  0.31968036553E+01  0.25026844804E+01  0.45587454047E+01  0.00000000000E+00 0. -1.
</event>
<event>
 7    1  0.4962385E-011  0.5052886E+02  0.7816164E-02  0.1300439E+00
        -11   -1    0    0    0    0  0.00000000000E+00  0.00000000000E+00  0.45593999997E+02  0.45594000000E+02  0.51100000000E-03 0. -1.
         11   -1    0    0    0    0 -0.00000000000E+00 -0.00000000000E+00 -0.45593999997E+02  0.45594000000E+02  0.51100000000E-03 0.  1.
    9900012    2    1    2    0    0  0.43381677032E+01  0.31797464395E+02 -0.24965314624E+02  0.50528863570E+02  0.30000011307E+02 0.  0.
        -12    1    1    2    0    0 -0.43381677032E+01 -0.31797464395E+02  0.24965314624E+02  0.40659136430E+02  0.00000000000E+00 0.  1.
         11    1    3    3    0    0  0.81148384178E+01  0.15339851735E+01  0.47517452808E-01  0.82586906485E+01  0.51100000000E-03 0. -1.
        -11    1    3    3    0    0 -0.87674377984E+01  0.24303125035E+02 -0.16094027445E+02  0.30438915416E+02  0.51100000000E-03 0.  1.
         12    1    3    3    0    0  0.49907670838E+01  0.59603541866E+01 -0.89188046314E+01  0.11831257506E+02  0.00000000000E+00 0. -1.
</event>
<event>
 7    1  0.4962385E-011  0.5052886E+02  0.7816164E-02  0.1300439E+00
        -11   -1    0    0    0    0  0.00000000000E+00  0.00000000000E+00  0.45593999997E+02  0.45594000000E+02  0.51100000000E-03 0. -1.
         11   -1    0    0    0    0 -0.00000000000E+00 -0.00000000000E+00 -0.45593999997E+02  0.45594000000E+02  0.51100000000E-03 0.  1.
    9900012    2    1    2    0    0  0.11202013330E+02 -0.19435350024E+02  0.33910883217E+02  0.50528856701E+02  0.29999990429E+02 0.  0.
        -12    1    1    2    0    0 -0.11202013330E+02  0.19435350024E+02 -0.33910883217E+02  0.40659143299E+02  0.00000000000E+00 0.  1.
         11    1    3    3    0    0 -0.36612068959E+01  0.14871847543E+01  0.15404261020E+02  0.15903062983E+02  0.51100000000E-03 0. -1.
        -11    1    3    3    0    0  0.11466493841E+02 -0.20970777282E+02  0.10847922495E+02  0.26247502805E+02  0.51100000000E-03 0.  1.
         12    1    3    3    0    0  0.33967263849E+01  0.48242503447E-01  0.76586997029E+01  0.83782909124E+01  0.00000000000E+00 0. -1.
</event>
<event>
 7    1  0.4962385E-011  0.5052886E+02  0.7816164E-02  0.1300439E+00
        -11   -1    0    0    0    0  0.00000000000E+00  0.00000000000E+00  0.45593999997E+02  0.45594000000E+02  0.51100000000E-03 0.  1.
         11   -1    0    0    0    0 -0.00000000000E+00 -0.00000000000E+00 -0.45593999997E+02  0.45594000000E+02  0.51100000000E-03 0. -1.
    9900012    2    1    2    0    0 -0.15225431765E+02  0.30648994091E+01 -0.37576032534E+02  0.50528860784E+02  0.30000002839E+02 0.  0.
        -12    1    1    2    0    0  0.15225431765E+02 -0.30648994091E+01  0.37576032534E+02  0.40659139216E+02  0.00000000000E+00 0.  1.
         11    1    3    3    0    0 -0.10895631562E+02  0.31479672597E+01  0.19832148752E+00  0.11343007391E+02  0.51100000000E-03 0.  1.
        -11    1    3    3    0    0 -0.33962411384E+01  0.13973650238E+01 -0.42543729298E+01  0.56202110429E+01  0.51100000000E-03 0. -1.
         12    1    3    3    0    0 -0.93355906524E+00 -0.14804328744E+01 -0.33519981091E+02  0.33565642350E+02  0.00000000000E+00 0. -1.
</event>
<event>
 7    1  0.4962385E-011  0.5052886E+02  0.7816164E-02  0.1300439E+00
        -11   -1    0    0    0    0  0.00000000000E+00  0.00000000000E+00  0.45593999997E+02  0.45594000000E+02  0.51100000000E-03 0.  1.
         11   -1    0    0    0    0 -0.00000000000E+00 -0.00000000000E+00 -0.45593999997E+02  0.45594000000E+02  0.51100000000E-03 0. -1.
    9900012    2    1    2    0    0  0.25596821919E+02  0.16638973717E+02 -0.26853549186E+02  0.50528857823E+02  0.29999993838E+02 0.  0.
        -12    1    1    2    0    0 -0.25596821919E+02 -0.16638973717E+02  0.26853549186E+02  0.40659142177E+02  0.00000000000E+00 0.  1.
         11    1    3    3    0    0  0.10441046453E+02 -0.39158261511E+01 -0.10693875446E+02  0.15450181805E+02  0.51100000000E-03 0. -1.
        -11    1    3    3    0    0  0.42365617184E+00  0.77320210475E+01  0.24291372159E+01  0.81156849314E+01  0.51100000000E-03 0.  1.
         12    1    3    3    0    0  0.14732119294E+02  0.12822778821E+02 -0.18588810956E+02  0.26962991086E+02  0.00000000000E+00 0. -1.
</event>
<event>
 7    1  0.4962385E-011  0.5052885E+02  0.7816164E-02  0.1300439E+00
        -11   -1    0    0    0    0  0.00000000000E+00  0.00000000000E+00  0.45593999997E+02  0.45594000000E+02  0.51100000000E-03 0.  1.
         11   -1    0    0    0    0 -0.00000000000E+00 -0.00000000000E+00 -0.45593999997E+02  0.45594000000E+02  0.51100000000E-03 0. -1.
    9900012    2    1    2    0    0 -0.12920948868E+02  0.34886394758E+01 -0.38393288574E+02  0.50528854257E+02  0.29999982998E+02 0.  0.
        -12    1    1    2    0    0  0.12920948868E+02 -0.34886394758E+01  0.38393288574E+02  0.40659145743E+02  0.00000000000E+00 0.  1.
         11    1    3    3    0    0 -0.43202407696E+01 -0.44629081402E+01 -0.12359505193E+02  0.13832548509E+02  0.51100000000E-03 0. -1.
        -11    1    3    3    0    0 -0.12247434795E+02  0.11173922902E+02 -0.87614618895E+01  0.18751517986E+02  0.51100000000E-03 0.  1.
        -12    1    3    3    0    0  0.36467266973E+01 -0.32223752859E+01 -0.17272321492E+02  0.17944787762E+02  0.00000000000E+00 0.  1.
</event>
<event>
 7    1  0.4962385E-011  0.5052886E+02  0.7816164E-02  0.1300439E+00
        -11   -1    0    0    0    0  0.00000000000E+00  0.00000000000E+00  0.45593999997E+02  0.45594000000E+02  0.51100000000E-03 0.  1.
         11   -1    0    0    0    0 -0.00000000000E+00 -0.00000000000E+00 -0.45593999997E+02  0.45594000000E+02  0.51100000000E-03 0. -1.
    9900012    2    1    2    0    0 -0.12741488274E+02  0.24271861952E+02 -0.30028270532E+02  0.50528857889E+02  0.29999994040E+02 0.  0.
        -12    1    1    2    0    0  0.12741488274E+02 -0.24271861952E+02  0.30028270532E+02  0.40659142111E+02  0.00000000000E+00 0.  1.
         11    1    3    3    0    0 -0.12740437247E+01  0.55811663231E+01 -0.12995270065E+02  0.14200339759E+02  0.51100000000E-03 0. -1.
        -11    1    3    3    0    0 -0.12206297909E+02  0.16536568085E+02 -0.14769184625E+01  0.20606627115E+02  0.51100000000E-03 0.  1.
        -12    1    3    3    0    0  0.73885335877E+00  0.21541275435E+01 -0.15556082004E+02  0.15721891015E+02  0.00000000000E+00 0.  1.
</event>
<event>
 7    1  0.4962385E-011  0.5052886E+02  0.7816164E-02  0.1300439E+00
        -11   -1    0    0    0    0  0.00000000000E+00  0.00000000000E+00  0.45593999997E+02  0.45594000000E+02  0.51100000000E-03 0.  1.
         11   -1    0    0    0    0 -0.00000000000E+00 -0.00000000000E+00 -0.45593999997E+02  0.45594000000E+02  0.51100000000E-03 0. -1.
    9900012    2    1    2    0    0 -0.51002688185E+01 -0.22295348499E+02 -0.33616519644E+02  0.50528859580E+02  0.29999999181E+02 0.  0.
        -12    1    1    2    0    0  0.51002688185E+01  0.22295348499E+02  0.33616519644E+02  0.40659140420E+02  0.00000000000E+00 0.  1.
         11    1    3    3    0    0  0.15336090948E+01 -0.24888256338E+02 -0.20014116331E+02  0.31974085025E+02  0.51100000000E-03 0. -1.
        -11    1    3    3    0    0  0.20493575081E+01  0.29869370786E+01 -0.22782532000E+01  0.42792636296E+01  0.51100000000E-03 0.  1.
         12    1    3    3    0    0 -0.86832354213E+01 -0.39402923916E+00 -0.11324150113E+02  0.14275510926E+02  0.00000000000E+00 0. -1.
</event>
<event>
 7    1  0.4962385E-011  0.5052886E+02  0.7816164E-02  0.1300439E+00
        -11   -1    0    0    0    0  0.00000000000E+00  0.00000000000E+00  0.45593999997E+02  0.45594000000E+02  0.51100000000E-03 0. -1.
         11   -1    0    0    0    0 -0.00000000000E+00 -0.00000000000E+00 -0.45593999997E+02  0.45594000000E+02  0.51100000000E-03 0.  1.
    9900012    2    1    2    0    0  0.24367363507E+02 -0.81341385701E+01  0.31515595023E+02  0.50528863952E+02  0.30000012467E+02 0.  0.
        -12    1    1    2    0    0 -0.24367363507E+02  0.81341385701E+01 -0.31515595023E+02  0.40659136048E+02  0.00000000000E+00 0.  1.
         11    1    3    3    0    0  0.25039497153E+02 -0.91665202737E+01  0.20255575275E+02  0.33485666211E+02  0.51100000000E-03 0. -1.
        -11    1    3    3    0    0 -0.63560773367E+01  0.48953066197E+00  0.31125664504E+01  0.70941827964E+01  0.51100000000E-03 0.  1.
        -12    1    3    3    0    0  0.56839436908E+01  0.54285104163E+00  0.81474532974E+01  0.99490149445E+01  0.00000000000E+00 0.  1.
</event>
<event>
 7    1  0.4962385E-011  0.5052886E+02  0.7816164E-02  0.1300439E+00
        -11   -1    0    0    0    0  0.00000000000E+00  0.00000000000E+00  0.45593999997E+02  0.45594000000E+02  0.51100000000E-03 0.  1.
         11   -1    0    0    0    0 -0.00000000000E+00 -0.00000000000E+00 -0.45593999997E+02  0.45594000000E+02  0.51100000000E-03 0. -1.
    9900012    2    1    2    0    0 -0.36039483620E+02 -0.69602926099E+01 -0.17489301483E+02  0.50528859340E+02  0.29999998450E+02 0.  0.
        -12    1    1    2    0    0  0.36039483620E+02  0.69602926099E+01  0.17489301483E+02  0.40659140660E+02  0.00000000000E+00 0.  1.
         11    1    3    3    0    0 -0.73361856341E+01 -0.50071638085E+01  0.34663206240E+01  0.95344998816E+01  0.51100000000E-03 0. -1.
        -11    1    3    3    0    0 -0.15913463076E+02  0.90853030995E+01 -0.11492114082E+02  0.21629834161E+02  0.51100000000E-03 0.  1.
        -12    1    3    3    0    0 -0.12789834910E+02 -0.11038431901E+02 -0.94635080252E+01  0.19364525298E+02  0.00000000000E+00 0.  1.
</event>
<event>
 7    1  0.4962385E-011  0.5052886E+02  0.7816164E-02  0.1300439E+00
        -11   -1    0    0    0    0  0.00000000000E+00  0.00000000000E+00  0.45593999997E+02  0.45594000000E+02  0.51100000000E-03 0.  1.
         11   -1    0    0    0    0 -0.00000000000E+00 -0.00000000000E+00 -0.45593999997E+02  0.45594000000E+02  0.51100000000E-03 0. -1.
    9900012    2    1    2    0    0  0.11247437975E+02 -0.39020119678E+02 -0.20225461351E+01  0.50528864575E+02  0.30000014361E+02 0.  0.
        -12    1    1    2    0    0 -0.11247437975E+02  0.39020119678E+02  0.20225461351E+01  0.40659135425E+02  0.00000000000E+00 0.  1.
         11    1    3    3    0    0  0.12048187275E+02 -0.42846766225E+02 -0.71085085755E+00  0.44514149456E+02  0.51100000000E-03 0. -1.
        -11    1    3    3    0    0  0.21714979396E+00  0.42950618170E+01 -0.14484822483E-01  0.43005720685E+01  0.51100000000E-03 0.  1.
         12    1    3    3    0    0 -0.10178990949E+01 -0.46841526957E+00 -0.12972104550E+01  0.17141430503E+01  0.00000000000E+00 0. -1.
</event>
<event>
 7    1  0.4962385E-011  0.5052886E+02  0.7816164E-02  0.1300439E+00
        -11   -1    0    0    0    0  0.00000000000E+00  0.00000000000E+00  0.45593999997E+02  0.45594000000E+02  0.51100000000E-03 0.  1.
         11   -1    0    0    0    0 -0.00000000000E+00 -0.00000000000E+00 -0.45593999997E+02  0.45594000000E+02  0.51100000000E-03 0. -1.
    9900012    2    1    2    0    0  0.19818909653E+02 -0.67708713997E+01 -0.34850135006E+02  0.50528858478E+02  0.29999995830E+02 0.  0.
        -12    1    1    2    0    0 -0.19818909653E+02  0.67708713997E+01  0.34850135006E+02  0.40659141522E+02  0.00000000000E+00 0.  1.
         11    1    3    3    0    0  0.18265531324E+01 -0.26517848296E+01 -0.13185264571E+02  0.13572747003E+02  0.51100000000E-03 0. -1.
        -11    1    3    3    0    0  0.69689579900E+01 -0.24858089828E+01  0.44003555192E+01  0.86086439537E+01  0.51100000000E-03 0.  1.
        -12    1    3    3    0    0  0.11023398530E+02 -0.16332775874E+01 -0.26065225954E+02  0.28347467522E+02  0.00000000000E+00 0.  1.
</event>
<event>
 7    1  0.4962385E-011  0.5052887E+02  0.7816164E-02  0.1300439E+00
        -11   -1    0    0    0    0  0.00000000000E+00  0.00000000000E+00  0.45593999997E+02  0.45594000000E+02  0.51100000000E-03 0. -1.
         11   -1    0    0    0    0 -0.00000000000E+00 -0.00000000000E+00 -0.45593999997E+02  0.45594000000E+02  0.51100000000E-03 0.  1.
    9900012    2    1    2    0    0  0.12516358504E+02  0.30656101532E+02  0.23594676783E+02  0.50528873548E+02  0.30000041637E+02 0.  0.
        -12    1    1    2    0    0 -0.12516358504E+02 -0.30656101532E+02 -0.23594676783E+02  0.40659126452E+02  0.00000000000E+00 0.  1.
         11    1    3    3    0    0  0.11067887676E+02  0.24262325054E+02  0.64514293710E+01  0.27436827365E+02  0.51100000000E-03 0. -1.
        -11    1    3    3    0    0 -0.55336842805E+01 -0.62630360218E+00  0.62890233666E+01  0.84003412482E+01  0.51100000000E-03 0.  1.
        -12    1    3    3    0    0  0.69821551081E+01  0.70200800795E+01  0.10854224045E+02  0.14691704935E+02  0.00000000000E+00 0.  1.
</event>
<event>
 7    1  0.4962385E-011  0.5052886E+02  0.7816164E-02  0.1300439E+00
        -11   -1    0    0    0    0  0.00000000000E+00  0.00000000000E+00  0.45593999997E+02  0.45594000000E+02  0.51100000000E-03 0.  1.
         11   -1    0    0    0    0 -0.00000000000E+00 -0.00000000000E+00 -0.45593999997E+02  0.45594000000E+02  0.51100000000E-03 0. -1.
    9900012    2    1    2    0    0  0.26048739066E+02  0.29353548915E+02 -0.10630041153E+02  0.50528863072E+02  0.30000009794E+02 0.  0.
        -12    1    1    2    0    0 -0.26048739066E+02 -0.29353548915E+02  0.10630041153E+02  0.40659136928E+02  0.00000000000E+00 0.  1.
         11    1    3    3    0    0  0.21651024817E+02  0.13759052835E+02  0.17982522811E+01  0.25715989619E+02  0.51100000000E-03 0. -1.
        -11    1    3    3    0    0 -0.75250307124E+00  0.14629224546E+02 -0.12943445453E+02  0.19547717313E+02  0.51100000000E-03 0.  1.
        -12    1    3    3    0    0  0.51502173195E+01  0.96527153377E+00  0.51515201938E+00  0.52651561396E+01  0.00000000000E+00 0.  1.
</event>
<event>
 7    1  0.4962385E-011  0.5052884E+02  0.7816164E-02  0.1300439E+00
        -11   -1    0    0    0    0  0.00000000000E+00  0.00000000000E+00  0.45593999997E+02  0.45594000000E+02  0.51100000000E-03 0. -1.
         11   -1    0    0    0    0 -0.00000000000E+00 -0.00000000000E+00 -0.45593999997E+02  0.45594000000E+02  0.51100000000E-03 0.  1.
    9900012    2    1    2    0    0 -0.35289797555E+02  0.11000748276E+02  0.16934612998E+02  0.50528838775E+02  0.29999935941E+02 0.  0.
        -12    1    1    2    0    0  0.35289797555E+02 -0.11000748276E+02 -0.16934612998E+02  0.40659161225E+02  0.00000000000E+00 0.  1.
         11    1    3    3    0    0 -0.13323350023E+02  0.26807457254E+00  0.70656202203E+01  0.15083318905E+02  0.51100000000E-03 0. -1.
        -11    1    3    3    0    0  0.39838566239E+01 -0.25730583104E+01  0.29580182968E+00  0.47517619524E+01  0.51100000000E-03 0.  1.
        -12    1    3    3    0    0 -0.25950304156E+02  0.13305732014E+02  0.95731909479E+01  0.30693757918E+02  0.00000000000E+00 0.  1.
</event>
<event>
 7    1  0.4962385E-011  0.5052887E+02  0.7816164E-02  0.1300439E+00
        -11   -1    0    0    0    0  0.00000000000E+00  0.00000000000E+00  0.45593999997E+02  0.45594000000E+02  0.51100000000E-03 0. -1.
         11   -1    0    0    0    0 -0.00000000000E+00 -0.00000000000E+00 -0.45593999997E+02  0.45594000000E+02  0.51100000000E-03 0.  1.
    9900012    2    1    2    0    0 -0.21484702437E+02 -0.22853870022E+02  0.25870315088E+02  0.50528867981E+02  0.30000024715E+02 0.  0.
        -12    1    1    2    0    0  0.21484702437E+02  0.22853870022E+02 -0.25870315088E+02  0.40659132019E+02  0.00000000000E+00 0.  1.
         11    1    3    3    0    0 -0.84950928969E+01 -0.18235701098E+02  0.17484874751E+02  0.26653859818E+02  0.51100000000E-03 0. -1.
        -11    1    3    3    0    0 -0.64032503300E+01 -0.83661650323E+01 -0.22918624748E+01  0.10781788627E+02  0.51100000000E-03 0.  1.
        -12    1    3    3    0    0 -0.65863592100E+01  0.37479961087E+01  0.10677302812E+02  0.13093219536E+02  0.00000000000E+00 0.  1.
</event>
<event>
 7    1  0.4962385E-011  0.5052888E+02  0.7816164E-02  0.1300439E+00
        -11   -1    0    0    0    0  0.00000000000E+00  0.00000000000E+00  0.45593999997E+02  0.45594000000E+02  0.51100000000E-03 0. -1.
         11   -1    0    0    0    0 -0.00000000000E+00 -0.00000000000E+00 -0.45593999997E+02  0.45594000000E+02  0.51100000000E-03 0.  1.
    9900012    2    1    2    0    0  0.85439901684E+01 -0.34808721456E+02  0.19196808651E+02  0.50528876549E+02  0.30000050760E+02 0.  0.
        -12    1    1    2    0    0 -0.85439901684E+01  0.34808721456E+02 -0.19196808651E+02  0.40659123451E+02  0.00000000000E+00 0.  1.
         11    1    3    3    0    0  0.95014350355E+01 -0.23736571153E+02  0.10833194169E+02  0.27767970290E+02  0.51100000000E-03 0. -1.
        -11    1    3    3    0    0 -0.84758702649E+01 -0.30185284960E+01  0.11569984830E+00  0.89980707791E+01  0.51100000000E-03 0.  1.
         12    1    3    3    0    0  0.75184253978E+01 -0.80536218065E+01  0.82479146331E+01  0.13762835480E+02  0.00000000000E+00 0. -1.
</event>
<event>
 7    1  0.4962385E-011  0.5052886E+02  0.7816164E-02  0.1300439E+00
        -11   -1    0    0    0    0  0.00000000000E+00  0.00000000000E+00  0.45593999997E+02  0.45594000000E+02  0.51100000000E-03 0.  1.
         11   -1    0    0    0    0 -0.00000000000E+00 -0.00000000000E+00 -0.45593999997E+02  0.45594000000E+02  0.51100000000E-03 0. -1.
    9900012    2    1    2    0    0  0.28368793200E+02 -0.17977839181E+02 -0.22916686591E+02  0.50528860147E+02  0.30000000904E+02 0.  0.
        -12    1    1    2    0    0 -0.28368793200E+02  0.17977839181E+02  0.22916686591E+02  0.40659139853E+02  0.00000000000E+00 0.  1.
         11    1    3    3    0    0  0.18155889978E+02 -0.15273926562E+01 -0.19597172975E+02  0.26758521224E+02  0.51100000000E-03 0. -1.
        -11    1    3    3    0    0  0.51257582032E+01 -0.27459487740E+01  0.43503609508E+01  0.72621809734E+01  0.51100000000E-03 0.  1.
         12    1    3    3    0    0  0.50871450191E+01 -0.13704497751E+02 -0.76698745666E+01  0.16508157950E+02  0.00000000000E+00 0. -1.
</event>
<event>
 7    1  0.4962385E-011  0.5052885E+02  0.7816164E-02  0.1300439E+00
        -11   -1    0    0    0    0  0.00000000000E+00  0.00000000000E+00  0.45593999997E+02  0.45594000000E+02  0.51100000000E-03 0.  1.
         11   -1    0    0    0    0 -0.00000000000E+00 -0.00000000000E+00 -0.45593999997E+02  0.45594000000E+02  0.51100000000E-03 0. -1.
    9900012    2    1    2    0    0  0.12056017900E+02 -0.13412771248E+02 -0.36440583223E+02  0.50528854587E+02  0.29999984002E+02 0.  0.
        -12    1    1    2    0    0 -0.12056017900E+02  0.13412771248E+02  0.36440583223E+02  0.40659145413E+02  0.00000000000E+00 0.  1.
         11    1    3    3    0    0  0.38030068927E+01  0.16370491081E+01  0.26540552571E+01  0.49180078057E+01  0.51100000000E-03 0.  1.
        -11    1    3    3    0    0  0.59972101848E+01 -0.35893995862E+01 -0.30011050502E+02  0.30814176476E+02  0.51100000000E-03 0. -1.
        -12    1    3    3    0    0  0.22558008223E+01 -0.11460420770E+02 -0.90835879774E+01  0.14796670305E+02  0.00000000000E+00 0.  1.
</event>
<event>
 7    1  0.4962385E-011  0.5052886E+02  0.7816164E-02  0.1300439E+00
        -11   -1    0    0    0    0  0.00000000000E+00  0.00000000000E+00  0.45593999997E+02  0.45594000000E+02  0.51100000000E-03 0.  1.
         11   -1    0    0    0    0 -0.00000000000E+00 -0.00000000000E+00 -0.45593999997E+02  0.45594000000E+02  0.51100000000E-03 0. -1.
    9900012    2    1    2    0    0 -0.55533818995E+01  0.94003339385E+01 -0.39165796733E+02  0.50528856349E+02  0.29999989358E+02 0.  0.
        -12    1    1    2    0    0  0.55533818995E+01 -0.94003339385E+01  0.39165796733E+02  0.40659143651E+02  0.00000000000E+00 0.  1.
         11    1    3    3    0    0  0.46354463990E+01  0.60696926251E+00 -0.14075963384E+02  0.14832009993E+02  0.51100000000E-03 0. -1.
        -11    1    3    3    0    0 -0.12944510599E+02  0.14264774930E+02 -0.19288852317E+02  0.27259933647E+02  0.51100000000E-03 0.  1.
        -12    1    3    3    0    0  0.27556823008E+01 -0.54714102541E+01 -0.58009810332E+01  0.84369127090E+01  0.00000000000E+00 0.  1.
</event>
<event>
 7    1  0.4962385E-011  0.5052887E+02  0.7816164E-02  0.1300439E+00
        -11   -1    0    0    0    0  0.00000000000E+00  0.00000000000E+00  0.45593999997E+02  0.45594000000E+02  0.51100000000E-03 0.  1.
         11   -1    0    0    0    0 -0.00000000000E+00 -0.00000000000E+00 -0.45593999997E+02  0.45594000000E+02  0.51100000000E-03 0. -1.
    9900012    2    1    2    0    0 -0.16747585478E+02  0.33695001787E+02 -0.15405530641E+02  0.50528866474E+02  0.30000020135E+02 0.  0.
        -12    1    1    2    0    0  0.16747585478E+02 -0.33695001787E+02  0.15405530641E+02  0.40659133526E+02  0.00000000000E+00 0.  1.
         11    1    3    3    0    0 -0.14825028767E+02  0.32149108043E+02 -0.21437810600E+02  0.41387514415E+02  0.51100000000E-03 0. -1.
        -11    1    3    3    0    0  0.14310241925E+01  0.23089801000E+01  0.47478478984E+01  0.54700346680E+01  0.51100000000E-03 0.  1.
        -12    1    3    3    0    0 -0.33535809037E+01 -0.76308635675E+00  0.12844320602E+01  0.36713173907E+01  0.00000000000E+00 0.  1.
</event>
<event>
 7    1  0.4962385E-011  0.5052886E+02  0.7816164E-02  0.1300439E+00
        -11   -1    0    0    0    0  0.00000000000E+00  0.00000000000E+00  0.45593999997E+02  0.45594000000E+02  0.51100000000E-03 0.  1.
         11   -1    0    0    0    0 -0.00000000000E+00 -0.00000000000E+00 -0.45593999997E+02  0.45594000000E+02  0.51100000000E-03 0. -1.
    9900012    2    1    2    0    0  0.13216008933E+02  0.22086731170E+02 -0.31475060133E+02  0.50528855933E+02  0.29999988095E+02 0.  0.
        -12    1    1    2    0    0 -0.13216008933E+02 -0.22086731170E+02  0.31475060133E+02  0.40659144067E+02  0.00000000000E+00 0.  1.
         11    1    3    3    0    0 -0.63893030925E+00  0.32933442952E+00 -0.12971514025E+02  0.12991415222E+02  0.51100000000E-03 0. -1.
        -11    1    3    3    0    0  0.67572149874E+01  0.17754987698E+02 -0.19627371573E+01  0.19098478472E+02  0.51100000000E-03 0.  1.
        -12    1    3    3    0    0  0.70977242547E+01  0.40024090425E+01 -0.16540808950E+02  0.18438962239E+02  0.00000000000E+00 0.  1.
</event>
<event>
 7    1  0.4962385E-011  0.5052886E+02  0.7816164E-02  0.1300439E+00
        -11   -1    0    0    0    0  0.00000000000E+00  0.00000000000E+00  0.45593999997E+02  0.45594000000E+02  0.51100000000E-03 0.  1.
         11   -1    0    0    0    0 -0.00000000000E+00 -0.00000000000E+00 -0.45593999997E+02  0.45594000000E+02  0.51100000000E-03 0. -1.
    9900012    2    1    2    0    0 -0.27824435263E+02 -0.27877961331E+02  0.10088906547E+02  0.50528856367E+02  0.29999989413E+02 0.  0.
        -12    1    1    2    0    0  0.27824435263E+02  0.27877961331E+02 -0.10088906547E+02  0.40659143633E+02  0.00000000000E+00 0.  1.
         11    1    3    3    0    0 -0.27781302860E+02 -0.22781473608E+02 -0.34098025713E+00  0.35929272135E+02  0.51100000000E-03 0. -1.
        -11    1    3    3    0    0 -0.36698706654E+01 -0.17163112977E+01  0.82352306539E+01  0.91778374007E+01  0.51100000000E-03 0.  1.
         12    1    3    3    0    0  0.36267382623E+01 -0.33801764254E+01  0.21946561500E+01  0.54217468317E+01  0.00000000000E+00 0. -1.
</event>
<event>
 7    1  0.4962385E-011  0.5052886E+02  0.7816164E-02  0.1300439E+00
        -11   -1    0    0    0    0  0.00000000000E+00  0.00000000000E+00  0.45593999997E+02  0.45594000000E+02  0.51100000000E-03 0.  1.
         11   -1    0    0    0    0 -0.00000000000E+00 -0.00000000000E+00 -0.45593999997E+02  0.45594000000E+02  0.51100000000E-03 0. -1.
    9900012    2    1    2    0    0  0.26637780039E+02  0.24827171660E+01 -0.30617482626E+02  0.50528862623E+02  0.30000008428E+02 0.  0.
        -12    1    1    2    0    0 -0.26637780039E+02 -0.24827171660E+01  0.30617482626E+02  0.40659137377E+02  0.00000000000E+00 0.  1.
         11    1    3    3    0    0  0.12016540510E+02 -0.62285148674E+01 -0.28416059570E+02  0.31474816680E+02  0.51100000000E-03 0. -1.
        -11    1    3    3    0    0  0.14209324953E+02  0.98669923648E+01 -0.98644315598E+00  0.17327305743E+02  0.51100000000E-03 0.  1.
        -12    1    3    3    0    0  0.41191457606E+00 -0.11557603314E+01 -0.12149798997E+01  0.17267402000E+01  0.00000000000E+00 0.  1.
</event>
<event>
 7    1  0.4962385E-011  0.5052887E+02  0.7816164E-02  0.1300439E+00
        -11   -1    0    0    0    0  0.00000000000E+00  0.00000000000E+00  0.45593999997E+02  0.45594000000E+02  0.51100000000E-03 0. -1.
         11   -1    0    0    0    0 -0.00000000000E+00 -0.00000000000E+00 -0.45593999997E+02  0.45594000000E+02  0.51100000000E-03 0.  1.
    9900012    2    1    2    0    0 -0.35672306607E+02 -0.18433603005E+02  0.63917133783E+01  0.50528865991E+02  0.30000018667E+02 0.  0.
        -12    1    1    2    0    0  0.35672306607E+02  0.18433603005E+02 -0.63917133783E+01  0.40659134009E+02  0.00000000000E+00 0.  1.
         11    1    3    3    0    0 -0.25282046406E+02 -0.62278830184E+01  0.57443085981E+01  0.26663935923E+02  0.51100000000E-03 0. -1.
        -11    1    3    3    0    0 -0.35719868571E+01 -0.42840439657E+01  0.89301891955E+01  0.10529026647E+02  0.51100000000E-03 0.  1.
        -12    1    3    3    0    0 -0.68182733435E+01 -0.79216760213E+01 -0.82827844154E+01  0.13335903421E+02  0.00000000000E+00 0.  1.
</event>
<event>
 7    1  0.4962385E-011  0.5052887E+02  0.7816164E-02  0.1300439E+00
        -11   -1    0    0    0    0  0.00000000000E+00  0.00000000000E+00  0.45593999997E+02  0.45594000000E+02  0.51100000000E-03 0.  1.
         11   -1    0    0    0    0 -0.00000000000E+00 -0.00000000000E+00 -0.45593999997E+02  0.45594000000E+02  0.51100000000E-03 0. -1.
    9900012    2    1    2    0    0 -0.39103788503E+02  0.34927723251E+01  0.10576334729E+02  0.50528873225E+02  0.30000040655E+02 0.  0.
        -12    1    1    2    0    0  0.39103788503E+02 -0.34927723251E+01 -0.10576334729E+02  0.40659126775E+02  0.00000000000E+00 0.  1.
         11    1    3    3    0    0 -0.18868834749E+02 -0.53853797728E+01 -0.74936971243E+01  0.21004540864E+02  0.51100000000E-03 0. -1.
        -11    1    3    3    0    0 -0.99124925583E+01  0.83294647393E+01  0.11128994900E+02  0.17073137360E+02  0.51100000000E-03 0.  1.
        -12    1    3    3    0    0 -0.10322461196E+02  0.54868735864E+00  0.69410369532E+01  0.12451195001E+02  0.00000000000E+00 0.  1.
</event>
<event>
 7    1  0.4962385E-011  0.5052883E+02  0.7816164E-02  0.1300439E+00
        -11   -1    0    0    0    0  0.00000000000E+00  0.00000000000E+00  0.45593999997E+02  0.45594000000E+02  0.51100000000E-03 0.  1.
         11   -1    0    0    0    0 -0.00000000000E+00 -0.00000000000E+00 -0.45593999997E+02  0.45594000000E+02  0.51100000000E-03 0. -1.
    9900012    2    1    2    0    0  0.10090622179E+02 -0.34963595457E+02 -0.18135450186E+02  0.50528828628E+02  0.29999905096E+02 0.  0.
        -12    1    1    2    0    0 -0.10090622179E+02  0.34963595457E+02  0.18135450186E+02  0.40659171372E+02  0.00000000000E+00 0.  1.
         11    1    3    3    0    0 -0.56402081684E+00 -0.18223675328E+02 -0.75290270025E+01  0.19725787939E+02  0.51100000000E-03 0. -1.
        -11    1    3    3    0    0  0.16975046672E+02 -0.13863876364E+02 -0.88796065724E+01  0.23647551469E+02  0.51100000000E-03 0.  1.
        -12    1    3    3    0    0 -0.63204036758E+01 -0.28760437648E+01 -0.17268166112E+01  0.71554892195E+01  0.00000000000E+00 0.  1.
</event>
<event>
 7    1  0.4962385E-011  0.5052886E+02  0.7816164E-02  0.1300439E+00
        -11   -1    0    0    0    0  0.00000000000E+00  0.00000000000E+00  0.45593999997E+02  0.45594000000E+02  0.51100000000E-03 0.  1.
         11   -1    0    0    0    0 -0.00000000000E+00 -0.00000000000E+00 -0.45593999997E+02  0.45594000000E+02  0.51100000000E-03 0. -1.
    9900012    2    1    2    0    0  0.27554073174E+01  0.82554372099E+01 -0.39716761692E+02  0.50528859917E+02  0.30000000203E+02 0.  0.
        -12    1    1    2    0    0 -0.27554073174E+01 -0.82554372099E+01  0.39716761692E+02  0.40659140083E+02  0.00000000000E+00 0.  1.
         11    1    3    3    0    0 -0.99562538137E+01 -0.46787271049E+00 -0.17148855760E+02  0.19835048501E+02  0.51100000000E-03 0. -1.
        -11    1    3    3    0    0  0.96219543383E+01  0.11782482129E+02 -0.21281865664E+02  0.26159638698E+02  0.51100000000E-03 0.  1.
        -12    1    3    3    0    0  0.30897067928E+01 -0.30591722086E+01 -0.12860402678E+01  0.45341727181E+01  0.00000000000E+00 0.  1.
</event>
<event>
 7    1  0.4962385E-011  0.5052886E+02  0.7816164E-02  0.1300439E+00
        -11   -1    0    0    0    0  0.00000000000E+00  0.00000000000E+00  0.45593999997E+02  0.45594000000E+02  0.51100000000E-03 0. -1.
         11   -1    0    0    0    0 -0.00000000000E+00 -0.00000000000E+00 -0.45593999997E+02  0.45594000000E+02  0.51100000000E-03 0.  1.
    9900012    2    1    2    0    0 -0.22296090760E+02  0.81759874808E+01  0.33003082191E+02  0.50528857504E+02  0.29999992868E+02 0.  0.
        -12    1    1    2    0    0  0.22296090760E+02 -0.81759874808E+01 -0.33003082191E+02  0.40659142496E+02  0.00000000000E+00 0.  1.
         11    1    3    3    0    0 -0.21946607112E+01  0.96017699778E+01  0.25767382827E+02  0.27585658237E+02  0.51100000000E-03 0. -1.
        -11    1    3    3    0    0 -0.11730424762E+02  0.11137880042E+01  0.31252417951E+00  0.11787326264E+02  0.51100000000E-03 0.  1.
        -12    1    3    3    0    0 -0.83710052861E+01 -0.25395705012E+01  0.69231751841E+01  0.11155873003E+02  0.00000000000E+00 0.  1.
</event>
<event>
 7    1  0.4962385E-011  0.5052886E+02  0.7816164E-02  0.1300439E+00
        -11   -1    0    0    0    0  0.00000000000E+00  0.00000000000E+00  0.45593999997E+02  0.45594000000E+02  0.51100000000E-03 0. -1.
         11   -1    0    0    0    0 -0.00000000000E+00 -0.00000000000E+00 -0.45593999997E+02  0.45594000000E+02  0.51100000000E-03 0.  1.
    9900012    2    1    2    0    0  0.12140888748E+02 -0.25769480345E+02  0.29012043242E+02  0.50528856503E+02  0.29999989826E+02 0.  0.
        -12    1    1    2    0    0 -0.12140888748E+02  0.25769480345E+02 -0.29012043242E+02  0.40659143497E+02  0.00000000000E+00 0.  1.
         11    1    3    3    0    0  0.16883539897E+02 -0.14264725494E+02  0.17928457888E+02  0.28459900130E+02  0.51100000000E-03 0. -1.
        -11    1    3    3    0    0 -0.56363003754E+01 -0.11376293973E+02  0.14068662514E+02  0.18950335397E+02  0.51100000000E-03 0.  1.
         12    1    3    3    0    0  0.89364922620E+00 -0.12846087779E+00 -0.29850771605E+01  0.31186209758E+01  0.00000000000E+00 0. -1.
</event>
<event>
 7    1  0.4962385E-011  0.5052885E+02  0.7816164E-02  0.1300439E+00
        -11   -1    0    0    0    0  0.00000000000E+00  0.00000000000E+00  0.45593999997E+02  0.45594000000E+02  0.51100000000E-03 0. -1.
         11   -1    0    0    0    0 -0.00000000000E+00 -0.00000000000E+00 -0.45593999997E+02  0.45594000000E+02  0.51100000000E-03 0.  1.
    9900012    2    1    2    0    0 -0.18828439536E+02  0.26847107027E+02  0.24039323579E+02  0.50528851347E+02  0.29999974155E+02 0.  0.
        -12    1    1    2    0    0  0.18828439536E+02 -0.26847107027E+02 -0.24039323579E+02  0.40659148653E+02  0.00000000000E+00 0.  1.
         11    1    3    3    0    0  0.49651981508E+01  0.11396003240E+02  0.14895612396E+02  0.19401065729E+02  0.51100000000E-03 0. -1.
        -11    1    3    3    0    0 -0.19548333715E+02  0.16217026002E+02  0.83854746562E+01  0.26747812412E+02  0.51100000000E-03 0.  1.
        -12    1    3    3    0    0 -0.42453039716E+01 -0.76592221525E+00  0.75823652673E+00  0.43799732056E+01  0.00000000000E+00 0.  1.
</event>
<event>
 7    1  0.4962385E-011  0.5052886E+02  0.7816164E-02  0.1300439E+00
        -11   -1    0    0    0    0  0.00000000000E+00  0.00000000000E+00  0.45593999997E+02  0.45594000000E+02  0.51100000000E-03 0.  1.
         11   -1    0    0    0    0 -0.00000000000E+00 -0.00000000000E+00 -0.45593999997E+02  0.45594000000E+02  0.51100000000E-03 0. -1.
    9900012    2    1    2    0    0  0.41766449369E+01  0.86510403383E+01 -0.39507986048E+02  0.50528858059E+02  0.29999994555E+02 0.  0.
        -12    1    1    2    0    0 -0.41766449369E+01 -0.86510403383E+01  0.39507986048E+02  0.40659141941E+02  0.00000000000E+00 0.  1.
         11    1    3    3    0    0  0.96070248726E+01 -0.10646262293E+01 -0.23730677133E+02  0.25623688129E+02  0.51100000000E-03 0. -1.
        -11    1    3    3    0    0 -0.53148071652E+01  0.35440003788E+01  0.14970018876E+01  0.65611072846E+01  0.51100000000E-03 0.  1.
         12    1    3    3    0    0 -0.11557277049E+00  0.61716661888E+01 -0.17274310802E+02  0.18344062645E+02  0.00000000000E+00 0. -1.
</event>
<event>
 7    1  0.4962385E-011  0.5052889E+02  0.7816164E-02  0.1300439E+00
        -11   -1    0    0    0    0  0.00000000000E+00  0.00000000000E+00  0.45593999997E+02  0.45594000000E+02  0.51100000000E-03 0.  1.
         11   -1    0    0    0    0 -0.00000000000E+00 -0.00000000000E+00 -0.45593999997E+02  0.45594000000E+02  0.51100000000E-03 0. -1.
    9900012    2    1    2    0    0 -0.14152388480E+02 -0.20729941540E+02 -0.31986597302E+02  0.50528892989E+02  0.30000100729E+02 0.  0.
        -12    1    1    2    0    0  0.14152388480E+02  0.20729941540E+02  0.31986597302E+02  0.40659107011E+02  0.00000000000E+00 0.  1.
         11    1    3    3    0    0 -0.16115421545E+02 -0.61780087794E+01 -0.27910330248E+02  0.32815562450E+02  0.51100000000E-03 0. -1.
        -11    1    3    3    0    0  0.30521209742E+01 -0.14285357296E+02 -0.57500320058E+01  0.15698717905E+02  0.51100000000E-03 0.  1.
        -12    1    3    3    0    0 -0.10890879093E+01 -0.26657546427E+00  0.16737649520E+01  0.20146126345E+01  0.00000000000E+00 0.  1.
</event>
<event>
 7    1  0.4962385E-011  0.5052886E+02  0.7816164E-02  0.1300439E+00
        -11   -1    0    0    0    0  0.00000000000E+00  0.00000000000E+00  0.45593999997E+02  0.45594000000E+02  0.51100000000E-03 0.  1.
         11   -1    0    0    0    0 -0.00000000000E+00 -0.00000000000E+00 -0.45593999997E+02  0.45594000000E+02  0.51100000000E-03 0. -1.
    9900012    2    1    2    0    0 -0.22957433829E+02  0.16335457711E+02 -0.29313391839E+02  0.50528857267E+02  0.29999992150E+02 0.  0.
        -12    1    1    2    0    0  0.22957433829E+02 -0.16335457711E+02  0.29313391839E+02  0.40659142733E+02  0.00000000000E+00 0.  1.
         11    1    3    3    0    0 -0.36283180905E+01 -0.55843852135E+01  0.11336333673E+01  0.67553812069E+01  0.51100000000E-03 0.  1.
        -11    1    3    3    0    0 -0.89574802201E+01  0.16878652999E+02 -0.23585714763E+02  0.30354757784E+02  0.51100000000E-03 0. -1.
        -12    1    3    3    0    0 -0.10371635519E+02  0.50411899254E+01 -0.68613104425E+01  0.13418718277E+02  0.00000000000E+00 0.  1.
</event>
<event>
 7    1  0.4962385E-011  0.5052886E+02  0.7816164E-02  0.1300439E+00
        -11   -1    0    0    0    0  0.00000000000E+00  0.00000000000E+00  0.45593999997E+02  0.45594000000E+02  0.51100000000E-03 0. -1.
         11   -1    0    0    0    0 -0.00000000000E+00 -0.00000000000E+00 -0.45593999997E+02  0.45594000000E+02  0.51100000000E-03 0.  1.
    9900012    2    1    2    0    0 -0.19687160417E+02 -0.27483063200E+02  0.22588994090E+02  0.50528859550E+02  0.29999999088E+02 0.  0.
        -12    1    1    2    0    0  0.19687160417E+02  0.27483063200E+02 -0.22588994090E+02  0.40659140450E+02  0.00000000000E+00 0.  1.
         11    1    3    3    0    0  0.15215915536E+01 -0.71190385490E+01 -0.49932100747E+01  0.88276892689E+01  0.51100000000E-03 0.  1.
        -11    1    3    3    0    0 -0.16062209716E+02 -0.10624864428E+02  0.22361269166E+02  0.29511162025E+02  0.51100000000E-03 0. -1.
        -12    1    3    3    0    0 -0.51465422544E+01 -0.97391602227E+01  0.52209349984E+01  0.12190008256E+02  0.00000000000E+00 0.  1.
</event>
<event>
 7    1  0.4962385E-011  0.5052883E+02  0.7816164E-02  0.1300439E+00
        -11   -1    0    0    0    0  0.00000000000E+00  0.00000000000E+00  0.45593999997E+02  0.45594000000E+02  0.51100000000E-03 0. -1.
         11   -1    0    0    0    0 -0.00000000000E+00 -0.00000000000E+00 -0.45593999997E+02  0.45594000000E+02  0.51100000000E-03 0.  1.
    9900012    2    1    2    0    0  0.35511417464E+02  0.90974007455E+01 -0.17588194108E+02  0.50528830768E+02  0.29999911604E+02 0.  0.
        -12    1    1    2    0    0 -0.35511417464E+02 -0.90974007455E+01  0.17588194108E+02  0.40659169232E+02  0.00000000000E+00 0.  1.
         11    1    3    3    0    0  0.35721948047E+02  0.51337165082E+01 -0.14783593326E+02  0.38999580118E+02  0.51100000000E-03 0. -1.
        -11    1    3    3    0    0  0.10449092733E+01  0.68082157356E+01  0.60545754512E+00  0.69144931841E+01  0.51100000000E-03 0.  1.
         12    1    3    3    0    0 -0.12554398568E+01 -0.28445314984E+01 -0.34100583277E+01  0.46147574668E+01  0.00000000000E+00 0. -1.
</event>
<event>
 7    1  0.4962385E-011  0.5052891E+02  0.7816164E-02  0.1300439E+00
        -11   -1    0    0    0    0  0.00000000000E+00  0.00000000000E+00  0.45593999997E+02  0.45594000000E+02  0.51100000000E-03 0. -1.
         11   -1    0    0    0    0 -0.00000000000E+00 -0.00000000000E+00 -0.45593999997E+02  0.45594000000E+02  0.51100000000E-03 0.  1.
    9900012    2    1    2    0    0 -0.25390877631E+02  0.19102197656E+02  0.25368698509E+02  0.50528911395E+02  0.30000156677E+02 0.  0.
        -12    1    1    2    0    0  0.25390877631E+02 -0.19102197656E+02 -0.25368698509E+02  0.40659088605E+02  0.00000000000E+00 0.  1.
         11    1    3    3    0    0 -0.22520269919E+02  0.21504203571E+02  0.13633069611E+02  0.33991968400E+02  0.51100000000E-03 0. -1.
        -11    1    3    3    0    0  0.29139118601E+01 -0.23025891011E+01  0.30591594820E+00  0.37264438444E+01  0.51100000000E-03 0.  1.
         12    1    3    3    0    0 -0.57845195711E+01 -0.99416813563E-01  0.11429712950E+02  0.12810499151E+02  0.00000000000E+00 0. -1.
</event>
<event>
 7    1  0.4962385E-011  0.5052886E+02  0.7816164E-02  0.1300439E+00
        -11   -1    0    0    0    0  0.00000000000E+00  0.00000000000E+00  0.45593999997E+02  0.45594000000E+02  0.51100000000E-03 0.  1.
         11   -1    0    0    0    0 -0.00000000000E+00 -0.00000000000E+00 -0.45593999997E+02  0.45594000000E+02  0.51100000000E-03 0. -1.
    9900012    2    1    2    0    0 -0.31499438162E+02  0.25618938258E+02 -0.21496212650E+01  0.50528862360E+02  0.30000007631E+02 0.  0.
        -12    1    1    2    0    0  0.31499438162E+02 -0.25618938258E+02  0.21496212650E+01  0.40659137640E+02  0.00000000000E+00 0.  1.
         11    1    3    3    0    0 -0.16454537097E+01  0.10631640205E+02 -0.78423384574E+01  0.13313210135E+02  0.51100000000E-03 0. -1.
        -11    1    3    3    0    0 -0.26289060066E+02  0.96601095898E+01  0.97189628230E+01  0.29646089709E+02  0.51100000000E-03 0.  1.
        -12    1    3    3    0    0 -0.35649243866E+01  0.53271884631E+01 -0.40262456305E+01  0.75695625158E+01  0.00000000000E+00 0.  1.
</event>
<event>
 7    1  0.5237083E-011  0.5052884E+02  0.7816164E-02  0.1300439E+00
        -11   -1    0    0    0    0  0.00000000000E+00  0.00000000000E+00  0.45593999997E+02  0.45594000000E+02  0.51100000000E-03 0.  1.
         11   -1    0    0    0    0 -0.00000000000E+00 -0.00000000000E+00 -0.45593999997E+02  0.45594000000E+02  0.51100000000E-03 0. -1.
    9900012    2    1    2    0    0 -0.98325752621E+01  0.32036639065E+02 -0.23024795755E+02  0.50528843609E+02  0.29999950633E+02 0.  0.
        -12    1    1    2    0    0  0.98325752621E+01 -0.32036639065E+02  0.23024795755E+02  0.40659156391E+02  0.00000000000E+00 0.  1.
         11    1    3    3    0    0 -0.30662540533E+01  0.87718055800E+01 -0.17020893564E+02  0.19392197014E+02  0.51100000000E-03 0. -1.
        -11    1    3    3    0    0 -0.10957119795E+02  0.87793418755E+01  0.18034927030E+01  0.14155843463E+02  0.51100000000E-03 0.  1.
        -12    1    3    3    0    0  0.41907985858E+01  0.14485491610E+02 -0.78073948932E+01  0.16980803131E+02  0.00000000000E+00 0.  1.
</event>
<event>
 7    1  0.4962385E-011  0.5052886E+02  0.7816164E-02  0.1300439E+00
        -11   -1    0    0    0    0  0.00000000000E+00  0.00000000000E+00  0.45593999997E+02  0.45594000000E+02  0.51100000000E-03 0. -1.
         11   -1    0    0    0    0 -0.00000000000E+00 -0.00000000000E+00 -0.45593999997E+02  0.45594000000E+02  0.51100000000E-03 0.  1.
    9900012    2    1    2    0    0  0.28385648364E+02  0.28133033289E+02 -0.74802031555E+01  0.50528855465E+02  0.29999986671E+02 0.  0.
        -12    1    1    2    0    0 -0.28385648364E+02 -0.28133033289E+02  0.74802031555E+01  0.40659144535E+02  0.00000000000E+00 0.  1.
         11    1    3    3    0    0 -0.90636266646E+00  0.45215105560E+01 -0.91500262489E+01  0.10246391150E+02  0.51100000000E-03 0. -1.
        -11    1    3    3    0    0  0.10095273021E+02  0.17240631590E+02 -0.97821196045E-01  0.19979076161E+02  0.51100000000E-03 0.  1.
         12    1    3    3    0    0  0.19196738010E+02  0.63708911426E+01  0.17676442894E+01  0.20303388153E+02  0.00000000000E+00 0. -1.
</event>
<event>
 7    1  0.4962385E-011  0.5052886E+02  0.7816164E-02  0.1300439E+00
        -11   -1    0    0    0    0  0.00000000000E+00  0.00000000000E+00  0.45593999997E+02  0.45594000000E+02  0.51100000000E-03 0.  1.
         11   -1    0    0    0    0 -0.00000000000E+00 -0.00000000000E+00 -0.45593999997E+02  0.45594000000E+02  0.51100000000E-03 0. -1.
    9900012    2    1    2    0    0  0.35036961987E+02  0.18602204640E+02  0.89182522353E+01  0.50528856555E+02  0.29999989986E+02 0.  0.
        -12    1    1    2    0    0 -0.35036961987E+02 -0.18602204640E+02 -0.89182522353E+01  0.40659143445E+02  0.00000000000E+00 0.  1.
         11    1    3    3    0    0  0.13225661399E+02 -0.10614033593E+01 -0.28864808919E+01  0.13578529697E+02  0.51100000000E-03 0. -1.
        -11    1    3    3    0    0  0.16407440213E+02  0.22029270870E+02  0.13778208081E+02  0.30729983527E+02  0.51100000000E-03 0.  1.
        -12    1    3    3    0    0  0.54038603750E+01 -0.23656628709E+01 -0.19734749535E+01  0.62203433316E+01  0.00000000000E+00 0.  1.
</event>
<event>
 7    1  0.4962385E-011  0.5052886E+02  0.7816164E-02  0.1300439E+00
        -11   -1    0    0    0    0  0.00000000000E+00  0.00000000000E+00  0.45593999997E+02  0.45594000000E+02  0.51100000000E-03 0. -1.
         11   -1    0    0    0    0 -0.00000000000E+00 -0.00000000000E+00 -0.45593999997E+02  0.45594000000E+02  0.51100000000E-03 0.  1.
    9900012    2    1    2    0    0 -0.33214183689E+02  0.16762101747E+02  0.16401700416E+02  0.50528857982E+02  0.29999994322E+02 0.  0.
        -12    1    1    2    0    0  0.33214183689E+02 -0.16762101747E+02 -0.16401700416E+02  0.40659142018E+02  0.00000000000E+00 0.  1.
         11    1    3    3    0    0 -0.25016594751E+02  0.15835930400E+02  0.16569522730E+02  0.33928686806E+02  0.51100000000E-03 0. -1.
        -11    1    3    3    0    0 -0.35204984850E+01 -0.14630167059E+01 -0.70070520223E+01  0.79770361520E+01  0.51100000000E-03 0.  1.
         12    1    3    3    0    0 -0.46770904524E+01  0.23891880533E+01  0.68392297077E+01  0.86231350244E+01  0.00000000000E+00 0. -1.
</event>
<event>
 7    1  0.4962385E-011  0.5052886E+02  0.7816164E-02  0.1300439E+00
        -11   -1    0    0    0    0  0.00000000000E+00  0.00000000000E+00  0.45593999997E+02  0.45594000000E+02  0.51100000000E-03 0.  1.
         11   -1    0    0    0    0 -0.00000000000E+00 -0.00000000000E+00 -0.45593999997E+02  0.45594000000E+02  0.51100000000E-03 0. -1.
    9900012    2    1    2    0    0  0.85593786015E+01  0.16886218610E+02 -0.35982750945E+02  0.50528859496E+02  0.29999998923E+02 0.  0.
        -12    1    1    2    0    0 -0.85593786015E+01 -0.16886218610E+02  0.35982750945E+02  0.40659140504E+02  0.00000000000E+00 0.  1.
         11    1    3    3    0    0  0.25012725201E+01  0.14900482639E+02 -0.29766835089E+02  0.33381809696E+02  0.51100000000E-03 0. -1.
        -11    1    3    3    0    0  0.84843094362E+01  0.43287531340E+01  0.59852620692E+00  0.95435760691E+01  0.51100000000E-03 0.  1.
         12    1    3    3    0    0 -0.24262033549E+01 -0.23430171627E+01 -0.68144420631E+01  0.76034737309E+01  0.00000000000E+00 0. -1.
</event>
<event>
 7    1  0.4962385E-011  0.5052886E+02  0.7816164E-02  0.1300439E+00
        -11   -1    0    0    0    0  0.00000000000E+00  0.00000000000E+00  0.45593999997E+02  0.45594000000E+02  0.51100000000E-03 0.  1.
         11   -1    0    0    0    0 -0.00000000000E+00 -0.00000000000E+00 -0.45593999997E+02  0.45594000000E+02  0.51100000000E-03 0. -1.
    9900012    2    1    2    0    0 -0.26882094858E+02 -0.51602805689E+01 -0.30064764437E+02  0.50528861050E+02  0.30000003648E+02 0.  0.
        -12    1    1    2    0    0  0.26882094858E+02  0.51602805689E+01  0.30064764437E+02  0.40659138950E+02  0.00000000000E+00 0.  1.
         11    1    3    3    0    0 -0.11204039324E+02 -0.13867653650E+02 -0.77890401666E+01  0.19455371030E+02  0.51100000000E-03 0. -1.
        -11    1    3    3    0    0 -0.15245176127E+01  0.72132135343E+01 -0.65265030739E+01  0.98463112929E+01  0.51100000000E-03 0.  1.
         12    1    3    3    0    0 -0.14153537921E+02  0.14941595468E+01 -0.15749221196E+02  0.21227178727E+02  0.00000000000E+00 0. -1.
</event>
<event>
 7    1  0.4962385E-011  0.5052886E+02  0.7816164E-02  0.1300439E+00
        -11   -1    0    0    0    0  0.00000000000E+00  0.00000000000E+00  0.45593999997E+02  0.45594000000E+02  0.51100000000E-03 0. -1.
         11   -1    0    0    0    0 -0.00000000000E+00 -0.00000000000E+00 -0.45593999997E+02  0.45594000000E+02  0.51100000000E-03 0.  1.
    9900012    2    1    2    0    0 -0.27498401087E+01 -0.29333724020E+02  0.28020287701E+02  0.50528861933E+02  0.30000006331E+02 0.  0.
        -12    1    1    2    0    0  0.27498401087E+01  0.29333724020E+02 -0.28020287701E+02  0.40659138067E+02  0.00000000000E+00 0.  1.
         11    1    3    3    0    0  0.10480076542E+02 -0.92216624235E+01  0.89032487339E+01  0.16557140468E+02  0.51100000000E-03 0. -1.
        -11    1    3    3    0    0 -0.41555043471E+01 -0.11361772778E+02  0.17482424425E+02  0.21260133139E+02  0.51100000000E-03 0.  1.
         12    1    3    3    0    0 -0.90744123040E+01 -0.87502888187E+01  0.16346145422E+01  0.12711588326E+02  0.00000000000E+00 0. -1.
</event>
<event>
 7    1  0.4962385E-011  0.5052882E+02  0.7816164E-02  0.1300439E+00
        -11   -1    0    0    0    0  0.00000000000E+00  0.00000000000E+00  0.45593999997E+02  0.45594000000E+02  0.51100000000E-03 0.  1.
         11   -1    0    0    0    0 -0.00000000000E+00 -0.00000000000E+00 -0.45593999997E+02  0.45594000000E+02  0.51100000000E-03 0. -1.
    9900012    2    1    2    0    0 -0.33219761418E+02 -0.21336663799E+02 -0.97140695350E+01  0.50528820008E+02  0.29999878895E+02 0.  0.
        -12    1    1    2    0    0  0.33219761418E+02  0.21336663799E+02  0.97140695350E+01  0.40659179992E+02  0.00000000000E+00 0.  1.
         11    1    3    3    0    0 -0.26095406048E+02 -0.31122122282E+01 -0.14622558622E+02  0.30074495884E+02  0.51100000000E-03 0. -1.
        -11    1    3    3    0    0 -0.31246089475E+01 -0.12242215922E+02  0.26245467620E+01  0.12904389862E+02  0.51100000000E-03 0.  1.
         12    1    3    3    0    0 -0.39997464219E+01 -0.59822356492E+01  0.22839423253E+01  0.75499342611E+01  0.00000000000E+00 0. -1.
</event>
<event>
 7    1  0.4962385E-011  0.5052884E+02  0.7816164E-02  0.1300439E+00
        -11   -1    0    0    0    0  0.00000000000E+00  0.00000000000E+00  0.45593999997E+02  0.45594000000E+02  0.51100000000E-03 0.  1.
         11   -1    0    0    0    0 -0.00000000000E+00 -0.00000000000E+00 -0.45593999997E+02  0.45594000000E+02  0.51100000000E-03 0. -1.
    9900012    2    1    2    0    0  0.17546236274E+02 -0.36051534795E+02 -0.67515531528E+01  0.50528843117E+02  0.29999949138E+02 0.  0.
        -12    1    1    2    0    0 -0.17546236274E+02  0.36051534795E+02  0.67515531528E+01  0.40659156883E+02  0.00000000000E+00 0.  1.
         11    1    3    3    0    0  0.62010506951E+01 -0.23087027140E+02 -0.53142956868E+00  0.23911216396E+02  0.51100000000E-03 0. -1.
        -11    1    3    3    0    0  0.95902894504E+01 -0.91119365535E+00 -0.99791521183E+01  0.13870378613E+02  0.51100000000E-03 0.  1.
        -12    1    3    3    0    0  0.17548961287E+01 -0.12053314000E+02  0.37590285342E+01  0.12747248108E+02  0.00000000000E+00 0.  1.
</event>
<event>
 7    1  0.4962385E-011  0.5052887E+02  0.7816164E-02  0.1300439E+00
        -11   -1    0    0    0    0  0.00000000000E+00  0.00000000000E+00  0.45593999997E+02  0.45594000000E+02  0.51100000000E-03 0.  1.
         11   -1    0    0    0    0 -0.00000000000E+00 -0.00000000000E+00 -0.45593999997E+02  0.45594000000E+02  0.51100000000E-03 0. -1.
    9900012    2    1    2    0    0  0.37327730348E+02 -0.13619855486E+01 -0.16060840143E+02  0.50528867648E+02  0.30000023702E+02 0.  0.
        -12    1    1    2    0    0 -0.37327730348E+02  0.13619855486E+01  0.16060840143E+02  0.40659132352E+02  0.00000000000E+00 0.  1.
         11    1    3    3    0    0  0.21203077691E+02  0.48103673199E+01 -0.80932914685E+01  0.23199385862E+02  0.51100000000E-03 0. -1.
        -11    1    3    3    0    0  0.13915625101E+01 -0.23475474816E+00 -0.11057492841E+02  0.11147183690E+02  0.51100000000E-03 0.  1.
         12    1    3    3    0    0  0.14733090147E+02 -0.59375981204E+01  0.30899441674E+01  0.16182298096E+02  0.00000000000E+00 0. -1.
</event>
<event>
 7    1  0.4962385E-011  0.5052885E+02  0.7816164E-02  0.1300439E+00
        -11   -1    0    0    0    0  0.00000000000E+00  0.00000000000E+00  0.45593999997E+02  0.45594000000E+02  0.51100000000E-03 0. -1.
         11   -1    0    0    0    0 -0.00000000000E+00 -0.00000000000E+00 -0.45593999997E+02  0.45594000000E+02  0.51100000000E-03 0.  1.
    9900012    2    1    2    0    0  0.39319832526E+02 -0.37271302979E+00  0.10343016382E+02  0.50528854255E+02  0.29999982993E+02 0.  0.
        -12    1    1    2    0    0 -0.39319832526E+02  0.37271302979E+00 -0.10343016382E+02  0.40659145745E+02  0.00000000000E+00 0.  1.
         11    1    3    3    0    0  0.28490159406E+01 -0.30722591850E+01  0.11403249246E+02  0.12148652681E+02  0.51100000000E-03 0. -1.
        -11    1    3    3    0    0  0.30666962856E+02  0.37221429662E+01  0.32735838244E+01  0.31064985279E+02  0.51100000000E-03 0.  1.
        -12    1    3    3    0    0  0.58038537289E+01 -0.10225968110E+01 -0.43338166887E+01  0.73152162945E+01  0.00000000000E+00 0.  1.
</event>
<event>
 7    1  0.4962385E-011  0.5052886E+02  0.7816164E-02  0.1300439E+00
        -11   -1    0    0    0    0  0.00000000000E+00  0.00000000000E+00  0.45593999997E+02  0.45594000000E+02  0.51100000000E-03 0. -1.
         11   -1    0    0    0    0 -0.00000000000E+00 -0.00000000000E+00 -0.45593999997E+02  0.45594000000E+02  0.51100000000E-03 0.  1.
    9900012    2    1    2    0    0  0.70449499186E+01  0.28525336851E+02  0.28104085655E+02  0.50528858441E+02  0.29999995717E+02 0.  0.
        -12    1    1    2    0    0 -0.70449499186E+01 -0.28525336851E+02 -0.28104085655E+02  0.40659141559E+02  0.00000000000E+00 0.  1.
         11    1    3    3    0    0  0.21138835306E+01  0.16864726813E+02  0.46455789797E+01  0.17620128217E+02  0.51100000000E-03 0. -1.
        -11    1    3    3    0    0  0.34982994196E+01  0.33072752478E+01  0.23940477945E+02  0.24419718526E+02  0.51100000000E-03 0.  1.
        -12    1    3    3    0    0  0.14327669683E+01  0.83533347896E+01 -0.48197127017E+00  0.84890116974E+01  0.00000000000E+00 0.  1.
</event>
<event>
 7    1  0.4962385E-011  0.5052887E+02  0.7816164E-02  0.1300439E+00
        -11   -1    0    0    0    0  0.00000000000E+00  0.00000000000E+00  0.45593999997E+02  0.45594000000E+02  0.51100000000E-03 0. -1.
         11   -1    0    0    0    0 -0.00000000000E+00 -0.00000000000E+00 -0.45593999997E+02  0.45594000000E+02  0.51100000000E-03 0.  1.
    9900012    2    1    2    0    0  0.28539541660E+02  0.25600521258E+02  0.13537834975E+02  0.50528866922E+02  0.30000021497E+02 0.  0.
        -12    1    1    2    0    0 -0.28539541660E+02 -0.25600521258E+02 -0.13537834975E+02  0.40659133078E+02  0.00000000000E+00 0.  1.
         11    1    3    3    0    0  0.18246534467E+01 -0.43164696273E+01  0.58558692997E+01  0.75001650489E+01  0.51100000000E-03 0. -1.
        -11    1    3    3    0    0  0.75093546118E+01  0.17070935784E+02 -0.93378798343E-01  0.18649825068E+02  0.51100000000E-03 0.  1.
         12    1    3    3    0    0  0.19205533601E+02  0.12846055101E+02  0.77753444740E+01  0.24378876805E+02  0.00000000000E+00 0. -1.
</event>
<event>
 7    1  0.4962385E-011  0.5052886E+02  0.7816164E-02  0.1300439E+00
        -11   -1    0    0    0    0  0.00000000000E+00  0.00000000000E+00  0.45593999997E+02  0.45594000000E+02  0.51100000000E-03 0. -1.
         11   -1    0    0    0    0 -0.00000000000E+00 -0.00000000000E+00 -0.45593999997E+02  0.45594000000E+02  0.51100000000E-03 0.  1.
    9900012    2    1    2    0    0  0.22918902342E+02  0.31477308736E+01  0.33436225595E+02  0.50528862328E+02  0.30000007531E+02 0.  0.
        -12    1    1    2    0    0 -0.22918902342E+02 -0.31477308736E+01 -0.33436225595E+02  0.40659137672E+02  0.00000000000E+00 0.  1.
         11    1    3    3    0    0 -0.26446401680E+01 -0.61505111037E+01  0.10841017508E+02  0.12741686283E+02  0.51100000000E-03 0. -1.
        -11    1    3    3    0    0  0.13198940240E+02  0.75904470535E+01  0.46353635305E+01  0.15915825622E+02  0.51100000000E-03 0.  1.
         12    1    3    3    0    0  0.12364602271E+02  0.17077949239E+01  0.17959844556E+02  0.21871350423E+02  0.00000000000E+00 0. -1.
</event>
<event>
 7    1  0.4962385E-011  0.5052885E+02  0.7816164E-02  0.1300439E+00
        -11   -1    0    0    0    0  0.00000000000E+00  0.00000000000E+00  0.45593999997E+02  0.45594000000E+02  0.51100000000E-03 0. -1.
         11   -1    0    0    0    0 -0.00000000000E+00 -0.00000000000E+00 -0.45593999997E+02  0.45594000000E+02  0.51100000000E-03 0.  1.
    9900012    2    1    2    0    0 -0.29852007894E+02 -0.16733134950E+02  0.21955096246E+02  0.50528850578E+02  0.29999971816E+02 0.  0.
        -12    1    1    2    0    0  0.29852007894E+02  0.16733134950E+02 -0.21955096246E+02  0.40659149422E+02  0.00000000000E+00 0.  1.
         11    1    3    3    0    0 -0.13168617609E+01 -0.26459116924E+00  0.11367934759E+01  0.17596684495E+01  0.51100000000E-03 0. -1.
        -11    1    3    3    0    0 -0.20320082488E+02 -0.92438158067E+01 -0.30326693393E+01  0.22528891818E+02  0.51100000000E-03 0.  1.
        -12    1    3    3    0    0 -0.82150636454E+01 -0.72247279743E+01  0.23850972109E+02  0.26240290310E+02  0.00000000000E+00 0.  1.
</event>
<event>
 7    1  0.4962385E-011  0.5052886E+02  0.7816164E-02  0.1300439E+00
        -11   -1    0    0    0    0  0.00000000000E+00  0.00000000000E+00  0.45593999997E+02  0.45594000000E+02  0.51100000000E-03 0. -1.
         11   -1    0    0    0    0 -0.00000000000E+00 -0.00000000000E+00 -0.45593999997E+02  0.45594000000E+02  0.51100000000E-03 0.  1.
    9900012    2    1    2    0    0 -0.33591015942E+02  0.11035891611E+02 -0.20075317150E+02  0.50528860629E+02  0.30000002369E+02 0.  0.
        -12    1    1    2    0    0  0.33591015942E+02 -0.11035891611E+02  0.20075317150E+02  0.40659139371E+02  0.00000000000E+00 0.  1.
         11    1    3    3    0    0 -0.18006770487E+02  0.46153255931E+00 -0.15940143868E+01  0.18083077111E+02  0.51100000000E-03 0. -1.
        -11    1    3    3    0    0 -0.97446172733E+00  0.10888352073E+02 -0.34056466668E+01  0.11450074935E+02  0.51100000000E-03 0.  1.
        -12    1    3    3    0    0 -0.14609783728E+02 -0.31399302208E+00 -0.15075656096E+02  0.20995708584E+02  0.00000000000E+00 0.  1.
</event>
<event>
 7    1  0.4962385E-011  0.5052889E+02  0.7816164E-02  0.1300439E+00
        -11   -1    0    0    0    0  0.00000000000E+00  0.00000000000E+00  0.45593999997E+02  0.45594000000E+02  0.51100000000E-03 0. -1.
         11   -1    0    0    0    0 -0.00000000000E+00 -0.00000000000E+00 -0.45593999997E+02  0.45594000000E+02  0.51100000000E-03 0.  1.
    9900012    2    1    2    0    0  0.10962509789E+02  0.22437361404E+02  0.32086627133E+02  0.50528887265E+02  0.30000083329E+02 0.  0.
        -12    1    1    2    0    0 -0.10962509789E+02 -0.22437361404E+02 -0.32086627133E+02  0.40659112735E+02  0.00000000000E+00 0.  1.
         11    1    3    3    0    0 -0.56863749052E+01  0.11322815749E+02  0.19144637151E+02  0.22957747014E+02  0.51100000000E-03 0. -1.
        -11    1    3    3    0    0  0.12220209236E+02  0.12131102759E+02  0.14757750108E+02  0.22677926634E+02  0.51100000000E-03 0.  1.
         12    1    3    3    0    0  0.44286754581E+01 -0.10165571043E+01 -0.18157601259E+01  0.48932136163E+01  0.00000000000E+00 0. -1.
</event>
<event>
 7    1  0.4962385E-011  0.5052887E+02  0.7816164E-02  0.1300439E+00
        -11   -1    0    0    0    0  0.00000000000E+00  0.00000000000E+00  0.45593999997E+02  0.45594000000E+02  0.51100000000E-03 0. -1.
         11   -1    0    0    0    0 -0.00000000000E+00 -0.00000000000E+00 -0.45593999997E+02  0.45594000000E+02  0.51100000000E-03 0.  1.
    9900012    2    1    2    0    0 -0.25014422782E+02 -0.24104715114E+02  0.21128328476E+02  0.50528869390E+02  0.30000028996E+02 0.  0.
        -12    1    1    2    0    0  0.25014422782E+02  0.24104715114E+02 -0.21128328476E+02  0.40659130610E+02  0.00000000000E+00 0.  1.
         11    1    3    3    0    0 -0.21792987304E+02 -0.15551771757E+02  0.17537074152E+02  0.32005325659E+02  0.51100000000E-03 0. -1.
        -11    1    3    3    0    0 -0.21509104405E+01 -0.13189944240E+02  0.32419325680E+01  0.13751769770E+02  0.51100000000E-03 0.  1.
        -12    1    3    3    0    0 -0.10705250369E+01  0.46370008832E+01  0.34932175575E+00  0.47717739609E+01  0.00000000000E+00 0.  1.
</event>
<event>
 7    1  0.4962385E-011  0.5052890E+02  0.7816164E-02  0.1300439E+00
        -11   -1    0    0    0    0  0.00000000000E+00  0.00000000000E+00  0.45593999997E+02  0.45594000000E+02  0.51100000000E-03 0.  1.
         11   -1    0    0    0    0 -0.00000000000E+00 -0.00000000000E+00 -0.45593999997E+02  0.45594000000E+02  0.51100000000E-03 0. -1.
    9900012    2    1    2    0    0  0.50578383940E+01  0.34603879642E+02  0.20740115117E+02  0.50528897814E+02  0.30000115395E+02 0.  0.
        -12    1    1    2    0    0 -0.50578383940E+01 -0.34603879642E+02 -0.20740115117E+02  0.40659102186E+02  0.00000000000E+00 0.  1.
         11    1    3    3    0    0 -0.36495079631E+01  0.51987639060E+01 -0.19477287945E+01  0.66437716879E+01  0.51100000000E-03 0. -1.
        -11    1    3    3    0    0  0.17946896189E+01  0.14242006772E+02  0.23121444763E+02  0.27215011959E+02  0.51100000000E-03 0.  1.
        -12    1    3    3    0    0  0.69126567382E+01  0.15163108965E+02 -0.43360085139E+00  0.16670114167E+02  0.00000000000E+00 0.  1.
</event>
<event>
 7    1  0.4962385E-011  0.5052884E+02  0.7816164E-02  0.1300439E+00
        -11   -1    0    0    0    0  0.00000000000E+00  0.00000000000E+00  0.45593999997E+02  0.45594000000E+02  0.51100000000E-03 0. -1.
         11   -1    0    0    0    0 -0.00000000000E+00 -0.00000000000E+00 -0.45593999997E+02  0.45594000000E+02  0.51100000000E-03 0.  1.
    9900012    2    1    2    0    0 -0.32726979589E+02 -0.57322512533E+01  0.23436147545E+02  0.50528844706E+02  0.29999953969E+02 0.  0.
        -12    1    1    2    0    0  0.32726979589E+02  0.57322512533E+01 -0.23436147545E+02  0.40659155294E+02  0.00000000000E+00 0.  1.
         11    1    3    3    0    0 -0.20045477766E+02  0.31576870066E+01  0.11532995017E+02  0.23340996988E+02  0.51100000000E-03 0. -1.
        -11    1    3    3    0    0  0.48232398886E+01 -0.32181524795E+01  0.12697640194E+01  0.59356928265E+01  0.51100000000E-03 0.  1.
         12    1    3    3    0    0 -0.17504741712E+02 -0.56717857804E+01  0.10633388509E+02  0.21252154891E+02  0.00000000000E+00 0. -1.
</event>
<event>
 7    1  0.4962385E-011  0.5052879E+02  0.7816164E-02  0.1300439E+00
        -11   -1    0    0    0    0  0.00000000000E+00  0.00000000000E+00  0.45593999997E+02  0.45594000000E+02  0.51100000000E-03 0.  1.
         11   -1    0    0    0    0 -0.00000000000E+00 -0.00000000000E+00 -0.45593999997E+02  0.45594000000E+02  0.51100000000E-03 0. -1.
    9900012    2    1    2    0    0  0.31647150365E+02 -0.23810945461E+01 -0.25415728977E+02  0.50528794193E+02  0.29999800427E+02 0.  0.
        -12    1    1    2    0    0 -0.31647150365E+02  0.23810945461E+01  0.25415728977E+02  0.40659205807E+02  0.00000000000E+00 0.  1.
         11    1    3    3    0    0  0.23276092605E+02  0.11472424107E+02 -0.12980952246E+02  0.29015480753E+02  0.51100000000E-03 0. -1.
        -11    1    3    3    0    0 -0.26114900232E+00 -0.46511340446E+01 -0.51483476459E+01  0.69431066856E+01  0.51100000000E-03 0.  1.
         12    1    3    3    0    0  0.86322067624E+01 -0.92023846080E+01 -0.72864290848E+01  0.14570206755E+02  0.00000000000E+00 0. -1.
</event>
<event>
 7    1  0.4962385E-011  0.5052882E+02  0.7816164E-02  0.1300439E+00
        -11   -1    0    0    0    0  0.00000000000E+00  0.00000000000E+00  0.45593999997E+02  0.45594000000E+02  0.51100000000E-03 0. -1.
         11   -1    0    0    0    0 -0.00000000000E+00 -0.00000000000E+00 -0.45593999997E+02  0.45594000000E+02  0.51100000000E-03 0.  1.
    9900012    2    1    2    0    0 -0.32150555452E+02 -0.78262326725E+01  0.23627550860E+02  0.50528815388E+02  0.29999864852E+02 0.  0.
        -12    1    1    2    0    0  0.32150555452E+02  0.78262326725E+01 -0.23627550860E+02  0.40659184612E+02  0.00000000000E+00 0.  1.
         11    1    3    3    0    0 -0.95716125209E+01 -0.78705522125E+01  0.86275956837E+01  0.15099561779E+02  0.51100000000E-03 0. -1.
        -11    1    3    3    0    0 -0.14744899544E+02  0.10648943865E+02  0.12339672596E+02  0.21979071592E+02  0.51100000000E-03 0.  1.
        -12    1    3    3    0    0 -0.78340433869E+01 -0.10604624325E+02  0.26602825802E+01  0.13450182016E+02  0.00000000000E+00 0.  1.
</event>
<event>
 7    1  0.4962385E-011  0.5052886E+02  0.7816164E-02  0.1300439E+00
        -11   -1    0    0    0    0  0.00000000000E+00  0.00000000000E+00  0.45593999997E+02  0.45594000000E+02  0.51100000000E-03 0.  1.
         11   -1    0    0    0    0 -0.00000000000E+00 -0.00000000000E+00 -0.45593999997E+02  0.45594000000E+02  0.51100000000E-03 0. -1.
    9900012    2    1    2    0    0 -0.13886546624E+02  0.21754546366E+02 -0.31417658832E+02  0.50528858946E+02  0.29999997252E+02 0.  0.
        -12    1    1    2    0    0  0.13886546624E+02 -0.21754546366E+02  0.31417658832E+02  0.40659141054E+02  0.00000000000E+00 0.  1.
         11    1    3    3    0    0 -0.83116994077E+01  0.14820654677E+02 -0.71145885256E+01  0.18421550485E+02  0.51100000000E-03 0. -1.
        -11    1    3    3    0    0 -0.44642407927E+01 -0.18689395299E+01 -0.22549576208E+02  0.23063082367E+02  0.51100000000E-03 0.  1.
        -12    1    3    3    0    0 -0.11106064241E+01  0.88028312186E+01 -0.17534940981E+01  0.90442260943E+01  0.00000000000E+00 0.  1.
</event>
<event>
 7    1  0.4962385E-011  0.5052885E+02  0.7816164E-02  0.1300439E+00
        -11   -1    0    0    0    0  0.00000000000E+00  0.00000000000E+00  0.45593999997E+02  0.45594000000E+02  0.51100000000E-03 0.  1.
         11   -1    0    0    0    0 -0.00000000000E+00 -0.00000000000E+00 -0.45593999997E+02  0.45594000000E+02  0.51100000000E-03 0. -1.
    9900012    2    1    2    0    0 -0.39050853982E+02 -0.11247533476E+02  0.13001704204E+01  0.50528847904E+02  0.29999963690E+02 0.  0.
        -12    1    1    2    0    0  0.39050853982E+02  0.11247533476E+02 -0.13001704204E+01  0.40659152096E+02  0.00000000000E+00 0.  1.
         11    1    3    3    0    0 -0.11891076759E+02 -0.37678495363E+01 -0.56079141898E+01  0.13676370076E+02  0.51100000000E-03 0. -1.
        -11    1    3    3    0    0 -0.20983910003E+02  0.52339978390E+01  0.69564119227E+01  0.22718073851E+02  0.51100000000E-03 0.  1.
        -12    1    3    3    0    0 -0.61758672199E+01 -0.12713681778E+02 -0.48327312523E-01  0.14134403978E+02  0.00000000000E+00 0.  1.
</event>
<event>
 7    1  0.4962385E-011  0.5052887E+02  0.7816164E-02  0.1300439E+00
        -11   -1    0    0    0    0  0.00000000000E+00  0.00000000000E+00  0.45593999997E+02  0.45594000000E+02  0.51100000000E-03 0.  1.
         11   -1    0    0    0    0 -0.00000000000E+00 -0.00000000000E+00 -0.45593999997E+02  0.45594000000E+02  0.51100000000E-03 0. -1.
    9900012    2    1    2    0    0 -0.36916789747E+02 -0.11945218681E+02  0.12150202622E+02  0.50528867714E+02  0.30000023902E+02 0.  0.
        -12    1    1    2    0    0  0.36916789747E+02  0.11945218681E+02 -0.12150202622E+02  0.40659132286E+02  0.00000000000E+00 0.  1.
         11    1    3    3    0    0 -0.10923360520E+02 -0.65484539735E+01 -0.45920732184E+01  0.13538433854E+02  0.51100000000E-03 0. -1.
        -11    1    3    3    0    0 -0.28027107344E+02 -0.18994113725E+01  0.17168494037E+02  0.32922388999E+02  0.51100000000E-03 0.  1.
        -12    1    3    3    0    0  0.20336781183E+01 -0.34973533353E+01 -0.42621819656E+00  0.40680448611E+01  0.00000000000E+00 0.  1.
</event>
<event>
 7    1  0.4962385E-011  0.5052887E+02  0.7816164E-02  0.1300439E+00
        -11   -1    0    0    0    0  0.00000000000E+00  0.00000000000E+00  0.45593999997E+02  0.45594000000E+02  0.51100000000E-03 0.  1.
         11   -1    0    0    0    0 -0.00000000000E+00 -0.00000000000E+00 -0.45593999997E+02  0.45594000000E+02  0.51100000000E-03 0. -1.
    9900012    2    1    2    0    0 -0.26782798181E+02  0.30451807176E+02 -0.29213138787E+01  0.50528869249E+02  0.30000028569E+02 0.  0.
        -12    1    1    2    0    0  0.26782798181E+02 -0.30451807176E+02  0.29213138787E+01  0.40659130751E+02  0.00000000000E+00 0.  1.
         11    1    3    3    0    0 -0.34724554099E+01  0.73672691506E+01  0.80955224998E+01  0.11483557207E+02  0.51100000000E-03 0. -1.
        -11    1    3    3    0    0 -0.89332363782E+01  0.10203159480E+02 -0.14024431431E+02  0.19508763487E+02  0.51100000000E-03 0.  1.
         12    1    3    3    0    0 -0.14377106393E+02  0.12881378545E+02  0.30075950526E+01  0.19536548555E+02  0.00000000000E+00 0. -1.
</event>
<event>
 7    1  0.5203319E-011  0.5052887E+02  0.7816164E-02  0.1300439E+00
        -11   -1    0    0    0    0  0.00000000000E+00  0.00000000000E+00  0.45593999997E+02  0.45594000000E+02  0.51100000000E-03 0.  1.
         11   -1    0    0    0    0 -0.00000000000E+00 -0.00000000000E+00 -0.45593999997E+02  0.45594000000E+02  0.51100000000E-03 0. -1.
    9900012    2    1    2    0    0 -0.35677516107E+02  0.12863489429E+02 -0.14656420607E+02  0.50528865960E+02  0.30000018573E+02 0.  0.
        -12    1    1    2    0    0  0.35677516107E+02 -0.12863489429E+02  0.14656420607E+02  0.40659134040E+02  0.00000000000E+00 0.  1.
         11    1    3    3    0    0 -0.74300128578E+01  0.29062887956E+01 -0.13111262403E+02  0.15347860036E+02  0.51100000000E-03 0. -1.
        -11    1    3    3    0    0 -0.12257171040E+02 -0.27736687417E+01  0.52814883825E+01  0.13631786383E+02  0.51100000000E-03 0.  1.
        -12    1    3    3    0    0 -0.15990332209E+02  0.12730869375E+02 -0.68266465863E+01  0.21549219541E+02  0.00000000000E+00 0.  1.
</event>
<event>
 7    1  0.4962385E-011  0.5052884E+02  0.7816164E-02  0.1300439E+00
        -11   -1    0    0    0    0  0.00000000000E+00  0.00000000000E+00  0.45593999997E+02  0.45594000000E+02  0.51100000000E-03 0. -1.
         11   -1    0    0    0    0 -0.00000000000E+00 -0.00000000000E+00 -0.45593999997E+02  0.45594000000E+02  0.51100000000E-03 0.  1.
    9900012    2    1    2    0    0  0.34396115365E+02  0.89749083039E+01  0.19736398977E+02  0.50528841427E+02  0.29999944002E+02 0.  0.
        -12    1    1    2    0    0 -0.34396115365E+02 -0.89749083039E+01 -0.19736398977E+02  0.40659158573E+02  0.00000000000E+00 0.  1.
         11    1    3    3    0    0  0.11641869336E+02  0.13124460661E+02  0.20167872851E+02  0.26730650663E+02  0.51100000000E-03 0. -1.
        -11    1    3    3    0    0  0.20865416502E+02 -0.20456038879E+01 -0.46413333284E+00  0.20970587046E+02  0.51100000000E-03 0.  1.
         12    1    3    3    0    0  0.18888295270E+01 -0.21039484690E+01  0.32659459001E-01  0.28276037174E+01  0.00000000000E+00 0. -1.
</event>
<event>
 7    1  0.4962385E-011  0.5052884E+02  0.7816164E-02  0.1300439E+00
        -11   -1    0    0    0    0  0.00000000000E+00  0.00000000000E+00  0.45593999997E+02  0.45594000000E+02  0.51100000000E-03 0.  1.
         11   -1    0    0    0    0 -0.00000000000E+00 -0.00000000000E+00 -0.45593999997E+02  0.45594000000E+02  0.51100000000E-03 0. -1.
    9900012    2    1    2    0    0 -0.26596484594E+02 -0.18423413094E+02 -0.24624623384E+02  0.50528840889E+02  0.29999942367E+02 0.  0.
        -12    1    1    2    0    0  0.26596484594E+02  0.18423413094E+02  0.24624623384E+02  0.40659159111E+02  0.00000000000E+00 0.  1.
         11    1    3    3    0    0 -0.93061387644E+01 -0.16064751171E+02 -0.70174269727E+01  0.19847537139E+02  0.51100000000E-03 0. -1.
        -11    1    3    3    0    0 -0.92404081006E+01 -0.25783868778E+01 -0.20082741497E+02  0.22256453605E+02  0.51100000000E-03 0.  1.
        -12    1    3    3    0    0 -0.80499377292E+01  0.21972495549E+00  0.24755450864E+01  0.84248501456E+01  0.00000000000E+00 0.  1.
</event>
<event>
 7    1  0.4962385E-011  0.5052886E+02  0.7816164E-02  0.1300439E+00
        -11   -1    0    0    0    0  0.00000000000E+00  0.00000000000E+00  0.45593999997E+02  0.45594000000E+02  0.51100000000E-03 0. -1.
         11   -1    0    0    0    0 -0.00000000000E+00 -0.00000000000E+00 -0.45593999997E+02  0.45594000000E+02  0.51100000000E-03 0.  1.
    9900012    2    1    2    0    0 -0.70034312506E+01 -0.33700047378E+02  0.21643122979E+02  0.50528855704E+02  0.29999987399E+02 0.  0.
        -12    1    1    2    0    0  0.70034312506E+01  0.33700047378E+02 -0.21643122979E+02  0.40659144296E+02  0.00000000000E+00 0.  1.
         11    1    3    3    0    0 -0.61260588040E+01 -0.52414074503E+01 -0.49164835160E+01  0.94431328994E+01  0.51100000000E-03 0.  1.
        -11    1    3    3    0    0 -0.69055128412E-01 -0.63713594547E+01  0.14657894126E+02  0.15982892428E+02  0.51100000000E-03 0. -1.
         12    1    3    3    0    0 -0.80831731820E+00 -0.22087280473E+02  0.11901712369E+02  0.25102830376E+02  0.00000000000E+00 0. -1.
</event>
<event>
 7    1  0.4962385E-011  0.5052887E+02  0.7816164E-02  0.1300439E+00
        -11   -1    0    0    0    0  0.00000000000E+00  0.00000000000E+00  0.45593999997E+02  0.45594000000E+02  0.51100000000E-03 0.  1.
         11   -1    0    0    0    0 -0.00000000000E+00 -0.00000000000E+00 -0.45593999997E+02  0.45594000000E+02  0.51100000000E-03 0. -1.
    9900012    2    1    2    0    0  0.21429702988E+02 -0.61753792779E+00 -0.34547815480E+02  0.50528867229E+02  0.30000022430E+02 0.  0.
        -12    1    1    2    0    0 -0.21429702988E+02  0.61753792779E+00  0.34547815480E+02  0.40659132771E+02  0.00000000000E+00 0.  1.
         11    1    3    3    0    0  0.19844237125E+02 -0.96244787819E+01 -0.32764156950E+02  0.39495750655E+02  0.51100000000E-03 0. -1.
        -11    1    3    3    0    0 -0.34106221800E+00  0.75560945708E+01 -0.32259725432E+01  0.82230035698E+01  0.51100000000E-03 0.  1.
         12    1    3    3    0    0  0.19265280814E+01  0.14508462833E+01  0.14423140134E+01  0.28101130047E+01  0.00000000000E+00 0. -1.
</event>
<event>
 7    1  0.4962385E-011  0.5052887E+02  0.7816164E-02  0.1300439E+00
        -11   -1    0    0    0    0  0.00000000000E+00  0.00000000000E+00  0.45593999997E+02  0.45594000000E+02  0.51100000000E-03 0. -1.
         11   -1    0    0    0    0 -0.00000000000E+00 -0.00000000000E+00 -0.45593999997E+02  0.45594000000E+02  0.51100000000E-03 0.  1.
    9900012    2    1    2    0    0  0.17510865989E+02  0.47949074516E+01  0.36380533611E+02  0.50528870755E+02  0.30000033146E+02 0.  0.
        -12    1    1    2    0    0 -0.17510865989E+02 -0.47949074516E+01 -0.36380533611E+02  0.40659129245E+02  0.00000000000E+00 0.  1.
         11    1    3    3    0    0  0.19716522163E+02 -0.21933243159E+01  0.23853504838E+02  0.31024854731E+02  0.51100000000E-03 0. -1.
        -11    1    3    3    0    0 -0.55903143168E+01  0.41406866958E+01  0.13304018433E+02  0.15013121168E+02  0.51100000000E-03 0.  1.
        -12    1    3    3    0    0  0.33846581428E+01  0.28475450717E+01 -0.77698965956E+00  0.44908948562E+01  0.00000000000E+00 0.  1.
</event>
<event>
 7    1  0.4962385E-011  0.5052900E+02  0.7816164E-02  0.1300438E+00
        -11   -1    0    0    0    0  0.00000000000E+00  0.00000000000E+00  0.45593999997E+02  0.45594000000E+02  0.51100000000E-03 0. -1.
         11   -1    0    0    0    0 -0.00000000000E+00 -0.00000000000E+00 -0.45593999997E+02  0.45594000000E+02  0.51100000000E-03 0.  1.
    9900012    2    1    2    0    0 -0.28253664075E+02  0.29237431114E+02 -0.23935305835E+00  0.50529000975E+02  0.30000428962E+02 0.  0.
        -12    1    1    2    0    0  0.28253664075E+02 -0.29237431114E+02  0.23935305835E+00  0.40658999025E+02  0.00000000000E+00 0.  1.
         11    1    3    3    0    0 -0.62060902676E+00  0.91488655410E+01 -0.10721193837E+02  0.14107830939E+02  0.51100000000E-03 0. -1.
        -11    1    3    3    0    0 -0.26183462798E+01  0.11000170115E+01  0.30116220982E+01  0.41395220243E+01  0.51100000000E-03 0.  1.
         12    1    3    3    0    0 -0.25014708769E+02  0.18988548561E+02  0.74702186805E+01  0.32281648012E+02  0.00000000000E+00 0. -1.
</event>
<event>
 7    1  0.4962385E-011  0.5052874E+02  0.7816164E-02  0.1300439E+00
        -11   -1    0    0    0    0  0.00000000000E+00  0.00000000000E+00  0.45593999997E+02  0.45594000000E+02  0.51100000000E-03 0. -1.
         11   -1    0    0    0    0 -0.00000000000E+00 -0.00000000000E+00 -0.45593999997E+02  0.45594000000E+02  0.51100000000E-03 0.  1.
    9900012    2    1    2    0    0  0.38695636493E+02  0.46127322141E+01  0.11599401362E+02  0.50528736676E+02  0.29999625598E+02 0.  0.
        -12    1    1    2    0    0 -0.38695636493E+02 -0.46127322141E+01 -0.11599401362E+02  0.40659263324E+02  0.00000000000E+00 0.  1.
         11    1    3    3    0    0  0.27142536302E+02  0.26333681003E+00  0.63749972706E+01  0.27882381778E+02  0.51100000000E-03 0. -1.
        -11    1    3    3    0    0  0.94388662438E+00  0.74356272575E+01  0.82939008063E+01  0.11178920588E+02  0.51100000000E-03 0.  1.
        -12    1    3    3    0    0  0.10609213567E+02 -0.30862318534E+01 -0.30694967147E+01  0.11467434310E+02  0.00000000000E+00 0.  1.
</event>
<event>
 7    1  0.4962385E-011  0.5052886E+02  0.7816164E-02  0.1300439E+00
        -11   -1    0    0    0    0  0.00000000000E+00  0.00000000000E+00  0.45593999997E+02  0.45594000000E+02  0.51100000000E-03 0. -1.
         11   -1    0    0    0    0 -0.00000000000E+00 -0.00000000000E+00 -0.45593999997E+02  0.45594000000E+02  0.51100000000E-03 0.  1.
    9900012    2    1    2    0    0  0.39611827828E+02  0.86789604920E+01  0.29571176654E+01  0.50528858298E+02  0.29999995282E+02 0.  0.
        -12    1    1    2    0    0 -0.39611827828E+02 -0.86789604920E+01 -0.29571176654E+01  0.40659141702E+02  0.00000000000E+00 0.  1.
         11    1    3    3    0    0  0.25535059411E+02  0.12158457724E+02 -0.69878016453E+01  0.29132399926E+02  0.51100000000E-03 0. -1.
        -11    1    3    3    0    0 -0.17456228276E+01 -0.25404458381E+01  0.13395064338E+01  0.33608543348E+01  0.51100000000E-03 0.  1.
         12    1    3    3    0    0  0.15822391244E+02 -0.93905139399E+00  0.86054128769E+01  0.18035604037E+02  0.00000000000E+00 0. -1.
</event>
<event>
 7    1  0.4962385E-011  0.5052887E+02  0.7816164E-02  0.1300439E+00
        -11   -1    0    0    0    0  0.00000000000E+00  0.00000000000E+00  0.45593999997E+02  0.45594000000E+02  0.51100000000E-03 0. -1.
         11   -1    0    0    0    0 -0.00000000000E+00 -0.00000000000E+00 -0.45593999997E+02  0.45594000000E+02  0.51100000000E-03 0.  1.
    9900012    2    1    2    0    0  0.24958081979E+02 -0.30118314068E+02  0.11097133428E+02  0.50528867340E+02  0.30000022766E+02 0.  0.
        -12    1    1    2    0    0 -0.24958081979E+02  0.30118314068E+02 -0.11097133428E+02  0.40659132660E+02  0.00000000000E+00 0.  1.
         11    1    3    3    0    0  0.24439224723E+02 -0.13608040219E+02  0.11802889090E+02  0.30360544376E+02  0.51100000000E-03 0. -1.
        -11    1    3    3    0    0 -0.54937216779E+01 -0.71926237823E+01 -0.71837270663E+00  0.90791450233E+01  0.51100000000E-03 0.  1.
        -12    1    3    3    0    0  0.60125789335E+01 -0.93176500669E+01  0.12617044149E-01  0.11089177940E+02  0.00000000000E+00 0.  1.
</event>
<event>
 7    1  0.4962385E-011  0.5052887E+02  0.7816164E-02  0.1300439E+00
        -11   -1    0    0    0    0  0.00000000000E+00  0.00000000000E+00  0.45593999997E+02  0.45594000000E+02  0.51100000000E-03 0. -1.
         11   -1    0    0    0    0 -0.00000000000E+00 -0.00000000000E+00 -0.45593999997E+02  0.45594000000E+02  0.51100000000E-03 0.  1.
    9900012    2    1    2    0    0  0.15928613146E+02 -0.36802118441E+02  0.67118106060E+01  0.50528867691E+02  0.30000023834E+02 0.  0.
        -12    1    1    2    0    0 -0.15928613146E+02  0.36802118441E+02 -0.67118106060E+01  0.40659132309E+02  0.00000000000E+00 0.  1.
         11    1    3    3    0    0  0.30585707950E+01 -0.68545888816E+01  0.14615343285E+02  0.16430109667E+02  0.51100000000E-03 0. -1.
        -11    1    3    3    0    0  0.54841108079E+01 -0.19162594560E+02 -0.30949331993E+01  0.20170748954E+02  0.51100000000E-03 0.  1.
         12    1    3    3    0    0  0.73859315427E+01 -0.10784935000E+02 -0.48085994801E+01  0.13928009070E+02  0.00000000000E+00 0. -1.
</event>
<event>
 7    1  0.4962385E-011  0.5052886E+02  0.7816164E-02  0.1300439E+00
        -11   -1    0    0    0    0  0.00000000000E+00  0.00000000000E+00  0.45593999997E+02  0.45594000000E+02  0.51100000000E-03 0.  1.
         11   -1    0    0    0    0 -0.00000000000E+00 -0.00000000000E+00 -0.45593999997E+02  0.45594000000E+02  0.51100000000E-03 0. -1.
    9900012    2    1    2    0    0  0.24185203113E+02  0.15812451307E+02 -0.28604336822E+02  0.50528858949E+02  0.29999997263E+02 0.  0.
        -12    1    1    2    0    0 -0.24185203113E+02 -0.15812451307E+02  0.28604336822E+02  0.40659141051E+02  0.00000000000E+00 0.  1.
         11    1    3    3    0    0  0.77662429507E+01  0.13831956148E+02 -0.28617725882E+02  0.32720204391E+02  0.51100000000E-03 0. -1.
        -11    1    3    3    0    0 -0.48434632499E+00 -0.50877045672E+00 -0.16723807734E+00  0.72208557374E+00  0.51100000000E-03 0.  1.
         12    1    3    3    0    0  0.16903306488E+02  0.24892656154E+01  0.18062713762E+00  0.17086568985E+02  0.00000000000E+00 0. -1.
</event>
<event>
 7    1  0.4962385E-011  0.5052886E+02  0.7816164E-02  0.1300439E+00
        -11   -1    0    0    0    0  0.00000000000E+00  0.00000000000E+00  0.45593999997E+02  0.45594000000E+02  0.51100000000E-03 0. -1.
         11   -1    0    0    0    0 -0.00000000000E+00 -0.00000000000E+00 -0.45593999997E+02  0.45594000000E+02  0.51100000000E-03 0.  1.
    9900012    2    1    2    0    0 -0.14391693538E+02 -0.18166721125E+02  0.33406812233E+02  0.50528859541E+02  0.29999999060E+02 0.  0.
        -12    1    1    2    0    0  0.14391693538E+02  0.18166721125E+02 -0.33406812233E+02  0.40659140459E+02  0.00000000000E+00 0.  1.
         11    1    3    3    0    0  0.78373755350E+00 -0.89595454532E+01  0.45284287232E+01  0.10069476960E+02  0.51100000000E-03 0. -1.
        -11    1    3    3    0    0 -0.94711735313E+01  0.15438500073E+01  0.53223302065E+00  0.96109246774E+01  0.51100000000E-03 0.  1.
        -12    1    3    3    0    0 -0.57042575600E+01 -0.10751025679E+02  0.28346150489E+02  0.30848457903E+02  0.00000000000E+00 0.  1.
</event>
<event>
 7    1  0.4962385E-011  0.5052886E+02  0.7816164E-02  0.1300439E+00
        -11   -1    0    0    0    0  0.00000000000E+00  0.00000000000E+00  0.45593999997E+02  0.45594000000E+02  0.51100000000E-03 0. -1.
         11   -1    0    0    0    0 -0.00000000000E+00 -0.00000000000E+00 -0.45593999997E+02  0.45594000000E+02  0.51100000000E-03 0.  1.
    9900012    2    1    2    0    0  0.18519085491E+02 -0.24057977817E+02  0.27044823462E+02  0.50528864493E+02  0.30000014114E+02 0.  0.
        -12    1    1    2    0    0 -0.18519085491E+02  0.24057977817E+02 -0.27044823462E+02  0.40659135507E+02  0.00000000000E+00 0.  1.
         11    1    3    3    0    0  0.19167873408E+02 -0.38842129771E+01  0.14035365049E+02  0.24072514488E+02  0.51100000000E-03 0. -1.
        -11    1    3    3    0    0 -0.52951911194E+01 -0.54566112210E+01  0.43151273336E+01  0.87426528683E+01  0.51100000000E-03 0.  1.
         12    1    3    3    0    0  0.46464032029E+01 -0.14717153619E+02  0.86943310792E+01  0.17713697137E+02  0.00000000000E+00 0. -1.
</event>
<event>
 7    1  0.4962385E-011  0.5052886E+02  0.7816164E-02  0.1300439E+00
        -11   -1    0    0    0    0  0.00000000000E+00  0.00000000000E+00  0.45593999997E+02  0.45594000000E+02  0.51100000000E-03 0.  1.
         11   -1    0    0    0    0 -0.00000000000E+00 -0.00000000000E+00 -0.45593999997E+02  0.45594000000E+02  0.51100000000E-03 0. -1.
    9900012    2    1    2    0    0  0.13291539881E+02  0.32079477880E+01 -0.38291114487E+02  0.50528863142E+02  0.30000010007E+02 0.  0.
        -12    1    1    2    0    0 -0.13291539881E+02 -0.32079477880E+01  0.38291114487E+02  0.40659136858E+02  0.00000000000E+00 0.  1.
         11    1    3    3    0    0  0.15416367202E+02 -0.95418577635E+01 -0.24026099560E+02  0.30099250616E+02  0.51100000000E-03 0. -1.
        -11    1    3    3    0    0 -0.18178532481E+01  0.11467601409E+02 -0.81787915984E+01  0.14202221826E+02  0.51100000000E-03 0.  1.
         12    1    3    3    0    0 -0.30697407300E+00  0.12822041420E+01 -0.60862233278E+01  0.62273907007E+01  0.00000000000E+00 0. -1.
</event>
<event>
 7    1  0.6998070E-011  0.5052886E+02  0.7816164E-02  0.1300439E+00
        -11   -1    0    0    0    0  0.00000000000E+00  0.00000000000E+00  0.45593999997E+02  0.45594000000E+02  0.51100000000E-03 0.  1.
         11   -1    0    0    0    0 -0.00000000000E+00 -0.00000000000E+00 -0.45593999997E+02  0.45594000000E+02  0.51100000000E-03 0. -1.
    9900012    2    1    2    0    0  0.39258660528E+02 -0.10512136089E+02  0.11908235493E+01  0.50528862130E+02  0.30000006931E+02 0.  0.
        -12    1    1    2    0    0 -0.39258660528E+02  0.10512136089E+02 -0.11908235493E+01  0.40659137870E+02  0.00000000000E+00 0.  1.
         11    1    3    3    0    0  0.33114192691E+02 -0.13916216166E+02 -0.64246676951E+00  0.35925250086E+02  0.51100000000E-03 0. -1.
        -11    1    3    3    0    0  0.26003935025E+01  0.23679615623E+01  0.72442478186E+01  0.80528513613E+01  0.51100000000E-03 0.  1.
        -12    1    3    3    0    0  0.35440743344E+01  0.10361185140E+01 -0.54109574998E+01  0.65507606831E+01  0.00000000000E+00 0.  1.
</event>
<event>
 7    1  0.4962385E-011  0.5052886E+02  0.7816164E-02  0.1300439E+00
        -11   -1    0    0    0    0  0.00000000000E+00  0.00000000000E+00  0.45593999997E+02  0.45594000000E+02  0.51100000000E-03 0.  1.
         11   -1    0    0    0    0 -0.00000000000E+00 -0.00000000000E+00 -0.45593999997E+02  0.45594000000E+02  0.51100000000E-03 0. -1.
    9900012    2    1    2    0    0 -0.22379029080E+02  0.32310600721E+02  0.10410073730E+02  0.50528862078E+02  0.30000006771E+02 0.  0.
        -12    1    1    2    0    0  0.22379029080E+02 -0.32310600721E+02 -0.10410073730E+02  0.40659137922E+02  0.00000000000E+00 0.  1.
         11    1    3    3    0    0 -0.15762595528E+02  0.11403083942E+02 -0.41432590030E+01  0.19891112000E+02  0.51100000000E-03 0. -1.
        -11    1    3    3    0    0  0.41801863984E+01  0.11694239117E+02  0.92530248789E+01  0.15487015739E+02  0.51100000000E-03 0.  1.
        -12    1    3    3    0    0 -0.10796619950E+02  0.92132776627E+01  0.53003078540E+01  0.15150734338E+02  0.00000000000E+00 0.  1.
</event>
<event>
 7    1  0.4962385E-011  0.5052886E+02  0.7816164E-02  0.1300439E+00
        -11   -1    0    0    0    0  0.00000000000E+00  0.00000000000E+00  0.45593999997E+02  0.45594000000E+02  0.51100000000E-03 0. -1.
         11   -1    0    0    0    0 -0.00000000000E+00 -0.00000000000E+00 -0.45593999997E+02  0.45594000000E+02  0.51100000000E-03 0.  1.
    9900012    2    1    2    0    0  0.94565155834E+01  0.14649906670E+02  0.36730371773E+02  0.50528860031E+02  0.30000000551E+02 0.  0.
        -12    1    1    2    0    0 -0.94565155834E+01 -0.14649906670E+02 -0.36730371773E+02  0.40659139969E+02  0.00000000000E+00 0.  1.
         11    1    3    3    0    0  0.10300558762E+02  0.10649190324E+02  0.39969290534E+02  0.42626880620E+02  0.51100000000E-03 0. -1.
        -11    1    3    3    0    0 -0.32201403625E+01  0.35239787030E+01 -0.19444253863E+01  0.51544660439E+01  0.51100000000E-03 0.  1.
         12    1    3    3    0    0  0.23760971837E+01  0.47673764336E+00 -0.12944933747E+01  0.27475133674E+01  0.00000000000E+00 0. -1.
</event>
<event>
 7    1  0.4962385E-011  0.5052885E+02  0.7816164E-02  0.1300439E+00
        -11   -1    0    0    0    0  0.00000000000E+00  0.00000000000E+00  0.45593999997E+02  0.45594000000E+02  0.51100000000E-03 0.  1.
         11   -1    0    0    0    0 -0.00000000000E+00 -0.00000000000E+00 -0.45593999997E+02  0.45594000000E+02  0.51100000000E-03 0. -1.
    9900012    2    1    2    0    0  0.22811052193E+02  0.19188663112E+02 -0.27651716533E+02  0.50528851935E+02  0.29999975942E+02 0.  0.
        -12    1    1    2    0    0 -0.22811052193E+02 -0.19188663112E+02  0.27651716533E+02  0.40659148065E+02  0.00000000000E+00 0.  1.
         11    1    3    3    0    0  0.24146134537E+02  0.14000407429E+02 -0.15591105349E+02  0.31970764575E+02  0.51100000000E-03 0. -1.
        -11    1    3    3    0    0 -0.35696876103E+00  0.50891954784E+01  0.12164156864E+01  0.52447120699E+01  0.51100000000E-03 0.  1.
         12    1    3    3    0    0 -0.97811358274E+00  0.99060204535E-01 -0.13277026870E+02  0.13313375290E+02  0.00000000000E+00 0. -1.
</event>
<event>
 7    1  0.4962385E-011  0.5052885E+02  0.7816164E-02  0.1300439E+00
        -11   -1    0    0    0    0  0.00000000000E+00  0.00000000000E+00  0.45593999997E+02  0.45594000000E+02  0.51100000000E-03 0.  1.
         11   -1    0    0    0    0 -0.00000000000E+00 -0.00000000000E+00 -0.45593999997E+02  0.45594000000E+02  0.51100000000E-03 0. -1.
    9900012    2    1    2    0    0 -0.69675918933E+01 -0.19570399886E+02 -0.34951663431E+02  0.50528847709E+02  0.29999963095E+02 0.  0.
        -12    1    1    2    0    0  0.69675918933E+01  0.19570399886E+02  0.34951663431E+02  0.40659152291E+02  0.00000000000E+00 0.  1.
         11    1    3    3    0    0 -0.94175476323E+01 -0.20544238355E+02 -0.27621790174E+02  0.35689203208E+02  0.51100000000E-03 0. -1.
        -11    1    3    3    0    0 -0.14007764473E+01  0.61636060890E+01 -0.26159675059E+01  0.68407237138E+01  0.51100000000E-03 0.  1.
         12    1    3    3    0    0  0.38507321863E+01 -0.51897676203E+01 -0.47139057506E+01  0.79989207865E+01  0.00000000000E+00 0. -1.
</event>
<event>
 7    1  0.4962385E-011  0.5052886E+02  0.7816164E-02  0.1300439E+00
        -11   -1    0    0    0    0  0.00000000000E+00  0.00000000000E+00  0.45593999997E+02  0.45594000000E+02  0.51100000000E-03 0.  1.
         11   -1    0    0    0    0 -0.00000000000E+00 -0.00000000000E+00 -0.45593999997E+02  0.45594000000E+02  0.51100000000E-03 0. -1.
    9900012    2    1    2    0    0 -0.12903500150E+01 -0.39499151808E+02 -0.95560479686E+01  0.50528855278E+02  0.29999986103E+02 0.  0.
        -12    1    1    2    0    0  0.12903500150E+01  0.39499151808E+02  0.95560479686E+01  0.40659144722E+02  0.00000000000E+00 0.  1.
         11    1    3    3    0    0 -0.43650513372E+01  0.30344552553E+01 -0.62007754411E+00  0.53522040595E+01  0.51100000000E-03 0. -1.
        -11    1    3    3    0    0 -0.14654483116E+01 -0.10241865647E+02  0.24578040945E+01  0.10634103249E+02  0.51100000000E-03 0.  1.
         12    1    3    3    0    0  0.45401496338E+01 -0.32291741417E+02 -0.11393774519E+02  0.34542547970E+02  0.00000000000E+00 0. -1.
</event>
<event>
 7    1  0.4962385E-011  0.5052883E+02  0.7816164E-02  0.1300439E+00
        -11   -1    0    0    0    0  0.00000000000E+00  0.00000000000E+00  0.45593999997E+02  0.45594000000E+02  0.51100000000E-03 0.  1.
         11   -1    0    0    0    0 -0.00000000000E+00 -0.00000000000E+00 -0.45593999997E+02  0.45594000000E+02  0.51100000000E-03 0. -1.
    9900012    2    1    2    0    0  0.34809872841E+02  0.11969890670E+02 -0.17267384611E+02  0.50528830049E+02  0.29999909415E+02 0.  0.
        -12    1    1    2    0    0 -0.34809872841E+02 -0.11969890670E+02  0.17267384611E+02  0.40659169951E+02  0.00000000000E+00 0.  1.
         11    1    3    3    0    0  0.34797783895E+02  0.14850868843E+02 -0.12892097056E+02  0.39970492067E+02  0.51100000000E-03 0. -1.
        -11    1    3    3    0    0 -0.26710258271E+00  0.15173839172E+01 -0.57411764342E+01  0.59443170215E+01  0.51100000000E-03 0.  1.
         12    1    3    3    0    0  0.27919152887E+00 -0.43983620902E+01  0.13658888788E+01  0.46140209596E+01  0.00000000000E+00 0. -1.
</event>
<event>
 7    1  0.4962385E-011  0.5052886E+02  0.7816164E-02  0.1300439E+00
        -11   -1    0    0    0    0  0.00000000000E+00  0.00000000000E+00  0.45593999997E+02  0.45594000000E+02  0.51100000000E-03 0. -1.
         11   -1    0    0    0    0 -0.00000000000E+00 -0.00000000000E+00 -0.45593999997E+02  0.45594000000E+02  0.51100000000E-03 0.  1.
    9900012    2    1    2    0    0 -0.62223552092E+00  0.17455066964E+02  0.36716469798E+02  0.50528859648E+02  0.29999999385E+02 0.  0.
        -12    1    1    2    0    0  0.62223552092E+00 -0.17455066964E+02 -0.36716469798E+02  0.40659140352E+02  0.00000000000E+00 0.  1.
         11    1    3    3    0    0 -0.12350770899E+01 -0.13533714418E+00  0.29661878249E+02  0.29687888997E+02  0.51100000000E-03 0. -1.
        -11    1    3    3    0    0  0.39526763712E+00  0.38834165157E+00 -0.15208704192E+01  0.16186700827E+01  0.51100000000E-03 0.  1.
         12    1    3    3    0    0  0.21757393184E+00  0.17202062456E+02  0.85754619681E+01  0.19222300568E+02  0.00000000000E+00 0. -1.
</event>
<event>
 7    1  0.4962385E-011  0.5052887E+02  0.7816164E-02  0.1300439E+00
        -11   -1    0    0    0    0  0.00000000000E+00  0.00000000000E+00  0.45593999997E+02  0.45594000000E+02  0.51100000000E-03 0.  1.
         11   -1    0    0    0    0 -0.00000000000E+00 -0.00000000000E+00 -0.45593999997E+02  0.45594000000E+02  0.51100000000E-03 0. -1.
    9900012    2    1    2    0    0 -0.16852078981E+02 -0.35708396823E+01 -0.36829623298E+02  0.50528872928E+02  0.30000039752E+02 0.  0.
        -12    1    1    2    0    0  0.16852078981E+02  0.35708396823E+01  0.36829623298E+02  0.40659127072E+02  0.00000000000E+00 0.  1.
         11    1    3    3    0    0 -0.17120490835E+01  0.56819825156E+01 -0.24387283572E+02  0.25098917061E+02  0.51100000000E-03 0. -1.
        -11    1    3    3    0    0 -0.35070919533E+01 -0.47924810141E+01  0.20830882851E+01  0.62933953717E+01  0.51100000000E-03 0.  1.
         12    1    3    3    0    0 -0.11632937944E+02 -0.44603411837E+01 -0.14525428011E+02  0.19136560495E+02  0.00000000000E+00 0. -1.
</event>
<event>
 7    1  0.4962385E-011  0.5052886E+02  0.7816164E-02  0.1300439E+00
        -11   -1    0    0    0    0  0.00000000000E+00  0.00000000000E+00  0.45593999997E+02  0.45594000000E+02  0.51100000000E-03 0. -1.
         11   -1    0    0    0    0 -0.00000000000E+00 -0.00000000000E+00 -0.45593999997E+02  0.45594000000E+02  0.51100000000E-03 0.  1.
    9900012    2    1    2    0    0  0.31180303478E+02 -0.18770408073E+02  0.18128049246E+02  0.50528859408E+02  0.29999998656E+02 0.  0.
        -12    1    1    2    0    0 -0.31180303478E+02  0.18770408073E+02 -0.18128049246E+02  0.40659140592E+02  0.00000000000E+00 0.  1.
         11    1    3    3    0    0  0.16260742153E+02 -0.98313793729E+01  0.19646700327E+02  0.27332409146E+02  0.51100000000E-03 0. -1.
        -11    1    3    3    0    0 -0.22582745789E+01 -0.18601060332E+01 -0.34425378735E+01  0.45178386204E+01  0.51100000000E-03 0.  1.
        -12    1    3    3    0    0  0.17177835904E+02 -0.70789226674E+01  0.19238867933E+01  0.18678611642E+02  0.00000000000E+00 0.  1.
</event>
<event>
 7    1  0.4962385E-011  0.5052887E+02  0.7816164E-02  0.1300439E+00
        -11   -1    0    0    0    0  0.00000000000E+00  0.00000000000E+00  0.45593999997E+02  0.45594000000E+02  0.51100000000E-03 0.  1.
         11   -1    0    0    0    0 -0.00000000000E+00 -0.00000000000E+00 -0.45593999997E+02  0.45594000000E+02  0.51100000000E-03 0. -1.
    9900012    2    1    2    0    0  0.20638065052E+02 -0.11143677243E+02 -0.33212249658E+02  0.50528870657E+02  0.30000032849E+02 0.  0.
        -12    1    1    2    0    0 -0.20638065052E+02  0.11143677243E+02  0.33212249658E+02  0.40659129343E+02  0.00000000000E+00 0.  1.
         11    1    3    3    0    0  0.15302386670E+02 -0.81137522987E+01 -0.25829528412E+02  0.31099205013E+02  0.51100000000E-03 0. -1.
        -11    1    3    3    0    0  0.38003559633E+00  0.32195062794E+01  0.42376349074E+01  0.53354660159E+01  0.51100000000E-03 0.  1.
        -12    1    3    3    0    0  0.49556427859E+01 -0.62494312232E+01 -0.11620356153E+02  0.14094199628E+02  0.00000000000E+00 0.  1.
</event>
<event>
 7    1  0.4962385E-011  0.5052885E+02  0.7816164E-02  0.1300439E+00
        -11   -1    0    0    0    0  0.00000000000E+00  0.00000000000E+00  0.45593999997E+02  0.45594000000E+02  0.51100000000E-03 0.  1.
         11   -1    0    0    0    0 -0.00000000000E+00 -0.00000000000E+00 -0.45593999997E+02  0.45594000000E+02  0.51100000000E-03 0. -1.
    9900012    2    1    2    0    0  0.25583190177E+02 -0.17371713211E+02 -0.26398680251E+02  0.50528851478E+02  0.29999974554E+02 0.  0.
        -12    1    1    2    0    0 -0.25583190177E+02  0.17371713211E+02  0.26398680251E+02  0.40659148522E+02  0.00000000000E+00 0.  1.
         11    1    3    3    0    0  0.79202695140E+01  0.66560900569E+00 -0.18487385806E+02  0.20123546873E+02  0.51100000000E-03 0. -1.
        -11    1    3    3    0    0  0.19204001606E+02 -0.12339072493E+02 -0.36301125259E+01  0.23113288491E+02  0.51100000000E-03 0.  1.
        -12    1    3    3    0    0 -0.15410809432E+01 -0.56982497245E+01 -0.42811819184E+01  0.72920161145E+01  0.00000000000E+00 0.  1.
</event>
<event>
 7    1  0.4962385E-011  0.5052885E+02  0.7816164E-02  0.1300439E+00
        -11   -1    0    0    0    0  0.00000000000E+00  0.00000000000E+00  0.45593999997E+02  0.45594000000E+02  0.51100000000E-03 0.  1.
         11   -1    0    0    0    0 -0.00000000000E+00 -0.00000000000E+00 -0.45593999997E+02  0.45594000000E+02  0.51100000000E-03 0. -1.
    9900012    2    1    2    0    0  0.76034293546E+01 -0.18538356463E+02 -0.35379137632E+02  0.50528853699E+02  0.29999981304E+02 0.  0.
        -12    1    1    2    0    0 -0.76034293546E+01  0.18538356463E+02  0.35379137632E+02  0.40659146301E+02  0.00000000000E+00 0.  1.
         11    1    3    3    0    0  0.27916995611E+01  0.85180899470E+00  0.66990049300E-01  0.29195295735E+01  0.51100000000E-03 0. -1.
        -11    1    3    3    0    0  0.42273823500E+01 -0.17151307724E+02 -0.39315106630E+02  0.43101226523E+02  0.51100000000E-03 0.  1.
        -12    1    3    3    0    0  0.58434744359E+00 -0.22388577343E+01  0.38689789487E+01  0.45080976026E+01  0.00000000000E+00 0.  1.
</event>
<event>
 7    1  0.4962385E-011  0.5052886E+02  0.7816164E-02  0.1300439E+00
        -11   -1    0    0    0    0  0.00000000000E+00  0.00000000000E+00  0.45593999997E+02  0.45594000000E+02  0.51100000000E-03 0. -1.
         11   -1    0    0    0    0 -0.00000000000E+00 -0.00000000000E+00 -0.45593999997E+02  0.45594000000E+02  0.51100000000E-03 0.  1.
    9900012    2    1    2    0    0 -0.13693511892E+01  0.39619401414E+02  0.90329169158E+01  0.50528859834E+02  0.29999999950E+02 0.  0.
        -12    1    1    2    0    0  0.13693511892E+01 -0.39619401414E+02 -0.90329169158E+01  0.40659140166E+02  0.00000000000E+00 0.  1.
         11    1    3    3    0    0 -0.11554438519E+02  0.24983969394E+02  0.11837177785E+02  0.29963687262E+02  0.51100000000E-03 0. -1.
        -11    1    3    3    0    0  0.24372124856E+01  0.11912658513E+02 -0.15601826066E+01  0.12259103050E+02  0.51100000000E-03 0.  1.
         12    1    3    3    0    0  0.77478748446E+01  0.27227735061E+01 -0.12440782624E+01  0.83060695215E+01  0.00000000000E+00 0. -1.
</event>
<event>
 7    1  0.4962385E-011  0.5052885E+02  0.7816164E-02  0.1300439E+00
        -11   -1    0    0    0    0  0.00000000000E+00  0.00000000000E+00  0.45593999997E+02  0.45594000000E+02  0.51100000000E-03 0.  1.
         11   -1    0    0    0    0 -0.00000000000E+00 -0.00000000000E+00 -0.45593999997E+02  0.45594000000E+02  0.51100000000E-03 0. -1.
    9900012    2    1    2    0    0  0.37843392831E+02 -0.12954169386E+02 -0.72961470736E+01  0.50528847924E+02  0.29999963748E+02 0.  0.
        -12    1    1    2    0    0 -0.37843392831E+02  0.12954169386E+02  0.72961470736E+01  0.40659152076E+02  0.00000000000E+00 0.  1.
         11    1    3    3    0    0  0.27766478332E+02 -0.17991456121E+02 -0.10348765631E+02  0.34666507794E+02  0.51100000000E-03 0. -1.
        -11    1    3    3    0    0  0.14894792015E+01  0.11658637893E+01  0.57588599501E+01  0.60615389838E+01  0.51100000000E-03 0.  1.
         12    1    3    3    0    0  0.85874352980E+01  0.38714229455E+01 -0.27062413925E+01  0.98008011456E+01  0.00000000000E+00 0. -1.
</event>
<event>
 7    1  0.4962385E-011  0.5052886E+02  0.7816164E-02  0.1300439E+00
        -11   -1    0    0    0    0  0.00000000000E+00  0.00000000000E+00  0.45593999997E+02  0.45594000000E+02  0.51100000000E-03 0. -1.
         11   -1    0    0    0    0 -0.00000000000E+00 -0.00000000000E+00 -0.45593999997E+02  0.45594000000E+02  0.51100000000E-03 0.  1.
    9900012    2    1    2    0    0  0.38029519707E+02 -0.47315224325E+01  0.13584318497E+02  0.50528863478E+02  0.30000011029E+02 0.  0.
        -12    1    1    2    0    0 -0.38029519707E+02  0.47315224325E+01 -0.13584318497E+02  0.40659136522E+02  0.00000000000E+00 0.  1.
         11    1    3    3    0    0  0.89339669465E+01 -0.20981498021E+01  0.93788164828E+01  0.13121745192E+02  0.51100000000E-03 0. -1.
        -11    1    3    3    0    0  0.26392474591E+02  0.53104383915E+01 -0.19626164269E+01  0.26992875624E+02  0.51100000000E-03 0.  1.
        -12    1    3    3    0    0  0.27030781691E+01 -0.79438110219E+01  0.61681184410E+01  0.10414242663E+02  0.00000000000E+00 0.  1.
</event>
<event>
 7    1  0.4962385E-011  0.5052886E+02  0.7816164E-02  0.1300439E+00
        -11   -1    0    0    0    0  0.00000000000E+00  0.00000000000E+00  0.45593999997E+02  0.45594000000E+02  0.51100000000E-03 0.  1.
         11   -1    0    0    0    0 -0.00000000000E+00 -0.00000000000E+00 -0.45593999997E+02  0.45594000000E+02  0.51100000000E-03 0. -1.
    9900012    2    1    2    0    0 -0.22978231191E+02  0.31638125900E+02 -0.11144323080E+02  0.50528855198E+02  0.29999985860E+02 0.  0.
        -12    1    1    2    0    0  0.22978231191E+02 -0.31638125900E+02  0.11144323080E+02  0.40659144802E+02  0.00000000000E+00 0.  1.
         11    1    3    3    0    0 -0.24543940792E+01  0.98176231536E+01 -0.44132339386E+01  0.11040217785E+02  0.51100000000E-03 0. -1.
        -11    1    3    3    0    0 -0.11840848140E+02  0.96748378315E+01  0.90466660580E+01  0.17766551122E+02  0.51100000000E-03 0.  1.
        -12    1    3    3    0    0 -0.86829889713E+01  0.12145664915E+02 -0.15777755200E+02  0.21722086291E+02  0.00000000000E+00 0.  1.
</event>
<event>
 7    1  0.4962385E-011  0.5052886E+02  0.7816164E-02  0.1300439E+00
        -11   -1    0    0    0    0  0.00000000000E+00  0.00000000000E+00  0.45593999997E+02  0.45594000000E+02  0.51100000000E-03 0.  1.
         11   -1    0    0    0    0 -0.00000000000E+00 -0.00000000000E+00 -0.45593999997E+02  0.45594000000E+02  0.51100000000E-03 0. -1.
    9900012    2    1    2    0    0 -0.10356299097E+02  0.11406660954E+02 -0.37627123578E+02  0.50528864817E+02  0.30000015098E+02 0.  0.
        -12    1    1    2    0    0  0.10356299097E+02 -0.11406660954E+02  0.37627123578E+02  0.40659135183E+02  0.00000000000E+00 0.  1.
         11    1    3    3    0    0  0.29287236549E+01 -0.34866471081E+01 -0.22574571356E+02  0.23029229307E+02  0.51100000000E-03 0. -1.
        -11    1    3    3    0    0 -0.13773175526E+02  0.10115045192E+02 -0.14934902636E+02  0.22695061584E+02  0.51100000000E-03 0.  1.
         12    1    3    3    0    0  0.48815277389E+00  0.47782628701E+01 -0.11764958575E+00  0.48045739261E+01  0.00000000000E+00 0. -1.
</event>
<event>
 7    1  0.4962385E-011  0.5052886E+02  0.7816164E-02  0.1300439E+00
        -11   -1    0    0    0    0  0.00000000000E+00  0.00000000000E+00  0.45593999997E+02  0.45594000000E+02  0.51100000000E-03 0. -1.
         11   -1    0    0    0    0 -0.00000000000E+00 -0.00000000000E+00 -0.45593999997E+02  0.45594000000E+02  0.51100000000E-03 0.  1.
    9900012    2    1    2    0    0  0.25159568418E+02 -0.30176651600E+02  0.10465710121E+02  0.50528864826E+02  0.30000015126E+02 0.  0.
        -12    1    1    2    0    0 -0.25159568418E+02  0.30176651600E+02 -0.10465710121E+02  0.40659135174E+02  0.00000000000E+00 0.  1.
         11    1    3    3    0    0  0.25979645821E+02 -0.31496966248E+02  0.15961263035E+02  0.43837915070E+02  0.51100000000E-03 0. -1.
        -11    1    3    3    0    0 -0.74958833478E+00  0.17840489762E+01 -0.10135897978E+01  0.21845086313E+01  0.51100000000E-03 0.  1.
         12    1    3    3    0    0 -0.70489067904E-01 -0.46373432815E+00 -0.44819631160E+01  0.45064411245E+01  0.00000000000E+00 0. -1.
</event>
<event>
 7    1  0.4962385E-011  0.5052886E+02  0.7816164E-02  0.1300439E+00
        -11   -1    0    0    0    0  0.00000000000E+00  0.00000000000E+00  0.45593999997E+02  0.45594000000E+02  0.51100000000E-03 0.  1.
         11   -1    0    0    0    0 -0.00000000000E+00 -0.00000000000E+00 -0.45593999997E+02  0.45594000000E+02  0.51100000000E-03 0. -1.
    9900012    2    1    2    0    0 -0.20748650292E+02 -0.34646577673E+01 -0.34794473432E+02  0.50528859283E+02  0.29999998277E+02 0.  0.
        -12    1    1    2    0    0  0.20748650292E+02  0.34646577673E+01  0.34794473432E+02  0.40659140717E+02  0.00000000000E+00 0.  1.
         11    1    3    3    0    0 -0.21106914994E+02 -0.67821664177E+01 -0.20265715205E+02  0.30036625225E+02  0.51100000000E-03 0. -1.
        -11    1    3    3    0    0  0.49472798069E+01 -0.31085488438E+01 -0.94278282076E+01  0.11091555273E+02  0.51100000000E-03 0.  1.
         12    1    3    3    0    0 -0.45890151052E+01  0.64260574942E+01 -0.51009300202E+01  0.94006787854E+01  0.00000000000E+00 0. -1.
</event>
<event>
 7    1  0.4962385E-011  0.5052886E+02  0.7816164E-02  0.1300439E+00
        -11   -1    0    0    0    0  0.00000000000E+00  0.00000000000E+00  0.45593999997E+02  0.45594000000E+02  0.51100000000E-03 0.  1.
         11   -1    0    0    0    0 -0.00000000000E+00 -0.00000000000E+00 -0.45593999997E+02  0.45594000000E+02  0.51100000000E-03 0. -1.
    9900012    2    1    2    0    0 -0.23115103868E+02  0.34058490300E+01 -0.33275483133E+02  0.50528860656E+02  0.30000002450E+02 0.  0.
        -12    1    1    2    0    0  0.23115103868E+02 -0.34058490300E+01  0.33275483133E+02  0.40659139344E+02  0.00000000000E+00 0.  1.
         11    1    3    3    0    0 -0.25015726946E+02  0.70310692509E+01 -0.22255425094E+02  0.34212957718E+02  0.51100000000E-03 0. -1.
        -11    1    3    3    0    0  0.32390457093E+01  0.33201330104E+01 -0.25933654835E+01  0.53141551639E+01  0.51100000000E-03 0.  1.
         12    1    3    3    0    0 -0.13384226310E+01 -0.69453532314E+01 -0.84266925560E+01  0.11001747774E+02  0.00000000000E+00 0. -1.
</event>
<event>
 7    1  0.4962385E-011  0.5052886E+02  0.7816164E-02  0.1300439E+00
        -11   -1    0    0    0    0  0.00000000000E+00  0.00000000000E+00  0.45593999997E+02  0.45594000000E+02  0.51100000000E-03 0.  1.
         11   -1    0    0    0    0 -0.00000000000E+00 -0.00000000000E+00 -0.45593999997E+02  0.45594000000E+02  0.51100000000E-03 0. -1.
    9900012    2    1    2    0    0  0.10772486933E+02  0.38700999170E+02  0.62731180418E+01  0.50528858083E+02  0.29999994628E+02 0.  0.
        -12    1    1    2    0    0 -0.10772486933E+02 -0.38700999170E+02 -0.62731180418E+01  0.40659141917E+02  0.00000000000E+00 0.  1.
         11    1    3    3    0    0  0.79240781266E+01  0.43698867756E+01 -0.15142134978E+01  0.91749532623E+01  0.51100000000E-03 0. -1.
        -11    1    3    3    0    0 -0.75710508195E+01  0.18848401750E+02 -0.17656216479E+01  0.20388734123E+02  0.51100000000E-03 0.  1.
        -12    1    3    3    0    0  0.10419459626E+02  0.15482710644E+02  0.95529531875E+01  0.20965170698E+02  0.00000000000E+00 0.  1.
</event>
<event>
 7    1  0.4962385E-011  0.5052886E+02  0.7816164E-02  0.1300439E+00
        -11   -1    0    0    0    0  0.00000000000E+00  0.00000000000E+00  0.45593999997E+02  0.45594000000E+02  0.51100000000E-03 0.  1.
         11   -1    0    0    0    0 -0.00000000000E+00 -0.00000000000E+00 -0.45593999997E+02  0.45594000000E+02  0.51100000000E-03 0. -1.
    9900012    2    1    2    0    0 -0.24912621249E+02  0.63326069578E+01 -0.31502784740E+02  0.50528855214E+02  0.29999985908E+02 0.  0.
        -12    1    1    2    0    0  0.24912621249E+02 -0.63326069578E+01  0.31502784740E+02  0.40659144786E+02  0.00000000000E+00 0.  1.
         11    1    3    3    0    0 -0.22133373183E+02  0.22762184095E+01 -0.62933448102E+01  0.23123009489E+02  0.51100000000E-03 0.  1.
        -11    1    3    3    0    0 -0.58187802887E+01  0.45428906933E+01 -0.14619569690E+02  0.16377664000E+02  0.51100000000E-03 0. -1.
         12    1    3    3    0    0  0.30395322222E+01 -0.48650214503E+00 -0.10589870240E+02  0.11028181725E+02  0.00000000000E+00 0. -1.
</event>
<event>
 7    1  0.4962385E-011  0.5052886E+02  0.7816164E-02  0.1300439E+00
        -11   -1    0    0    0    0  0.00000000000E+00  0.00000000000E+00  0.45593999997E+02  0.45594000000E+02  0.51100000000E-03 0.  1.
         11   -1    0    0    0    0 -0.00000000000E+00 -0.00000000000E+00 -0.45593999997E+02  0.45594000000E+02  0.51100000000E-03 0. -1.
    9900012    2    1    2    0    0 -0.17818688152E+02 -0.24853269450E+02 -0.26795052464E+02  0.50528862204E+02  0.30000007154E+02 0.  0.
        -12    1    1    2    0    0  0.17818688152E+02  0.24853269450E+02  0.26795052464E+02  0.40659137796E+02  0.00000000000E+00 0.  1.
         11    1    3    3    0    0 -0.23340425077E+02 -0.12918966349E+02 -0.20605623500E+02  0.33708557584E+02  0.51100000000E-03 0. -1.
        -11    1    3    3    0    0  0.25179980556E+00 -0.20823917145E+01  0.20538362897E+01  0.29356433981E+01  0.51100000000E-03 0.  1.
         12    1    3    3    0    0  0.52699371196E+01 -0.98519113864E+01 -0.82432652536E+01  0.13884661222E+02  0.00000000000E+00 0. -1.
</event>
<event>
 7    1  0.4962385E-011  0.5052888E+02  0.7816164E-02  0.1300439E+00
        -11   -1    0    0    0    0  0.00000000000E+00  0.00000000000E+00  0.45593999997E+02  0.45594000000E+02  0.51100000000E-03 0.  1.
         11   -1    0    0    0    0 -0.00000000000E+00 -0.00000000000E+00 -0.45593999997E+02  0.45594000000E+02  0.51100000000E-03 0. -1.
    9900012    2    1    2    0    0 -0.41547146131E+01  0.34143696907E+02 -0.21682030889E+02  0.50528878570E+02  0.30000056901E+02 0.  0.
        -12    1    1    2    0    0  0.41547146131E+01 -0.34143696907E+02  0.21682030889E+02  0.40659121430E+02  0.00000000000E+00 0.  1.
         11    1    3    3    0    0 -0.64541265956E+01  0.14277216174E+02 -0.30462352994E+01  0.15961647833E+02  0.51100000000E-03 0. -1.
        -11    1    3    3    0    0  0.10894768364E+02  0.62154761591E+01 -0.52197354254E+01  0.13585792570E+02  0.51100000000E-03 0.  1.
        -12    1    3    3    0    0 -0.85953563817E+01  0.13651004573E+02 -0.13416060164E+02  0.20981438166E+02  0.00000000000E+00 0.  1.
</event>
<event>
 7    1  0.4962385E-011  0.5052887E+02  0.7816164E-02  0.1300439E+00
        -11   -1    0    0    0    0  0.00000000000E+00  0.00000000000E+00  0.45593999997E+02  0.45594000000E+02  0.51100000000E-03 0.  1.
         11   -1    0    0    0    0 -0.00000000000E+00 -0.00000000000E+00 -0.45593999997E+02  0.45594000000E+02  0.51100000000E-03 0. -1.
    9900012    2    1    2    0    0 -0.23180943348E+01  0.29580313549E+01 -0.40485080323E+02  0.50528865238E+02  0.30000016376E+02 0.  0.
        -12    1    1    2    0    0  0.23180943348E+01 -0.29580313549E+01  0.40485080323E+02  0.40659134762E+02  0.00000000000E+00 0.  1.
         11    1    3    3    0    0  0.31056320211E+01 -0.23485249888E+01 -0.89705315074E+01  0.97791081219E+01  0.51100000000E-03 0. -1.
        -11    1    3    3    0    0  0.31615903200E+01  0.12805344067E+02 -0.10563870540E+02  0.16898752945E+02  0.51100000000E-03 0.  1.
        -12    1    3    3    0    0 -0.85853166758E+01 -0.74987877236E+01 -0.20950678276E+02  0.23851004171E+02  0.00000000000E+00 0.  1.
</event>
<event>
 7    1  0.4962385E-011  0.5052887E+02  0.7816164E-02  0.1300439E+00
        -11   -1    0    0    0    0  0.00000000000E+00  0.00000000000E+00  0.45593999997E+02  0.45594000000E+02  0.51100000000E-03 0.  1.
         11   -1    0    0    0    0 -0.00000000000E+00 -0.00000000000E+00 -0.45593999997E+02  0.45594000000E+02  0.51100000000E-03 0. -1.
    9900012    2    1    2    0    0 -0.98162042614E+01  0.35412316782E+02 -0.17400435272E+02  0.50528865804E+02  0.30000018097E+02 0.  0.
        -12    1    1    2    0    0  0.98162042614E+01 -0.35412316782E+02  0.17400435272E+02  0.40659134196E+02  0.00000000000E+00 0.  1.
         11    1    3    3    0    0 -0.75559614516E+01  0.30967490160E+01 -0.20113598092E+01  0.84099926557E+01  0.51100000000E-03 0. -1.
        -11    1    3    3    0    0  0.65905634739E+01  0.42990413676E+01 -0.91759146147E+01  0.12087791066E+02  0.51100000000E-03 0.  1.
        -12    1    3    3    0    0 -0.88508062837E+01  0.28016526398E+02 -0.62131608480E+01  0.30031082082E+02  0.00000000000E+00 0.  1.
</event>
<event>
 7    1  0.4962385E-011  0.5052885E+02  0.7816164E-02  0.1300439E+00
        -11   -1    0    0    0    0  0.00000000000E+00  0.00000000000E+00  0.45593999997E+02  0.45594000000E+02  0.51100000000E-03 0.  1.
         11   -1    0    0    0    0 -0.00000000000E+00 -0.00000000000E+00 -0.45593999997E+02  0.45594000000E+02  0.51100000000E-03 0. -1.
    9900012    2    1    2    0    0  0.48677375627E+01 -0.11695318431E+02 -0.38635358675E+02  0.50528852418E+02  0.29999977409E+02 0.  0.
        -12    1    1    2    0    0 -0.48677375627E+01  0.11695318431E+02  0.38635358675E+02  0.40659147582E+02  0.00000000000E+00 0.  1.
         11    1    3    3    0    0 -0.29877049846E+01 -0.11671984242E+02 -0.12334727189E+02  0.17242595289E+02  0.51100000000E-03 0.  1.
        -11    1    3    3    0    0  0.77732867806E+01  0.69122241769E+01 -0.23693628633E+02  0.25876453940E+02  0.51100000000E-03 0. -1.
         12    1    3    3    0    0  0.82155766713E-01 -0.69355583653E+01 -0.26070028525E+01  0.74098031878E+01  0.00000000000E+00 0. -1.
</event>
<event>
 7    1  0.4962385E-011  0.5052884E+02  0.7816164E-02  0.1300439E+00
        -11   -1    0    0    0    0  0.00000000000E+00  0.00000000000E+00  0.45593999997E+02  0.45594000000E+02  0.51100000000E-03 0. -1.
         11   -1    0    0    0    0 -0.00000000000E+00 -0.00000000000E+00 -0.45593999997E+02  0.45594000000E+02  0.51100000000E-03 0.  1.
    9900012    2    1    2    0    0 -0.74587311864E+01 -0.33584328754E+02  0.21670891614E+02  0.50528839260E+02  0.29999937413E+02 0.  0.
        -12    1    1    2    0    0  0.74587311864E+01  0.33584328754E+02 -0.21670891614E+02  0.40659160740E+02  0.00000000000E+00 0.  1.
         11    1    3    3    0    0  0.67685458072E+01 -0.95542022783E+00  0.58310235786E+01  0.89848136537E+01  0.51100000000E-03 0. -1.
        -11    1    3    3    0    0 -0.15557875093E+02 -0.33341981203E+02  0.15776987409E+02  0.40033092809E+02  0.51100000000E-03 0.  1.
        -12    1    3    3    0    0  0.13305980990E+01  0.71307267625E+00  0.62880626397E-01  0.15109327966E+01  0.00000000000E+00 0.  1.
</event>
<event>
 7    1  0.4962385E-011  0.5052882E+02  0.7816164E-02  0.1300439E+00
        -11   -1    0    0    0    0  0.00000000000E+00  0.00000000000E+00  0.45593999997E+02  0.45594000000E+02  0.51100000000E-03 0. -1.
         11   -1    0    0    0    0 -0.00000000000E+00 -0.00000000000E+00 -0.45593999997E+02  0.45594000000E+02  0.51100000000E-03 0.  1.
    9900012    2    1    2    0    0  0.21306371140E+02 -0.27614601065E+02 -0.20895954380E+02  0.50528824497E+02  0.29999892541E+02 0.  0.
        -12    1    1    2    0    0 -0.21306371140E+02  0.27614601065E+02  0.20895954380E+02  0.40659175503E+02  0.00000000000E+00 0.  1.
         11    1    3    3    0    0  0.15318459299E+02 -0.18050574711E+02 -0.95329424320E+01  0.25521665979E+02  0.51100000000E-03 0. -1.
        -11    1    3    3    0    0 -0.52387268555E+01 -0.18841992946E+01  0.20226560126E+01  0.59233101940E+01  0.51100000000E-03 0.  1.
        -12    1    3    3    0    0  0.11226638697E+02 -0.76798270598E+01 -0.13385667961E+02  0.19083848324E+02  0.00000000000E+00 0.  1.
</event>
<event>
 7    1  0.4962385E-011  0.5052886E+02  0.7816164E-02  0.1300439E+00
        -11   -1    0    0    0    0  0.00000000000E+00  0.00000000000E+00  0.45593999997E+02  0.45594000000E+02  0.51100000000E-03 0.  1.
         11   -1    0    0    0    0 -0.00000000000E+00 -0.00000000000E+00 -0.45593999997E+02  0.45594000000E+02  0.51100000000E-03 0. -1.
    9900012    2    1    2    0    0  0.27821166594E+02  0.24404702570E+02 -0.16839204073E+02  0.50528860658E+02  0.30000002457E+02 0.  0.
        -12    1    1    2    0    0 -0.27821166594E+02 -0.24404702570E+02  0.16839204073E+02  0.40659139342E+02  0.00000000000E+00 0.  1.
         11    1    3    3    0    0 -0.44942098504E+01  0.40874800190E+01 -0.93618237501E+01  0.11160159465E+02  0.51100000000E-03 0. -1.
        -11    1    3    3    0    0  0.45151467036E+01  0.46161079472E+01  0.44594884490E+00  0.64725476413E+01  0.51100000000E-03 0.  1.
         12    1    3    3    0    0  0.27800229741E+02  0.15701114604E+02 -0.79233291682E+01  0.32896153552E+02  0.00000000000E+00 0. -1.
</event>
<event>
 7    1  0.4962385E-011  0.5052897E+02  0.7816164E-02  0.1300438E+00
        -11   -1    0    0    0    0  0.00000000000E+00  0.00000000000E+00  0.45593999997E+02  0.45594000000E+02  0.51100000000E-03 0.  1.
         11   -1    0    0    0    0 -0.00000000000E+00 -0.00000000000E+00 -0.45593999997E+02  0.45594000000E+02  0.51100000000E-03 0. -1.
    9900012    2    1    2    0    0 -0.34492909712E+02  0.20811711757E+02  0.55016587969E+01  0.50528973743E+02  0.30000346186E+02 0.  0.
        -12    1    1    2    0    0  0.34492909712E+02 -0.20811711757E+02 -0.55016587969E+01  0.40659026257E+02  0.00000000000E+00 0.  1.
         11    1    3    3    0    0 -0.13522135678E+02  0.57054956447E+00  0.29549215091E+01  0.13852986735E+02  0.51100000000E-03 0. -1.
        -11    1    3    3    0    0 -0.19850804590E+02  0.18852864391E+02 -0.59316869898E+01  0.28011959043E+02  0.51100000000E-03 0.  1.
        -12    1    3    3    0    0 -0.11199694444E+01  0.13882978021E+01  0.84784242776E+01  0.86640279647E+01  0.00000000000E+00 0.  1.
</event>
<event>
 7    1  0.4962385E-011  0.5052887E+02  0.7816164E-02  0.1300439E+00
        -11   -1    0    0    0    0  0.00000000000E+00  0.00000000000E+00  0.45593999997E+02  0.45594000000E+02  0.51100000000E-03 0.  1.
         11   -1    0    0    0    0 -0.00000000000E+00 -0.00000000000E+00 -0.45593999997E+02  0.45594000000E+02  0.51100000000E-03 0. -1.
    9900012    2    1    2    0    0 -0.15833579641E+01 -0.33343535384E+02 -0.23213505942E+02  0.50528865326E+02  0.30000016644E+02 0.  0.
        -12    1    1    2    0    0  0.15833579641E+01  0.33343535384E+02  0.23213505942E+02  0.40659134674E+02  0.00000000000E+00 0.  1.
         11    1    3    3    0    0 -0.32132822800E+01 -0.12366472736E+02 -0.10152410635E+02  0.16319505903E+02  0.51100000000E-03 0. -1.
        -11    1    3    3    0    0 -0.59532386538E+01 -0.98015935196E+00  0.36647066272E+01  0.70591669302E+01  0.51100000000E-03 0.  1.
        -12    1    3    3    0    0  0.75831629697E+01 -0.19996903296E+02 -0.16725801934E+02  0.27150192493E+02  0.00000000000E+00 0.  1.
</event>
<event>
 7    1  0.5079334E-011  0.5052886E+02  0.7816164E-02  0.1300439E+00
        -11   -1    0    0    0    0  0.00000000000E+00  0.00000000000E+00  0.45593999997E+02  0.45594000000E+02  0.51100000000E-03 0.  1.
         11   -1    0    0    0    0 -0.00000000000E+00 -0.00000000000E+00 -0.45593999997E+02  0.45594000000E+02  0.51100000000E-03 0. -1.
    9900012    2    1    2    0    0 -0.27416611971E+02  0.43391390227E+01 -0.29709714056E+02  0.50528857747E+02  0.29999993609E+02 0.  0.
        -12    1    1    2    0    0  0.27416611971E+02 -0.43391390227E+01  0.29709714056E+02  0.40659142253E+02  0.00000000000E+00 0.  1.
         11    1    3    3    0    0 -0.23046781237E+02  0.42967252616E+01 -0.23607482368E+02  0.33270545493E+02  0.51100000000E-03 0. -1.
        -11    1    3    3    0    0 -0.36811008202E+01 -0.57138701672E+01  0.21894857666E+01  0.71409147677E+01  0.51100000000E-03 0.  1.
        -12    1    3    3    0    0 -0.68872991353E+00  0.57562839284E+01 -0.82917174548E+01  0.10117397487E+02  0.00000000000E+00 0.  1.
</event>
<event>
 7    1  0.4962385E-011  0.5052887E+02  0.7816164E-02  0.1300439E+00
        -11   -1    0    0    0    0  0.00000000000E+00  0.00000000000E+00  0.45593999997E+02  0.45594000000E+02  0.51100000000E-03 0. -1.
         11   -1    0    0    0    0 -0.00000000000E+00 -0.00000000000E+00 -0.45593999997E+02  0.45594000000E+02  0.51100000000E-03 0.  1.
    9900012    2    1    2    0    0  0.11197311949E+02 -0.27291409744E+02 -0.27981489249E+02  0.50528873334E+02  0.30000040985E+02 0.  0.
        -12    1    1    2    0    0 -0.11197311949E+02  0.27291409744E+02  0.27981489249E+02  0.40659126666E+02  0.00000000000E+00 0.  1.
         11    1    3    3    0    0 -0.25736423851E+01 -0.29418048312E+01  0.15538472245E+01  0.42062206610E+01  0.51100000000E-03 0. -1.
        -11    1    3    3    0    0  0.17546625628E+02 -0.11701453013E+02 -0.11650888715E+02  0.24094631802E+02  0.51100000000E-03 0.  1.
        -12    1    3    3    0    0 -0.37756712941E+01 -0.12648151899E+02 -0.17884447759E+02  0.22228020871E+02  0.00000000000E+00 0.  1.
</event>
<event>
 7    1  0.4962385E-011  0.5052886E+02  0.7816164E-02  0.1300439E+00
        -11   -1    0    0    0    0  0.00000000000E+00  0.00000000000E+00  0.45593999997E+02  0.45594000000E+02  0.51100000000E-03 0. -1.
         11   -1    0    0    0    0 -0.00000000000E+00 -0.00000000000E+00 -0.45593999997E+02  0.45594000000E+02  0.51100000000E-03 0.  1.
    9900012    2    1    2    0    0 -0.80373192712E+01 -0.39369730153E+02  0.62121989734E+01  0.50528861182E+02  0.30000004048E+02 0.  0.
        -12    1    1    2    0    0  0.80373192712E+01  0.39369730153E+02 -0.62121989734E+01  0.40659138818E+02  0.00000000000E+00 0.  1.
         11    1    3    3    0    0 -0.69260551433E+01 -0.24473489144E+00  0.65727532224E+01  0.95515035569E+01  0.51100000000E-03 0. -1.
        -11    1    3    3    0    0 -0.64819117381E+01 -0.18989644974E+02 -0.13826044404E+01  0.20113015470E+02  0.51100000000E-03 0.  1.
         12    1    3    3    0    0  0.53706476102E+01 -0.20135350287E+02  0.10220501915E+01  0.20864342155E+02  0.00000000000E+00 0. -1.
</event>
<event>
 7    1  0.4962385E-011  0.5052886E+02  0.7816164E-02  0.1300439E+00
        -11   -1    0    0    0    0  0.00000000000E+00  0.00000000000E+00  0.45593999997E+02  0.45594000000E+02  0.51100000000E-03 0.  1.
         11   -1    0    0    0    0 -0.00000000000E+00 -0.00000000000E+00 -0.45593999997E+02  0.45594000000E+02  0.51100000000E-03 0. -1.
    9900012    2    1    2    0    0 -0.25304256289E+02  0.15903905828E+02 -0.27566751457E+02  0.50528863353E+02  0.30000010649E+02 0.  0.
        -12    1    1    2    0    0  0.25304256289E+02 -0.15903905828E+02  0.27566751457E+02  0.40659136647E+02  0.00000000000E+00 0.  1.
         11    1    3    3    0    0  0.21192425298E+01  0.45411480869E+01 -0.22833339800E+01  0.55069800411E+01  0.51100000000E-03 0. -1.
        -11    1    3    3    0    0 -0.13933350201E+02 -0.55057081190E+01 -0.14622502865E+02  0.20934867088E+02  0.51100000000E-03 0.  1.
        -12    1    3    3    0    0 -0.13490148619E+02  0.16868465860E+02 -0.10660914613E+02  0.24087016224E+02  0.00000000000E+00 0.  1.
</event>
<event>
 7    1  0.4962385E-011  0.5052886E+02  0.7816164E-02  0.1300439E+00
        -11   -1    0    0    0    0  0.00000000000E+00  0.00000000000E+00  0.45593999997E+02  0.45594000000E+02  0.51100000000E-03 0. -1.
         11   -1    0    0    0    0 -0.00000000000E+00 -0.00000000000E+00 -0.45593999997E+02  0.45594000000E+02  0.51100000000E-03 0.  1.
    9900012    2    1    2    0    0  0.35113781385E+02  0.13740342441E+02 -0.15211538689E+02  0.50528861263E+02  0.30000004296E+02 0.  0.
        -12    1    1    2    0    0 -0.35113781385E+02 -0.13740342441E+02  0.15211538689E+02  0.40659138737E+02  0.00000000000E+00 0.  1.
         11    1    3    3    0    0  0.38251562722E+02  0.67956301247E+01 -0.93602870356E+01  0.39962202306E+02  0.51100000000E-03 0. -1.
        -11    1    3    3    0    0 -0.82985807547E+00 -0.18381403656E+00  0.26946325059E+00  0.89166290155E+00  0.51100000000E-03 0.  1.
         12    1    3    3    0    0 -0.23079232622E+01  0.71285263529E+01 -0.61207149036E+01  0.96749960558E+01  0.00000000000E+00 0. -1.
</event>
<event>
 7    1  0.4962385E-011  0.5052886E+02  0.7816164E-02  0.1300439E+00
        -11   -1    0    0    0    0  0.00000000000E+00  0.00000000000E+00  0.45593999997E+02  0.45594000000E+02  0.51100000000E-03 0.  1.
         11   -1    0    0    0    0 -0.00000000000E+00 -0.00000000000E+00 -0.45593999997E+02  0.45594000000E+02  0.51100000000E-03 0. -1.
    9900012    2    1    2    0    0  0.16618643702E+02  0.35536249423E+02 -0.10684647376E+02  0.50528855504E+02  0.29999986791E+02 0.  0.
        -12    1    1    2    0    0 -0.16618643702E+02 -0.35536249423E+02  0.10684647376E+02  0.40659144496E+02  0.00000000000E+00 0.  1.
         11    1    3    3    0    0  0.31176838524E+01  0.14746375751E+02 -0.16506406613E+02  0.22352561597E+02  0.51100000000E-03 0. -1.
        -11    1    3    3    0    0  0.74062356340E-01 -0.91054732160E+00  0.22255038826E+01  0.24057118386E+01  0.51100000000E-03 0.  1.
         12    1    3    3    0    0  0.13426897494E+02  0.21700420993E+02  0.35962553546E+01  0.25770582069E+02  0.00000000000E+00 0. -1.
</event>
<event>
 7    1  0.4962385E-011  0.5052886E+02  0.7816164E-02  0.1300439E+00
        -11   -1    0    0    0    0  0.00000000000E+00  0.00000000000E+00  0.45593999997E+02  0.45594000000E+02  0.51100000000E-03 0.  1.
         11   -1    0    0    0    0 -0.00000000000E+00 -0.00000000000E+00 -0.45593999997E+02  0.45594000000E+02  0.51100000000E-03 0. -1.
    9900012    2    1    2    0    0  0.32826720948E+02 -0.23990252279E+02 -0.19916428393E+00  0.50528862294E+02  0.30000007429E+02 0.  0.
        -12    1    1    2    0    0 -0.32826720948E+02  0.23990252279E+02  0.19916428393E+00  0.40659137706E+02  0.00000000000E+00 0.  1.
         11    1    3    3    0    0  0.22425719574E+02 -0.25587830019E+02  0.71819072212E+01  0.34773980719E+02  0.51100000000E-03 0. -1.
        -11    1    3    3    0    0  0.11252446173E+02  0.32014380841E+01 -0.75617376443E+01  0.13930061994E+02  0.51100000000E-03 0.  1.
         12    1    3    3    0    0 -0.85144479906E+00 -0.16038603439E+01  0.18066613912E+00  0.18248195808E+01  0.00000000000E+00 0. -1.
</event>
<event>
 7    1  0.5880536E-011  0.5052886E+02  0.7816164E-02  0.1300439E+00
        -11   -1    0    0    0    0  0.00000000000E+00  0.00000000000E+00  0.45593999997E+02  0.45594000000E+02  0.51100000000E-03 0.  1.
         11   -1    0    0    0    0 -0.00000000000E+00 -0.00000000000E+00 -0.45593999997E+02  0.45594000000E+02  0.51100000000E-03 0. -1.
    9900012    2    1    2    0    0  0.41187978161E+01  0.40316285804E+02 -0.32860957490E+01  0.50528858079E+02  0.29999994617E+02 0.  0.
        -12    1    1    2    0    0 -0.41187978161E+01 -0.40316285804E+02  0.32860957490E+01  0.40659141921E+02  0.00000000000E+00 0.  1.
         11    1    3    3    0    0  0.88695445460E+01  0.15440657162E+02 -0.26559344002E+00  0.17808797101E+02  0.51100000000E-03 0. -1.
        -11    1    3    3    0    0 -0.82963660309E+01  0.24850061627E+02  0.23295149884E+01  0.26301746948E+02  0.51100000000E-03 0.  1.
        -12    1    3    3    0    0  0.35456193010E+01  0.25567014658E-01 -0.53500172974E+01  0.64183140296E+01  0.00000000000E+00 0.  1.
</event>
<event>
 7    1  0.4962385E-011  0.5052886E+02  0.7816164E-02  0.1300439E+00
        -11   -1    0    0    0    0  0.00000000000E+00  0.00000000000E+00  0.45593999997E+02  0.45594000000E+02  0.51100000000E-03 0. -1.
         11   -1    0    0    0    0 -0.00000000000E+00 -0.00000000000E+00 -0.45593999997E+02  0.45594000000E+02  0.51100000000E-03 0.  1.
    9900012    2    1    2    0    0  0.38529819618E+02  0.79913303269E+01  0.10235102820E+02  0.50528859700E+02  0.29999999545E+02 0.  0.
        -12    1    1    2    0    0 -0.38529819618E+02 -0.79913303269E+01 -0.10235102820E+02  0.40659140300E+02  0.00000000000E+00 0.  1.
         11    1    3    3    0    0  0.40869950068E+01 -0.19505128836E+01  0.10518065763E+02  0.11451538602E+02  0.51100000000E-03 0. -1.
        -11    1    3    3    0    0  0.12161757928E+02  0.35194003055E+01 -0.75943257782E+01  0.14763750157E+02  0.51100000000E-03 0.  1.
         12    1    3    3    0    0  0.22281066683E+02  0.64224429049E+01  0.73113628345E+01  0.24313570941E+02  0.00000000000E+00 0. -1.
</event>
<event>
 7    1  0.4962385E-011  0.5052886E+02  0.7816164E-02  0.1300439E+00
        -11   -1    0    0    0    0  0.00000000000E+00  0.00000000000E+00  0.45593999997E+02  0.45594000000E+02  0.51100000000E-03 0. -1.
         11   -1    0    0    0    0 -0.00000000000E+00 -0.00000000000E+00 -0.45593999997E+02  0.45594000000E+02  0.51100000000E-03 0.  1.
    9900012    2    1    2    0    0 -0.33108555311E+02 -0.23468032352E+02  0.24980781819E+01  0.50528863612E+02  0.30000011434E+02 0.  0.
        -12    1    1    2    0    0  0.33108555311E+02  0.23468032352E+02 -0.24980781819E+01  0.40659136388E+02  0.00000000000E+00 0.  1.
         11    1    3    3    0    0 -0.25928345220E+02 -0.26668511745E+02  0.27957599948E+01  0.37300199447E+02  0.51100000000E-03 0. -1.
        -11    1    3    3    0    0  0.23219295109E+01 -0.12307971871E+01  0.63209351538E+00  0.27029170987E+01  0.51100000000E-03 0.  1.
         12    1    3    3    0    0 -0.95021396017E+01  0.44312765802E+01 -0.92977532820E+00  0.10525747066E+02  0.00000000000E+00 0. -1.
</event>
<event>
 7    1  0.4962385E-011  0.5052891E+02  0.7816164E-02  0.1300439E+00
        -11   -1    0    0    0    0  0.00000000000E+00  0.00000000000E+00  0.45593999997E+02  0.45594000000E+02  0.51100000000E-03 0. -1.
         11   -1    0    0    0    0 -0.00000000000E+00 -0.00000000000E+00 -0.45593999997E+02  0.45594000000E+02  0.51100000000E-03 0.  1.
    9900012    2    1    2    0    0  0.19084514748E+02 -0.15861408492E+02  0.32208056970E+02  0.50528906106E+02  0.30000140599E+02 0.  0.
        -12    1    1    2    0    0 -0.19084514748E+02  0.15861408492E+02 -0.32208056970E+02  0.40659093894E+02  0.00000000000E+00 0.  1.
         11    1    3    3    0    0  0.31733144701E+01 -0.53258362089E+01  0.30145654369E+02  0.30776532190E+02  0.51100000000E-03 0. -1.
        -11    1    3    3    0    0  0.30590414487E+01 -0.19863357496E+01  0.23048074342E+01  0.43145569720E+01  0.51100000000E-03 0.  1.
         12    1    3    3    0    0  0.12852158829E+02 -0.85492365331E+01 -0.24240483335E+00  0.15437816943E+02  0.00000000000E+00 0. -1.
</event>
<event>
 7    1  0.6471089E-011  0.5052884E+02  0.7816164E-02  0.1300439E+00
        -11   -1    0    0    0    0  0.00000000000E+00  0.00000000000E+00  0.45593999997E+02  0.45594000000E+02  0.51100000000E-03 0. -1.
         11   -1    0    0    0    0 -0.00000000000E+00 -0.00000000000E+00 -0.45593999997E+02  0.45594000000E+02  0.51100000000E-03 0.  1.
    9900012    2    1    2    0    0  0.32684574450E+02  0.24183986701E+02  0.14347879477E+00  0.50528841058E+02  0.29999942878E+02 0.  0.
        -12    1    1    2    0    0 -0.32684574450E+02 -0.24183986701E+02 -0.14347879477E+00  0.40659158942E+02  0.00000000000E+00 0.  1.
         11    1    3    3    0    0  0.22594417846E+02  0.11766704417E+02  0.45998083232E+01  0.25886700977E+02  0.51100000000E-03 0. -1.
        -11    1    3    3    0    0  0.43967326809E+01  0.16599123934E+02 -0.31256801688E+01  0.17453711652E+02  0.51100000000E-03 0.  1.
        -12    1    3    3    0    0  0.56934239234E+01 -0.41818416495E+01 -0.13306493596E+01  0.71884284285E+01  0.00000000000E+00 0.  1.
</event>
<event>
 7    1  0.4962385E-011  0.5052886E+02  0.7816164E-02  0.1300439E+00
        -11   -1    0    0    0    0  0.00000000000E+00  0.00000000000E+00  0.45593999997E+02  0.45594000000E+02  0.51100000000E-03 0. -1.
         11   -1    0    0    0    0 -0.00000000000E+00 -0.00000000000E+00 -0.45593999997E+02  0.45594000000E+02  0.51100000000E-03 0.  1.
    9900012    2    1    2    0    0  0.35786484062E+02  0.12336560394E+02  0.14842594889E+02  0.50528858507E+02  0.29999995918E+02 0.  0.
        -12    1    1    2    0    0 -0.35786484062E+02 -0.12336560394E+02 -0.14842594889E+02  0.40659141493E+02  0.00000000000E+00 0.  1.
         11    1    3    3    0    0  0.31137361233E+02  0.38781805089E+01  0.74133605137E+01  0.32241796833E+02  0.51100000000E-03 0. -1.
        -11    1    3    3    0    0 -0.18803998551E+01  0.79912916422E+01 -0.22840665207E+00  0.82127227876E+01  0.51100000000E-03 0.  1.
        -12    1    3    3    0    0  0.65295226844E+01  0.46708824323E+00  0.76576410269E+01  0.10074338887E+02  0.00000000000E+00 0.  1.
</event>
<event>
 7    1  0.4962385E-011  0.5052886E+02  0.7816164E-02  0.1300439E+00
        -11   -1    0    0    0    0  0.00000000000E+00  0.00000000000E+00  0.45593999997E+02  0.45594000000E+02  0.51100000000E-03 0.  1.
         11   -1    0    0    0    0 -0.00000000000E+00 -0.00000000000E+00 -0.45593999997E+02  0.45594000000E+02  0.51100000000E-03 0. -1.
    9900012    2    1    2    0    0 -0.17536909416E+02 -0.24424362121E+02 -0.27369194271E+02  0.50528862627E+02  0.30000008441E+02 0.  0.
        -12    1    1    2    0    0  0.17536909416E+02  0.24424362121E+02  0.27369194271E+02  0.40659137373E+02  0.00000000000E+00 0.  1.
         11    1    3    3    0    0 -0.96356501998E+01 -0.27241761445E+02 -0.29241534074E+02  0.41109933553E+02  0.51100000000E-03 0. -1.
        -11    1    3    3    0    0 -0.10176523123E+01  0.72946101050E-01  0.17283169759E+01  0.20069920759E+01  0.51100000000E-03 0.  1.
         12    1    3    3    0    0 -0.68836069034E+01  0.27444532230E+01  0.14402282740E+00  0.74119369985E+01  0.00000000000E+00 0. -1.
</event>
<event>
 7    1  0.4962385E-011  0.5052886E+02  0.7816164E-02  0.1300439E+00
        -11   -1    0    0    0    0  0.00000000000E+00  0.00000000000E+00  0.45593999997E+02  0.45594000000E+02  0.51100000000E-03 0.  1.
         11   -1    0    0    0    0 -0.00000000000E+00 -0.00000000000E+00 -0.45593999997E+02  0.45594000000E+02  0.51100000000E-03 0. -1.
    9900012    2    1    2    0    0  0.17690805145E+02  0.11110058080E+02 -0.34882202979E+02  0.50528855126E+02  0.29999985642E+02 0.  0.
        -12    1    1    2    0    0 -0.17690805145E+02 -0.11110058080E+02  0.34882202979E+02  0.40659144874E+02  0.00000000000E+00 0.  1.
         11    1    3    3    0    0  0.44779301615E+01 -0.37810265554E+01 -0.69065388342E+00  0.59012730314E+01  0.51100000000E-03 0. -1.
        -11    1    3    3    0    0 -0.33190825280E+01  0.10342637867E+02 -0.87527958320E+01  0.13949835197E+02  0.51100000000E-03 0.  1.
        -12    1    3    3    0    0  0.16531957511E+02  0.45484467682E+01 -0.25438753263E+02  0.30677746898E+02  0.00000000000E+00 0.  1.
</event>
<event>
 7    1  0.4962385E-011  0.5052886E+02  0.7816164E-02  0.1300439E+00
        -11   -1    0    0    0    0  0.00000000000E+00  0.00000000000E+00  0.45593999997E+02  0.45594000000E+02  0.51100000000E-03 0. -1.
         11   -1    0    0    0    0 -0.00000000000E+00 -0.00000000000E+00 -0.45593999997E+02  0.45594000000E+02  0.51100000000E-03 0.  1.
    9900012    2    1    2    0    0  0.24822265527E+02  0.21211596844E+02  0.24229913318E+02  0.50528863192E+02  0.30000010159E+02 0.  0.
        -12    1    1    2    0    0 -0.24822265527E+02 -0.21211596844E+02 -0.24229913318E+02  0.40659136808E+02  0.00000000000E+00 0.  1.
         11    1    3    3    0    0  0.23828535541E+02  0.15017827806E+02  0.19430974426E+02  0.34218372630E+02  0.51100000000E-03 0. -1.
        -11    1    3    3    0    0 -0.77474785893E+00  0.96759336958E+01 -0.50937512501E+00  0.97202567049E+01  0.51100000000E-03 0.  1.
         12    1    3    3    0    0  0.17684778444E+01 -0.34821646575E+01  0.53083140172E+01  0.65902338572E+01  0.00000000000E+00 0. -1.
</event>
<event>
 7    1  0.4962385E-011  0.5052886E+02  0.7816164E-02  0.1300439E+00
        -11   -1    0    0    0    0  0.00000000000E+00  0.00000000000E+00  0.45593999997E+02  0.45594000000E+02  0.51100000000E-03 0. -1.
         11   -1    0    0    0    0 -0.00000000000E+00 -0.00000000000E+00 -0.45593999997E+02  0.45594000000E+02  0.51100000000E-03 0.  1.
    9900012    2    1    2    0    0 -0.13360806887E+02  0.38112526215E+02 -0.46999937773E+01  0.50528858880E+02  0.29999997051E+02 0.  0.
        -12    1    1    2    0    0  0.13360806887E+02 -0.38112526215E+02  0.46999937773E+01  0.40659141120E+02  0.00000000000E+00 0.  1.
         11    1    3    3    0    0 -0.12573582097E+02  0.18660941554E+02  0.19934546565E+01  0.22589811158E+02  0.51100000000E-03 0. -1.
        -11    1    3    3    0    0  0.17845981981E+01 -0.24157651449E+01  0.26643675743E+01  0.40149180311E+01  0.51100000000E-03 0.  1.
         12    1    3    3    0    0 -0.25718229885E+01  0.21867349806E+02 -0.93578160081E+01  0.23924129691E+02  0.00000000000E+00 0. -1.
</event>
<event>
 7    1  0.4962385E-011  0.5052888E+02  0.7816164E-02  0.1300439E+00
        -11   -1    0    0    0    0  0.00000000000E+00  0.00000000000E+00  0.45593999997E+02  0.45594000000E+02  0.51100000000E-03 0.  1.
         11   -1    0    0    0    0 -0.00000000000E+00 -0.00000000000E+00 -0.45593999997E+02  0.45594000000E+02  0.51100000000E-03 0. -1.
    9900012    2    1    2    0    0 -0.80811407171E+01 -0.19405882998E+02 -0.34803319007E+02  0.50528878709E+02  0.30000057324E+02 0.  0.
        -12    1    1    2    0    0  0.80811407171E+01  0.19405882998E+02  0.34803319007E+02  0.40659121291E+02  0.00000000000E+00 0.  1.
         11    1    3    3    0    0 -0.48954163538E+01 -0.12537662656E+02 -0.28671790545E+02  0.31673800837E+02  0.51100000000E-03 0. -1.
        -11    1    3    3    0    0 -0.91952056805E+01 -0.70375998572E+01 -0.25483326388E+01  0.11856374604E+02  0.51100000000E-03 0.  1.
        -12    1    3    3    0    0  0.60094813172E+01  0.16937951465E+00 -0.35831958237E+01  0.69987032679E+01  0.00000000000E+00 0.  1.
</event>
<event>
 7    1  0.4962385E-011  0.5052886E+02  0.7816164E-02  0.1300439E+00
        -11   -1    0    0    0    0  0.00000000000E+00  0.00000000000E+00  0.45593999997E+02  0.45594000000E+02  0.51100000000E-03 0. -1.
         11   -1    0    0    0    0 -0.00000000000E+00 -0.00000000000E+00 -0.45593999997E+02  0.45594000000E+02  0.51100000000E-03 0.  1.
    9900012    2    1    2    0    0  0.16703970102E+02  0.36015525567E+02 -0.87763848189E+01  0.50528860443E+02  0.30000001803E+02 0.  0.
        -12    1    1    2    0    0 -0.16703970102E+02 -0.36015525567E+02  0.87763848189E+01  0.40659139557E+02  0.00000000000E+00 0.  1.
         11    1    3    3    0    0  0.77635004684E+00  0.13605361669E+02  0.81930131771E+01  0.15900756294E+02  0.51100000000E-03 0. -1.
        -11    1    3    3    0    0  0.17463683932E+02  0.18203461607E+02 -0.16459534581E+02  0.30120799289E+02  0.51100000000E-03 0.  1.
         12    1    3    3    0    0 -0.15360638768E+01  0.42067022912E+01 -0.50986341537E+00  0.45073048602E+01  0.00000000000E+00 0. -1.
</event>
<event>
 7    1  0.4962385E-011  0.5052885E+02  0.7816164E-02  0.1300439E+00
        -11   -1    0    0    0    0  0.00000000000E+00  0.00000000000E+00  0.45593999997E+02  0.45594000000E+02  0.51100000000E-03 0.  1.
         11   -1    0    0    0    0 -0.00000000000E+00 -0.00000000000E+00 -0.45593999997E+02  0.45594000000E+02  0.51100000000E-03 0. -1.
    9900012    2    1    2    0    0  0.17224481998E+02 -0.28405364488E+02 -0.23443948075E+02  0.50528853266E+02  0.29999979987E+02 0.  0.
        -12    1    1    2    0    0 -0.17224481998E+02  0.28405364488E+02  0.23443948075E+02  0.40659146734E+02  0.00000000000E+00 0.  1.
         11    1    3    3    0    0  0.14672984472E+02 -0.22661814878E+02 -0.14487571640E+02  0.30638930451E+02  0.51100000000E-03 0. -1.
        -11    1    3    3    0    0 -0.63660464523E+01 -0.61138438387E+01 -0.41615403292E+01  0.97582812057E+01  0.51100000000E-03 0.  1.
        -12    1    3    3    0    0  0.89175439779E+01  0.37029422861E+00 -0.47948361066E+01  0.10131641609E+02  0.00000000000E+00 0.  1.
</event>
<event>
 7    1  0.4962385E-011  0.5052886E+02  0.7816164E-02  0.1300439E+00
        -11   -1    0    0    0    0  0.00000000000E+00  0.00000000000E+00  0.45593999997E+02  0.45594000000E+02  0.51100000000E-03 0. -1.
         11   -1    0    0    0    0 -0.00000000000E+00 -0.00000000000E+00 -0.45593999997E+02  0.45594000000E+02  0.51100000000E-03 0.  1.
    9900012    2    1    2    0    0  0.24273861044E+02  0.28912335365E+02  0.15100400162E+02  0.50528861405E+02  0.30000004727E+02 0.  0.
        -12    1    1    2    0    0 -0.24273861044E+02 -0.28912335365E+02 -0.15100400162E+02  0.40659138595E+02  0.00000000000E+00 0.  1.
         11    1    3    3    0    0  0.89555501647E+01  0.27599925681E+02  0.11036065062E+02  0.31044363557E+02  0.51100000000E-03 0. -1.
        -11    1    3    3    0    0  0.98147419622E+01 -0.23651941043E+01  0.69571898396E+01  0.12260741970E+02  0.51100000000E-03 0.  1.
         12    1    3    3    0    0  0.55035689168E+01  0.36776037886E+01 -0.28928547393E+01  0.72237558784E+01  0.00000000000E+00 0. -1.
</event>
<event>
 7    1  0.4962385E-011  0.5052886E+02  0.7816164E-02  0.1300439E+00
        -11   -1    0    0    0    0  0.00000000000E+00  0.00000000000E+00  0.45593999997E+02  0.45594000000E+02  0.51100000000E-03 0. -1.
         11   -1    0    0    0    0 -0.00000000000E+00 -0.00000000000E+00 -0.45593999997E+02  0.45594000000E+02  0.51100000000E-03 0.  1.
    9900012    2    1    2    0    0  0.76622572500E+01 -0.31195226380E+02  0.24926163512E+02  0.50528856348E+02  0.29999989356E+02 0.  0.
        -12    1    1    2    0    0 -0.76622572500E+01  0.31195226380E+02 -0.24926163512E+02  0.40659143652E+02  0.00000000000E+00 0.  1.
         11    1    3    3    0    0 -0.45509753540E+00 -0.10093588122E+01  0.18463400531E+02  0.18496569369E+02  0.51100000000E-03 0. -1.
        -11    1    3    3    0    0  0.27309649352E+01 -0.14105356144E+02  0.38438183965E+01  0.14872598345E+02  0.51100000000E-03 0.  1.
         12    1    3    3    0    0  0.53863898502E+01 -0.16080511424E+02  0.26189445846E+01  0.17159688634E+02  0.00000000000E+00 0. -1.
</event>
<event>
 7    1  0.4962385E-011  0.5052885E+02  0.7816164E-02  0.1300439E+00
        -11   -1    0    0    0    0  0.00000000000E+00  0.00000000000E+00  0.45593999997E+02  0.45594000000E+02  0.51100000000E-03 0. -1.
         11   -1    0    0    0    0 -0.00000000000E+00 -0.00000000000E+00 -0.45593999997E+02  0.45594000000E+02  0.51100000000E-03 0.  1.
    9900012    2    1    2    0    0  0.28430068297E+02 -0.10364840432E+02  0.27156352567E+02  0.50528853608E+02  0.29999981028E+02 0.  0.
        -12    1    1    2    0    0 -0.28430068297E+02  0.10364840432E+02 -0.27156352567E+02  0.40659146392E+02  0.00000000000E+00 0.  1.
         11    1    3    3    0    0  0.15118693961E+02 -0.54227556781E+01  0.26944204751E+02  0.31368317713E+02  0.51100000000E-03 0. -1.
        -11    1    3    3    0    0  0.14940395897E+02 -0.70083515920E+01  0.52475861138E+00  0.16510838666E+02  0.51100000000E-03 0.  1.
         12    1    3    3    0    0 -0.16290215619E+01  0.20662668378E+01 -0.31261079484E+00  0.26496972286E+01  0.00000000000E+00 0. -1.
</event>
<event>
 7    1  0.4962385E-011  0.5052879E+02  0.7816164E-02  0.1300439E+00
        -11   -1    0    0    0    0  0.00000000000E+00  0.00000000000E+00  0.45593999997E+02  0.45594000000E+02  0.51100000000E-03 0.  1.
         11   -1    0    0    0    0 -0.00000000000E+00 -0.00000000000E+00 -0.45593999997E+02  0.45594000000E+02  0.51100000000E-03 0. -1.
    9900012    2    1    2    0    0  0.18251085678E+02 -0.13118024810E+02 -0.33881953747E+02  0.50528788337E+02  0.29999782627E+02 0.  0.
        -12    1    1    2    0    0 -0.18251085678E+02  0.13118024810E+02  0.33881953747E+02  0.40659211663E+02  0.00000000000E+00 0.  1.
         11    1    3    3    0    0  0.16371548827E+02 -0.21326371359E+00 -0.29844365882E+02  0.34040553279E+02  0.51100000000E-03 0. -1.
        -11    1    3    3    0    0  0.19103983152E+01 -0.13376385889E+02 -0.57699895219E+01  0.14692518522E+02  0.51100000000E-03 0.  1.
        -12    1    3    3    0    0 -0.30861464142E-01  0.47162479298E+00  0.17324016564E+01  0.17957165351E+01  0.00000000000E+00 0.  1.
</event>
<event>
 7    1  0.4962385E-011  0.5052884E+02  0.7816164E-02  0.1300439E+00
        -11   -1    0    0    0    0  0.00000000000E+00  0.00000000000E+00  0.45593999997E+02  0.45594000000E+02  0.51100000000E-03 0.  1.
         11   -1    0    0    0    0 -0.00000000000E+00 -0.00000000000E+00 -0.45593999997E+02  0.45594000000E+02  0.51100000000E-03 0. -1.
    9900012    2    1    2    0    0 -0.12149309437E+01 -0.33954344490E+02 -0.22333685543E+02  0.50528842645E+02  0.29999947702E+02 0.  0.
        -12    1    1    2    0    0  0.12149309437E+01  0.33954344490E+02  0.22333685543E+02  0.40659157355E+02  0.00000000000E+00 0.  1.
         11    1    3    3    0    0  0.17299286401E+01 -0.64743454252E+01 -0.19124088219E+02  0.20264267869E+02  0.51100000000E-03 0. -1.
        -11    1    3    3    0    0  0.15159200509E+01 -0.10099970291E+01  0.22262165023E+01  0.28764818400E+01  0.51100000000E-03 0.  1.
         12    1    3    3    0    0 -0.44607796347E+01 -0.26470002036E+02 -0.54358138262E+01  0.27388092936E+02  0.00000000000E+00 0. -1.
</event>
<event>
 7    1  0.4962385E-011  0.5052888E+02  0.7816164E-02  0.1300439E+00
        -11   -1    0    0    0    0  0.00000000000E+00  0.00000000000E+00  0.45593999997E+02  0.45594000000E+02  0.51100000000E-03 0. -1.
         11   -1    0    0    0    0 -0.00000000000E+00 -0.00000000000E+00 -0.45593999997E+02  0.45594000000E+02  0.51100000000E-03 0.  1.
    9900012    2    1    2    0    0 -0.17590997840E+02 -0.72267183152E+01  0.35937386950E+02  0.50528875029E+02  0.30000046138E+02 0.  0.
        -12    1    1    2    0    0  0.17590997840E+02  0.72267183152E+01 -0.35937386950E+02  0.40659124971E+02  0.00000000000E+00 0.  1.
         11    1    3    3    0    0 -0.12584490110E+02  0.82453118429E+01  0.28891875711E+02  0.32574453811E+02  0.51100000000E-03 0. -1.
        -11    1    3    3    0    0 -0.22743385267E+00 -0.26066134729E+01  0.21801001524E+00  0.26255834746E+01  0.51100000000E-03 0.  1.
         12    1    3    3    0    0 -0.47790738768E+01 -0.12865416685E+02  0.68275012245E+01  0.15328837744E+02  0.00000000000E+00 0. -1.
</event>
<event>
 7    1  0.4962385E-011  0.5052885E+02  0.7816164E-02  0.1300439E+00
        -11   -1    0    0    0    0  0.00000000000E+00  0.00000000000E+00  0.45593999997E+02  0.45594000000E+02  0.51100000000E-03 0.  1.
         11   -1    0    0    0    0 -0.00000000000E+00 -0.00000000000E+00 -0.45593999997E+02  0.45594000000E+02  0.51100000000E-03 0. -1.
    9900012    2    1    2    0    0  0.34578806058E+02  0.20415400186E+02 -0.63784249370E+01  0.50528847305E+02  0.29999961869E+02 0.  0.
        -12    1    1    2    0    0 -0.34578806058E+02 -0.20415400186E+02  0.63784249370E+01  0.40659152695E+02  0.00000000000E+00 0.  1.
         11    1    3    3    0    0  0.12796420249E+02  0.13181002909E+02 -0.11328553311E+02  0.21582940700E+02  0.51100000000E-03 0. -1.
        -11    1    3    3    0    0  0.81506629680E+01 -0.48309616301E+01  0.50599771277E+01  0.10741269286E+02  0.51100000000E-03 0.  1.
        -12    1    3    3    0    0  0.13631722841E+02  0.12065358907E+02 -0.10984875413E+00  0.18204637319E+02  0.00000000000E+00 0.  1.
</event>
<event>
 7    1  0.4962385E-011  0.5052887E+02  0.7816164E-02  0.1300439E+00
        -11   -1    0    0    0    0  0.00000000000E+00  0.00000000000E+00  0.45593999997E+02  0.45594000000E+02  0.51100000000E-03 0. -1.
         11   -1    0    0    0    0 -0.00000000000E+00 -0.00000000000E+00 -0.45593999997E+02  0.45594000000E+02  0.51100000000E-03 0.  1.
    9900012    2    1    2    0    0 -0.34179659697E+02  0.18012841429E+02 -0.12667002913E+02  0.50528873643E+02  0.30000041925E+02 0.  0.
        -12    1    1    2    0    0  0.34179659697E+02 -0.18012841429E+02  0.12667002913E+02  0.40659126357E+02  0.00000000000E+00 0.  1.
         11    1    3    3    0    0 -0.12632971485E+02 -0.13752159339E+01  0.77103260220E+01  0.14863792082E+02  0.51100000000E-03 0. -1.
        -11    1    3    3    0    0 -0.17371096411E+02  0.17499203557E+02 -0.17760070269E+02  0.30387451553E+02  0.51100000000E-03 0.  1.
         12    1    3    3    0    0 -0.41755917998E+01  0.18888538062E+01 -0.26172586662E+01  0.52776300084E+01  0.00000000000E+00 0. -1.
</event>
<event>
 7    1  0.4962385E-011  0.5052886E+02  0.7816164E-02  0.1300439E+00
        -11   -1    0    0    0    0  0.00000000000E+00  0.00000000000E+00  0.45593999997E+02  0.45594000000E+02  0.51100000000E-03 0. -1.
         11   -1    0    0    0    0 -0.00000000000E+00 -0.00000000000E+00 -0.45593999997E+02  0.45594000000E+02  0.51100000000E-03 0.  1.
    9900012    2    1    2    0    0 -0.69763734065E+01  0.34468303153E+02  0.20406655952E+02  0.50528864307E+02  0.30000013548E+02 0.  0.
        -12    1    1    2    0    0  0.69763734065E+01 -0.34468303153E+02 -0.20406655952E+02  0.40659135693E+02  0.00000000000E+00 0.  1.
         11    1    3    3    0    0 -0.16681982870E+02  0.12014224681E+02  0.42404440836E+01  0.20990748282E+02  0.51100000000E-03 0. -1.
        -11    1    3    3    0    0  0.40608827232E+01  0.13241291372E+02  0.10154262708E+02  0.17173573218E+02  0.51100000000E-03 0.  1.
         12    1    3    3    0    0  0.56447267398E+01  0.92127870999E+01  0.60119491601E+01  0.12364542807E+02  0.00000000000E+00 0. -1.
</event>
<event>
 7    1  0.4962385E-011  0.5052881E+02  0.7816164E-02  0.1300439E+00
        -11   -1    0    0    0    0  0.00000000000E+00  0.00000000000E+00  0.45593999997E+02  0.45594000000E+02  0.51100000000E-03 0. -1.
         11   -1    0    0    0    0 -0.00000000000E+00 -0.00000000000E+00 -0.45593999997E+02  0.45594000000E+02  0.51100000000E-03 0.  1.
    9900012    2    1    2    0    0  0.13013039018E+02 -0.17315872948E+02  0.34409174339E+02  0.50528807692E+02  0.29999841460E+02 0.  0.
        -12    1    1    2    0    0 -0.13013039018E+02  0.17315872948E+02 -0.34409174339E+02  0.40659192308E+02  0.00000000000E+00 0.  1.
         11    1    3    3    0    0  0.15226336795E+02 -0.10207977525E+02  0.77721408056E+01  0.19911060000E+02  0.51100000000E-03 0.  1.
        -11    1    3    3    0    0 -0.16302850590E+01 -0.93115103187E+01  0.97600126419E+01  0.13587490601E+02  0.51100000000E-03 0. -1.
         12    1    3    3    0    0 -0.58301271832E+00  0.22036148954E+01  0.16877020892E+02  0.17030257092E+02  0.00000000000E+00 0. -1.
</event>
<event>
 7    1  0.4962385E-011  0.5052886E+02  0.7816164E-02  0.1300439E+00
        -11   -1    0    0    0    0  0.00000000000E+00  0.00000000000E+00  0.45593999997E+02  0.45594000000E+02  0.51100000000E-03 0. -1.
         11   -1    0    0    0    0 -0.00000000000E+00 -0.00000000000E+00 -0.45593999997E+02  0.45594000000E+02  0.51100000000E-03 0.  1.
    9900012    2    1    2    0    0  0.43836911965E+01 -0.37224056515E+02 -0.15758124394E+02  0.50528860605E+02  0.30000002294E+02 0.  0.
        -12    1    1    2    0    0 -0.43836911965E+01  0.37224056515E+02  0.15758124394E+02  0.40659139395E+02  0.00000000000E+00 0.  1.
         11    1    3    3    0    0  0.65058519240E+01 -0.39582016973E+02 -0.19863793969E+02  0.44761953576E+02  0.51100000000E-03 0. -1.
        -11    1    3    3    0    0 -0.15351653654E+01  0.47163724904E+00  0.32274705988E+01  0.36049606268E+01  0.51100000000E-03 0.  1.
         12    1    3    3    0    0 -0.58699536210E+00  0.18863232082E+01  0.87819897605E+00  0.21619464014E+01  0.00000000000E+00 0. -1.
</event>
<event>
 7    1  0.4962385E-011  0.5052886E+02  0.7816164E-02  0.1300439E+00
        -11   -1    0    0    0    0  0.00000000000E+00  0.00000000000E+00  0.45593999997E+02  0.45594000000E+02  0.51100000000E-03 0.  1.
         11   -1    0    0    0    0 -0.00000000000E+00 -0.00000000000E+00 -0.45593999997E+02  0.45594000000E+02  0.51100000000E-03 0. -1.
    9900012    2    1    2    0    0  0.47967569339E+01 -0.34727218281E+02 -0.20595553473E+02  0.50528863394E+02  0.30000010773E+02 0.  0.
        -12    1    1    2    0    0 -0.47967569339E+01  0.34727218281E+02  0.20595553473E+02  0.40659136606E+02  0.00000000000E+00 0.  1.
         11    1    3    3    0    0 -0.27331112106E+00 -0.96911313631E+01 -0.77624090077E+01  0.12419650556E+02  0.51100000000E-03 0. -1.
        -11    1    3    3    0    0  0.64001449218E+01  0.34216121529E+01 -0.12919052887E+01  0.73714519791E+01  0.51100000000E-03 0.  1.
        -12    1    3    3    0    0 -0.13300768668E+01 -0.28457699071E+02 -0.11541239177E+02  0.30737760859E+02  0.00000000000E+00 0.  1.
</event>
<event>
 7    1  0.4962385E-011  0.5052886E+02  0.7816164E-02  0.1300439E+00
        -11   -1    0    0    0    0  0.00000000000E+00  0.00000000000E+00  0.45593999997E+02  0.45594000000E+02  0.51100000000E-03 0.  1.
         11   -1    0    0    0    0 -0.00000000000E+00 -0.00000000000E+00 -0.45593999997E+02  0.45594000000E+02  0.51100000000E-03 0. -1.
    9900012    2    1    2    0    0 -0.10271766422E+02 -0.24099207501E+02 -0.31094773667E+02  0.50528856662E+02  0.29999990309E+02 0.  0.
        -12    1    1    2    0    0  0.10271766422E+02  0.24099207501E+02  0.31094773667E+02  0.40659143338E+02  0.00000000000E+00 0.  1.
         11    1    3    3    0    0 -0.17128682972E+01  0.67287735613E+00 -0.16408347887E+02  0.16511225344E+02  0.51100000000E-03 0. -1.
        -11    1    3    3    0    0 -0.12857734225E+02 -0.17838170261E+02 -0.77684922040E+01  0.23321044553E+02  0.51100000000E-03 0.  1.
        -12    1    3    3    0    0  0.42988361002E+01 -0.69339145966E+01 -0.69179335766E+01  0.10696586765E+02  0.00000000000E+00 0.  1.
</event>
<event>
 7    1  0.4962385E-011  0.5052886E+02  0.7816164E-02  0.1300439E+00
        -11   -1    0    0    0    0  0.00000000000E+00  0.00000000000E+00  0.45593999997E+02  0.45594000000E+02  0.51100000000E-03 0.  1.
         11   -1    0    0    0    0 -0.00000000000E+00 -0.00000000000E+00 -0.45593999997E+02  0.45594000000E+02  0.51100000000E-03 0. -1.
    9900012    2    1    2    0    0  0.36119476281E+02  0.11188590795E+02 -0.14945380213E+02  0.50528861784E+02  0.30000005878E+02 0.  0.
        -12    1    1    2    0    0 -0.36119476281E+02 -0.11188590795E+02  0.14945380213E+02  0.40659138216E+02  0.00000000000E+00 0.  1.
         11    1    3    3    0    0  0.32422803465E+02  0.16548542174E+02 -0.84790775836E+01  0.37376291811E+02  0.51100000000E-03 0. -1.
        -11    1    3    3    0    0  0.16628057546E+01 -0.58963714548E+01 -0.83313737704E+01  0.10341368791E+02  0.51100000000E-03 0.  1.
         12    1    3    3    0    0  0.20338670612E+01  0.53642007528E+00  0.18650711414E+01  0.28112011814E+01  0.00000000000E+00 0. -1.
</event>
<event>
 7    1  0.4962385E-011  0.5052887E+02  0.7816164E-02  0.1300439E+00
        -11   -1    0    0    0    0  0.00000000000E+00  0.00000000000E+00  0.45593999997E+02  0.45594000000E+02  0.51100000000E-03 0.  1.
         11   -1    0    0    0    0 -0.00000000000E+00 -0.00000000000E+00 -0.45593999997E+02  0.45594000000E+02  0.51100000000E-03 0. -1.
    9900012    2    1    2    0    0 -0.40600530995E+02 -0.19278333454E+01 -0.10223001588E+01  0.50528871184E+02  0.30000034451E+02 0.  0.
        -12    1    1    2    0    0  0.40600530995E+02  0.19278333454E+01  0.10223001588E+01  0.40659128816E+02  0.00000000000E+00 0.  1.
         11    1    3    3    0    0 -0.19155657415E+02  0.77106384814E+01 -0.55819002292E+01  0.21390436349E+02  0.51100000000E-03 0. -1.
        -11    1    3    3    0    0  0.10596831568E+01 -0.52256386100E+01  0.30799591284E+01  0.61576274464E+01  0.51100000000E-03 0.  1.
        -12    1    3    3    0    0 -0.22504556737E+02 -0.44128332168E+01  0.14796409420E+01  0.22980807388E+02  0.00000000000E+00 0.  1.
</event>
<event>
 7    1  0.4962385E-011  0.5052886E+02  0.7816164E-02  0.1300439E+00
        -11   -1    0    0    0    0  0.00000000000E+00  0.00000000000E+00  0.45593999997E+02  0.45594000000E+02  0.51100000000E-03 0.  1.
         11   -1    0    0    0    0 -0.00000000000E+00 -0.00000000000E+00 -0.45593999997E+02  0.45594000000E+02  0.51100000000E-03 0. -1.
    9900012    2    1    2    0    0  0.48069312761E+01 -0.30023469210E+02 -0.26993524513E+02  0.50528860101E+02  0.30000000763E+02 0.  0.
        -12    1    1    2    0    0 -0.48069312761E+01  0.30023469210E+02  0.26993524513E+02  0.40659139899E+02  0.00000000000E+00 0.  1.
         11    1    3    3    0    0  0.88259667140E+00 -0.32312564538E+02 -0.25114509844E+02  0.40934330444E+02  0.51100000000E-03 0. -1.
        -11    1    3    3    0    0  0.19810643268E+01  0.12435249503E+01  0.32539140830E+01  0.40073591416E+01  0.51100000000E-03 0.  1.
         12    1    3    3    0    0  0.19432702779E+01  0.10455703785E+01 -0.51329287526E+01  0.55871705155E+01  0.00000000000E+00 0. -1.
</event>
<event>
 7    1  0.4962385E-011  0.5052886E+02  0.7816164E-02  0.1300439E+00
        -11   -1    0    0    0    0  0.00000000000E+00  0.00000000000E+00  0.45593999997E+02  0.45594000000E+02  0.51100000000E-03 0.  1.
         11   -1    0    0    0    0 -0.00000000000E+00 -0.00000000000E+00 -0.45593999997E+02  0.45594000000E+02  0.51100000000E-03 0. -1.
    9900012    2    1    2    0    0 -0.41868398533E+01 -0.17170505834E+02 -0.36617066265E+02  0.50528862768E+02  0.30000008871E+02 0.  0.
        -12    1    1    2    0    0  0.41868398533E+01  0.17170505834E+02  0.36617066265E+02  0.40659137232E+02  0.00000000000E+00 0.  1.
         11    1    3    3    0    0  0.36852084801E+00 -0.12094776883E+02 -0.37733345335E+01  0.12675073539E+02  0.51100000000E-03 0. -1.
        -11    1    3    3    0    0  0.65182854989E+01 -0.62507574525E+00 -0.15224737954E+02  0.16573213677E+02  0.51100000000E-03 0.  1.
         12    1    3    3    0    0 -0.11073646200E+02 -0.44506532057E+01 -0.17618993777E+02  0.21280575552E+02  0.00000000000E+00 0. -1.
</event>
<event>
 7    1  0.4962385E-011  0.5052886E+02  0.7816164E-02  0.1300439E+00
        -11   -1    0    0    0    0  0.00000000000E+00  0.00000000000E+00  0.45593999997E+02  0.45594000000E+02  0.51100000000E-03 0. -1.
         11   -1    0    0    0    0 -0.00000000000E+00 -0.00000000000E+00 -0.45593999997E+02  0.45594000000E+02  0.51100000000E-03 0.  1.
    9900012    2    1    2    0    0  0.39505338324E+02 -0.86077693464E+01 -0.42895799415E+01  0.50528856560E+02  0.29999990000E+02 0.  0.
        -12    1    1    2    0    0 -0.39505338324E+02  0.86077693464E+01  0.42895799415E+01  0.40659143440E+02  0.00000000000E+00 0.  1.
         11    1    3    3    0    0  0.16265058454E+02  0.27562156549E+01 -0.13539761204E+02  0.21341836495E+02  0.51100000000E-03 0.  1.
        -11    1    3    3    0    0  0.79066668208E+01 -0.68090659603E+01  0.79887909015E+01  0.13141519691E+02  0.51100000000E-03 0. -1.
         12    1    3    3    0    0  0.15333613049E+02 -0.45549190410E+01  0.12613903608E+01  0.16045500374E+02  0.00000000000E+00 0. -1.
</event>
<event>
 7    1  0.4962385E-011  0.5052886E+02  0.7816164E-02  0.1300439E+00
        -11   -1    0    0    0    0  0.00000000000E+00  0.00000000000E+00  0.45593999997E+02  0.45594000000E+02  0.51100000000E-03 0. -1.
         11   -1    0    0    0    0 -0.00000000000E+00 -0.00000000000E+00 -0.45593999997E+02  0.45594000000E+02  0.51100000000E-03 0.  1.
    9900012    2    1    2    0    0 -0.12477048924E+00 -0.12725523196E+02  0.38616205570E+02  0.50528857844E+02  0.29999993901E+02 0.  0.
        -12    1    1    2    0    0  0.12477048924E+00  0.12725523196E+02 -0.38616205570E+02  0.40659142156E+02  0.00000000000E+00 0.  1.
         11    1    3    3    0    0  0.32986618409E+01 -0.11161700237E+02  0.30821153645E+02  0.32945534362E+02  0.51100000000E-03 0. -1.
        -11    1    3    3    0    0 -0.80980165697E+01  0.14164536632E+01  0.86959687275E+01  0.11966790953E+02  0.51100000000E-03 0.  1.
        -12    1    3    3    0    0  0.46745842395E+01 -0.29802766220E+01 -0.90091680296E+00  0.56165325283E+01  0.00000000000E+00 0.  1.
</event>
<event>
 7    1  0.4962385E-011  0.5052886E+02  0.7816164E-02  0.1300439E+00
        -11   -1    0    0    0    0  0.00000000000E+00  0.00000000000E+00  0.45593999997E+02  0.45594000000E+02  0.51100000000E-03 0.  1.
         11   -1    0    0    0    0 -0.00000000000E+00 -0.00000000000E+00 -0.45593999997E+02  0.45594000000E+02  0.51100000000E-03 0. -1.
    9900012    2    1    2    0    0 -0.32898271197E+02  0.16304739385E+02 -0.17464970280E+02  0.50528856366E+02  0.29999989411E+02 0.  0.
        -12    1    1    2    0    0  0.32898271197E+02 -0.16304739385E+02  0.17464970280E+02  0.40659143634E+02  0.00000000000E+00 0.  1.
         11    1    3    3    0    0  0.16994886064E+01  0.72210769334E+01  0.25862619967E+01  0.78562691514E+01  0.51100000000E-03 0.  1.
        -11    1    3    3    0    0 -0.28921650938E+02  0.49753257790E+01 -0.11264547691E+02  0.31434150132E+02  0.51100000000E-03 0. -1.
        -12    1    3    3    0    0 -0.56761088655E+01  0.41083366727E+01 -0.87866845853E+01  0.11238437083E+02  0.00000000000E+00 0.  1.
</event>
<event>
 7    1  0.4962385E-011  0.5052890E+02  0.7816164E-02  0.1300439E+00
        -11   -1    0    0    0    0  0.00000000000E+00  0.00000000000E+00  0.45593999997E+02  0.45594000000E+02  0.51100000000E-03 0.  1.
         11   -1    0    0    0    0 -0.00000000000E+00 -0.00000000000E+00 -0.45593999997E+02  0.45594000000E+02  0.51100000000E-03 0. -1.
    9900012    2    1    2    0    0  0.39165767662E+02  0.10707336091E+02  0.21349906202E+01  0.50528897850E+02  0.30000115505E+02 0.  0.
        -12    1    1    2    0    0 -0.39165767662E+02 -0.10707336091E+02 -0.21349906202E+01  0.40659102150E+02  0.00000000000E+00 0.  1.
         11    1    3    3    0    0  0.23619278544E+02  0.23910920694E+01 -0.12600033230E+02  0.26876541405E+02  0.51100000000E-03 0. -1.
        -11    1    3    3    0    0  0.39266384240E+01  0.93788085011E+00  0.63817385899E+01  0.75514698896E+01  0.51100000000E-03 0.  1.
         12    1    3    3    0    0  0.11619850693E+02  0.73783631714E+01  0.83532852606E+01  0.16100886555E+02  0.00000000000E+00 0. -1.
</event>
<event>
 7    1  0.4962385E-011  0.5052886E+02  0.7816164E-02  0.1300439E+00
        -11   -1    0    0    0    0  0.00000000000E+00  0.00000000000E+00  0.45593999997E+02  0.45594000000E+02  0.51100000000E-03 0.  1.
         11   -1    0    0    0    0 -0.00000000000E+00 -0.00000000000E+00 -0.45593999997E+02  0.45594000000E+02  0.51100000000E-03 0. -1.
    9900012    2    1    2    0    0 -0.84635327832E+01 -0.32594012199E+01 -0.39634713586E+02  0.50528860750E+02  0.30000002737E+02 0.  0.
        -12    1    1    2    0    0  0.84635327832E+01  0.32594012199E+01  0.39634713586E+02  0.40659139250E+02  0.00000000000E+00 0.  1.
         11    1    3    3    0    0 -0.10664441158E+02  0.97650650423E+01 -0.24430721240E+02  0.28389204657E+02  0.51100000000E-03 0. -1.
        -11    1    3    3    0    0  0.55218956384E+01 -0.64143080593E+01 -0.99684317890E+01  0.13076861700E+02  0.51100000000E-03 0.  1.
         12    1    3    3    0    0 -0.33209872641E+01 -0.66101582030E+01 -0.52355605572E+01  0.90627943938E+01  0.00000000000E+00 0. -1.
</event>
<event>
 7    1  0.4962385E-011  0.5052885E+02  0.7816164E-02  0.1300439E+00
        -11   -1    0    0    0    0  0.00000000000E+00  0.00000000000E+00  0.45593999997E+02  0.45594000000E+02  0.51100000000E-03 0. -1.
         11   -1    0    0    0    0 -0.00000000000E+00 -0.00000000000E+00 -0.45593999997E+02  0.45594000000E+02  0.51100000000E-03 0.  1.
    9900012    2    1    2    0    0 -0.38593057707E+02 -0.12550030248E+02  0.24978303794E+01  0.50528849505E+02  0.29999968554E+02 0.  0.
        -12    1    1    2    0    0  0.38593057707E+02  0.12550030248E+02 -0.24978303794E+01  0.40659150495E+02  0.00000000000E+00 0.  1.
         11    1    3    3    0    0 -0.26393583034E+02 -0.57381414232E+01  0.36562511777E+01  0.27256479327E+02  0.51100000000E-03 0. -1.
        -11    1    3    3    0    0  0.19172921924E+01  0.45764599701E+01 -0.13180381686E+01  0.51339283287E+01  0.51100000000E-03 0.  1.
        -12    1    3    3    0    0 -0.14116766865E+02 -0.11388348795E+02  0.15961737033E+00  0.18138441849E+02  0.00000000000E+00 0.  1.
</event>
<event>
 7    1  0.4962385E-011  0.5052886E+02  0.7816164E-02  0.1300439E+00
        -11   -1    0    0    0    0  0.00000000000E+00  0.00000000000E+00  0.45593999997E+02  0.45594000000E+02  0.51100000000E-03 0.  1.
         11   -1    0    0    0    0 -0.00000000000E+00 -0.00000000000E+00 -0.45593999997E+02  0.45594000000E+02  0.51100000000E-03 0. -1.
    9900012    2    1    2    0    0 -0.52180342873E+01 -0.34795294948E+02 -0.20377084308E+02  0.50528855921E+02  0.29999988057E+02 0.  0.
        -12    1    1    2    0    0  0.52180342873E+01  0.34795294948E+02  0.20377084308E+02  0.40659144079E+02  0.00000000000E+00 0.  1.
         11    1    3    3    0    0 -0.19393372427E+01 -0.41657240177E+01  0.53209564787E+01  0.70304241438E+01  0.51100000000E-03 0. -1.
        -11    1    3    3    0    0 -0.50841569067E+01 -0.60551444877E+01 -0.14319795583E+02  0.16357566201E+02  0.51100000000E-03 0.  1.
         12    1    3    3    0    0  0.18054598621E+01 -0.24574426443E+02 -0.11378245204E+02  0.27140865576E+02  0.00000000000E+00 0. -1.
</event>
<event>
 7    1  0.4962385E-011  0.5052886E+02  0.7816164E-02  0.1300439E+00
        -11   -1    0    0    0    0  0.00000000000E+00  0.00000000000E+00  0.45593999997E+02  0.45594000000E+02  0.51100000000E-03 0.  1.
         11   -1    0    0    0    0 -0.00000000000E+00 -0.00000000000E+00 -0.45593999997E+02  0.45594000000E+02  0.51100000000E-03 0. -1.
    9900012    2    1    2    0    0  0.32367308354E+02  0.14588487539E+02  0.19816631302E+02  0.50528862098E+02  0.30000006833E+02 0.  0.
        -12    1    1    2    0    0 -0.32367308354E+02 -0.14588487539E+02 -0.19816631302E+02  0.40659137902E+02  0.00000000000E+00 0.  1.
         11    1    3    3    0    0  0.68650143193E+01 -0.73036118910E+01 -0.16287328587E+01  0.10154995778E+02  0.51100000000E-03 0. -1.
        -11    1    3    3    0    0  0.65419070625E+01  0.82081594363E+01  0.41365174240E+01  0.11281897270E+02  0.51100000000E-03 0.  1.
         12    1    3    3    0    0  0.18960386973E+02  0.13683939994E+02  0.17308846736E+02  0.29091969051E+02  0.00000000000E+00 0. -1.
</event>
<event>
 7    1  0.4962385E-011  0.5052887E+02  0.7816164E-02  0.1300439E+00
        -11   -1    0    0    0    0  0.00000000000E+00  0.00000000000E+00  0.45593999997E+02  0.45594000000E+02  0.51100000000E-03 0. -1.
         11   -1    0    0    0    0 -0.00000000000E+00 -0.00000000000E+00 -0.45593999997E+02  0.45594000000E+02  0.51100000000E-03 0.  1.
    9900012    2    1    2    0    0  0.25510373953E+02  0.11626183974E+02  0.29448555859E+02  0.50528870949E+02  0.30000033735E+02 0.  0.
        -12    1    1    2    0    0 -0.25510373953E+02 -0.11626183974E+02 -0.29448555859E+02  0.40659129051E+02  0.00000000000E+00 0.  1.
         11    1    3    3    0    0  0.18025913085E+02  0.11066151119E+02  0.68023590751E+01  0.22218580792E+02  0.51100000000E-03 0. -1.
        -11    1    3    3    0    0  0.69432352503E+01  0.50698071362E+01  0.22127115356E+02  0.23738590826E+02  0.51100000000E-03 0.  1.
         12    1    3    3    0    0  0.54122561776E+00 -0.45097742821E+01  0.51908142808E+00  0.45716993310E+01  0.00000000000E+00 0. -1.
</event>
<event>
 7    1  0.4962385E-011  0.5052885E+02  0.7816164E-02  0.1300439E+00
        -11   -1    0    0    0    0  0.00000000000E+00  0.00000000000E+00  0.45593999997E+02  0.45594000000E+02  0.51100000000E-03 0. -1.
         11   -1    0    0    0    0 -0.00000000000E+00 -0.00000000000E+00 -0.45593999997E+02  0.45594000000E+02  0.51100000000E-03 0.  1.
    9900012    2    1    2    0    0 -0.24071994933E+02 -0.22272319229E+02  0.24034336752E+02  0.50528849898E+02  0.29999969750E+02 0.  0.
        -12    1    1    2    0    0  0.24071994933E+02  0.22272319229E+02 -0.24034336752E+02  0.40659150102E+02  0.00000000000E+00 0.  1.
         11    1    3    3    0    0  0.40902107573E+01 -0.10431840686E+02  0.45662747053E+00  0.11214349426E+02  0.51100000000E-03 0. -1.
        -11    1    3    3    0    0 -0.22601676225E+02 -0.12501505151E+02  0.18688921397E+02  0.31881016020E+02  0.51100000000E-03 0.  1.
        -12    1    3    3    0    0 -0.55605294653E+01  0.66102660865E+00  0.48887878851E+01  0.74334844520E+01  0.00000000000E+00 0.  1.
</event>
<event>
 7    1  0.4962385E-011  0.5052887E+02  0.7816164E-02  0.1300439E+00
        -11   -1    0    0    0    0  0.00000000000E+00  0.00000000000E+00  0.45593999997E+02  0.45594000000E+02  0.51100000000E-03 0.  1.
         11   -1    0    0    0    0 -0.00000000000E+00 -0.00000000000E+00 -0.45593999997E+02  0.45594000000E+02  0.51100000000E-03 0. -1.
    9900012    2    1    2    0    0  0.10316334708E+02  0.12111309827E+02 -0.37417298329E+02  0.50528870622E+02  0.30000032743E+02 0.  0.
        -12    1    1    2    0    0 -0.10316334708E+02 -0.12111309827E+02  0.37417298329E+02  0.40659129378E+02  0.00000000000E+00 0.  1.
         11    1    3    3    0    0  0.75933136613E+01  0.12289454098E+02 -0.11845702180E+02  0.18681802771E+02  0.51100000000E-03 0. -1.
        -11    1    3    3    0    0  0.23272956244E+01  0.17975218776E+01 -0.28301632027E+02  0.28453993841E+02  0.51100000000E-03 0.  1.
        -12    1    3    3    0    0  0.39572542271E+00 -0.19756661486E+01  0.27300358786E+01  0.33930740103E+01  0.00000000000E+00 0.  1.
</event>
<event>
 7    1  0.4962385E-011  0.5052885E+02  0.7816164E-02  0.1300439E+00
        -11   -1    0    0    0    0  0.00000000000E+00  0.00000000000E+00  0.45593999997E+02  0.45594000000E+02  0.51100000000E-03 0. -1.
         11   -1    0    0    0    0 -0.00000000000E+00 -0.00000000000E+00 -0.45593999997E+02  0.45594000000E+02  0.51100000000E-03 0.  1.
    9900012    2    1    2    0    0  0.37252023941E+01 -0.32994387599E+02  0.23466134711E+02  0.50528853130E+02  0.29999979573E+02 0.  0.
        -12    1    1    2    0    0 -0.37252023941E+01  0.32994387599E+02 -0.23466134711E+02  0.40659146870E+02  0.00000000000E+00 0.  1.
         11    1    3    3    0    0  0.17967868220E+01 -0.17317832650E+02  0.75087054144E+01  0.18960918433E+02  0.51100000000E-03 0. -1.
        -11    1    3    3    0    0 -0.28426786231E+01  0.49286984228E+01  0.13036554065E+01  0.58371574913E+01  0.51100000000E-03 0.  1.
        -12    1    3    3    0    0  0.47710941952E+01 -0.20605253372E+02  0.14653773890E+02  0.25730777205E+02  0.00000000000E+00 0.  1.
</event>
<event>
 7    1  0.4962385E-011  0.5052886E+02  0.7816164E-02  0.1300439E+00
        -11   -1    0    0    0    0  0.00000000000E+00  0.00000000000E+00  0.45593999997E+02  0.45594000000E+02  0.51100000000E-03 0.  1.
         11   -1    0    0    0    0 -0.00000000000E+00 -0.00000000000E+00 -0.45593999997E+02  0.45594000000E+02  0.51100000000E-03 0. -1.
    9900012    2    1    2    0    0 -0.20377314871E+02 -0.16631906629E+02 -0.31005000554E+02  0.50528864017E+02  0.30000012667E+02 0.  0.
        -12    1    1    2    0    0  0.20377314871E+02  0.16631906629E+02  0.31005000554E+02  0.40659135983E+02  0.00000000000E+00 0.  1.
         11    1    3    3    0    0 -0.50110306197E+00 -0.44253389718E+01 -0.89135808423E+01  0.99642688135E+01  0.51100000000E-03 0. -1.
        -11    1    3    3    0    0 -0.16339801604E+02 -0.92887588271E+01 -0.82927759244E+00  0.18813767794E+02  0.51100000000E-03 0.  1.
        -12    1    3    3    0    0 -0.35364102045E+01 -0.29178088305E+01 -0.21262142120E+02  0.21750827410E+02  0.00000000000E+00 0.  1.
</event>
<event>
 7    1  0.4962385E-011  0.5052885E+02  0.7816164E-02  0.1300439E+00
        -11   -1    0    0    0    0  0.00000000000E+00  0.00000000000E+00  0.45593999997E+02  0.45594000000E+02  0.51100000000E-03 0.  1.
         11   -1    0    0    0    0 -0.00000000000E+00 -0.00000000000E+00 -0.45593999997E+02  0.45594000000E+02  0.51100000000E-03 0. -1.
    9900012    2    1    2    0    0 -0.15006380523E+02 -0.64593794278E+00 -0.37783030445E+02  0.50528854880E+02  0.29999984895E+02 0.  0.
        -12    1    1    2    0    0  0.15006380523E+02  0.64593794278E+00  0.37783030445E+02  0.40659145120E+02  0.00000000000E+00 0.  1.
         11    1    3    3    0    0  0.37059297873E+01  0.68438232669E+01 -0.18896975714E+02  0.20436915713E+02  0.51100000000E-03 0. -1.
        -11    1    3    3    0    0 -0.79676627735E+01  0.26493530465E+01 -0.47602152330E+01  0.96520656319E+01  0.51100000000E-03 0.  1.
         12    1    3    3    0    0 -0.10744647537E+02 -0.10139114256E+02 -0.14125839499E+02  0.20439873535E+02  0.00000000000E+00 0. -1.
</event>
<event>
 7    1  0.4962385E-011  0.5052886E+02  0.7816164E-02  0.1300439E+00
        -11   -1    0    0    0    0  0.00000000000E+00  0.00000000000E+00  0.45593999997E+02  0.45594000000E+02  0.51100000000E-03 0.  1.
         11   -1    0    0    0    0 -0.00000000000E+00 -0.00000000000E+00 -0.45593999997E+02  0.45594000000E+02  0.51100000000E-03 0. -1.
    9900012    2    1    2    0    0 -0.84137902135E+01 -0.10971434990E+02 -0.38236129661E+02  0.50528857573E+02  0.29999993078E+02 0.  0.
        -12    1    1    2    0    0  0.84137902135E+01  0.10971434990E+02  0.38236129661E+02  0.40659142427E+02  0.00000000000E+00 0.  1.
         11    1    3    3    0    0 -0.51684215082E+01 -0.82770200302E+01 -0.29863709941E+02  0.31417555812E+02  0.51100000000E-03 0. -1.
        -11    1    3    3    0    0 -0.32820871629E+00  0.60198725109E+01  0.85422318649E+00  0.60890297686E+01  0.51100000000E-03 0.  1.
        -12    1    3    3    0    0 -0.29171599890E+01 -0.87142874711E+01 -0.92266429060E+01  0.13022271992E+02  0.00000000000E+00 0.  1.
</event>
<event>
 7    1  0.4962385E-011  0.5052887E+02  0.7816164E-02  0.1300439E+00
        -11   -1    0    0    0    0  0.00000000000E+00  0.00000000000E+00  0.45593999997E+02  0.45594000000E+02  0.51100000000E-03 0. -1.
         11   -1    0    0    0    0 -0.00000000000E+00 -0.00000000000E+00 -0.45593999997E+02  0.45594000000E+02  0.51100000000E-03 0.  1.
    9900012    2    1    2    0    0  0.25209967727E+02 -0.23053493850E+02  0.22049017231E+02  0.50528865573E+02  0.30000017396E+02 0.  0.
        -12    1    1    2    0    0 -0.25209967727E+02  0.23053493850E+02 -0.22049017231E+02  0.40659134427E+02  0.00000000000E+00 0.  1.
         11    1    3    3    0    0  0.22742196656E+02 -0.99090824582E+01  0.20348882968E+02  0.32085424451E+02  0.51100000000E-03 0. -1.
        -11    1    3    3    0    0  0.55085236348E+01 -0.13943169226E+02  0.28206205150E+00  0.14994510994E+02  0.51100000000E-03 0.  1.
        -12    1    3    3    0    0 -0.30407525636E+01  0.79875783367E+00  0.14180722114E+01  0.34489301278E+01  0.00000000000E+00 0.  1.
</event>
<event>
 7    1  0.4962385E-011  0.5052886E+02  0.7816164E-02  0.1300439E+00
        -11   -1    0    0    0    0  0.00000000000E+00  0.00000000000E+00  0.45593999997E+02  0.45594000000E+02  0.51100000000E-03 0. -1.
         11   -1    0    0    0    0 -0.00000000000E+00 -0.00000000000E+00 -0.45593999997E+02  0.45594000000E+02  0.51100000000E-03 0.  1.
    9900012    2    1    2    0    0  0.14339643450E+02  0.32437476163E+02  0.19883424782E+02  0.50528858160E+02  0.29999994863E+02 0.  0.
        -12    1    1    2    0    0 -0.14339643450E+02 -0.32437476163E+02 -0.19883424782E+02  0.40659141840E+02  0.00000000000E+00 0.  1.
         11    1    3    3    0    0  0.22736646678E+02  0.26931856118E+02  0.19537287147E+02  0.40298704265E+02  0.51100000000E-03 0. -1.
        -11    1    3    3    0    0 -0.66457438112E+01  0.51814291497E+01  0.50515528772E+00  0.84420554940E+01  0.51100000000E-03 0.  1.
         12    1    3    3    0    0 -0.17512594162E+01  0.32419089537E+00 -0.15901765207E+00  0.17880984014E+01  0.00000000000E+00 0. -1.
</event>
<event>
 7    1  0.4962385E-011  0.5052886E+02  0.7816164E-02  0.1300439E+00
        -11   -1    0    0    0    0  0.00000000000E+00  0.00000000000E+00  0.45593999997E+02  0.45594000000E+02  0.51100000000E-03 0. -1.
         11   -1    0    0    0    0 -0.00000000000E+00 -0.00000000000E+00 -0.45593999997E+02  0.45594000000E+02  0.51100000000E-03 0.  1.
    9900012    2    1    2    0    0  0.22169975361E+02  0.25685267918E+02  0.22403687903E+02  0.50528855553E+02  0.29999986939E+02 0.  0.
        -12    1    1    2    0    0 -0.22169975361E+02 -0.25685267918E+02 -0.22403687903E+02  0.40659144447E+02  0.00000000000E+00 0.  1.
         11    1    3    3    0    0  0.14018490544E+02  0.15933207982E+02  0.22516694617E+02  0.30941666575E+02  0.51100000000E-03 0. -1.
        -11    1    3    3    0    0  0.39654705622E+01  0.11295206943E+02 -0.49970899580E+01  0.12972184279E+02  0.51100000000E-03 0.  1.
        -12    1    3    3    0    0  0.41860142552E+01 -0.15431470070E+01  0.48840832435E+01  0.66150046984E+01  0.00000000000E+00 0.  1.
</event>
<event>
 7    1  0.4962385E-011  0.5052885E+02  0.7816164E-02  0.1300439E+00
        -11   -1    0    0    0    0  0.00000000000E+00  0.00000000000E+00  0.45593999997E+02  0.45594000000E+02  0.51100000000E-03 0.  1.
         11   -1    0    0    0    0 -0.00000000000E+00 -0.00000000000E+00 -0.45593999997E+02  0.45594000000E+02  0.51100000000E-03 0. -1.
    9900012    2    1    2    0    0  0.31000417849E+01 -0.38423919518E+02 -0.12928999755E+02  0.50528845006E+02  0.29999954881E+02 0.  0.
        -12    1    1    2    0    0 -0.31000417849E+01  0.38423919518E+02  0.12928999755E+02  0.40659154994E+02  0.00000000000E+00 0.  1.
         11    1    3    3    0    0 -0.35293740865E+01  0.58805396987E+00  0.47942779514E+01  0.59822562842E+01  0.51100000000E-03 0. -1.
        -11    1    3    3    0    0 -0.10823683437E+01 -0.62163675303E+01  0.34098413090E+00  0.63190993774E+01  0.51100000000E-03 0.  1.
         12    1    3    3    0    0  0.77117842151E+01 -0.32795605957E+02 -0.18064261837E+02  0.38227489345E+02  0.00000000000E+00 0. -1.
</event>
<event>
 7    1  0.4962385E-011  0.5052880E+02  0.7816164E-02  0.1300439E+00
        -11   -1    0    0    0    0  0.00000000000E+00  0.00000000000E+00  0.45593999997E+02  0.45594000000E+02  0.51100000000E-03 0.  1.
         11   -1    0    0    0    0 -0.00000000000E+00 -0.00000000000E+00 -0.45593999997E+02  0.45594000000E+02  0.51100000000E-03 0. -1.
    9900012    2    1    2    0    0 -0.17580903996E+02 -0.22192609819E+02 -0.29181682429E+02  0.50528798024E+02  0.29999812073E+02 0.  0.
        -12    1    1    2    0    0  0.17580903996E+02  0.22192609819E+02  0.29181682429E+02  0.40659201976E+02  0.00000000000E+00 0.  1.
         11    1    3    3    0    0 -0.12292848925E+02 -0.10151656304E+02 -0.19781222549E+02  0.25406043104E+02  0.51100000000E-03 0. -1.
        -11    1    3    3    0    0  0.17195028016E+01  0.32922450893E+01 -0.72257284588E+01  0.81244519590E+01  0.51100000000E-03 0.  1.
         12    1    3    3    0    0 -0.70075578730E+01 -0.15333198605E+02 -0.21747314218E+01  0.16998302961E+02  0.00000000000E+00 0. -1.
</event>
<event>
 7    1  0.4962385E-011  0.5052891E+02  0.7816164E-02  0.1300439E+00
        -11   -1    0    0    0    0  0.00000000000E+00  0.00000000000E+00  0.45593999997E+02  0.45594000000E+02  0.51100000000E-03 0. -1.
         11   -1    0    0    0    0 -0.00000000000E+00 -0.00000000000E+00 -0.45593999997E+02  0.45594000000E+02  0.51100000000E-03 0.  1.
    9900012    2    1    2    0    0  0.45151378183E+01  0.36824080207E+02  0.16636163051E+02  0.50528914008E+02  0.30000164620E+02 0.  0.
        -12    1    1    2    0    0 -0.45151378183E+01 -0.36824080207E+02 -0.16636163051E+02  0.40659085992E+02  0.00000000000E+00 0.  1.
         11    1    3    3    0    0 -0.88889198286E+00  0.28480909890E+02  0.13662477035E+02  0.31600880306E+02  0.51100000000E-03 0. -1.
        -11    1    3    3    0    0  0.70338890580E+01  0.64654376105E+01 -0.48530388248E+01  0.10715851103E+02  0.51100000000E-03 0.  1.
        -12    1    3    3    0    0 -0.16298592569E+01  0.18777327070E+01  0.78267248405E+01  0.82121825993E+01  0.00000000000E+00 0.  1.
</event>
<event>
 7    1  0.4962385E-011  0.5052886E+02  0.7816164E-02  0.1300439E+00
        -11   -1    0    0    0    0  0.00000000000E+00  0.00000000000E+00  0.45593999997E+02  0.45594000000E+02  0.51100000000E-03 0. -1.
         11   -1    0    0    0    0 -0.00000000000E+00 -0.00000000000E+00 -0.45593999997E+02  0.45594000000E+02  0.51100000000E-03 0.  1.
    9900012    2    1    2    0    0  0.14543070779E+02 -0.26669404871E+02  0.27026051984E+02  0.50528861425E+02  0.30000004787E+02 0.  0.
        -12    1    1    2    0    0 -0.14543070779E+02  0.26669404871E+02 -0.27026051984E+02  0.40659138575E+02  0.00000000000E+00 0.  1.
         11    1    3    3    0    0  0.14292625377E+02 -0.24511869630E+02  0.26511678023E+02  0.38832717710E+02  0.51100000000E-03 0. -1.
        -11    1    3    3    0    0 -0.30562546176E+01  0.35325485965E+01  0.17719412989E+01  0.49959351579E+01  0.51100000000E-03 0.  1.
         12    1    3    3    0    0  0.33067000198E+01 -0.56900838370E+01 -0.12575673376E+01  0.67002085565E+01  0.00000000000E+00 0. -1.
</event>
<event>
 7    1  0.4962385E-011  0.5052886E+02  0.7816164E-02  0.1300439E+00
        -11   -1    0    0    0    0  0.00000000000E+00  0.00000000000E+00  0.45593999997E+02  0.45594000000E+02  0.51100000000E-03 0.  1.
         11   -1    0    0    0    0 -0.00000000000E+00 -0.00000000000E+00 -0.45593999997E+02  0.45594000000E+02  0.51100000000E-03 0. -1.
    9900012    2    1    2    0    0  0.31175517233E+02  0.57276730935E+01 -0.25464615379E+02  0.50528858958E+02  0.29999997290E+02 0.  0.
        -12    1    1    2    0    0 -0.31175517233E+02 -0.57276730935E+01  0.25464615379E+02  0.40659141042E+02  0.00000000000E+00 0.  1.
         11    1    3    3    0    0  0.26597750121E+02  0.97917555241E+01 -0.15733428516E+02  0.32416964091E+02  0.51100000000E-03 0. -1.
        -11    1    3    3    0    0  0.60880764389E+01 -0.43691964970E+01  0.73803866531E+00  0.75298907089E+01  0.51100000000E-03 0.  1.
         12    1    3    3    0    0 -0.15103093262E+01  0.30511406644E+00 -0.10469225529E+02  0.10582004159E+02  0.00000000000E+00 0. -1.
</event>
<event>
 7    1  0.4962385E-011  0.5052886E+02  0.7816164E-02  0.1300439E+00
        -11   -1    0    0    0    0  0.00000000000E+00  0.00000000000E+00  0.45593999997E+02  0.45594000000E+02  0.51100000000E-03 0.  1.
         11   -1    0    0    0    0 -0.00000000000E+00 -0.00000000000E+00 -0.45593999997E+02  0.45594000000E+02  0.51100000000E-03 0. -1.
    9900012    2    1    2    0    0 -0.16626620758E+02  0.30648952257E+02 -0.20913223012E+02  0.50528859711E+02  0.29999999578E+02 0.  0.
        -12    1    1    2    0    0  0.16626620758E+02 -0.30648952257E+02  0.20913223012E+02  0.40659140289E+02  0.00000000000E+00 0.  1.
         11    1    3    3    0    0 -0.98518676117E+01 -0.19204070995E+01 -0.89020995175E+01  0.13416207920E+02  0.51100000000E-03 0. -1.
        -11    1    3    3    0    0  0.17355910646E+01  0.18751072625E+02 -0.74883859845E+01  0.20265510747E+02  0.51100000000E-03 0.  1.
         12    1    3    3    0    0 -0.85103442108E+01  0.13818286731E+02 -0.45227375097E+01  0.16847141044E+02  0.00000000000E+00 0. -1.
</event>
<event>
 7    1  0.4962385E-011  0.5052885E+02  0.7816164E-02  0.1300439E+00
        -11   -1    0    0    0    0  0.00000000000E+00  0.00000000000E+00  0.45593999997E+02  0.45594000000E+02  0.51100000000E-03 0. -1.
         11   -1    0    0    0    0 -0.00000000000E+00 -0.00000000000E+00 -0.45593999997E+02  0.45594000000E+02  0.51100000000E-03 0.  1.
    9900012    2    1    2    0    0  0.22439321769E+02  0.11736583030E+02  0.31810305516E+02  0.50528854907E+02  0.29999984975E+02 0.  0.
        -12    1    1    2    0    0 -0.22439321769E+02 -0.11736583030E+02 -0.31810305516E+02  0.40659145093E+02  0.00000000000E+00 0.  1.
         11    1    3    3    0    0  0.25861465071E+02  0.14335074467E+02  0.21627033429E+02  0.36633841060E+02  0.51100000000E-03 0. -1.
        -11    1    3    3    0    0 -0.47700836567E+01  0.68359961708E+00  0.89021325181E+01  0.10122695795E+02  0.51100000000E-03 0.  1.
         12    1    3    3    0    0  0.13479403547E+01 -0.32820910543E+01  0.12811395687E+01  0.37723180517E+01  0.00000000000E+00 0. -1.
</event>
<event>
 7    1  0.4962385E-011  0.5052886E+02  0.7816164E-02  0.1300439E+00
        -11   -1    0    0    0    0  0.00000000000E+00  0.00000000000E+00  0.45593999997E+02  0.45594000000E+02  0.51100000000E-03 0.  1.
         11   -1    0    0    0    0 -0.00000000000E+00 -0.00000000000E+00 -0.45593999997E+02  0.45594000000E+02  0.51100000000E-03 0. -1.
    9900012    2    1    2    0    0 -0.40264363026E+01 -0.37906442547E+02 -0.14144074296E+02  0.50528863098E+02  0.30000009874E+02 0.  0.
        -12    1    1    2    0    0  0.40264363026E+01  0.37906442547E+02  0.14144074296E+02  0.40659136902E+02  0.00000000000E+00 0.  1.
         11    1    3    3    0    0 -0.35683908240E+01 -0.16080239869E+02 -0.79020827298E+01  0.18268837923E+02  0.51100000000E-03 0. -1.
        -11    1    3    3    0    0  0.10715059377E+02 -0.78364514522E+01  0.72808633744E-01  0.13275080797E+02  0.51100000000E-03 0.  1.
        -12    1    3    3    0    0 -0.11173104856E+02 -0.13989751226E+02 -0.63148001999E+01  0.18984944378E+02  0.00000000000E+00 0.  1.
</event>
<event>
 7    1  0.4962385E-011  0.5052890E+02  0.7816164E-02  0.1300439E+00
        -11   -1    0    0    0    0  0.00000000000E+00  0.00000000000E+00  0.45593999997E+02  0.45594000000E+02  0.51100000000E-03 0.  1.
         11   -1    0    0    0    0 -0.00000000000E+00 -0.00000000000E+00 -0.45593999997E+02  0.45594000000E+02  0.51100000000E-03 0. -1.
    9900012    2    1    2    0    0  0.68981801333E+01 -0.28863948024E+02 -0.27792987398E+02  0.50528898520E+02  0.30000117541E+02 0.  0.
        -12    1    1    2    0    0 -0.68981801333E+01  0.28863948024E+02  0.27792987398E+02  0.40659101480E+02  0.00000000000E+00 0.  1.
         11    1    3    3    0    0  0.57197445962E+01  0.78435241966E+00  0.53071375234E+00  0.57976153987E+01  0.51100000000E-03 0. -1.
        -11    1    3    3    0    0  0.23159256262E+01 -0.31231004647E+02 -0.22421923616E+02  0.38515994362E+02  0.51100000000E-03 0.  1.
         12    1    3    3    0    0 -0.11374900891E+01  0.15827042035E+01 -0.59017775343E+01  0.62152887594E+01  0.00000000000E+00 0. -1.
</event>
<event>
 7    1  0.4962385E-011  0.5052886E+02  0.7816164E-02  0.1300439E+00
        -11   -1    0    0    0    0  0.00000000000E+00  0.00000000000E+00  0.45593999997E+02  0.45594000000E+02  0.51100000000E-03 0.  1.
         11   -1    0    0    0    0 -0.00000000000E+00 -0.00000000000E+00 -0.45593999997E+02  0.45594000000E+02  0.51100000000E-03 0. -1.
    9900012    2    1    2    0    0  0.30417751269E+02 -0.19391747927E+02 -0.18758619576E+02  0.50528864639E+02  0.30000014556E+02 0.  0.
        -12    1    1    2    0    0 -0.30417751269E+02  0.19391747927E+02  0.18758619576E+02  0.40659135361E+02  0.00000000000E+00 0.  1.
         11    1    3    3    0    0  0.91615880644E+01 -0.12750208000E+02 -0.13507411915E+02  0.20711172753E+02  0.51100000000E-03 0. -1.
        -11    1    3    3    0    0  0.12494467003E+02  0.60128249289E+01 -0.12983560669E+01  0.13926647050E+02  0.51100000000E-03 0.  1.
        -12    1    3    3    0    0  0.87616962013E+01 -0.12654364856E+02 -0.39528515942E+01  0.15891044836E+02  0.00000000000E+00 0.  1.
</event>
<event>
 7    1  0.4962385E-011  0.5052885E+02  0.7816164E-02  0.1300439E+00
        -11   -1    0    0    0    0  0.00000000000E+00  0.00000000000E+00  0.45593999997E+02  0.45594000000E+02  0.51100000000E-03 0. -1.
         11   -1    0    0    0    0 -0.00000000000E+00 -0.00000000000E+00 -0.45593999997E+02  0.45594000000E+02  0.51100000000E-03 0.  1.
    9900012    2    1    2    0    0 -0.15429324332E+02  0.14970149323E+02  0.34510825162E+02  0.50528850064E+02  0.29999970256E+02 0.  0.
        -12    1    1    2    0    0  0.15429324332E+02 -0.14970149323E+02 -0.34510825162E+02  0.40659149936E+02  0.00000000000E+00 0.  1.
         11    1    3    3    0    0 -0.32496136964E+01  0.13604465045E+02  0.28330813196E+02  0.31595512893E+02  0.51100000000E-03 0. -1.
        -11    1    3    3    0    0 -0.11077211104E+02  0.63132892672E+01  0.52047946405E+01  0.13771423846E+02  0.51100000000E-03 0.  1.
         12    1    3    3    0    0 -0.11024995317E+01 -0.49476049899E+01  0.97521732560E+00  0.51619133261E+01  0.00000000000E+00 0. -1.
</event>
<event>
 7    1  0.4962385E-011  0.5052886E+02  0.7816164E-02  0.1300439E+00
        -11   -1    0    0    0    0  0.00000000000E+00  0.00000000000E+00  0.45593999997E+02  0.45594000000E+02  0.51100000000E-03 0. -1.
         11   -1    0    0    0    0 -0.00000000000E+00 -0.00000000000E+00 -0.45593999997E+02  0.45594000000E+02  0.51100000000E-03 0.  1.
    9900012    2    1    2    0    0 -0.24536666961E+02 -0.27695811377E+01  0.32302433085E+02  0.50528858489E+02  0.29999995862E+02 0.  0.
        -12    1    1    2    0    0  0.24536666961E+02  0.27695811377E+01 -0.32302433085E+02  0.40659141511E+02  0.00000000000E+00 0.  1.
         11    1    3    3    0    0 -0.27151615706E+01 -0.99470410003E+01  0.14214149756E+02  0.17560119036E+02  0.51100000000E-03 0. -1.
        -11    1    3    3    0    0 -0.20516576448E+02  0.38515522649E+01  0.81530340419E+01  0.22410629807E+02  0.51100000000E-03 0.  1.
        -12    1    3    3    0    0 -0.13049289423E+01  0.33259075976E+01  0.99352492870E+01  0.10558109646E+02  0.00000000000E+00 0.  1.
</event>
<event>
 7    1  0.4962385E-011  0.5052886E+02  0.7816164E-02  0.1300439E+00
        -11   -1    0    0    0    0  0.00000000000E+00  0.00000000000E+00  0.45593999997E+02  0.45594000000E+02  0.51100000000E-03 0.  1.
         11   -1    0    0    0    0 -0.00000000000E+00 -0.00000000000E+00 -0.45593999997E+02  0.45594000000E+02  0.51100000000E-03 0. -1.
    9900012    2    1    2    0    0  0.14960770814E+02 -0.20393642018E+02 -0.31834579304E+02  0.50528859114E+02  0.29999997763E+02 0.  0.
        -12    1    1    2    0    0 -0.14960770814E+02  0.20393642018E+02  0.31834579304E+02  0.40659140886E+02  0.00000000000E+00 0.  1.
         11    1    3    3    0    0  0.36507861739E+01  0.61681745293E+01 -0.60711086473E+01  0.93932410371E+01  0.51100000000E-03 0. -1.
        -11    1    3    3    0    0  0.19216798973E+01 -0.18276591699E+02 -0.97365200744E+01  0.20797271003E+02  0.51100000000E-03 0.  1.
         12    1    3    3    0    0  0.93883047428E+01 -0.82852248483E+01 -0.16026950583E+02  0.20338347074E+02  0.00000000000E+00 0. -1.
</event>
<event>
 7    1  0.4962385E-011  0.5052886E+02  0.7816164E-02  0.1300439E+00
        -11   -1    0    0    0    0  0.00000000000E+00  0.00000000000E+00  0.45593999997E+02  0.45594000000E+02  0.51100000000E-03 0.  1.
         11   -1    0    0    0    0 -0.00000000000E+00 -0.00000000000E+00 -0.45593999997E+02  0.45594000000E+02  0.51100000000E-03 0. -1.
    9900012    2    1    2    0    0 -0.62188377316E+00 -0.24745018376E+02 -0.32256204933E+02  0.50528862890E+02  0.30000009241E+02 0.  0.
        -12    1    1    2    0    0  0.62188377316E+00  0.24745018376E+02  0.32256204933E+02  0.40659137110E+02  0.00000000000E+00 0.  1.
         11    1    3    3    0    0 -0.14358020750E+01 -0.17783657030E+02 -0.36882632064E+02  0.40971313540E+02  0.51100000000E-03 0. -1.
        -11    1    3    3    0    0  0.17337879128E+01 -0.72030649000E+01  0.41840237121E+01  0.85085967800E+01  0.51100000000E-03 0.  1.
         12    1    3    3    0    0 -0.91986961100E+00  0.24170355374E+00  0.44240341944E+00  0.10489525703E+01  0.00000000000E+00 0. -1.
</event>
<event>
 7    1  0.4962385E-011  0.5052885E+02  0.7816164E-02  0.1300439E+00
        -11   -1    0    0    0    0  0.00000000000E+00  0.00000000000E+00  0.45593999997E+02  0.45594000000E+02  0.51100000000E-03 0.  1.
         11   -1    0    0    0    0 -0.00000000000E+00 -0.00000000000E+00 -0.45593999997E+02  0.45594000000E+02  0.51100000000E-03 0. -1.
    9900012    2    1    2    0    0 -0.17908136356E+02  0.11152049368E+02 -0.34757684065E+02  0.50528853988E+02  0.29999982181E+02 0.  0.
        -12    1    1    2    0    0  0.17908136356E+02 -0.11152049368E+02  0.34757684065E+02  0.40659146012E+02  0.00000000000E+00 0.  1.
         11    1    3    3    0    0 -0.21962848045E+02  0.12218290108E+02 -0.31863641163E+02  0.40582569359E+02  0.51100000000E-03 0. -1.
        -11    1    3    3    0    0 -0.10114376026E+01 -0.12878006199E+01  0.22105674995E+01  0.27510080683E+01  0.51100000000E-03 0.  1.
         12    1    3    3    0    0  0.50661492913E+01  0.22155988018E+00 -0.51046104018E+01  0.71952765601E+01  0.00000000000E+00 0. -1.
</event>
<event>
 7    1  0.4962385E-011  0.5052887E+02  0.7816164E-02  0.1300439E+00
        -11   -1    0    0    0    0  0.00000000000E+00  0.00000000000E+00  0.45593999997E+02  0.45594000000E+02  0.51100000000E-03 0.  1.
         11   -1    0    0    0    0 -0.00000000000E+00 -0.00000000000E+00 -0.45593999997E+02  0.45594000000E+02  0.51100000000E-03 0. -1.
    9900012    2    1    2    0    0  0.75688051941E+01  0.30093704730E+02 -0.26272548046E+02  0.50528872399E+02  0.30000038144E+02 0.  0.
        -12    1    1    2    0    0 -0.75688051941E+01 -0.30093704730E+02  0.26272548046E+02  0.40659127601E+02  0.00000000000E+00 0.  1.
         11    1    3    3    0    0  0.12963764218E+02  0.16916550287E+02 -0.20756935533E+01  0.21413485477E+02  0.51100000000E-03 0. -1.
        -11    1    3    3    0    0 -0.68095001617E+01  0.66837494878E+01 -0.14646903813E+02  0.17480663352E+02  0.51100000000E-03 0.  1.
         12    1    3    3    0    0  0.14145411379E+01  0.64934049557E+01 -0.95499506796E+01  0.11634723569E+02  0.00000000000E+00 0. -1.
</event>
<event>
 7    1  0.4962385E-011  0.5052884E+02  0.7816164E-02  0.1300439E+00
        -11   -1    0    0    0    0  0.00000000000E+00  0.00000000000E+00  0.45593999997E+02  0.45594000000E+02  0.51100000000E-03 0.  1.
         11   -1    0    0    0    0 -0.00000000000E+00 -0.00000000000E+00 -0.45593999997E+02  0.45594000000E+02  0.51100000000E-03 0. -1.
    9900012    2    1    2    0    0 -0.17204049228E+02  0.15650936452E+02 -0.33350204540E+02  0.50528840337E+02  0.29999940689E+02 0.  0.
        -12    1    1    2    0    0  0.17204049228E+02 -0.15650936452E+02  0.33350204540E+02  0.40659159663E+02  0.00000000000E+00 0.  1.
         11    1    3    3    0    0 -0.35733976852E+01  0.16735268285E+02 -0.10197777356E+02  0.19920668634E+02  0.51100000000E-03 0. -1.
        -11    1    3    3    0    0 -0.67857825315E+01  0.10347709047E+01 -0.22370865547E+02  0.23400282498E+02  0.51100000000E-03 0.  1.
         12    1    3    3    0    0 -0.68448690116E+01 -0.21191027378E+01 -0.78156163649E+00  0.72078892050E+01  0.00000000000E+00 0. -1.
</event>
<event>
 7    1  0.4962385E-011  0.5052887E+02  0.7816164E-02  0.1300439E+00
        -11   -1    0    0    0    0  0.00000000000E+00  0.00000000000E+00  0.45593999997E+02  0.45594000000E+02  0.51100000000E-03 0. -1.
         11   -1    0    0    0    0 -0.00000000000E+00 -0.00000000000E+00 -0.45593999997E+02  0.45594000000E+02  0.51100000000E-03 0.  1.
    9900012    2    1    2    0    0  0.39954825243E+02  0.58046896944E+01 -0.48044524925E+01  0.50528865154E+02  0.30000016122E+02 0.  0.
        -12    1    1    2    0    0 -0.39954825243E+02 -0.58046896944E+01  0.48044524925E+01  0.40659134846E+02  0.00000000000E+00 0.  1.
         11    1    3    3    0    0  0.23289342990E+02  0.10040370885E+02  0.35190060422E+01  0.25604412671E+02  0.51100000000E-03 0. -1.
        -11    1    3    3    0    0  0.33826543227E+01 -0.74232705398E+01  0.12374357278E+01  0.82509722588E+01  0.51100000000E-03 0.  1.
        -12    1    3    3    0    0  0.13282827931E+02  0.31875893487E+01 -0.95608942625E+01  0.16673480225E+02  0.00000000000E+00 0.  1.
</event>
<event>
 7    1  0.4962385E-011  0.5052885E+02  0.7816164E-02  0.1300439E+00
        -11   -1    0    0    0    0  0.00000000000E+00  0.00000000000E+00  0.45593999997E+02  0.45594000000E+02  0.51100000000E-03 0.  1.
         11   -1    0    0    0    0 -0.00000000000E+00 -0.00000000000E+00 -0.45593999997E+02  0.45594000000E+02  0.51100000000E-03 0. -1.
    9900012    2    1    2    0    0  0.16220654817E+02  0.74847207722E+01 -0.36524458506E+02  0.50528846579E+02  0.29999959662E+02 0.  0.
        -12    1    1    2    0    0 -0.16220654817E+02 -0.74847207722E+01  0.36524458506E+02  0.40659153421E+02  0.00000000000E+00 0.  1.
         11    1    3    3    0    0 -0.13247892160E+01  0.37336174825E+01 -0.26250444535E+02  0.26547708085E+02  0.51100000000E-03 0. -1.
        -11    1    3    3    0    0  0.12693207485E+02  0.65335720420E+01 -0.11407630467E+02  0.18274001013E+02  0.51100000000E-03 0.  1.
         12    1    3    3    0    0  0.48522365481E+01 -0.27824687523E+01  0.11336164966E+01  0.57071374820E+01  0.00000000000E+00 0. -1.
</event>
<event>
 7    1  0.4962385E-011  0.5052887E+02  0.7816164E-02  0.1300439E+00
        -11   -1    0    0    0    0  0.00000000000E+00  0.00000000000E+00  0.45593999997E+02  0.45594000000E+02  0.51100000000E-03 0. -1.
         11   -1    0    0    0    0 -0.00000000000E+00 -0.00000000000E+00 -0.45593999997E+02  0.45594000000E+02  0.51100000000E-03 0.  1.
    9900012    2    1    2    0    0  0.21661345785E+02  0.17045281994E+02  0.29889948371E+02  0.50528873680E+02  0.30000042038E+02 0.  0.
        -12    1    1    2    0    0 -0.21661345785E+02 -0.17045281994E+02 -0.29889948371E+02  0.40659126320E+02  0.00000000000E+00 0.  1.
         11    1    3    3    0    0  0.17331882538E+02  0.12235149942E+02  0.16705952557E+02  0.27003368263E+02  0.51100000000E-03 0. -1.
        -11    1    3    3    0    0  0.58737019588E+01 -0.59779141319E+01  0.40599094392E+01  0.93122874196E+01  0.51100000000E-03 0.  1.
        -12    1    3    3    0    0 -0.15442387122E+01  0.10788046184E+02  0.91240863746E+01  0.14213217998E+02  0.00000000000E+00 0.  1.
</event>
<event>
 7    1  0.4962385E-011  0.5052886E+02  0.7816164E-02  0.1300439E+00
        -11   -1    0    0    0    0  0.00000000000E+00  0.00000000000E+00  0.45593999997E+02  0.45594000000E+02  0.51100000000E-03 0. -1.
         11   -1    0    0    0    0 -0.00000000000E+00 -0.00000000000E+00 -0.45593999997E+02  0.45594000000E+02  0.51100000000E-03 0.  1.
    9900012    2    1    2    0    0 -0.33965219141E+02  0.14692883354E+02  0.16841877021E+02  0.50528858910E+02  0.29999997143E+02 0.  0.
        -12    1    1    2    0    0  0.33965219141E+02 -0.14692883354E+02 -0.16841877021E+02  0.40659141090E+02  0.00000000000E+00 0.  1.
         11    1    3    3    0    0 -0.29828824615E+02  0.15859348470E+02  0.11262455601E+02  0.35610681238E+02  0.51100000000E-03 0. -1.
        -11    1    3    3    0    0 -0.29310027502E+01 -0.49273574472E+01 -0.22421837812E+01  0.61560553038E+01  0.51100000000E-03 0.  1.
         12    1    3    3    0    0 -0.12053917759E+01  0.37608923307E+01  0.78216052020E+01  0.87621223680E+01  0.00000000000E+00 0. -1.
</event>
<event>
 7    1  0.4962385E-011  0.5052887E+02  0.7816164E-02  0.1300439E+00
        -11   -1    0    0    0    0  0.00000000000E+00  0.00000000000E+00  0.45593999997E+02  0.45594000000E+02  0.51100000000E-03 0. -1.
         11   -1    0    0    0    0 -0.00000000000E+00 -0.00000000000E+00 -0.45593999997E+02  0.45594000000E+02  0.51100000000E-03 0.  1.
    9900012    2    1    2    0    0  0.34151392203E+02  0.18609767620E+02  0.11854282186E+02  0.50528867614E+02  0.30000023599E+02 0.  0.
        -12    1    1    2    0    0 -0.34151392203E+02 -0.18609767620E+02 -0.11854282186E+02  0.40659132386E+02  0.00000000000E+00 0.  1.
         11    1    3    3    0    0  0.22817540371E+02  0.34394177093E+01 -0.16168579797E+01  0.23131882170E+02  0.51100000000E-03 0. -1.
        -11    1    3    3    0    0  0.12174515975E+02  0.16166484615E+02  0.79818992175E+01  0.21755109271E+02  0.51100000000E-03 0.  1.
         12    1    3    3    0    0 -0.84066414339E+00 -0.99613470433E+00  0.54892409486E+01  0.56418761723E+01  0.00000000000E+00 0. -1.
</event>
<event>
 7    1  0.4962385E-011  0.5052886E+02  0.7816164E-02  0.1300439E+00
        -11   -1    0    0    0    0  0.00000000000E+00  0.00000000000E+00  0.45593999997E+02  0.45594000000E+02  0.51100000000E-03 0. -1.
         11   -1    0    0    0    0 -0.00000000000E+00 -0.00000000000E+00 -0.45593999997E+02  0.45594000000E+02  0.51100000000E-03 0.  1.
    9900012    2    1    2    0    0 -0.32726042666E+02  0.78845137518E+01  0.22803642579E+02  0.50528861537E+02  0.30000005129E+02 0.  0.
        -12    1    1    2    0    0  0.32726042666E+02 -0.78845137518E+01 -0.22803642579E+02  0.40659138463E+02  0.00000000000E+00 0.  1.
         11    1    3    3    0    0 -0.12430264188E+02 -0.44866616183E+01  0.16527082621E+02  0.21160956039E+02  0.51100000000E-03 0. -1.
        -11    1    3    3    0    0 -0.22489107320E+02  0.86316380653E+01  0.38340835809E+01  0.24391910973E+02  0.51100000000E-03 0.  1.
         12    1    3    3    0    0  0.21933288421E+01  0.37395373048E+01  0.24424763763E+01  0.49759945250E+01  0.00000000000E+00 0. -1.
</event>
<event>
 7    1  0.4962385E-011  0.5052886E+02  0.7816164E-02  0.1300439E+00
        -11   -1    0    0    0    0  0.00000000000E+00  0.00000000000E+00  0.45593999997E+02  0.45594000000E+02  0.51100000000E-03 0.  1.
         11   -1    0    0    0    0 -0.00000000000E+00 -0.00000000000E+00 -0.45593999997E+02  0.45594000000E+02  0.51100000000E-03 0. -1.
    9900012    2    1    2    0    0  0.71370703646E+00 -0.54787457325E+01 -0.40282005807E+02  0.50528855588E+02  0.29999987044E+02 0.  0.
        -12    1    1    2    0    0 -0.71370703646E+00  0.54787457325E+01  0.40282005807E+02  0.40659144412E+02  0.00000000000E+00 0.  1.
         11    1    3    3    0    0 -0.34698503850E+01 -0.13241794238E+02 -0.20403704747E+02  0.24570228815E+02  0.51100000000E-03 0. -1.
        -11    1    3    3    0    0  0.68888186000E+01  0.34520367974E+01 -0.28985246013E+01  0.82324859478E+01  0.51100000000E-03 0.  1.
        -12    1    3    3    0    0 -0.27052611785E+01  0.43110117080E+01 -0.16979776458E+02  0.17726140825E+02  0.00000000000E+00 0.  1.
</event>
<event>
 7    1  0.4962385E-011  0.5052886E+02  0.7816164E-02  0.1300439E+00
        -11   -1    0    0    0    0  0.00000000000E+00  0.00000000000E+00  0.45593999997E+02  0.45594000000E+02  0.51100000000E-03 0. -1.
         11   -1    0    0    0    0 -0.00000000000E+00 -0.00000000000E+00 -0.45593999997E+02  0.45594000000E+02  0.51100000000E-03 0.  1.
    9900012    2    1    2    0    0  0.83057594602E+01 -0.36000657148E+02 -0.16974462501E+02  0.50528864095E+02  0.30000012905E+02 0.  0.
        -12    1    1    2    0    0 -0.83057594602E+01  0.36000657148E+02  0.16974462501E+02  0.40659135905E+02  0.00000000000E+00 0.  1.
         11    1    3    3    0    0  0.13594836266E+01  0.21919739568E+01  0.28932723680E-01  0.25794927645E+01  0.51100000000E-03 0. -1.
        -11    1    3    3    0    0  0.11460327801E+02 -0.38610296982E+02 -0.15756591966E+02  0.43247709038E+02  0.51100000000E-03 0.  1.
        -12    1    3    3    0    0 -0.45140519677E+01  0.41766587741E+00 -0.12468032588E+01  0.47016622931E+01  0.00000000000E+00 0.  1.
</event>
<event>
 7    1  0.4962385E-011  0.5052887E+02  0.7816164E-02  0.1300439E+00
        -11   -1    0    0    0    0  0.00000000000E+00  0.00000000000E+00  0.45593999997E+02  0.45594000000E+02  0.51100000000E-03 0.  1.
         11   -1    0    0    0    0 -0.00000000000E+00 -0.00000000000E+00 -0.45593999997E+02  0.45594000000E+02  0.51100000000E-03 0. -1.
    9900012    2    1    2    0    0 -0.10273352243E+02 -0.16404794403E+02 -0.35756204854E+02  0.50528865340E+02  0.30000016688E+02 0.  0.
        -12    1    1    2    0    0  0.10273352243E+02  0.16404794403E+02  0.35756204854E+02  0.40659134660E+02  0.00000000000E+00 0.  1.
         11    1    3    3    0    0 -0.72857175092E+01  0.80634707920E+01 -0.13269604734E+02  0.17151782733E+02  0.51100000000E-03 0. -1.
        -11    1    3    3    0    0 -0.23291325659E+01 -0.15946967344E+02 -0.14921564064E+02  0.21963235198E+02  0.51100000000E-03 0.  1.
         12    1    3    3    0    0 -0.65850216826E+00 -0.85212978508E+01 -0.75650360551E+01  0.11413847409E+02  0.00000000000E+00 0. -1.
</event>
<event>
 7    1  0.4962385E-011  0.5052886E+02  0.7816164E-02  0.1300439E+00
        -11   -1    0    0    0    0  0.00000000000E+00  0.00000000000E+00  0.45593999997E+02  0.45594000000E+02  0.51100000000E-03 0.  1.
         11   -1    0    0    0    0 -0.00000000000E+00 -0.00000000000E+00 -0.45593999997E+02  0.45594000000E+02  0.51100000000E-03 0. -1.
    9900012    2    1    2    0    0 -0.38647639916E+02 -0.11094619669E+02  0.60361361528E+01  0.50528860852E+02  0.30000003044E+02 0.  0.
        -12    1    1    2    0    0  0.38647639916E+02  0.11094619669E+02 -0.60361361528E+01  0.40659139148E+02  0.00000000000E+00 0.  1.
         11    1    3    3    0    0 -0.24970408821E+02 -0.12062325479E+02 -0.62406961438E+01  0.28424765633E+02  0.51100000000E-03 0. -1.
        -11    1    3    3    0    0 -0.15205410708E+02 -0.75700958358E+00  0.12619443233E+02  0.19774426062E+02  0.51100000000E-03 0.  1.
         12    1    3    3    0    0  0.15281796140E+01  0.17247153939E+01 -0.34261093692E+00  0.23296691561E+01  0.00000000000E+00 0. -1.
</event>
<event>
 7    1  0.4962385E-011  0.5052887E+02  0.7816164E-02  0.1300439E+00
        -11   -1    0    0    0    0  0.00000000000E+00  0.00000000000E+00  0.45593999997E+02  0.45594000000E+02  0.51100000000E-03 0.  1.
         11   -1    0    0    0    0 -0.00000000000E+00 -0.00000000000E+00 -0.45593999997E+02  0.45594000000E+02  0.51100000000E-03 0. -1.
    9900012    2    1    2    0    0 -0.11789931290E+02 -0.38079438275E+02  0.80074051996E+01  0.50528872646E+02  0.30000038895E+02 0.  0.
        -12    1    1    2    0    0  0.11789931290E+02  0.38079438275E+02 -0.80074051996E+01  0.40659127354E+02  0.00000000000E+00 0.  1.
         11    1    3    3    0    0 -0.15935059414E+01 -0.96042744191E+01 -0.10247200126E+01  0.97893513405E+01  0.51100000000E-03 0. -1.
        -11    1    3    3    0    0 -0.10126139104E+02  0.91112840245E+00  0.68232302682E+00  0.10189917227E+02  0.51100000000E-03 0.  1.
        -12    1    3    3    0    0 -0.70286244985E-01 -0.29386292258E+02  0.83498021854E+01  0.30549604079E+02  0.00000000000E+00 0.  1.
</event>
<event>
 7    1  0.4962385E-011  0.5052886E+02  0.7816164E-02  0.1300439E+00
        -11   -1    0    0    0    0  0.00000000000E+00  0.00000000000E+00  0.45593999997E+02  0.45594000000E+02  0.51100000000E-03 0.  1.
         11   -1    0    0    0    0 -0.00000000000E+00 -0.00000000000E+00 -0.45593999997E+02  0.45594000000E+02  0.51100000000E-03 0. -1.
    9900012    2    1    2    0    0  0.13750824109E+01  0.28739970729E+02 -0.28727841793E+02  0.50528860028E+02  0.30000000541E+02 0.  0.
        -12    1    1    2    0    0 -0.13750824109E+01 -0.28739970729E+02  0.28727841793E+02  0.40659139972E+02  0.00000000000E+00 0.  1.
         11    1    3    3    0    0  0.90891857950E+00  0.11523010264E+02 -0.24997425525E+02  0.27540464442E+02  0.51100000000E-03 0. -1.
        -11    1    3    3    0    0 -0.46866073013E+01  0.14322166443E+02 -0.65603982796E+01  0.16435557960E+02  0.51100000000E-03 0.  1.
         12    1    3    3    0    0  0.51527711327E+01  0.28947940223E+01  0.28299820108E+01  0.65528376265E+01  0.00000000000E+00 0. -1.
</event>
<event>
 7    1  0.4962385E-011  0.5052884E+02  0.7816164E-02  0.1300439E+00
        -11   -1    0    0    0    0  0.00000000000E+00  0.00000000000E+00  0.45593999997E+02  0.45594000000E+02  0.51100000000E-03 0.  1.
         11   -1    0    0    0    0 -0.00000000000E+00 -0.00000000000E+00 -0.45593999997E+02  0.45594000000E+02  0.51100000000E-03 0. -1.
    9900012    2    1    2    0    0 -0.34974941641E+02  0.18489598522E+02 -0.93837854322E+01  0.50528840819E+02  0.29999942154E+02 0.  0.
        -12    1    1    2    0    0  0.34974941641E+02 -0.18489598522E+02  0.93837854322E+01  0.40659159181E+02  0.00000000000E+00 0.  1.
         11    1    3    3    0    0 -0.21214392651E+02 -0.14017219272E+01 -0.11869361858E+02  0.24349477019E+02  0.51100000000E-03 0. -1.
        -11    1    3    3    0    0 -0.99259353829E+01  0.75628903159E+01  0.41739989025E+01  0.13158410628E+02  0.51100000000E-03 0.  1.
         12    1    3    3    0    0 -0.38346136062E+01  0.12328430133E+02 -0.16884224771E+01  0.13020953172E+02  0.00000000000E+00 0. -1.
</event>
<event>
 7    1  0.4962385E-011  0.5052888E+02  0.7816164E-02  0.1300439E+00
        -11   -1    0    0    0    0  0.00000000000E+00  0.00000000000E+00  0.45593999997E+02  0.45594000000E+02  0.51100000000E-03 0. -1.
         11   -1    0    0    0    0 -0.00000000000E+00 -0.00000000000E+00 -0.45593999997E+02  0.45594000000E+02  0.51100000000E-03 0.  1.
    9900012    2    1    2    0    0  0.10770250653E+02  0.88803242340E+01  0.38187765853E+02  0.50528881484E+02  0.30000065759E+02 0.  0.
        -12    1    1    2    0    0 -0.10770250653E+02 -0.88803242340E+01 -0.38187765853E+02  0.40659118516E+02  0.00000000000E+00 0.  1.
         11    1    3    3    0    0  0.17689558017E+01 -0.31992712637E+01 -0.39898211658E+01  0.54113967183E+01  0.51100000000E-03 0.  1.
        -11    1    3    3    0    0  0.87815299504E+01  0.96481124531E+01  0.30262046419E+02  0.32954404803E+02  0.51100000000E-03 0. -1.
        -12    1    3    3    0    0  0.21976490123E+00  0.24314830445E+01  0.11915540600E+02  0.12163079963E+02  0.00000000000E+00 0.  1.
</event>
<event>
 7    1  0.4962385E-011  0.5052888E+02  0.7816164E-02  0.1300439E+00
        -11   -1    0    0    0    0  0.00000000000E+00  0.00000000000E+00  0.45593999997E+02  0.45594000000E+02  0.51100000000E-03 0.  1.
         11   -1    0    0    0    0 -0.00000000000E+00 -0.00000000000E+00 -0.45593999997E+02  0.45594000000E+02  0.51100000000E-03 0. -1.
    9900012    2    1    2    0    0 -0.24423201325E+01 -0.15812623800E+02 -0.37378604724E+02  0.50528879373E+02  0.30000059342E+02 0.  0.
        -12    1    1    2    0    0  0.24423201325E+01  0.15812623800E+02  0.37378604724E+02  0.40659120627E+02  0.00000000000E+00 0.  1.
         11    1    3    3    0    0  0.45321119056E+01  0.34266697393E+01 -0.51434658871E+01  0.76640293201E+01  0.51100000000E-03 0.  1.
        -11    1    3    3    0    0 -0.13382081493E+02 -0.13544456190E+02 -0.26170334512E+02  0.32363850316E+02  0.51100000000E-03 0. -1.
         12    1    3    3    0    0  0.64076494546E+01 -0.56948373491E+01 -0.60648043245E+01  0.10500999736E+02  0.00000000000E+00 0. -1.
</event>
<event>
 7    1  0.4962385E-011  0.5052887E+02  0.7816164E-02  0.1300439E+00
        -11   -1    0    0    0    0  0.00000000000E+00  0.00000000000E+00  0.45593999997E+02  0.45594000000E+02  0.51100000000E-03 0. -1.
         11   -1    0    0    0    0 -0.00000000000E+00 -0.00000000000E+00 -0.45593999997E+02  0.45594000000E+02  0.51100000000E-03 0.  1.
    9900012    2    1    2    0    0  0.11531766365E+01 -0.22031074479E+02  0.34153580581E+02  0.50528866640E+02  0.30000020639E+02 0.  0.
        -12    1    1    2    0    0 -0.11531766365E+01  0.22031074479E+02 -0.34153580581E+02  0.40659133360E+02  0.00000000000E+00 0.  1.
         11    1    3    3    0    0 -0.72753834683E+01 -0.12772454457E+01  0.13549936024E+02  0.15432541173E+02  0.51100000000E-03 0. -1.
        -11    1    3    3    0    0  0.12775706994E+02 -0.90096248967E+01  0.13755675444E+02  0.20823319552E+02  0.51100000000E-03 0.  1.
        -12    1    3    3    0    0 -0.43471468897E+01 -0.11744204136E+02  0.68479691134E+01  0.14273005915E+02  0.00000000000E+00 0.  1.
</event>
<event>
 7    1  0.4962385E-011  0.5052885E+02  0.7816164E-02  0.1300439E+00
        -11   -1    0    0    0    0  0.00000000000E+00  0.00000000000E+00  0.45593999997E+02  0.45594000000E+02  0.51100000000E-03 0.  1.
         11   -1    0    0    0    0 -0.00000000000E+00 -0.00000000000E+00 -0.45593999997E+02  0.45594000000E+02  0.51100000000E-03 0. -1.
    9900012    2    1    2    0    0 -0.34812527255E+02  0.16152391111E+02 -0.13429630078E+02  0.50528846584E+02  0.29999959678E+02 0.  0.
        -12    1    1    2    0    0  0.34812527255E+02 -0.16152391111E+02  0.13429630078E+02  0.40659153416E+02  0.00000000000E+00 0.  1.
         11    1    3    3    0    0 -0.13500303262E+02 -0.43715288386E+01  0.30529298389E+01  0.14515124299E+02  0.51100000000E-03 0.  1.
        -11    1    3    3    0    0 -0.10334492083E+02  0.17968378573E+02 -0.10052161393E+02  0.23037150520E+02  0.51100000000E-03 0. -1.
         12    1    3    3    0    0 -0.10977731910E+02  0.25555413764E+01 -0.64303985237E+01  0.12976571766E+02  0.00000000000E+00 0. -1.
</event>
<event>
 7    1  0.4962385E-011  0.5052884E+02  0.7816164E-02  0.1300439E+00
        -11   -1    0    0    0    0  0.00000000000E+00  0.00000000000E+00  0.45593999997E+02  0.45594000000E+02  0.51100000000E-03 0.  1.
         11   -1    0    0    0    0 -0.00000000000E+00 -0.00000000000E+00 -0.45593999997E+02  0.45594000000E+02  0.51100000000E-03 0. -1.
    9900012    2    1    2    0    0 -0.38066241282E+02 -0.44977528763E+01 -0.13560919187E+02  0.50528843153E+02  0.29999949248E+02 0.  0.
        -12    1    1    2    0    0  0.38066241282E+02  0.44977528763E+01  0.13560919187E+02  0.40659156847E+02  0.00000000000E+00 0.  1.
         11    1    3    3    0    0  0.34698168435E+01  0.33822849096E+01 -0.34405801618E+01  0.59428168614E+01  0.51100000000E-03 0. -1.
        -11    1    3    3    0    0 -0.91465623158E+00  0.14734304334E+01 -0.29162072748E+00  0.17585892568E+01  0.51100000000E-03 0.  1.
         12    1    3    3    0    0 -0.40621401894E+02 -0.93534682193E+01 -0.98287182982E+01  0.42827437035E+02  0.00000000000E+00 0. -1.
</event>
<event>
 7    1  0.4962385E-011  0.5052886E+02  0.7816164E-02  0.1300439E+00
        -11   -1    0    0    0    0  0.00000000000E+00  0.00000000000E+00  0.45593999997E+02  0.45594000000E+02  0.51100000000E-03 0.  1.
         11   -1    0    0    0    0 -0.00000000000E+00 -0.00000000000E+00 -0.45593999997E+02  0.45594000000E+02  0.51100000000E-03 0. -1.
    9900012    2    1    2    0    0  0.34373114266E+02 -0.10624189121E+02 -0.18941524209E+02  0.50528859353E+02  0.29999998488E+02 0.  0.
        -12    1    1    2    0    0 -0.34373114266E+02  0.10624189121E+02  0.18941524209E+02  0.40659140647E+02  0.00000000000E+00 0.  1.
         11    1    3    3    0    0  0.11609393138E+02 -0.73744752945E+00 -0.13823301500E+02  0.18066695949E+02  0.51100000000E-03 0. -1.
        -11    1    3    3    0    0  0.13453271781E+02 -0.14051984343E+02  0.26603905270E+01  0.19634827823E+02  0.51100000000E-03 0.  1.
        -12    1    3    3    0    0  0.93104493470E+01  0.41652427524E+01 -0.77786132359E+01  0.12827335581E+02  0.00000000000E+00 0.  1.
</event>
<event>
 7    1  0.4962385E-011  0.5052877E+02  0.7816164E-02  0.1300439E+00
        -11   -1    0    0    0    0  0.00000000000E+00  0.00000000000E+00  0.45593999997E+02  0.45594000000E+02  0.51100000000E-03 0. -1.
         11   -1    0    0    0    0 -0.00000000000E+00 -0.00000000000E+00 -0.45593999997E+02  0.45594000000E+02  0.51100000000E-03 0.  1.
    9900012    2    1    2    0    0 -0.87686923157E+01  0.25843683761E+02  0.30139458979E+02  0.50528770509E+02  0.29999728437E+02 0.  0.
        -12    1    1    2    0    0  0.87686923157E+01 -0.25843683761E+02 -0.30139458979E+02  0.40659229491E+02  0.00000000000E+00 0.  1.
         11    1    3    3    0    0  0.72367819373E+01  0.22932908077E+01  0.79572404929E+01  0.10997630293E+02  0.51100000000E-03 0. -1.
        -11    1    3    3    0    0 -0.14864906043E+02  0.79507439612E+01  0.92035449539E+01  0.19206379180E+02  0.51100000000E-03 0.  1.
         12    1    3    3    0    0 -0.11405682095E+01  0.15599648992E+02  0.12978673532E+02  0.20324761036E+02  0.00000000000E+00 0. -1.
</event>
<event>
 7    1  0.4962385E-011  0.5052886E+02  0.7816164E-02  0.1300439E+00
        -11   -1    0    0    0    0  0.00000000000E+00  0.00000000000E+00  0.45593999997E+02  0.45594000000E+02  0.51100000000E-03 0.  1.
         11   -1    0    0    0    0 -0.00000000000E+00 -0.00000000000E+00 -0.45593999997E+02  0.45594000000E+02  0.51100000000E-03 0. -1.
    9900012    2    1    2    0    0  0.17183780591E+02  0.20885565229E+01 -0.36790237600E+02  0.50528856300E+02  0.29999989211E+02 0.  0.
        -12    1    1    2    0    0 -0.17183780591E+02 -0.20885565229E+01  0.36790237600E+02  0.40659143700E+02  0.00000000000E+00 0.  1.
         11    1    3    3    0    0  0.14199410194E+02  0.54607744860E+01 -0.67298429715E+01  0.16635326703E+02  0.51100000000E-03 0. -1.
        -11    1    3    3    0    0 -0.42734518325E+01  0.23914516569E+01 -0.43013014523E+01  0.65178697468E+01  0.51100000000E-03 0.  1.
         12    1    3    3    0    0  0.72578222300E+01 -0.57636696200E+01 -0.25759093176E+02  0.27375659850E+02  0.00000000000E+00 0. -1.
</event>
<event>
 7    1  0.4962385E-011  0.5052886E+02  0.7816164E-02  0.1300439E+00
        -11   -1    0    0    0    0  0.00000000000E+00  0.00000000000E+00  0.45593999997E+02  0.45594000000E+02  0.51100000000E-03 0.  1.
         11   -1    0    0    0    0 -0.00000000000E+00 -0.00000000000E+00 -0.45593999997E+02  0.45594000000E+02  0.51100000000E-03 0. -1.
    9900012    2    1    2    0    0 -0.20672636781E+02 -0.33357823180E+02 -0.10633108121E+02  0.50528864900E+02  0.30000015350E+02 0.  0.
        -12    1    1    2    0    0  0.20672636781E+02  0.33357823180E+02  0.10633108121E+02  0.40659135100E+02  0.00000000000E+00 0.  1.
         11    1    3    3    0    0 -0.15060357830E+02 -0.16897603961E+02 -0.63773713827E+00  0.22643986100E+02  0.51100000000E-03 0. -1.
        -11    1    3    3    0    0  0.44057610362E+01 -0.89696768731E+01  0.23971892361E+01  0.10276786950E+02  0.51100000000E-03 0.  1.
        -12    1    3    3    0    0 -0.10018039987E+02 -0.74905423460E+01 -0.12392560219E+02  0.17608091850E+02  0.00000000000E+00 0.  1.
</event>
<event>
 7    1  0.4962385E-011  0.5052883E+02  0.7816164E-02  0.1300439E+00
        -11   -1    0    0    0    0  0.00000000000E+00  0.00000000000E+00  0.45593999997E+02  0.45594000000E+02  0.51100000000E-03 0. -1.
         11   -1    0    0    0    0 -0.00000000000E+00 -0.00000000000E+00 -0.45593999997E+02  0.45594000000E+02  0.51100000000E-03 0.  1.
    9900012    2    1    2    0    0 -0.16564702305E+02 -0.37015254610E+02  0.29410073835E+01  0.50528831776E+02  0.29999914665E+02 0.  0.
        -12    1    1    2    0    0  0.16564702305E+02  0.37015254610E+02 -0.29410073835E+01  0.40659168224E+02  0.00000000000E+00 0.  1.
         11    1    3    3    0    0 -0.17473071389E+02 -0.33433065859E+02  0.10880125092E+02  0.39261370821E+02  0.51100000000E-03 0. -1.
        -11    1    3    3    0    0  0.29778298585E+01  0.85255100406E+00 -0.32534821863E+01  0.44921554379E+01  0.51100000000E-03 0.  1.
         12    1    3    3    0    0 -0.20694607744E+01 -0.44347397548E+01 -0.46856355225E+01  0.67753055163E+01  0.00000000000E+00 0. -1.
</event>
<event>
 7    1  0.4962385E-011  0.5052887E+02  0.7816164E-02  0.1300439E+00
        -11   -1    0    0    0    0  0.00000000000E+00  0.00000000000E+00  0.45593999997E+02  0.45594000000E+02  0.51100000000E-03 0.  1.
         11   -1    0    0    0    0 -0.00000000000E+00 -0.00000000000E+00 -0.45593999997E+02  0.45594000000E+02  0.51100000000E-03 0. -1.
    9900012    2    1    2    0    0 -0.17028922055E+02 -0.36920462059E+02 -0.24598756927E+00  0.50528865542E+02  0.30000017300E+02 0.  0.
        -12    1    1    2    0    0  0.17028922055E+02  0.36920462059E+02  0.24598756927E+00  0.40659134458E+02  0.00000000000E+00 0.  1.
         11    1    3    3    0    0 -0.13498295086E+01  0.31161564475E+01 -0.12211388816E+00  0.33981440185E+01  0.51100000000E-03 0. -1.
        -11    1    3    3    0    0 -0.19254562121E+02 -0.24598017707E+02  0.89667257839E+00  0.31250674546E+02  0.51100000000E-03 0.  1.
        -12    1    3    3    0    0  0.35754695747E+01 -0.15438600800E+02 -0.10205462595E+01  0.15880046978E+02  0.00000000000E+00 0.  1.
</event>
<event>
 7    1  0.4962385E-011  0.5052887E+02  0.7816164E-02  0.1300439E+00
        -11   -1    0    0    0    0  0.00000000000E+00  0.00000000000E+00  0.45593999997E+02  0.45594000000E+02  0.51100000000E-03 0. -1.
         11   -1    0    0    0    0 -0.00000000000E+00 -0.00000000000E+00 -0.45593999997E+02  0.45594000000E+02  0.51100000000E-03 0.  1.
    9900012    2    1    2    0    0  0.17246743642E+02 -0.35082927519E+02  0.11175991960E+02  0.50528871064E+02  0.30000034086E+02 0.  0.
        -12    1    1    2    0    0 -0.17246743642E+02  0.35082927519E+02 -0.11175991960E+02  0.40659128936E+02  0.00000000000E+00 0.  1.
         11    1    3    3    0    0 -0.21897457138E+01  0.52845864384E+00 -0.26820902516E+01  0.35025509573E+01  0.51100000000E-03 0.  1.
        -11    1    3    3    0    0  0.20979266102E+02 -0.34071574667E+02  0.16773557052E+02  0.43386104030E+02  0.51100000000E-03 0. -1.
         12    1    3    3    0    0 -0.15427767465E+01 -0.15398114958E+01 -0.29154748411E+01  0.36402160761E+01  0.00000000000E+00 0. -1.
</event>
<event>
 7    1  0.4962385E-011  0.5052886E+02  0.7816164E-02  0.1300439E+00
        -11   -1    0    0    0    0  0.00000000000E+00  0.00000000000E+00  0.45593999997E+02  0.45594000000E+02  0.51100000000E-03 0.  1.
         11   -1    0    0    0    0 -0.00000000000E+00 -0.00000000000E+00 -0.45593999997E+02  0.45594000000E+02  0.51100000000E-03 0. -1.
    9900012    2    1    2    0    0  0.58582239734E+01  0.28344016175E+01 -0.40134939468E+02  0.50528856050E+02  0.29999988450E+02 0.  0.
        -12    1    1    2    0    0 -0.58582239734E+01 -0.28344016175E+01  0.40134939468E+02  0.40659143950E+02  0.00000000000E+00 0.  1.
         11    1    3    3    0    0  0.17434692992E+02 -0.11022932731E+00 -0.18118716865E+02  0.25144951209E+02  0.51100000000E-03 0. -1.
        -11    1    3    3    0    0  0.13997791353E+00 -0.27364947594E+00 -0.97052301600E-01  0.32233098257E+00  0.51100000000E-03 0.  1.
         12    1    3    3    0    0 -0.11716446932E+02  0.32182804207E+01 -0.21919170301E+02  0.25061573859E+02  0.00000000000E+00 0. -1.
</event>
<event>
 7    1  0.4962385E-011  0.5052886E+02  0.7816164E-02  0.1300439E+00
        -11   -1    0    0    0    0  0.00000000000E+00  0.00000000000E+00  0.45593999997E+02  0.45594000000E+02  0.51100000000E-03 0.  1.
         11   -1    0    0    0    0 -0.00000000000E+00 -0.00000000000E+00 -0.45593999997E+02  0.45594000000E+02  0.51100000000E-03 0. -1.
    9900012    2    1    2    0    0 -0.72566432264E+01  0.29707421085E+02 -0.26795075960E+02  0.50528857926E+02  0.29999994153E+02 0.  0.
        -12    1    1    2    0    0  0.72566432264E+01 -0.29707421085E+02  0.26795075960E+02  0.40659142074E+02  0.00000000000E+00 0.  1.
         11    1    3    3    0    0  0.20846495531E+01  0.12905063836E+02 -0.94034483980E+01  0.16103144985E+02  0.51100000000E-03 0. -1.
        -11    1    3    3    0    0 -0.58013046893E+01  0.20377912736E+01 -0.18210569302E+02  0.19220628604E+02  0.51100000000E-03 0.  1.
        -12    1    3    3    0    0 -0.35399880902E+01  0.14764565976E+02  0.81894174029E+00  0.15205084337E+02  0.00000000000E+00 0.  1.
</event>
<event>
 7    1  0.4962385E-011  0.5052887E+02  0.7816164E-02  0.1300439E+00
        -11   -1    0    0    0    0  0.00000000000E+00  0.00000000000E+00  0.45593999997E+02  0.45594000000E+02  0.51100000000E-03 0.  1.
         11   -1    0    0    0    0 -0.00000000000E+00 -0.00000000000E+00 -0.45593999997E+02  0.45594000000E+02  0.51100000000E-03 0. -1.
    9900012    2    1    2    0    0 -0.38004806015E+02 -0.12697260578E+02 -0.68977701057E+01  0.50528868937E+02  0.30000027619E+02 0.  0.
        -12    1    1    2    0    0  0.38004806015E+02  0.12697260578E+02  0.68977701057E+01  0.40659131063E+02  0.00000000000E+00 0.  1.
         11    1    3    3    0    0 -0.12911427007E+02 -0.10579630652E+02 -0.14056093360E+02  0.21822174339E+02  0.51100000000E-03 0. -1.
        -11    1    3    3    0    0 -0.75605784292E+01 -0.59616412457E+01  0.42451179205E+01  0.10522572829E+02  0.51100000000E-03 0.  1.
         12    1    3    3    0    0 -0.17532800579E+02  0.38440113194E+01  0.29132053339E+01  0.18184121768E+02  0.00000000000E+00 0. -1.
</event>
<event>
 7    1  0.4962385E-011  0.5052886E+02  0.7816164E-02  0.1300439E+00
        -11   -1    0    0    0    0  0.00000000000E+00  0.00000000000E+00  0.45593999997E+02  0.45594000000E+02  0.51100000000E-03 0.  1.
         11   -1    0    0    0    0 -0.00000000000E+00 -0.00000000000E+00 -0.45593999997E+02  0.45594000000E+02  0.51100000000E-03 0. -1.
    9900012    2    1    2    0    0  0.39325904114E+02 -0.34186944846E+01 -0.97443139623E+01  0.50528857597E+02  0.29999993152E+02 0.  0.
        -12    1    1    2    0    0 -0.39325904114E+02  0.34186944846E+01  0.97443139623E+01  0.40659142403E+02  0.00000000000E+00 0.  1.
         11    1    3    3    0    0  0.22014235423E+02  0.53109736793E+01 -0.85648001924E+01  0.24211336297E+02  0.51100000000E-03 0. -1.
        -11    1    3    3    0    0  0.97885626148E+00  0.42933593629E+01  0.25638553452E+01  0.50955322285E+01  0.51100000000E-03 0.  1.
         12    1    3    3    0    0  0.16332812429E+02 -0.13023027527E+02 -0.37433691151E+01  0.21221989071E+02  0.00000000000E+00 0. -1.
</event>
<event>
 7    1  0.4962385E-011  0.5052886E+02  0.7816164E-02  0.1300439E+00
        -11   -1    0    0    0    0  0.00000000000E+00  0.00000000000E+00  0.45593999997E+02  0.45594000000E+02  0.51100000000E-03 0. -1.
         11   -1    0    0    0    0 -0.00000000000E+00 -0.00000000000E+00 -0.45593999997E+02  0.45594000000E+02  0.51100000000E-03 0.  1.
    9900012    2    1    2    0    0 -0.28682431315E+02  0.27643487784E+02  0.81438001526E+01  0.50528858790E+02  0.29999996779E+02 0.  0.
        -12    1    1    2    0    0  0.28682431315E+02 -0.27643487784E+02 -0.81438001526E+01  0.40659141210E+02  0.00000000000E+00 0.  1.
         11    1    3    3    0    0  0.25639371735E+00  0.22686132546E+00  0.37197435639E+01  0.37354646621E+01  0.51100000000E-03 0. -1.
        -11    1    3    3    0    0 -0.18708977965E+02  0.29168926924E+02  0.84372804975E+01  0.35665667761E+02  0.51100000000E-03 0.  1.
        -12    1    3    3    0    0 -0.10229847067E+02 -0.17523004661E+01 -0.40132239088E+01  0.11127726367E+02  0.00000000000E+00 0.  1.
</event>
<event>
 7    1  0.4962385E-011  0.5052886E+02  0.7816164E-02  0.1300439E+00
        -11   -1    0    0    0    0  0.00000000000E+00  0.00000000000E+00  0.45593999997E+02  0.45594000000E+02  0.51100000000E-03 0.  1.
         11   -1    0    0    0    0 -0.00000000000E+00 -0.00000000000E+00 -0.45593999997E+02  0.45594000000E+02  0.51100000000E-03 0. -1.
    9900012    2    1    2    0    0  0.55955687702E+01  0.16216861167E+02 -0.36862838299E+02  0.50528858058E+02  0.29999994553E+02 0.  0.
        -12    1    1    2    0    0 -0.55955687702E+01 -0.16216861167E+02  0.36862838299E+02  0.40659141942E+02  0.00000000000E+00 0.  1.
         11    1    3    3    0    0  0.65478292499E+01  0.18119383067E+02 -0.32681653520E+02  0.37937798931E+02  0.51100000000E-03 0. -1.
        -11    1    3    3    0    0  0.11973692037E+00 -0.21657443879E+01 -0.81696362474E+01  0.84526766388E+01  0.51100000000E-03 0.  1.
         12    1    3    3    0    0 -0.10719974000E+01  0.26322248788E+00  0.39884514684E+01  0.41383824883E+01  0.00000000000E+00 0. -1.
</event>
<event>
 7    1  0.4962385E-011  0.5052886E+02  0.7816164E-02  0.1300439E+00
        -11   -1    0    0    0    0  0.00000000000E+00  0.00000000000E+00  0.45593999997E+02  0.45594000000E+02  0.51100000000E-03 0. -1.
         11   -1    0    0    0    0 -0.00000000000E+00 -0.00000000000E+00 -0.45593999997E+02  0.45594000000E+02  0.51100000000E-03 0.  1.
    9900012    2    1    2    0    0 -0.11166374398E+02 -0.39044810120E+02 -0.19951969060E+01  0.50528856807E+02  0.29999990750E+02 0.  0.
        -12    1    1    2    0    0  0.11166374398E+02  0.39044810120E+02  0.19951969060E+01  0.40659143193E+02  0.00000000000E+00 0.  1.
         11    1    3    3    0    0 -0.85437718131E+01 -0.38612442352E+02  0.32593747825E+01  0.39680477132E+02  0.51100000000E-03 0. -1.
        -11    1    3    3    0    0 -0.33153172064E+01  0.34092903564E+01 -0.63078499758E+00  0.47971323609E+01  0.51100000000E-03 0.  1.
         12    1    3    3    0    0  0.69271462110E+00 -0.38416581243E+01 -0.46237866909E+01  0.60512473138E+01  0.00000000000E+00 0. -1.
</event>
<event>
 7    1  0.4962385E-011  0.5052883E+02  0.7816164E-02  0.1300439E+00
        -11   -1    0    0    0    0  0.00000000000E+00  0.00000000000E+00  0.45593999997E+02  0.45594000000E+02  0.51100000000E-03 0.  1.
         11   -1    0    0    0    0 -0.00000000000E+00 -0.00000000000E+00 -0.45593999997E+02  0.45594000000E+02  0.51100000000E-03 0. -1.
    9900012    2    1    2    0    0 -0.14465969365E+02 -0.28963324620E+02 -0.24597352220E+02  0.50528829092E+02  0.29999906507E+02 0.  0.
        -12    1    1    2    0    0  0.14465969365E+02  0.28963324620E+02  0.24597352220E+02  0.40659170908E+02  0.00000000000E+00 0.  1.
         11    1    3    3    0    0  0.15673372067E+01 -0.15517286503E+02 -0.22108861437E+02  0.27056320530E+02  0.51100000000E-03 0.  1.
        -11    1    3    3    0    0 -0.10513656211E+02 -0.40180350806E+01 -0.49145440896E+01  0.12281462320E+02  0.51100000000E-03 0. -1.
         12    1    3    3    0    0 -0.55196503602E+01 -0.94280030357E+01  0.24260533060E+01  0.11191046242E+02  0.00000000000E+00 0. -1.
</event>
<event>
 7    1  0.4962385E-011  0.5052885E+02  0.7816164E-02  0.1300439E+00
        -11   -1    0    0    0    0  0.00000000000E+00  0.00000000000E+00  0.45593999997E+02  0.45594000000E+02  0.51100000000E-03 0.  1.
         11   -1    0    0    0    0 -0.00000000000E+00 -0.00000000000E+00 -0.45593999997E+02  0.45594000000E+02  0.51100000000E-03 0. -1.
    9900012    2    1    2    0    0 -0.29171405646E+02 -0.25742676682E+02 -0.11811438203E+02  0.50528851183E+02  0.29999973654E+02 0.  0.
        -12    1    1    2    0    0  0.29171405646E+02  0.25742676682E+02  0.11811438203E+02  0.40659148817E+02  0.00000000000E+00 0.  1.
         11    1    3    3    0    0 -0.21037163626E+02 -0.31396518350E+02 -0.10046424749E+02  0.39105425051E+02  0.51100000000E-03 0. -1.
        -11    1    3    3    0    0 -0.25771407440E+01  0.45503942221E+00  0.16380425252E+01  0.30873773442E+01  0.51100000000E-03 0.  1.
         12    1    3    3    0    0 -0.55571012768E+01  0.51988022457E+01 -0.34030559792E+01  0.83360487875E+01  0.00000000000E+00 0. -1.
</event>
<event>
 7    1  0.4962385E-011  0.5052884E+02  0.7816164E-02  0.1300439E+00
        -11   -1    0    0    0    0  0.00000000000E+00  0.00000000000E+00  0.45593999997E+02  0.45594000000E+02  0.51100000000E-03 0.  1.
         11   -1    0    0    0    0 -0.00000000000E+00 -0.00000000000E+00 -0.45593999997E+02  0.45594000000E+02  0.51100000000E-03 0. -1.
    9900012    2    1    2    0    0  0.20037294622E+02  0.32840189766E+02  0.13160392023E+02  0.50528841648E+02  0.29999944675E+02 0.  0.
        -12    1    1    2    0    0 -0.20037294622E+02 -0.32840189766E+02 -0.13160392023E+02  0.40659158352E+02  0.00000000000E+00 0.  1.
         11    1    3    3    0    0 -0.32038656964E+01  0.15055323578E+02  0.63166692916E+01  0.16638143966E+02  0.51100000000E-03 0. -1.
        -11    1    3    3    0    0  0.21459862104E+02  0.85487160234E+01  0.16817777145E+01  0.23161057914E+02  0.51100000000E-03 0.  1.
        -12    1    3    3    0    0  0.17812982147E+01  0.92361501652E+01  0.51619450172E+01  0.10729639769E+02  0.00000000000E+00 0.  1.
</event>
<event>
 7    1  0.4962385E-011  0.5052886E+02  0.7816164E-02  0.1300439E+00
        -11   -1    0    0    0    0  0.00000000000E+00  0.00000000000E+00  0.45593999997E+02  0.45594000000E+02  0.51100000000E-03 0. -1.
         11   -1    0    0    0    0 -0.00000000000E+00 -0.00000000000E+00 -0.45593999997E+02  0.45594000000E+02  0.51100000000E-03 0.  1.
    9900012    2    1    2    0    0  0.25024144933E+02  0.12491006313E+02  0.29511567350E+02  0.50528859874E+02  0.30000000074E+02 0.  0.
        -12    1    1    2    0    0 -0.25024144933E+02 -0.12491006313E+02 -0.29511567350E+02  0.40659140126E+02  0.00000000000E+00 0.  1.
         11    1    3    3    0    0  0.19482561949E+02 -0.10152982463E+01  0.20075341855E+02  0.27993220634E+02  0.51100000000E-03 0. -1.
        -11    1    3    3    0    0  0.71070025117E+01  0.81753656964E+01  0.12212524449E+02  0.16324577871E+02  0.51100000000E-03 0.  1.
         12    1    3    3    0    0 -0.15654195269E+01  0.53309388626E+01 -0.27762989545E+01  0.62110613696E+01  0.00000000000E+00 0. -1.
</event>
<event>
 7    1  0.4962385E-011  0.5052885E+02  0.7816164E-02  0.1300439E+00
        -11   -1    0    0    0    0  0.00000000000E+00  0.00000000000E+00  0.45593999997E+02  0.45594000000E+02  0.51100000000E-03 0.  1.
         11   -1    0    0    0    0 -0.00000000000E+00 -0.00000000000E+00 -0.45593999997E+02  0.45594000000E+02  0.51100000000E-03 0. -1.
    9900012    2    1    2    0    0  0.21494457754E+02 -0.27730063535E+02 -0.20547460908E+02  0.50528852350E+02  0.29999977204E+02 0.  0.
        -12    1    1    2    0    0 -0.21494457754E+02  0.27730063535E+02  0.20547460908E+02  0.40659147650E+02  0.00000000000E+00 0.  1.
         11    1    3    3    0    0  0.17694857065E+02 -0.21289660866E+02 -0.72376031826E+01  0.28613642313E+02  0.51100000000E-03 0. -1.
        -11    1    3    3    0    0  0.68404165915E+01  0.29950891952E+01 -0.63549424368E+01  0.98054654182E+01  0.51100000000E-03 0.  1.
         12    1    3    3    0    0 -0.30408159017E+01 -0.94354918649E+01 -0.69549152883E+01  0.12109744619E+02  0.00000000000E+00 0. -1.
</event>
<event>
 7    1  0.4962385E-011  0.5052885E+02  0.7816164E-02  0.1300439E+00
        -11   -1    0    0    0    0  0.00000000000E+00  0.00000000000E+00  0.45593999997E+02  0.45594000000E+02  0.51100000000E-03 0.  1.
         11   -1    0    0    0    0 -0.00000000000E+00 -0.00000000000E+00 -0.45593999997E+02  0.45594000000E+02  0.51100000000E-03 0. -1.
    9900012    2    1    2    0    0 -0.33151984487E+01 -0.36953869829E+02 -0.16630912007E+02  0.50528852563E+02  0.29999977851E+02 0.  0.
        -12    1    1    2    0    0  0.33151984487E+01  0.36953869829E+02  0.16630912007E+02  0.40659147437E+02  0.00000000000E+00 0.  1.
         11    1    3    3    0    0  0.12352506561E+02 -0.11918979971E+02 -0.88713895418E+01  0.19322216605E+02  0.51100000000E-03 0. -1.
        -11    1    3    3    0    0 -0.87181177116E+01 -0.17693537402E+02 -0.27210642687E+01  0.19911580381E+02  0.51100000000E-03 0.  1.
         12    1    3    3    0    0 -0.69495872977E+01 -0.73413524563E+01 -0.50384581965E+01  0.11295055577E+02  0.00000000000E+00 0. -1.
</event>
<event>
 7    1  0.4962385E-011  0.5052886E+02  0.7816164E-02  0.1300439E+00
        -11   -1    0    0    0    0  0.00000000000E+00  0.00000000000E+00  0.45593999997E+02  0.45594000000E+02  0.51100000000E-03 0. -1.
         11   -1    0    0    0    0 -0.00000000000E+00 -0.00000000000E+00 -0.45593999997E+02  0.45594000000E+02  0.51100000000E-03 0.  1.
    9900012    2    1    2    0    0 -0.91672190349E+01 -0.11246767001E+02  0.37982076059E+02  0.50528858659E+02  0.29999996381E+02 0.  0.
        -12    1    1    2    0    0  0.91672190349E+01  0.11246767001E+02 -0.37982076059E+02  0.40659141341E+02  0.00000000000E+00 0.  1.
         11    1    3    3    0    0  0.44333194006E+01  0.76663081129E+01  0.15326690839E+02  0.17701244401E+02  0.51100000000E-03 0. -1.
        -11    1    3    3    0    0 -0.49175290527E+01 -0.10702116524E+02  0.12048746361E+02  0.16849026061E+02  0.51100000000E-03 0.  1.
         12    1    3    3    0    0 -0.86830093827E+01 -0.82109585902E+01  0.10606638859E+02  0.15978588198E+02  0.00000000000E+00 0. -1.
</event>
<event>
 7    1  0.4962385E-011  0.5052887E+02  0.7816164E-02  0.1300439E+00
        -11   -1    0    0    0    0  0.00000000000E+00  0.00000000000E+00  0.45593999997E+02  0.45594000000E+02  0.51100000000E-03 0.  1.
         11   -1    0    0    0    0 -0.00000000000E+00 -0.00000000000E+00 -0.45593999997E+02  0.45594000000E+02  0.51100000000E-03 0. -1.
    9900012    2    1    2    0    0 -0.57162261823E+01 -0.90126912151E+01 -0.39233416666E+02  0.50528870300E+02  0.30000031763E+02 0.  0.
        -12    1    1    2    0    0  0.57162261823E+01  0.90126912151E+01  0.39233416666E+02  0.40659129700E+02  0.00000000000E+00 0.  1.
         11    1    3    3    0    0 -0.24857539361E+01  0.43651738040E+00 -0.38633672676E+02  0.38716019743E+02  0.51100000000E-03 0. -1.
        -11    1    3    3    0    0 -0.46621881067E+01 -0.40579065409E+01  0.16177953104E+00  0.61829423671E+01  0.51100000000E-03 0.  1.
         12    1    3    3    0    0  0.14317158604E+01 -0.53913020546E+01 -0.76152352065E+00  0.56299081894E+01  0.00000000000E+00 0. -1.
</event>
<event>
 7    1  0.4962385E-011  0.5052880E+02  0.7816164E-02  0.1300439E+00
        -11   -1    0    0    0    0  0.00000000000E+00  0.00000000000E+00  0.45593999997E+02  0.45594000000E+02  0.51100000000E-03 0.  1.
         11   -1    0    0    0    0 -0.00000000000E+00 -0.00000000000E+00 -0.45593999997E+02  0.45594000000E+02  0.51100000000E-03 0. -1.
    9900012    2    1    2    0    0 -0.26785066130E+02  0.59456455604E+01 -0.30006336877E+02  0.50528797825E+02  0.29999811468E+02 0.  0.
        -12    1    1    2    0    0  0.26785066130E+02 -0.59456455604E+01  0.30006336877E+02  0.40659202175E+02  0.00000000000E+00 0.  1.
         11    1    3    3    0    0 -0.23934963149E+02 -0.70374753103E+01 -0.20880627941E+02  0.32533200629E+02  0.51100000000E-03 0. -1.
        -11    1    3    3    0    0  0.15599659791E+01  0.24721636356E+01 -0.51531910848E+01  0.59245645843E+01  0.51100000000E-03 0.  1.
         12    1    3    3    0    0 -0.44100689609E+01  0.10510957235E+02 -0.39725178509E+01  0.12071032612E+02  0.00000000000E+00 0. -1.
</event>
<event>
 7    1  0.4962385E-011  0.5052885E+02  0.7816164E-02  0.1300439E+00
        -11   -1    0    0    0    0  0.00000000000E+00  0.00000000000E+00  0.45593999997E+02  0.45594000000E+02  0.51100000000E-03 0. -1.
         11   -1    0    0    0    0 -0.00000000000E+00 -0.00000000000E+00 -0.45593999997E+02  0.45594000000E+02  0.51100000000E-03 0.  1.
    9900012    2    1    2    0    0 -0.40060346805E+02 -0.64346374446E+00  0.69225262183E+01  0.50528846037E+02  0.29999958014E+02 0.  0.
        -12    1    1    2    0    0  0.40060346805E+02  0.64346374446E+00 -0.69225262183E+01  0.40659153963E+02  0.00000000000E+00 0.  1.
         11    1    3    3    0    0 -0.10474239162E+02  0.32716456773E+01  0.13709019615E+01  0.11058604066E+02  0.51100000000E-03 0. -1.
        -11    1    3    3    0    0 -0.37602253091E+01 -0.11125123260E+02  0.46830767069E+01  0.12642739799E+02  0.51100000000E-03 0.  1.
        -12    1    3    3    0    0 -0.25825882335E+02  0.72100138381E+01  0.86854754986E+00  0.26827502171E+02  0.00000000000E+00 0.  1.
</event>
<event>
 7    1  0.4962385E-011  0.5052886E+02  0.7816164E-02  0.1300439E+00
        -11   -1    0    0    0    0  0.00000000000E+00  0.00000000000E+00  0.45593999997E+02  0.45594000000E+02  0.51100000000E-03 0. -1.
         11   -1    0    0    0    0 -0.00000000000E+00 -0.00000000000E+00 -0.45593999997E+02  0.45594000000E+02  0.51100000000E-03 0.  1.
    9900012    2    1    2    0    0  0.14237438320E+02 -0.16837453959E+02  0.34160811684E+02  0.50528861290E+02  0.30000004377E+02 0.  0.
        -12    1    1    2    0    0 -0.14237438320E+02  0.16837453959E+02 -0.34160811684E+02  0.40659138710E+02  0.00000000000E+00 0.  1.
         11    1    3    3    0    0  0.11060659072E+02 -0.10358350519E+02  0.11429218718E+02  0.18980533326E+02  0.51100000000E-03 0. -1.
        -11    1    3    3    0    0 -0.48687207094E+01 -0.45545509190E+01  0.22288202723E+02  0.23263971206E+02  0.51100000000E-03 0.  1.
        -12    1    3    3    0    0  0.80454999579E+01 -0.19245525211E+01  0.44339024277E+00  0.82843567575E+01  0.00000000000E+00 0.  1.
</event>
<event>
 7    1  0.4962385E-011  0.5052887E+02  0.7816164E-02  0.1300439E+00
        -11   -1    0    0    0    0  0.00000000000E+00  0.00000000000E+00  0.45593999997E+02  0.45594000000E+02  0.51100000000E-03 0.  1.
         11   -1    0    0    0    0 -0.00000000000E+00 -0.00000000000E+00 -0.45593999997E+02  0.45594000000E+02  0.51100000000E-03 0. -1.
    9900012    2    1    2    0    0  0.25158590168E+02 -0.31448744459E+02 -0.55845018963E+01  0.50528870045E+02  0.30000030988E+02 0.  0.
        -12    1    1    2    0    0 -0.25158590168E+02  0.31448744459E+02  0.55845018963E+01  0.40659129955E+02  0.00000000000E+00 0.  1.
         11    1    3    3    0    0  0.19599024008E+01 -0.20813585755E+02  0.31190046866E+01  0.21137047095E+02  0.51100000000E-03 0. -1.
        -11    1    3    3    0    0  0.12313507027E+02  0.71999947095E+00 -0.42006215519E+01  0.13030198626E+02  0.51100000000E-03 0.  1.
         12    1    3    3    0    0  0.10885180741E+02 -0.11355158174E+02 -0.45028850309E+01  0.16361624324E+02  0.00000000000E+00 0. -1.
</event>
<event>
 7    1  0.4962385E-011  0.5052887E+02  0.7816164E-02  0.1300439E+00
        -11   -1    0    0    0    0  0.00000000000E+00  0.00000000000E+00  0.45593999997E+02  0.45594000000E+02  0.51100000000E-03 0.  1.
         11   -1    0    0    0    0 -0.00000000000E+00 -0.00000000000E+00 -0.45593999997E+02  0.45594000000E+02  0.51100000000E-03 0. -1.
    9900012    2    1    2    0    0 -0.19425187444E+02 -0.34501185315E+00 -0.35717052899E+02  0.50528870543E+02  0.30000032502E+02 0.  0.
        -12    1    1    2    0    0  0.19425187444E+02  0.34501185315E+00  0.35717052899E+02  0.40659129457E+02  0.00000000000E+00 0.  1.
         11    1    3    3    0    0  0.63199707822E+01  0.17647188096E+01 -0.60533698244E+01  0.89274604259E+01  0.51100000000E-03 0.  1.
        -11    1    3    3    0    0 -0.20241302405E+02 -0.69013951395E+01 -0.25182868946E+02  0.33038106279E+02  0.51100000000E-03 0. -1.
         12    1    3    3    0    0 -0.55038558212E+01  0.47916644768E+01 -0.44808141291E+01  0.85633038378E+01  0.00000000000E+00 0. -1.
</event>
<event>
 7    1  0.4962385E-011  0.5052886E+02  0.7816164E-02  0.1300439E+00
        -11   -1    0    0    0    0  0.00000000000E+00  0.00000000000E+00  0.45593999997E+02  0.45594000000E+02  0.51100000000E-03 0.  1.
         11   -1    0    0    0    0 -0.00000000000E+00 -0.00000000000E+00 -0.45593999997E+02  0.45594000000E+02  0.51100000000E-03 0. -1.
    9900012    2    1    2    0    0  0.33719421769E+02 -0.20007716368E+02 -0.10763726441E+02  0.50528856802E+02  0.29999990736E+02 0.  0.
        -12    1    1    2    0    0 -0.33719421769E+02  0.20007716368E+02  0.10763726441E+02  0.40659143198E+02  0.00000000000E+00 0.  1.
         11    1    3    3    0    0  0.12834911854E+02 -0.16989638856E+02  0.62150338529E+01  0.22181285734E+02  0.51100000000E-03 0.  1.
        -11    1    3    3    0    0  0.14558692259E+02  0.16881354547E+01 -0.94022409887E+01  0.17412853227E+02  0.51100000000E-03 0. -1.
         12    1    3    3    0    0  0.63258176548E+01 -0.47062129669E+01 -0.75765193056E+01  0.10934717842E+02  0.00000000000E+00 0. -1.
</event>
<event>
 7    1  0.6540399E-011  0.5052886E+02  0.7816164E-02  0.1300439E+00
        -11   -1    0    0    0    0  0.00000000000E+00  0.00000000000E+00  0.45593999997E+02  0.45594000000E+02  0.51100000000E-03 0.  1.
         11   -1    0    0    0    0 -0.00000000000E+00 -0.00000000000E+00 -0.45593999997E+02  0.45594000000E+02  0.51100000000E-03 0. -1.
    9900012    2    1    2    0    0 -0.43783470493E+01 -0.32273648570E+02 -0.24339423024E+02  0.50528858002E+02  0.29999994382E+02 0.  0.
        -12    1    1    2    0    0  0.43783470493E+01  0.32273648570E+02  0.24339423024E+02  0.40659141998E+02  0.00000000000E+00 0.  1.
         11    1    3    3    0    0 -0.10560563082E+02 -0.21096887077E+02 -0.14116735189E+02  0.27493387379E+02  0.51100000000E-03 0. -1.
        -11    1    3    3    0    0  0.15419128040E+01  0.40107158447E+01 -0.43208739369E+01  0.60937089299E+01  0.51100000000E-03 0.  1.
        -12    1    3    3    0    0  0.46403032287E+01 -0.15187477338E+02 -0.59018138981E+01  0.16941761692E+02  0.00000000000E+00 0.  1.
</event>
<event>
 7    1  0.4962385E-011  0.5052886E+02  0.7816164E-02  0.1300439E+00
        -11   -1    0    0    0    0  0.00000000000E+00  0.00000000000E+00  0.45593999997E+02  0.45594000000E+02  0.51100000000E-03 0. -1.
         11   -1    0    0    0    0 -0.00000000000E+00 -0.00000000000E+00 -0.45593999997E+02  0.45594000000E+02  0.51100000000E-03 0.  1.
    9900012    2    1    2    0    0 -0.33856174643E+02 -0.22514204817E+02 -0.18982162487E+00  0.50528855737E+02  0.29999987498E+02 0.  0.
        -12    1    1    2    0    0  0.33856174643E+02  0.22514204817E+02  0.18982162487E+00  0.40659144263E+02  0.00000000000E+00 0.  1.
         11    1    3    3    0    0 -0.92334305924E+01 -0.23039531136E+01  0.18349614577E+01  0.96918277052E+01  0.51100000000E-03 0. -1.
        -11    1    3    3    0    0 -0.10507453286E+02 -0.58074010542E+01 -0.13149511614E+02  0.17805677114E+02  0.51100000000E-03 0.  1.
        -12    1    3    3    0    0 -0.14115290765E+02 -0.14402850649E+02  0.11124728531E+02  0.23031350917E+02  0.00000000000E+00 0.  1.
</event>
<event>
 7    1  0.4962385E-011  0.5052885E+02  0.7816164E-02  0.1300439E+00
        -11   -1    0    0    0    0  0.00000000000E+00  0.00000000000E+00  0.45593999997E+02  0.45594000000E+02  0.51100000000E-03 0.  1.
         11   -1    0    0    0    0 -0.00000000000E+00 -0.00000000000E+00 -0.45593999997E+02  0.45594000000E+02  0.51100000000E-03 0. -1.
    9900012    2    1    2    0    0  0.13965494841E+02  0.89187522433E+01 -0.37129326526E+02  0.50528854953E+02  0.29999985114E+02 0.  0.
        -12    1    1    2    0    0 -0.13965494841E+02 -0.89187522433E+01  0.37129326526E+02  0.40659145047E+02  0.00000000000E+00 0.  1.
         11    1    3    3    0    0  0.18866851481E+01  0.17618069090E+02 -0.25489946778E+02  0.31043410353E+02  0.51100000000E-03 0. -1.
        -11    1    3    3    0    0  0.88306731389E+01 -0.69334192117E+01 -0.59667616135E+01  0.12714375111E+02  0.51100000000E-03 0.  1.
         12    1    3    3    0    0  0.32481365535E+01 -0.17658976350E+01 -0.56726181342E+01  0.67710694889E+01  0.00000000000E+00 0. -1.
</event>
<event>
 7    1  0.4962385E-011  0.5052886E+02  0.7816164E-02  0.1300439E+00
        -11   -1    0    0    0    0  0.00000000000E+00  0.00000000000E+00  0.45593999997E+02  0.45594000000E+02  0.51100000000E-03 0. -1.
         11   -1    0    0    0    0 -0.00000000000E+00 -0.00000000000E+00 -0.45593999997E+02  0.45594000000E+02  0.51100000000E-03 0.  1.
    9900012    2    1    2    0    0  0.28298418959E+02  0.66499504338E+01  0.28427864989E+02  0.50528857558E+02  0.29999993032E+02 0.  0.
        -12    1    1    2    0    0 -0.28298418959E+02 -0.66499504338E+01 -0.28427864989E+02  0.40659142442E+02  0.00000000000E+00 0.  1.
         11    1    3    3    0    0  0.18263933989E+02 -0.50336689211E+00  0.17529090810E+01  0.18354763782E+02  0.51100000000E-03 0. -1.
        -11    1    3    3    0    0 -0.48040670408E+00 -0.23818886850E+01  0.99272964804E+01  0.10220342459E+02  0.51100000000E-03 0.  1.
         12    1    3    3    0    0  0.10514891674E+02  0.95352060110E+01  0.16747659427E+02  0.21953751316E+02  0.00000000000E+00 0. -1.
</event>
<event>
 7    1  0.4962385E-011  0.5052887E+02  0.7816164E-02  0.1300439E+00
        -11   -1    0    0    0    0  0.00000000000E+00  0.00000000000E+00  0.45593999997E+02  0.45594000000E+02  0.51100000000E-03 0.  1.
         11   -1    0    0    0    0 -0.00000000000E+00 -0.00000000000E+00 -0.45593999997E+02  0.45594000000E+02  0.51100000000E-03 0. -1.
    9900012    2    1    2    0    0  0.16166902843E+02  0.17766612348E+02 -0.32804632959E+02  0.50528865658E+02  0.30000017654E+02 0.  0.
        -12    1    1    2    0    0 -0.16166902843E+02 -0.17766612348E+02  0.32804632959E+02  0.40659134342E+02  0.00000000000E+00 0.  1.
         11    1    3    3    0    0  0.17618355737E+02  0.14959625521E+02 -0.22132517097E+02  0.32000705741E+02  0.51100000000E-03 0. -1.
        -11    1    3    3    0    0 -0.47581838794E+01  0.83057133714E+00 -0.13108462922E+02  0.13970038046E+02  0.51100000000E-03 0.  1.
        -12    1    3    3    0    0  0.33067309851E+01  0.19764154896E+01  0.24363470593E+01  0.45581218707E+01  0.00000000000E+00 0.  1.
</event>
<event>
 7    1  0.4962385E-011  0.5052886E+02  0.7816164E-02  0.1300439E+00
        -11   -1    0    0    0    0  0.00000000000E+00  0.00000000000E+00  0.45593999997E+02  0.45594000000E+02  0.51100000000E-03 0. -1.
         11   -1    0    0    0    0 -0.00000000000E+00 -0.00000000000E+00 -0.45593999997E+02  0.45594000000E+02  0.51100000000E-03 0.  1.
    9900012    2    1    2    0    0  0.28980425659E+02 -0.46143161897E+01  0.28142649940E+02  0.50528859195E+02  0.29999998010E+02 0.  0.
        -12    1    1    2    0    0 -0.28980425659E+02  0.46143161897E+01 -0.28142649940E+02  0.40659140805E+02  0.00000000000E+00 0.  1.
         11    1    3    3    0    0  0.19711761710E+02  0.45978377970E+01  0.18105117044E+02  0.27156747330E+02  0.51100000000E-03 0. -1.
        -11    1    3    3    0    0  0.47094157753E+01 -0.98891702878E+01 -0.13984571608E+01  0.11042190390E+02  0.51100000000E-03 0.  1.
         12    1    3    3    0    0  0.45592481740E+01  0.67701630111E+00  0.11435990057E+02  0.12329921475E+02  0.00000000000E+00 0. -1.
</event>
<event>
 7    1  0.4962385E-011  0.5052886E+02  0.7816164E-02  0.1300439E+00
        -11   -1    0    0    0    0  0.00000000000E+00  0.00000000000E+00  0.45593999997E+02  0.45594000000E+02  0.51100000000E-03 0. -1.
         11   -1    0    0    0    0 -0.00000000000E+00 -0.00000000000E+00 -0.45593999997E+02  0.45594000000E+02  0.51100000000E-03 0.  1.
    9900012    2    1    2    0    0  0.25418865492E+01 -0.38349990657E+02 -0.13265855511E+02  0.50528857202E+02  0.29999991951E+02 0.  0.
        -12    1    1    2    0    0 -0.25418865492E+01  0.38349990657E+02  0.13265855511E+02  0.40659142798E+02  0.00000000000E+00 0.  1.
         11    1    3    3    0    0  0.14278045392E+02 -0.12129002200E+02 -0.77929603432E+01  0.20290527488E+02  0.51100000000E-03 0. -1.
        -11    1    3    3    0    0 -0.62868385049E+01 -0.16811879101E+02 -0.69856619078E+01  0.19260402120E+02  0.51100000000E-03 0.  1.
         12    1    3    3    0    0 -0.54493203380E+01 -0.94091093569E+01  0.15127667401E+01  0.10977927593E+02  0.00000000000E+00 0. -1.
</event>
<event>
 7    1  0.4962385E-011  0.5052885E+02  0.7816164E-02  0.1300439E+00
        -11   -1    0    0    0    0  0.00000000000E+00  0.00000000000E+00  0.45593999997E+02  0.45594000000E+02  0.51100000000E-03 0.  1.
         11   -1    0    0    0    0 -0.00000000000E+00 -0.00000000000E+00 -0.45593999997E+02  0.45594000000E+02  0.51100000000E-03 0. -1.
    9900012    2    1    2    0    0 -0.23372997551E+02 -0.26263885570E+02  0.20422473964E+02  0.50528854134E+02  0.29999982625E+02 0.  0.
        -12    1    1    2    0    0  0.23372997551E+02  0.26263885570E+02 -0.20422473964E+02  0.40659145866E+02  0.00000000000E+00 0.  1.
         11    1    3    3    0    0 -0.16237890246E+02 -0.95528359691E+01  0.81612615676E+01  0.20531243151E+02  0.51100000000E-03 0. -1.
        -11    1    3    3    0    0  0.51212390390E+01 -0.11688915209E+02  0.10712895745E+02  0.16662051602E+02  0.51100000000E-03 0.  1.
        -12    1    3    3    0    0 -0.12256346344E+02 -0.50221343918E+01  0.15483166508E+01  0.13335559381E+02  0.00000000000E+00 0.  1.
</event>
<event>
 7    1  0.4962385E-011  0.5052886E+02  0.7816164E-02  0.1300439E+00
        -11   -1    0    0    0    0  0.00000000000E+00  0.00000000000E+00  0.45593999997E+02  0.45594000000E+02  0.51100000000E-03 0. -1.
         11   -1    0    0    0    0 -0.00000000000E+00 -0.00000000000E+00 -0.45593999997E+02  0.45594000000E+02  0.51100000000E-03 0.  1.
    9900012    2    1    2    0    0  0.86131755681E+01  0.39282660186E+02  0.59876270915E+01  0.50528857574E+02  0.29999993082E+02 0.  0.
        -12    1    1    2    0    0 -0.86131755681E+01 -0.39282660186E+02 -0.59876270915E+01  0.40659142426E+02  0.00000000000E+00 0.  1.
         11    1    3    3    0    0  0.14658236011E+02  0.39785302031E+02  0.84455550163E+01  0.43232644384E+02  0.51100000000E-03 0. -1.
        -11    1    3    3    0    0 -0.35268939456E+01  0.13150037492E+01 -0.13359412346E+01  0.39941150469E+01  0.51100000000E-03 0.  1.
         12    1    3    3    0    0 -0.25181664975E+01 -0.18176455943E+01 -0.11219866903E+01  0.33020981434E+01  0.00000000000E+00 0. -1.
</event>
<event>
 7    1  0.4962385E-011  0.5052894E+02  0.7816164E-02  0.1300439E+00
        -11   -1    0    0    0    0  0.00000000000E+00  0.00000000000E+00  0.45593999997E+02  0.45594000000E+02  0.51100000000E-03 0.  1.
         11   -1    0    0    0    0 -0.00000000000E+00 -0.00000000000E+00 -0.45593999997E+02  0.45594000000E+02  0.51100000000E-03 0. -1.
    9900012    2    1    2    0    0 -0.31382967354E+02 -0.11168400826E+02 -0.23313851631E+02  0.50528935884E+02  0.30000231111E+02 0.  0.
        -12    1    1    2    0    0  0.31382967354E+02  0.11168400826E+02  0.23313851631E+02  0.40659064116E+02  0.00000000000E+00 0.  1.
         11    1    3    3    0    0 -0.26392999281E+01  0.75345955904E+01 -0.87668263407E+01  0.11857203683E+02  0.51100000000E-03 0. -1.
        -11    1    3    3    0    0 -0.18088936524E+02 -0.69297316866E+01 -0.45171530631E+01  0.19890587671E+02  0.51100000000E-03 0.  1.
         12    1    3    3    0    0 -0.10654730901E+02 -0.11773264730E+02 -0.10029872227E+02  0.18781144530E+02  0.00000000000E+00 0. -1.
</event>
<event>
 7    1  0.4962385E-011  0.5052886E+02  0.7816164E-02  0.1300439E+00
        -11   -1    0    0    0    0  0.00000000000E+00  0.00000000000E+00  0.45593999997E+02  0.45594000000E+02  0.51100000000E-03 0. -1.
         11   -1    0    0    0    0 -0.00000000000E+00 -0.00000000000E+00 -0.45593999997E+02  0.45594000000E+02  0.51100000000E-03 0.  1.
    9900012    2    1    2    0    0  0.92950685647E+01  0.39114868093E+02 -0.60658203096E+01  0.50528863492E+02  0.30000011070E+02 0.  0.
        -12    1    1    2    0    0 -0.92950685647E+01 -0.39114868093E+02  0.60658203096E+01  0.40659136508E+02  0.00000000000E+00 0.  1.
         11    1    3    3    0    0  0.12315238147E+02  0.32475358683E+02 -0.35203790664E+01  0.34909985409E+02  0.51100000000E-03 0. -1.
        -11    1    3    3    0    0 -0.31289435078E+00 -0.35063859231E+01  0.21403902735E+01  0.41199412496E+01  0.51100000000E-03 0.  1.
         12    1    3    3    0    0 -0.27072752317E+01  0.10145895333E+02 -0.46858315167E+01  0.11498936833E+02  0.00000000000E+00 0. -1.
</event>
<event>
 7    1  0.4962385E-011  0.5052885E+02  0.7816164E-02  0.1300439E+00
        -11   -1    0    0    0    0  0.00000000000E+00  0.00000000000E+00  0.45593999997E+02  0.45594000000E+02  0.51100000000E-03 0. -1.
         11   -1    0    0    0    0 -0.00000000000E+00 -0.00000000000E+00 -0.45593999997E+02  0.45594000000E+02  0.51100000000E-03 0.  1.
    9900012    2    1    2    0    0 -0.40667043304E+01  0.40154635933E+02  0.49227230262E+01  0.50528854989E+02  0.29999985224E+02 0.  0.
        -12    1    1    2    0    0  0.40667043304E+01 -0.40154635933E+02 -0.49227230262E+01  0.40659145011E+02  0.00000000000E+00 0.  1.
         11    1    3    3    0    0 -0.12478428393E+02  0.11770094546E+02  0.70183807137E+01  0.18533860065E+02  0.51100000000E-03 0.  1.
        -11    1    3    3    0    0  0.26226200365E+01 -0.21160932930E+00  0.58650456249E+00  0.26957192411E+01  0.51100000000E-03 0. -1.
         12    1    3    3    0    0  0.57891040264E+01  0.28596150716E+02 -0.26821622500E+01  0.29299275683E+02  0.00000000000E+00 0. -1.
</event>
<event>
 7    1  0.4962385E-011  0.5052886E+02  0.7816164E-02  0.1300439E+00
        -11   -1    0    0    0    0  0.00000000000E+00  0.00000000000E+00  0.45593999997E+02  0.45594000000E+02  0.51100000000E-03 0. -1.
         11   -1    0    0    0    0 -0.00000000000E+00 -0.00000000000E+00 -0.45593999997E+02  0.45594000000E+02  0.51100000000E-03 0.  1.
    9900012    2    1    2    0    0  0.21455503748E+02 -0.34519582967E+02  0.11069554945E+01  0.50528860809E+02  0.30000002914E+02 0.  0.
        -12    1    1    2    0    0 -0.21455503748E+02  0.34519582967E+02 -0.11069554945E+01  0.40659139191E+02  0.00000000000E+00 0.  1.
         11    1    3    3    0    0  0.20637163544E+02 -0.20078750805E+02  0.50122423232E+01  0.29226209580E+02  0.51100000000E-03 0. -1.
        -11    1    3    3    0    0 -0.23506646571E+01 -0.83761196112E+01 -0.91915460082E+01  0.12655809826E+02  0.51100000000E-03 0.  1.
        -12    1    3    3    0    0  0.31690048609E+01 -0.60647125512E+01  0.52862591795E+01  0.86468414031E+01  0.00000000000E+00 0.  1.
</event>
<event>
 7    1  0.4962385E-011  0.5052887E+02  0.7816164E-02  0.1300439E+00
        -11   -1    0    0    0    0  0.00000000000E+00  0.00000000000E+00  0.45593999997E+02  0.45594000000E+02  0.51100000000E-03 0.  1.
         11   -1    0    0    0    0 -0.00000000000E+00 -0.00000000000E+00 -0.45593999997E+02  0.45594000000E+02  0.51100000000E-03 0. -1.
    9900012    2    1    2    0    0  0.29441508071E+02  0.26281266457E+02  0.97804565190E+01  0.50528871949E+02  0.30000036777E+02 0.  0.
        -12    1    1    2    0    0 -0.29441508071E+02 -0.26281266457E+02 -0.97804565190E+01  0.40659128051E+02  0.00000000000E+00 0.  1.
         11    1    3    3    0    0  0.16464815344E+02 -0.29524777331E+01  0.69798726755E+01  0.18125283223E+02  0.51100000000E-03 0. -1.
        -11    1    3    3    0    0  0.25254441318E+01  0.10259423055E+02  0.18026393063E+01  0.10718355201E+02  0.51100000000E-03 0.  1.
         12    1    3    3    0    0  0.10451248595E+02  0.18974321136E+02  0.99794453726E+00  0.21685233526E+02  0.00000000000E+00 0. -1.
</event>
<event>
 7    1  0.4962385E-011  0.5052886E+02  0.7816164E-02  0.1300439E+00
        -11   -1    0    0    0    0  0.00000000000E+00  0.00000000000E+00  0.45593999997E+02  0.45594000000E+02  0.51100000000E-03 0.  1.
         11   -1    0    0    0    0 -0.00000000000E+00 -0.00000000000E+00 -0.45593999997E+02  0.45594000000E+02  0.51100000000E-03 0. -1.
    9900012    2    1    2    0    0  0.20970649458E+02 -0.32279647472E+02  0.13092832546E+02  0.50528855350E+02  0.29999986322E+02 0.  0.
        -12    1    1    2    0    0 -0.20970649458E+02  0.32279647472E+02 -0.13092832546E+02  0.40659144650E+02  0.00000000000E+00 0.  1.
         11    1    3    3    0    0  0.24846458592E+02 -0.15657532567E+02  0.13133930933E+02  0.32171493168E+02  0.51100000000E-03 0. -1.
        -11    1    3    3    0    0 -0.77776197623E+00 -0.12136061405E+02 -0.24362499935E+01  0.12402589020E+02  0.51100000000E-03 0.  1.
        -12    1    3    3    0    0 -0.30980471574E+01 -0.44860534996E+01  0.23951516062E+01  0.59547731617E+01  0.00000000000E+00 0.  1.
</event>
<event>
 7    1  0.4962385E-011  0.5052887E+02  0.7816164E-02  0.1300439E+00
        -11   -1    0    0    0    0  0.00000000000E+00  0.00000000000E+00  0.45593999997E+02  0.45594000000E+02  0.51100000000E-03 0. -1.
         11   -1    0    0    0    0 -0.00000000000E+00 -0.00000000000E+00 -0.45593999997E+02  0.45594000000E+02  0.51100000000E-03 0.  1.
    9900012    2    1    2    0    0 -0.36502903872E+02 -0.61314051833E+01  0.16825833949E+02  0.50528870537E+02  0.30000032483E+02 0.  0.
        -12    1    1    2    0    0  0.36502903872E+02  0.61314051833E+01 -0.16825833949E+02  0.40659129463E+02  0.00000000000E+00 0.  1.
         11    1    3    3    0    0 -0.31538431992E+02  0.75613019155E+01  0.10630933032E+02  0.34130085212E+02  0.51100000000E-03 0. -1.
        -11    1    3    3    0    0 -0.17864522724E+01 -0.75877244925E+01  0.11824338858E+01  0.78843595080E+01  0.51100000000E-03 0.  1.
         12    1    3    3    0    0 -0.31780196076E+01 -0.61049826063E+01  0.50124670306E+01  0.85144258163E+01  0.00000000000E+00 0. -1.
</event>
<event>
 7    1  0.4962385E-011  0.5052885E+02  0.7816164E-02  0.1300439E+00
        -11   -1    0    0    0    0  0.00000000000E+00  0.00000000000E+00  0.45593999997E+02  0.45594000000E+02  0.51100000000E-03 0. -1.
         11   -1    0    0    0    0 -0.00000000000E+00 -0.00000000000E+00 -0.45593999997E+02  0.45594000000E+02  0.51100000000E-03 0.  1.
    9900012    2    1    2    0    0 -0.38627104411E+02 -0.80583231996E+01  0.98069523452E+01  0.50528854875E+02  0.29999984878E+02 0.  0.
        -12    1    1    2    0    0  0.38627104411E+02  0.80583231996E+01 -0.98069523452E+01  0.40659145125E+02  0.00000000000E+00 0.  1.
         11    1    3    3    0    0 -0.87833489257E+01 -0.35471627004E+01  0.82772615006E+01  0.12579453080E+02  0.51100000000E-03 0. -1.
        -11    1    3    3    0    0 -0.15704337496E+02 -0.22706497710E-01 -0.10465328254E+02  0.18871932267E+02  0.51100000000E-03 0.  1.
        -12    1    3    3    0    0 -0.14139417990E+02 -0.44884540015E+01  0.11995019099E+02  0.19077469528E+02  0.00000000000E+00 0.  1.
</event>
<event>
 7    1  0.4962385E-011  0.5052891E+02  0.7816164E-02  0.1300439E+00
        -11   -1    0    0    0    0  0.00000000000E+00  0.00000000000E+00  0.45593999997E+02  0.45594000000E+02  0.51100000000E-03 0. -1.
         11   -1    0    0    0    0 -0.00000000000E+00 -0.00000000000E+00 -0.45593999997E+02  0.45594000000E+02  0.51100000000E-03 0.  1.
    9900012    2    1    2    0    0  0.58278082133E+00 -0.25509857512E+02  0.31655474291E+02  0.50528911024E+02  0.30000155549E+02 0.  0.
        -12    1    1    2    0    0 -0.58278082133E+00  0.25509857512E+02 -0.31655474291E+02  0.40659088976E+02  0.00000000000E+00 0.  1.
         11    1    3    3    0    0  0.16220099554E+01 -0.12242524441E+02  0.12356032811E+02  0.17469455288E+02  0.51100000000E-03 0. -1.
        -11    1    3    3    0    0 -0.69639314986E+00  0.14560454053E+01 -0.46622387460E+01  0.49337107766E+01  0.51100000000E-03 0.  1.
        -12    1    3    3    0    0 -0.34283598423E+00 -0.14723378476E+02  0.23961680227E+02  0.28125744960E+02  0.00000000000E+00 0.  1.
</event>
<event>
 7    1  0.4962385E-011  0.5052886E+02  0.7816164E-02  0.1300439E+00
        -11   -1    0    0    0    0  0.00000000000E+00  0.00000000000E+00  0.45593999997E+02  0.45594000000E+02  0.51100000000E-03 0.  1.
         11   -1    0    0    0    0 -0.00000000000E+00 -0.00000000000E+00 -0.45593999997E+02  0.45594000000E+02  0.51100000000E-03 0. -1.
    9900012    2    1    2    0    0 -0.33051250502E+02 -0.23663436318E+02 -0.90680551301E+00  0.50528859891E+02  0.30000000125E+02 0.  0.
        -12    1    1    2    0    0  0.33051250502E+02  0.23663436318E+02  0.90680551301E+00  0.40659140109E+02  0.00000000000E+00 0.  1.
         11    1    3    3    0    0 -0.13651755324E+02 -0.11274199140E+02 -0.13997801447E+02  0.22570255543E+02  0.51100000000E-03 0. -1.
        -11    1    3    3    0    0 -0.16397798049E+02 -0.59309421055E+01  0.10637899063E+02  0.20426178102E+02  0.51100000000E-03 0.  1.
         12    1    3    3    0    0 -0.30016971293E+01 -0.64582950726E+01  0.24530968708E+01  0.75324262465E+01  0.00000000000E+00 0. -1.
</event>
<event>
 7    1  0.4962385E-011  0.5052883E+02  0.7816164E-02  0.1300439E+00
        -11   -1    0    0    0    0  0.00000000000E+00  0.00000000000E+00  0.45593999997E+02  0.45594000000E+02  0.51100000000E-03 0. -1.
         11   -1    0    0    0    0 -0.00000000000E+00 -0.00000000000E+00 -0.45593999997E+02  0.45594000000E+02  0.51100000000E-03 0.  1.
    9900012    2    1    2    0    0 -0.50817577615E+01  0.39448706211E+02 -0.84346334149E+01  0.50528834680E+02  0.29999923493E+02 0.  0.
        -12    1    1    2    0    0  0.50817577615E+01 -0.39448706211E+02  0.84346334149E+01  0.40659165320E+02  0.00000000000E+00 0.  1.
         11    1    3    3    0    0  0.48730842436E+01  0.42173379178E+01  0.29542746371E+01  0.70894730447E+01  0.51100000000E-03 0. -1.
        -11    1    3    3    0    0 -0.10839810902E+02  0.37199055230E+02 -0.82246494998E+01  0.39609545189E+02  0.51100000000E-03 0.  1.
        -12    1    3    3    0    0  0.88496889659E+00 -0.19676869366E+01 -0.31642585522E+01  0.38298164465E+01  0.00000000000E+00 0.  1.
</event>
<event>
 7    1  0.4962385E-011  0.5052885E+02  0.7816164E-02  0.1300439E+00
        -11   -1    0    0    0    0  0.00000000000E+00  0.00000000000E+00  0.45593999997E+02  0.45594000000E+02  0.51100000000E-03 0.  1.
         11   -1    0    0    0    0 -0.00000000000E+00 -0.00000000000E+00 -0.45593999997E+02  0.45594000000E+02  0.51100000000E-03 0. -1.
    9900012    2    1    2    0    0 -0.50292980769E+01 -0.36618992769E+02 -0.16938762298E+02  0.50528854181E+02  0.29999982767E+02 0.  0.
        -12    1    1    2    0    0  0.50292980769E+01  0.36618992769E+02  0.16938762298E+02  0.40659145819E+02  0.00000000000E+00 0.  1.
         11    1    3    3    0    0 -0.74959918117E-01 -0.32981543790E+02 -0.19983597690E+02  0.38563350822E+02  0.51100000000E-03 0. -1.
        -11    1    3    3    0    0 -0.10151149870E+01 -0.35638250941E+01  0.59920236137E+01  0.70452576238E+01  0.51100000000E-03 0.  1.
         12    1    3    3    0    0 -0.39392231717E+01 -0.73623885339E-01 -0.29471882219E+01  0.49202457346E+01  0.00000000000E+00 0. -1.
</event>
<event>
 7    1  0.4962385E-011  0.5052886E+02  0.7816164E-02  0.1300439E+00
        -11   -1    0    0    0    0  0.00000000000E+00  0.00000000000E+00  0.45593999997E+02  0.45594000000E+02  0.51100000000E-03 0. -1.
         11   -1    0    0    0    0 -0.00000000000E+00 -0.00000000000E+00 -0.45593999997E+02  0.45594000000E+02  0.51100000000E-03 0.  1.
    9900012    2    1    2    0    0  0.22919085529E+02  0.32554123241E+02 -0.82529011040E+01  0.50528858369E+02  0.29999995499E+02 0.  0.
        -12    1    1    2    0    0 -0.22919085529E+02 -0.32554123241E+02  0.82529011040E+01  0.40659141631E+02  0.00000000000E+00 0.  1.
         11    1    3    3    0    0  0.19570963512E+02  0.35753748306E+02 -0.20626037265E+01  0.40811854468E+02  0.51100000000E-03 0. -1.
        -11    1    3    3    0    0  0.44798856680E+00  0.12264180773E+01 -0.35919906263E+01  0.38219356323E+01  0.51100000000E-03 0.  1.
         12    1    3    3    0    0  0.29001334502E+01 -0.44260431418E+01 -0.25983067512E+01  0.58950682689E+01  0.00000000000E+00 0. -1.
</event>
<event>
 7    1  0.4962385E-011  0.5052886E+02  0.7816164E-02  0.1300439E+00
        -11   -1    0    0    0    0  0.00000000000E+00  0.00000000000E+00  0.45593999997E+02  0.45594000000E+02  0.51100000000E-03 0. -1.
         11   -1    0    0    0    0 -0.00000000000E+00 -0.00000000000E+00 -0.45593999997E+02  0.45594000000E+02  0.51100000000E-03 0.  1.
    9900012    2    1    2    0    0 -0.15849546993E+02  0.15611431343E+02  0.34032941406E+02  0.50528855528E+02  0.29999986864E+02 0.  0.
        -12    1    1    2    0    0  0.15849546993E+02 -0.15611431343E+02 -0.34032941406E+02  0.40659144472E+02  0.00000000000E+00 0.  1.
         11    1    3    3    0    0 -0.41249222531E+01 -0.52027970846E+01  0.11692776357E+00  0.66406139370E+01  0.51100000000E-03 0.  1.
        -11    1    3    3    0    0 -0.80961800262E+01  0.13701606685E+02  0.10295530869E+02  0.18954685777E+02  0.51100000000E-03 0. -1.
         12    1    3    3    0    0 -0.36284447134E+01  0.71126217417E+01  0.23620482774E+02  0.24933555814E+02  0.00000000000E+00 0. -1.
</event>
<event>
 7    1  0.5788106E-011  0.5052886E+02  0.7816164E-02  0.1300439E+00
        -11   -1    0    0    0    0  0.00000000000E+00  0.00000000000E+00  0.45593999997E+02  0.45594000000E+02  0.51100000000E-03 0. -1.
         11   -1    0    0    0    0 -0.00000000000E+00 -0.00000000000E+00 -0.45593999997E+02  0.45594000000E+02  0.51100000000E-03 0.  1.
    9900012    2    1    2    0    0 -0.22136539270E+02 -0.23015097298E+02  0.25168325290E+02  0.50528859916E+02  0.30000000200E+02 0.  0.
        -12    1    1    2    0    0  0.22136539270E+02  0.23015097298E+02 -0.25168325290E+02  0.40659140084E+02  0.00000000000E+00 0.  1.
         11    1    3    3    0    0 -0.72676621259E+01 -0.52610073379E+01  0.20343249884E+02  0.22233868919E+02  0.51100000000E-03 0. -1.
        -11    1    3    3    0    0 -0.16930982871E+02 -0.10706194484E+02  0.11033631296E+01  0.20062357582E+02  0.51100000000E-03 0.  1.
        -12    1    3    3    0    0  0.20621057270E+01 -0.70478954768E+01  0.37217122760E+01  0.82326334150E+01  0.00000000000E+00 0.  1.
</event>
<event>
 7    1  0.4962385E-011  0.5052886E+02  0.7816164E-02  0.1300439E+00
        -11   -1    0    0    0    0  0.00000000000E+00  0.00000000000E+00  0.45593999997E+02  0.45594000000E+02  0.51100000000E-03 0.  1.
         11   -1    0    0    0    0 -0.00000000000E+00 -0.00000000000E+00 -0.45593999997E+02  0.45594000000E+02  0.51100000000E-03 0. -1.
    9900012    2    1    2    0    0 -0.35461080524E+02 -0.14762185021E+02 -0.13332492165E+02  0.50528859750E+02  0.29999999698E+02 0.  0.
        -12    1    1    2    0    0  0.35461080524E+02  0.14762185021E+02  0.13332492165E+02  0.40659140250E+02  0.00000000000E+00 0.  1.
         11    1    3    3    0    0 -0.28329748013E+02 -0.66844220929E+01 -0.16815327521E+02  0.33615641614E+02  0.51100000000E-03 0. -1.
        -11    1    3    3    0    0  0.26784933796E+01 -0.45792045387E+01  0.37469535730E+01  0.64948519869E+01  0.51100000000E-03 0.  1.
         12    1    3    3    0    0 -0.98098258899E+01 -0.34985583897E+01 -0.26411821670E+00  0.10418366150E+02  0.00000000000E+00 0. -1.
</event>
<event>
 7    1  0.4962385E-011  0.5052886E+02  0.7816164E-02  0.1300439E+00
        -11   -1    0    0    0    0  0.00000000000E+00  0.00000000000E+00  0.45593999997E+02  0.45594000000E+02  0.51100000000E-03 0.  1.
         11   -1    0    0    0    0 -0.00000000000E+00 -0.00000000000E+00 -0.45593999997E+02  0.45594000000E+02  0.51100000000E-03 0. -1.
    9900012    2    1    2    0    0 -0.22718683374E+02  0.31754491696E+02  0.11343681026E+02  0.50528863065E+02  0.30000009773E+02 0.  0.
        -12    1    1    2    0    0  0.22718683374E+02 -0.31754491696E+02 -0.11343681026E+02  0.40659136935E+02  0.00000000000E+00 0.  1.
         11    1    3    3    0    0 -0.12938403456E+02 -0.21079533234E+01  0.23852582180E+01  0.13324233871E+02  0.51100000000E-03 0. -1.
        -11    1    3    3    0    0  0.11945472034E+00  0.12045320867E+02  0.43501682341E+01  0.12807341182E+02  0.51100000000E-03 0.  1.
         12    1    3    3    0    0 -0.98997346378E+01  0.21817124152E+02  0.46082545737E+01  0.24397288013E+02  0.00000000000E+00 0. -1.
</event>
<event>
 7    1  0.4962385E-011  0.5052887E+02  0.7816164E-02  0.1300439E+00
        -11   -1    0    0    0    0  0.00000000000E+00  0.00000000000E+00  0.45593999997E+02  0.45594000000E+02  0.51100000000E-03 0.  1.
         11   -1    0    0    0    0 -0.00000000000E+00 -0.00000000000E+00 -0.45593999997E+02  0.45594000000E+02  0.51100000000E-03 0. -1.
    9900012    2    1    2    0    0  0.87666970852E+01  0.25064638759E+02 -0.30790805637E+02  0.50528870574E+02  0.30000032596E+02 0.  0.
        -12    1    1    2    0    0 -0.87666970852E+01 -0.25064638759E+02  0.30790805637E+02  0.40659129426E+02  0.00000000000E+00 0.  1.
         11    1    3    3    0    0  0.98189313357E+01  0.10066843863E+01 -0.93864283726E+01  0.13620934765E+02  0.51100000000E-03 0. -1.
        -11    1    3    3    0    0 -0.29803403216E+01  0.16063122747E+02 -0.28115053341E+01  0.16577421492E+02  0.51100000000E-03 0.  1.
        -12    1    3    3    0    0  0.19281060710E+01  0.79948316260E+01 -0.18592871930E+02  0.20330514316E+02  0.00000000000E+00 0.  1.
</event>
<event>
 7    1  0.4962385E-011  0.5052886E+02  0.7816164E-02  0.1300439E+00
        -11   -1    0    0    0    0  0.00000000000E+00  0.00000000000E+00  0.45593999997E+02  0.45594000000E+02  0.51100000000E-03 0. -1.
         11   -1    0    0    0    0 -0.00000000000E+00 -0.00000000000E+00 -0.45593999997E+02  0.45594000000E+02  0.51100000000E-03 0.  1.
    9900012    2    1    2    0    0  0.15668825380E+02  0.37622072335E+01  0.37329600238E+02  0.50528863930E+02  0.30000012400E+02 0.  0.
        -12    1    1    2    0    0 -0.15668825380E+02 -0.37622072335E+01 -0.37329600238E+02  0.40659136070E+02  0.00000000000E+00 0.  1.
         11    1    3    3    0    0  0.49270279129E+01 -0.38639532820E+01  0.23495310511E+02  0.24315331692E+02  0.51100000000E-03 0. -1.
        -11    1    3    3    0    0 -0.38700385922E+01  0.60169259001E+01  0.22565142751E+01  0.75014967125E+01  0.51100000000E-03 0.  1.
         12    1    3    3    0    0  0.14611836060E+02  0.16092346154E+01  0.11577775452E+02  0.18712035525E+02  0.00000000000E+00 0. -1.
</event>
<event>
 7    1  0.4962385E-011  0.5052886E+02  0.7816164E-02  0.1300439E+00
        -11   -1    0    0    0    0  0.00000000000E+00  0.00000000000E+00  0.45593999997E+02  0.45594000000E+02  0.51100000000E-03 0.  1.
         11   -1    0    0    0    0 -0.00000000000E+00 -0.00000000000E+00 -0.45593999997E+02  0.45594000000E+02  0.51100000000E-03 0. -1.
    9900012    2    1    2    0    0  0.25443248604E+02  0.30924978007E+02 -0.70322387518E+01  0.50528861468E+02  0.30000004919E+02 0.  0.
        -12    1    1    2    0    0 -0.25443248604E+02 -0.30924978007E+02  0.70322387518E+01  0.40659138532E+02  0.00000000000E+00 0.  1.
         11    1    3    3    0    0  0.81142699702E+01  0.12985359612E+01 -0.90961726753E+01  0.12258382046E+02  0.51100000000E-03 0. -1.
        -11    1    3    3    0    0  0.19447199218E+02  0.20873507901E+02  0.46398624784E+01  0.28903723179E+02  0.51100000000E-03 0.  1.
         12    1    3    3    0    0 -0.21182205844E+01  0.87529341455E+01 -0.25759285548E+01  0.93667562432E+01  0.00000000000E+00 0. -1.
</event>
<event>
 7    1  0.4962385E-011  0.5052885E+02  0.7816164E-02  0.1300439E+00
        -11   -1    0    0    0    0  0.00000000000E+00  0.00000000000E+00  0.45593999997E+02  0.45594000000E+02  0.51100000000E-03 0.  1.
         11   -1    0    0    0    0 -0.00000000000E+00 -0.00000000000E+00 -0.45593999997E+02  0.45594000000E+02  0.51100000000E-03 0. -1.
    9900012    2    1    2    0    0 -0.20363730129E+02  0.47043287630E+01 -0.34876275666E+02  0.50528845825E+02  0.29999957371E+02 0.  0.
        -12    1    1    2    0    0  0.20363730129E+02 -0.47043287630E+01  0.34876275666E+02  0.40659154175E+02  0.00000000000E+00 0.  1.
         11    1    3    3    0    0 -0.15708130530E+02 -0.90457117696E+01 -0.22860559901E+02  0.29174911575E+02  0.51100000000E-03 0. -1.
        -11    1    3    3    0    0  0.16182960804E+01  0.39157426867E+01  0.47462888397E+00  0.42634722740E+01  0.51100000000E-03 0.  1.
         12    1    3    3    0    0 -0.62738956794E+01  0.98342978458E+01 -0.12490344648E+02  0.17090461976E+02  0.00000000000E+00 0. -1.
</event>
<event>
 7    1  0.4962385E-011  0.5052884E+02  0.7816164E-02  0.1300439E+00
        -11   -1    0    0    0    0  0.00000000000E+00  0.00000000000E+00  0.45593999997E+02  0.45594000000E+02  0.51100000000E-03 0.  1.
         11   -1    0    0    0    0 -0.00000000000E+00 -0.00000000000E+00 -0.45593999997E+02  0.45594000000E+02  0.51100000000E-03 0. -1.
    9900012    2    1    2    0    0  0.89772939203E+01  0.22183832827E+02 -0.32870244883E+02  0.50528840593E+02  0.29999941466E+02 0.  0.
        -12    1    1    2    0    0 -0.89772939203E+01 -0.22183832827E+02  0.32870244883E+02  0.40659159407E+02  0.00000000000E+00 0.  1.
         11    1    3    3    0    0  0.14151367785E+01  0.10596155770E+02 -0.11649321515E+02  0.15811003169E+02  0.51100000000E-03 0. -1.
        -11    1    3    3    0    0  0.10411482012E+02  0.49699055649E+01  0.78389509051E+00  0.11563451508E+02  0.51100000000E-03 0.  1.
        -12    1    3    3    0    0 -0.28493248698E+01  0.66177714928E+01 -0.22004818458E+02  0.23154385916E+02  0.00000000000E+00 0.  1.
</event>
<event>
 7    1  0.4962385E-011  0.5052886E+02  0.7816164E-02  0.1300439E+00
        -11   -1    0    0    0    0  0.00000000000E+00  0.00000000000E+00  0.45593999997E+02  0.45594000000E+02  0.51100000000E-03 0.  1.
         11   -1    0    0    0    0 -0.00000000000E+00 -0.00000000000E+00 -0.45593999997E+02  0.45594000000E+02  0.51100000000E-03 0. -1.
    9900012    2    1    2    0    0  0.10460784388E+02  0.38919336658E+02 -0.53872607741E+01  0.50528863824E+02  0.30000012080E+02 0.  0.
        -12    1    1    2    0    0 -0.10460784388E+02 -0.38919336658E+02  0.53872607741E+01  0.40659136176E+02  0.00000000000E+00 0.  1.
         11    1    3    3    0    0  0.43048758026E+01  0.28877129387E+02 -0.12881051053E+02  0.31911471821E+02  0.51100000000E-03 0. -1.
        -11    1    3    3    0    0  0.89928723969E+01  0.10701239669E+02  0.52147158299E+01  0.14919167063E+02  0.51100000000E-03 0.  1.
         12    1    3    3    0    0 -0.28369638112E+01 -0.65903239723E+00  0.22790744490E+01  0.36982249406E+01  0.00000000000E+00 0. -1.
</event>
<event>
 7    1  0.4962385E-011  0.5052886E+02  0.7816164E-02  0.1300439E+00
        -11   -1    0    0    0    0  0.00000000000E+00  0.00000000000E+00  0.45593999997E+02  0.45594000000E+02  0.51100000000E-03 0.  1.
         11   -1    0    0    0    0 -0.00000000000E+00 -0.00000000000E+00 -0.45593999997E+02  0.45594000000E+02  0.51100000000E-03 0. -1.
    9900012    2    1    2    0    0 -0.10474929717E+02 -0.35292622788E+02 -0.17258979645E+02  0.50528858910E+02  0.29999997142E+02 0.  0.
        -12    1    1    2    0    0  0.10474929717E+02  0.35292622788E+02  0.17258979645E+02  0.40659141090E+02  0.00000000000E+00 0.  1.
         11    1    3    3    0    0  0.10083077013E+02 -0.92083243353E+01 -0.24260699462E+01  0.13868939929E+02  0.51100000000E-03 0. -1.
        -11    1    3    3    0    0 -0.69154880327E+01 -0.63955752174E+01 -0.26435043049E+01  0.97834284565E+01  0.51100000000E-03 0.  1.
         12    1    3    3    0    0 -0.13642518697E+02 -0.19688723235E+02 -0.12189405394E+02  0.26876490524E+02  0.00000000000E+00 0. -1.
</event>
<event>
 7    1  0.4962385E-011  0.5052885E+02  0.7816164E-02  0.1300439E+00
        -11   -1    0    0    0    0  0.00000000000E+00  0.00000000000E+00  0.45593999997E+02  0.45594000000E+02  0.51100000000E-03 0.  1.
         11   -1    0    0    0    0 -0.00000000000E+00 -0.00000000000E+00 -0.45593999997E+02  0.45594000000E+02  0.51100000000E-03 0. -1.
    9900012    2    1    2    0    0 -0.17221028708E+02 -0.22617744373E+02 -0.29069582397E+02  0.50528845914E+02  0.29999957639E+02 0.  0.
        -12    1    1    2    0    0  0.17221028708E+02  0.22617744373E+02  0.29069582397E+02  0.40659154086E+02  0.00000000000E+00 0.  1.
         11    1    3    3    0    0 -0.34063228713E+01 -0.19184700322E+02 -0.35816012440E+01  0.19811199602E+02  0.51100000000E-03 0.  1.
        -11    1    3    3    0    0 -0.14177509596E+02 -0.53770512462E+00 -0.20322837290E+02  0.24785250068E+02  0.51100000000E-03 0. -1.
         12    1    3    3    0    0  0.36280375992E+00 -0.28953389269E+01 -0.51651438632E+01  0.59323962442E+01  0.00000000000E+00 0. -1.
</event>
<event>
 7    1  0.4962385E-011  0.5052886E+02  0.7816164E-02  0.1300439E+00
        -11   -1    0    0    0    0  0.00000000000E+00  0.00000000000E+00  0.45593999997E+02  0.45594000000E+02  0.51100000000E-03 0.  1.
         11   -1    0    0    0    0 -0.00000000000E+00 -0.00000000000E+00 -0.45593999997E+02  0.45594000000E+02  0.51100000000E-03 0. -1.
    9900012    2    1    2    0    0 -0.38734839560E+01 -0.26052286427E+02 -0.30974834436E+02  0.50528857432E+02  0.29999992651E+02 0.  0.
        -12    1    1    2    0    0  0.38734839560E+01  0.26052286427E+02  0.30974834436E+02  0.40659142568E+02  0.00000000000E+00 0.  1.
         11    1    3    3    0    0  0.71171920175E+01  0.99782606497E+00 -0.99402376322E+01  0.12266148683E+02  0.51100000000E-03 0.  1.
        -11    1    3    3    0    0 -0.12314954252E+02 -0.23376035099E+02 -0.21834745262E+02  0.34276131871E+02  0.51100000000E-03 0. -1.
         12    1    3    3    0    0  0.13242782781E+01 -0.36740773929E+01  0.80014845811E+00  0.39865768777E+01  0.00000000000E+00 0. -1.
</event>
<event>
 7    1  0.4962385E-011  0.5052886E+02  0.7816164E-02  0.1300439E+00
        -11   -1    0    0    0    0  0.00000000000E+00  0.00000000000E+00  0.45593999997E+02  0.45594000000E+02  0.51100000000E-03 0.  1.
         11   -1    0    0    0    0 -0.00000000000E+00 -0.00000000000E+00 -0.45593999997E+02  0.45594000000E+02  0.51100000000E-03 0. -1.
    9900012    2    1    2    0    0 -0.20064530896E+02 -0.21960130804E+02 -0.27718813157E+02  0.50528863906E+02  0.30000012330E+02 0.  0.
        -12    1    1    2    0    0  0.20064530896E+02  0.21960130804E+02  0.27718813157E+02  0.40659136094E+02  0.00000000000E+00 0.  1.
         11    1    3    3    0    0  0.33106908007E+00  0.21471075311E+01  0.20683415935E+01  0.29996190915E+01  0.51100000000E-03 0.  1.
        -11    1    3    3    0    0 -0.18781200788E+02 -0.24317585792E+02 -0.17958609617E+02  0.35589185737E+02  0.51100000000E-03 0. -1.
        -12    1    3    3    0    0 -0.16143991883E+01  0.21034745651E+00 -0.11828545134E+02  0.11940059078E+02  0.00000000000E+00 0.  1.
</event>
<event>
 7    1  0.4962385E-011  0.5052886E+02  0.7816164E-02  0.1300439E+00
        -11   -1    0    0    0    0  0.00000000000E+00  0.00000000000E+00  0.45593999997E+02  0.45594000000E+02  0.51100000000E-03 0.  1.
         11   -1    0    0    0    0 -0.00000000000E+00 -0.00000000000E+00 -0.45593999997E+02  0.45594000000E+02  0.51100000000E-03 0. -1.
    9900012    2    1    2    0    0 -0.26383938981E+02  0.35430020533E+00 -0.30934250415E+02  0.50528860640E+02  0.30000002400E+02 0.  0.
        -12    1    1    2    0    0  0.26383938981E+02 -0.35430020533E+00  0.30934250415E+02  0.40659139360E+02  0.00000000000E+00 0.  1.
         11    1    3    3    0    0  0.15102787700E+00 -0.40975925765E+01 -0.15925065013E+02  0.16444475372E+02  0.51100000000E-03 0. -1.
        -11    1    3    3    0    0 -0.23227319662E+02  0.88438859638E+01 -0.13894982986E+02  0.28474431515E+02  0.51100000000E-03 0.  1.
         12    1    3    3    0    0 -0.33076471960E+01 -0.43919931821E+01 -0.11142024161E+01  0.56099537528E+01  0.00000000000E+00 0. -1.
</event>
<event>
 7    1  0.4962385E-011  0.5052887E+02  0.7816164E-02  0.1300439E+00
        -11   -1    0    0    0    0  0.00000000000E+00  0.00000000000E+00  0.45593999997E+02  0.45594000000E+02  0.51100000000E-03 0.  1.
         11   -1    0    0    0    0 -0.00000000000E+00 -0.00000000000E+00 -0.45593999997E+02  0.45594000000E+02  0.51100000000E-03 0. -1.
    9900012    2    1    2    0    0 -0.93577934390E+01 -0.35322115421E+02 -0.17831006405E+02  0.50528869104E+02  0.30000028128E+02 0.  0.
        -12    1    1    2    0    0  0.93577934390E+01  0.35322115421E+02  0.17831006405E+02  0.40659130896E+02  0.00000000000E+00 0.  1.
         11    1    3    3    0    0 -0.44540661023E+01 -0.91429627474E+01 -0.34013026117E+00  0.10175861708E+02  0.51100000000E-03 0. -1.
        -11    1    3    3    0    0  0.36065231620E+01  0.30797903088E+01  0.80554255593E+00  0.48105110679E+01  0.51100000000E-03 0.  1.
        -12    1    3    3    0    0 -0.85102504987E+01 -0.29258942982E+02 -0.18296418700E+02  0.35542496328E+02  0.00000000000E+00 0.  1.
</event>
<event>
 7    1  0.4962385E-011  0.5052887E+02  0.7816164E-02  0.1300439E+00
        -11   -1    0    0    0    0  0.00000000000E+00  0.00000000000E+00  0.45593999997E+02  0.45594000000E+02  0.51100000000E-03 0. -1.
         11   -1    0    0    0    0 -0.00000000000E+00 -0.00000000000E+00 -0.45593999997E+02  0.45594000000E+02  0.51100000000E-03 0.  1.
    9900012    2    1    2    0    0 -0.38134822677E+02  0.13801649869E+02  0.29007514566E+01  0.50528873119E+02  0.30000040333E+02 0.  0.
        -12    1    1    2    0    0  0.38134822677E+02 -0.13801649869E+02 -0.29007514566E+01  0.40659126881E+02  0.00000000000E+00 0.  1.
         11    1    3    3    0    0 -0.57730937467E+01  0.11543554133E+02  0.57840949303E+01  0.14143479341E+02  0.51100000000E-03 0. -1.
        -11    1    3    3    0    0 -0.30185157160E+02  0.48187060407E+01  0.18008209472E+01  0.30620362458E+02  0.51100000000E-03 0.  1.
        -12    1    3    3    0    0 -0.21765717703E+01 -0.25606103055E+01 -0.46841644208E+01  0.57650313207E+01  0.00000000000E+00 0.  1.
</event>
<event>
 7    1  0.4962385E-011  0.5052888E+02  0.7816164E-02  0.1300439E+00
        -11   -1    0    0    0    0  0.00000000000E+00  0.00000000000E+00  0.45593999997E+02  0.45594000000E+02  0.51100000000E-03 0.  1.
         11   -1    0    0    0    0 -0.00000000000E+00 -0.00000000000E+00 -0.45593999997E+02  0.45594000000E+02  0.51100000000E-03 0. -1.
    9900012    2    1    2    0    0 -0.38336757538E+02 -0.79455054031E+01 -0.10969337566E+02  0.50528875547E+02  0.30000047713E+02 0.  0.
        -12    1    1    2    0    0  0.38336757538E+02  0.79455054031E+01  0.10969337566E+02  0.40659124453E+02  0.00000000000E+00 0.  1.
         11    1    3    3    0    0 -0.22649047787E+02  0.18918625651E+01 -0.98326186107E+00  0.22749182705E+02  0.51100000000E-03 0. -1.
        -11    1    3    3    0    0  0.33891990009E+01 -0.10716303651E+01  0.14890445854E+01  0.38538702035E+01  0.51100000000E-03 0.  1.
         12    1    3    3    0    0 -0.19076908752E+02 -0.87657376031E+01 -0.11475120290E+02  0.23925822639E+02  0.00000000000E+00 0. -1.
</event>
<event>
 7    1  0.4962385E-011  0.5052884E+02  0.7816164E-02  0.1300439E+00
        -11   -1    0    0    0    0  0.00000000000E+00  0.00000000000E+00  0.45593999997E+02  0.45594000000E+02  0.51100000000E-03 0.  1.
         11   -1    0    0    0    0 -0.00000000000E+00 -0.00000000000E+00 -0.45593999997E+02  0.45594000000E+02  0.51100000000E-03 0. -1.
    9900012    2    1    2    0    0  0.43946807090E+01  0.28441026095E+02 -0.28722153076E+02  0.50528840378E+02  0.29999940812E+02 0.  0.
        -12    1    1    2    0    0 -0.43946807090E+01 -0.28441026095E+02  0.28722153076E+02  0.40659159622E+02  0.00000000000E+00 0.  1.
         11    1    3    3    0    0 -0.98344891653E+00  0.45026530576E+01  0.41422401201E+01  0.61967095948E+01  0.51100000000E-03 0. -1.
        -11    1    3    3    0    0  0.71044552221E+00  0.10437458180E+02 -0.26880323590E+02  0.28844359287E+02  0.51100000000E-03 0.  1.
         12    1    3    3    0    0  0.46676841033E+01  0.13500914857E+02 -0.59840696062E+01  0.15487771496E+02  0.00000000000E+00 0. -1.
</event>
<event>
 7    1  0.4962385E-011  0.5052885E+02  0.7816164E-02  0.1300439E+00
        -11   -1    0    0    0    0  0.00000000000E+00  0.00000000000E+00  0.45593999997E+02  0.45594000000E+02  0.51100000000E-03 0. -1.
         11   -1    0    0    0    0 -0.00000000000E+00 -0.00000000000E+00 -0.45593999997E+02  0.45594000000E+02  0.51100000000E-03 0.  1.
    9900012    2    1    2    0    0  0.21287513698E+02 -0.22393539560E+02  0.26429862043E+02  0.50528850217E+02  0.29999970720E+02 0.  0.
        -12    1    1    2    0    0 -0.21287513698E+02  0.22393539560E+02 -0.26429862043E+02  0.40659149783E+02  0.00000000000E+00 0.  1.
         11    1    3    3    0    0  0.11647985877E+02 -0.19407043916E+02  0.46954481756E+01  0.23116145059E+02  0.51100000000E-03 0. -1.
        -11    1    3    3    0    0  0.79922793198E+00  0.31978958044E+01  0.13344709280E+02  0.13745783677E+02  0.51100000000E-03 0.  1.
         12    1    3    3    0    0  0.88402998890E+01 -0.61843914479E+01  0.83897045872E+01  0.13666921481E+02  0.00000000000E+00 0. -1.
</event>
<event>
 7    1  0.4962385E-011  0.5052886E+02  0.7816164E-02  0.1300439E+00
        -11   -1    0    0    0    0  0.00000000000E+00  0.00000000000E+00  0.45593999997E+02  0.45594000000E+02  0.51100000000E-03 0.  1.
         11   -1    0    0    0    0 -0.00000000000E+00 -0.00000000000E+00 -0.45593999997E+02  0.45594000000E+02  0.51100000000E-03 0. -1.
    9900012    2    1    2    0    0 -0.86216581752E+01 -0.83092913992E+01 -0.38855998718E+02  0.50528856506E+02  0.29999989837E+02 0.  0.
        -12    1    1    2    0    0  0.86216581752E+01  0.83092913992E+01  0.38855998718E+02  0.40659143494E+02  0.00000000000E+00 0.  1.
         11    1    3    3    0    0 -0.81411192229E+00 -0.80419306541E+01 -0.31644553836E+02  0.32660575846E+02  0.51100000000E-03 0. -1.
        -11    1    3    3    0    0 -0.69859652837E+01  0.64875630643E+01 -0.38997079777E+01  0.10300480961E+02  0.51100000000E-03 0.  1.
         12    1    3    3    0    0 -0.82158096920E+00 -0.67549238094E+01 -0.33117369045E+01  0.75677996990E+01  0.00000000000E+00 0. -1.
</event>
<event>
 7    1  0.4962385E-011  0.5052887E+02  0.7816164E-02  0.1300439E+00
        -11   -1    0    0    0    0  0.00000000000E+00  0.00000000000E+00  0.45593999997E+02  0.45594000000E+02  0.51100000000E-03 0.  1.
         11   -1    0    0    0    0 -0.00000000000E+00 -0.00000000000E+00 -0.45593999997E+02  0.45594000000E+02  0.51100000000E-03 0. -1.
    9900012    2    1    2    0    0 -0.97358114976E+01 -0.39201600881E+02  0.46490432054E+01  0.50528866464E+02  0.30000020105E+02 0.  0.
        -12    1    1    2    0    0  0.97358114976E+01  0.39201600881E+02 -0.46490432054E+01  0.40659133536E+02  0.00000000000E+00 0.  1.
         11    1    3    3    0    0 -0.65391718376E+01 -0.35026853499E+02  0.10859806340E+02  0.37250189642E+02  0.51100000000E-03 0. -1.
        -11    1    3    3    0    0  0.28544479836E+01  0.16565247864E+01 -0.13118815144E+01  0.35514758943E+01  0.51100000000E-03 0.  1.
         12    1    3    3    0    0 -0.60510876436E+01 -0.58312721682E+01 -0.48988816201E+01  0.97272009282E+01  0.00000000000E+00 0. -1.
</event>
<event>
 7    1  0.4962385E-011  0.5052886E+02  0.7816164E-02  0.1300439E+00
        -11   -1    0    0    0    0  0.00000000000E+00  0.00000000000E+00  0.45593999997E+02  0.45594000000E+02  0.51100000000E-03 0. -1.
         11   -1    0    0    0    0 -0.00000000000E+00 -0.00000000000E+00 -0.45593999997E+02  0.45594000000E+02  0.51100000000E-03 0.  1.
    9900012    2    1    2    0    0  0.10344178635E+01  0.22590992441E+02  0.33789678607E+02  0.50528864002E+02  0.30000012620E+02 0.  0.
        -12    1    1    2    0    0 -0.10344178635E+01 -0.22590992441E+02 -0.33789678607E+02  0.40659135998E+02  0.00000000000E+00 0.  1.
         11    1    3    3    0    0 -0.11748211369E+00  0.12085375201E+02  0.17816856016E+02  0.21529292937E+02  0.51100000000E-03 0. -1.
        -11    1    3    3    0    0  0.16446978374E+01  0.11638650183E+01 -0.53489818820E+01  0.57158744031E+01  0.51100000000E-03 0.  1.
        -12    1    3    3    0    0 -0.49279786022E+00  0.93417522214E+01  0.21321804472E+02  0.23283696662E+02  0.00000000000E+00 0.  1.
</event>
<event>
 7    1  0.4962385E-011  0.5052886E+02  0.7816164E-02  0.1300439E+00
        -11   -1    0    0    0    0  0.00000000000E+00  0.00000000000E+00  0.45593999997E+02  0.45594000000E+02  0.51100000000E-03 0.  1.
         11   -1    0    0    0    0 -0.00000000000E+00 -0.00000000000E+00 -0.45593999997E+02  0.45594000000E+02  0.51100000000E-03 0. -1.
    9900012    2    1    2    0    0  0.19228774686E+02  0.35651852253E+02  0.35163893925E+01  0.50528864011E+02  0.30000012647E+02 0.  0.
        -12    1    1    2    0    0 -0.19228774686E+02 -0.35651852253E+02 -0.35163893925E+01  0.40659135989E+02  0.00000000000E+00 0.  1.
         11    1    3    3    0    0 -0.46289080029E+01 -0.11027682323E+01 -0.18699857801E+01  0.51127032138E+01  0.51100000000E-03 0. -1.
        -11    1    3    3    0    0  0.97046572839E+01  0.12056989649E+02  0.68227015650E+01  0.16914509431E+02  0.51100000000E-03 0.  1.
         12    1    3    3    0    0  0.14153025405E+02  0.24697630837E+02 -0.14363263925E+01  0.28501651366E+02  0.00000000000E+00 0. -1.
</event>
<event>
 7    1  0.4962385E-011  0.5052886E+02  0.7816164E-02  0.1300439E+00
        -11   -1    0    0    0    0  0.00000000000E+00  0.00000000000E+00  0.45593999997E+02  0.45594000000E+02  0.51100000000E-03 0. -1.
         11   -1    0    0    0    0 -0.00000000000E+00 -0.00000000000E+00 -0.45593999997E+02  0.45594000000E+02  0.51100000000E-03 0.  1.
    9900012    2    1    2    0    0 -0.24198975850E+02  0.11374352271E+02  0.30630041355E+02  0.50528858898E+02  0.29999997106E+02 0.  0.
        -12    1    1    2    0    0  0.24198975850E+02 -0.11374352271E+02 -0.30630041355E+02  0.40659141102E+02  0.00000000000E+00 0.  1.
         11    1    3    3    0    0 -0.12228938495E+02  0.81354102096E+01  0.43452401324E+01  0.15317080272E+02  0.51100000000E-03 0.  1.
        -11    1    3    3    0    0  0.34127998970E+01 -0.12710975270E+01  0.15425404267E+02  0.15849479144E+02  0.51100000000E-03 0. -1.
         12    1    3    3    0    0 -0.15382837252E+02  0.45100395882E+01  0.10859396955E+02  0.19362299482E+02  0.00000000000E+00 0. -1.
</event>
<event>
 7    1  0.4962385E-011  0.5052886E+02  0.7816164E-02  0.1300439E+00
        -11   -1    0    0    0    0  0.00000000000E+00  0.00000000000E+00  0.45593999997E+02  0.45594000000E+02  0.51100000000E-03 0. -1.
         11   -1    0    0    0    0 -0.00000000000E+00 -0.00000000000E+00 -0.45593999997E+02  0.45594000000E+02  0.51100000000E-03 0.  1.
    9900012    2    1    2    0    0  0.17314399179E+02  0.29568913559E+02  0.21887357985E+02  0.50528861942E+02  0.30000006360E+02 0.  0.
        -12    1    1    2    0    0 -0.17314399179E+02 -0.29568913559E+02 -0.21887357985E+02  0.40659138058E+02  0.00000000000E+00 0.  1.
         11    1    3    3    0    0  0.16605097863E+02  0.16762179399E+02  0.16212010431E+02  0.28627420697E+02  0.51100000000E-03 0. -1.
        -11    1    3    3    0    0 -0.68288279038E+01  0.64038413751E+01  0.73089880357E+01  0.11877010620E+02  0.51100000000E-03 0.  1.
         12    1    3    3    0    0  0.75381292195E+01  0.64028927849E+01 -0.16336404817E+01  0.10024430626E+02  0.00000000000E+00 0. -1.
</event>
<event>
 7    1  0.4962385E-011  0.5052885E+02  0.7816164E-02  0.1300439E+00
        -11   -1    0    0    0    0  0.00000000000E+00  0.00000000000E+00  0.45593999997E+02  0.45594000000E+02  0.51100000000E-03 0. -1.
         11   -1    0    0    0    0 -0.00000000000E+00 -0.00000000000E+00 -0.45593999997E+02  0.45594000000E+02  0.51100000000E-03 0.  1.
    9900012    2    1    2    0    0 -0.96115506397E+00 -0.18642591899E+02  0.36120586699E+02  0.50528845616E+02  0.29999956735E+02 0.  0.
        -12    1    1    2    0    0  0.96115506397E+00  0.18642591899E+02 -0.36120586699E+02  0.40659154384E+02  0.00000000000E+00 0.  1.
         11    1    3    3    0    0 -0.57692190139E+00 -0.31825099376E+01  0.29480391816E+02  0.29657287642E+02  0.51100000000E-03 0. -1.
        -11    1    3    3    0    0 -0.54272456940E+01 -0.48488446295E+01 -0.19285876673E+00  0.72803492244E+01  0.51100000000E-03 0.  1.
         12    1    3    3    0    0  0.50430125314E+01 -0.10611237332E+02  0.68330536491E+01  0.13591208750E+02  0.00000000000E+00 0. -1.
</event>
<event>
 7    1  0.4962385E-011  0.5052886E+02  0.7816164E-02  0.1300439E+00
        -11   -1    0    0    0    0  0.00000000000E+00  0.00000000000E+00  0.45593999997E+02  0.45594000000E+02  0.51100000000E-03 0.  1.
         11   -1    0    0    0    0 -0.00000000000E+00 -0.00000000000E+00 -0.45593999997E+02  0.45594000000E+02  0.51100000000E-03 0. -1.
    9900012    2    1    2    0    0  0.33308607614E+01  0.13385560198E+02 -0.38247850475E+02  0.50528856856E+02  0.29999990901E+02 0.  0.
        -12    1    1    2    0    0 -0.33308607614E+01 -0.13385560198E+02  0.38247850475E+02  0.40659143144E+02  0.00000000000E+00 0.  1.
         11    1    3    3    0    0  0.12211068274E+02  0.36650300014E+01 -0.30493075910E+02  0.33051025884E+02  0.51100000000E-03 0. -1.
        -11    1    3    3    0    0  0.17752977561E-02  0.36479533598E+01  0.79674572436E+00  0.37339484300E+01  0.51100000000E-03 0.  1.
         12    1    3    3    0    0 -0.88819828100E+01  0.60725768364E+01 -0.85515202897E+01  0.13743882542E+02  0.00000000000E+00 0. -1.
</event>
<event>
 7    1  0.4962385E-011  0.5052887E+02  0.7816164E-02  0.1300439E+00
        -11   -1    0    0    0    0  0.00000000000E+00  0.00000000000E+00  0.45593999997E+02  0.45594000000E+02  0.51100000000E-03 0.  1.
         11   -1    0    0    0    0 -0.00000000000E+00 -0.00000000000E+00 -0.45593999997E+02  0.45594000000E+02  0.51100000000E-03 0. -1.
    9900012    2    1    2    0    0 -0.76483028676E+01  0.27401822706E+02 -0.29048386454E+02  0.50528865972E+02  0.30000018607E+02 0.  0.
        -12    1    1    2    0    0  0.76483028676E+01 -0.27401822706E+02  0.29048386454E+02  0.40659134028E+02  0.00000000000E+00 0.  1.
         11    1    3    3    0    0 -0.98595585640E+01  0.14481325628E+02 -0.23349987701E+02  0.29191464728E+02  0.51100000000E-03 0. -1.
        -11    1    3    3    0    0  0.90818810796E+01  0.66002320123E+01 -0.30974341011E+01  0.11646361012E+02  0.51100000000E-03 0.  1.
         12    1    3    3    0    0 -0.68706253832E+01  0.63202650652E+01 -0.26009646516E+01  0.96910402316E+01  0.00000000000E+00 0. -1.
</event>
<event>
 7    1  0.4962385E-011  0.5052886E+02  0.7816164E-02  0.1300439E+00
        -11   -1    0    0    0    0  0.00000000000E+00  0.00000000000E+00  0.45593999997E+02  0.45594000000E+02  0.51100000000E-03 0. -1.
         11   -1    0    0    0    0 -0.00000000000E+00 -0.00000000000E+00 -0.45593999997E+02  0.45594000000E+02  0.51100000000E-03 0.  1.
    9900012    2    1    2    0    0  0.20608346453E+02  0.24109541285E+02  0.25439958521E+02  0.50528863093E+02  0.30000009856E+02 0.  0.
        -12    1    1    2    0    0 -0.20608346453E+02 -0.24109541285E+02 -0.25439958521E+02  0.40659136907E+02  0.00000000000E+00 0.  1.
         11    1    3    3    0    0  0.17044785114E+01 -0.42173531674E+01  0.22485271437E+00  0.45543247292E+01  0.51100000000E-03 0.  1.
        -11    1    3    3    0    0  0.89313926996E+01  0.25129232083E+02  0.23117347491E+02  0.35293906499E+02  0.51100000000E-03 0. -1.
         12    1    3    3    0    0  0.99724752420E+01  0.31976623692E+01  0.20977583156E+01  0.10680631865E+02  0.00000000000E+00 0. -1.
</event>
<event>
 7    1  0.4962385E-011  0.5052888E+02  0.7816164E-02  0.1300439E+00
        -11   -1    0    0    0    0  0.00000000000E+00  0.00000000000E+00  0.45593999997E+02  0.45594000000E+02  0.51100000000E-03 0. -1.
         11   -1    0    0    0    0 -0.00000000000E+00 -0.00000000000E+00 -0.45593999997E+02  0.45594000000E+02  0.51100000000E-03 0.  1.
    9900012    2    1    2    0    0 -0.54666164016E+01 -0.17349159091E+02  0.36363264382E+02  0.50528877868E+02  0.30000054767E+02 0.  0.
        -12    1    1    2    0    0  0.54666164016E+01  0.17349159091E+02 -0.36363264382E+02  0.40659122132E+02  0.00000000000E+00 0.  1.
         11    1    3    3    0    0 -0.38445554217E+01 -0.19274741688E+02  0.27276822685E+02  0.33620251778E+02  0.51100000000E-03 0. -1.
        -11    1    3    3    0    0 -0.27512155306E+01 -0.15293776137E+01 -0.29629869611E+01  0.43229011987E+01  0.51100000000E-03 0.  1.
        -12    1    3    3    0    0  0.11291545507E+01  0.34549602111E+01  0.12049428658E+02  0.12585724891E+02  0.00000000000E+00 0.  1.
</event>
<event>
 7    1  0.4962385E-011  0.5052886E+02  0.7816164E-02  0.1300439E+00
        -11   -1    0    0    0    0  0.00000000000E+00  0.00000000000E+00  0.45593999997E+02  0.45594000000E+02  0.51100000000E-03 0. -1.
         11   -1    0    0    0    0 -0.00000000000E+00 -0.00000000000E+00 -0.45593999997E+02  0.45594000000E+02  0.51100000000E-03 0.  1.
    9900012    2    1    2    0    0 -0.14802751361E+01  0.40193926651E+02 -0.59516703407E+01  0.50528864078E+02  0.30000012850E+02 0.  0.
        -12    1    1    2    0    0  0.14802751361E+01 -0.40193926651E+02  0.59516703407E+01  0.40659135922E+02  0.00000000000E+00 0.  1.
         11    1    3    3    0    0  0.58759604339E+00  0.23792534754E+02  0.80218247752E+01  0.25115327036E+02  0.51100000000E-03 0. -1.
        -11    1    3    3    0    0  0.52088041369E+01  0.44392174285E+01 -0.69315100540E+01  0.97408482076E+01  0.51100000000E-03 0.  1.
         12    1    3    3    0    0 -0.72766753164E+01  0.11962174469E+02 -0.70419850619E+01  0.15672688834E+02  0.00000000000E+00 0. -1.
</event>
<event>
 7    1  0.4962385E-011  0.5052886E+02  0.7816164E-02  0.1300439E+00
        -11   -1    0    0    0    0  0.00000000000E+00  0.00000000000E+00  0.45593999997E+02  0.45594000000E+02  0.51100000000E-03 0.  1.
         11   -1    0    0    0    0 -0.00000000000E+00 -0.00000000000E+00 -0.45593999997E+02  0.45594000000E+02  0.51100000000E-03 0. -1.
    9900012    2    1    2    0    0 -0.28816402628E+02 -0.22228764706E+02 -0.18129048704E+02  0.50528862679E+02  0.30000008600E+02 0.  0.
        -12    1    1    2    0    0  0.28816402628E+02  0.22228764706E+02  0.18129048704E+02  0.40659137321E+02  0.00000000000E+00 0.  1.
         11    1    3    3    0    0 -0.21397050414E+02 -0.22082122527E+02 -0.22440597078E+02  0.38066183145E+02  0.51100000000E-03 0. -1.
        -11    1    3    3    0    0 -0.62217234757E+01 -0.15870507484E+01 -0.12960703556E+01  0.65504482071E+01  0.51100000000E-03 0.  1.
         12    1    3    3    0    0 -0.11976287390E+01  0.14404085697E+01  0.56076187305E+01  0.59122313275E+01  0.00000000000E+00 0. -1.
</event>
<event>
 7    1  0.4962385E-011  0.5052886E+02  0.7816164E-02  0.1300439E+00
        -11   -1    0    0    0    0  0.00000000000E+00  0.00000000000E+00  0.45593999997E+02  0.45594000000E+02  0.51100000000E-03 0.  1.
         11   -1    0    0    0    0 -0.00000000000E+00 -0.00000000000E+00 -0.45593999997E+02  0.45594000000E+02  0.51100000000E-03 0. -1.
    9900012    2    1    2    0    0 -0.20931737143E+02  0.13648371480E+02 -0.32074136100E+02  0.50528857480E+02  0.29999992797E+02 0.  0.
        -12    1    1    2    0    0  0.20931737143E+02 -0.13648371480E+02  0.32074136100E+02  0.40659142520E+02  0.00000000000E+00 0.  1.
         11    1    3    3    0    0 -0.12779660191E+01  0.73407543472E+01  0.99834536341E+00  0.75177500130E+01  0.51100000000E-03 0.  1.
        -11    1    3    3    0    0 -0.19832133990E+02 -0.11313563605E+00 -0.18654802842E+02  0.27227339341E+02  0.51100000000E-03 0. -1.
         12    1    3    3    0    0  0.17836286567E+00  0.64207527690E+01 -0.14417678621E+02  0.15783768126E+02  0.00000000000E+00 0. -1.
</event>
<event>
 7    1  0.4962385E-011  0.5052885E+02  0.7816164E-02  0.1300439E+00
        -11   -1    0    0    0    0  0.00000000000E+00  0.00000000000E+00  0.45593999997E+02  0.45594000000E+02  0.51100000000E-03 0. -1.
         11   -1    0    0    0    0 -0.00000000000E+00 -0.00000000000E+00 -0.45593999997E+02  0.45594000000E+02  0.51100000000E-03 0.  1.
    9900012    2    1    2    0    0 -0.30445324148E+02 -0.12352871388E+02 -0.23951100566E+02  0.50528850816E+02  0.29999972541E+02 0.  0.
        -12    1    1    2    0    0  0.30445324148E+02  0.12352871388E+02  0.23951100566E+02  0.40659149184E+02  0.00000000000E+00 0.  1.
         11    1    3    3    0    0 -0.24397815114E+02 -0.14139308907E+02 -0.91833889703E+01  0.29656501344E+02  0.51100000000E-03 0. -1.
        -11    1    3    3    0    0  0.35375614994E+01  0.31715339160E+01 -0.29466736742E+01  0.55906935836E+01  0.51100000000E-03 0.  1.
         12    1    3    3    0    0 -0.95850705341E+01 -0.13850963961E+01 -0.11821037922E+02  0.15281655889E+02  0.00000000000E+00 0. -1.
</event>
<event>
 7    1  0.4962385E-011  0.5052887E+02  0.7816164E-02  0.1300439E+00
        -11   -1    0    0    0    0  0.00000000000E+00  0.00000000000E+00  0.45593999997E+02  0.45594000000E+02  0.51100000000E-03 0. -1.
         11   -1    0    0    0    0 -0.00000000000E+00 -0.00000000000E+00 -0.45593999997E+02  0.45594000000E+02  0.51100000000E-03 0.  1.
    9900012    2    1    2    0    0 -0.27888117694E+02  0.12418631413E+02  0.26855078915E+02  0.50528870912E+02  0.30000033623E+02 0.  0.
        -12    1    1    2    0    0  0.27888117694E+02 -0.12418631413E+02 -0.26855078915E+02  0.40659129088E+02  0.00000000000E+00 0.  1.
         11    1    3    3    0    0 -0.92591709441E+01  0.17211440138E+02  0.91317318957E+01  0.21572075604E+02  0.51100000000E-03 0. -1.
        -11    1    3    3    0    0 -0.50000236886E+01 -0.46914116517E+01  0.33636006280E+00  0.68645989341E+01  0.51100000000E-03 0.  1.
         12    1    3    3    0    0 -0.13628923061E+02 -0.10139707352E+00  0.17386986956E+02  0.22092196373E+02  0.00000000000E+00 0. -1.
</event>
<event>
 7    1  0.4962385E-011  0.5052886E+02  0.7816164E-02  0.1300439E+00
        -11   -1    0    0    0    0  0.00000000000E+00  0.00000000000E+00  0.45593999997E+02  0.45594000000E+02  0.51100000000E-03 0. -1.
         11   -1    0    0    0    0 -0.00000000000E+00 -0.00000000000E+00 -0.45593999997E+02  0.45594000000E+02  0.51100000000E-03 0.  1.
    9900012    2    1    2    0    0 -0.65692614608E+01 -0.32951626828E+02  0.22895437632E+02  0.50528856242E+02  0.29999989034E+02 0.  0.
        -12    1    1    2    0    0  0.65692614608E+01  0.32951626828E+02 -0.22895437632E+02  0.40659143758E+02  0.00000000000E+00 0.  1.
         11    1    3    3    0    0 -0.69868389495E+01 -0.14790177339E+02  0.16941078472E+02  0.23549212392E+02  0.51100000000E-03 0. -1.
        -11    1    3    3    0    0  0.25181583409E+01  0.31364539943E+01  0.36908858998E+01  0.54590387500E+01  0.51100000000E-03 0.  1.
        -12    1    3    3    0    0 -0.21005808521E+01 -0.21297903483E+02  0.22634732609E+01  0.21520605101E+02  0.00000000000E+00 0.  1.
</event>
<event>
 7    1  0.4962385E-011  0.5052886E+02  0.7816164E-02  0.1300439E+00
        -11   -1    0    0    0    0  0.00000000000E+00  0.00000000000E+00  0.45593999997E+02  0.45594000000E+02  0.51100000000E-03 0. -1.
         11   -1    0    0    0    0 -0.00000000000E+00 -0.00000000000E+00 -0.45593999997E+02  0.45594000000E+02  0.51100000000E-03 0.  1.
    9900012    2    1    2    0    0  0.35666469429E+02  0.20861267931E+01  0.19409181755E+02  0.50528864459E+02  0.30000014010E+02 0.  0.
        -12    1    1    2    0    0 -0.35666469429E+02 -0.20861267931E+01 -0.19409181755E+02  0.40659135541E+02  0.00000000000E+00 0.  1.
         11    1    3    3    0    0  0.20410684592E+02  0.11061709960E+02  0.10244722403E+02  0.25375417438E+02  0.51100000000E-03 0. -1.
        -11    1    3    3    0    0  0.10388140999E+02 -0.40721909297E+01  0.13095423039E+02  0.17204252881E+02  0.51100000000E-03 0.  1.
         12    1    3    3    0    0  0.48676438382E+01 -0.49033922374E+01 -0.39309636865E+01  0.79491941399E+01  0.00000000000E+00 0. -1.
</event>
<event>
 7    1  0.4962385E-011  0.5052886E+02  0.7816164E-02  0.1300439E+00
        -11   -1    0    0    0    0  0.00000000000E+00  0.00000000000E+00  0.45593999997E+02  0.45594000000E+02  0.51100000000E-03 0.  1.
         11   -1    0    0    0    0 -0.00000000000E+00 -0.00000000000E+00 -0.45593999997E+02  0.45594000000E+02  0.51100000000E-03 0. -1.
    9900012    2    1    2    0    0 -0.31652214189E+02 -0.73107193429E+01 -0.24451101398E+02  0.50528860315E+02  0.30000001414E+02 0.  0.
        -12    1    1    2    0    0  0.31652214189E+02  0.73107193429E+01  0.24451101398E+02  0.40659139685E+02  0.00000000000E+00 0.  1.
         11    1    3    3    0    0 -0.13241179886E+02 -0.73829160068E+01  0.23117353018E+01  0.15335593040E+02  0.51100000000E-03 0. -1.
        -11    1    3    3    0    0 -0.60179429933E+01  0.55713074705E+01 -0.51633883343E+01  0.96910104815E+01  0.51100000000E-03 0.  1.
         12    1    3    3    0    0 -0.12393091309E+02 -0.54991108066E+01 -0.21599448365E+02  0.25502256793E+02  0.00000000000E+00 0. -1.
</event>
<event>
 7    1  0.4962385E-011  0.5052885E+02  0.7816164E-02  0.1300439E+00
        -11   -1    0    0    0    0  0.00000000000E+00  0.00000000000E+00  0.45593999997E+02  0.45594000000E+02  0.51100000000E-03 0. -1.
         11   -1    0    0    0    0 -0.00000000000E+00 -0.00000000000E+00 -0.45593999997E+02  0.45594000000E+02  0.51100000000E-03 0.  1.
    9900012    2    1    2    0    0 -0.13692676181E+01  0.22782038491E+02  0.33649221284E+02  0.50528852633E+02  0.29999978062E+02 0.  0.
        -12    1    1    2    0    0  0.13692676181E+01 -0.22782038491E+02 -0.33649221284E+02  0.40659147367E+02  0.00000000000E+00 0.  1.
         11    1    3    3    0    0  0.15374558326E+01  0.90400682872E+01  0.93601737934E+01  0.13103414012E+02  0.51100000000E-03 0. -1.
        -11    1    3    3    0    0  0.78666687441E+00  0.78365971041E+01 -0.36144442245E+01  0.86657548002E+01  0.51100000000E-03 0.  1.
        -12    1    3    3    0    0 -0.36933903252E+01  0.59053730997E+01  0.27903491715E+02  0.28759683820E+02  0.00000000000E+00 0.  1.
</event>
<event>
 7    1  0.4962385E-011  0.5052886E+02  0.7816164E-02  0.1300439E+00
        -11   -1    0    0    0    0  0.00000000000E+00  0.00000000000E+00  0.45593999997E+02  0.45594000000E+02  0.51100000000E-03 0. -1.
         11   -1    0    0    0    0 -0.00000000000E+00 -0.00000000000E+00 -0.45593999997E+02  0.45594000000E+02  0.51100000000E-03 0.  1.
    9900012    2    1    2    0    0  0.28174697671E+02 -0.29168794801E+02  0.29212495126E+01  0.50528857391E+02  0.29999992525E+02 0.  0.
        -12    1    1    2    0    0 -0.28174697671E+02  0.29168794801E+02 -0.29212495126E+01  0.40659142609E+02  0.00000000000E+00 0.  1.
         11    1    3    3    0    0  0.12922500724E+02 -0.27230240066E+02 -0.14082946672E+01  0.30173834578E+02  0.51100000000E-03 0. -1.
        -11    1    3    3    0    0  0.94543625989E+01  0.48756885910E+01  0.57771689269E+00  0.10653218690E+02  0.51100000000E-03 0.  1.
        -12    1    3    3    0    0  0.57978343485E+01 -0.68142433263E+01  0.37518272871E+01  0.97018041227E+01  0.00000000000E+00 0.  1.
</event>
<event>
 7    1  0.4962385E-011  0.5052886E+02  0.7816164E-02  0.1300439E+00
        -11   -1    0    0    0    0  0.00000000000E+00  0.00000000000E+00  0.45593999997E+02  0.45594000000E+02  0.51100000000E-03 0.  1.
         11   -1    0    0    0    0 -0.00000000000E+00 -0.00000000000E+00 -0.45593999997E+02  0.45594000000E+02  0.51100000000E-03 0. -1.
    9900012    2    1    2    0    0 -0.31703398430E+02  0.64372401569E+00 -0.25448880073E+02  0.50528863885E+02  0.30000012266E+02 0.  0.
        -12    1    1    2    0    0  0.31703398430E+02 -0.64372401569E+00  0.25448880073E+02  0.40659136115E+02  0.00000000000E+00 0.  1.
         11    1    3    3    0    0 -0.54871922174E+01  0.54803840742E+01 -0.22185177083E+02  0.23501616338E+02  0.51100000000E-03 0. -1.
        -11    1    3    3    0    0 -0.54182732279E+01 -0.19882980044E+01  0.70702405427E-01  0.57720024963E+01  0.51100000000E-03 0.  1.
         12    1    3    3    0    0 -0.20797932985E+02 -0.28483620541E+01 -0.33344053953E+01  0.21255245051E+02  0.00000000000E+00 0. -1.
</event>
<event>
 7    1  0.4962385E-011  0.5052885E+02  0.7816164E-02  0.1300439E+00
        -11   -1    0    0    0    0  0.00000000000E+00  0.00000000000E+00  0.45593999997E+02  0.45594000000E+02  0.51100000000E-03 0.  1.
         11   -1    0    0    0    0 -0.00000000000E+00 -0.00000000000E+00 -0.45593999997E+02  0.45594000000E+02  0.51100000000E-03 0. -1.
    9900012    2    1    2    0    0 -0.28324279060E+02 -0.90616420221E+00 -0.29156142595E+02  0.50528848892E+02  0.29999966691E+02 0.  0.
        -12    1    1    2    0    0  0.28324279060E+02  0.90616420221E+00  0.29156142595E+02  0.40659151108E+02  0.00000000000E+00 0.  1.
         11    1    3    3    0    0 -0.10351489355E+02 -0.86215388428E+01 -0.10102205311E+02  0.16838610877E+02  0.51100000000E-03 0. -1.
        -11    1    3    3    0    0 -0.11408622583E+02  0.97666409575E+01 -0.18116005954E+01  0.15126990507E+02  0.51100000000E-03 0.  1.
        -12    1    3    3    0    0 -0.65641671226E+01 -0.20512663169E+01 -0.17242336689E+02  0.18563247507E+02  0.00000000000E+00 0.  1.
</event>
<event>
 7    1  0.4962385E-011  0.5052887E+02  0.7816164E-02  0.1300439E+00
        -11   -1    0    0    0    0  0.00000000000E+00  0.00000000000E+00  0.45593999997E+02  0.45594000000E+02  0.51100000000E-03 0. -1.
         11   -1    0    0    0    0 -0.00000000000E+00 -0.00000000000E+00 -0.45593999997E+02  0.45594000000E+02  0.51100000000E-03 0.  1.
    9900012    2    1    2    0    0 -0.21782626732E+02 -0.23172024889E+02  0.25332566314E+02  0.50528874569E+02  0.30000044739E+02 0.  0.
        -12    1    1    2    0    0  0.21782626732E+02  0.23172024889E+02 -0.25332566314E+02  0.40659125431E+02  0.00000000000E+00 0.  1.
         11    1    3    3    0    0 -0.76865735375E+01  0.55530204287E+01  0.17990443259E+01  0.96517360809E+01  0.51100000000E-03 0. -1.
        -11    1    3    3    0    0 -0.38061694007E+01 -0.93650647713E+01  0.23244156099E+01  0.10372765873E+02  0.51100000000E-03 0.  1.
         12    1    3    3    0    0 -0.10289883794E+02 -0.19359980547E+02  0.21209106378E+02  0.30504372614E+02  0.00000000000E+00 0. -1.
</event>
<event>
 7    1  0.4962385E-011  0.5052886E+02  0.7816164E-02  0.1300439E+00
        -11   -1    0    0    0    0  0.00000000000E+00  0.00000000000E+00  0.45593999997E+02  0.45594000000E+02  0.51100000000E-03 0.  1.
         11   -1    0    0    0    0 -0.00000000000E+00 -0.00000000000E+00 -0.45593999997E+02  0.45594000000E+02  0.51100000000E-03 0. -1.
    9900012    2    1    2    0    0  0.17500224751E+02 -0.35476259449E+02 -0.93990942130E+01  0.50528858066E+02  0.29999994576E+02 0.  0.
        -12    1    1    2    0    0 -0.17500224751E+02  0.35476259449E+02  0.93990942130E+01  0.40659141934E+02  0.00000000000E+00 0.  1.
         11    1    3    3    0    0  0.32458488628E+00 -0.54884345932E+01 -0.61129639484E+01  0.82217150357E+01  0.51100000000E-03 0. -1.
        -11    1    3    3    0    0  0.14358559284E+02 -0.11301688136E+02  0.83759027138E+01  0.20101047883E+02  0.51100000000E-03 0.  1.
        -12    1    3    3    0    0  0.28170805807E+01 -0.18686136719E+02 -0.11662032978E+02  0.22206095147E+02  0.00000000000E+00 0.  1.
</event>
<event>
 7    1  0.4962385E-011  0.5052886E+02  0.7816164E-02  0.1300439E+00
        -11   -1    0    0    0    0  0.00000000000E+00  0.00000000000E+00  0.45593999997E+02  0.45594000000E+02  0.51100000000E-03 0. -1.
         11   -1    0    0    0    0 -0.00000000000E+00 -0.00000000000E+00 -0.45593999997E+02  0.45594000000E+02  0.51100000000E-03 0.  1.
    9900012    2    1    2    0    0 -0.35521118191E+02 -0.19295533543E+02 -0.43701252492E+01  0.50528862688E+02  0.30000008625E+02 0.  0.
        -12    1    1    2    0    0  0.35521118191E+02  0.19295533543E+02  0.43701252492E+01  0.40659137312E+02  0.00000000000E+00 0.  1.
         11    1    3    3    0    0 -0.16132851739E+02 -0.39074547435E+01  0.97000658290E+00  0.16627628239E+02  0.51100000000E-03 0. -1.
        -11    1    3    3    0    0 -0.27173745445E+01  0.33575864659E+01 -0.75704804585E+01  0.87160590822E+01  0.51100000000E-03 0.  1.
        -12    1    3    3    0    0 -0.16670891907E+02 -0.18745665266E+02  0.22303486264E+01  0.25185175366E+02  0.00000000000E+00 0.  1.
</event>
<event>
 7    1  0.4962385E-011  0.5052885E+02  0.7816164E-02  0.1300439E+00
        -11   -1    0    0    0    0  0.00000000000E+00  0.00000000000E+00  0.45593999997E+02  0.45594000000E+02  0.51100000000E-03 0. -1.
         11   -1    0    0    0    0 -0.00000000000E+00 -0.00000000000E+00 -0.45593999997E+02  0.45594000000E+02  0.51100000000E-03 0.  1.
    9900012    2    1    2    0    0  0.24548552507E+02 -0.30042234730E+02  0.12165501851E+02  0.50528846872E+02  0.29999960553E+02 0.  0.
        -12    1    1    2    0    0 -0.24548552507E+02  0.30042234730E+02 -0.12165501851E+02  0.40659153128E+02  0.00000000000E+00 0.  1.
         11    1    3    3    0    0  0.20938668518E+02 -0.23836162276E+02 -0.16184445876E+01  0.31768063122E+02  0.51100000000E-03 0. -1.
        -11    1    3    3    0    0 -0.22586238388E+01 -0.56353484973E+01  0.10172587388E+02  0.11846521378E+02  0.51100000000E-03 0.  1.
        -12    1    3    3    0    0  0.58685078277E+01 -0.57072395664E+00  0.36113590511E+01  0.69142623724E+01  0.00000000000E+00 0.  1.
</event>
<event>
 7    1  0.4962385E-011  0.5052883E+02  0.7816164E-02  0.1300439E+00
        -11   -1    0    0    0    0  0.00000000000E+00  0.00000000000E+00  0.45593999997E+02  0.45594000000E+02  0.51100000000E-03 0.  1.
         11   -1    0    0    0    0 -0.00000000000E+00 -0.00000000000E+00 -0.45593999997E+02  0.45594000000E+02  0.51100000000E-03 0. -1.
    9900012    2    1    2    0    0 -0.89360867113E+01 -0.37640510972E+02  0.12510266865E+02  0.50528825279E+02  0.29999894917E+02 0.  0.
        -12    1    1    2    0    0  0.89360867113E+01  0.37640510972E+02 -0.12510266865E+02  0.40659174721E+02  0.00000000000E+00 0.  1.
         11    1    3    3    0    0  0.69846501261E+01 -0.77904980780E+01  0.75120646892E+01  0.12880540122E+02  0.51100000000E-03 0.  1.
        -11    1    3    3    0    0 -0.57192248337E+01 -0.54989878271E+01 -0.50437096213E+01  0.94014576969E+01  0.51100000000E-03 0. -1.
        -12    1    3    3    0    0 -0.10201512004E+02 -0.24351025067E+02  0.10041911797E+02  0.28246827460E+02  0.00000000000E+00 0.  1.
</event>
<event>
 7    1  0.4962385E-011  0.5052886E+02  0.7816164E-02  0.1300439E+00
        -11   -1    0    0    0    0  0.00000000000E+00  0.00000000000E+00  0.45593999997E+02  0.45594000000E+02  0.51100000000E-03 0.  1.
         11   -1    0    0    0    0 -0.00000000000E+00 -0.00000000000E+00 -0.45593999997E+02  0.45594000000E+02  0.51100000000E-03 0. -1.
    9900012    2    1    2    0    0 -0.55203908205E+01  0.11839843516E+02 -0.38503365272E+02  0.50528859004E+02  0.29999997427E+02 0.  0.
        -12    1    1    2    0    0  0.55203908205E+01 -0.11839843516E+02  0.38503365272E+02  0.40659140996E+02  0.00000000000E+00 0.  1.
         11    1    3    3    0    0  0.49795923417E+01  0.35723375837E+01 -0.23877516989E+02  0.24651445262E+02  0.51100000000E-03 0. -1.
        -11    1    3    3    0    0 -0.14794127942E+02  0.53975716238E+01 -0.86081129752E+01  0.17947133761E+02  0.51100000000E-03 0.  1.
        -12    1    3    3    0    0  0.42941447796E+01  0.28699343082E+01 -0.60177353078E+01  0.79302799797E+01  0.00000000000E+00 0.  1.
</event>
<event>
 7    1  0.4962385E-011  0.5052886E+02  0.7816164E-02  0.1300439E+00
        -11   -1    0    0    0    0  0.00000000000E+00  0.00000000000E+00  0.45593999997E+02  0.45594000000E+02  0.51100000000E-03 0.  1.
         11   -1    0    0    0    0 -0.00000000000E+00 -0.00000000000E+00 -0.45593999997E+02  0.45594000000E+02  0.51100000000E-03 0. -1.
    9900012    2    1    2    0    0 -0.25017396814E+02 -0.18464769690E+02 -0.26198245363E+02  0.50528856832E+02  0.29999990825E+02 0.  0.
        -12    1    1    2    0    0  0.25017396814E+02  0.18464769690E+02  0.26198245363E+02  0.40659143168E+02  0.00000000000E+00 0.  1.
         11    1    3    3    0    0 -0.19417603604E+02 -0.29403755983E+01 -0.20350830098E+02  0.28281538578E+02  0.51100000000E-03 0. -1.
        -11    1    3    3    0    0  0.99198527937E+00 -0.14186875190E+02 -0.61950012844E+01  0.15512237222E+02  0.51100000000E-03 0.  1.
        -12    1    3    3    0    0 -0.65917784893E+01 -0.13375189022E+01  0.34758601944E+00  0.67350810319E+01  0.00000000000E+00 0.  1.
</event>
<event>
 7    1  0.4962385E-011  0.5052891E+02  0.7816164E-02  0.1300439E+00
        -11   -1    0    0    0    0  0.00000000000E+00  0.00000000000E+00  0.45593999997E+02  0.45594000000E+02  0.51100000000E-03 0. -1.
         11   -1    0    0    0    0 -0.00000000000E+00 -0.00000000000E+00 -0.45593999997E+02  0.45594000000E+02  0.51100000000E-03 0.  1.
    9900012    2    1    2    0    0  0.14193947363E+02  0.13762215121E+02  0.35528794806E+02  0.50528905481E+02  0.30000138698E+02 0.  0.
        -12    1    1    2    0    0 -0.14193947363E+02 -0.13762215121E+02 -0.35528794806E+02  0.40659094519E+02  0.00000000000E+00 0.  1.
         11    1    3    3    0    0  0.14521146106E+02 -0.24235400444E+01  0.74743976701E+01  0.16510719286E+02  0.51100000000E-03 0. -1.
        -11    1    3    3    0    0  0.17375542248E+01  0.11296185429E+02  0.99552476539E+01  0.15156841889E+02  0.51100000000E-03 0.  1.
         12    1    3    3    0    0 -0.20647529676E+01  0.48895697365E+01  0.18099149482E+02  0.18861344305E+02  0.00000000000E+00 0. -1.
</event>
<event>
 7    1  0.4962385E-011  0.5052886E+02  0.7816164E-02  0.1300439E+00
        -11   -1    0    0    0    0  0.00000000000E+00  0.00000000000E+00  0.45593999997E+02  0.45594000000E+02  0.51100000000E-03 0.  1.
         11   -1    0    0    0    0 -0.00000000000E+00 -0.00000000000E+00 -0.45593999997E+02  0.45594000000E+02  0.51100000000E-03 0. -1.
    9900012    2    1    2    0    0  0.75029329511E+01 -0.26205196894E+02 -0.30168846696E+02  0.50528860092E+02  0.30000000734E+02 0.  0.
        -12    1    1    2    0    0 -0.75029329511E+01  0.26205196894E+02  0.30168846696E+02  0.40659139908E+02  0.00000000000E+00 0.  1.
         11    1    3    3    0    0 -0.10364249068E+02 -0.11354861319E+02 -0.10703653929E+02  0.18732825254E+02  0.51100000000E-03 0. -1.
        -11    1    3    3    0    0  0.59216288581E+01 -0.22501413863E+01 -0.93639562681E+00  0.64035663206E+01  0.51100000000E-03 0.  1.
         12    1    3    3    0    0  0.11945553161E+02 -0.12600194189E+02 -0.18528797140E+02  0.25392468516E+02  0.00000000000E+00 0. -1.
</event>
<event>
 7    1  0.4962385E-011  0.5052887E+02  0.7816164E-02  0.1300439E+00
        -11   -1    0    0    0    0  0.00000000000E+00  0.00000000000E+00  0.45593999997E+02  0.45594000000E+02  0.51100000000E-03 0. -1.
         11   -1    0    0    0    0 -0.00000000000E+00 -0.00000000000E+00 -0.45593999997E+02  0.45594000000E+02  0.51100000000E-03 0.  1.
    9900012    2    1    2    0    0  0.31541744977E+01  0.19509316898E+02  0.35533123049E+02  0.50528867002E+02  0.30000021738E+02 0.  0.
        -12    1    1    2    0    0 -0.31541744977E+01 -0.19509316898E+02 -0.35533123049E+02  0.40659132998E+02  0.00000000000E+00 0.  1.
         11    1    3    3    0    0  0.60007126883E+01 -0.33146826227E+00 -0.24752920522E+01  0.64996534509E+01  0.51100000000E-03 0.  1.
        -11    1    3    3    0    0 -0.24298844353E+01  0.59928367349E+01  0.48206401392E+01  0.80657920945E+01  0.51100000000E-03 0. -1.
         12    1    3    3    0    0 -0.41665375537E+00  0.13847948425E+02  0.33187774962E+02  0.35963421456E+02  0.00000000000E+00 0. -1.
</event>
<event>
 7    1  0.4962385E-011  0.5052886E+02  0.7816164E-02  0.1300439E+00
        -11   -1    0    0    0    0  0.00000000000E+00  0.00000000000E+00  0.45593999997E+02  0.45594000000E+02  0.51100000000E-03 0. -1.
         11   -1    0    0    0    0 -0.00000000000E+00 -0.00000000000E+00 -0.45593999997E+02  0.45594000000E+02  0.51100000000E-03 0.  1.
    9900012    2    1    2    0    0  0.60547969891E+01 -0.19072750703E+02  0.35393998726E+02  0.50528861645E+02  0.30000005456E+02 0.  0.
        -12    1    1    2    0    0 -0.60547969891E+01  0.19072750703E+02 -0.35393998726E+02  0.40659138355E+02  0.00000000000E+00 0.  1.
         11    1    3    3    0    0  0.13556757745E+01 -0.23426917401E+01  0.13477433882E+02  0.13746537226E+02  0.51100000000E-03 0. -1.
        -11    1    3    3    0    0  0.13663349262E+02 -0.14342993424E+02  0.11804806751E+02  0.23059966091E+02  0.51100000000E-03 0.  1.
        -12    1    3    3    0    0 -0.89642280471E+01 -0.23870655386E+01  0.10111758093E+02  0.13722358329E+02  0.00000000000E+00 0.  1.
</event>
<event>
 7    1  0.4962385E-011  0.5052886E+02  0.7816164E-02  0.1300439E+00
        -11   -1    0    0    0    0  0.00000000000E+00  0.00000000000E+00  0.45593999997E+02  0.45594000000E+02  0.51100000000E-03 0.  1.
         11   -1    0    0    0    0 -0.00000000000E+00 -0.00000000000E+00 -0.45593999997E+02  0.45594000000E+02  0.51100000000E-03 0. -1.
    9900012    2    1    2    0    0  0.21936962184E+02  0.10125055312E+02 -0.32701969123E+02  0.50528857861E+02  0.29999993955E+02 0.  0.
        -12    1    1    2    0    0 -0.21936962184E+02 -0.10125055312E+02  0.32701969123E+02  0.40659142139E+02  0.00000000000E+00 0.  1.
         11    1    3    3    0    0  0.43165504200E+01  0.10636580860E+02 -0.23727782388E+02  0.26358625101E+02  0.51100000000E-03 0. -1.
        -11    1    3    3    0    0  0.94927768767E+01  0.27085769004E+01  0.20683735850E+01  0.10085998771E+02  0.51100000000E-03 0.  1.
         12    1    3    3    0    0  0.81276348872E+01 -0.32201024481E+01 -0.11042560321E+02  0.14084233989E+02  0.00000000000E+00 0. -1.
</event>
<event>
 7    1  0.4962385E-011  0.5052885E+02  0.7816164E-02  0.1300439E+00
        -11   -1    0    0    0    0  0.00000000000E+00  0.00000000000E+00  0.45593999997E+02  0.45594000000E+02  0.51100000000E-03 0. -1.
         11   -1    0    0    0    0 -0.00000000000E+00 -0.00000000000E+00 -0.45593999997E+02  0.45594000000E+02  0.51100000000E-03 0.  1.
    9900012    2    1    2    0    0 -0.36529746560E+02 -0.10534199478E+02  0.14414395720E+02  0.50528849168E+02  0.29999967532E+02 0.  0.
        -12    1    1    2    0    0  0.36529746560E+02  0.10534199478E+02 -0.14414395720E+02  0.40659150832E+02  0.00000000000E+00 0.  1.
         11    1    3    3    0    0  0.25754473741E+01  0.20628400501E+01  0.42845828029E+01  0.54079467735E+01  0.51100000000E-03 0. -1.
        -11    1    3    3    0    0 -0.15708627439E+02 -0.58887232143E+01 -0.36258177463E+01  0.17163466774E+02  0.51100000000E-03 0.  1.
         12    1    3    3    0    0 -0.23396566495E+02 -0.67083163136E+01  0.13755630664E+02  0.27957435621E+02  0.00000000000E+00 0. -1.
</event>
<event>
 7    1  0.4962385E-011  0.5052884E+02  0.7816164E-02  0.1300439E+00
        -11   -1    0    0    0    0  0.00000000000E+00  0.00000000000E+00  0.45593999997E+02  0.45594000000E+02  0.51100000000E-03 0.  1.
         11   -1    0    0    0    0 -0.00000000000E+00 -0.00000000000E+00 -0.45593999997E+02  0.45594000000E+02  0.51100000000E-03 0. -1.
    9900012    2    1    2    0    0 -0.13709568570E+02 -0.35490904862E+02  0.14339130556E+02  0.50528840351E+02  0.29999940731E+02 0.  0.
        -12    1    1    2    0    0  0.13709568570E+02  0.35490904862E+02 -0.14339130556E+02  0.40659159649E+02  0.00000000000E+00 0.  1.
         11    1    3    3    0    0 -0.13546782692E+02 -0.23164325179E+02  0.19495849795E+02  0.33169103723E+02  0.51100000000E-03 0. -1.
        -11    1    3    3    0    0  0.51091059693E+01 -0.56801944045E+01 -0.43817413017E+00  0.76524224340E+01  0.51100000000E-03 0.  1.
         12    1    3    3    0    0 -0.52718918475E+01 -0.66463852778E+01 -0.47185451090E+01  0.97073141939E+01  0.00000000000E+00 0. -1.
</event>
<event>
 7    1  0.4962385E-011  0.5052886E+02  0.7816164E-02  0.1300439E+00
        -11   -1    0    0    0    0  0.00000000000E+00  0.00000000000E+00  0.45593999997E+02  0.45594000000E+02  0.51100000000E-03 0. -1.
         11   -1    0    0    0    0 -0.00000000000E+00 -0.00000000000E+00 -0.45593999997E+02  0.45594000000E+02  0.51100000000E-03 0.  1.
    9900012    2    1    2    0    0 -0.12125986501E+02  0.16672250357E+02  0.35045145668E+02  0.50528859386E+02  0.29999998590E+02 0.  0.
        -12    1    1    2    0    0  0.12125986501E+02 -0.16672250357E+02 -0.35045145668E+02  0.40659140614E+02  0.00000000000E+00 0.  1.
         11    1    3    3    0    0 -0.80512436595E+01  0.92677575616E+01  0.15579532672E+02  0.19835213465E+02  0.51100000000E-03 0. -1.
        -11    1    3    3    0    0  0.46630997465E+01 -0.58868407545E+01  0.40026324876E+01  0.85100211755E+01  0.51100000000E-03 0.  1.
        -12    1    3    3    0    0 -0.87378425882E+01  0.13291333550E+02  0.15462980509E+02  0.22183624745E+02  0.00000000000E+00 0.  1.
</event>
<event>
 7    1  0.4962385E-011  0.5052886E+02  0.7816164E-02  0.1300439E+00
        -11   -1    0    0    0    0  0.00000000000E+00  0.00000000000E+00  0.45593999997E+02  0.45594000000E+02  0.51100000000E-03 0. -1.
         11   -1    0    0    0    0 -0.00000000000E+00 -0.00000000000E+00 -0.45593999997E+02  0.45594000000E+02  0.51100000000E-03 0.  1.
    9900012    2    1    2    0    0  0.15599881784E+02 -0.34901506091E+02  0.13845354274E+02  0.50528864814E+02  0.30000015090E+02 0.  0.
        -12    1    1    2    0    0 -0.15599881784E+02  0.34901506091E+02 -0.13845354274E+02  0.40659135186E+02  0.00000000000E+00 0.  1.
         11    1    3    3    0    0  0.77310004395E+01 -0.31069397124E+02  0.17025559317E+02  0.36262176931E+02  0.51100000000E-03 0. -1.
        -11    1    3    3    0    0  0.59993541098E+01 -0.74678643483E+01 -0.34199762677E+01  0.10171405291E+02  0.51100000000E-03 0.  1.
         12    1    3    3    0    0  0.18695272343E+01  0.36357553813E+01  0.23977122414E+00  0.40952825925E+01  0.00000000000E+00 0. -1.
</event>
<event>
 7    1  0.4962385E-011  0.5052878E+02  0.7816164E-02  0.1300439E+00
        -11   -1    0    0    0    0  0.00000000000E+00  0.00000000000E+00  0.45593999997E+02  0.45594000000E+02  0.51100000000E-03 0.  1.
         11   -1    0    0    0    0 -0.00000000000E+00 -0.00000000000E+00 -0.45593999997E+02  0.45594000000E+02  0.51100000000E-03 0. -1.
    9900012    2    1    2    0    0  0.13772101931E+01  0.12077228389E+02 -0.38799692334E+02  0.50528778676E+02  0.29999753263E+02 0.  0.
        -12    1    1    2    0    0 -0.13772101931E+01 -0.12077228389E+02  0.38799692334E+02  0.40659221324E+02  0.00000000000E+00 0.  1.
         11    1    3    3    0    0  0.30934024213E+01  0.99714713868E+01 -0.13663380621E+02  0.17195561939E+02  0.51100000000E-03 0. -1.
        -11    1    3    3    0    0 -0.51103034796E+00 -0.75836101818E+01 -0.21682810899E+02  0.22976435410E+02  0.51100000000E-03 0.  1.
        -12    1    3    3    0    0 -0.12051618803E+01  0.96893671837E+01 -0.34535008133E+01  0.10356781326E+02  0.00000000000E+00 0.  1.
</event>
<event>
 7    1  0.4962385E-011  0.5052886E+02  0.7816164E-02  0.1300439E+00
        -11   -1    0    0    0    0  0.00000000000E+00  0.00000000000E+00  0.45593999997E+02  0.45594000000E+02  0.51100000000E-03 0.  1.
         11   -1    0    0    0    0 -0.00000000000E+00 -0.00000000000E+00 -0.45593999997E+02  0.45594000000E+02  0.51100000000E-03 0. -1.
    9900012    2    1    2    0    0 -0.33381013348E+02 -0.18619408391E+02 -0.13863301640E+02  0.50528861380E+02  0.30000004652E+02 0.  0.
        -12    1    1    2    0    0  0.33381013348E+02  0.18619408391E+02  0.13863301640E+02  0.40659138620E+02  0.00000000000E+00 0.  1.
         11    1    3    3    0    0 -0.12298322478E+02 -0.97214293969E+00 -0.12080356831E+02  0.17266407243E+02  0.51100000000E-03 0. -1.
        -11    1    3    3    0    0 -0.20536034402E+02 -0.14109740491E+02  0.51657394538E+01  0.25445988880E+02  0.51100000000E-03 0.  1.
        -12    1    3    3    0    0 -0.54665646702E+00 -0.35375249605E+01 -0.69486842627E+01  0.78164652575E+01  0.00000000000E+00 0.  1.
</event>
<event>
 7    1  0.4962385E-011  0.5052886E+02  0.7816164E-02  0.1300439E+00
        -11   -1    0    0    0    0  0.00000000000E+00  0.00000000000E+00  0.45593999997E+02  0.45594000000E+02  0.51100000000E-03 0.  1.
         11   -1    0    0    0    0 -0.00000000000E+00 -0.00000000000E+00 -0.45593999997E+02  0.45594000000E+02  0.51100000000E-03 0. -1.
    9900012    2    1    2    0    0  0.51342098822E+01 -0.13372117902E+02 -0.38052485802E+02  0.50528864200E+02  0.30000013221E+02 0.  0.
        -12    1    1    2    0    0 -0.51342098822E+01  0.13372117902E+02  0.38052485802E+02  0.40659135800E+02  0.00000000000E+00 0.  1.
         11    1    3    3    0    0  0.81824919771E+01 -0.10563753438E+02 -0.11487437258E+02  0.17621216662E+02  0.51100000000E-03 0. -1.
        -11    1    3    3    0    0  0.33529944171E+01  0.37026118426E+01 -0.22258879008E+02  0.22812487829E+02  0.51100000000E-03 0.  1.
        -12    1    3    3    0    0 -0.64012765119E+01 -0.65109763067E+01 -0.43061695369E+01  0.10095159708E+02  0.00000000000E+00 0.  1.
</event>
<event>
 7    1  0.4962385E-011  0.5052882E+02  0.7816164E-02  0.1300439E+00
        -11   -1    0    0    0    0  0.00000000000E+00  0.00000000000E+00  0.45593999997E+02  0.45594000000E+02  0.51100000000E-03 0.  1.
         11   -1    0    0    0    0 -0.00000000000E+00 -0.00000000000E+00 -0.45593999997E+02  0.45594000000E+02  0.51100000000E-03 0. -1.
    9900012    2    1    2    0    0 -0.25235839559E+02  0.31260000536E+02 -0.62556624010E+01  0.50528824605E+02  0.29999892869E+02 0.  0.
        -12    1    1    2    0    0  0.25235839559E+02 -0.31260000536E+02  0.62556624010E+01  0.40659175395E+02  0.00000000000E+00 0.  1.
         11    1    3    3    0    0 -0.11529600075E+02  0.71767039473E+01  0.61015663357E+01  0.14888447516E+02  0.51100000000E-03 0. -1.
        -11    1    3    3    0    0 -0.15985880859E+02  0.25823017154E+02 -0.10150725651E+02  0.32022083525E+02  0.51100000000E-03 0.  1.
        -12    1    3    3    0    0  0.22796413753E+01 -0.17397205655E+01 -0.22065030861E+01  0.36182935639E+01  0.00000000000E+00 0.  1.
</event>
<event>
 7    1  0.4962385E-011  0.5052886E+02  0.7816164E-02  0.1300439E+00
        -11   -1    0    0    0    0  0.00000000000E+00  0.00000000000E+00  0.45593999997E+02  0.45594000000E+02  0.51100000000E-03 0.  1.
         11   -1    0    0    0    0 -0.00000000000E+00 -0.00000000000E+00 -0.45593999997E+02  0.45594000000E+02  0.51100000000E-03 0. -1.
    9900012    2    1    2    0    0 -0.26433912950E+02  0.10403970497E+02 -0.29089030298E+02  0.50528855400E+02  0.29999986473E+02 0.  0.
        -12    1    1    2    0    0  0.26433912950E+02 -0.10403970497E+02  0.29089030298E+02  0.40659144600E+02  0.00000000000E+00 0.  1.
         11    1    3    3    0    0 -0.51874012314E+00  0.96652692582E+01 -0.13166690860E+02  0.16341611598E+02  0.51100000000E-03 0. -1.
        -11    1    3    3    0    0 -0.18764321041E+02  0.75017416400E+01 -0.12524790955E+02  0.23774908212E+02  0.51100000000E-03 0.  1.
         12    1    3    3    0    0 -0.71508517861E+01 -0.67630404014E+01 -0.33975484822E+01  0.10412335589E+02  0.00000000000E+00 0. -1.
</event>
<event>
 7    1  0.4962385E-011  0.5052886E+02  0.7816164E-02  0.1300439E+00
        -11   -1    0    0    0    0  0.00000000000E+00  0.00000000000E+00  0.45593999997E+02  0.45594000000E+02  0.51100000000E-03 0.  1.
         11   -1    0    0    0    0 -0.00000000000E+00 -0.00000000000E+00 -0.45593999997E+02  0.45594000000E+02  0.51100000000E-03 0. -1.
    9900012    2    1    2    0    0 -0.13959059931E+02 -0.10215489826E+01 -0.38174168157E+02  0.50528855506E+02  0.29999986795E+02 0.  0.
        -12    1    1    2    0    0  0.13959059931E+02  0.10215489826E+01  0.38174168157E+02  0.40659144494E+02  0.00000000000E+00 0.  1.
         11    1    3    3    0    0 -0.10495258387E+02 -0.10681937217E+02 -0.29712904889E+02  0.33273276793E+02  0.51100000000E-03 0. -1.
        -11    1    3    3    0    0 -0.49036588656E+01  0.10546930530E+02 -0.97116727181E+01  0.15152564177E+02  0.51100000000E-03 0.  1.
         12    1    3    3    0    0  0.14398573210E+01 -0.88654229537E+00  0.12504094501E+01  0.21030145361E+01  0.00000000000E+00 0. -1.
</event>
<event>
 7    1  0.4962385E-011  0.5052885E+02  0.7816164E-02  0.1300439E+00
        -11   -1    0    0    0    0  0.00000000000E+00  0.00000000000E+00  0.45593999997E+02  0.45594000000E+02  0.51100000000E-03 0.  1.
         11   -1    0    0    0    0 -0.00000000000E+00 -0.00000000000E+00 -0.45593999997E+02  0.45594000000E+02  0.51100000000E-03 0. -1.
    9900012    2    1    2    0    0  0.17337609513E+02  0.77722176474E+01 -0.35946720036E+02  0.50528846638E+02  0.29999959840E+02 0.  0.
        -12    1    1    2    0    0 -0.17337609513E+02 -0.77722176474E+01  0.35946720036E+02  0.40659153362E+02  0.00000000000E+00 0.  1.
         11    1    3    3    0    0 -0.61692469865E+01 -0.25571543809E+01 -0.15248436162E+02  0.16646724980E+02  0.51100000000E-03 0. -1.
        -11    1    3    3    0    0  0.10594030700E+02  0.10528748685E+01 -0.59526691045E+01  0.12197389134E+02  0.51100000000E-03 0.  1.
         12    1    3    3    0    0  0.12912825800E+02  0.92764971598E+01 -0.14745614769E+02  0.21684732523E+02  0.00000000000E+00 0. -1.
</event>
<event>
 7    1  0.4962385E-011  0.5052886E+02  0.7816164E-02  0.1300439E+00
        -11   -1    0    0    0    0  0.00000000000E+00  0.00000000000E+00  0.45593999997E+02  0.45594000000E+02  0.51100000000E-03 0.  1.
         11   -1    0    0    0    0 -0.00000000000E+00 -0.00000000000E+00 -0.45593999997E+02  0.45594000000E+02  0.51100000000E-03 0. -1.
    9900012    2    1    2    0    0 -0.11156440327E+02  0.10619023377E+01 -0.39084168931E+02  0.50528855169E+02  0.29999985772E+02 0.  0.
        -12    1    1    2    0    0  0.11156440327E+02 -0.10619023377E+01  0.39084168931E+02  0.40659144831E+02  0.00000000000E+00 0.  1.
         11    1    3    3    0    0 -0.41773164381E+01  0.11601621905E+02 -0.22655806687E+02  0.25794053198E+02  0.51100000000E-03 0. -1.
        -11    1    3    3    0    0 -0.39150674998E+01 -0.13584550168E+02 -0.11932749004E+02  0.18500223129E+02  0.51100000000E-03 0.  1.
        -12    1    3    3    0    0 -0.30640563887E+01  0.30448306002E+01 -0.44956132403E+01  0.62345788425E+01  0.00000000000E+00 0.  1.
</event>
<event>
 7    1  0.4962385E-011  0.5052888E+02  0.7816164E-02  0.1300439E+00
        -11   -1    0    0    0    0  0.00000000000E+00  0.00000000000E+00  0.45593999997E+02  0.45594000000E+02  0.51100000000E-03 0.  1.
         11   -1    0    0    0    0 -0.00000000000E+00 -0.00000000000E+00 -0.45593999997E+02  0.45594000000E+02  0.51100000000E-03 0. -1.
    9900012    2    1    2    0    0  0.12000105204E+02 -0.37775110224E+02 -0.90665747100E+01  0.50528877354E+02  0.30000053206E+02 0.  0.
        -12    1    1    2    0    0 -0.12000105204E+02  0.37775110224E+02  0.90665747100E+01  0.40659122646E+02  0.00000000000E+00 0.  1.
         11    1    3    3    0    0  0.13540266650E+02 -0.10871791155E+02 -0.10199440541E+02  0.20138601030E+02  0.51100000000E-03 0. -1.
        -11    1    3    3    0    0 -0.84427121278E+00 -0.21755797343E+02  0.66965218592E+01  0.22778738270E+02  0.51100000000E-03 0.  1.
        -12    1    3    3    0    0 -0.69589023281E+00 -0.51475217267E+01 -0.55636560283E+01  0.76115380538E+01  0.00000000000E+00 0.  1.
</event>
<event>
 7    1  0.4962385E-011  0.5052886E+02  0.7816164E-02  0.1300439E+00
        -11   -1    0    0    0    0  0.00000000000E+00  0.00000000000E+00  0.45593999997E+02  0.45594000000E+02  0.51100000000E-03 0. -1.
         11   -1    0    0    0    0 -0.00000000000E+00 -0.00000000000E+00 -0.45593999997E+02  0.45594000000E+02  0.51100000000E-03 0.  1.
    9900012    2    1    2    0    0 -0.30869179189E+02 -0.13723369034E+02  0.22625836169E+02  0.50528861497E+02  0.30000005008E+02 0.  0.
        -12    1    1    2    0    0  0.30869179189E+02  0.13723369034E+02 -0.22625836169E+02  0.40659138503E+02  0.00000000000E+00 0.  1.
         11    1    3    3    0    0 -0.78907928779E+01 -0.62297275122E+01  0.21901154812E+02  0.24098437698E+02  0.51100000000E-03 0. -1.
        -11    1    3    3    0    0 -0.11648676471E+02 -0.13301231435E+01 -0.44402026857E+01  0.12536996900E+02  0.51100000000E-03 0.  1.
        -12    1    3    3    0    0 -0.11329709839E+02 -0.61635183780E+01  0.51648840422E+01  0.13893426899E+02  0.00000000000E+00 0.  1.
</event>
<event>
 7    1  0.4962385E-011  0.5052887E+02  0.7816164E-02  0.1300439E+00
        -11   -1    0    0    0    0  0.00000000000E+00  0.00000000000E+00  0.45593999997E+02  0.45594000000E+02  0.51100000000E-03 0.  1.
         11   -1    0    0    0    0 -0.00000000000E+00 -0.00000000000E+00 -0.45593999997E+02  0.45594000000E+02  0.51100000000E-03 0. -1.
    9900012    2    1    2    0    0  0.21429106636E+02 -0.15994276797E+02 -0.30629088659E+02  0.50528873429E+02  0.30000041275E+02 0.  0.
        -12    1    1    2    0    0 -0.21429106636E+02  0.15994276797E+02  0.30629088659E+02  0.40659126571E+02  0.00000000000E+00 0.  1.
         11    1    3    3    0    0  0.45499315739E+01 -0.92087640823E+01 -0.23813893718E+02  0.25934624492E+02  0.51100000000E-03 0. -1.
        -11    1    3    3    0    0  0.13713971618E+02  0.14135675673E+01 -0.76482966132E+01  0.15766027786E+02  0.51100000000E-03 0.  1.
         12    1    3    3    0    0  0.31652034442E+01 -0.81990802816E+01  0.83310167222E+00  0.88282211517E+01  0.00000000000E+00 0. -1.
</event>
<event>
 7    1  0.4962385E-011  0.5052886E+02  0.7816164E-02  0.1300439E+00
        -11   -1    0    0    0    0  0.00000000000E+00  0.00000000000E+00  0.45593999997E+02  0.45594000000E+02  0.51100000000E-03 0.  1.
         11   -1    0    0    0    0 -0.00000000000E+00 -0.00000000000E+00 -0.45593999997E+02  0.45594000000E+02  0.51100000000E-03 0. -1.
    9900012    2    1    2    0    0 -0.13897198482E+02 -0.37376058549E+02  0.79412858715E+01  0.50528857122E+02  0.29999991707E+02 0.  0.
        -12    1    1    2    0    0  0.13897198482E+02  0.37376058549E+02 -0.79412858715E+01  0.40659142878E+02  0.00000000000E+00 0.  1.
         11    1    3    3    0    0 -0.11751654584E+02 -0.16750241594E+02 -0.71469616107E+01  0.21673740781E+02  0.51100000000E-03 0. -1.
        -11    1    3    3    0    0 -0.77185723077E+01 -0.12359745180E+02  0.80069322974E+01  0.16626804397E+02  0.51100000000E-03 0.  1.
         12    1    3    3    0    0  0.55730284096E+01 -0.82660717751E+01  0.70813151848E+01  0.12228311944E+02  0.00000000000E+00 0. -1.
</event>
<event>
 7    1  0.4962385E-011  0.5052885E+02  0.7816164E-02  0.1300439E+00
        -11   -1    0    0    0    0  0.00000000000E+00  0.00000000000E+00  0.45593999997E+02  0.45594000000E+02  0.51100000000E-03 0. -1.
         11   -1    0    0    0    0 -0.00000000000E+00 -0.00000000000E+00 -0.45593999997E+02  0.45594000000E+02  0.51100000000E-03 0.  1.
    9900012    2    1    2    0    0  0.32541539848E+02  0.62366382184E+01  0.23565199670E+02  0.50528854566E+02  0.29999983938E+02 0.  0.
        -12    1    1    2    0    0 -0.32541539848E+02 -0.62366382184E+01 -0.23565199670E+02  0.40659145434E+02  0.00000000000E+00 0.  1.
         11    1    3    3    0    0  0.11316154113E+02 -0.80230617568E+00  0.60513011866E+01  0.12857576966E+02  0.51100000000E-03 0. -1.
        -11    1    3    3    0    0  0.16018447773E+01  0.12302223691E+02  0.31812946614E+01  0.12807468540E+02  0.51100000000E-03 0.  1.
        -12    1    3    3    0    0  0.19623540958E+02 -0.52632792964E+01  0.14332603821E+02  0.24863809060E+02  0.00000000000E+00 0.  1.
</event>
<event>
 7    1  0.4962385E-011  0.5052888E+02  0.7816164E-02  0.1300439E+00
        -11   -1    0    0    0    0  0.00000000000E+00  0.00000000000E+00  0.45593999997E+02  0.45594000000E+02  0.51100000000E-03 0.  1.
         11   -1    0    0    0    0 -0.00000000000E+00 -0.00000000000E+00 -0.45593999997E+02  0.45594000000E+02  0.51100000000E-03 0. -1.
    9900012    2    1    2    0    0  0.18534813429E+02 -0.36188276041E+02  0.18266294713E+00  0.50528880514E+02  0.30000062809E+02 0.  0.
        -12    1    1    2    0    0 -0.18534813429E+02  0.36188276041E+02 -0.18266294713E+00  0.40659119486E+02  0.00000000000E+00 0.  1.
         11    1    3    3    0    0 -0.25089181311E+01 -0.18937089907E+02  0.82122805044E+01  0.20793017955E+02  0.51100000000E-03 0.  1.
        -11    1    3    3    0    0  0.15222644763E+01  0.93202505742E+00 -0.13398919916E+01  0.22318760391E+01  0.51100000000E-03 0. -1.
         12    1    3    3    0    0  0.19521467083E+02 -0.18183211191E+02 -0.66897255657E+01  0.27503986519E+02  0.00000000000E+00 0. -1.
</event>
<event>
 7    1  0.4962385E-011  0.5052886E+02  0.7816164E-02  0.1300439E+00
        -11   -1    0    0    0    0  0.00000000000E+00  0.00000000000E+00  0.45593999997E+02  0.45594000000E+02  0.51100000000E-03 0.  1.
         11   -1    0    0    0    0 -0.00000000000E+00 -0.00000000000E+00 -0.45593999997E+02  0.45594000000E+02  0.51100000000E-03 0. -1.
    9900012    2    1    2    0    0 -0.15224965943E+02  0.20306262453E+02 -0.31765103611E+02  0.50528859697E+02  0.29999999535E+02 0.  0.
        -12    1    1    2    0    0  0.15224965943E+02 -0.20306262453E+02  0.31765103611E+02  0.40659140303E+02  0.00000000000E+00 0.  1.
         11    1    3    3    0    0  0.46904207925E+01  0.66292580098E+01  0.16483238297E+01  0.82863792262E+01  0.51100000000E-03 0. -1.
        -11    1    3    3    0    0 -0.13498959722E+02  0.44712729418E+01 -0.14921689025E+02  0.20612399155E+02  0.51100000000E-03 0.  1.
        -12    1    3    3    0    0 -0.64164270130E+01  0.92057315014E+01 -0.18491738416E+02  0.21630081316E+02  0.00000000000E+00 0.  1.
</event>
<event>
 7    1  0.4962385E-011  0.5052886E+02  0.7816164E-02  0.1300439E+00
        -11   -1    0    0    0    0  0.00000000000E+00  0.00000000000E+00  0.45593999997E+02  0.45594000000E+02  0.51100000000E-03 0.  1.
         11   -1    0    0    0    0 -0.00000000000E+00 -0.00000000000E+00 -0.45593999997E+02  0.45594000000E+02  0.51100000000E-03 0. -1.
    9900012    2    1    2    0    0  0.59254047767E+01  0.27772721633E+02 -0.29098647441E+02  0.50528858696E+02  0.29999996494E+02 0.  0.
        -12    1    1    2    0    0 -0.59254047767E+01 -0.27772721633E+02  0.29098647441E+02  0.40659141304E+02  0.00000000000E+00 0.  1.
         11    1    3    3    0    0 -0.39004421696E+01  0.17634938092E+02 -0.10723353491E+02  0.21004637607E+02  0.51100000000E-03 0. -1.
        -11    1    3    3    0    0  0.15270240102E+02  0.80867306716E+01 -0.13332696247E+02  0.21825128526E+02  0.51100000000E-03 0.  1.
        -12    1    3    3    0    0 -0.54443931556E+01  0.20510528691E+01 -0.50425977024E+01  0.76990925630E+01  0.00000000000E+00 0.  1.
</event>
<event>
 7    1  0.5568397E-011  0.5052887E+02  0.7816164E-02  0.1300439E+00
        -11   -1    0    0    0    0  0.00000000000E+00  0.00000000000E+00  0.45593999997E+02  0.45594000000E+02  0.51100000000E-03 0.  1.
         11   -1    0    0    0    0 -0.00000000000E+00 -0.00000000000E+00 -0.45593999997E+02  0.45594000000E+02  0.51100000000E-03 0. -1.
    9900012    2    1    2    0    0  0.34593850976E+02 -0.11830206323E+02 -0.17789795679E+02  0.50528866496E+02  0.30000020202E+02 0.  0.
        -12    1    1    2    0    0 -0.34593850976E+02  0.11830206323E+02  0.17789795679E+02  0.40659133504E+02  0.00000000000E+00 0.  1.
         11    1    3    3    0    0  0.22663991526E+02 -0.72103711734E+00 -0.10954031133E+02  0.25182676679E+02  0.51100000000E-03 0. -1.
        -11    1    3    3    0    0  0.81966475518E+01 -0.77940429056E+01  0.51007062772E+01  0.12407632356E+02  0.51100000000E-03 0.  1.
        -12    1    3    3    0    0  0.37332118986E+01 -0.33151263000E+01 -0.11936470822E+02  0.12938557461E+02  0.00000000000E+00 0.  1.
</event>
<event>
 7    1  0.7237421E-011  0.5052887E+02  0.7816164E-02  0.1300439E+00
        -11   -1    0    0    0    0  0.00000000000E+00  0.00000000000E+00  0.45593999997E+02  0.45594000000E+02  0.51100000000E-03 0.  1.
         11   -1    0    0    0    0 -0.00000000000E+00 -0.00000000000E+00 -0.45593999997E+02  0.45594000000E+02  0.51100000000E-03 0. -1.
    9900012    2    1    2    0    0 -0.28213699885E+02 -0.28301468066E+02 -0.74952749334E+01  0.50528866927E+02  0.30000021512E+02 0.  0.
        -12    1    1    2    0    0  0.28213699885E+02  0.28301468066E+02  0.74952749334E+01  0.40659133073E+02  0.00000000000E+00 0.  1.
         11    1    3    3    0    0 -0.18621268024E+02 -0.19477256328E+02 -0.90457398480E+01  0.28424295006E+02  0.51100000000E-03 0. -1.
        -11    1    3    3    0    0 -0.87692821920E+01 -0.65702091491E+01  0.90618657322E+01  0.14219190175E+02  0.51100000000E-03 0.  1.
        -12    1    3    3    0    0 -0.82314966895E+00 -0.22540025890E+01 -0.75114008175E+01  0.78853817466E+01  0.00000000000E+00 0.  1.
</event>
<event>
 7    1  0.4962385E-011  0.5052886E+02  0.7816164E-02  0.1300439E+00
        -11   -1    0    0    0    0  0.00000000000E+00  0.00000000000E+00  0.45593999997E+02  0.45594000000E+02  0.51100000000E-03 0. -1.
         11   -1    0    0    0    0 -0.00000000000E+00 -0.00000000000E+00 -0.45593999997E+02  0.45594000000E+02  0.51100000000E-03 0.  1.
    9900012    2    1    2    0    0 -0.40505821938E+02  0.31167647208E+01 -0.16523420905E+01  0.50528855056E+02  0.29999985428E+02 0.  0.
        -12    1    1    2    0    0  0.40505821938E+02 -0.31167647208E+01  0.16523420905E+01  0.40659144944E+02  0.00000000000E+00 0.  1.
         11    1    3    3    0    0 -0.26134360438E+02  0.10489046131E+02 -0.15730267158E+01  0.28204597100E+02  0.51100000000E-03 0. -1.
        -11    1    3    3    0    0 -0.94636723016E+01 -0.63816717752E+01 -0.72915536491E+01  0.13544503791E+02  0.51100000000E-03 0.  1.
         12    1    3    3    0    0 -0.49077891980E+01 -0.99060963534E+00  0.72122382744E+01  0.87797541645E+01  0.00000000000E+00 0. -1.
</event>
<event>
 7    1  0.4962385E-011  0.5052886E+02  0.7816164E-02  0.1300439E+00
        -11   -1    0    0    0    0  0.00000000000E+00  0.00000000000E+00  0.45593999997E+02  0.45594000000E+02  0.51100000000E-03 0.  1.
         11   -1    0    0    0    0 -0.00000000000E+00 -0.00000000000E+00 -0.45593999997E+02  0.45594000000E+02  0.51100000000E-03 0. -1.
    9900012    2    1    2    0    0  0.28907465063E+02 -0.27838254667E+02 -0.65234694256E+01  0.50528860651E+02  0.30000002434E+02 0.  0.
        -12    1    1    2    0    0 -0.28907465063E+02  0.27838254667E+02  0.65234694256E+01  0.40659139349E+02  0.00000000000E+00 0.  1.
         11    1    3    3    0    0  0.23135388761E+02 -0.29291567807E+02  0.42180143114E+01  0.37563729883E+02  0.51100000000E-03 0. -1.
        -11    1    3    3    0    0  0.11298540876E+01  0.87951431379E+00 -0.64837390994E+01  0.66399539650E+01  0.51100000000E-03 0.  1.
         12    1    3    3    0    0  0.46422222145E+01  0.57379882683E+00 -0.42577446376E+01  0.63251768024E+01  0.00000000000E+00 0. -1.
</event>
<event>
 7    1  0.4962385E-011  0.5052886E+02  0.7816164E-02  0.1300439E+00
        -11   -1    0    0    0    0  0.00000000000E+00  0.00000000000E+00  0.45593999997E+02  0.45594000000E+02  0.51100000000E-03 0. -1.
         11   -1    0    0    0    0 -0.00000000000E+00 -0.00000000000E+00 -0.45593999997E+02  0.45594000000E+02  0.51100000000E-03 0.  1.
    9900012    2    1    2    0    0 -0.28676668595E+02  0.20134119377E+02  0.20625983283E+02  0.50528864850E+02  0.30000015197E+02 0.  0.
        -12    1    1    2    0    0  0.28676668595E+02 -0.20134119377E+02 -0.20625983283E+02  0.40659135150E+02  0.00000000000E+00 0.  1.
         11    1    3    3    0    0 -0.44984476503E+01  0.17009755566E+02  0.61760197621E+01  0.18647011451E+02  0.51100000000E-03 0. -1.
        -11    1    3    3    0    0 -0.17794647619E+02  0.65255224673E+01  0.43282896750E+01  0.19441348182E+02  0.51100000000E-03 0.  1.
         12    1    3    3    0    0 -0.63835733250E+01 -0.34011586563E+01  0.10121673846E+02  0.12440505217E+02  0.00000000000E+00 0. -1.
</event>
<event>
 7    1  0.4962385E-011  0.5052883E+02  0.7816164E-02  0.1300439E+00
        -11   -1    0    0    0    0  0.00000000000E+00  0.00000000000E+00  0.45593999997E+02  0.45594000000E+02  0.51100000000E-03 0.  1.
         11   -1    0    0    0    0 -0.00000000000E+00 -0.00000000000E+00 -0.45593999997E+02  0.45594000000E+02  0.51100000000E-03 0. -1.
    9900012    2    1    2    0    0 -0.53420578378E+00  0.23623194842E+02 -0.33088180773E+02  0.50528826161E+02  0.29999897600E+02 0.  0.
        -12    1    1    2    0    0  0.53420578378E+00 -0.23623194842E+02  0.33088180773E+02  0.40659173839E+02  0.00000000000E+00 0.  1.
         11    1    3    3    0    0  0.66797318827E+01  0.35846329831E+01 -0.13464895117E+02  0.15452242957E+02  0.51100000000E-03 0. -1.
        -11    1    3    3    0    0 -0.10579987275E+02  0.33153091620E+01 -0.12162846746E+02  0.16457893147E+02  0.51100000000E-03 0.  1.
        -12    1    3    3    0    0  0.33660496089E+01  0.16723252697E+02 -0.74604389103E+01  0.18618690057E+02  0.00000000000E+00 0.  1.
</event>
<event>
 7    1  0.4962385E-011  0.5052887E+02  0.7816164E-02  0.1300439E+00
        -11   -1    0    0    0    0  0.00000000000E+00  0.00000000000E+00  0.45593999997E+02  0.45594000000E+02  0.51100000000E-03 0.  1.
         11   -1    0    0    0    0 -0.00000000000E+00 -0.00000000000E+00 -0.45593999997E+02  0.45594000000E+02  0.51100000000E-03 0. -1.
    9900012    2    1    2    0    0 -0.26878964185E+02  0.25214556736E+02 -0.17173015881E+02  0.50528867428E+02  0.30000023035E+02 0.  0.
        -12    1    1    2    0    0  0.26878964185E+02 -0.25214556736E+02  0.17173015881E+02  0.40659132572E+02  0.00000000000E+00 0.  1.
         11    1    3    3    0    0 -0.12651354523E+02  0.10992426594E+02  0.26612829121E+01  0.16969756648E+02  0.51100000000E-03 0. -1.
        -11    1    3    3    0    0  0.15451004541E+01 -0.71775187413E+00 -0.92267257327E+01  0.93826953043E+01  0.51100000000E-03 0.  1.
        -12    1    3    3    0    0 -0.15772710116E+02  0.14939882016E+02 -0.10607573060E+02  0.24176415476E+02  0.00000000000E+00 0.  1.
</event>
<event>
 7    1  0.4962385E-011  0.5052887E+02  0.7816164E-02  0.1300439E+00
        -11   -1    0    0    0    0  0.00000000000E+00  0.00000000000E+00  0.45593999997E+02  0.45594000000E+02  0.51100000000E-03 0.  1.
         11   -1    0    0    0    0 -0.00000000000E+00 -0.00000000000E+00 -0.45593999997E+02  0.45594000000E+02  0.51100000000E-03 0. -1.
    9900012    2    1    2    0    0  0.12887610117E+02  0.38405252119E+01 -0.38370885465E+02  0.50528868433E+02  0.30000026089E+02 0.  0.
        -12    1    1    2    0    0 -0.12887610117E+02 -0.38405252119E+01  0.38370885465E+02  0.40659131567E+02  0.00000000000E+00 0.  1.
         11    1    3    3    0    0 -0.10942894613E+01 -0.52446844397E+00 -0.84923730169E+01  0.85786325422E+01  0.51100000000E-03 0. -1.
        -11    1    3    3    0    0  0.15687339816E+02 -0.75489747639E+01 -0.17900335462E+02  0.24970015226E+02  0.51100000000E-03 0.  1.
        -12    1    3    3    0    0 -0.17054402376E+01  0.11913968420E+02 -0.11978176986E+02  0.16980220665E+02  0.00000000000E+00 0.  1.
</event>
<event>
 7    1  0.4962385E-011  0.5052886E+02  0.7816164E-02  0.1300439E+00
        -11   -1    0    0    0    0  0.00000000000E+00  0.00000000000E+00  0.45593999997E+02  0.45594000000E+02  0.51100000000E-03 0. -1.
         11   -1    0    0    0    0 -0.00000000000E+00 -0.00000000000E+00 -0.45593999997E+02  0.45594000000E+02  0.51100000000E-03 0.  1.
    9900012    2    1    2    0    0  0.70613443132E+01 -0.40026205900E+02  0.10980174280E+01  0.50528863455E+02  0.30000010959E+02 0.  0.
        -12    1    1    2    0    0 -0.70613443132E+01  0.40026205900E+02 -0.10980174280E+01  0.40659136545E+02  0.00000000000E+00 0.  1.
         11    1    3    3    0    0 -0.33814873194E+01 -0.13971566738E+02  0.10849111444E+02  0.18009507295E+02  0.51100000000E-03 0. -1.
        -11    1    3    3    0    0  0.11212601748E+02 -0.10515403287E+02 -0.61027122320E+01  0.16539021769E+02  0.51100000000E-03 0.  1.
        -12    1    3    3    0    0 -0.76977011497E+00 -0.15539235875E+02 -0.36483817840E+01  0.15980334391E+02  0.00000000000E+00 0.  1.
</event>
<event>
 7    1  0.4962385E-011  0.5052886E+02  0.7816164E-02  0.1300439E+00
        -11   -1    0    0    0    0  0.00000000000E+00  0.00000000000E+00  0.45593999997E+02  0.45594000000E+02  0.51100000000E-03 0.  1.
         11   -1    0    0    0    0 -0.00000000000E+00 -0.00000000000E+00 -0.45593999997E+02  0.45594000000E+02  0.51100000000E-03 0. -1.
    9900012    2    1    2    0    0  0.16756992784E+02  0.25323358657E+02 -0.27038790842E+02  0.50528861900E+02  0.30000006232E+02 0.  0.
        -12    1    1    2    0    0 -0.16756992784E+02 -0.25323358657E+02  0.27038790842E+02  0.40659138100E+02  0.00000000000E+00 0.  1.
         11    1    3    3    0    0 -0.59953326384E+01  0.22692350588E+01 -0.77924839220E+00  0.64576055558E+01  0.51100000000E-03 0. -1.
        -11    1    3    3    0    0  0.14800745615E+02  0.22842604199E+02 -0.18169934138E+02  0.32726031599E+02  0.51100000000E-03 0.  1.
         12    1    3    3    0    0  0.79515798076E+01  0.21151939856E+00 -0.80896083116E+01  0.11345224746E+02  0.00000000000E+00 0. -1.
</event>
<event>
 7    1  0.4962385E-011  0.5052887E+02  0.7816164E-02  0.1300439E+00
        -11   -1    0    0    0    0  0.00000000000E+00  0.00000000000E+00  0.45593999997E+02  0.45594000000E+02  0.51100000000E-03 0. -1.
         11   -1    0    0    0    0 -0.00000000000E+00 -0.00000000000E+00 -0.45593999997E+02  0.45594000000E+02  0.51100000000E-03 0.  1.
    9900012    2    1    2    0    0 -0.31045194561E+02  0.25272080358E+02 -0.71191727555E+01  0.50528870993E+02  0.30000033869E+02 0.  0.
        -12    1    1    2    0    0  0.31045194561E+02 -0.25272080358E+02  0.71191727555E+01  0.40659129007E+02  0.00000000000E+00 0.  1.
         11    1    3    3    0    0 -0.95372002179E+01  0.24283472178E+02  0.84644740756E+00  0.26102905633E+02  0.51100000000E-03 0. -1.
        -11    1    3    3    0    0 -0.13559720322E+02  0.44434871809E+01 -0.35734028078E+01  0.14709853889E+02  0.51100000000E-03 0.  1.
         12    1    3    3    0    0 -0.79482740203E+01 -0.34548790009E+01 -0.43922173553E+01  0.97161114706E+01  0.00000000000E+00 0. -1.
</event>
<event>
 7    1  0.4962385E-011  0.5052888E+02  0.7816164E-02  0.1300439E+00
        -11   -1    0    0    0    0  0.00000000000E+00  0.00000000000E+00  0.45593999997E+02  0.45594000000E+02  0.51100000000E-03 0.  1.
         11   -1    0    0    0    0 -0.00000000000E+00 -0.00000000000E+00 -0.45593999997E+02  0.45594000000E+02  0.51100000000E-03 0. -1.
    9900012    2    1    2    0    0 -0.49270558979E+01 -0.14713573607E+02 -0.37581896471E+02  0.50528879615E+02  0.30000060079E+02 0.  0.
        -12    1    1    2    0    0  0.49270558979E+01  0.14713573607E+02  0.37581896471E+02  0.40659120385E+02  0.00000000000E+00 0.  1.
         11    1    3    3    0    0 -0.63989312545E+01  0.47314308338E+01 -0.10307590046E+02  0.13022256784E+02  0.51100000000E-03 0. -1.
        -11    1    3    3    0    0 -0.26679315159E+01 -0.20653484331E+02 -0.19067444154E+02  0.28235645918E+02  0.51100000000E-03 0.  1.
         12    1    3    3    0    0  0.41398068725E+01  0.12084798903E+01 -0.82068622713E+01  0.92709769133E+01  0.00000000000E+00 0. -1.
</event>
<event>
 7    1  0.4962385E-011  0.5052887E+02  0.7816164E-02  0.1300439E+00
        -11   -1    0    0    0    0  0.00000000000E+00  0.00000000000E+00  0.45593999997E+02  0.45594000000E+02  0.51100000000E-03 0.  1.
         11   -1    0    0    0    0 -0.00000000000E+00 -0.00000000000E+00 -0.45593999997E+02  0.45594000000E+02  0.51100000000E-03 0. -1.
    9900012    2    1    2    0    0  0.27033959330E+02 -0.13607856457E+02 -0.27150626204E+02  0.50528865507E+02  0.30000017196E+02 0.  0.
        -12    1    1    2    0    0 -0.27033959330E+02  0.13607856457E+02  0.27150626204E+02  0.40659134493E+02  0.00000000000E+00 0.  1.
         11    1    3    3    0    0  0.17348335601E+02 -0.17577383056E+02 -0.22558229597E+02  0.33448510670E+02  0.51100000000E-03 0. -1.
        -11    1    3    3    0    0  0.18464333466E+01  0.52641814467E+01  0.27875915270E+01  0.62363121466E+01  0.51100000000E-03 0.  1.
        -12    1    3    3    0    0  0.78391903823E+01 -0.12946548477E+01 -0.73799881345E+01  0.10844042691E+02  0.00000000000E+00 0.  1.
</event>
<event>
 7    1  0.4962385E-011  0.5052889E+02  0.7816164E-02  0.1300439E+00
        -11   -1    0    0    0    0  0.00000000000E+00  0.00000000000E+00  0.45593999997E+02  0.45594000000E+02  0.51100000000E-03 0. -1.
         11   -1    0    0    0    0 -0.00000000000E+00 -0.00000000000E+00 -0.45593999997E+02  0.45594000000E+02  0.51100000000E-03 0.  1.
    9900012    2    1    2    0    0  0.34555701928E+02 -0.21320925219E+02 -0.21177061404E+01  0.50528891952E+02  0.30000097577E+02 0.  0.
        -12    1    1    2    0    0 -0.34555701928E+02  0.21320925219E+02  0.21177061404E+01  0.40659108048E+02  0.00000000000E+00 0.  1.
         11    1    3    3    0    0  0.14013048641E+02 -0.92085651052E+01 -0.82946057700E+01  0.18707316447E+02  0.51100000000E-03 0. -1.
        -11    1    3    3    0    0  0.35652523439E-01  0.21062568395E+01  0.65337476119E+01  0.68649433423E+01  0.51100000000E-03 0.  1.
        -12    1    3    3    0    0  0.20507000764E+02 -0.14218616954E+02 -0.35684798223E+00  0.24956632162E+02  0.00000000000E+00 0.  1.
</event>
<event>
 7    1  0.4962385E-011  0.5052885E+02  0.7816164E-02  0.1300439E+00
        -11   -1    0    0    0    0  0.00000000000E+00  0.00000000000E+00  0.45593999997E+02  0.45594000000E+02  0.51100000000E-03 0.  1.
         11   -1    0    0    0    0 -0.00000000000E+00 -0.00000000000E+00 -0.45593999997E+02  0.45594000000E+02  0.51100000000E-03 0. -1.
    9900012    2    1    2    0    0  0.39861068795E+02 -0.72102078033E+01  0.35034594887E+01  0.50528854283E+02  0.29999983079E+02 0.  0.
        -12    1    1    2    0    0 -0.39861068795E+02  0.72102078033E+01 -0.35034594887E+01  0.40659145717E+02  0.00000000000E+00 0.  1.
         11    1    3    3    0    0  0.67238770471E+01  0.57995472976E+01  0.45862315893E+00  0.88913219976E+01  0.51100000000E-03 0. -1.
        -11    1    3    3    0    0  0.14229538666E+02 -0.88851370756E+01  0.11684849834E+02  0.20444098107E+02  0.51100000000E-03 0.  1.
        -12    1    3    3    0    0  0.18907653081E+02 -0.41246180253E+01 -0.86400135044E+01  0.21193434178E+02  0.00000000000E+00 0.  1.
</event>
<event>
 7    1  0.4962385E-011  0.5052886E+02  0.7816164E-02  0.1300439E+00
        -11   -1    0    0    0    0  0.00000000000E+00  0.00000000000E+00  0.45593999997E+02  0.45594000000E+02  0.51100000000E-03 0.  1.
         11   -1    0    0    0    0 -0.00000000000E+00 -0.00000000000E+00 -0.45593999997E+02  0.45594000000E+02  0.51100000000E-03 0. -1.
    9900012    2    1    2    0    0  0.14450216510E+01  0.22286590009E+02 -0.33976248426E+02  0.50528860328E+02  0.30000001453E+02 0.  0.
        -12    1    1    2    0    0 -0.14450216510E+01 -0.22286590009E+02  0.33976248426E+02  0.40659139672E+02  0.00000000000E+00 0.  1.
         11    1    3    3    0    0  0.66941951351E+01  0.23950126474E+02 -0.19180127462E+02  0.31405383238E+02  0.51100000000E-03 0. -1.
        -11    1    3    3    0    0  0.68929834330E+00 -0.21830636633E+01  0.80148986841E+00  0.24255484811E+01  0.51100000000E-03 0.  1.
         12    1    3    3    0    0 -0.59384718274E+01  0.51952719821E+00 -0.15597610832E+02  0.16697928609E+02  0.00000000000E+00 0. -1.
</event>
<event>
 7    1  0.4962385E-011  0.5052886E+02  0.7816164E-02  0.1300439E+00
        -11   -1    0    0    0    0  0.00000000000E+00  0.00000000000E+00  0.45593999997E+02  0.45594000000E+02  0.51100000000E-03 0.  1.
         11   -1    0    0    0    0 -0.00000000000E+00 -0.00000000000E+00 -0.45593999997E+02  0.45594000000E+02  0.51100000000E-03 0. -1.
    9900012    2    1    2    0    0 -0.18830955678E+02  0.24332006670E+02 -0.26580332348E+02  0.50528861937E+02  0.30000006343E+02 0.  0.
        -12    1    1    2    0    0  0.18830955678E+02 -0.24332006670E+02  0.26580332348E+02  0.40659138063E+02  0.00000000000E+00 0.  1.
         11    1    3    3    0    0  0.18616346975E+01  0.12554516614E+02 -0.74345494975E+01  0.14708980170E+02  0.51100000000E-03 0. -1.
        -11    1    3    3    0    0 -0.11209205227E+02 -0.21696437090E+01 -0.14246289761E+02  0.18256790732E+02  0.51100000000E-03 0.  1.
         12    1    3    3    0    0 -0.94833851487E+01  0.13947133765E+02 -0.48994930894E+01  0.17563091034E+02  0.00000000000E+00 0. -1.
</event>
<event>
 7    1  0.4962385E-011  0.5052886E+02  0.7816164E-02  0.1300439E+00
        -11   -1    0    0    0    0  0.00000000000E+00  0.00000000000E+00  0.45593999997E+02  0.45594000000E+02  0.51100000000E-03 0. -1.
         11   -1    0    0    0    0 -0.00000000000E+00 -0.00000000000E+00 -0.45593999997E+02  0.45594000000E+02  0.51100000000E-03 0.  1.
    9900012    2    1    2    0    0  0.13396262398E+02  0.17234112007E+02 -0.34302927897E+02  0.50528864186E+02  0.30000013179E+02 0.  0.
        -12    1    1    2    0    0 -0.13396262398E+02 -0.17234112007E+02  0.34302927897E+02  0.40659135814E+02  0.00000000000E+00 0.  1.
         11    1    3    3    0    0  0.29054348368E+01  0.10834960562E+02  0.22092941694E+01  0.11433236766E+02  0.51100000000E-03 0. -1.
        -11    1    3    3    0    0  0.68031392094E+01  0.74247493960E+01 -0.24519639964E+02  0.26507024558E+02  0.51100000000E-03 0.  1.
         12    1    3    3    0    0  0.36876883513E+01 -0.10255979507E+01 -0.11992582102E+02  0.12588602861E+02  0.00000000000E+00 0. -1.
</event>
<event>
 7    1  0.4962385E-011  0.5052886E+02  0.7816164E-02  0.1300439E+00
        -11   -1    0    0    0    0  0.00000000000E+00  0.00000000000E+00  0.45593999997E+02  0.45594000000E+02  0.51100000000E-03 0.  1.
         11   -1    0    0    0    0 -0.00000000000E+00 -0.00000000000E+00 -0.45593999997E+02  0.45594000000E+02  0.51100000000E-03 0. -1.
    9900012    2    1    2    0    0  0.87820732084E+01  0.31651170704E+02  0.23963388345E+02  0.50528863294E+02  0.30000010468E+02 0.  0.
        -12    1    1    2    0    0 -0.87820732084E+01 -0.31651170704E+02 -0.23963388345E+02  0.40659136706E+02  0.00000000000E+00 0.  1.
         11    1    3    3    0    0  0.86729727670E+01  0.97980775892E+01  0.50661017727E+01  0.14031684450E+02  0.51100000000E-03 0. -1.
        -11    1    3    3    0    0 -0.19658982129E+01  0.25183188554E+02  0.20220667922E+02  0.32356346410E+02  0.51100000000E-03 0.  1.
        -12    1    3    3    0    0  0.20749986543E+01 -0.33300954397E+01 -0.13233813498E+01  0.41408324344E+01  0.00000000000E+00 0.  1.
</event>
<event>
 7    1  0.4962385E-011  0.5052886E+02  0.7816164E-02  0.1300439E+00
        -11   -1    0    0    0    0  0.00000000000E+00  0.00000000000E+00  0.45593999997E+02  0.45594000000E+02  0.51100000000E-03 0. -1.
         11   -1    0    0    0    0 -0.00000000000E+00 -0.00000000000E+00 -0.45593999997E+02  0.45594000000E+02  0.51100000000E-03 0.  1.
    9900012    2    1    2    0    0 -0.33050286755E+01 -0.30118279096E+02  0.27113312929E+02  0.50528859721E+02  0.29999999607E+02 0.  0.
        -12    1    1    2    0    0  0.33050286755E+01  0.30118279096E+02 -0.27113312929E+02  0.40659140279E+02  0.00000000000E+00 0.  1.
         11    1    3    3    0    0 -0.78071480386E+01 -0.34748151446E+01 -0.30698884459E+01  0.90802046297E+01  0.51100000000E-03 0. -1.
        -11    1    3    3    0    0 -0.66088268209E-01  0.68516652395E+00  0.56487344080E+00  0.89045105984E+00  0.51100000000E-03 0.  1.
         12    1    3    3    0    0  0.45682076313E+01 -0.27328630476E+02  0.29618327934E+02  0.40558204031E+02  0.00000000000E+00 0. -1.
</event>
<event>
 7    1  0.4962385E-011  0.5052886E+02  0.7816164E-02  0.1300439E+00
        -11   -1    0    0    0    0  0.00000000000E+00  0.00000000000E+00  0.45593999997E+02  0.45594000000E+02  0.51100000000E-03 0.  1.
         11   -1    0    0    0    0 -0.00000000000E+00 -0.00000000000E+00 -0.45593999997E+02  0.45594000000E+02  0.51100000000E-03 0. -1.
    9900012    2    1    2    0    0  0.22415413734E+02 -0.31610816803E+02 -0.12307356725E+02  0.50528861526E+02  0.30000005096E+02 0.  0.
        -12    1    1    2    0    0 -0.22415413734E+02  0.31610816803E+02  0.12307356725E+02  0.40659138474E+02  0.00000000000E+00 0.  1.
         11    1    3    3    0    0  0.13438908415E+02 -0.16735896034E+02 -0.54698397173E+01  0.22149799598E+02  0.51100000000E-03 0. -1.
        -11    1    3    3    0    0 -0.25160579689E+01 -0.15014519568E+01 -0.10038804136E+02  0.10457652433E+02  0.51100000000E-03 0.  1.
        -12    1    3    3    0    0  0.11492563288E+02 -0.13373468812E+02  0.32012871277E+01  0.17921409495E+02  0.00000000000E+00 0.  1.
</event>
<event>
 7    1  0.5237460E-011  0.5052886E+02  0.7816164E-02  0.1300439E+00
        -11   -1    0    0    0    0  0.00000000000E+00  0.00000000000E+00  0.45593999997E+02  0.45594000000E+02  0.51100000000E-03 0.  1.
         11   -1    0    0    0    0 -0.00000000000E+00 -0.00000000000E+00 -0.45593999997E+02  0.45594000000E+02  0.51100000000E-03 0. -1.
    9900012    2    1    2    0    0 -0.28577366582E+02  0.17063056477E+02 -0.23352773835E+02  0.50528858065E+02  0.29999994575E+02 0.  0.
        -12    1    1    2    0    0  0.28577366582E+02 -0.17063056477E+02  0.23352773835E+02  0.40659141935E+02  0.00000000000E+00 0.  1.
         11    1    3    3    0    0 -0.13691867353E+02  0.25883682053E+01 -0.22211945022E+02  0.26220934070E+02  0.51100000000E-03 0. -1.
        -11    1    3    3    0    0 -0.13058345683E+02  0.15120061874E+02 -0.44547482335E+01  0.20469036253E+02  0.51100000000E-03 0.  1.
        -12    1    3    3    0    0 -0.18271535459E+01 -0.64537360306E+00  0.33139194206E+01  0.38388877418E+01  0.00000000000E+00 0.  1.
</event>
<event>
 7    1  0.4962385E-011  0.5052888E+02  0.7816164E-02  0.1300439E+00
        -11   -1    0    0    0    0  0.00000000000E+00  0.00000000000E+00  0.45593999997E+02  0.45594000000E+02  0.51100000000E-03 0. -1.
         11   -1    0    0    0    0 -0.00000000000E+00 -0.00000000000E+00 -0.45593999997E+02  0.45594000000E+02  0.51100000000E-03 0.  1.
    9900012    2    1    2    0    0  0.33916554287E+02  0.11069402154E+02  0.19501280924E+02  0.50528877083E+02  0.30000052380E+02 0.  0.
        -12    1    1    2    0    0 -0.33916554287E+02 -0.11069402154E+02 -0.19501280924E+02  0.40659122917E+02  0.00000000000E+00 0.  1.
         11    1    3    3    0    0  0.12897366498E+02  0.63629171618E+01  0.34793186345E+01  0.14796433213E+02  0.51100000000E-03 0. -1.
        -11    1    3    3    0    0  0.19840328213E+02 -0.21443897002E+01  0.19550437957E+02  0.27936654334E+02  0.51100000000E-03 0.  1.
        -12    1    3    3    0    0  0.11788595754E+01  0.68508746925E+01 -0.35284756680E+01  0.77957895361E+01  0.00000000000E+00 0.  1.
</event>
<event>
 7    1  0.4962385E-011  0.5052885E+02  0.7816164E-02  0.1300439E+00
        -11   -1    0    0    0    0  0.00000000000E+00  0.00000000000E+00  0.45593999997E+02  0.45594000000E+02  0.51100000000E-03 0. -1.
         11   -1    0    0    0    0 -0.00000000000E+00 -0.00000000000E+00 -0.45593999997E+02  0.45594000000E+02  0.51100000000E-03 0.  1.
    9900012    2    1    2    0    0  0.27577317752E+02  0.23044931324E+02 -0.19015488799E+02  0.50528854308E+02  0.29999983155E+02 0.  0.
        -12    1    1    2    0    0 -0.27577317752E+02 -0.23044931324E+02  0.19015488799E+02  0.40659145692E+02  0.00000000000E+00 0.  1.
         11    1    3    3    0    0  0.21903980981E+02  0.17715338496E+01 -0.12384496945E+02  0.25224957480E+02  0.51100000000E-03 0. -1.
        -11    1    3    3    0    0 -0.12882071370E+01  0.67357939653E+01  0.18325533835E+01  0.70984963292E+01  0.51100000000E-03 0.  1.
         12    1    3    3    0    0  0.69615439082E+01  0.14537603509E+02 -0.84635452372E+01  0.18205400500E+02  0.00000000000E+00 0. -1.
</event>
<event>
 7    1  0.4962385E-011  0.5052894E+02  0.7816164E-02  0.1300439E+00
        -11   -1    0    0    0    0  0.00000000000E+00  0.00000000000E+00  0.45593999997E+02  0.45594000000E+02  0.51100000000E-03 0.  1.
         11   -1    0    0    0    0 -0.00000000000E+00 -0.00000000000E+00 -0.45593999997E+02  0.45594000000E+02  0.51100000000E-03 0. -1.
    9900012    2    1    2    0    0 -0.14412407952E+02  0.61665537394E+01 -0.37515535159E+02  0.50528938694E+02  0.30000239654E+02 0.  0.
        -12    1    1    2    0    0  0.14412407952E+02 -0.61665537394E+01  0.37515535159E+02  0.40659061306E+02  0.00000000000E+00 0.  1.
         11    1    3    3    0    0 -0.29869061421E+01 -0.18644108688E+01 -0.28427839521E+02  0.28645064082E+02  0.51100000000E-03 0. -1.
        -11    1    3    3    0    0 -0.64797969511E+01  0.10694505976E+02 -0.17247375633E+01  0.12622794719E+02  0.51100000000E-03 0.  1.
        -12    1    3    3    0    0 -0.49457048585E+01 -0.26635413680E+01 -0.73629580754E+01  0.92610798931E+01  0.00000000000E+00 0.  1.
</event>
<event>
 7    1  0.4962385E-011  0.5052885E+02  0.7816164E-02  0.1300439E+00
        -11   -1    0    0    0    0  0.00000000000E+00  0.00000000000E+00  0.45593999997E+02  0.45594000000E+02  0.51100000000E-03 0.  1.
         11   -1    0    0    0    0 -0.00000000000E+00 -0.00000000000E+00 -0.45593999997E+02  0.45594000000E+02  0.51100000000E-03 0. -1.
    9900012    2    1    2    0    0  0.28354460458E+02  0.14611097132E+02 -0.25213223635E+02  0.50528853018E+02  0.29999979232E+02 0.  0.
        -12    1    1    2    0    0 -0.28354460458E+02 -0.14611097132E+02  0.25213223635E+02  0.40659146982E+02  0.00000000000E+00 0.  1.
         11    1    3    3    0    0  0.16276426673E+02  0.14167059818E+02 -0.12735100623E+02  0.25056145698E+02  0.51100000000E-03 0.  1.
        -11    1    3    3    0    0  0.22035299274E+01 -0.48148130150E+01 -0.13239663311E+02  0.14259265526E+02  0.51100000000E-03 0. -1.
        -12    1    3    3    0    0  0.98745038577E+01  0.52588503287E+01  0.76154029835E+00  0.11213441793E+02  0.00000000000E+00 0.  1.
</event>
<event>
 7    1  0.4962385E-011  0.5052886E+02  0.7816164E-02  0.1300439E+00
        -11   -1    0    0    0    0  0.00000000000E+00  0.00000000000E+00  0.45593999997E+02  0.45594000000E+02  0.51100000000E-03 0.  1.
         11   -1    0    0    0    0 -0.00000000000E+00 -0.00000000000E+00 -0.45593999997E+02  0.45594000000E+02  0.51100000000E-03 0. -1.
    9900012    2    1    2    0    0  0.88006166894E+01 -0.38171605831E+02  0.10892351204E+02  0.50528860061E+02  0.30000000642E+02 0.  0.
        -12    1    1    2    0    0 -0.88006166894E+01  0.38171605831E+02 -0.10892351204E+02  0.40659139939E+02  0.00000000000E+00 0.  1.
         11    1    3    3    0    0 -0.36475602323E+01 -0.43527765218E+01  0.17080276636E+01  0.59303219017E+01  0.51100000000E-03 0.  1.
        -11    1    3    3    0    0  0.17232899901E+02 -0.13457939999E+02  0.28146918696E+00  0.21867057716E+02  0.51100000000E-03 0. -1.
         12    1    3    3    0    0 -0.47847229791E+01 -0.20360889311E+02  0.89028543532E+01  0.22731480443E+02  0.00000000000E+00 0. -1.
</event>
<event>
 7    1  0.4962385E-011  0.5052886E+02  0.7816164E-02  0.1300439E+00
        -11   -1    0    0    0    0  0.00000000000E+00  0.00000000000E+00  0.45593999997E+02  0.45594000000E+02  0.51100000000E-03 0. -1.
         11   -1    0    0    0    0 -0.00000000000E+00 -0.00000000000E+00 -0.45593999997E+02  0.45594000000E+02  0.51100000000E-03 0.  1.
    9900012    2    1    2    0    0 -0.18101153193E+02 -0.32241383345E+02  0.16911737471E+02  0.50528863127E+02  0.30000009961E+02 0.  0.
        -12    1    1    2    0    0  0.18101153193E+02  0.32241383345E+02 -0.16911737471E+02  0.40659136873E+02  0.00000000000E+00 0.  1.
         11    1    3    3    0    0 -0.64372405875E+01 -0.12850892268E+02 -0.46690455839E+01  0.15112362005E+02  0.51100000000E-03 0. -1.
        -11    1    3    3    0    0  0.26138759123E+01 -0.22425408985E+01  0.93638912515E+01  0.99771637552E+01  0.51100000000E-03 0.  1.
        -12    1    3    3    0    0 -0.14277788518E+02 -0.17147950179E+02  0.12216891804E+02  0.25439337367E+02  0.00000000000E+00 0.  1.
</event>
<event>
 7    1  0.4962385E-011  0.5052886E+02  0.7816164E-02  0.1300439E+00
        -11   -1    0    0    0    0  0.00000000000E+00  0.00000000000E+00  0.45593999997E+02  0.45594000000E+02  0.51100000000E-03 0.  1.
         11   -1    0    0    0    0 -0.00000000000E+00 -0.00000000000E+00 -0.45593999997E+02  0.45594000000E+02  0.51100000000E-03 0. -1.
    9900012    2    1    2    0    0 -0.15070170902E+02 -0.36272677579E+02 -0.10504691383E+02  0.50528859197E+02  0.29999998016E+02 0.  0.
        -12    1    1    2    0    0  0.15070170902E+02  0.36272677579E+02  0.10504691383E+02  0.40659140803E+02  0.00000000000E+00 0.  1.
         11    1    3    3    0    0 -0.35138768492E+01 -0.75076928587E+01 -0.75837065608E+01  0.11235007256E+02  0.51100000000E-03 0. -1.
        -11    1    3    3    0    0 -0.14582143079E+02 -0.27502151230E+02  0.42415429075E+01  0.31416522811E+02  0.51100000000E-03 0.  1.
        -12    1    3    3    0    0  0.30258490259E+01 -0.12628334903E+01 -0.71625277293E+01  0.78773291301E+01  0.00000000000E+00 0.  1.
</event>
<event>
 7    1  0.4962385E-011  0.5052886E+02  0.7816164E-02  0.1300439E+00
        -11   -1    0    0    0    0  0.00000000000E+00  0.00000000000E+00  0.45593999997E+02  0.45594000000E+02  0.51100000000E-03 0.  1.
         11   -1    0    0    0    0 -0.00000000000E+00 -0.00000000000E+00 -0.45593999997E+02  0.45594000000E+02  0.51100000000E-03 0. -1.
    9900012    2    1    2    0    0  0.30138052187E+02  0.23663353096E+02 -0.13598121393E+02  0.50528863576E+02  0.30000011325E+02 0.  0.
        -12    1    1    2    0    0 -0.30138052187E+02 -0.23663353096E+02  0.13598121393E+02  0.40659136424E+02  0.00000000000E+00 0.  1.
         11    1    3    3    0    0  0.15103052648E+02  0.19118194658E+01 -0.11905260746E+02  0.19325953706E+02  0.51100000000E-03 0. -1.
        -11    1    3    3    0    0  0.99753198240E+01  0.23204596204E+02 -0.37817363732E+01  0.25539417002E+02  0.51100000000E-03 0.  1.
        -12    1    3    3    0    0  0.50596797145E+01 -0.14530625736E+01  0.20888757265E+01  0.56634928672E+01  0.00000000000E+00 0.  1.
</event>
<event>
 7    1  0.4962385E-011  0.5052885E+02  0.7816164E-02  0.1300439E+00
        -11   -1    0    0    0    0  0.00000000000E+00  0.00000000000E+00  0.45593999997E+02  0.45594000000E+02  0.51100000000E-03 0.  1.
         11   -1    0    0    0    0 -0.00000000000E+00 -0.00000000000E+00 -0.45593999997E+02  0.45594000000E+02  0.51100000000E-03 0. -1.
    9900012    2    1    2    0    0 -0.12211025467E+02 -0.27503874982E+02 -0.27342165481E+02  0.50528852257E+02  0.29999976921E+02 0.  0.
        -12    1    1    2    0    0  0.12211025467E+02  0.27503874982E+02  0.27342165481E+02  0.40659147743E+02  0.00000000000E+00 0.  1.
         11    1    3    3    0    0 -0.98897218047E+01 -0.52178217175E+01 -0.23212320883E+02  0.25765172266E+02  0.51100000000E-03 0. -1.
        -11    1    3    3    0    0 -0.28007115669E+01 -0.23200676223E+02 -0.41287247750E+01  0.23731028865E+02  0.51100000000E-03 0.  1.
        -12    1    3    3    0    0  0.47940790408E+00  0.91462295865E+00 -0.11198230797E-02  0.10326511265E+01  0.00000000000E+00 0.  1.
</event>
<event>
 7    1  0.4962385E-011  0.5052885E+02  0.7816164E-02  0.1300439E+00
        -11   -1    0    0    0    0  0.00000000000E+00  0.00000000000E+00  0.45593999997E+02  0.45594000000E+02  0.51100000000E-03 0.  1.
         11   -1    0    0    0    0 -0.00000000000E+00 -0.00000000000E+00 -0.45593999997E+02  0.45594000000E+02  0.51100000000E-03 0. -1.
    9900012    2    1    2    0    0  0.18412202150E+02  0.68012998706E+01 -0.35607573700E+02  0.50528853762E+02  0.29999981496E+02 0.  0.
        -12    1    1    2    0    0 -0.18412202150E+02 -0.68012998706E+01  0.35607573700E+02  0.40659146238E+02  0.00000000000E+00 0.  1.
         11    1    3    3    0    0  0.95279620559E+01  0.87717684032E+01 -0.10657922982E+02  0.16772516341E+02  0.51100000000E-03 0. -1.
        -11    1    3    3    0    0 -0.22813928119E+01 -0.77684805925E+01 -0.17119184508E+02  0.18937278642E+02  0.51100000000E-03 0.  1.
        -12    1    3    3    0    0  0.11165632906E+02  0.57980120599E+01 -0.78304662109E+01  0.14819058780E+02  0.00000000000E+00 0.  1.
</event>
<event>
 7    1  0.4962385E-011  0.5052886E+02  0.7816164E-02  0.1300439E+00
        -11   -1    0    0    0    0  0.00000000000E+00  0.00000000000E+00  0.45593999997E+02  0.45594000000E+02  0.51100000000E-03 0.  1.
         11   -1    0    0    0    0 -0.00000000000E+00 -0.00000000000E+00 -0.45593999997E+02  0.45594000000E+02  0.51100000000E-03 0. -1.
    9900012    2    1    2    0    0 -0.27845418352E+01  0.65660177452E+01 -0.40028731569E+02  0.50528860643E+02  0.30000002409E+02 0.  0.
        -12    1    1    2    0    0  0.27845418352E+01 -0.65660177452E+01  0.40028731569E+02  0.40659139357E+02  0.00000000000E+00 0.  1.
         11    1    3    3    0    0  0.61220217961E+01  0.32872005054E+01  0.12574631804E+01  0.70615899021E+01  0.51100000000E-03 0.  1.
        -11    1    3    3    0    0 -0.76964431886E+01  0.20327813289E+01 -0.40926490871E+02  0.41693465831E+02  0.51100000000E-03 0. -1.
        -12    1    3    3    0    0 -0.12101204427E+01  0.12460359110E+01 -0.35970387806E+00  0.17738049096E+01  0.00000000000E+00 0.  1.
</event>
<event>
 7    1  0.4962385E-011  0.5052886E+02  0.7816164E-02  0.1300439E+00
        -11   -1    0    0    0    0  0.00000000000E+00  0.00000000000E+00  0.45593999997E+02  0.45594000000E+02  0.51100000000E-03 0.  1.
         11   -1    0    0    0    0 -0.00000000000E+00 -0.00000000000E+00 -0.45593999997E+02  0.45594000000E+02  0.51100000000E-03 0. -1.
    9900012    2    1    2    0    0  0.17162503460E+01 -0.66329642106E+01 -0.40077720309E+02  0.50528863332E+02  0.30000010583E+02 0.  0.
        -12    1    1    2    0    0 -0.17162503460E+01  0.66329642106E+01  0.40077720309E+02  0.40659136668E+02  0.00000000000E+00 0.  1.
         11    1    3    3    0    0  0.16299915736E+01  0.52269440229E+01  0.22002052588E+01  0.59007389190E+01  0.51100000000E-03 0. -1.
        -11    1    3    3    0    0 -0.38603649057E+01 -0.45227862666E+01 -0.18588519929E+02  0.19516431185E+02  0.51100000000E-03 0.  1.
         12    1    3    3    0    0  0.39466236781E+01 -0.73371219669E+01 -0.23689405639E+02  0.25111693227E+02  0.00000000000E+00 0. -1.
</event>
<event>
 7    1  0.4962385E-011  0.5052886E+02  0.7816164E-02  0.1300439E+00
        -11   -1    0    0    0    0  0.00000000000E+00  0.00000000000E+00  0.45593999997E+02  0.45594000000E+02  0.51100000000E-03 0.  1.
         11   -1    0    0    0    0 -0.00000000000E+00 -0.00000000000E+00 -0.45593999997E+02  0.45594000000E+02  0.51100000000E-03 0. -1.
    9900012    2    1    2    0    0  0.79703543896E+01 -0.22893282803E+02 -0.32642556025E+02  0.50528863137E+02  0.30000009991E+02 0.  0.
        -12    1    1    2    0    0 -0.79703543896E+01  0.22893282803E+02  0.32642556025E+02  0.40659136863E+02  0.00000000000E+00 0.  1.
         11    1    3    3    0    0 -0.17834413604E+01 -0.23931052183E+01  0.52860213005E+01  0.60703901953E+01  0.51100000000E-03 0.  1.
        -11    1    3    3    0    0  0.80854370210E+01 -0.16731365880E+02 -0.34092356854E+02  0.38827846864E+02  0.51100000000E-03 0. -1.
        -12    1    3    3    0    0  0.16683587290E+01 -0.37688117042E+01 -0.38362204723E+01  0.56306260773E+01  0.00000000000E+00 0.  1.
</event>
<event>
 7    1  0.4962385E-011  0.5052888E+02  0.7816164E-02  0.1300439E+00
        -11   -1    0    0    0    0  0.00000000000E+00  0.00000000000E+00  0.45593999997E+02  0.45594000000E+02  0.51100000000E-03 0. -1.
         11   -1    0    0    0    0 -0.00000000000E+00 -0.00000000000E+00 -0.45593999997E+02  0.45594000000E+02  0.51100000000E-03 0.  1.
    9900012    2    1    2    0    0  0.24601355115E+02  0.23442117280E+02  0.22324979369E+02  0.50528877531E+02  0.30000053743E+02 0.  0.
        -12    1    1    2    0    0 -0.24601355115E+02 -0.23442117280E+02 -0.22324979369E+02  0.40659122469E+02  0.00000000000E+00 0.  1.
         11    1    3    3    0    0  0.24082932594E+02  0.13202686358E+02  0.23144857273E+02  0.35916333163E+02  0.51100000000E-03 0. -1.
        -11    1    3    3    0    0  0.53365104902E+01  0.68419333749E+01 -0.14168171518E+00  0.86781605475E+01  0.51100000000E-03 0.  1.
         12    1    3    3    0    0 -0.48180879689E+01  0.33974975475E+01 -0.67819618862E+00  0.59343838207E+01  0.00000000000E+00 0. -1.
</event>
<event>
 7    1  0.4962385E-011  0.5052885E+02  0.7816164E-02  0.1300439E+00
        -11   -1    0    0    0    0  0.00000000000E+00  0.00000000000E+00  0.45593999997E+02  0.45594000000E+02  0.51100000000E-03 0.  1.
         11   -1    0    0    0    0 -0.00000000000E+00 -0.00000000000E+00 -0.45593999997E+02  0.45594000000E+02  0.51100000000E-03 0. -1.
    9900012    2    1    2    0    0 -0.57574975337E+01  0.11671531660E+02 -0.38520030051E+02  0.50528854113E+02  0.29999982562E+02 0.  0.
        -12    1    1    2    0    0  0.57574975337E+01 -0.11671531660E+02  0.38520030051E+02  0.40659145887E+02  0.00000000000E+00 0.  1.
         11    1    3    3    0    0 -0.14428659557E+02  0.12981573203E+02 -0.26682941047E+02  0.32995254244E+02  0.51100000000E-03 0. -1.
        -11    1    3    3    0    0  0.18906557803E+01 -0.26915805508E-01  0.15680803783E+01  0.24564568130E+01  0.51100000000E-03 0.  1.
         12    1    3    3    0    0  0.67805062432E+01 -0.12831257371E+01 -0.13405169382E+02  0.15077143056E+02  0.00000000000E+00 0. -1.
</event>
<event>
 7    1  0.4962385E-011  0.5052886E+02  0.7816164E-02  0.1300439E+00
        -11   -1    0    0    0    0  0.00000000000E+00  0.00000000000E+00  0.45593999997E+02  0.45594000000E+02  0.51100000000E-03 0. -1.
         11   -1    0    0    0    0 -0.00000000000E+00 -0.00000000000E+00 -0.45593999997E+02  0.45594000000E+02  0.51100000000E-03 0.  1.
    9900012    2    1    2    0    0  0.26604997587E+02  0.38823598649E+01  0.30500277715E+02  0.50528861354E+02  0.30000004570E+02 0.  0.
        -12    1    1    2    0    0 -0.26604997587E+02 -0.38823598649E+01 -0.30500277715E+02  0.40659138646E+02  0.00000000000E+00 0.  1.
         11    1    3    3    0    0  0.11884245230E+02 -0.68379671796E+01 -0.24250767896E+00  0.13713201307E+02  0.51100000000E-03 0. -1.
        -11    1    3    3    0    0  0.16619384186E+01  0.14157099073E+01  0.11787757956E+02  0.11988223877E+02  0.51100000000E-03 0.  1.
         12    1    3    3    0    0  0.13058813938E+02  0.93046171372E+01  0.18955027439E+02  0.24827436170E+02  0.00000000000E+00 0. -1.
</event>
<event>
 7    1  0.4962385E-011  0.5052887E+02  0.7816164E-02  0.1300439E+00
        -11   -1    0    0    0    0  0.00000000000E+00  0.00000000000E+00  0.45593999997E+02  0.45594000000E+02  0.51100000000E-03 0.  1.
         11   -1    0    0    0    0 -0.00000000000E+00 -0.00000000000E+00 -0.45593999997E+02  0.45594000000E+02  0.51100000000E-03 0. -1.
    9900012    2    1    2    0    0  0.12034853019E+02 -0.26868224400E+02 -0.28043288319E+02  0.50528865856E+02  0.30000018256E+02 0.  0.
        -12    1    1    2    0    0 -0.12034853019E+02  0.26868224400E+02  0.28043288319E+02  0.40659134144E+02  0.00000000000E+00 0.  1.
         11    1    3    3    0    0  0.25982059655E+01 -0.10512070184E+02 -0.83382591873E+01  0.13666779442E+02  0.51100000000E-03 0. -1.
        -11    1    3    3    0    0 -0.75724240038E+00  0.59247577565E+01 -0.71947583291E+01  0.93509741846E+01  0.51100000000E-03 0.  1.
        -12    1    3    3    0    0  0.10193889454E+02 -0.22280911973E+02 -0.12510270802E+02  0.27511112229E+02  0.00000000000E+00 0.  1.
</event>
<event>
 7    1  0.4962385E-011  0.5052885E+02  0.7816164E-02  0.1300439E+00
        -11   -1    0    0    0    0  0.00000000000E+00  0.00000000000E+00  0.45593999997E+02  0.45594000000E+02  0.51100000000E-03 0. -1.
         11   -1    0    0    0    0 -0.00000000000E+00 -0.00000000000E+00 -0.45593999997E+02  0.45594000000E+02  0.51100000000E-03 0.  1.
    9900012    2    1    2    0    0  0.18546940401E+02 -0.34621264074E+02  0.10514062460E+02  0.50528850554E+02  0.29999971743E+02 0.  0.
        -12    1    1    2    0    0 -0.18546940401E+02  0.34621264074E+02 -0.10514062460E+02  0.40659149446E+02  0.00000000000E+00 0.  1.
         11    1    3    3    0    0  0.11307013402E+02 -0.48526029961E+01  0.83834541975E+01  0.14888875460E+02  0.51100000000E-03 0. -1.
        -11    1    3    3    0    0 -0.51261399425E+01 -0.16971341184E+02  0.20246175103E+01  0.17843845118E+02  0.51100000000E-03 0.  1.
         12    1    3    3    0    0  0.12366066941E+02 -0.12797319894E+02  0.10599075208E+00  0.17796129975E+02  0.00000000000E+00 0. -1.
</event>
<event>
 7    1  0.4962385E-011  0.5052887E+02  0.7816164E-02  0.1300439E+00
        -11   -1    0    0    0    0  0.00000000000E+00  0.00000000000E+00  0.45593999997E+02  0.45594000000E+02  0.51100000000E-03 0. -1.
         11   -1    0    0    0    0 -0.00000000000E+00 -0.00000000000E+00 -0.45593999997E+02  0.45594000000E+02  0.51100000000E-03 0.  1.
    9900012    2    1    2    0    0 -0.18038777380E+02  0.30141430647E+02  0.20475882453E+02  0.50528867040E+02  0.30000021856E+02 0.  0.
        -12    1    1    2    0    0  0.18038777380E+02 -0.30141430647E+02 -0.20475882453E+02  0.40659132960E+02  0.00000000000E+00 0.  1.
         11    1    3    3    0    0 -0.10428101729E+01  0.22416820178E+01  0.46900774390E+01  0.53018315675E+01  0.51100000000E-03 0. -1.
        -11    1    3    3    0    0 -0.38066821974E+01  0.30085123499E+01  0.16346890060E+02  0.17051767967E+02  0.51100000000E-03 0.  1.
        -12    1    3    3    0    0 -0.13189285010E+02  0.24891236279E+02 -0.56108504652E+00  0.28175267505E+02  0.00000000000E+00 0.  1.
</event>
<event>
 7    1  0.4962385E-011  0.5052885E+02  0.7816164E-02  0.1300439E+00
        -11   -1    0    0    0    0  0.00000000000E+00  0.00000000000E+00  0.45593999997E+02  0.45594000000E+02  0.51100000000E-03 0.  1.
         11   -1    0    0    0    0 -0.00000000000E+00 -0.00000000000E+00 -0.45593999997E+02  0.45594000000E+02  0.51100000000E-03 0. -1.
    9900012    2    1    2    0    0  0.94313491346E+01 -0.27178077189E+02 -0.28732698881E+02  0.50528853290E+02  0.29999980060E+02 0.  0.
        -12    1    1    2    0    0 -0.94313491346E+01  0.27178077189E+02  0.28732698881E+02  0.40659146710E+02  0.00000000000E+00 0.  1.
         11    1    3    3    0    0  0.13406779607E+02 -0.55079633693E+01 -0.21654151068E+02  0.26057276501E+02  0.51100000000E-03 0. -1.
        -11    1    3    3    0    0 -0.86433189427E+00 -0.53206950071E+01  0.17043355407E+01  0.56534613184E+01  0.51100000000E-03 0.  1.
         12    1    3    3    0    0 -0.31110985780E+01 -0.16349418813E+02 -0.87828833543E+01  0.18818115471E+02  0.00000000000E+00 0. -1.
</event>
<event>
 7    1  0.4962385E-011  0.5052884E+02  0.7816164E-02  0.1300439E+00
        -11   -1    0    0    0    0  0.00000000000E+00  0.00000000000E+00  0.45593999997E+02  0.45594000000E+02  0.51100000000E-03 0. -1.
         11   -1    0    0    0    0 -0.00000000000E+00 -0.00000000000E+00 -0.45593999997E+02  0.45594000000E+02  0.51100000000E-03 0.  1.
    9900012    2    1    2    0    0 -0.42305436166E+01 -0.30403295607E+02  0.26662884080E+02  0.50528840262E+02  0.29999940462E+02 0.  0.
        -12    1    1    2    0    0  0.42305436166E+01  0.30403295607E+02 -0.26662884080E+02  0.40659159738E+02  0.00000000000E+00 0.  1.
         11    1    3    3    0    0  0.16052270064E+01 -0.33650902595E+02  0.25891978739E+02  0.42489464135E+02  0.51100000000E-03 0. -1.
        -11    1    3    3    0    0 -0.63886625638E+01  0.22300596133E+01  0.10512557244E+01  0.68478693104E+01  0.51100000000E-03 0.  1.
        -12    1    3    3    0    0  0.55289194076E+00  0.10175473747E+01 -0.28035038272E+00  0.11915068170E+01  0.00000000000E+00 0.  1.
</event>
<event>
 7    1  0.4962385E-011  0.5052886E+02  0.7816164E-02  0.1300439E+00
        -11   -1    0    0    0    0  0.00000000000E+00  0.00000000000E+00  0.45593999997E+02  0.45594000000E+02  0.51100000000E-03 0.  1.
         11   -1    0    0    0    0 -0.00000000000E+00 -0.00000000000E+00 -0.45593999997E+02  0.45594000000E+02  0.51100000000E-03 0. -1.
    9900012    2    1    2    0    0 -0.83263258952E+01 -0.29499953975E+02 -0.26713117022E+02  0.50528860702E+02  0.30000002591E+02 0.  0.
        -12    1    1    2    0    0  0.83263258952E+01  0.29499953975E+02  0.26713117022E+02  0.40659139298E+02  0.00000000000E+00 0.  1.
         11    1    3    3    0    0  0.75885512603E+01 -0.45863460748E+01 -0.48623766722E+01  0.10112536166E+02  0.51100000000E-03 0.  1.
        -11    1    3    3    0    0 -0.18836116862E+02 -0.24695555245E+02 -0.20260967456E+02  0.37083372956E+02  0.51100000000E-03 0. -1.
         12    1    3    3    0    0  0.29212397063E+01 -0.21805265486E+00 -0.15897728936E+01  0.33329515801E+01  0.00000000000E+00 0. -1.
</event>
<event>
 7    1  0.4962385E-011  0.5052885E+02  0.7816164E-02  0.1300439E+00
        -11   -1    0    0    0    0  0.00000000000E+00  0.00000000000E+00  0.45593999997E+02  0.45594000000E+02  0.51100000000E-03 0. -1.
         11   -1    0    0    0    0 -0.00000000000E+00 -0.00000000000E+00 -0.45593999997E+02  0.45594000000E+02  0.51100000000E-03 0.  1.
    9900012    2    1    2    0    0  0.33434617574E+02 -0.14479230972E+02  0.18045630430E+02  0.50528849007E+02  0.29999967042E+02 0.  0.
        -12    1    1    2    0    0 -0.33434617574E+02  0.14479230972E+02 -0.18045630430E+02  0.40659150993E+02  0.00000000000E+00 0.  1.
         11    1    3    3    0    0  0.20772942006E+01 -0.43919032428E+01 -0.67365843024E+01  0.83057530432E+01  0.51100000000E-03 0.  1.
        -11    1    3    3    0    0  0.24275567409E+02 -0.11279321424E+02  0.21470760092E+02  0.34315008437E+02  0.51100000000E-03 0. -1.
        -12    1    3    3    0    0  0.70817559643E+01  0.11919936948E+01  0.33114546402E+01  0.79080875273E+01  0.00000000000E+00 0.  1.
</event>
<event>
 7    1  0.4962385E-011  0.5052886E+02  0.7816164E-02  0.1300439E+00
        -11   -1    0    0    0    0  0.00000000000E+00  0.00000000000E+00  0.45593999997E+02  0.45594000000E+02  0.51100000000E-03 0. -1.
         11   -1    0    0    0    0 -0.00000000000E+00 -0.00000000000E+00 -0.45593999997E+02  0.45594000000E+02  0.51100000000E-03 0.  1.
    9900012    2    1    2    0    0  0.16385819530E+02 -0.37063226521E+02  0.33148294788E+01  0.50528856671E+02  0.29999990337E+02 0.  0.
        -12    1    1    2    0    0 -0.16385819530E+02  0.37063226521E+02 -0.33148294788E+01  0.40659143329E+02  0.00000000000E+00 0.  1.
         11    1    3    3    0    0  0.24361075167E+02 -0.28452809178E+02  0.68073181980E+01  0.38070512404E+02  0.51100000000E-03 0. -1.
        -11    1    3    3    0    0 -0.71024009032E+01 -0.79720177711E+01 -0.38017352018E+01  0.11333594167E+02  0.51100000000E-03 0.  1.
         12    1    3    3    0    0 -0.87285473428E+00 -0.63839957158E+00  0.30924648265E+00  0.11247500999E+01  0.00000000000E+00 0. -1.
</event>
<event>
 7    1  0.4962385E-011  0.5052884E+02  0.7816164E-02  0.1300439E+00
        -11   -1    0    0    0    0  0.00000000000E+00  0.00000000000E+00  0.45593999997E+02  0.45594000000E+02  0.51100000000E-03 0.  1.
         11   -1    0    0    0    0 -0.00000000000E+00 -0.00000000000E+00 -0.45593999997E+02  0.45594000000E+02  0.51100000000E-03 0. -1.
    9900012    2    1    2    0    0 -0.97077438030E+01  0.39789957100E+01 -0.39282238931E+02  0.50528843688E+02  0.29999950873E+02 0.  0.
        -12    1    1    2    0    0  0.97077438030E+01 -0.39789957100E+01  0.39282238931E+02  0.40659156312E+02  0.00000000000E+00 0.  1.
         11    1    3    3    0    0 -0.81896746670E+01  0.12786432619E+02 -0.79410583901E+01  0.17135461444E+02  0.51100000000E-03 0. -1.
        -11    1    3    3    0    0  0.11828939493E+01 -0.11283819647E+01 -0.15472644394E+02  0.15558766299E+02  0.51100000000E-03 0.  1.
         12    1    3    3    0    0 -0.27009630853E+01 -0.76790549447E+01 -0.15868536147E+02  0.17834615945E+02  0.00000000000E+00 0. -1.
</event>
<event>
 7    1  0.4962385E-011  0.5052889E+02  0.7816164E-02  0.1300439E+00
        -11   -1    0    0    0    0  0.00000000000E+00  0.00000000000E+00  0.45593999997E+02  0.45594000000E+02  0.51100000000E-03 0.  1.
         11   -1    0    0    0    0 -0.00000000000E+00 -0.00000000000E+00 -0.45593999997E+02  0.45594000000E+02  0.51100000000E-03 0. -1.
    9900012    2    1    2    0    0  0.36890900218E+02  0.12855937396E+02 -0.11267193880E+02  0.50528889051E+02  0.30000088759E+02 0.  0.
        -12    1    1    2    0    0 -0.36890900218E+02 -0.12855937396E+02  0.11267193880E+02  0.40659110949E+02  0.00000000000E+00 0.  1.
         11    1    3    3    0    0  0.14592195059E+02 -0.58317628831E+01 -0.45569586030E+01  0.16361769065E+02  0.51100000000E-03 0. -1.
        -11    1    3    3    0    0  0.10658212727E+02  0.15041060191E+02  0.28698732626E+01  0.18656558177E+02  0.51100000000E-03 0.  1.
         12    1    3    3    0    0  0.11640492433E+02  0.36466400882E+01 -0.95801085395E+01  0.15510561810E+02  0.00000000000E+00 0. -1.
</event>
<event>
 7    1  0.4962385E-011  0.5052886E+02  0.7816164E-02  0.1300439E+00
        -11   -1    0    0    0    0  0.00000000000E+00  0.00000000000E+00  0.45593999997E+02  0.45594000000E+02  0.51100000000E-03 0. -1.
         11   -1    0    0    0    0 -0.00000000000E+00 -0.00000000000E+00 -0.45593999997E+02  0.45594000000E+02  0.51100000000E-03 0.  1.
    9900012    2    1    2    0    0  0.23213726438E+02  0.32639354790E+02 -0.69972068937E+01  0.50528862275E+02  0.30000007370E+02 0.  0.
        -12    1    1    2    0    0 -0.23213726438E+02 -0.32639354790E+02  0.69972068937E+01  0.40659137725E+02  0.00000000000E+00 0.  1.
         11    1    3    3    0    0  0.24221521958E+02  0.17218263302E+02 -0.77799781055E+00  0.29728033873E+02  0.51100000000E-03 0. -1.
        -11    1    3    3    0    0 -0.12920801293E+01  0.31994458698E+00  0.28765870887E+01  0.31696354900E+01  0.51100000000E-03 0.  1.
         12    1    3    3    0    0  0.28428460874E+00  0.15101146902E+02 -0.90957961718E+01  0.17631192911E+02  0.00000000000E+00 0. -1.
</event>
<event>
 7    1  0.4962385E-011  0.5052885E+02  0.7816164E-02  0.1300439E+00
        -11   -1    0    0    0    0  0.00000000000E+00  0.00000000000E+00  0.45593999997E+02  0.45594000000E+02  0.51100000000E-03 0. -1.
         11   -1    0    0    0    0 -0.00000000000E+00 -0.00000000000E+00 -0.45593999997E+02  0.45594000000E+02  0.51100000000E-03 0.  1.
    9900012    2    1    2    0    0  0.25049408475E+02  0.26414036058E+02  0.18110555440E+02  0.50528851163E+02  0.29999973595E+02 0.  0.
        -12    1    1    2    0    0 -0.25049408475E+02 -0.26414036058E+02 -0.18110555440E+02  0.40659148837E+02  0.00000000000E+00 0.  1.
         11    1    3    3    0    0  0.95206628689E+01  0.16328402427E+02  0.32507349291E+01  0.19178817094E+02  0.51100000000E-03 0. -1.
        -11    1    3    3    0    0  0.15344181709E+02  0.30420968331E+01  0.84729617380E+00  0.15665764474E+02  0.51100000000E-03 0.  1.
        -12    1    3    3    0    0  0.18456389683E+00  0.70435367970E+01  0.14012524337E+02  0.15684269595E+02  0.00000000000E+00 0.  1.
</event>
<event>
 7    1  0.4962385E-011  0.5052886E+02  0.7816164E-02  0.1300439E+00
        -11   -1    0    0    0    0  0.00000000000E+00  0.00000000000E+00  0.45593999997E+02  0.45594000000E+02  0.51100000000E-03 0. -1.
         11   -1    0    0    0    0 -0.00000000000E+00 -0.00000000000E+00 -0.45593999997E+02  0.45594000000E+02  0.51100000000E-03 0.  1.
    9900012    2    1    2    0    0  0.32175260606E+02  0.38438151547E+01 -0.24558973312E+02  0.50528862280E+02  0.30000007386E+02 0.  0.
        -12    1    1    2    0    0 -0.32175260606E+02 -0.38438151547E+01  0.24558973312E+02  0.40659137720E+02  0.00000000000E+00 0.  1.
         11    1    3    3    0    0  0.99531297107E+01  0.58379584430E+01 -0.34785576724E+01  0.12051842745E+02  0.51100000000E-03 0. -1.
        -11    1    3    3    0    0  0.18930242434E+02 -0.14514398318E+01 -0.26206329333E+02  0.32360971147E+02  0.51100000000E-03 0.  1.
        -12    1    3    3    0    0  0.32918884608E+01 -0.54270345643E+00  0.51259136937E+01  0.61160483873E+01  0.00000000000E+00 0.  1.
</event>
<event>
 7    1  0.4962385E-011  0.5052886E+02  0.7816164E-02  0.1300439E+00
        -11   -1    0    0    0    0  0.00000000000E+00  0.00000000000E+00  0.45593999997E+02  0.45594000000E+02  0.51100000000E-03 0.  1.
         11   -1    0    0    0    0 -0.00000000000E+00 -0.00000000000E+00 -0.45593999997E+02  0.45594000000E+02  0.51100000000E-03 0. -1.
    9900012    2    1    2    0    0  0.38188151161E+02  0.12695910789E+02 -0.58004095324E+01  0.50528858462E+02  0.29999995782E+02 0.  0.
        -12    1    1    2    0    0 -0.38188151161E+02 -0.12695910789E+02  0.58004095324E+01  0.40659141538E+02  0.00000000000E+00 0.  1.
         11    1    3    3    0    0  0.20906761605E+02  0.13179008437E+02 -0.84775936198E+01  0.26127543666E+02  0.51100000000E-03 0. -1.
        -11    1    3    3    0    0  0.10520762369E+02 -0.28493755707E+01  0.95373306943E+01  0.14483302766E+02  0.51100000000E-03 0.  1.
        -12    1    3    3    0    0  0.67606271864E+01  0.23662779226E+01 -0.68601466069E+01  0.99180120301E+01  0.00000000000E+00 0.  1.
</event>
<event>
 7    1  0.4962385E-011  0.5052886E+02  0.7816164E-02  0.1300439E+00
        -11   -1    0    0    0    0  0.00000000000E+00  0.00000000000E+00  0.45593999997E+02  0.45594000000E+02  0.51100000000E-03 0.  1.
         11   -1    0    0    0    0 -0.00000000000E+00 -0.00000000000E+00 -0.45593999997E+02  0.45594000000E+02  0.51100000000E-03 0. -1.
    9900012    2    1    2    0    0  0.85851498882E+01  0.39719832251E+02  0.13401134604E+01  0.50528858632E+02  0.29999996299E+02 0.  0.
        -12    1    1    2    0    0 -0.85851498882E+01 -0.39719832251E+02 -0.13401134604E+01  0.40659141368E+02  0.00000000000E+00 0.  1.
         11    1    3    3    0    0  0.16629638442E+02  0.37617129235E+02  0.60476802739E+00  0.41133429606E+02  0.51100000000E-03 0. -1.
        -11    1    3    3    0    0 -0.41368864382E+01  0.10408861320E+01 -0.17867639429E+01  0.46249107009E+01  0.51100000000E-03 0.  1.
         12    1    3    3    0    0 -0.39076021152E+01  0.10618168845E+01  0.25221093759E+01  0.47705183252E+01  0.00000000000E+00 0. -1.
</event>
<event>
 7    1  0.4962385E-011  0.5052886E+02  0.7816164E-02  0.1300439E+00
        -11   -1    0    0    0    0  0.00000000000E+00  0.00000000000E+00  0.45593999997E+02  0.45594000000E+02  0.51100000000E-03 0.  1.
         11   -1    0    0    0    0 -0.00000000000E+00 -0.00000000000E+00 -0.45593999997E+02  0.45594000000E+02  0.51100000000E-03 0. -1.
    9900012    2    1    2    0    0  0.34280481662E+02 -0.13208097876E+02 -0.17422992117E+02  0.50528856787E+02  0.29999990691E+02 0.  0.
        -12    1    1    2    0    0 -0.34280481662E+02  0.13208097876E+02  0.17422992117E+02  0.40659143213E+02  0.00000000000E+00 0.  1.
         11    1    3    3    0    0  0.12559477668E+02 -0.18916207542E+02 -0.46516192828E+01  0.23177595847E+02  0.51100000000E-03 0. -1.
        -11    1    3    3    0    0  0.68547222131E+00 -0.17189899850E+01 -0.64211411984E+00  0.19588541392E+01  0.51100000000E-03 0.  1.
         12    1    3    3    0    0  0.21035531772E+02  0.74270996506E+01 -0.12129258715E+02  0.25392406801E+02  0.00000000000E+00 0. -1.
</event>
<event>
 7    1  0.4962385E-011  0.5052885E+02  0.7816164E-02  0.1300439E+00
        -11   -1    0    0    0    0  0.00000000000E+00  0.00000000000E+00  0.45593999997E+02  0.45594000000E+02  0.51100000000E-03 0. -1.
         11   -1    0    0    0    0 -0.00000000000E+00 -0.00000000000E+00 -0.45593999997E+02  0.45594000000E+02  0.51100000000E-03 0.  1.
    9900012    2    1    2    0    0 -0.38560818330E+02 -0.22141512064E+01  0.12701455286E+02  0.50528854138E+02  0.29999982639E+02 0.  0.
        -12    1    1    2    0    0  0.38560818330E+02  0.22141512064E+01 -0.12701455286E+02  0.40659145862E+02  0.00000000000E+00 0.  1.
         11    1    3    3    0    0 -0.19628305831E+01  0.85660088175E+01  0.25759326793E+00  0.87917896650E+01  0.51100000000E-03 0. -1.
        -11    1    3    3    0    0 -0.15757015569E+02 -0.46981302753E+01 -0.52000055859E+00  0.16450725473E+02  0.51100000000E-03 0.  1.
         12    1    3    3    0    0 -0.20840972177E+02 -0.60820297486E+01  0.12963862576E+02  0.25286339001E+02  0.00000000000E+00 0. -1.
</event>
<event>
 7    1  0.4962385E-011  0.5052886E+02  0.7816164E-02  0.1300439E+00
        -11   -1    0    0    0    0  0.00000000000E+00  0.00000000000E+00  0.45593999997E+02  0.45594000000E+02  0.51100000000E-03 0. -1.
         11   -1    0    0    0    0 -0.00000000000E+00 -0.00000000000E+00 -0.45593999997E+02  0.45594000000E+02  0.51100000000E-03 0.  1.
    9900012    2    1    2    0    0  0.40054204329E+02 -0.36750122446E+00  0.69778969635E+01  0.50528863417E+02  0.30000010844E+02 0.  0.
        -12    1    1    2    0    0 -0.40054204329E+02  0.36750122446E+00 -0.69778969635E+01  0.40659136583E+02  0.00000000000E+00 0.  1.
         11    1    3    3    0    0  0.14160946448E+01 -0.76855985581E+00  0.57162526750E+01  0.59389858731E+01  0.51100000000E-03 0. -1.
        -11    1    3    3    0    0  0.38643057994E+02 -0.50500828490E+01  0.23051190272E+01  0.39039759757E+02  0.51100000000E-03 0.  1.
        -12    1    3    3    0    0 -0.49483093018E-02  0.54511414804E+01 -0.10434747386E+01  0.55501177875E+01  0.00000000000E+00 0.  1.
</event>
<event>
 7    1  0.4962385E-011  0.5052890E+02  0.7816164E-02  0.1300439E+00
        -11   -1    0    0    0    0  0.00000000000E+00  0.00000000000E+00  0.45593999997E+02  0.45594000000E+02  0.51100000000E-03 0. -1.
         11   -1    0    0    0    0 -0.00000000000E+00 -0.00000000000E+00 -0.45593999997E+02  0.45594000000E+02  0.51100000000E-03 0.  1.
    9900012    2    1    2    0    0 -0.86757704154E+00  0.14329569443E+02  0.38040416192E+02  0.50528898751E+02  0.30000118243E+02 0.  0.
        -12    1    1    2    0    0  0.86757704154E+00 -0.14329569443E+02 -0.38040416192E+02  0.40659101249E+02  0.00000000000E+00 0.  1.
         11    1    3    3    0    0 -0.68386700767E+01  0.34288049387E+01  0.44627892567E+01  0.88566697995E+01  0.51100000000E-03 0. -1.
        -11    1    3    3    0    0  0.10646154795E+02  0.87227936098E+01  0.33815635417E+02  0.36509244572E+02  0.51100000000E-03 0.  1.
        -12    1    3    3    0    0 -0.46750617593E+01  0.21779708940E+01 -0.23800848185E+00  0.51629843798E+01  0.00000000000E+00 0.  1.
</event>
<event>
 7    1  0.4962385E-011  0.5052886E+02  0.7816164E-02  0.1300439E+00
        -11   -1    0    0    0    0  0.00000000000E+00  0.00000000000E+00  0.45593999997E+02  0.45594000000E+02  0.51100000000E-03 0.  1.
         11   -1    0    0    0    0 -0.00000000000E+00 -0.00000000000E+00 -0.45593999997E+02  0.45594000000E+02  0.51100000000E-03 0. -1.
    9900012    2    1    2    0    0  0.37760354254E+02  0.59521900752E+01 -0.13852542404E+02  0.50528857718E+02  0.29999993519E+02 0.  0.
        -12    1    1    2    0    0 -0.37760354254E+02 -0.59521900752E+01  0.13852542404E+02  0.40659142282E+02  0.00000000000E+00 0.  1.
         11    1    3    3    0    0  0.78612522391E+01  0.49753700285E+01 -0.44584255928E+01  0.10316547519E+02  0.51100000000E-03 0. -1.
        -11    1    3    3    0    0  0.18298608655E+02  0.72077988420E+00  0.74401847225E+01  0.19766510853E+02  0.51100000000E-03 0.  1.
        -12    1    3    3    0    0  0.11600493360E+02  0.25604016250E+00 -0.16834301534E+02  0.20445799346E+02  0.00000000000E+00 0.  1.
</event>
<event>
 7    1  0.4962385E-011  0.5052887E+02  0.7816164E-02  0.1300439E+00
        -11   -1    0    0    0    0  0.00000000000E+00  0.00000000000E+00  0.45593999997E+02  0.45594000000E+02  0.51100000000E-03 0.  1.
         11   -1    0    0    0    0 -0.00000000000E+00 -0.00000000000E+00 -0.45593999997E+02  0.45594000000E+02  0.51100000000E-03 0. -1.
    9900012    2    1    2    0    0  0.36932319154E+02 -0.12340268228E+02 -0.11699862861E+02  0.50528865615E+02  0.30000017522E+02 0.  0.
        -12    1    1    2    0    0 -0.36932319154E+02  0.12340268228E+02  0.11699862861E+02  0.40659134385E+02  0.00000000000E+00 0.  1.
         11    1    3    3    0    0  0.20136429188E+02  0.57636834452E+01 -0.45413381553E+01  0.21431742341E+02  0.51100000000E-03 0. -1.
        -11    1    3    3    0    0  0.44716090060E+01 -0.87275480570E+01 -0.92380928209E+01  0.13472480893E+02  0.51100000000E-03 0.  1.
        -12    1    3    3    0    0  0.12324280960E+02 -0.93764036160E+01  0.20795681152E+01  0.15624642380E+02  0.00000000000E+00 0.  1.
</event>
<event>
 7    1  0.4962385E-011  0.5052887E+02  0.7816164E-02  0.1300439E+00
        -11   -1    0    0    0    0  0.00000000000E+00  0.00000000000E+00  0.45593999997E+02  0.45594000000E+02  0.51100000000E-03 0.  1.
         11   -1    0    0    0    0 -0.00000000000E+00 -0.00000000000E+00 -0.45593999997E+02  0.45594000000E+02  0.51100000000E-03 0. -1.
    9900012    2    1    2    0    0 -0.30348545245E+02 -0.12233827346E+02 -0.24134300145E+02  0.50528866051E+02  0.30000018848E+02 0.  0.
        -12    1    1    2    0    0  0.30348545245E+02  0.12233827346E+02  0.24134300145E+02  0.40659133949E+02  0.00000000000E+00 0.  1.
         11    1    3    3    0    0 -0.22511558780E+02 -0.35429354995E+01 -0.21852450136E+01  0.22893186032E+02  0.51100000000E-03 0. -1.
        -11    1    3    3    0    0  0.74325249091E+00 -0.75992957300E+01 -0.13695596904E+02  0.15680277252E+02  0.51100000000E-03 0.  1.
         12    1    3    3    0    0 -0.85802389554E+01 -0.10915961166E+01 -0.82534582269E+01  0.11955402767E+02  0.00000000000E+00 0. -1.
</event>
<event>
 7    1  0.4962385E-011  0.5052886E+02  0.7816164E-02  0.1300439E+00
        -11   -1    0    0    0    0  0.00000000000E+00  0.00000000000E+00  0.45593999997E+02  0.45594000000E+02  0.51100000000E-03 0. -1.
         11   -1    0    0    0    0 -0.00000000000E+00 -0.00000000000E+00 -0.45593999997E+02  0.45594000000E+02  0.51100000000E-03 0.  1.
    9900012    2    1    2    0    0 -0.30864443840E+02 -0.22201712137E+02  0.14409557844E+02  0.50528864832E+02  0.30000015143E+02 0.  0.
        -12    1    1    2    0    0  0.30864443840E+02  0.22201712137E+02 -0.14409557844E+02  0.40659135168E+02  0.00000000000E+00 0.  1.
         11    1    3    3    0    0 -0.14327414058E+02 -0.12395182961E+02 -0.67552052222E+01  0.20113382412E+02  0.51100000000E-03 0.  1.
        -11    1    3    3    0    0 -0.86327541627E+01 -0.80257882264E+01  0.18405113139E+02  0.21856026881E+02  0.51100000000E-03 0. -1.
         12    1    3    3    0    0 -0.79042756196E+01 -0.17807409501E+01  0.27596499269E+01  0.85594555388E+01  0.00000000000E+00 0. -1.
</event>
<event>
 7    1  0.4962385E-011  0.5052886E+02  0.7816164E-02  0.1300439E+00
        -11   -1    0    0    0    0  0.00000000000E+00  0.00000000000E+00  0.45593999997E+02  0.45594000000E+02  0.51100000000E-03 0.  1.
         11   -1    0    0    0    0 -0.00000000000E+00 -0.00000000000E+00 -0.45593999997E+02  0.45594000000E+02  0.51100000000E-03 0. -1.
    9900012    2    1    2    0    0 -0.40367705835E+02 -0.48141871409E+01  0.66165372014E+00  0.50528857635E+02  0.29999993267E+02 0.  0.
        -12    1    1    2    0    0  0.40367705835E+02  0.48141871409E+01 -0.66165372014E+00  0.40659142365E+02  0.00000000000E+00 0.  1.
         11    1    3    3    0    0 -0.16469454466E+02  0.79690139463E+01  0.84358272140E+01  0.20147240375E+02  0.51100000000E-03 0. -1.
        -11    1    3    3    0    0 -0.15354534113E+02 -0.45078487325E+01 -0.91074803535E+01  0.18412729746E+02  0.51100000000E-03 0.  1.
         12    1    3    3    0    0 -0.85437172563E+01 -0.82753523548E+01  0.13333068596E+01  0.11968887514E+02  0.00000000000E+00 0. -1.
</event>
<event>
 7    1  0.4962385E-011  0.5052885E+02  0.7816164E-02  0.1300439E+00
        -11   -1    0    0    0    0  0.00000000000E+00  0.00000000000E+00  0.45593999997E+02  0.45594000000E+02  0.51100000000E-03 0. -1.
         11   -1    0    0    0    0 -0.00000000000E+00 -0.00000000000E+00 -0.45593999997E+02  0.45594000000E+02  0.51100000000E-03 0.  1.
    9900012    2    1    2    0    0 -0.34086028175E+02  0.11574768241E+02  0.18903273809E+02  0.50528851739E+02  0.29999975347E+02 0.  0.
        -12    1    1    2    0    0  0.34086028175E+02 -0.11574768241E+02 -0.18903273809E+02  0.40659148261E+02  0.00000000000E+00 0.  1.
         11    1    3    3    0    0 -0.20946547281E+02  0.18440900610E+02  0.20672654248E+02  0.34730149614E+02  0.51100000000E-03 0.  1.
        -11    1    3    3    0    0 -0.54859206489E+01 -0.44968767495E+01 -0.29834749066E+01  0.76953459081E+01  0.51100000000E-03 0. -1.
         12    1    3    3    0    0 -0.76535602449E+01 -0.23692556193E+01  0.12140944685E+01  0.81033562177E+01  0.00000000000E+00 0. -1.
</event>
<event>
 7    1  0.4962385E-011  0.5052881E+02  0.7816164E-02  0.1300439E+00
        -11   -1    0    0    0    0  0.00000000000E+00  0.00000000000E+00  0.45593999997E+02  0.45594000000E+02  0.51100000000E-03 0. -1.
         11   -1    0    0    0    0 -0.00000000000E+00 -0.00000000000E+00 -0.45593999997E+02  0.45594000000E+02  0.51100000000E-03 0.  1.
    9900012    2    1    2    0    0  0.27318828034E+02  0.18126205827E+02  0.24047699925E+02  0.50528811930E+02  0.29999854343E+02 0.  0.
        -12    1    1    2    0    0 -0.27318828034E+02 -0.18126205827E+02 -0.24047699925E+02  0.40659188070E+02  0.00000000000E+00 0.  1.
         11    1    3    3    0    0  0.38546194778E+01  0.10539124170E+02  0.54230325488E+01  0.12463567382E+02  0.51100000000E-03 0.  1.
        -11    1    3    3    0    0  0.27838406677E+02  0.69490871320E+01  0.15177463164E+02  0.32459545386E+02  0.51100000000E-03 0. -1.
        -12    1    3    3    0    0 -0.43741981214E+01  0.63799452421E+00  0.34472042119E+01  0.56056991622E+01  0.00000000000E+00 0.  1.
</event>
<event>
 7    1  0.4962385E-011  0.5052886E+02  0.7816164E-02  0.1300439E+00
        -11   -1    0    0    0    0  0.00000000000E+00  0.00000000000E+00  0.45593999997E+02  0.45594000000E+02  0.51100000000E-03 0. -1.
         11   -1    0    0    0    0 -0.00000000000E+00 -0.00000000000E+00 -0.45593999997E+02  0.45594000000E+02  0.51100000000E-03 0.  1.
    9900012    2    1    2    0    0 -0.37490146711E+02 -0.19633132395E+00  0.15735828131E+02  0.50528856707E+02  0.29999990446E+02 0.  0.
        -12    1    1    2    0    0  0.37490146711E+02  0.19633132395E+00 -0.15735828131E+02  0.40659143293E+02  0.00000000000E+00 0.  1.
         11    1    3    3    0    0 -0.39725745321E+01  0.83541190600E+01  0.33071660191E+01  0.98239503776E+01  0.51100000000E-03 0. -1.
        -11    1    3    3    0    0 -0.12699775873E+02 -0.89315913739E+01  0.12421783998E+02  0.19883620134E+02  0.51100000000E-03 0.  1.
         12    1    3    3    0    0 -0.20817796306E+02  0.38114098997E+00  0.68781132624E-02  0.20821286195E+02  0.00000000000E+00 0. -1.
</event>
<event>
 7    1  0.4962385E-011  0.5052885E+02  0.7816164E-02  0.1300439E+00
        -11   -1    0    0    0    0  0.00000000000E+00  0.00000000000E+00  0.45593999997E+02  0.45594000000E+02  0.51100000000E-03 0. -1.
         11   -1    0    0    0    0 -0.00000000000E+00 -0.00000000000E+00 -0.45593999997E+02  0.45594000000E+02  0.51100000000E-03 0.  1.
    9900012    2    1    2    0    0 -0.28710692735E+02 -0.27915588919E+02 -0.70414613340E+01  0.50528853922E+02  0.29999981982E+02 0.  0.
        -12    1    1    2    0    0  0.28710692735E+02  0.27915588919E+02  0.70414613340E+01  0.40659146078E+02  0.00000000000E+00 0.  1.
         11    1    3    3    0    0 -0.26184382950E+02 -0.30467351471E+02 -0.41238145436E+01  0.40384245230E+02  0.51100000000E-03 0. -1.
        -11    1    3    3    0    0  0.22099889141E+01 -0.15104778237E+01 -0.28423364762E+01  0.39044168785E+01  0.51100000000E-03 0.  1.
         12    1    3    3    0    0 -0.47362986989E+01  0.40622403752E+01 -0.75310314194E-01  0.62401918139E+01  0.00000000000E+00 0. -1.
</event>
<event>
 7    1  0.4962385E-011  0.5052886E+02  0.7816164E-02  0.1300439E+00
        -11   -1    0    0    0    0  0.00000000000E+00  0.00000000000E+00  0.45593999997E+02  0.45594000000E+02  0.51100000000E-03 0. -1.
         11   -1    0    0    0    0 -0.00000000000E+00 -0.00000000000E+00 -0.45593999997E+02  0.45594000000E+02  0.51100000000E-03 0.  1.
    9900012    2    1    2    0    0  0.22728370965E+02  0.17880325013E+02  0.28581126545E+02  0.50528860020E+02  0.30000000517E+02 0.  0.
        -12    1    1    2    0    0 -0.22728370965E+02 -0.17880325013E+02 -0.28581126545E+02  0.40659139980E+02  0.00000000000E+00 0.  1.
         11    1    3    3    0    0  0.97973564764E+01  0.12648050860E+02  0.30314118070E+02  0.34276918460E+02  0.51100000000E-03 0. -1.
        -11    1    3    3    0    0  0.36237357237E+01  0.28860101292E+01 -0.42952138509E+01  0.63173869081E+01  0.51100000000E-03 0.  1.
         12    1    3    3    0    0  0.93072787653E+01  0.23462640236E+01  0.25622223265E+01  0.99345546520E+01  0.00000000000E+00 0. -1.
</event>
<event>
 7    1  0.4962385E-011  0.5052887E+02  0.7816164E-02  0.1300439E+00
        -11   -1    0    0    0    0  0.00000000000E+00  0.00000000000E+00  0.45593999997E+02  0.45594000000E+02  0.51100000000E-03 0. -1.
         11   -1    0    0    0    0 -0.00000000000E+00 -0.00000000000E+00 -0.45593999997E+02  0.45594000000E+02  0.51100000000E-03 0.  1.
    9900012    2    1    2    0    0  0.25616527005E+02 -0.11096442621E+02  0.29560576538E+02  0.50528865972E+02  0.30000018608E+02 0.  0.
        -12    1    1    2    0    0 -0.25616527005E+02  0.11096442621E+02 -0.29560576538E+02  0.40659134028E+02  0.00000000000E+00 0.  1.
         11    1    3    3    0    0  0.54349636490E+01 -0.62674249733E+01  0.21305084361E+02  0.22863203309E+02  0.51100000000E-03 0. -1.
        -11    1    3    3    0    0  0.16086527323E+02 -0.10481648588E+02  0.76194761785E+01  0.20656663233E+02  0.51100000000E-03 0.  1.
         12    1    3    3    0    0  0.40950360334E+01  0.56526309396E+01  0.63601599860E+00  0.70089994296E+01  0.00000000000E+00 0. -1.
</event>
<event>
 7    1  0.4962385E-011  0.5052889E+02  0.7816164E-02  0.1300439E+00
        -11   -1    0    0    0    0  0.00000000000E+00  0.00000000000E+00  0.45593999997E+02  0.45594000000E+02  0.51100000000E-03 0.  1.
         11   -1    0    0    0    0 -0.00000000000E+00 -0.00000000000E+00 -0.45593999997E+02  0.45594000000E+02  0.51100000000E-03 0. -1.
    9900012    2    1    2    0    0 -0.17927028516E+02  0.82365432416E+01 -0.35551996080E+02  0.50528887599E+02  0.30000084346E+02 0.  0.
        -12    1    1    2    0    0  0.17927028516E+02 -0.82365432416E+01  0.35551996080E+02  0.40659112401E+02  0.00000000000E+00 0.  1.
         11    1    3    3    0    0 -0.79691052448E+01  0.14385888467E+02 -0.53935874711E+01  0.17307547818E+02  0.51100000000E-03 0. -1.
        -11    1    3    3    0    0 -0.26168717757E+01 -0.60341119619E+01 -0.14992898452E+02  0.16372096058E+02  0.51100000000E-03 0.  1.
         12    1    3    3    0    0 -0.73410514958E+01 -0.11523326351E+00 -0.15165510156E+02  0.16849243724E+02  0.00000000000E+00 0. -1.
</event>
<event>
 7    1  0.4962385E-011  0.5052884E+02  0.7816164E-02  0.1300439E+00
        -11   -1    0    0    0    0  0.00000000000E+00  0.00000000000E+00  0.45593999997E+02  0.45594000000E+02  0.51100000000E-03 0. -1.
         11   -1    0    0    0    0 -0.00000000000E+00 -0.00000000000E+00 -0.45593999997E+02  0.45594000000E+02  0.51100000000E-03 0.  1.
    9900012    2    1    2    0    0  0.38181892793E+01 -0.29603117337E+02  0.27608773685E+02  0.50528837320E+02  0.29999931518E+02 0.  0.
        -12    1    1    2    0    0 -0.38181892793E+01  0.29603117337E+02 -0.27608773685E+02  0.40659162680E+02  0.00000000000E+00 0.  1.
         11    1    3    3    0    0  0.38329671398E+01  0.36687590432E+01  0.49333952868E+01  0.72449858060E+01  0.51100000000E-03 0. -1.
        -11    1    3    3    0    0 -0.25638503445E+01 -0.86811458618E+01 -0.93287060943E+00  0.90997730685E+01  0.51100000000E-03 0.  1.
         12    1    3    3    0    0  0.25490724839E+01 -0.24590730519E+02  0.23608249007E+02  0.34184078445E+02  0.00000000000E+00 0. -1.
</event>
<event>
 7    1  0.4962385E-011  0.5052885E+02  0.7816164E-02  0.1300439E+00
        -11   -1    0    0    0    0  0.00000000000E+00  0.00000000000E+00  0.45593999997E+02  0.45594000000E+02  0.51100000000E-03 0.  1.
         11   -1    0    0    0    0 -0.00000000000E+00 -0.00000000000E+00 -0.45593999997E+02  0.45594000000E+02  0.51100000000E-03 0. -1.
    9900012    2    1    2    0    0 -0.76702176526E+01 -0.29712691274E+02 -0.26673768185E+02  0.50528853787E+02  0.29999981570E+02 0.  0.
        -12    1    1    2    0    0  0.76702176526E+01  0.29712691274E+02  0.26673768185E+02  0.40659146213E+02  0.00000000000E+00 0.  1.
         11    1    3    3    0    0 -0.69292487290E+01 -0.26778128940E+01 -0.14808794563E+02  0.16567605938E+02  0.51100000000E-03 0.  1.
        -11    1    3    3    0    0  0.60630606727E+00 -0.26207577041E+02 -0.15177141681E+02  0.30291093267E+02  0.51100000000E-03 0. -1.
        -12    1    3    3    0    0 -0.13472749909E+01 -0.82730133894E+00  0.33121680587E+01  0.36701545820E+01  0.00000000000E+00 0.  1.
</event>
<event>
 7    1  0.4962385E-011  0.5052887E+02  0.7816164E-02  0.1300439E+00
        -11   -1    0    0    0    0  0.00000000000E+00  0.00000000000E+00  0.45593999997E+02  0.45594000000E+02  0.51100000000E-03 0.  1.
         11   -1    0    0    0    0 -0.00000000000E+00 -0.00000000000E+00 -0.45593999997E+02  0.45594000000E+02  0.51100000000E-03 0. -1.
    9900012    2    1    2    0    0 -0.17710473884E+02  0.22492540106E+02 -0.28871953627E+02  0.50528868776E+02  0.30000027132E+02 0.  0.
        -12    1    1    2    0    0  0.17710473884E+02 -0.22492540106E+02  0.28871953627E+02  0.40659131224E+02  0.00000000000E+00 0.  1.
         11    1    3    3    0    0 -0.15218994348E+02  0.20213610679E+02 -0.25123971995E+02  0.35657002324E+02  0.51100000000E-03 0. -1.
        -11    1    3    3    0    0 -0.42815860663E+01  0.16739486598E+01  0.44863537545E+01  0.64235078914E+01  0.51100000000E-03 0.  1.
         12    1    3    3    0    0  0.17901065304E+01  0.60498076744E+00 -0.82343353864E+01  0.84483585609E+01  0.00000000000E+00 0. -1.
</event>
<event>
 7    1  0.4962385E-011  0.5052886E+02  0.7816164E-02  0.1300439E+00
        -11   -1    0    0    0    0  0.00000000000E+00  0.00000000000E+00  0.45593999997E+02  0.45594000000E+02  0.51100000000E-03 0.  1.
         11   -1    0    0    0    0 -0.00000000000E+00 -0.00000000000E+00 -0.45593999997E+02  0.45594000000E+02  0.51100000000E-03 0. -1.
    9900012    2    1    2    0    0  0.27714064008E+01 -0.54282279015E+01 -0.40199741083E+02  0.50528861609E+02  0.30000005346E+02 0.  0.
        -12    1    1    2    0    0 -0.27714064008E+01  0.54282279015E+01  0.40199741083E+02  0.40659138391E+02  0.00000000000E+00 0.  1.
         11    1    3    3    0    0  0.12820459169E+01  0.10193114601E+02 -0.23682269890E+02  0.25814591502E+02  0.51100000000E-03 0. -1.
        -11    1    3    3    0    0 -0.40794954885E+01 -0.71052815998E+01 -0.78742503360E+01  0.11363587843E+02  0.51100000000E-03 0.  1.
         12    1    3    3    0    0  0.55688559724E+01 -0.85160609024E+01 -0.86432208565E+01  0.13350682264E+02  0.00000000000E+00 0. -1.
</event>
<event>
 7    1  0.4962385E-011  0.5052886E+02  0.7816164E-02  0.1300439E+00
        -11   -1    0    0    0    0  0.00000000000E+00  0.00000000000E+00  0.45593999997E+02  0.45594000000E+02  0.51100000000E-03 0. -1.
         11   -1    0    0    0    0 -0.00000000000E+00 -0.00000000000E+00 -0.45593999997E+02  0.45594000000E+02  0.51100000000E-03 0.  1.
    9900012    2    1    2    0    0  0.12188049208E+02  0.25168889031E+02  0.29515146673E+02  0.50528863245E+02  0.30000010320E+02 0.  0.
        -12    1    1    2    0    0 -0.12188049208E+02 -0.25168889031E+02 -0.29515146673E+02  0.40659136755E+02  0.00000000000E+00 0.  1.
         11    1    3    3    0    0  0.94982277753E+01  0.20759737714E+02  0.42143599562E+01  0.23215164676E+02  0.51100000000E-03 0. -1.
        -11    1    3    3    0    0  0.48425440799E+01 -0.51165754146E+00  0.10685973220E+02  0.11743170378E+02  0.51100000000E-03 0.  1.
        -12    1    3    3    0    0 -0.21527226475E+01  0.49208088582E+01  0.14614813497E+02  0.15570528191E+02  0.00000000000E+00 0.  1.
</event>
<event>
 7    1  0.4962385E-011  0.5052886E+02  0.7816164E-02  0.1300439E+00
        -11   -1    0    0    0    0  0.00000000000E+00  0.00000000000E+00  0.45593999997E+02  0.45594000000E+02  0.51100000000E-03 0.  1.
         11   -1    0    0    0    0 -0.00000000000E+00 -0.00000000000E+00 -0.45593999997E+02  0.45594000000E+02  0.51100000000E-03 0. -1.
    9900012    2    1    2    0    0  0.38991666967E+02 -0.11482352840E+02  0.98559885016E+00  0.50528856813E+02  0.29999990769E+02 0.  0.
        -12    1    1    2    0    0 -0.38991666967E+02  0.11482352840E+02 -0.98559885016E+00  0.40659143187E+02  0.00000000000E+00 0.  1.
         11    1    3    3    0    0  0.16812559701E+02 -0.11255105435E+02  0.69463505592E+01  0.21391384911E+02  0.51100000000E-03 0. -1.
        -11    1    3    3    0    0  0.18507436884E+02  0.69396554882E+01 -0.12434354525E+01  0.19804801698E+02  0.51100000000E-03 0.  1.
         12    1    3    3    0    0  0.36716703822E+01 -0.71669028934E+01 -0.47173162566E+01  0.93326702043E+01  0.00000000000E+00 0. -1.
</event>
<event>
 7    1  0.4962385E-011  0.5052884E+02  0.7816164E-02  0.1300439E+00
        -11   -1    0    0    0    0  0.00000000000E+00  0.00000000000E+00  0.45593999997E+02  0.45594000000E+02  0.51100000000E-03 0.  1.
         11   -1    0    0    0    0 -0.00000000000E+00 -0.00000000000E+00 -0.45593999997E+02  0.45594000000E+02  0.51100000000E-03 0. -1.
    9900012    2    1    2    0    0  0.17950039820E+02 -0.19888033122E+02 -0.30584789213E+02  0.50528842087E+02  0.29999946007E+02 0.  0.
        -12    1    1    2    0    0 -0.17950039820E+02  0.19888033122E+02  0.30584789213E+02  0.40659157913E+02  0.00000000000E+00 0.  1.
         11    1    3    3    0    0  0.17689111784E+02  0.19227315090E+01 -0.12251094603E+02  0.21603029681E+02  0.51100000000E-03 0. -1.
        -11    1    3    3    0    0 -0.14475775367E+01 -0.50274563739E+01 -0.63760495835E+01  0.82477152514E+01  0.51100000000E-03 0.  1.
         12    1    3    3    0    0  0.17085055728E+01 -0.16783308257E+02 -0.11957645027E+02  0.20678097154E+02  0.00000000000E+00 0. -1.
</event>
<event>
 7    1  0.4962385E-011  0.5052886E+02  0.7816164E-02  0.1300439E+00
        -11   -1    0    0    0    0  0.00000000000E+00  0.00000000000E+00  0.45593999997E+02  0.45594000000E+02  0.51100000000E-03 0.  1.
         11   -1    0    0    0    0 -0.00000000000E+00 -0.00000000000E+00 -0.45593999997E+02  0.45594000000E+02  0.51100000000E-03 0. -1.
    9900012    2    1    2    0    0  0.38668174500E+02  0.55595625571E+01 -0.11270714466E+02  0.50528862533E+02  0.30000008156E+02 0.  0.
        -12    1    1    2    0    0 -0.38668174500E+02 -0.55595625571E+01  0.11270714466E+02  0.40659137467E+02  0.00000000000E+00 0.  1.
         11    1    3    3    0    0  0.22825273643E+01  0.20362854650E+01 -0.50992395055E+01  0.59463125935E+01  0.51100000000E-03 0. -1.
        -11    1    3    3    0    0  0.35590642055E+02  0.33586805611E+00  0.21288061393E+01  0.35655832974E+02  0.51100000000E-03 0.  1.
        -12    1    3    3    0    0  0.79500508042E+00  0.31874090360E+01 -0.83002811000E+01  0.89267169654E+01  0.00000000000E+00 0.  1.
</event>
<event>
 7    1  0.4962385E-011  0.5052885E+02  0.7816164E-02  0.1300439E+00
        -11   -1    0    0    0    0  0.00000000000E+00  0.00000000000E+00  0.45593999997E+02  0.45594000000E+02  0.51100000000E-03 0. -1.
         11   -1    0    0    0    0 -0.00000000000E+00 -0.00000000000E+00 -0.45593999997E+02  0.45594000000E+02  0.51100000000E-03 0.  1.
    9900012    2    1    2    0    0 -0.67223903218E+01  0.91995228572E+01  0.39030044213E+02  0.50528854612E+02  0.29999984077E+02 0.  0.
        -12    1    1    2    0    0  0.67223903218E+01 -0.91995228572E+01 -0.39030044213E+02  0.40659145388E+02  0.00000000000E+00 0.  1.
         11    1    3    3    0    0 -0.14107752405E+02  0.32181461368E+00  0.28229040415E+02  0.31559641404E+02  0.51100000000E-03 0. -1.
        -11    1    3    3    0    0  0.39746314978E+01  0.79489328605E+01  0.12262247593E+02  0.15144171996E+02  0.51100000000E-03 0.  1.
         12    1    3    3    0    0  0.34107305853E+01  0.92877538309E+00 -0.14612437946E+01  0.38250412109E+01  0.00000000000E+00 0. -1.
</event>
<event>
 7    1  0.4962385E-011  0.5052886E+02  0.7816164E-02  0.1300439E+00
        -11   -1    0    0    0    0  0.00000000000E+00  0.00000000000E+00  0.45593999997E+02  0.45594000000E+02  0.51100000000E-03 0.  1.
         11   -1    0    0    0    0 -0.00000000000E+00 -0.00000000000E+00 -0.45593999997E+02  0.45594000000E+02  0.51100000000E-03 0. -1.
    9900012    2    1    2    0    0  0.38286122683E+02  0.12639270568E+02  0.52524014770E+01  0.50528855004E+02  0.29999985269E+02 0.  0.
        -12    1    1    2    0    0 -0.38286122683E+02 -0.12639270568E+02 -0.52524014770E+01  0.40659144996E+02  0.00000000000E+00 0.  1.
         11    1    3    3    0    0  0.14048916629E+02 -0.30529578650E+01 -0.38445155594E+01  0.14881965943E+02  0.51100000000E-03 0. -1.
        -11    1    3    3    0    0  0.28682991456E+01  0.79609145085E+01  0.97539338879E+01  0.12912882186E+02  0.51100000000E-03 0.  1.
         12    1    3    3    0    0  0.21368906908E+02  0.77313139245E+01 -0.65701685148E+00  0.22734006875E+02  0.00000000000E+00 0. -1.
</event>
<event>
 7    1  0.4962385E-011  0.5052887E+02  0.7816164E-02  0.1300439E+00
        -11   -1    0    0    0    0  0.00000000000E+00  0.00000000000E+00  0.45593999997E+02  0.45594000000E+02  0.51100000000E-03 0.  1.
         11   -1    0    0    0    0 -0.00000000000E+00 -0.00000000000E+00 -0.45593999997E+02  0.45594000000E+02  0.51100000000E-03 0. -1.
    9900012    2    1    2    0    0  0.25378142656E+02  0.31299177863E+02 -0.54292344739E+01  0.50528865152E+02  0.30000016116E+02 0.  0.
        -12    1    1    2    0    0 -0.25378142656E+02 -0.31299177863E+02  0.54292344739E+01  0.40659134848E+02  0.00000000000E+00 0.  1.
         11    1    3    3    0    0  0.14005939220E+02  0.23656995841E+02  0.34621418052E+01  0.27709316336E+02  0.51100000000E-03 0. -1.
        -11    1    3    3    0    0  0.68888832460E+01 -0.42599643760E+01 -0.50017458378E+01  0.95195310047E+01  0.51100000000E-03 0.  1.
        -12    1    3    3    0    0  0.44833201900E+01  0.11902146399E+02 -0.38896304413E+01  0.13300017812E+02  0.00000000000E+00 0.  1.
</event>
<event>
 7    1  0.4962385E-011  0.5052885E+02  0.7816164E-02  0.1300439E+00
        -11   -1    0    0    0    0  0.00000000000E+00  0.00000000000E+00  0.45593999997E+02  0.45594000000E+02  0.51100000000E-03 0. -1.
         11   -1    0    0    0    0 -0.00000000000E+00 -0.00000000000E+00 -0.45593999997E+02  0.45594000000E+02  0.51100000000E-03 0.  1.
    9900012    2    1    2    0    0 -0.39774408481E+02  0.83239712667E+01  0.13689906999E+01  0.50528853388E+02  0.29999980358E+02 0.  0.
        -12    1    1    2    0    0  0.39774408481E+02 -0.83239712667E+01 -0.13689906999E+01  0.40659146612E+02  0.00000000000E+00 0.  1.
         11    1    3    3    0    0 -0.11379185096E+02 -0.57359979748E+01  0.48556315571E+01  0.13636886899E+02  0.51100000000E-03 0. -1.
        -11    1    3    3    0    0 -0.18224137402E+02  0.17489678032E+02  0.95176627867E+00  0.25276745855E+02  0.51100000000E-03 0.  1.
         12    1    3    3    0    0 -0.10171085984E+02 -0.34297087909E+01 -0.44384071358E+01  0.11615220634E+02  0.00000000000E+00 0. -1.
</event>
<event>
 7    1  0.4962385E-011  0.5052885E+02  0.7816164E-02  0.1300439E+00
        -11   -1    0    0    0    0  0.00000000000E+00  0.00000000000E+00  0.45593999997E+02  0.45594000000E+02  0.51100000000E-03 0.  1.
         11   -1    0    0    0    0 -0.00000000000E+00 -0.00000000000E+00 -0.45593999997E+02  0.45594000000E+02  0.51100000000E-03 0. -1.
    9900012    2    1    2    0    0  0.34553683440E+02 -0.18490719227E+02 -0.10830624175E+02  0.50528853958E+02  0.29999982091E+02 0.  0.
        -12    1    1    2    0    0 -0.34553683440E+02  0.18490719227E+02  0.10830624175E+02  0.40659146042E+02  0.00000000000E+00 0.  1.
         11    1    3    3    0    0  0.90081013978E+01 -0.97240289860E+01 -0.13365196064E+02  0.18823684459E+02  0.51100000000E-03 0. -1.
        -11    1    3    3    0    0  0.14036408209E+02  0.35785870460E+01 -0.77345128533E+00  0.14506042459E+02  0.51100000000E-03 0.  1.
         12    1    3    3    0    0  0.11509173833E+02 -0.12345277287E+02  0.33080231742E+01  0.17199127040E+02  0.00000000000E+00 0. -1.
</event>
<event>
 7    1  0.4962385E-011  0.5052886E+02  0.7816164E-02  0.1300439E+00
        -11   -1    0    0    0    0  0.00000000000E+00  0.00000000000E+00  0.45593999997E+02  0.45594000000E+02  0.51100000000E-03 0.  1.
         11   -1    0    0    0    0 -0.00000000000E+00 -0.00000000000E+00 -0.45593999997E+02  0.45594000000E+02  0.51100000000E-03 0. -1.
    9900012    2    1    2    0    0  0.19005670557E+02 -0.31060965522E+01 -0.35809249040E+02  0.50528859995E+02  0.30000000441E+02 0.  0.
        -12    1    1    2    0    0 -0.19005670557E+02  0.31060965522E+01  0.35809249040E+02  0.40659140005E+02  0.00000000000E+00 0.  1.
         11    1    3    3    0    0  0.16694770820E+02 -0.10320637910E+02 -0.12124320061E+02  0.23070112197E+02  0.51100000000E-03 0. -1.
        -11    1    3    3    0    0 -0.32594015904E+01  0.63076956175E+01 -0.75442144172E+01  0.10359821145E+02  0.51100000000E-03 0.  1.
        -12    1    3    3    0    0  0.55703013281E+01  0.90684574055E+00 -0.16140714562E+02  0.17098926652E+02  0.00000000000E+00 0.  1.
</event>
<event>
 7    1  0.4962385E-011  0.5052888E+02  0.7816164E-02  0.1300439E+00
        -11   -1    0    0    0    0  0.00000000000E+00  0.00000000000E+00  0.45593999997E+02  0.45594000000E+02  0.51100000000E-03 0.  1.
         11   -1    0    0    0    0 -0.00000000000E+00 -0.00000000000E+00 -0.45593999997E+02  0.45594000000E+02  0.51100000000E-03 0. -1.
    9900012    2    1    2    0    0 -0.12022024685E+02 -0.23590476761E+02 -0.30856508298E+02  0.50528883240E+02  0.30000071098E+02 0.  0.
        -12    1    1    2    0    0  0.12022024685E+02  0.23590476761E+02  0.30856508298E+02  0.40659116760E+02  0.00000000000E+00 0.  1.
         11    1    3    3    0    0  0.24140628376E+01 -0.41787701766E+01 -0.17795508013E+02  0.18438273381E+02  0.51100000000E-03 0. -1.
        -11    1    3    3    0    0 -0.96966171647E+01 -0.15384604696E+02 -0.63668061140E+00  0.18196587827E+02  0.51100000000E-03 0.  1.
         12    1    3    3    0    0 -0.47394703577E+01 -0.40271018889E+01 -0.12424319674E+02  0.13894022033E+02  0.00000000000E+00 0. -1.
</event>
<event>
 7    1  0.4962385E-011  0.5052886E+02  0.7816164E-02  0.1300439E+00
        -11   -1    0    0    0    0  0.00000000000E+00  0.00000000000E+00  0.45593999997E+02  0.45594000000E+02  0.51100000000E-03 0.  1.
         11   -1    0    0    0    0 -0.00000000000E+00 -0.00000000000E+00 -0.45593999997E+02  0.45594000000E+02  0.51100000000E-03 0. -1.
    9900012    2    1    2    0    0 -0.23441430709E+02 -0.20917908998E+02 -0.25809024040E+02  0.50528864342E+02  0.30000013654E+02 0.  0.
        -12    1    1    2    0    0  0.23441430709E+02  0.20917908998E+02  0.25809024040E+02  0.40659135658E+02  0.00000000000E+00 0.  1.
         11    1    3    3    0    0 -0.23674208847E+02 -0.24673451189E+02 -0.20607545073E+02  0.39923906025E+02  0.51100000000E-03 0. -1.
        -11    1    3    3    0    0 -0.75061662152E+00  0.46075692811E+01 -0.69824762668E+01  0.83992913433E+01  0.51100000000E-03 0.  1.
        -12    1    3    3    0    0  0.98339475991E+00 -0.85202709049E+00  0.17809972996E+01  0.22056669735E+01  0.00000000000E+00 0.  1.
</event>
<event>
 7    1  0.4962385E-011  0.5052886E+02  0.7816164E-02  0.1300439E+00
        -11   -1    0    0    0    0  0.00000000000E+00  0.00000000000E+00  0.45593999997E+02  0.45594000000E+02  0.51100000000E-03 0.  1.
         11   -1    0    0    0    0 -0.00000000000E+00 -0.00000000000E+00 -0.45593999997E+02  0.45594000000E+02  0.51100000000E-03 0. -1.
    9900012    2    1    2    0    0  0.25936428509E+02  0.31190908891E+02  0.27558291134E+01  0.50528859387E+02  0.29999998594E+02 0.  0.
        -12    1    1    2    0    0 -0.25936428509E+02 -0.31190908891E+02 -0.27558291134E+01  0.40659140613E+02  0.00000000000E+00 0.  1.
         11    1    3    3    0    0  0.26301819156E+01  0.13034752417E+02 -0.18546983901E+01  0.13426188359E+02  0.51100000000E-03 0. -1.
        -11    1    3    3    0    0  0.23292030026E+02  0.22121395790E+02  0.63969735867E+01  0.32753566000E+02  0.51100000000E-03 0.  1.
        -12    1    3    3    0    0  0.14216567510E-01 -0.39652393150E+01 -0.17864460832E+01  0.43491050280E+01  0.00000000000E+00 0.  1.
</event>
<event>
 7    1  0.4962385E-011  0.5052886E+02  0.7816164E-02  0.1300439E+00
        -11   -1    0    0    0    0  0.00000000000E+00  0.00000000000E+00  0.45593999997E+02  0.45594000000E+02  0.51100000000E-03 0. -1.
         11   -1    0    0    0    0 -0.00000000000E+00 -0.00000000000E+00 -0.45593999997E+02  0.45594000000E+02  0.51100000000E-03 0.  1.
    9900012    2    1    2    0    0 -0.94006204751E+00  0.40431514926E+02  0.41922273769E+01  0.50528857286E+02  0.29999992207E+02 0.  0.
        -12    1    1    2    0    0  0.94006204751E+00 -0.40431514926E+02 -0.41922273769E+01  0.40659142714E+02  0.00000000000E+00 0.  1.
         11    1    3    3    0    0  0.76231787383E+01  0.30553477205E+02  0.23659330683E+01  0.31578876847E+02  0.51100000000E-03 0. -1.
        -11    1    3    3    0    0  0.41557714816E+00 -0.75664478714E+00  0.46659008664E+01  0.47450866015E+01  0.51100000000E-03 0.  1.
         12    1    3    3    0    0 -0.89788179340E+01  0.10634682508E+02 -0.28396065579E+01  0.14204893838E+02  0.00000000000E+00 0. -1.
</event>
<event>
 7    1  0.4962385E-011  0.5052885E+02  0.7816164E-02  0.1300439E+00
        -11   -1    0    0    0    0  0.00000000000E+00  0.00000000000E+00  0.45593999997E+02  0.45594000000E+02  0.51100000000E-03 0. -1.
         11   -1    0    0    0    0 -0.00000000000E+00 -0.00000000000E+00 -0.45593999997E+02  0.45594000000E+02  0.51100000000E-03 0.  1.
    9900012    2    1    2    0    0  0.79797846451E+01  0.39864681917E+02  0.54438811253E+00  0.50528853602E+02  0.29999981010E+02 0.  0.
        -12    1    1    2    0    0 -0.79797846451E+01 -0.39864681917E+02 -0.54438811253E+00  0.40659146398E+02  0.00000000000E+00 0.  1.
         11    1    3    3    0    0  0.54224556136E+01  0.54138607933E+01 -0.32413033326E+01  0.83197933343E+01  0.51100000000E-03 0. -1.
        -11    1    3    3    0    0 -0.80475900975E+01  0.28047848333E+02 -0.24895568891E+00  0.29180601119E+02  0.51100000000E-03 0.  1.
        -12    1    3    3    0    0  0.10604919129E+02  0.64029727912E+01  0.40346471340E+01  0.13028459149E+02  0.00000000000E+00 0.  1.
</event>
<event>
 7    1  0.7085785E-011  0.5052886E+02  0.7816164E-02  0.1300439E+00
        -11   -1    0    0    0    0  0.00000000000E+00  0.00000000000E+00  0.45593999997E+02  0.45594000000E+02  0.51100000000E-03 0.  1.
         11   -1    0    0    0    0 -0.00000000000E+00 -0.00000000000E+00 -0.45593999997E+02  0.45594000000E+02  0.51100000000E-03 0. -1.
    9900012    2    1    2    0    0  0.37407387238E+02  0.12871830330E+02 -0.93898284025E+01  0.50528861870E+02  0.30000006141E+02 0.  0.
        -12    1    1    2    0    0 -0.37407387238E+02 -0.12871830330E+02  0.93898284025E+01  0.40659138130E+02  0.00000000000E+00 0.  1.
         11    1    3    3    0    0  0.22551597546E+02  0.90386255175E+01 -0.10280646334E+02  0.26381110523E+02  0.51100000000E-03 0. -1.
        -11    1    3    3    0    0  0.10887567669E+02 -0.25798046392E+01  0.80227648080E+01  0.13768052773E+02  0.51100000000E-03 0.  1.
        -12    1    3    3    0    0  0.39682220232E+01  0.64130094512E+01 -0.71319468768E+01  0.10379698575E+02  0.00000000000E+00 0.  1.
</event>
<event>
 7    1  0.4962385E-011  0.5052885E+02  0.7816164E-02  0.1300439E+00
        -11   -1    0    0    0    0  0.00000000000E+00  0.00000000000E+00  0.45593999997E+02  0.45594000000E+02  0.51100000000E-03 0.  1.
         11   -1    0    0    0    0 -0.00000000000E+00 -0.00000000000E+00 -0.45593999997E+02  0.45594000000E+02  0.51100000000E-03 0. -1.
    9900012    2    1    2    0    0  0.60778637587E+01  0.28294237275E+02 -0.28559805969E+02  0.50528845953E+02  0.29999957758E+02 0.  0.
        -12    1    1    2    0    0 -0.60778637587E+01 -0.28294237275E+02  0.28559805969E+02  0.40659154047E+02  0.00000000000E+00 0.  1.
         11    1    3    3    0    0 -0.11773152764E+02  0.84052963915E+01 -0.10912499288E+02  0.18120120706E+02  0.51100000000E-03 0. -1.
        -11    1    3    3    0    0  0.83909880538E+01  0.12285376559E+02 -0.79168917065E+01  0.16852784110E+02  0.51100000000E-03 0.  1.
         12    1    3    3    0    0  0.94600284688E+01  0.76035643248E+01 -0.97304149738E+01  0.15555941136E+02  0.00000000000E+00 0. -1.
</event>
<event>
 7    1  0.4962385E-011  0.5052885E+02  0.7816164E-02  0.1300439E+00
        -11   -1    0    0    0    0  0.00000000000E+00  0.00000000000E+00  0.45593999997E+02  0.45594000000E+02  0.51100000000E-03 0.  1.
         11   -1    0    0    0    0 -0.00000000000E+00 -0.00000000000E+00 -0.45593999997E+02  0.45594000000E+02  0.51100000000E-03 0. -1.
    9900012    2    1    2    0    0  0.63718166370E+01 -0.10201672936E+02 -0.38839311082E+02  0.50528852649E+02  0.29999978113E+02 0.  0.
        -12    1    1    2    0    0 -0.63718166370E+01  0.10201672936E+02  0.38839311082E+02  0.40659147351E+02  0.00000000000E+00 0.  1.
         11    1    3    3    0    0 -0.37611075532E+00 -0.81034050138E+01 -0.17704529951E+02  0.19474522155E+02  0.51100000000E-03 0. -1.
        -11    1    3    3    0    0 -0.33325740003E+01  0.54938574460E+01  0.15063191412E-01  0.64256319739E+01  0.51100000000E-03 0.  1.
        -12    1    3    3    0    0  0.10080501393E+02 -0.75921253683E+01 -0.21149844322E+02  0.24628698520E+02  0.00000000000E+00 0.  1.
</event>
<event>
 7    1  0.4962385E-011  0.5052889E+02  0.7816164E-02  0.1300439E+00
        -11   -1    0    0    0    0  0.00000000000E+00  0.00000000000E+00  0.45593999997E+02  0.45594000000E+02  0.51100000000E-03 0.  1.
         11   -1    0    0    0    0 -0.00000000000E+00 -0.00000000000E+00 -0.45593999997E+02  0.45594000000E+02  0.51100000000E-03 0. -1.
    9900012    2    1    2    0    0  0.22839896457E+02  0.28433625445E+00 -0.33636613605E+02  0.50528886728E+02  0.30000081699E+02 0.  0.
        -12    1    1    2    0    0 -0.22839896457E+02 -0.28433625445E+00  0.33636613605E+02  0.40659113272E+02  0.00000000000E+00 0.  1.
         11    1    3    3    0    0  0.26144411274E+02 -0.64182578936E+00 -0.32362705338E+02  0.41608735601E+02  0.51100000000E-03 0. -1.
        -11    1    3    3    0    0 -0.82898167566E+00 -0.13114304653E+01  0.30716265513E+01  0.34412135092E+01  0.51100000000E-03 0.  1.
         12    1    3    3    0    0 -0.24755331421E+01  0.22375925092E+01 -0.43455348177E+01  0.54789376184E+01  0.00000000000E+00 0. -1.
</event>
<event>
 7    1  0.4962385E-011  0.5052886E+02  0.7816164E-02  0.1300439E+00
        -11   -1    0    0    0    0  0.00000000000E+00  0.00000000000E+00  0.45593999997E+02  0.45594000000E+02  0.51100000000E-03 0. -1.
         11   -1    0    0    0    0 -0.00000000000E+00 -0.00000000000E+00 -0.45593999997E+02  0.45594000000E+02  0.51100000000E-03 0.  1.
    9900012    2    1    2    0    0 -0.36377362068E+02 -0.16816190443E+02 -0.68606868955E+01  0.50528858878E+02  0.29999997047E+02 0.  0.
        -12    1    1    2    0    0  0.36377362068E+02  0.16816190443E+02  0.68606868955E+01  0.40659141122E+02  0.00000000000E+00 0.  1.
         11    1    3    3    0    0 -0.39963272665E+02 -0.17501201209E+02 -0.32371026447E+01  0.43747388947E+02  0.51100000000E-03 0. -1.
        -11    1    3    3    0    0  0.43444573895E+01 -0.24475960047E+00 -0.20705055793E+01  0.48188391638E+01  0.51100000000E-03 0.  1.
         12    1    3    3    0    0 -0.75854679227E+00  0.92977036606E+00 -0.15530786715E+01  0.19626307675E+01  0.00000000000E+00 0. -1.
</event>
<event>
 7    1  0.4962385E-011  0.5052886E+02  0.7816164E-02  0.1300439E+00
        -11   -1    0    0    0    0  0.00000000000E+00  0.00000000000E+00  0.45593999997E+02  0.45594000000E+02  0.51100000000E-03 0. -1.
         11   -1    0    0    0    0 -0.00000000000E+00 -0.00000000000E+00 -0.45593999997E+02  0.45594000000E+02  0.51100000000E-03 0.  1.
    9900012    2    1    2    0    0  0.11858862633E+02  0.34248476007E+02  0.18427551890E+02  0.50528863260E+02  0.30000010366E+02 0.  0.
        -12    1    1    2    0    0 -0.11858862633E+02 -0.34248476007E+02 -0.18427551890E+02  0.40659136740E+02  0.00000000000E+00 0.  1.
         11    1    3    3    0    0 -0.17131108739E+01  0.25991667434E+02  0.86444325174E+01  0.27444994783E+02  0.51100000000E-03 0. -1.
        -11    1    3    3    0    0 -0.13619894579E+01 -0.22411283890E+01  0.16580617584E+01  0.31027150683E+01  0.51100000000E-03 0.  1.
         12    1    3    3    0    0  0.14933962965E+02  0.10497936963E+02  0.81250576138E+01  0.19981153409E+02  0.00000000000E+00 0. -1.
</event>
<event>
 7    1  0.4962385E-011  0.5052886E+02  0.7816164E-02  0.1300439E+00
        -11   -1    0    0    0    0  0.00000000000E+00  0.00000000000E+00  0.45593999997E+02  0.45594000000E+02  0.51100000000E-03 0.  1.
         11   -1    0    0    0    0 -0.00000000000E+00 -0.00000000000E+00 -0.45593999997E+02  0.45594000000E+02  0.51100000000E-03 0. -1.
    9900012    2    1    2    0    0 -0.36550420153E+02  0.40328263952E+01 -0.17348461743E+02  0.50528855556E+02  0.29999986947E+02 0.  0.
        -12    1    1    2    0    0  0.36550420153E+02 -0.40328263952E+01  0.17348461743E+02  0.40659144444E+02  0.00000000000E+00 0.  1.
         11    1    3    3    0    0 -0.35406425994E+02  0.85685799828E+01 -0.10175415712E+02  0.37822938143E+02  0.51100000000E-03 0. -1.
        -11    1    3    3    0    0  0.75695917441E+00  0.25300988314E+01 -0.28405902394E+00  0.26561395066E+01  0.51100000000E-03 0.  1.
         12    1    3    3    0    0 -0.19009533339E+01 -0.70658524190E+01 -0.68889870066E+01  0.10049777906E+02  0.00000000000E+00 0. -1.
</event>
<event>
 7    1  0.4962385E-011  0.5052887E+02  0.7816164E-02  0.1300439E+00
        -11   -1    0    0    0    0  0.00000000000E+00  0.00000000000E+00  0.45593999997E+02  0.45594000000E+02  0.51100000000E-03 0. -1.
         11   -1    0    0    0    0 -0.00000000000E+00 -0.00000000000E+00 -0.45593999997E+02  0.45594000000E+02  0.51100000000E-03 0.  1.
    9900012    2    1    2    0    0  0.31268178014E+02  0.41721945734E+01  0.25652654793E+02  0.50528869884E+02  0.30000030499E+02 0.  0.
        -12    1    1    2    0    0 -0.31268178014E+02 -0.41721945734E+01 -0.25652654793E+02  0.40659130116E+02  0.00000000000E+00 0.  1.
         11    1    3    3    0    0  0.55017036474E+01  0.29125511035E+01  0.14843641894E+02  0.16096130028E+02  0.51100000000E-03 0. -1.
        -11    1    3    3    0    0  0.14948099151E+02 -0.30664939314E+01 -0.38205628894E+01  0.15730408587E+02  0.51100000000E-03 0.  1.
        -12    1    3    3    0    0  0.10818375216E+02  0.43261374013E+01  0.14629575789E+02  0.18702331269E+02  0.00000000000E+00 0.  1.
</event>
<event>
 7    1  0.4962385E-011  0.5052887E+02  0.7816164E-02  0.1300439E+00
        -11   -1    0    0    0    0  0.00000000000E+00  0.00000000000E+00  0.45593999997E+02  0.45594000000E+02  0.51100000000E-03 0.  1.
         11   -1    0    0    0    0 -0.00000000000E+00 -0.00000000000E+00 -0.45593999997E+02  0.45594000000E+02  0.51100000000E-03 0. -1.
    9900012    2    1    2    0    0  0.13225559780E+02  0.18401809148E+02 -0.33758302322E+02  0.50528868344E+02  0.30000025817E+02 0.  0.
        -12    1    1    2    0    0 -0.13225559780E+02 -0.18401809148E+02  0.33758302322E+02  0.40659131656E+02  0.00000000000E+00 0.  1.
         11    1    3    3    0    0 -0.44183679611E+01 -0.28494211058E+00 -0.17022199926E+02  0.17588588859E+02  0.51100000000E-03 0. -1.
        -11    1    3    3    0    0  0.17581028500E+02  0.19728153349E+02 -0.17458201633E+02  0.31671460374E+02  0.51100000000E-03 0.  1.
         12    1    3    3    0    0  0.62899241339E-01 -0.10414020905E+01  0.72209923749E+00  0.12688191114E+01  0.00000000000E+00 0. -1.
</event>
<event>
 7    1  0.4962385E-011  0.5052887E+02  0.7816164E-02  0.1300439E+00
        -11   -1    0    0    0    0  0.00000000000E+00  0.00000000000E+00  0.45593999997E+02  0.45594000000E+02  0.51100000000E-03 0.  1.
         11   -1    0    0    0    0 -0.00000000000E+00 -0.00000000000E+00 -0.45593999997E+02  0.45594000000E+02  0.51100000000E-03 0. -1.
    9900012    2    1    2    0    0 -0.15829825435E+02 -0.32115945097E+02 -0.19265183041E+02  0.50528873344E+02  0.30000041017E+02 0.  0.
        -12    1    1    2    0    0  0.15829825435E+02  0.32115945097E+02  0.19265183041E+02  0.40659126656E+02  0.00000000000E+00 0.  1.
         11    1    3    3    0    0 -0.61273503495E+01 -0.24883117567E+02 -0.10325031245E+02  0.27628250626E+02  0.51100000000E-03 0. -1.
        -11    1    3    3    0    0  0.22082284957E+01  0.38047881867E+01 -0.75268806265E-01  0.43998127107E+01  0.51100000000E-03 0.  1.
        -12    1    3    3    0    0 -0.11910703581E+02 -0.11037615717E+02 -0.88648829906E+01  0.18500810008E+02  0.00000000000E+00 0.  1.
</event>
<event>
 7    1  0.4962385E-011  0.5052886E+02  0.7816164E-02  0.1300439E+00
        -11   -1    0    0    0    0  0.00000000000E+00  0.00000000000E+00  0.45593999997E+02  0.45594000000E+02  0.51100000000E-03 0. -1.
         11   -1    0    0    0    0 -0.00000000000E+00 -0.00000000000E+00 -0.45593999997E+02  0.45594000000E+02  0.51100000000E-03 0.  1.
    9900012    2    1    2    0    0  0.24750865153E+02  0.21929985226E+02  0.23656632745E+02  0.50528857723E+02  0.29999993535E+02 0.  0.
        -12    1    1    2    0    0 -0.24750865153E+02 -0.21929985226E+02 -0.23656632745E+02  0.40659142277E+02  0.00000000000E+00 0.  1.
         11    1    3    3    0    0  0.12500850489E+02  0.53341727849E+01 -0.88736091177E+00  0.13620281638E+02  0.51100000000E-03 0. -1.
        -11    1    3    3    0    0  0.14712607460E+00  0.33348241623E+01  0.17183451962E+02  0.17504677085E+02  0.51100000000E-03 0.  1.
         12    1    3    3    0    0  0.12102888589E+02  0.13260988279E+02  0.73605416957E+01  0.19403899000E+02  0.00000000000E+00 0. -1.
</event>
<event>
 7    1  0.4962385E-011  0.5052887E+02  0.7816164E-02  0.1300439E+00
        -11   -1    0    0    0    0  0.00000000000E+00  0.00000000000E+00  0.45593999997E+02  0.45594000000E+02  0.51100000000E-03 0.  1.
         11   -1    0    0    0    0 -0.00000000000E+00 -0.00000000000E+00 -0.45593999997E+02  0.45594000000E+02  0.51100000000E-03 0. -1.
    9900012    2    1    2    0    0 -0.19008157652E+02  0.34561830793E+02  0.98658233521E+01  0.50528872174E+02  0.30000037462E+02 0.  0.
        -12    1    1    2    0    0  0.19008157652E+02 -0.34561830793E+02 -0.98658233521E+01  0.40659127826E+02  0.00000000000E+00 0.  1.
         11    1    3    3    0    0 -0.14732235729E+02  0.35178795292E+02  0.16045425047E+02  0.41376830146E+02  0.51100000000E-03 0. -1.
        -11    1    3    3    0    0 -0.24110058355E+01 -0.24069530076E+01 -0.13313262718E+01  0.36577044472E+01  0.51100000000E-03 0.  1.
         12    1    3    3    0    0 -0.18649160879E+01  0.17899885087E+01 -0.48482754229E+01  0.54943375808E+01  0.00000000000E+00 0. -1.
</event>
<event>
 7    1  0.4962385E-011  0.5052888E+02  0.7816164E-02  0.1300439E+00
        -11   -1    0    0    0    0  0.00000000000E+00  0.00000000000E+00  0.45593999997E+02  0.45594000000E+02  0.51100000000E-03 0. -1.
         11   -1    0    0    0    0 -0.00000000000E+00 -0.00000000000E+00 -0.45593999997E+02  0.45594000000E+02  0.51100000000E-03 0.  1.
    9900012    2    1    2    0    0  0.15869942116E+01  0.35438921654E+02  0.19867771912E+02  0.50528879505E+02  0.30000059745E+02 0.  0.
        -12    1    1    2    0    0 -0.15869942116E+01 -0.35438921654E+02 -0.19867771912E+02  0.40659120495E+02  0.00000000000E+00 0.  1.
         11    1    3    3    0    0 -0.88192002047E+00  0.17104526841E+02  0.18907383484E+02  0.25511404741E+02  0.51100000000E-03 0. -1.
        -11    1    3    3    0    0  0.76700355470E+01  0.71564652699E+01 -0.46470548374E+01  0.11473428405E+02  0.51100000000E-03 0.  1.
        -12    1    3    3    0    0 -0.52011213149E+01  0.11177929543E+02  0.56074432656E+01  0.13544046359E+02  0.00000000000E+00 0.  1.
</event>
<event>
 7    1  0.4962385E-011  0.5052885E+02  0.7816164E-02  0.1300439E+00
        -11   -1    0    0    0    0  0.00000000000E+00  0.00000000000E+00  0.45593999997E+02  0.45594000000E+02  0.51100000000E-03 0.  1.
         11   -1    0    0    0    0 -0.00000000000E+00 -0.00000000000E+00 -0.45593999997E+02  0.45594000000E+02  0.51100000000E-03 0. -1.
    9900012    2    1    2    0    0  0.23224045298E+00  0.59420549449E+01 -0.40221936138E+02  0.50528854666E+02  0.29999984243E+02 0.  0.
        -12    1    1    2    0    0 -0.23224045298E+00 -0.59420549449E+01  0.40221936138E+02  0.40659145334E+02  0.00000000000E+00 0.  1.
         11    1    3    3    0    0  0.29605606390E+01  0.54333817155E+01 -0.40373613140E+02  0.40845014315E+02  0.51100000000E-03 0. -1.
        -11    1    3    3    0    0 -0.42983726507E+01  0.11339199194E+01 -0.35014234673E+01  0.56587762269E+01  0.51100000000E-03 0.  1.
         12    1    3    3    0    0  0.15700524647E+01 -0.62524669000E+00  0.36531004693E+01  0.40250641242E+01  0.00000000000E+00 0. -1.
</event>
<event>
 7    1  0.4962385E-011  0.5052886E+02  0.7816164E-02  0.1300439E+00
        -11   -1    0    0    0    0  0.00000000000E+00  0.00000000000E+00  0.45593999997E+02  0.45594000000E+02  0.51100000000E-03 0.  1.
         11   -1    0    0    0    0 -0.00000000000E+00 -0.00000000000E+00 -0.45593999997E+02  0.45594000000E+02  0.51100000000E-03 0. -1.
    9900012    2    1    2    0    0 -0.18209507403E+02  0.15231356998E+02 -0.33008869965E+02  0.50528857212E+02  0.29999991983E+02 0.  0.
        -12    1    1    2    0    0  0.18209507403E+02 -0.15231356998E+02  0.33008869965E+02  0.40659142788E+02  0.00000000000E+00 0.  1.
         11    1    3    3    0    0  0.14570869930E+01 -0.12250945441E+00 -0.10903076900E+02  0.11000690761E+02  0.51100000000E-03 0. -1.
        -11    1    3    3    0    0 -0.20043718954E+02  0.81643002902E+01 -0.23761734325E+02  0.32140729412E+02  0.51100000000E-03 0.  1.
        -12    1    3    3    0    0  0.37712455823E+00  0.71895661625E+01  0.16559412610E+01  0.73874370385E+01  0.00000000000E+00 0.  1.
</event>
<event>
 7    1  0.4962385E-011  0.5052886E+02  0.7816164E-02  0.1300439E+00
        -11   -1    0    0    0    0  0.00000000000E+00  0.00000000000E+00  0.45593999997E+02  0.45594000000E+02  0.51100000000E-03 0. -1.
         11   -1    0    0    0    0 -0.00000000000E+00 -0.00000000000E+00 -0.45593999997E+02  0.45594000000E+02  0.51100000000E-03 0.  1.
    9900012    2    1    2    0    0 -0.23131041597E+01  0.20771914200E+02  0.34876107111E+02  0.50528859360E+02  0.29999998510E+02 0.  0.
        -12    1    1    2    0    0  0.23131041597E+01 -0.20771914200E+02 -0.34876107111E+02  0.40659140640E+02  0.00000000000E+00 0.  1.
         11    1    3    3    0    0  0.78459614410E+01  0.67273668469E+01  0.20440459703E+01  0.10535402214E+02  0.51100000000E-03 0. -1.
        -11    1    3    3    0    0  0.55712519984E+00  0.39830479453E+01  0.20247172371E+02  0.20642748090E+02  0.51100000000E-03 0.  1.
         12    1    3    3    0    0 -0.10716190800E+02  0.10061499408E+02  0.12584888770E+02  0.19350709056E+02  0.00000000000E+00 0. -1.
</event>
<event>
 7    1  0.4962385E-011  0.5052885E+02  0.7816164E-02  0.1300439E+00
        -11   -1    0    0    0    0  0.00000000000E+00  0.00000000000E+00  0.45593999997E+02  0.45594000000E+02  0.51100000000E-03 0.  1.
         11   -1    0    0    0    0 -0.00000000000E+00 -0.00000000000E+00 -0.45593999997E+02  0.45594000000E+02  0.51100000000E-03 0. -1.
    9900012    2    1    2    0    0  0.18219549682E+02  0.30180804553E+02  0.20256692254E+02  0.50528849306E+02  0.29999967951E+02 0.  0.
        -12    1    1    2    0    0 -0.18219549682E+02 -0.30180804553E+02 -0.20256692254E+02  0.40659150694E+02  0.00000000000E+00 0.  1.
         11    1    3    3    0    0  0.13652621011E+02  0.22009534402E+02 -0.23084084744E+01  0.26002738606E+02  0.51100000000E-03 0. -1.
        -11    1    3    3    0    0  0.45683186487E+01  0.72251721236E+01  0.18942194686E+02  0.20781707997E+02  0.51100000000E-03 0.  1.
         12    1    3    3    0    0 -0.13899785280E-02  0.94609802727E+00  0.36229060426E+01  0.37444027030E+01  0.00000000000E+00 0. -1.
</event>
<event>
 7    1  0.4962385E-011  0.5052886E+02  0.7816164E-02  0.1300439E+00
        -11   -1    0    0    0    0  0.00000000000E+00  0.00000000000E+00  0.45593999997E+02  0.45594000000E+02  0.51100000000E-03 0. -1.
         11   -1    0    0    0    0 -0.00000000000E+00 -0.00000000000E+00 -0.45593999997E+02  0.45594000000E+02  0.51100000000E-03 0.  1.
    9900012    2    1    2    0    0  0.11248223251E+02  0.39024993118E+02  0.19216940554E+01  0.50528861762E+02  0.30000005812E+02 0.  0.
        -12    1    1    2    0    0 -0.11248223251E+02 -0.39024993118E+02 -0.19216940554E+01  0.40659138238E+02  0.00000000000E+00 0.  1.
         11    1    3    3    0    0  0.10400388215E+02  0.15904282085E+02  0.82600574990E+01  0.20720589128E+02  0.51100000000E-03 0. -1.
        -11    1    3    3    0    0  0.62256192750E+01  0.76995793703E+01 -0.88550334924E+01  0.13283579196E+02  0.51100000000E-03 0.  1.
         12    1    3    3    0    0 -0.53777842390E+01  0.15421131663E+02  0.25166700488E+01  0.16524693438E+02  0.00000000000E+00 0. -1.
</event>
<event>
 7    1  0.4962385E-011  0.5052886E+02  0.7816164E-02  0.1300439E+00
        -11   -1    0    0    0    0  0.00000000000E+00  0.00000000000E+00  0.45593999997E+02  0.45594000000E+02  0.51100000000E-03 0.  1.
         11   -1    0    0    0    0 -0.00000000000E+00 -0.00000000000E+00 -0.45593999997E+02  0.45594000000E+02  0.51100000000E-03 0. -1.
    9900012    2    1    2    0    0 -0.10663275573E+02  0.13407432119E+02 -0.36874122981E+02  0.50528860466E+02  0.30000001873E+02 0.  0.
        -12    1    1    2    0    0  0.10663275573E+02 -0.13407432119E+02  0.36874122981E+02  0.40659139534E+02  0.00000000000E+00 0.  1.
         11    1    3    3    0    0 -0.16973962012E+02  0.86386650600E+00 -0.15945218712E+02  0.23304755991E+02  0.51100000000E-03 0. -1.
        -11    1    3    3    0    0  0.32596232650E+01 -0.61072148121E+00 -0.16980000854E+01  0.37257655735E+01  0.51100000000E-03 0.  1.
         12    1    3    3    0    0  0.30510631741E+01  0.13154287094E+02 -0.19230904184E+02  0.23498338902E+02  0.00000000000E+00 0. -1.
</event>
<event>
 7    1  0.4962385E-011  0.5052886E+02  0.7816164E-02  0.1300439E+00
        -11   -1    0    0    0    0  0.00000000000E+00  0.00000000000E+00  0.45593999997E+02  0.45594000000E+02  0.51100000000E-03 0.  1.
         11   -1    0    0    0    0 -0.00000000000E+00 -0.00000000000E+00 -0.45593999997E+02  0.45594000000E+02  0.51100000000E-03 0. -1.
    9900012    2    1    2    0    0  0.80094050081E+01  0.35204652785E+02 -0.18698865395E+02  0.50528859412E+02  0.29999998669E+02 0.  0.
        -12    1    1    2    0    0 -0.80094050081E+01 -0.35204652785E+02  0.18698865395E+02  0.40659140588E+02  0.00000000000E+00 0.  1.
         11    1    3    3    0    0  0.12572056140E+02  0.68021268791E+01  0.19654657226E+01  0.14428741506E+02  0.51100000000E-03 0.  1.
        -11    1    3    3    0    0 -0.15503597761E+01  0.18799787005E+02 -0.16987911990E+02  0.25385522664E+02  0.51100000000E-03 0. -1.
         12    1    3    3    0    0 -0.30122913561E+01  0.96027389008E+01 -0.36764191280E+01  0.10714595243E+02  0.00000000000E+00 0. -1.
</event>
<event>
 7    1  0.4962385E-011  0.5052885E+02  0.7816164E-02  0.1300439E+00
        -11   -1    0    0    0    0  0.00000000000E+00  0.00000000000E+00  0.45593999997E+02  0.45594000000E+02  0.51100000000E-03 0.  1.
         11   -1    0    0    0    0 -0.00000000000E+00 -0.00000000000E+00 -0.45593999997E+02  0.45594000000E+02  0.51100000000E-03 0. -1.
    9900012    2    1    2    0    0  0.18614384561E+02 -0.31898934788E+02 -0.17003800978E+02  0.50528848498E+02  0.29999965495E+02 0.  0.
        -12    1    1    2    0    0 -0.18614384561E+02  0.31898934788E+02  0.17003800978E+02  0.40659151502E+02  0.00000000000E+00 0.  1.
         11    1    3    3    0    0  0.14907171038E+01 -0.20171169824E+02 -0.18785401093E+02  0.27604159542E+02  0.51100000000E-03 0. -1.
        -11    1    3    3    0    0  0.18037789618E+02 -0.11927926622E+02  0.90717028386E+00  0.21643942478E+02  0.51100000000E-03 0.  1.
         12    1    3    3    0    0 -0.91412216056E+00  0.20016165787E+00  0.87442983087E+00  0.12807464788E+01  0.00000000000E+00 0. -1.
</event>
<event>
 7    1  0.4962385E-011  0.5052886E+02  0.7816164E-02  0.1300439E+00
        -11   -1    0    0    0    0  0.00000000000E+00  0.00000000000E+00  0.45593999997E+02  0.45594000000E+02  0.51100000000E-03 0.  1.
         11   -1    0    0    0    0 -0.00000000000E+00 -0.00000000000E+00 -0.45593999997E+02  0.45594000000E+02  0.51100000000E-03 0. -1.
    9900012    2    1    2    0    0  0.38686512124E+01 -0.21963402642E+02 -0.33997177738E+02  0.50528860659E+02  0.30000002458E+02 0.  0.
        -12    1    1    2    0    0 -0.38686512124E+01  0.21963402642E+02  0.33997177738E+02  0.40659139341E+02  0.00000000000E+00 0.  1.
         11    1    3    3    0    0 -0.81984474035E+01 -0.19904460060E+02 -0.27446396312E+02  0.34881323668E+02  0.51100000000E-03 0. -1.
        -11    1    3    3    0    0  0.69566941182E+00 -0.27165570134E+01 -0.15910498977E+01  0.32241398816E+01  0.51100000000E-03 0.  1.
         12    1    3    3    0    0  0.11371429204E+02  0.65761443148E+00 -0.49597315286E+01  0.12423397109E+02  0.00000000000E+00 0. -1.
</event>
<event>
 7    1  0.4962385E-011  0.5052885E+02  0.7816164E-02  0.1300439E+00
        -11   -1    0    0    0    0  0.00000000000E+00  0.00000000000E+00  0.45593999997E+02  0.45594000000E+02  0.51100000000E-03 0. -1.
         11   -1    0    0    0    0 -0.00000000000E+00 -0.00000000000E+00 -0.45593999997E+02  0.45594000000E+02  0.51100000000E-03 0.  1.
    9900012    2    1    2    0    0 -0.14923235504E+02 -0.35752402197E+02  0.12338115068E+02  0.50528852146E+02  0.29999976584E+02 0.  0.
        -12    1    1    2    0    0  0.14923235504E+02  0.35752402197E+02 -0.12338115068E+02  0.40659147854E+02  0.00000000000E+00 0.  1.
         11    1    3    3    0    0 -0.14355731704E+02 -0.12738563307E+02  0.10936788069E+02  0.22090073821E+02  0.51100000000E-03 0. -1.
        -11    1    3    3    0    0  0.63836910681E+01 -0.76443342545E+01  0.50708749750E+01  0.11175917462E+02  0.51100000000E-03 0.  1.
         12    1    3    3    0    0 -0.69511948679E+01 -0.15369504636E+02 -0.36695479759E+01  0.17262860863E+02  0.00000000000E+00 0. -1.
</event>
<event>
 7    1  0.4962385E-011  0.5052886E+02  0.7816164E-02  0.1300439E+00
        -11   -1    0    0    0    0  0.00000000000E+00  0.00000000000E+00  0.45593999997E+02  0.45594000000E+02  0.51100000000E-03 0.  1.
         11   -1    0    0    0    0 -0.00000000000E+00 -0.00000000000E+00 -0.45593999997E+02  0.45594000000E+02  0.51100000000E-03 0. -1.
    9900012    2    1    2    0    0  0.31188375139E+02  0.16842479146E+02 -0.19919379531E+02  0.50528861685E+02  0.30000005578E+02 0.  0.
        -12    1    1    2    0    0 -0.31188375139E+02 -0.16842479146E+02  0.19919379531E+02  0.40659138315E+02  0.00000000000E+00 0.  1.
         11    1    3    3    0    0  0.15593341664E+00 -0.35834821437E+01 -0.28246527573E+01  0.45655583410E+01  0.51100000000E-03 0. -1.
        -11    1    3    3    0    0  0.10177121046E+02  0.16692366903E+02 -0.14071284012E+01  0.19600737644E+02  0.51100000000E-03 0.  1.
        -12    1    3    3    0    0  0.20855320677E+02  0.37335943865E+01 -0.15687598372E+02  0.26362565700E+02  0.00000000000E+00 0.  1.
</event>
<event>
 7    1  0.4962385E-011  0.5052883E+02  0.7816164E-02  0.1300439E+00
        -11   -1    0    0    0    0  0.00000000000E+00  0.00000000000E+00  0.45593999997E+02  0.45594000000E+02  0.51100000000E-03 0.  1.
         11   -1    0    0    0    0 -0.00000000000E+00 -0.00000000000E+00 -0.45593999997E+02  0.45594000000E+02  0.51100000000E-03 0. -1.
    9900012    2    1    2    0    0 -0.20514166093E+02  0.12106338209E+02 -0.32951081903E+02  0.50528828416E+02  0.29999904453E+02 0.  0.
        -12    1    1    2    0    0  0.20514166093E+02 -0.12106338209E+02  0.32951081903E+02  0.40659171584E+02  0.00000000000E+00 0.  1.
         11    1    3    3    0    0 -0.11192159331E+02  0.13989266127E+02 -0.43629771964E+01  0.18439077188E+02  0.51100000000E-03 0. -1.
        -11    1    3    3    0    0 -0.91283502012E+01 -0.55806972900E+01 -0.18901250888E+02  0.21719305814E+02  0.51100000000E-03 0.  1.
        -12    1    3    3    0    0 -0.19365656082E+00  0.36977693714E+01 -0.96868538188E+01  0.10370445414E+02  0.00000000000E+00 0.  1.
</event>
<event>
 7    1  0.4962385E-011  0.5052886E+02  0.7816164E-02  0.1300439E+00
        -11   -1    0    0    0    0  0.00000000000E+00  0.00000000000E+00  0.45593999997E+02  0.45594000000E+02  0.51100000000E-03 0.  1.
         11   -1    0    0    0    0 -0.00000000000E+00 -0.00000000000E+00 -0.45593999997E+02  0.45594000000E+02  0.51100000000E-03 0. -1.
    9900012    2    1    2    0    0 -0.16709609351E+02 -0.33762790561E+02 -0.15298003343E+02  0.50528856165E+02  0.29999988799E+02 0.  0.
        -12    1    1    2    0    0  0.16709609351E+02  0.33762790561E+02  0.15298003343E+02  0.40659143835E+02  0.00000000000E+00 0.  1.
         11    1    3    3    0    0  0.32010238415E-01 -0.14937450590E+02 -0.79735156706E+01  0.16932377482E+02  0.51100000000E-03 0. -1.
        -11    1    3    3    0    0 -0.18719832456E+02 -0.92965852222E+01 -0.10459309690E+02  0.23372115510E+02  0.51100000000E-03 0.  1.
        -12    1    3    3    0    0  0.19782128665E+01 -0.95287547484E+01  0.31348220178E+01  0.10224363173E+02  0.00000000000E+00 0.  1.
</event>
<event>
 7    1  0.4962385E-011  0.5052889E+02  0.7816164E-02  0.1300439E+00
        -11   -1    0    0    0    0  0.00000000000E+00  0.00000000000E+00  0.45593999997E+02  0.45594000000E+02  0.51100000000E-03 0.  1.
         11   -1    0    0    0    0 -0.00000000000E+00 -0.00000000000E+00 -0.45593999997E+02  0.45594000000E+02  0.51100000000E-03 0. -1.
    9900012    2    1    2    0    0  0.28016657363E+02 -0.37613999727E+01 -0.29224681084E+02  0.50528890270E+02  0.30000092465E+02 0.  0.
        -12    1    1    2    0    0 -0.28016657363E+02  0.37613999727E+01  0.29224681084E+02  0.40659109730E+02  0.00000000000E+00 0.  1.
         11    1    3    3    0    0  0.15824473853E+02 -0.13180906409E+02 -0.21933034219E+02  0.30086679059E+02  0.51100000000E-03 0. -1.
        -11    1    3    3    0    0  0.12254613817E+02  0.86346127945E+01 -0.97353323720E+01  0.17874808938E+02  0.51100000000E-03 0.  1.
        -12    1    3    3    0    0 -0.62430306892E-01  0.78489364216E+00  0.24436855070E+01  0.25674022727E+01  0.00000000000E+00 0.  1.
</event>
<event>
 7    1  0.4962385E-011  0.5052887E+02  0.7816164E-02  0.1300439E+00
        -11   -1    0    0    0    0  0.00000000000E+00  0.00000000000E+00  0.45593999997E+02  0.45594000000E+02  0.51100000000E-03 0. -1.
         11   -1    0    0    0    0 -0.00000000000E+00 -0.00000000000E+00 -0.45593999997E+02  0.45594000000E+02  0.51100000000E-03 0.  1.
    9900012    2    1    2    0    0 -0.15560756141E+02 -0.37283754666E+02 -0.45770865450E+01  0.50528865541E+02  0.30000017299E+02 0.  0.
        -12    1    1    2    0    0  0.15560756141E+02  0.37283754666E+02  0.45770865450E+01  0.40659134459E+02  0.00000000000E+00 0.  1.
         11    1    3    3    0    0 -0.10945463398E+02 -0.36131153233E+02 -0.78594595419E+00  0.37760841016E+02  0.51100000000E-03 0. -1.
        -11    1    3    3    0    0 -0.33312509745E+01 -0.23459704140E+01 -0.75730918935E+01  0.85995657639E+01  0.51100000000E-03 0.  1.
         12    1    3    3    0    0 -0.12840417690E+01  0.11933689808E+01  0.37819513027E+01  0.41684587613E+01  0.00000000000E+00 0. -1.
</event>
<event>
 7    1  0.4962385E-011  0.5052886E+02  0.7816164E-02  0.1300439E+00
        -11   -1    0    0    0    0  0.00000000000E+00  0.00000000000E+00  0.45593999997E+02  0.45594000000E+02  0.51100000000E-03 0. -1.
         11   -1    0    0    0    0 -0.00000000000E+00 -0.00000000000E+00 -0.45593999997E+02  0.45594000000E+02  0.51100000000E-03 0.  1.
    9900012    2    1    2    0    0 -0.21368026245E+02  0.28027492465E+02  0.20273952608E+02  0.50528855471E+02  0.29999986689E+02 0.  0.
        -12    1    1    2    0    0  0.21368026245E+02 -0.28027492465E+02 -0.20273952608E+02  0.40659144529E+02  0.00000000000E+00 0.  1.
         11    1    3    3    0    0 -0.16972395316E+02  0.45592762743E+01  0.11090378356E+02  0.20780897363E+02  0.51100000000E-03 0. -1.
        -11    1    3    3    0    0 -0.47823512506E+01  0.18133005828E+02 -0.41705575519E+00  0.18757684282E+02  0.51100000000E-03 0.  1.
         12    1    3    3    0    0  0.38672032087E+00  0.53352103627E+01  0.96006300075E+01  0.10990273826E+02  0.00000000000E+00 0. -1.
</event>
<event>
 7    1  0.4962385E-011  0.5052886E+02  0.7816164E-02  0.1300439E+00
        -11   -1    0    0    0    0  0.00000000000E+00  0.00000000000E+00  0.45593999997E+02  0.45594000000E+02  0.51100000000E-03 0. -1.
         11   -1    0    0    0    0 -0.00000000000E+00 -0.00000000000E+00 -0.45593999997E+02  0.45594000000E+02  0.51100000000E-03 0.  1.
    9900012    2    1    2    0    0  0.23509667879E+02  0.30163357527E+01  0.33035779031E+02  0.50528862511E+02  0.30000008088E+02 0.  0.
        -12    1    1    2    0    0 -0.23509667879E+02 -0.30163357527E+01 -0.33035779031E+02  0.40659137489E+02  0.00000000000E+00 0.  1.
         11    1    3    3    0    0  0.54228170242E+01 -0.10609987501E+02  0.28504274805E+01  0.12251682184E+02  0.51100000000E-03 0. -1.
        -11    1    3    3    0    0  0.82124886567E+01  0.90442762856E+01  0.19585708198E+02  0.23083411128E+02  0.51100000000E-03 0.  1.
         12    1    3    3    0    0  0.98743621981E+01  0.45820469682E+01  0.10599643353E+02  0.15193769198E+02  0.00000000000E+00 0. -1.
</event>
<event>
 7    1  0.4962385E-011  0.5052887E+02  0.7816164E-02  0.1300439E+00
        -11   -1    0    0    0    0  0.00000000000E+00  0.00000000000E+00  0.45593999997E+02  0.45594000000E+02  0.51100000000E-03 0.  1.
         11   -1    0    0    0    0 -0.00000000000E+00 -0.00000000000E+00 -0.45593999997E+02  0.45594000000E+02  0.51100000000E-03 0. -1.
    9900012    2    1    2    0    0 -0.10592324726E+02  0.34127767304E+02 -0.19397506582E+02  0.50528866882E+02  0.30000021375E+02 0.  0.
        -12    1    1    2    0    0  0.10592324726E+02 -0.34127767304E+02  0.19397506582E+02  0.40659133118E+02  0.00000000000E+00 0.  1.
         11    1    3    3    0    0 -0.84782924876E+01  0.30681677601E+01 -0.96708886439E+01  0.13221996231E+02  0.51100000000E-03 0. -1.
        -11    1    3    3    0    0 -0.64931318860E+01  0.30550727970E+02 -0.10239065295E+02  0.32868620287E+02  0.51100000000E-03 0.  1.
        -12    1    3    3    0    0  0.43790996472E+01  0.50887157392E+00  0.51244735627E+00  0.44382503638E+01  0.00000000000E+00 0.  1.
</event>
<event>
 7    1  0.4962385E-011  0.5052886E+02  0.7816164E-02  0.1300439E+00
        -11   -1    0    0    0    0  0.00000000000E+00  0.00000000000E+00  0.45593999997E+02  0.45594000000E+02  0.51100000000E-03 0. -1.
         11   -1    0    0    0    0 -0.00000000000E+00 -0.00000000000E+00 -0.45593999997E+02  0.45594000000E+02  0.51100000000E-03 0.  1.
    9900012    2    1    2    0    0 -0.70578862273E+01 -0.37992397217E+02  0.12646330754E+02  0.50528859750E+02  0.29999999696E+02 0.  0.
        -12    1    1    2    0    0  0.70578862273E+01  0.37992397217E+02 -0.12646330754E+02  0.40659140250E+02  0.00000000000E+00 0.  1.
         11    1    3    3    0    0 -0.11022827107E+01 -0.61727930347E+01  0.24906641499E+01  0.67469851929E+01  0.51100000000E-03 0. -1.
        -11    1    3    3    0    0 -0.41616548777E+01 -0.35007633031E+02  0.25548547152E+01  0.35346584342E+02  0.51100000000E-03 0.  1.
        -12    1    3    3    0    0 -0.17939486390E+01  0.31880288480E+01  0.76008118887E+01  0.84352902157E+01  0.00000000000E+00 0.  1.
</event>
<event>
 7    1  0.4962385E-011  0.5052886E+02  0.7816164E-02  0.1300439E+00
        -11   -1    0    0    0    0  0.00000000000E+00  0.00000000000E+00  0.45593999997E+02  0.45594000000E+02  0.51100000000E-03 0.  1.
         11   -1    0    0    0    0 -0.00000000000E+00 -0.00000000000E+00 -0.45593999997E+02  0.45594000000E+02  0.51100000000E-03 0. -1.
    9900012    2    1    2    0    0  0.23347642420E+02  0.20641159442E+02 -0.26115047514E+02  0.50528861097E+02  0.30000003789E+02 0.  0.
        -12    1    1    2    0    0 -0.23347642420E+02 -0.20641159442E+02  0.26115047514E+02  0.40659138903E+02  0.00000000000E+00 0.  1.
         11    1    3    3    0    0  0.46709198131E+00  0.56219760113E+01 -0.21082260560E+02  0.21823989089E+02  0.51100000000E-03 0. -1.
        -11    1    3    3    0    0  0.16390149015E+02  0.80179110911E+01 -0.80559425727E+00  0.18263977260E+02  0.51100000000E-03 0.  1.
         12    1    3    3    0    0  0.64904014241E+01  0.70012723400E+01 -0.42271926968E+01  0.10440894747E+02  0.00000000000E+00 0. -1.
</event>
<event>
 7    1  0.4962385E-011  0.5052884E+02  0.7816164E-02  0.1300439E+00
        -11   -1    0    0    0    0  0.00000000000E+00  0.00000000000E+00  0.45593999997E+02  0.45594000000E+02  0.51100000000E-03 0. -1.
         11   -1    0    0    0    0 -0.00000000000E+00 -0.00000000000E+00 -0.45593999997E+02  0.45594000000E+02  0.51100000000E-03 0.  1.
    9900012    2    1    2    0    0 -0.33374760902E+02  0.23046190994E+02 -0.28575115537E+01  0.50528844120E+02  0.29999952186E+02 0.  0.
        -12    1    1    2    0    0  0.33374760902E+02 -0.23046190994E+02  0.28575115537E+01  0.40659155880E+02  0.00000000000E+00 0.  1.
         11    1    3    3    0    0 -0.15032258790E+02  0.23251412444E+02  0.55958621544E+01  0.28247312412E+02  0.51100000000E-03 0. -1.
        -11    1    3    3    0    0 -0.75670133465E+01  0.33507323403E+01 -0.70050441697E+01  0.10842404820E+02  0.51100000000E-03 0.  1.
         12    1    3    3    0    0 -0.10775488766E+02 -0.35559537903E+01 -0.14483295383E+01  0.11439126887E+02  0.00000000000E+00 0. -1.
</event>
<event>
 7    1  0.4962385E-011  0.5052886E+02  0.7816164E-02  0.1300439E+00
        -11   -1    0    0    0    0  0.00000000000E+00  0.00000000000E+00  0.45593999997E+02  0.45594000000E+02  0.51100000000E-03 0.  1.
         11   -1    0    0    0    0 -0.00000000000E+00 -0.00000000000E+00 -0.45593999997E+02  0.45594000000E+02  0.51100000000E-03 0. -1.
    9900012    2    1    2    0    0  0.20532642969E+01  0.14776272219E+01 -0.40580369480E+02  0.50528860024E+02  0.30000000529E+02 0.  0.
        -12    1    1    2    0    0 -0.20532642969E+01 -0.14776272219E+01  0.40580369480E+02  0.40659139976E+02  0.00000000000E+00 0.  1.
         11    1    3    3    0    0 -0.47715149582E+01  0.11046306771E+01 -0.32198879502E+02  0.32569240172E+02  0.51100000000E-03 0. -1.
        -11    1    3    3    0    0  0.31812851394E+01 -0.68906817473E+01 -0.27486249454E+01  0.80719891868E+01  0.51100000000E-03 0.  1.
         12    1    3    3    0    0  0.36434941157E+01  0.72636782920E+01 -0.56328650318E+01  0.98876306650E+01  0.00000000000E+00 0. -1.
</event>
<event>
 7    1  0.4962385E-011  0.5052884E+02  0.7816164E-02  0.1300439E+00
        -11   -1    0    0    0    0  0.00000000000E+00  0.00000000000E+00  0.45593999997E+02  0.45594000000E+02  0.51100000000E-03 0. -1.
         11   -1    0    0    0    0 -0.00000000000E+00 -0.00000000000E+00 -0.45593999997E+02  0.45594000000E+02  0.51100000000E-03 0.  1.
    9900012    2    1    2    0    0 -0.91332080625E+01 -0.34237119533E+02  0.19939203019E+02  0.50528835468E+02  0.29999925887E+02 0.  0.
        -12    1    1    2    0    0  0.91332080625E+01  0.34237119533E+02 -0.19939203019E+02  0.40659164532E+02  0.00000000000E+00 0.  1.
         11    1    3    3    0    0  0.11674237601E+01 -0.13577036449E+02  0.12583107992E+02  0.18548137479E+02  0.51100000000E-03 0. -1.
        -11    1    3    3    0    0  0.60989785709E+00 -0.17283608027E+01 -0.60660653675E+01  0.63369042729E+01  0.51100000000E-03 0.  1.
         12    1    3    3    0    0 -0.10910529680E+02 -0.18931722282E+02  0.13422160395E+02  0.25643793715E+02  0.00000000000E+00 0. -1.
</event>
<event>
 7    1  0.4962385E-011  0.5052886E+02  0.7816164E-02  0.1300439E+00
        -11   -1    0    0    0    0  0.00000000000E+00  0.00000000000E+00  0.45593999997E+02  0.45594000000E+02  0.51100000000E-03 0.  1.
         11   -1    0    0    0    0 -0.00000000000E+00 -0.00000000000E+00 -0.45593999997E+02  0.45594000000E+02  0.51100000000E-03 0. -1.
    9900012    2    1    2    0    0 -0.12267870325E+02 -0.38152198400E+02 -0.68610986390E+01  0.50528861303E+02  0.30000004416E+02 0.  0.
        -12    1    1    2    0    0  0.12267870325E+02  0.38152198400E+02  0.68610986390E+01  0.40659138697E+02  0.00000000000E+00 0.  1.
         11    1    3    3    0    0 -0.75941734114E+01 -0.95207802774E+01 -0.12268871059E+01  0.12240178885E+02  0.51100000000E-03 0. -1.
        -11    1    3    3    0    0  0.67992498229E+01 -0.89038311347E+00  0.23091435741E+01  0.72356564699E+01  0.51100000000E-03 0.  1.
        -12    1    3    3    0    0 -0.11472946736E+02 -0.27741035009E+02 -0.79433551072E+01  0.31053025948E+02  0.00000000000E+00 0.  1.
</event>
<event>
 7    1  0.4962385E-011  0.5052886E+02  0.7816164E-02  0.1300439E+00
        -11   -1    0    0    0    0  0.00000000000E+00  0.00000000000E+00  0.45593999997E+02  0.45594000000E+02  0.51100000000E-03 0.  1.
         11   -1    0    0    0    0 -0.00000000000E+00 -0.00000000000E+00 -0.45593999997E+02  0.45594000000E+02  0.51100000000E-03 0. -1.
    9900012    2    1    2    0    0  0.86231070186E+01  0.38201954379E+02 -0.10927862644E+02  0.50528862343E+02  0.30000007578E+02 0.  0.
        -12    1    1    2    0    0 -0.86231070186E+01 -0.38201954379E+02  0.10927862644E+02  0.40659137657E+02  0.00000000000E+00 0.  1.
         11    1    3    3    0    0  0.92502982395E+01  0.40221810281E+01 -0.10841527340E+02  0.14808263675E+02  0.51100000000E-03 0. -1.
        -11    1    3    3    0    0 -0.10998942224E+01  0.26206448243E+02 -0.44726555329E+01  0.26608125537E+02  0.51100000000E-03 0.  1.
        -12    1    3    3    0    0  0.47270300150E+00  0.79733251085E+01  0.43863202296E+01  0.91124731314E+01  0.00000000000E+00 0.  1.
</event>
<event>
 7    1  0.4962385E-011  0.5052889E+02  0.7816164E-02  0.1300439E+00
        -11   -1    0    0    0    0  0.00000000000E+00  0.00000000000E+00  0.45593999997E+02  0.45594000000E+02  0.51100000000E-03 0. -1.
         11   -1    0    0    0    0 -0.00000000000E+00 -0.00000000000E+00 -0.45593999997E+02  0.45594000000E+02  0.51100000000E-03 0.  1.
    9900012    2    1    2    0    0  0.22048498853E+02 -0.12924878361E+02  0.31622376546E+02  0.50528886867E+02  0.30000082121E+02 0.  0.
        -12    1    1    2    0    0 -0.22048498853E+02  0.12924878361E+02 -0.31622376546E+02  0.40659113133E+02  0.00000000000E+00 0.  1.
         11    1    3    3    0    0 -0.20653295994E+01 -0.98084868945E+01  0.79655553725E+01  0.12803205621E+02  0.51100000000E-03 0. -1.
        -11    1    3    3    0    0  0.23625852870E+02  0.22014796501E+01  0.16989615587E+02  0.29183462347E+02  0.51100000000E-03 0.  1.
        -12    1    3    3    0    0  0.48797558217E+00 -0.53178711171E+01  0.66672055868E+01  0.85422188993E+01  0.00000000000E+00 0.  1.
</event>
<event>
 7    1  0.4962385E-011  0.5052887E+02  0.7816164E-02  0.1300439E+00
        -11   -1    0    0    0    0  0.00000000000E+00  0.00000000000E+00  0.45593999997E+02  0.45594000000E+02  0.51100000000E-03 0.  1.
         11   -1    0    0    0    0 -0.00000000000E+00 -0.00000000000E+00 -0.45593999997E+02  0.45594000000E+02  0.51100000000E-03 0. -1.
    9900012    2    1    2    0    0 -0.21826503753E+02  0.64476574416E+01 -0.33692674629E+02  0.50528869706E+02  0.30000029959E+02 0.  0.
        -12    1    1    2    0    0  0.21826503753E+02 -0.64476574416E+01  0.33692674629E+02  0.40659130294E+02  0.00000000000E+00 0.  1.
         11    1    3    3    0    0 -0.31785819275E+01 -0.91193541678E+01 -0.14015912817E+02  0.17020922885E+02  0.51100000000E-03 0. -1.
        -11    1    3    3    0    0 -0.51513543541E+01  0.66597806182E+01 -0.51590187994E+00  0.84353591847E+01  0.51100000000E-03 0.  1.
         12    1    3    3    0    0 -0.13496567471E+02  0.89072309912E+01 -0.19160859933E+02  0.25072587637E+02  0.00000000000E+00 0. -1.
</event>
<event>
 7    1  0.4962385E-011  0.5052886E+02  0.7816164E-02  0.1300439E+00
        -11   -1    0    0    0    0  0.00000000000E+00  0.00000000000E+00  0.45593999997E+02  0.45594000000E+02  0.51100000000E-03 0.  1.
         11   -1    0    0    0    0 -0.00000000000E+00 -0.00000000000E+00 -0.45593999997E+02  0.45594000000E+02  0.51100000000E-03 0. -1.
    9900012    2    1    2    0    0  0.28509761063E+02  0.28048712921E+02 -0.73231679465E+01  0.50528861284E+02  0.30000004358E+02 0.  0.
        -12    1    1    2    0    0 -0.28509761063E+02 -0.28048712921E+02  0.73231679465E+01  0.40659138716E+02  0.00000000000E+00 0.  1.
         11    1    3    3    0    0  0.87800206988E+01  0.34291908650E+01 -0.68902707336E+01  0.11675784535E+02  0.51100000000E-03 0. -1.
        -11    1    3    3    0    0  0.35834284851E+00  0.18186984851E+02  0.19867074510E+01  0.18298683950E+02  0.51100000000E-03 0.  1.
        -12    1    3    3    0    0  0.19371397515E+02  0.64325372052E+01 -0.24196046638E+01  0.20554392799E+02  0.00000000000E+00 0.  1.
</event>
<event>
 7    1  0.4962385E-011  0.5052886E+02  0.7816164E-02  0.1300439E+00
        -11   -1    0    0    0    0  0.00000000000E+00  0.00000000000E+00  0.45593999997E+02  0.45594000000E+02  0.51100000000E-03 0. -1.
         11   -1    0    0    0    0 -0.00000000000E+00 -0.00000000000E+00 -0.45593999997E+02  0.45594000000E+02  0.51100000000E-03 0.  1.
    9900012    2    1    2    0    0  0.21083262405E+02  0.67440583995E+01  0.34105414227E+02  0.50528861335E+02  0.30000004514E+02 0.  0.
        -12    1    1    2    0    0 -0.21083262405E+02 -0.67440583995E+01 -0.34105414227E+02  0.40659138665E+02  0.00000000000E+00 0.  1.
         11    1    3    3    0    0  0.91932319843E+01  0.39524204449E+01  0.36437505455E+02  0.37786623900E+02  0.51100000000E-03 0. -1.
        -11    1    3    3    0    0  0.46742920671E+01  0.11819976183E+01 -0.23166896919E+01  0.53491285354E+01  0.51100000000E-03 0.  1.
         12    1    3    3    0    0  0.72157383538E+01  0.16096403363E+01 -0.15401535539E-01  0.73931089002E+01  0.00000000000E+00 0. -1.
</event>
<event>
 7    1  0.4962385E-011  0.5052886E+02  0.7816164E-02  0.1300439E+00
        -11   -1    0    0    0    0  0.00000000000E+00  0.00000000000E+00  0.45593999997E+02  0.45594000000E+02  0.51100000000E-03 0. -1.
         11   -1    0    0    0    0 -0.00000000000E+00 -0.00000000000E+00 -0.45593999997E+02  0.45594000000E+02  0.51100000000E-03 0.  1.
    9900012    2    1    2    0    0 -0.34170309778E+02  0.18149299214E+02  0.12496349296E+02  0.50528857387E+02  0.29999992513E+02 0.  0.
        -12    1    1    2    0    0  0.34170309778E+02 -0.18149299214E+02 -0.12496349296E+02  0.40659142613E+02  0.00000000000E+00 0.  1.
         11    1    3    3    0    0 -0.20093504280E+02  0.70221263821E+01  0.27397453486E+01  0.21460786985E+02  0.51100000000E-03 0. -1.
        -11    1    3    3    0    0 -0.11787081328E+01  0.70082147354E+01 -0.52653453575E+01  0.88446757224E+01  0.51100000000E-03 0.  1.
        -12    1    3    3    0    0 -0.12898097366E+02  0.41189580963E+01  0.15021949305E+02  0.20223394680E+02  0.00000000000E+00 0.  1.
</event>
<event>
 7    1  0.4962385E-011  0.5052886E+02  0.7816164E-02  0.1300439E+00
        -11   -1    0    0    0    0  0.00000000000E+00  0.00000000000E+00  0.45593999997E+02  0.45594000000E+02  0.51100000000E-03 0.  1.
         11   -1    0    0    0    0 -0.00000000000E+00 -0.00000000000E+00 -0.45593999997E+02  0.45594000000E+02  0.51100000000E-03 0. -1.
    9900012    2    1    2    0    0 -0.12395329732E+01 -0.31488878049E+02 -0.25692021306E+02  0.50528857836E+02  0.29999993877E+02 0.  0.
        -12    1    1    2    0    0  0.12395329732E+01  0.31488878049E+02  0.25692021306E+02  0.40659142164E+02  0.00000000000E+00 0.  1.
         11    1    3    3    0    0  0.23299126049E+01 -0.12450232618E+02 -0.79782604355E+01  0.14969616723E+02  0.51100000000E-03 0. -1.
        -11    1    3    3    0    0 -0.64634323403E+01 -0.10361966844E+02 -0.22225983820E+02  0.25360218286E+02  0.51100000000E-03 0.  1.
        -12    1    3    3    0    0  0.28939867622E+01 -0.86766785860E+01  0.45122229494E+01  0.10199022826E+02  0.00000000000E+00 0.  1.
</event>
<event>
 7    1  0.4962385E-011  0.5052886E+02  0.7816164E-02  0.1300439E+00
        -11   -1    0    0    0    0  0.00000000000E+00  0.00000000000E+00  0.45593999997E+02  0.45594000000E+02  0.51100000000E-03 0.  1.
         11   -1    0    0    0    0 -0.00000000000E+00 -0.00000000000E+00 -0.45593999997E+02  0.45594000000E+02  0.51100000000E-03 0. -1.
    9900012    2    1    2    0    0  0.33185435600E+02  0.14752105342E+02 -0.18282998243E+02  0.50528858681E+02  0.29999996448E+02 0.  0.
        -12    1    1    2    0    0 -0.33185435600E+02 -0.14752105342E+02  0.18282998243E+02  0.40659141319E+02  0.00000000000E+00 0.  1.
         11    1    3    3    0    0  0.12070515864E+02  0.15546864680E+02 -0.15159774974E+02  0.24843935520E+02  0.51100000000E-03 0. -1.
        -11    1    3    3    0    0  0.21576768658E+02 -0.42568455751E+01 -0.29278446703E+01  0.22186706711E+02  0.51100000000E-03 0.  1.
         12    1    3    3    0    0 -0.46184892222E+00  0.34620862369E+01 -0.19537859905E+00  0.34982164506E+01  0.00000000000E+00 0. -1.
</event>
<event>
 7    1  0.4962385E-011  0.5052888E+02  0.7816164E-02  0.1300439E+00
        -11   -1    0    0    0    0  0.00000000000E+00  0.00000000000E+00  0.45593999997E+02  0.45594000000E+02  0.51100000000E-03 0. -1.
         11   -1    0    0    0    0 -0.00000000000E+00 -0.00000000000E+00 -0.45593999997E+02  0.45594000000E+02  0.51100000000E-03 0.  1.
    9900012    2    1    2    0    0  0.57343353557E+00 -0.10373930296E+02  0.39309243341E+02  0.50528882107E+02  0.30000067651E+02 0.  0.
        -12    1    1    2    0    0 -0.57343353557E+00  0.10373930296E+02 -0.39309243341E+02  0.40659117893E+02  0.00000000000E+00 0.  1.
         11    1    3    3    0    0 -0.70737347163E+01  0.29428250022E+01  0.24076993785E+02  0.25266570243E+02  0.51100000000E-03 0. -1.
        -11    1    3    3    0    0  0.55026672776E+01 -0.45305820582E+01 -0.46831337133E+00  0.71431672687E+01  0.51100000000E-03 0.  1.
         12    1    3    3    0    0  0.21445009743E+01 -0.87861732401E+01  0.15700562927E+02  0.18119144595E+02  0.00000000000E+00 0. -1.
</event>
<event>
 7    1  0.4962385E-011  0.5052886E+02  0.7816164E-02  0.1300439E+00
        -11   -1    0    0    0    0  0.00000000000E+00  0.00000000000E+00  0.45593999997E+02  0.45594000000E+02  0.51100000000E-03 0.  1.
         11   -1    0    0    0    0 -0.00000000000E+00 -0.00000000000E+00 -0.45593999997E+02  0.45594000000E+02  0.51100000000E-03 0. -1.
    9900012    2    1    2    0    0  0.26842139520E+02 -0.27503536760E+02 -0.13274825789E+02  0.50528856034E+02  0.29999988401E+02 0.  0.
        -12    1    1    2    0    0 -0.26842139520E+02  0.27503536760E+02  0.13274825789E+02  0.40659143966E+02  0.00000000000E+00 0.  1.
         11    1    3    3    0    0  0.89318504658E+01 -0.63500875854E+00 -0.23174483123E+01  0.92494192146E+01  0.51100000000E-03 0. -1.
        -11    1    3    3    0    0  0.25415451171E+01 -0.22099634754E+02 -0.11770257896E+02  0.25167285889E+02  0.51100000000E-03 0.  1.
        -12    1    3    3    0    0  0.15368743937E+02 -0.47688932472E+01  0.81288041949E+00  0.16112150930E+02  0.00000000000E+00 0.  1.
</event>
<event>
 7    1  0.4962385E-011  0.5052887E+02  0.7816164E-02  0.1300439E+00
        -11   -1    0    0    0    0  0.00000000000E+00  0.00000000000E+00  0.45593999997E+02  0.45594000000E+02  0.51100000000E-03 0. -1.
         11   -1    0    0    0    0 -0.00000000000E+00 -0.00000000000E+00 -0.45593999997E+02  0.45594000000E+02  0.51100000000E-03 0.  1.
    9900012    2    1    2    0    0 -0.19664917755E+02  0.34520175600E+02  0.86494910065E+01  0.50528865621E+02  0.30000017541E+02 0.  0.
        -12    1    1    2    0    0  0.19664917755E+02 -0.34520175600E+02 -0.86494910065E+01  0.40659134379E+02  0.00000000000E+00 0.  1.
         11    1    3    3    0    0 -0.84342576210E+01  0.31964961407E+02  0.47265986113E+01  0.33395152253E+02  0.51100000000E-03 0. -1.
        -11    1    3    3    0    0 -0.65274211729E+01 -0.29051967298E-01  0.80499132004E+01  0.10363839732E+02  0.51100000000E-03 0.  1.
         12    1    3    3    0    0 -0.47032389611E+01  0.25842661612E+01 -0.41270208053E+01  0.67698736358E+01  0.00000000000E+00 0. -1.
</event>
<event>
 7    1  0.4962385E-011  0.5052886E+02  0.7816164E-02  0.1300439E+00
        -11   -1    0    0    0    0  0.00000000000E+00  0.00000000000E+00  0.45593999997E+02  0.45594000000E+02  0.51100000000E-03 0.  1.
         11   -1    0    0    0    0 -0.00000000000E+00 -0.00000000000E+00 -0.45593999997E+02  0.45594000000E+02  0.51100000000E-03 0. -1.
    9900012    2    1    2    0    0  0.23332809656E+02  0.32391575037E+02 -0.77156680033E+01  0.50528859913E+02  0.30000000193E+02 0.  0.
        -12    1    1    2    0    0 -0.23332809656E+02 -0.32391575037E+02  0.77156680033E+01  0.40659140087E+02  0.00000000000E+00 0.  1.
         11    1    3    3    0    0  0.17323533986E+02  0.72976117353E+00 -0.42394368018E+01  0.17849655621E+02  0.51100000000E-03 0. -1.
        -11    1    3    3    0    0  0.28754074697E+01  0.17866462043E+02 -0.39580783374E+01  0.18524168496E+02  0.51100000000E-03 0.  1.
         12    1    3    3    0    0  0.31338682003E+01  0.13795351820E+02  0.48184713584E+00  0.14155035797E+02  0.00000000000E+00 0. -1.
</event>
<event>
 7    1  0.4962385E-011  0.5052885E+02  0.7816164E-02  0.1300439E+00
        -11   -1    0    0    0    0  0.00000000000E+00  0.00000000000E+00  0.45593999997E+02  0.45594000000E+02  0.51100000000E-03 0. -1.
         11   -1    0    0    0    0 -0.00000000000E+00 -0.00000000000E+00 -0.45593999997E+02  0.45594000000E+02  0.51100000000E-03 0.  1.
    9900012    2    1    2    0    0  0.40092958462E+01 -0.24001191850E+02  0.32573525992E+02  0.50528852702E+02  0.29999978274E+02 0.  0.
        -12    1    1    2    0    0 -0.40092958462E+01  0.24001191850E+02 -0.32573525992E+02  0.40659147298E+02  0.00000000000E+00 0.  1.
         11    1    3    3    0    0  0.12272767186E+01 -0.22336900379E+02  0.23629209006E+02  0.32538943517E+02  0.51100000000E-03 0. -1.
        -11    1    3    3    0    0 -0.51387259612E+00  0.21399830669E+01 -0.37421795105E+01  0.43413707883E+01  0.51100000000E-03 0.  1.
        -12    1    3    3    0    0  0.32958917238E+01 -0.38042745380E+01  0.12686496497E+02  0.13648538397E+02  0.00000000000E+00 0.  1.
</event>
<event>
 7    1  0.4962385E-011  0.5052887E+02  0.7816164E-02  0.1300439E+00
        -11   -1    0    0    0    0  0.00000000000E+00  0.00000000000E+00  0.45593999997E+02  0.45594000000E+02  0.51100000000E-03 0. -1.
         11   -1    0    0    0    0 -0.00000000000E+00 -0.00000000000E+00 -0.45593999997E+02  0.45594000000E+02  0.51100000000E-03 0.  1.
    9900012    2    1    2    0    0  0.65605835652E+01 -0.38660330175E+02 -0.10747199783E+02  0.50528872007E+02  0.30000036953E+02 0.  0.
        -12    1    1    2    0    0 -0.65605835652E+01  0.38660330175E+02  0.10747199783E+02  0.40659127993E+02  0.00000000000E+00 0.  1.
         11    1    3    3    0    0 -0.58940445234E+01 -0.22929407348E+02 -0.39803013407E+01  0.24007088145E+02  0.51100000000E-03 0. -1.
        -11    1    3    3    0    0  0.16228071366E+02 -0.12317300721E+02 -0.41179482207E+01  0.20785179699E+02  0.51100000000E-03 0.  1.
        -12    1    3    3    0    0 -0.37734432775E+01 -0.34136221064E+01 -0.26489502211E+01  0.57366041634E+01  0.00000000000E+00 0.  1.
</event>
<event>
 7    1  0.4962385E-011  0.5052887E+02  0.7816164E-02  0.1300439E+00
        -11   -1    0    0    0    0  0.00000000000E+00  0.00000000000E+00  0.45593999997E+02  0.45594000000E+02  0.51100000000E-03 0.  1.
         11   -1    0    0    0    0 -0.00000000000E+00 -0.00000000000E+00 -0.45593999997E+02  0.45594000000E+02  0.51100000000E-03 0. -1.
    9900012    2    1    2    0    0 -0.21030500317E+02  0.34177335458E+02 -0.65415942121E+01  0.50528872397E+02  0.30000038137E+02 0.  0.
        -12    1    1    2    0    0  0.21030500317E+02 -0.34177335458E+02  0.65415942121E+01  0.40659127603E+02  0.00000000000E+00 0.  1.
         11    1    3    3    0    0 -0.57304949257E+01  0.36490884110E+01 -0.12769113804E+02  0.14463909773E+02  0.51100000000E-03 0. -1.
        -11    1    3    3    0    0 -0.19194758498E+01  0.19709809404E+01  0.34408224436E+01  0.44054980144E+01  0.51100000000E-03 0.  1.
         12    1    3    3    0    0 -0.13380529542E+02  0.28557266107E+02  0.27866971485E+01  0.31659464609E+02  0.00000000000E+00 0. -1.
</event>
<event>
 7    1  0.4962385E-011  0.5052886E+02  0.7816164E-02  0.1300439E+00
        -11   -1    0    0    0    0  0.00000000000E+00  0.00000000000E+00  0.45593999997E+02  0.45594000000E+02  0.51100000000E-03 0.  1.
         11   -1    0    0    0    0 -0.00000000000E+00 -0.00000000000E+00 -0.45593999997E+02  0.45594000000E+02  0.51100000000E-03 0. -1.
    9900012    2    1    2    0    0  0.33055573244E+02  0.14242119387E+02 -0.18911812199E+02  0.50528861694E+02  0.30000005606E+02 0.  0.
        -12    1    1    2    0    0 -0.33055573244E+02 -0.14242119387E+02  0.18911812199E+02  0.40659138306E+02  0.00000000000E+00 0.  1.
         11    1    3    3    0    0  0.31908566800E+02  0.19396097711E+01 -0.15729036989E+02  0.35627536066E+02  0.51100000000E-03 0. -1.
        -11    1    3    3    0    0  0.94291312867E-01  0.63117585676E+01  0.22940681717E+01  0.67163930874E+01  0.51100000000E-03 0.  1.
         12    1    3    3    0    0  0.10527151309E+01  0.59907510480E+01 -0.54768433817E+01  0.81849325406E+01  0.00000000000E+00 0. -1.
</event>
<event>
 7    1  0.4962385E-011  0.5052886E+02  0.7816164E-02  0.1300439E+00
        -11   -1    0    0    0    0  0.00000000000E+00  0.00000000000E+00  0.45593999997E+02  0.45594000000E+02  0.51100000000E-03 0. -1.
         11   -1    0    0    0    0 -0.00000000000E+00 -0.00000000000E+00 -0.45593999997E+02  0.45594000000E+02  0.51100000000E-03 0.  1.
    9900012    2    1    2    0    0 -0.85904231859E+00  0.35824864758E+02  0.19209539406E+02  0.50528864583E+02  0.30000014387E+02 0.  0.
        -12    1    1    2    0    0  0.85904231859E+00 -0.35824864758E+02 -0.19209539406E+02  0.40659135417E+02  0.00000000000E+00 0.  1.
         11    1    3    3    0    0  0.19291105091E+01  0.37265682186E+02  0.14102376107E+02  0.39891472124E+02  0.51100000000E-03 0. -1.
        -11    1    3    3    0    0 -0.39931907673E+01  0.24735653685E+01  0.93209990359E+00  0.47888316558E+01  0.51100000000E-03 0.  1.
         12    1    3    3    0    0  0.12050379396E+01 -0.39143827960E+01  0.41750633954E+01  0.58485608029E+01  0.00000000000E+00 0. -1.
</event>
<event>
 7    1  0.4962385E-011  0.5052883E+02  0.7816164E-02  0.1300439E+00
        -11   -1    0    0    0    0  0.00000000000E+00  0.00000000000E+00  0.45593999997E+02  0.45594000000E+02  0.51100000000E-03 0.  1.
         11   -1    0    0    0    0 -0.00000000000E+00 -0.00000000000E+00 -0.45593999997E+02  0.45594000000E+02  0.51100000000E-03 0. -1.
    9900012    2    1    2    0    0 -0.32946024105E+02 -0.19864784468E+02  0.13157416681E+02  0.50528833997E+02  0.29999921418E+02 0.  0.
        -12    1    1    2    0    0  0.32946024105E+02  0.19864784468E+02 -0.13157416681E+02  0.40659166003E+02  0.00000000000E+00 0.  1.
         11    1    3    3    0    0 -0.15929687958E+02 -0.10805821295E+01  0.80850760782E+01  0.17896677670E+02  0.51100000000E-03 0. -1.
        -11    1    3    3    0    0 -0.68179757872E+01 -0.19895778866E+02 -0.33770762551E+00  0.21034278149E+02  0.51100000000E-03 0.  1.
        -12    1    3    3    0    0 -0.10198360360E+02  0.11115765275E+01  0.54100482285E+01  0.11597878178E+02  0.00000000000E+00 0.  1.
</event>
<event>
 7    1  0.4962385E-011  0.5052886E+02  0.7816164E-02  0.1300439E+00
        -11   -1    0    0    0    0  0.00000000000E+00  0.00000000000E+00  0.45593999997E+02  0.45594000000E+02  0.51100000000E-03 0. -1.
         11   -1    0    0    0    0 -0.00000000000E+00 -0.00000000000E+00 -0.45593999997E+02  0.45594000000E+02  0.51100000000E-03 0.  1.
    9900012    2    1    2    0    0  0.11215494326E+02  0.13576040885E+02  0.36647910705E+02  0.50528861321E+02  0.30000004471E+02 0.  0.
        -12    1    1    2    0    0 -0.11215494326E+02 -0.13576040885E+02 -0.36647910705E+02  0.40659138679E+02  0.00000000000E+00 0.  1.
         11    1    3    3    0    0 -0.20419455444E+01  0.76110781339E+00  0.19341137931E+01  0.29136957865E+01  0.51100000000E-03 0. -1.
        -11    1    3    3    0    0  0.34655268940E+01 -0.75649263041E+01  0.33932911960E+01  0.89862345864E+01  0.51100000000E-03 0.  1.
        -12    1    3    3    0    0  0.97919129761E+01  0.20379859375E+02  0.31320505716E+02  0.38628930948E+02  0.00000000000E+00 0.  1.
</event>
<event>
 7    1  0.4962385E-011  0.5052887E+02  0.7816164E-02  0.1300439E+00
        -11   -1    0    0    0    0  0.00000000000E+00  0.00000000000E+00  0.45593999997E+02  0.45594000000E+02  0.51100000000E-03 0.  1.
         11   -1    0    0    0    0 -0.00000000000E+00 -0.00000000000E+00 -0.45593999997E+02  0.45594000000E+02  0.51100000000E-03 0. -1.
    9900012    2    1    2    0    0  0.12959068420E+02 -0.10786845847E+02 -0.36998259008E+02  0.50528872276E+02  0.30000037770E+02 0.  0.
        -12    1    1    2    0    0 -0.12959068420E+02  0.10786845847E+02  0.36998259008E+02  0.40659127724E+02  0.00000000000E+00 0.  1.
         11    1    3    3    0    0  0.24440668818E+01 -0.15734750558E+02 -0.29432708519E+02  0.33464013045E+02  0.51100000000E-03 0. -1.
        -11    1    3    3    0    0  0.70006614381E+01  0.29357040232E+01  0.93531616603E+00  0.76486884676E+01  0.51100000000E-03 0.  1.
        -12    1    3    3    0    0  0.35143401002E+01  0.20122006881E+01 -0.85008666557E+01  0.94161707634E+01  0.00000000000E+00 0.  1.
</event>
<event>
 7    1  0.4962385E-011  0.5052884E+02  0.7816164E-02  0.1300439E+00
        -11   -1    0    0    0    0  0.00000000000E+00  0.00000000000E+00  0.45593999997E+02  0.45594000000E+02  0.51100000000E-03 0.  1.
         11   -1    0    0    0    0 -0.00000000000E+00 -0.00000000000E+00 -0.45593999997E+02  0.45594000000E+02  0.51100000000E-03 0. -1.
    9900012    2    1    2    0    0 -0.23632169932E+02 -0.16135057829E+02 -0.28885084047E+02  0.50528835876E+02  0.29999927128E+02 0.  0.
        -12    1    1    2    0    0  0.23632169932E+02  0.16135057829E+02  0.28885084047E+02  0.40659164124E+02  0.00000000000E+00 0.  1.
         11    1    3    3    0    0 -0.13884755086E+02 -0.22647040822E+01 -0.19083443795E+02  0.23708503448E+02  0.51100000000E-03 0. -1.
        -11    1    3    3    0    0 -0.98057209054E+01 -0.14953200590E+02 -0.95454459515E+00  0.17907024488E+02  0.51100000000E-03 0.  1.
        -12    1    3    3    0    0  0.58306058902E-01  0.10828468432E+01 -0.88470956569E+01  0.89133079407E+01  0.00000000000E+00 0.  1.
</event>
<event>
 7    1  0.4962385E-011  0.5052885E+02  0.7816164E-02  0.1300439E+00
        -11   -1    0    0    0    0  0.00000000000E+00  0.00000000000E+00  0.45593999997E+02  0.45594000000E+02  0.51100000000E-03 0. -1.
         11   -1    0    0    0    0 -0.00000000000E+00 -0.00000000000E+00 -0.45593999997E+02  0.45594000000E+02  0.51100000000E-03 0.  1.
    9900012    2    1    2    0    0  0.10238140654E+02 -0.14581609858E+02  0.36547552380E+02  0.50528850291E+02  0.29999970945E+02 0.  0.
        -12    1    1    2    0    0 -0.10238140654E+02  0.14581609858E+02 -0.36547552380E+02  0.40659149709E+02  0.00000000000E+00 0.  1.
         11    1    3    3    0    0  0.70617789079E+01 -0.18457740022E+02  0.10655012939E+02  0.22451863822E+02  0.51100000000E-03 0. -1.
        -11    1    3    3    0    0  0.34312750134E+01  0.49932999898E+01  0.74665792758E+01  0.96154302738E+01  0.51100000000E-03 0.  1.
         12    1    3    3    0    0 -0.25491326757E+00 -0.11171698256E+01  0.18425960165E+02  0.18461556196E+02  0.00000000000E+00 0. -1.
</event>
<event>
 7    1  0.4962385E-011  0.5052888E+02  0.7816164E-02  0.1300439E+00
        -11   -1    0    0    0    0  0.00000000000E+00  0.00000000000E+00  0.45593999997E+02  0.45594000000E+02  0.51100000000E-03 0. -1.
         11   -1    0    0    0    0 -0.00000000000E+00 -0.00000000000E+00 -0.45593999997E+02  0.45594000000E+02  0.51100000000E-03 0.  1.
    9900012    2    1    2    0    0  0.13356501193E+02 -0.17261214804E+02  0.34304790968E+02  0.50528876252E+02  0.30000049855E+02 0.  0.
        -12    1    1    2    0    0 -0.13356501193E+02  0.17261214804E+02 -0.34304790968E+02  0.40659123748E+02  0.00000000000E+00 0.  1.
         11    1    3    3    0    0 -0.20586211101E+01 -0.57085876982E+01  0.29349202164E+02  0.29970011049E+02  0.51100000000E-03 0. -1.
        -11    1    3    3    0    0  0.63784910336E+01 -0.63585671556E+01 -0.26174316207E-01  0.90065092846E+01  0.51100000000E-03 0.  1.
         12    1    3    3    0    0  0.90366312696E+01 -0.51940599497E+01  0.49817631205E+01  0.11552355918E+02  0.00000000000E+00 0. -1.
</event>
<event>
 7    1  0.4962385E-011  0.5052885E+02  0.7816164E-02  0.1300439E+00
        -11   -1    0    0    0    0  0.00000000000E+00  0.00000000000E+00  0.45593999997E+02  0.45594000000E+02  0.51100000000E-03 0.  1.
         11   -1    0    0    0    0 -0.00000000000E+00 -0.00000000000E+00 -0.45593999997E+02  0.45594000000E+02  0.51100000000E-03 0. -1.
    9900012    2    1    2    0    0  0.11803705037E+02 -0.32036194545E+02 -0.22079883044E+02  0.50528850369E+02  0.29999971180E+02 0.  0.
        -12    1    1    2    0    0 -0.11803705037E+02  0.32036194545E+02  0.22079883044E+02  0.40659149631E+02  0.00000000000E+00 0.  1.
         11    1    3    3    0    0  0.10847421910E+02 -0.18644240320E+02 -0.12045756465E+02  0.24705758606E+02  0.51100000000E-03 0. -1.
        -11    1    3    3    0    0 -0.61490507500E+01 -0.10004134844E+02  0.15216578395E+01  0.11840987372E+02  0.51100000000E-03 0.  1.
        -12    1    3    3    0    0  0.71053338770E+01 -0.33878193802E+01 -0.11555784418E+02  0.13982104390E+02  0.00000000000E+00 0.  1.
</event>
<event>
 7    1  0.4962385E-011  0.5052886E+02  0.7816164E-02  0.1300439E+00
        -11   -1    0    0    0    0  0.00000000000E+00  0.00000000000E+00  0.45593999997E+02  0.45594000000E+02  0.51100000000E-03 0.  1.
         11   -1    0    0    0    0 -0.00000000000E+00 -0.00000000000E+00 -0.45593999997E+02  0.45594000000E+02  0.51100000000E-03 0. -1.
    9900012    2    1    2    0    0 -0.26443853280E+02  0.30481119427E+02 -0.49789017616E+01  0.50528862274E+02  0.30000007369E+02 0.  0.
        -12    1    1    2    0    0  0.26443853280E+02 -0.30481119427E+02  0.49789017616E+01  0.40659137726E+02  0.00000000000E+00 0.  1.
         11    1    3    3    0    0 -0.26741157894E+02  0.17081229838E+02 -0.91506584193E+01  0.33024119792E+02  0.51100000000E-03 0. -1.
        -11    1    3    3    0    0 -0.45559041680E+01  0.52417363571E+01  0.39919130249E+01  0.80104577076E+01  0.51100000000E-03 0.  1.
         12    1    3    3    0    0  0.48532087819E+01  0.81581532328E+01  0.17984363278E+00  0.94942847747E+01  0.00000000000E+00 0. -1.
</event>
<event>
 7    1  0.4962385E-011  0.5052885E+02  0.7816164E-02  0.1300439E+00
        -11   -1    0    0    0    0  0.00000000000E+00  0.00000000000E+00  0.45593999997E+02  0.45594000000E+02  0.51100000000E-03 0.  1.
         11   -1    0    0    0    0 -0.00000000000E+00 -0.00000000000E+00 -0.45593999997E+02  0.45594000000E+02  0.51100000000E-03 0. -1.
    9900012    2    1    2    0    0  0.25217321401E+02  0.12606157915E+02 -0.29297406815E+02  0.50528848974E+02  0.29999966943E+02 0.  0.
        -12    1    1    2    0    0 -0.25217321401E+02 -0.12606157915E+02  0.29297406815E+02  0.40659151026E+02  0.00000000000E+00 0.  1.
         11    1    3    3    0    0  0.18428155649E+02  0.76509658798E+00 -0.17534384273E+02  0.25448711667E+02  0.51100000000E-03 0. -1.
        -11    1    3    3    0    0 -0.24605240025E+01  0.89195700271E+01  0.70921589166E+00  0.92798650463E+01  0.51100000000E-03 0.  1.
        -12    1    3    3    0    0  0.92496897546E+01  0.29214912997E+01 -0.12472238434E+02  0.15800272261E+02  0.00000000000E+00 0.  1.
</event>
<event>
 7    1  0.4962385E-011  0.5052885E+02  0.7816164E-02  0.1300439E+00
        -11   -1    0    0    0    0  0.00000000000E+00  0.00000000000E+00  0.45593999997E+02  0.45594000000E+02  0.51100000000E-03 0. -1.
         11   -1    0    0    0    0 -0.00000000000E+00 -0.00000000000E+00 -0.45593999997E+02  0.45594000000E+02  0.51100000000E-03 0.  1.
    9900012    2    1    2    0    0 -0.16232724445E+02 -0.14266748893E+01  0.37250897241E+02  0.50528854788E+02  0.29999984613E+02 0.  0.
        -12    1    1    2    0    0  0.16232724445E+02  0.14266748893E+01 -0.37250897241E+02  0.40659145212E+02  0.00000000000E+00 0.  1.
         11    1    3    3    0    0  0.11351487433E+01 -0.41133409690E+01  0.55204308190E+00  0.43026606213E+01  0.51100000000E-03 0.  1.
        -11    1    3    3    0    0 -0.87901982580E+01  0.12193137423E+02  0.22988743155E+02  0.27466752588E+02  0.51100000000E-03 0. -1.
        -12    1    3    3    0    0 -0.85776749299E+01 -0.95064713430E+01  0.13710111004E+02  0.18759441578E+02  0.00000000000E+00 0.  1.
</event>
<event>
 7    1  0.4962385E-011  0.5052884E+02  0.7816164E-02  0.1300439E+00
        -11   -1    0    0    0    0  0.00000000000E+00  0.00000000000E+00  0.45593999997E+02  0.45594000000E+02  0.51100000000E-03 0. -1.
         11   -1    0    0    0    0 -0.00000000000E+00 -0.00000000000E+00 -0.45593999997E+02  0.45594000000E+02  0.51100000000E-03 0.  1.
    9900012    2    1    2    0    0  0.20730659124E+02  0.34772728220E+02 -0.37768455735E+01  0.50528838448E+02  0.29999934948E+02 0.  0.
        -12    1    1    2    0    0 -0.20730659124E+02 -0.34772728220E+02  0.37768455735E+01  0.40659161552E+02  0.00000000000E+00 0.  1.
         11    1    3    3    0    0  0.89364698361E+01  0.93297146904E+01  0.57275542797E+01  0.14131841622E+02  0.51100000000E-03 0. -1.
        -11    1    3    3    0    0  0.60929431355E+01  0.27514887697E+02 -0.45111879193E+01  0.28540214045E+02  0.51100000000E-03 0.  1.
        -12    1    3    3    0    0  0.57012461522E+01 -0.20718741674E+01 -0.49932119339E+01  0.78567827812E+01  0.00000000000E+00 0.  1.
</event>
<event>
 7    1  0.4962385E-011  0.5052886E+02  0.7816164E-02  0.1300439E+00
        -11   -1    0    0    0    0  0.00000000000E+00  0.00000000000E+00  0.45593999997E+02  0.45594000000E+02  0.51100000000E-03 0.  1.
         11   -1    0    0    0    0 -0.00000000000E+00 -0.00000000000E+00 -0.45593999997E+02  0.45594000000E+02  0.51100000000E-03 0. -1.
    9900012    2    1    2    0    0 -0.28916707532E+00 -0.96688723372E+01 -0.39491708463E+02  0.50528858996E+02  0.29999997405E+02 0.  0.
        -12    1    1    2    0    0  0.28916707532E+00  0.96688723372E+01  0.39491708463E+02  0.40659141004E+02  0.00000000000E+00 0.  1.
         11    1    3    3    0    0  0.19616256367E+01 -0.84855289326E+01 -0.31195091175E+02  0.32388051657E+02  0.51100000000E-03 0. -1.
        -11    1    3    3    0    0  0.42391145261E+01  0.10943802757E+01  0.27193907979E+01  0.51539156693E+01  0.51100000000E-03 0.  1.
         12    1    3    3    0    0 -0.64899072382E+01 -0.22777236803E+01 -0.11016008085E+02  0.12986891670E+02  0.00000000000E+00 0. -1.
</event>
<event>
 7    1  0.4962385E-011  0.5052887E+02  0.7816164E-02  0.1300439E+00
        -11   -1    0    0    0    0  0.00000000000E+00  0.00000000000E+00  0.45593999997E+02  0.45594000000E+02  0.51100000000E-03 0.  1.
         11   -1    0    0    0    0 -0.00000000000E+00 -0.00000000000E+00 -0.45593999997E+02  0.45594000000E+02  0.51100000000E-03 0. -1.
    9900012    2    1    2    0    0  0.34683567474E+02 -0.19556636367E+02  0.82312176147E+01  0.50528870372E+02  0.30000031982E+02 0.  0.
        -12    1    1    2    0    0 -0.34683567474E+02  0.19556636367E+02 -0.82312176147E+01  0.40659129628E+02  0.00000000000E+00 0.  1.
         11    1    3    3    0    0  0.89255791349E+01  0.35851225688E+01 -0.19392527392E+00  0.96206379206E+01  0.51100000000E-03 0. -1.
        -11    1    3    3    0    0  0.43344953959E+01 -0.16087391801E+02  0.76667938466E+01  0.18340440383E+02  0.51100000000E-03 0.  1.
         12    1    3    3    0    0  0.21423492943E+02 -0.70543671351E+01  0.75834904208E+00  0.22567792068E+02  0.00000000000E+00 0. -1.
</event>
<event>
 7    1  0.4962385E-011  0.5052885E+02  0.7816164E-02  0.1300439E+00
        -11   -1    0    0    0    0  0.00000000000E+00  0.00000000000E+00  0.45593999997E+02  0.45594000000E+02  0.51100000000E-03 0.  1.
         11   -1    0    0    0    0 -0.00000000000E+00 -0.00000000000E+00 -0.45593999997E+02  0.45594000000E+02  0.51100000000E-03 0. -1.
    9900012    2    1    2    0    0 -0.21260296335E+02  0.85181087338E+01 -0.33594759383E+02  0.50528853002E+02  0.29999979183E+02 0.  0.
        -12    1    1    2    0    0  0.21260296335E+02 -0.85181087338E+01  0.33594759383E+02  0.40659146998E+02  0.00000000000E+00 0.  1.
         11    1    3    3    0    0 -0.16792088083E+01  0.65566731289E+01 -0.81269086726E+01  0.10576216222E+02  0.51100000000E-03 0. -1.
        -11    1    3    3    0    0 -0.23214419529E+02 -0.37044309659E+01 -0.22686960398E+02  0.32670020741E+02  0.51100000000E-03 0.  1.
        -12    1    3    3    0    0  0.36333320022E+01  0.56658665708E+01 -0.27808903124E+01  0.72826160386E+01  0.00000000000E+00 0.  1.
</event>
<event>
 7    1  0.4962385E-011  0.5052886E+02  0.7816164E-02  0.1300439E+00
        -11   -1    0    0    0    0  0.00000000000E+00  0.00000000000E+00  0.45593999997E+02  0.45594000000E+02  0.51100000000E-03 0.  1.
         11   -1    0    0    0    0 -0.00000000000E+00 -0.00000000000E+00 -0.45593999997E+02  0.45594000000E+02  0.51100000000E-03 0. -1.
    9900012    2    1    2    0    0  0.31084082324E+02  0.25968204219E+01 -0.26080685471E+02  0.50528858286E+02  0.29999995247E+02 0.  0.
        -12    1    1    2    0    0 -0.31084082324E+02 -0.25968204219E+01  0.26080685471E+02  0.40659141714E+02  0.00000000000E+00 0.  1.
         11    1    3    3    0    0  0.96085301217E+01 -0.19549075828E+01 -0.13879941695E+02  0.16994066508E+02  0.51100000000E-03 0. -1.
        -11    1    3    3    0    0  0.16065425556E+02  0.32875220319E+00  0.34592180492E+01  0.16436914737E+02  0.51100000000E-03 0.  1.
        -12    1    3    3    0    0  0.54101266467E+01  0.42229758015E+01 -0.15659961825E+02  0.17097877041E+02  0.00000000000E+00 0.  1.
</event>
<event>
 7    1  0.4962385E-011  0.5052886E+02  0.7816164E-02  0.1300439E+00
        -11   -1    0    0    0    0  0.00000000000E+00  0.00000000000E+00  0.45593999997E+02  0.45594000000E+02  0.51100000000E-03 0.  1.
         11   -1    0    0    0    0 -0.00000000000E+00 -0.00000000000E+00 -0.45593999997E+02  0.45594000000E+02  0.51100000000E-03 0. -1.
    9900012    2    1    2    0    0  0.98389057117E+01  0.79295931966E+01 -0.38645607967E+02  0.50528861679E+02  0.30000005561E+02 0.  0.
        -12    1    1    2    0    0 -0.98389057117E+01 -0.79295931966E+01  0.38645607967E+02  0.40659138321E+02  0.00000000000E+00 0.  1.
         11    1    3    3    0    0 -0.17981652572E+01 -0.47590433972E+01  0.15238168153E+01  0.53107353819E+01  0.51100000000E-03 0. -1.
        -11    1    3    3    0    0  0.59467876420E+01  0.12925251203E+02 -0.22201116572E+02  0.26368844860E+02  0.51100000000E-03 0.  1.
        -12    1    3    3    0    0  0.56902833270E+01 -0.23661460894E+00 -0.17968308209E+02  0.18849281438E+02  0.00000000000E+00 0.  1.
</event>
<event>
 7    1  0.4962385E-011  0.5052886E+02  0.7816164E-02  0.1300439E+00
        -11   -1    0    0    0    0  0.00000000000E+00  0.00000000000E+00  0.45593999997E+02  0.45594000000E+02  0.51100000000E-03 0.  1.
         11   -1    0    0    0    0 -0.00000000000E+00 -0.00000000000E+00 -0.45593999997E+02  0.45594000000E+02  0.51100000000E-03 0. -1.
    9900012    2    1    2    0    0  0.30540061015E+02 -0.26317843769E+02  0.52765059594E+01  0.50528859052E+02  0.29999997576E+02 0.  0.
        -12    1    1    2    0    0 -0.30540061015E+02  0.26317843769E+02 -0.52765059594E+01  0.40659140948E+02  0.00000000000E+00 0.  1.
         11    1    3    3    0    0  0.13070422557E+02  0.14101429019E+01  0.84658861676E+01  0.15636357558E+02  0.51100000000E-03 0. -1.
        -11    1    3    3    0    0  0.40840405564E+01 -0.14647470913E+02  0.23215887294E+01  0.15382378422E+02  0.51100000000E-03 0.  1.
         12    1    3    3    0    0  0.13385597902E+02 -0.13080515758E+02 -0.55109689375E+01  0.19510123073E+02  0.00000000000E+00 0. -1.
</event>
<event>
 7    1  0.4962385E-011  0.5052886E+02  0.7816164E-02  0.1300439E+00
        -11   -1    0    0    0    0  0.00000000000E+00  0.00000000000E+00  0.45593999997E+02  0.45594000000E+02  0.51100000000E-03 0.  1.
         11   -1    0    0    0    0 -0.00000000000E+00 -0.00000000000E+00 -0.45593999997E+02  0.45594000000E+02  0.51100000000E-03 0. -1.
    9900012    2    1    2    0    0 -0.88038155673E+00  0.35750132846E+02 -0.19347309680E+02  0.50528862503E+02  0.30000008063E+02 0.  0.
        -12    1    1    2    0    0  0.88038155673E+00 -0.35750132846E+02  0.19347309680E+02  0.40659137497E+02  0.00000000000E+00 0.  1.
         11    1    3    3    0    0  0.22872829070E+01  0.20835178745E+02 -0.17347122557E+02  0.27207701073E+02  0.51100000000E-03 0. -1.
        -11    1    3    3    0    0 -0.92886216959E+01  0.28729461481E+01 -0.62146792168E+00  0.97426143933E+01  0.51100000000E-03 0.  1.
         12    1    3    3    0    0  0.61209572321E+01  0.12042007953E+02 -0.13787192015E+01  0.13578547036E+02  0.00000000000E+00 0. -1.
</event>
<event>
 7    1  0.4962385E-011  0.5052885E+02  0.7816164E-02  0.1300439E+00
        -11   -1    0    0    0    0  0.00000000000E+00  0.00000000000E+00  0.45593999997E+02  0.45594000000E+02  0.51100000000E-03 0.  1.
         11   -1    0    0    0    0 -0.00000000000E+00 -0.00000000000E+00 -0.45593999997E+02  0.45594000000E+02  0.51100000000E-03 0. -1.
    9900012    2    1    2    0    0  0.44182471350E+01  0.21252835749E+02 -0.34379682296E+02  0.50528849862E+02  0.29999969642E+02 0.  0.
        -12    1    1    2    0    0 -0.44182471350E+01 -0.21252835749E+02  0.34379682296E+02  0.40659150138E+02  0.00000000000E+00 0.  1.
         11    1    3    3    0    0  0.11616553420E+01  0.52633987068E+01  0.72093582303E+00  0.54380656306E+01  0.51100000000E-03 0. -1.
        -11    1    3    3    0    0 -0.67788454377E+01  0.11579512553E+01 -0.21588325656E+02  0.22657215219E+02  0.51100000000E-03 0.  1.
        -12    1    3    3    0    0  0.10035437231E+02  0.14831485787E+02 -0.13512292464E+02  0.22433569013E+02  0.00000000000E+00 0.  1.
</event>
<event>
 7    1  0.4962385E-011  0.5052888E+02  0.7816164E-02  0.1300439E+00
        -11   -1    0    0    0    0  0.00000000000E+00  0.00000000000E+00  0.45593999997E+02  0.45594000000E+02  0.51100000000E-03 0.  1.
         11   -1    0    0    0    0 -0.00000000000E+00 -0.00000000000E+00 -0.45593999997E+02  0.45594000000E+02  0.51100000000E-03 0. -1.
    9900012    2    1    2    0    0  0.24841451053E+02 -0.30508137102E+02 -0.10262539971E+02  0.50528882369E+02  0.30000068449E+02 0.  0.
        -12    1    1    2    0    0 -0.24841451053E+02  0.30508137102E+02  0.10262539971E+02  0.40659117631E+02  0.00000000000E+00 0.  1.
         11    1    3    3    0    0 -0.15953549309E+00 -0.53073342421E+01 -0.48860330412E+01  0.72157166984E+01  0.51100000000E-03 0. -1.
        -11    1    3    3    0    0  0.12824194259E+02 -0.15398438441E+02  0.90989556207E+01  0.22008245238E+02  0.51100000000E-03 0.  1.
        -12    1    3    3    0    0  0.12176792287E+02 -0.98023644194E+01 -0.14475462550E+02  0.21304920433E+02  0.00000000000E+00 0.  1.
</event>
<event>
 7    1  0.4962385E-011  0.5052886E+02  0.7816164E-02  0.1300439E+00
        -11   -1    0    0    0    0  0.00000000000E+00  0.00000000000E+00  0.45593999997E+02  0.45594000000E+02  0.51100000000E-03 0.  1.
         11   -1    0    0    0    0 -0.00000000000E+00 -0.00000000000E+00 -0.45593999997E+02  0.45594000000E+02  0.51100000000E-03 0. -1.
    9900012    2    1    2    0    0  0.25758050136E+02  0.22731933224E+02 -0.21747365391E+02  0.50528857900E+02  0.29999994072E+02 0.  0.
        -12    1    1    2    0    0 -0.25758050136E+02 -0.22731933224E+02  0.21747365391E+02  0.40659142100E+02  0.00000000000E+00 0.  1.
         11    1    3    3    0    0  0.88969410981E+01  0.31030095695E+01 -0.10323776777E+02  0.13977288596E+02  0.51100000000E-03 0. -1.
        -11    1    3    3    0    0  0.18195083090E+02  0.12571733948E+02  0.10689175501E+01  0.22141637882E+02  0.51100000000E-03 0.  1.
        -12    1    3    3    0    0 -0.13339740523E+01  0.70571897056E+01 -0.12492506164E+02  0.14409931422E+02  0.00000000000E+00 0.  1.
</event>
<event>
 7    1  0.4962385E-011  0.5052886E+02  0.7816164E-02  0.1300439E+00
        -11   -1    0    0    0    0  0.00000000000E+00  0.00000000000E+00  0.45593999997E+02  0.45594000000E+02  0.51100000000E-03 0.  1.
         11   -1    0    0    0    0 -0.00000000000E+00 -0.00000000000E+00 -0.45593999997E+02  0.45594000000E+02  0.51100000000E-03 0. -1.
    9900012    2    1    2    0    0 -0.15613043391E+02  0.84382281666E+01 -0.36581347377E+02  0.50528858415E+02  0.29999995638E+02 0.  0.
        -12    1    1    2    0    0  0.15613043391E+02 -0.84382281666E+01  0.36581347377E+02  0.40659141585E+02  0.00000000000E+00 0.  1.
         11    1    3    3    0    0 -0.16748823874E+02  0.21322416667E+01 -0.80169336465E+01  0.18690660263E+02  0.51100000000E-03 0. -1.
        -11    1    3    3    0    0  0.18498716389E+01 -0.36337060346E+01 -0.90695569335E+01  0.99439784723E+01  0.51100000000E-03 0.  1.
         12    1    3    3    0    0 -0.71409115539E+00  0.99396925344E+01 -0.19494856797E+02  0.21894219680E+02  0.00000000000E+00 0. -1.
</event>
<event>
 7    1  0.4962385E-011  0.5052886E+02  0.7816164E-02  0.1300439E+00
        -11   -1    0    0    0    0  0.00000000000E+00  0.00000000000E+00  0.45593999997E+02  0.45594000000E+02  0.51100000000E-03 0. -1.
         11   -1    0    0    0    0 -0.00000000000E+00 -0.00000000000E+00 -0.45593999997E+02  0.45594000000E+02  0.51100000000E-03 0.  1.
    9900012    2    1    2    0    0  0.32024418511E+02  0.16502279195E+02  0.18848802981E+02  0.50528856214E+02  0.29999988948E+02 0.  0.
        -12    1    1    2    0    0 -0.32024418511E+02 -0.16502279195E+02 -0.18848802981E+02  0.40659143786E+02  0.00000000000E+00 0.  1.
         11    1    3    3    0    0  0.27267482607E+02  0.19889008453E+02  0.96282037738E+01  0.35096874122E+02  0.51100000000E-03 0. -1.
        -11    1    3    3    0    0  0.69113578044E+01 -0.50831296542E+01  0.93463367642E+01  0.12686965159E+02  0.51100000000E-03 0.  1.
         12    1    3    3    0    0 -0.21544219001E+01  0.16964003962E+01 -0.12573755687E+00  0.27450169327E+01  0.00000000000E+00 0. -1.
</event>
<event>
 7    1  0.4962385E-011  0.5052887E+02  0.7816164E-02  0.1300439E+00
        -11   -1    0    0    0    0  0.00000000000E+00  0.00000000000E+00  0.45593999997E+02  0.45594000000E+02  0.51100000000E-03 0. -1.
         11   -1    0    0    0    0 -0.00000000000E+00 -0.00000000000E+00 -0.45593999997E+02  0.45594000000E+02  0.51100000000E-03 0.  1.
    9900012    2    1    2    0    0 -0.10431210582E+02  0.37753220309E+02  0.10910975287E+02  0.50528865976E+02  0.30000018619E+02 0.  0.
        -12    1    1    2    0    0  0.10431210582E+02 -0.37753220309E+02 -0.10910975287E+02  0.40659134024E+02  0.00000000000E+00 0.  1.
         11    1    3    3    0    0 -0.44639379880E+01  0.15910851990E+02  0.26247597793E+01  0.16732343457E+02  0.51100000000E-03 0. -1.
        -11    1    3    3    0    0 -0.36060312955E+01 -0.47748959419E+01  0.73672180428E+00  0.60287521294E+01  0.51100000000E-03 0.  1.
        -12    1    3    3    0    0 -0.23612412991E+01  0.26617264261E+02  0.75494937038E+01  0.27767770389E+02  0.00000000000E+00 0.  1.
</event>
<event>
 7    1  0.4962385E-011  0.5052885E+02  0.7816164E-02  0.1300439E+00
        -11   -1    0    0    0    0  0.00000000000E+00  0.00000000000E+00  0.45593999997E+02  0.45594000000E+02  0.51100000000E-03 0.  1.
         11   -1    0    0    0    0 -0.00000000000E+00 -0.00000000000E+00 -0.45593999997E+02  0.45594000000E+02  0.51100000000E-03 0. -1.
    9900012    2    1    2    0    0 -0.17332007761E+02 -0.52746129665E+01 -0.36399809248E+02  0.50528854064E+02  0.29999982413E+02 0.  0.
        -12    1    1    2    0    0  0.17332007761E+02  0.52746129665E+01  0.36399809248E+02  0.40659145936E+02  0.00000000000E+00 0.  1.
         11    1    3    3    0    0 -0.65621790735E+01 -0.31587521720E+01 -0.97264891772E+01  0.12150905376E+02  0.51100000000E-03 0. -1.
        -11    1    3    3    0    0  0.41734768928E+01  0.27876377932E+01 -0.21105772981E+02  0.21694296191E+02  0.51100000000E-03 0.  1.
        -12    1    3    3    0    0 -0.14943305580E+02 -0.49034985877E+01 -0.55675470899E+01  0.16683652497E+02  0.00000000000E+00 0.  1.
</event>
<event>
 7    1  0.4962385E-011  0.5052885E+02  0.7816164E-02  0.1300439E+00
        -11   -1    0    0    0    0  0.00000000000E+00  0.00000000000E+00  0.45593999997E+02  0.45594000000E+02  0.51100000000E-03 0.  1.
         11   -1    0    0    0    0 -0.00000000000E+00 -0.00000000000E+00 -0.45593999997E+02  0.45594000000E+02  0.51100000000E-03 0. -1.
    9900012    2    1    2    0    0  0.19606855488E+02  0.57234696854E+01 -0.35156498242E+02  0.50528852739E+02  0.29999978385E+02 0.  0.
        -12    1    1    2    0    0 -0.19606855488E+02 -0.57234696854E+01  0.35156498242E+02  0.40659147261E+02  0.00000000000E+00 0.  1.
         11    1    3    3    0    0  0.52198252881E+01  0.99656911928E+01 -0.26402296334E+02  0.28699178193E+02  0.51100000000E-03 0. -1.
        -11    1    3    3    0    0  0.72092913090E+00 -0.45788025890E+01 -0.64867651637E+01  0.79726591869E+01  0.51100000000E-03 0.  1.
         12    1    3    3    0    0  0.13666101069E+02  0.33658108151E+00 -0.22674367441E+01  0.13857015359E+02  0.00000000000E+00 0. -1.
</event>
<event>
 7    1  0.4962385E-011  0.5052885E+02  0.7816164E-02  0.1300439E+00
        -11   -1    0    0    0    0  0.00000000000E+00  0.00000000000E+00  0.45593999997E+02  0.45594000000E+02  0.51100000000E-03 0.  1.
         11   -1    0    0    0    0 -0.00000000000E+00 -0.00000000000E+00 -0.45593999997E+02  0.45594000000E+02  0.51100000000E-03 0. -1.
    9900012    2    1    2    0    0  0.25353489369E+01  0.36161380295E+02 -0.18414470948E+02  0.50528853928E+02  0.29999981998E+02 0.  0.
        -12    1    1    2    0    0 -0.25353489369E+01 -0.36161380295E+02  0.18414470948E+02  0.40659146072E+02  0.00000000000E+00 0.  1.
         11    1    3    3    0    0  0.25631032329E+01  0.47004268842E+01 -0.13959579039E+00  0.53556510643E+01  0.51100000000E-03 0. -1.
        -11    1    3    3    0    0 -0.34522458909E+01  0.46189252131E+01  0.63561201556E+01  0.85821171927E+01  0.51100000000E-03 0.  1.
        -12    1    3    3    0    0  0.34244915949E+01  0.26842028197E+02 -0.24630995313E+02  0.36591085671E+02  0.00000000000E+00 0.  1.
</event>
<event>
 7    1  0.4962385E-011  0.5052886E+02  0.7816164E-02  0.1300439E+00
        -11   -1    0    0    0    0  0.00000000000E+00  0.00000000000E+00  0.45593999997E+02  0.45594000000E+02  0.51100000000E-03 0.  1.
         11   -1    0    0    0    0 -0.00000000000E+00 -0.00000000000E+00 -0.45593999997E+02  0.45594000000E+02  0.51100000000E-03 0. -1.
    9900012    2    1    2    0    0  0.73581415952E+01  0.36506846715E+02 -0.16317883275E+02  0.50528863027E+02  0.30000009657E+02 0.  0.
        -12    1    1    2    0    0 -0.73581415952E+01 -0.36506846715E+02  0.16317883275E+02  0.40659136973E+02  0.00000000000E+00 0.  1.
         11    1    3    3    0    0  0.15610321802E+02  0.17450061358E+02 -0.13581970837E+02  0.27067632335E+02  0.51100000000E-03 0. -1.
        -11    1    3    3    0    0 -0.86921911579E+01  0.20087468048E+02 -0.34129076679E+01  0.22151941195E+02  0.51100000000E-03 0.  1.
        -12    1    3    3    0    0  0.44001095087E+00 -0.10306826911E+01  0.67699522899E+00  0.13092894969E+01  0.00000000000E+00 0.  1.
</event>
<event>
 7    1  0.4962385E-011  0.5052886E+02  0.7816164E-02  0.1300439E+00
        -11   -1    0    0    0    0  0.00000000000E+00  0.00000000000E+00  0.45593999997E+02  0.45594000000E+02  0.51100000000E-03 0. -1.
         11   -1    0    0    0    0 -0.00000000000E+00 -0.00000000000E+00 -0.45593999997E+02  0.45594000000E+02  0.51100000000E-03 0.  1.
    9900012    2    1    2    0    0 -0.60540147831E+00 -0.21843591452E+02  0.34287853959E+02  0.50528856778E+02  0.29999990663E+02 0.  0.
        -12    1    1    2    0    0  0.60540147831E+00  0.21843591452E+02 -0.34287853959E+02  0.40659143222E+02  0.00000000000E+00 0.  1.
         11    1    3    3    0    0 -0.11385493653E+02 -0.15751338760E+02  0.29329065675E+02  0.35184204298E+02  0.51100000000E-03 0. -1.
        -11    1    3    3    0    0  0.10698407489E+02 -0.65602578324E+01  0.24440014142E+01  0.12785384186E+02  0.51100000000E-03 0.  1.
         12    1    3    3    0    0  0.81684686304E-01  0.46800514078E+00  0.25147868697E+01  0.25592682938E+01  0.00000000000E+00 0. -1.
</event>
<event>
 7    1  0.4962385E-011  0.5052885E+02  0.7816164E-02  0.1300439E+00
        -11   -1    0    0    0    0  0.00000000000E+00  0.00000000000E+00  0.45593999997E+02  0.45594000000E+02  0.51100000000E-03 0.  1.
         11   -1    0    0    0    0 -0.00000000000E+00 -0.00000000000E+00 -0.45593999997E+02  0.45594000000E+02  0.51100000000E-03 0. -1.
    9900012    2    1    2    0    0 -0.54839619868E+01 -0.18567863694E+02 -0.35753698028E+02  0.50528851904E+02  0.29999975846E+02 0.  0.
        -12    1    1    2    0    0  0.54839619868E+01  0.18567863694E+02  0.35753698028E+02  0.40659148096E+02  0.00000000000E+00 0.  1.
         11    1    3    3    0    0 -0.59321658865E+01  0.72273039501E+01 -0.10805137885E+02  0.14288999946E+02  0.51100000000E-03 0.  1.
        -11    1    3    3    0    0  0.16740193757E+01 -0.23656362752E+02 -0.23467949655E+02  0.33364209879E+02  0.51100000000E-03 0. -1.
        -12    1    3    3    0    0 -0.12258154760E+01 -0.21388048921E+01 -0.14806104879E+01  0.28756420786E+01  0.00000000000E+00 0.  1.
</event>
<event>
 7    1  0.4962385E-011  0.5052887E+02  0.7816164E-02  0.1300439E+00
        -11   -1    0    0    0    0  0.00000000000E+00  0.00000000000E+00  0.45593999997E+02  0.45594000000E+02  0.51100000000E-03 0.  1.
         11   -1    0    0    0    0 -0.00000000000E+00 -0.00000000000E+00 -0.45593999997E+02  0.45594000000E+02  0.51100000000E-03 0. -1.
    9900012    2    1    2    0    0  0.11993809807E+02  0.38593151503E+02 -0.44589721499E+01  0.50528865120E+02  0.30000016018E+02 0.  0.
        -12    1    1    2    0    0 -0.11993809807E+02 -0.38593151503E+02  0.44589721499E+01  0.40659134880E+02  0.00000000000E+00 0.  1.
         11    1    3    3    0    0  0.98622192338E+01  0.23196138883E+02 -0.32458769147E+01  0.25413774700E+02  0.51100000000E-03 0. -1.
        -11    1    3    3    0    0 -0.49427937213E+01  0.32102192779E+01  0.67246334723E+01  0.89418909175E+01  0.51100000000E-03 0.  1.
         12    1    3    3    0    0  0.70743842946E+01  0.12186793341E+02 -0.79377287076E+01  0.16173199502E+02  0.00000000000E+00 0. -1.
</event>
<event>
 7    1  0.4962385E-011  0.5052887E+02  0.7816164E-02  0.1300439E+00
        -11   -1    0    0    0    0  0.00000000000E+00  0.00000000000E+00  0.45593999997E+02  0.45594000000E+02  0.51100000000E-03 0.  1.
         11   -1    0    0    0    0 -0.00000000000E+00 -0.00000000000E+00 -0.45593999997E+02  0.45594000000E+02  0.51100000000E-03 0. -1.
    9900012    2    1    2    0    0 -0.12506731913E+01  0.24031504466E+02 -0.32773271284E+02  0.50528871861E+02  0.30000036510E+02 0.  0.
        -12    1    1    2    0    0  0.12506731913E+01 -0.24031504466E+02  0.32773271284E+02  0.40659128139E+02  0.00000000000E+00 0.  1.
         11    1    3    3    0    0  0.70182852099E+01  0.20420875894E+02 -0.18466190619E+02  0.28412474299E+02  0.51100000000E-03 0. -1.
        -11    1    3    3    0    0 -0.89825446389E+01 -0.10158297773E+01 -0.24458416463E+01  0.93648363545E+01  0.51100000000E-03 0.  1.
        -12    1    3    3    0    0  0.71358623773E+00  0.46264583492E+01 -0.11861239019E+02  0.12751561208E+02  0.00000000000E+00 0.  1.
</event>
<event>
 7    1  0.4962385E-011  0.5052888E+02  0.7816164E-02  0.1300439E+00
        -11   -1    0    0    0    0  0.00000000000E+00  0.00000000000E+00  0.45593999997E+02  0.45594000000E+02  0.51100000000E-03 0.  1.
         11   -1    0    0    0    0 -0.00000000000E+00 -0.00000000000E+00 -0.45593999997E+02  0.45594000000E+02  0.51100000000E-03 0. -1.
    9900012    2    1    2    0    0 -0.30377024313E+02 -0.22438245489E+02 -0.15064049758E+02  0.50528879721E+02  0.30000060399E+02 0.  0.
        -12    1    1    2    0    0  0.30377024313E+02  0.22438245489E+02  0.15064049758E+02  0.40659120279E+02  0.00000000000E+00 0.  1.
         11    1    3    3    0    0 -0.27962386514E+02 -0.18264270747E+02 -0.97012894758E+01  0.34779213091E+02  0.51100000000E-03 0. -1.
        -11    1    3    3    0    0 -0.44479423147E+01  0.36411423599E+01 -0.50770409564E+01  0.76693189824E+01  0.51100000000E-03 0.  1.
         12    1    3    3    0    0  0.20333045150E+01 -0.78151171019E+01 -0.28571932613E+00  0.80803476473E+01  0.00000000000E+00 0. -1.
</event>
<event>
 7    1  0.4962385E-011  0.5052885E+02  0.7816164E-02  0.1300439E+00
        -11   -1    0    0    0    0  0.00000000000E+00  0.00000000000E+00  0.45593999997E+02  0.45594000000E+02  0.51100000000E-03 0.  1.
         11   -1    0    0    0    0 -0.00000000000E+00 -0.00000000000E+00 -0.45593999997E+02  0.45594000000E+02  0.51100000000E-03 0. -1.
    9900012    2    1    2    0    0 -0.39570906881E+02 -0.81612511000E+01  0.45501591982E+01  0.50528848021E+02  0.29999964045E+02 0.  0.
        -12    1    1    2    0    0  0.39570906881E+02  0.81612511000E+01 -0.45501591982E+01  0.40659151979E+02  0.00000000000E+00 0.  1.
         11    1    3    3    0    0 -0.17738512730E+02  0.45815154338E+01 -0.41101106447E+01  0.18775998704E+02  0.51100000000E-03 0. -1.
        -11    1    3    3    0    0 -0.39002410755E+00 -0.36901210489E+01  0.75955725354E+01  0.84535101917E+01  0.51100000000E-03 0.  1.
        -12    1    3    3    0    0 -0.21442370043E+02 -0.90526454849E+01  0.10646973076E+01  0.23299339126E+02  0.00000000000E+00 0.  1.
</event>
<event>
 7    1  0.4962385E-011  0.5052885E+02  0.7816164E-02  0.1300439E+00
        -11   -1    0    0    0    0  0.00000000000E+00  0.00000000000E+00  0.45593999997E+02  0.45594000000E+02  0.51100000000E-03 0.  1.
         11   -1    0    0    0    0 -0.00000000000E+00 -0.00000000000E+00 -0.45593999997E+02  0.45594000000E+02  0.51100000000E-03 0. -1.
    9900012    2    1    2    0    0 -0.28665692596E+01 -0.34855894654E+02 -0.20736826768E+02  0.50528848560E+02  0.29999965682E+02 0.  0.
        -12    1    1    2    0    0  0.28665692596E+01  0.34855894654E+02  0.20736826768E+02  0.40659151440E+02  0.00000000000E+00 0.  1.
         11    1    3    3    0    0  0.45326585254E+01 -0.13767137101E+02 -0.75952779622E+01  0.16363596941E+02  0.51100000000E-03 0. -1.
        -11    1    3    3    0    0 -0.10296923831E+02 -0.19477587318E+02 -0.17885387235E+02  0.28377634238E+02  0.51100000000E-03 0.  1.
        -12    1    3    3    0    0  0.28976960462E+01 -0.16111702351E+01  0.47438384294E+01  0.57876173809E+01  0.00000000000E+00 0.  1.
</event>
<event>
 7    1  0.4962385E-011  0.5052886E+02  0.7816164E-02  0.1300439E+00
        -11   -1    0    0    0    0  0.00000000000E+00  0.00000000000E+00  0.45593999997E+02  0.45594000000E+02  0.51100000000E-03 0. -1.
         11   -1    0    0    0    0 -0.00000000000E+00 -0.00000000000E+00 -0.45593999997E+02  0.45594000000E+02  0.51100000000E-03 0.  1.
    9900012    2    1    2    0    0  0.26243081815E+02 -0.31026467412E+02 -0.13508180204E+01  0.50528859176E+02  0.29999997951E+02 0.  0.
        -12    1    1    2    0    0 -0.26243081815E+02  0.31026467412E+02  0.13508180204E+01  0.40659140824E+02  0.00000000000E+00 0.  1.
         11    1    3    3    0    0  0.24447934484E+02 -0.71733139312E+01 -0.27638629753E+01  0.25628048542E+02  0.51100000000E-03 0. -1.
        -11    1    3    3    0    0  0.43380971167E+01 -0.12926844314E+02  0.10697257829E+01  0.13677233054E+02  0.51100000000E-03 0.  1.
        -12    1    3    3    0    0 -0.25429497855E+01 -0.10926309167E+02  0.34331917206E+00  0.11223577580E+02  0.00000000000E+00 0.  1.
</event>
<event>
 7    1  0.4962385E-011  0.5052886E+02  0.7816164E-02  0.1300439E+00
        -11   -1    0    0    0    0  0.00000000000E+00  0.00000000000E+00  0.45593999997E+02  0.45594000000E+02  0.51100000000E-03 0.  1.
         11   -1    0    0    0    0 -0.00000000000E+00 -0.00000000000E+00 -0.45593999997E+02  0.45594000000E+02  0.51100000000E-03 0. -1.
    9900012    2    1    2    0    0  0.15011001944E+02  0.37042248611E+02  0.74637114752E+01  0.50528863874E+02  0.30000012231E+02 0.  0.
        -12    1    1    2    0    0 -0.15011001944E+02 -0.37042248611E+02 -0.74637114752E+01  0.40659136126E+02  0.00000000000E+00 0.  1.
         11    1    3    3    0    0  0.20004734773E+02  0.39061183501E+02  0.90747047469E+01  0.44814235867E+02  0.51100000000E-03 0. -1.
        -11    1    3    3    0    0 -0.31339689787E+01 -0.15530309982E+01 -0.14642267934E+01  0.37917841717E+01  0.51100000000E-03 0.  1.
         12    1    3    3    0    0 -0.18597638504E+01 -0.46590389136E+00 -0.14676647830E+00  0.19228438352E+01  0.00000000000E+00 0. -1.
</event>
<event>
 7    1  0.4962385E-011  0.5052886E+02  0.7816164E-02  0.1300439E+00
        -11   -1    0    0    0    0  0.00000000000E+00  0.00000000000E+00  0.45593999997E+02  0.45594000000E+02  0.51100000000E-03 0. -1.
         11   -1    0    0    0    0 -0.00000000000E+00 -0.00000000000E+00 -0.45593999997E+02  0.45594000000E+02  0.51100000000E-03 0.  1.
    9900012    2    1    2    0    0  0.30999537962E+02 -0.16654135636E+02  0.20367471185E+02  0.50528862403E+02  0.30000007761E+02 0.  0.
        -12    1    1    2    0    0 -0.30999537962E+02  0.16654135636E+02 -0.20367471185E+02  0.40659137597E+02  0.00000000000E+00 0.  1.
         11    1    3    3    0    0  0.22873343719E+01 -0.63417543897E+01  0.30324661395E+01  0.73922661219E+01  0.51100000000E-03 0. -1.
        -11    1    3    3    0    0  0.36010696706E+01  0.42885107427E+01  0.12489896131E+02  0.13687824253E+02  0.51100000000E-03 0.  1.
        -12    1    3    3    0    0  0.25111133919E+02 -0.14600891989E+02  0.48451089148E+01  0.29448772029E+02  0.00000000000E+00 0.  1.
</event>
<event>
 7    1  0.4962385E-011  0.5052886E+02  0.7816164E-02  0.1300439E+00
        -11   -1    0    0    0    0  0.00000000000E+00  0.00000000000E+00  0.45593999997E+02  0.45594000000E+02  0.51100000000E-03 0. -1.
         11   -1    0    0    0    0 -0.00000000000E+00 -0.00000000000E+00 -0.45593999997E+02  0.45594000000E+02  0.51100000000E-03 0.  1.
    9900012    2    1    2    0    0  0.19642745488E+02  0.34855582114E+02  0.72399314583E+01  0.50528860040E+02  0.30000000576E+02 0.  0.
        -12    1    1    2    0    0 -0.19642745488E+02 -0.34855582114E+02 -0.72399314583E+01  0.40659139960E+02  0.00000000000E+00 0.  1.
         11    1    3    3    0    0  0.34191728822E+01  0.16531759593E+02  0.49891956287E+01  0.17603462493E+02  0.51100000000E-03 0. -1.
        -11    1    3    3    0    0  0.15740501951E+02  0.11755978092E+02 -0.76094256695E+01  0.21068217339E+02  0.51100000000E-03 0.  1.
        -12    1    3    3    0    0  0.48307065547E+00  0.65678444285E+01  0.98601614991E+01  0.11857180208E+02  0.00000000000E+00 0.  1.
</event>
<event>
 7    1  0.4962385E-011  0.5052886E+02  0.7816164E-02  0.1300439E+00
        -11   -1    0    0    0    0  0.00000000000E+00  0.00000000000E+00  0.45593999997E+02  0.45594000000E+02  0.51100000000E-03 0.  1.
         11   -1    0    0    0    0 -0.00000000000E+00 -0.00000000000E+00 -0.45593999997E+02  0.45594000000E+02  0.51100000000E-03 0. -1.
    9900012    2    1    2    0    0  0.27050684925E+02  0.83141083551E+00 -0.30343611860E+02  0.50528861057E+02  0.30000003669E+02 0.  0.
        -12    1    1    2    0    0 -0.27050684925E+02 -0.83141083551E+00  0.30343611860E+02  0.40659138943E+02  0.00000000000E+00 0.  1.
         11    1    3    3    0    0  0.21728232934E+02  0.78187746845E+01 -0.12783781678E+02  0.26394590701E+02  0.51100000000E-03 0. -1.
        -11    1    3    3    0    0 -0.23312349461E+01 -0.42365373187E+01 -0.58992869827E-01  0.48359471923E+01  0.51100000000E-03 0.  1.
         12    1    3    3    0    0  0.76536869369E+01 -0.27508265303E+01 -0.17500837312E+02  0.19298323164E+02  0.00000000000E+00 0. -1.
</event>
<event>
 7    1  0.4962385E-011  0.5052887E+02  0.7816164E-02  0.1300439E+00
        -11   -1    0    0    0    0  0.00000000000E+00  0.00000000000E+00  0.45593999997E+02  0.45594000000E+02  0.51100000000E-03 0.  1.
         11   -1    0    0    0    0 -0.00000000000E+00 -0.00000000000E+00 -0.45593999997E+02  0.45594000000E+02  0.51100000000E-03 0. -1.
    9900012    2    1    2    0    0  0.22004506374E+02 -0.33111790160E+02 -0.85191571158E+01  0.50528868352E+02  0.30000025843E+02 0.  0.
        -12    1    1    2    0    0 -0.22004506374E+02  0.33111790160E+02  0.85191571158E+01  0.40659131648E+02  0.00000000000E+00 0.  1.
         11    1    3    3    0    0  0.62798376249E+01 -0.64708868101E+01 -0.63920898078E+01  0.11052943005E+02  0.51100000000E-03 0. -1.
        -11    1    3    3    0    0 -0.60569726950E+01 -0.34003118503E+01  0.23010365482E+01  0.73173634845E+01  0.51100000000E-03 0.  1.
        -12    1    3    3    0    0  0.21781641444E+02 -0.23240591500E+02 -0.44281038562E+01  0.32158561862E+02  0.00000000000E+00 0.  1.
</event>
<event>
 7    1  0.4962385E-011  0.5052885E+02  0.7816164E-02  0.1300439E+00
        -11   -1    0    0    0    0  0.00000000000E+00  0.00000000000E+00  0.45593999997E+02  0.45594000000E+02  0.51100000000E-03 0.  1.
         11   -1    0    0    0    0 -0.00000000000E+00 -0.00000000000E+00 -0.45593999997E+02  0.45594000000E+02  0.51100000000E-03 0. -1.
    9900012    2    1    2    0    0 -0.14775945793E+01  0.15375695675E+02 -0.37610782887E+02  0.50528852289E+02  0.29999977017E+02 0.  0.
        -12    1    1    2    0    0  0.14775945793E+01 -0.15375695675E+02  0.37610782887E+02  0.40659147711E+02  0.00000000000E+00 0.  1.
         11    1    3    3    0    0 -0.27374787120E+01  0.18866842243E+02 -0.38062437624E+02  0.42569950482E+02  0.51100000000E-03 0. -1.
        -11    1    3    3    0    0  0.19510006576E+01  0.17717127871E+01  0.24622049933E+00  0.26468839343E+01  0.51100000000E-03 0.  1.
         12    1    3    3    0    0 -0.69111652494E+00 -0.52628593554E+01  0.20543423760E+00  0.53120178720E+01  0.00000000000E+00 0. -1.
</event>
<event>
 7    1  0.4962385E-011  0.5052885E+02  0.7816164E-02  0.1300439E+00
        -11   -1    0    0    0    0  0.00000000000E+00  0.00000000000E+00  0.45593999997E+02  0.45594000000E+02  0.51100000000E-03 0.  1.
         11   -1    0    0    0    0 -0.00000000000E+00 -0.00000000000E+00 -0.45593999997E+02  0.45594000000E+02  0.51100000000E-03 0. -1.
    9900012    2    1    2    0    0 -0.17706041584E+02 -0.12673574463E+02 -0.34337192687E+02  0.50528853429E+02  0.29999980484E+02 0.  0.
        -12    1    1    2    0    0  0.17706041584E+02  0.12673574463E+02  0.34337192687E+02  0.40659146571E+02  0.00000000000E+00 0.  1.
         11    1    3    3    0    0 -0.91101790436E+01 -0.62685190825E+01 -0.98097149229E+01  0.14782428786E+02  0.51100000000E-03 0. -1.
        -11    1    3    3    0    0  0.73333511680E+01 -0.29728273619E+01 -0.24047511008E+01  0.82703427979E+01  0.51100000000E-03 0.  1.
        -12    1    3    3    0    0 -0.15929213708E+02 -0.34322280189E+01 -0.22122726663E+02  0.27476081845E+02  0.00000000000E+00 0.  1.
</event>
<event>
 7    1  0.4962385E-011  0.5052886E+02  0.7816164E-02  0.1300439E+00
        -11   -1    0    0    0    0  0.00000000000E+00  0.00000000000E+00  0.45593999997E+02  0.45594000000E+02  0.51100000000E-03 0. -1.
         11   -1    0    0    0    0 -0.00000000000E+00 -0.00000000000E+00 -0.45593999997E+02  0.45594000000E+02  0.51100000000E-03 0.  1.
    9900012    2    1    2    0    0  0.32916422191E+02  0.13584261929E+02  0.19625054995E+02  0.50528858278E+02  0.29999995222E+02 0.  0.
        -12    1    1    2    0    0 -0.32916422191E+02 -0.13584261929E+02 -0.19625054995E+02  0.40659141722E+02  0.00000000000E+00 0.  1.
         11    1    3    3    0    0  0.24808061974E+02  0.10861037225E+02  0.23716664436E+02  0.35998364417E+02  0.51100000000E-03 0. -1.
        -11    1    3    3    0    0 -0.13034218218E+01 -0.13784062305E+01 -0.38143365166E+01  0.42600558100E+01  0.51100000000E-03 0.  1.
         12    1    3    3    0    0  0.94117820391E+01  0.41016309348E+01 -0.27727292471E+00  0.10270438051E+02  0.00000000000E+00 0. -1.
</event>
<event>
 7    1  0.4962385E-011  0.5052886E+02  0.7816164E-02  0.1300439E+00
        -11   -1    0    0    0    0  0.00000000000E+00  0.00000000000E+00  0.45593999997E+02  0.45594000000E+02  0.51100000000E-03 0. -1.
         11   -1    0    0    0    0 -0.00000000000E+00 -0.00000000000E+00 -0.45593999997E+02  0.45594000000E+02  0.51100000000E-03 0.  1.
    9900012    2    1    2    0    0  0.37211873372E+02 -0.11480462215E+02  0.11689368238E+02  0.50528857581E+02  0.29999993102E+02 0.  0.
        -12    1    1    2    0    0 -0.37211873372E+02  0.11480462215E+02 -0.11689368238E+02  0.40659142419E+02  0.00000000000E+00 0.  1.
         11    1    3    3    0    0  0.30977090777E+02 -0.12385144773E+00  0.17478416238E+02  0.35568111092E+02  0.51100000000E-03 0. -1.
        -11    1    3    3    0    0  0.57716090289E+01 -0.98215117179E+01 -0.30602289525E+01  0.11795701111E+02  0.51100000000E-03 0.  1.
         12    1    3    3    0    0  0.46317356572E+00 -0.15350990490E+01 -0.27288190483E+01  0.31650453774E+01  0.00000000000E+00 0. -1.
</event>
<event>
 7    1  0.4962385E-011  0.5052886E+02  0.7816164E-02  0.1300439E+00
        -11   -1    0    0    0    0  0.00000000000E+00  0.00000000000E+00  0.45593999997E+02  0.45594000000E+02  0.51100000000E-03 0. -1.
         11   -1    0    0    0    0 -0.00000000000E+00 -0.00000000000E+00 -0.45593999997E+02  0.45594000000E+02  0.51100000000E-03 0.  1.
    9900012    2    1    2    0    0  0.11192351808E+02  0.38780897660E+02  0.48927357410E+01  0.50528860494E+02  0.30000001959E+02 0.  0.
        -12    1    1    2    0    0 -0.11192351808E+02 -0.38780897660E+02 -0.48927357410E+01  0.40659139506E+02  0.00000000000E+00 0.  1.
         11    1    3    3    0    0  0.14152253891E+01 -0.13086095286E+01 -0.59026187771E+01  0.62093663517E+01  0.51100000000E-03 0.  1.
        -11    1    3    3    0    0  0.11541188756E+02  0.22610674237E+02  0.55494175586E+01  0.25985335535E+02  0.51100000000E-03 0. -1.
        -12    1    3    3    0    0 -0.17640623369E+01  0.17478832951E+02  0.52459369595E+01  0.18334158608E+02  0.00000000000E+00 0.  1.
</event>
<event>
 7    1  0.4962385E-011  0.5052886E+02  0.7816164E-02  0.1300439E+00
        -11   -1    0    0    0    0  0.00000000000E+00  0.00000000000E+00  0.45593999997E+02  0.45594000000E+02  0.51100000000E-03 0. -1.
         11   -1    0    0    0    0 -0.00000000000E+00 -0.00000000000E+00 -0.45593999997E+02  0.45594000000E+02  0.51100000000E-03 0.  1.
    9900012    2    1    2    0    0  0.12481710515E+02  0.37155682342E+02 -0.10808693963E+02  0.50528859664E+02  0.29999999434E+02 0.  0.
        -12    1    1    2    0    0 -0.12481710515E+02 -0.37155682342E+02  0.10808693963E+02  0.40659140336E+02  0.00000000000E+00 0.  1.
         11    1    3    3    0    0  0.55027636150E+01  0.13819482819E+02  0.23291572250E+01  0.15056011637E+02  0.51100000000E-03 0. -1.
        -11    1    3    3    0    0  0.54926441928E+01  0.89206167555E+01 -0.17449819400E+02  0.20352954107E+02  0.51100000000E-03 0.  1.
        -12    1    3    3    0    0  0.14863027074E+01  0.14415582768E+02  0.43119682120E+01  0.15119893920E+02  0.00000000000E+00 0.  1.
</event>
<event>
 7    1  0.4962385E-011  0.5052886E+02  0.7816164E-02  0.1300439E+00
        -11   -1    0    0    0    0  0.00000000000E+00  0.00000000000E+00  0.45593999997E+02  0.45594000000E+02  0.51100000000E-03 0.  1.
         11   -1    0    0    0    0 -0.00000000000E+00 -0.00000000000E+00 -0.45593999997E+02  0.45594000000E+02  0.51100000000E-03 0. -1.
    9900012    2    1    2    0    0  0.10866743882E+02  0.17016263926E+02 -0.35292013999E+02  0.50528860649E+02  0.30000002430E+02 0.  0.
        -12    1    1    2    0    0 -0.10866743882E+02 -0.17016263926E+02  0.35292013999E+02  0.40659139351E+02  0.00000000000E+00 0.  1.
         11    1    3    3    0    0  0.41148721992E+01  0.35297769249E+01 -0.27806306821E+02  0.28329881709E+02  0.51100000000E-03 0. -1.
        -11    1    3    3    0    0  0.61895838202E+01  0.46794200750E+01  0.31537997249E+01  0.83758207402E+01  0.51100000000E-03 0.  1.
         12    1    3    3    0    0  0.56228786290E+00  0.88070669262E+01 -0.10639506904E+02  0.13823158200E+02  0.00000000000E+00 0. -1.
</event>
<event>
 7    1  0.4962385E-011  0.5052885E+02  0.7816164E-02  0.1300439E+00
        -11   -1    0    0    0    0  0.00000000000E+00  0.00000000000E+00  0.45593999997E+02  0.45594000000E+02  0.51100000000E-03 0.  1.
         11   -1    0    0    0    0 -0.00000000000E+00 -0.00000000000E+00 -0.45593999997E+02  0.45594000000E+02  0.51100000000E-03 0. -1.
    9900012    2    1    2    0    0  0.22076765248E+02  0.30292603616E+02  0.15752485433E+02  0.50528853489E+02  0.29999980666E+02 0.  0.
        -12    1    1    2    0    0 -0.22076765248E+02 -0.30292603616E+02 -0.15752485433E+02  0.40659146511E+02  0.00000000000E+00 0.  1.
         11    1    3    3    0    0  0.16392045729E+02  0.26086190171E+02  0.14988392754E+02  0.34261354299E+02  0.51100000000E-03 0. -1.
        -11    1    3    3    0    0 -0.75314329613E+00 -0.45262180453E+01 -0.21006752289E+01  0.50464553199E+01  0.51100000000E-03 0.  1.
        -12    1    3    3    0    0  0.64378628150E+01  0.87326314902E+01  0.28647679084E+01  0.11221043870E+02  0.00000000000E+00 0.  1.
</event>
<event>
 7    1  0.4962385E-011  0.5052886E+02  0.7816164E-02  0.1300439E+00
        -11   -1    0    0    0    0  0.00000000000E+00  0.00000000000E+00  0.45593999997E+02  0.45594000000E+02  0.51100000000E-03 0.  1.
         11   -1    0    0    0    0 -0.00000000000E+00 -0.00000000000E+00 -0.45593999997E+02  0.45594000000E+02  0.51100000000E-03 0. -1.
    9900012    2    1    2    0    0  0.16009589003E+02  0.37014414268E+02  0.51760563146E+01  0.50528863725E+02  0.30000011779E+02 0.  0.
        -12    1    1    2    0    0 -0.16009589003E+02 -0.37014414268E+02 -0.51760563146E+01  0.40659136275E+02  0.00000000000E+00 0.  1.
         11    1    3    3    0    0  0.71762890928E+01  0.80189168882E+01 -0.82516492926E+01  0.13560673638E+02  0.51100000000E-03 0. -1.
        -11    1    3    3    0    0 -0.74278577553E+00  0.23060928740E+02  0.76564082804E+01  0.24310054568E+02  0.51100000000E-03 0.  1.
         12    1    3    3    0    0  0.95760856856E+01  0.59345686395E+01  0.57712973268E+01  0.12658135519E+02  0.00000000000E+00 0. -1.
</event>
<event>
 7    1  0.4962385E-011  0.5052886E+02  0.7816164E-02  0.1300439E+00
        -11   -1    0    0    0    0  0.00000000000E+00  0.00000000000E+00  0.45593999997E+02  0.45594000000E+02  0.51100000000E-03 0.  1.
         11   -1    0    0    0    0 -0.00000000000E+00 -0.00000000000E+00 -0.45593999997E+02  0.45594000000E+02  0.51100000000E-03 0. -1.
    9900012    2    1    2    0    0  0.71759913307E+01  0.39217020050E+02  0.79809706929E+01  0.50528863187E+02  0.30000010142E+02 0.  0.
        -12    1    1    2    0    0 -0.71759913307E+01 -0.39217020050E+02 -0.79809706929E+01  0.40659136813E+02  0.00000000000E+00 0.  1.
         11    1    3    3    0    0  0.74336429452E+01  0.14432449216E+02  0.13950931195E+02  0.21405212432E+02  0.51100000000E-03 0. -1.
        -11    1    3    3    0    0 -0.36029242955E+01  0.16565574516E+02  0.21585481471E+01  0.17089723605E+02  0.51100000000E-03 0.  1.
         12    1    3    3    0    0  0.33452726809E+01  0.82189963187E+01 -0.81285086488E+01  0.12033927150E+02  0.00000000000E+00 0. -1.
</event>
<event>
 7    1  0.4962385E-011  0.5052886E+02  0.7816164E-02  0.1300439E+00
        -11   -1    0    0    0    0  0.00000000000E+00  0.00000000000E+00  0.45593999997E+02  0.45594000000E+02  0.51100000000E-03 0.  1.
         11   -1    0    0    0    0 -0.00000000000E+00 -0.00000000000E+00 -0.45593999997E+02  0.45594000000E+02  0.51100000000E-03 0. -1.
    9900012    2    1    2    0    0  0.52569679488E+00  0.37142017102E+01 -0.40485723074E+02  0.50528862967E+02  0.30000009474E+02 0.  0.
        -12    1    1    2    0    0 -0.52569679488E+00 -0.37142017102E+01  0.40485723074E+02  0.40659137033E+02  0.00000000000E+00 0.  1.
         11    1    3    3    0    0 -0.12579778296E+01  0.12128477515E+02 -0.20675129483E+02  0.24002988448E+02  0.51100000000E-03 0. -1.
        -11    1    3    3    0    0 -0.60118115509E+01 -0.63600598441E+01 -0.62655416126E+01  0.10763329007E+02  0.51100000000E-03 0.  1.
         12    1    3    3    0    0  0.77954861754E+01 -0.20542159607E+01 -0.13545051978E+02  0.15762545512E+02  0.00000000000E+00 0. -1.
</event>
<event>
 7    1  0.4962385E-011  0.5052886E+02  0.7816164E-02  0.1300439E+00
        -11   -1    0    0    0    0  0.00000000000E+00  0.00000000000E+00  0.45593999997E+02  0.45594000000E+02  0.51100000000E-03 0. -1.
         11   -1    0    0    0    0 -0.00000000000E+00 -0.00000000000E+00 -0.45593999997E+02  0.45594000000E+02  0.51100000000E-03 0.  1.
    9900012    2    1    2    0    0 -0.31294864949E+02  0.25912203272E+02  0.15345627218E+01  0.50528859167E+02  0.29999997923E+02 0.  0.
        -12    1    1    2    0    0  0.31294864949E+02 -0.25912203272E+02 -0.15345627218E+01  0.40659140833E+02  0.00000000000E+00 0.  1.
         11    1    3    3    0    0 -0.30593572520E+02  0.19797828400E+02  0.11633609444E+02  0.38252601975E+02  0.51100000000E-03 0. -1.
        -11    1    3    3    0    0  0.90557364274E+00  0.13634929159E+01 -0.43462330441E+01  0.46442349735E+01  0.51100000000E-03 0.  1.
         12    1    3    3    0    0 -0.16068660720E+01  0.47508819556E+01 -0.57528136782E+01  0.76320222186E+01  0.00000000000E+00 0. -1.
</event>
<event>
 7    1  0.4962385E-011  0.5052888E+02  0.7816164E-02  0.1300439E+00
        -11   -1    0    0    0    0  0.00000000000E+00  0.00000000000E+00  0.45593999997E+02  0.45594000000E+02  0.51100000000E-03 0.  1.
         11   -1    0    0    0    0 -0.00000000000E+00 -0.00000000000E+00 -0.45593999997E+02  0.45594000000E+02  0.51100000000E-03 0. -1.
    9900012    2    1    2    0    0  0.19848561275E+02 -0.75068985561E+01 -0.34682061599E+02  0.50528876702E+02  0.30000051223E+02 0.  0.
        -12    1    1    2    0    0 -0.19848561275E+02  0.75068985561E+01  0.34682061599E+02  0.40659123298E+02  0.00000000000E+00 0.  1.
         11    1    3    3    0    0  0.16290771894E+02 -0.45942255568E+01 -0.52727763094E+01  0.17728460950E+02  0.51100000000E-03 0. -1.
        -11    1    3    3    0    0 -0.77411454110E+00 -0.65118892869E+01 -0.65919111051E+01  0.92982389562E+01  0.51100000000E-03 0.  1.
         12    1    3    3    0    0  0.43319039216E+01  0.35992162875E+01 -0.22817374184E+02  0.23502176796E+02  0.00000000000E+00 0. -1.
</event>
<event>
 7    1  0.4962385E-011  0.5052885E+02  0.7816164E-02  0.1300439E+00
        -11   -1    0    0    0    0  0.00000000000E+00  0.00000000000E+00  0.45593999997E+02  0.45594000000E+02  0.51100000000E-03 0. -1.
         11   -1    0    0    0    0 -0.00000000000E+00 -0.00000000000E+00 -0.45593999997E+02  0.45594000000E+02  0.51100000000E-03 0.  1.
    9900012    2    1    2    0    0  0.23403524835E+02  0.23264003723E+02  0.23753481033E+02  0.50528847216E+02  0.29999961598E+02 0.  0.
        -12    1    1    2    0    0 -0.23403524835E+02 -0.23264003723E+02 -0.23753481033E+02  0.40659152784E+02  0.00000000000E+00 0.  1.
         11    1    3    3    0    0  0.21030816771E+02  0.45181293975E+01  0.22016269566E+01  0.21623041156E+02  0.51100000000E-03 0. -1.
        -11    1    3    3    0    0  0.27426996660E+01  0.97213148204E+01  0.13043733278E+02  0.16497434388E+02  0.51100000000E-03 0.  1.
         12    1    3    3    0    0 -0.36999160198E+00  0.90245595052E+01  0.85081207982E+01  0.12408371673E+02  0.00000000000E+00 0. -1.
</event>
<event>
 7    1  0.4962385E-011  0.5052885E+02  0.7816164E-02  0.1300439E+00
        -11   -1    0    0    0    0  0.00000000000E+00  0.00000000000E+00  0.45593999997E+02  0.45594000000E+02  0.51100000000E-03 0.  1.
         11   -1    0    0    0    0 -0.00000000000E+00 -0.00000000000E+00 -0.45593999997E+02  0.45594000000E+02  0.51100000000E-03 0. -1.
    9900012    2    1    2    0    0  0.20250219718E+02 -0.34752255671E+02 -0.59477603779E+01  0.50528849414E+02  0.29999968280E+02 0.  0.
        -12    1    1    2    0    0 -0.20250219718E+02  0.34752255671E+02  0.59477603779E+01  0.40659150586E+02  0.00000000000E+00 0.  1.
         11    1    3    3    0    0  0.79569276963E+01  0.22049996420E+01 -0.73067115541E+01  0.11025550135E+02  0.51100000000E-03 0. -1.
        -11    1    3    3    0    0  0.39837583075E+01 -0.16408918168E+02  0.34688550315E+01  0.17238209918E+02  0.51100000000E-03 0.  1.
         12    1    3    3    0    0  0.83095337138E+01 -0.20548337145E+02 -0.21099038553E+01  0.22265089361E+02  0.00000000000E+00 0. -1.
</event>
<event>
 7    1  0.4962385E-011  0.5052885E+02  0.7816164E-02  0.1300439E+00
        -11   -1    0    0    0    0  0.00000000000E+00  0.00000000000E+00  0.45593999997E+02  0.45594000000E+02  0.51100000000E-03 0. -1.
         11   -1    0    0    0    0 -0.00000000000E+00 -0.00000000000E+00 -0.45593999997E+02  0.45594000000E+02  0.51100000000E-03 0.  1.
    9900012    2    1    2    0    0  0.17331637520E+02 -0.31630069209E+02  0.18770172043E+02  0.50528852249E+02  0.29999976897E+02 0.  0.
        -12    1    1    2    0    0 -0.17331637520E+02  0.31630069209E+02 -0.18770172043E+02  0.40659147751E+02  0.00000000000E+00 0.  1.
         11    1    3    3    0    0  0.18309908922E+02 -0.24380042293E+02  0.65031623150E+01  0.31175797460E+02  0.51100000000E-03 0. -1.
        -11    1    3    3    0    0 -0.59028024221E+01 -0.52375764988E+01  0.25819673469E+01  0.83031222836E+01  0.51100000000E-03 0.  1.
         12    1    3    3    0    0  0.49245310197E+01 -0.20124504178E+01  0.96850423811E+01  0.11049932505E+02  0.00000000000E+00 0. -1.
</event>
<event>
 7    1  0.4962385E-011  0.5052886E+02  0.7816164E-02  0.1300439E+00
        -11   -1    0    0    0    0  0.00000000000E+00  0.00000000000E+00  0.45593999997E+02  0.45594000000E+02  0.51100000000E-03 0.  1.
         11   -1    0    0    0    0 -0.00000000000E+00 -0.00000000000E+00 -0.45593999997E+02  0.45594000000E+02  0.51100000000E-03 0. -1.
    9900012    2    1    2    0    0  0.33788137370E+02 -0.22111247569E+02 -0.47560726543E+01  0.50528859292E+02  0.29999998303E+02 0.  0.
        -12    1    1    2    0    0 -0.33788137370E+02  0.22111247569E+02  0.47560726543E+01  0.40659140708E+02  0.00000000000E+00 0.  1.
         11    1    3    3    0    0  0.19371011314E+02  0.22136517038E+01 -0.66945234159E+01  0.20614387626E+02  0.51100000000E-03 0. -1.
        -11    1    3    3    0    0  0.93325183119E+01 -0.13504258122E+02  0.57067328248E+01  0.17378943733E+02  0.51100000000E-03 0.  1.
         12    1    3    3    0    0  0.50846077448E+01 -0.10820641151E+02 -0.37682820632E+01  0.12535527933E+02  0.00000000000E+00 0. -1.
</event>
<event>
 7    1  0.4962385E-011  0.5052884E+02  0.7816164E-02  0.1300439E+00
        -11   -1    0    0    0    0  0.00000000000E+00  0.00000000000E+00  0.45593999997E+02  0.45594000000E+02  0.51100000000E-03 0.  1.
         11   -1    0    0    0    0 -0.00000000000E+00 -0.00000000000E+00 -0.45593999997E+02  0.45594000000E+02  0.51100000000E-03 0. -1.
    9900012    2    1    2    0    0 -0.34661234626E+02  0.18815654308E+02 -0.98861969140E+01  0.50528844546E+02  0.29999953482E+02 0.  0.
        -12    1    1    2    0    0  0.34661234626E+02 -0.18815654308E+02  0.98861969140E+01  0.40659155454E+02  0.00000000000E+00 0.  1.
         11    1    3    3    0    0 -0.14665806375E+02  0.20255381670E+02  0.19865870640E+01  0.25086109536E+02  0.51100000000E-03 0. -1.
        -11    1    3    3    0    0 -0.47401780662E+01 -0.48424676790E+01 -0.46908304069E+01  0.82415211878E+01  0.51100000000E-03 0.  1.
         12    1    3    3    0    0 -0.15255250185E+02  0.34027403175E+01 -0.71819535711E+01  0.17201213823E+02  0.00000000000E+00 0. -1.
</event>
<event>
 7    1  0.4962385E-011  0.5052886E+02  0.7816164E-02  0.1300439E+00
        -11   -1    0    0    0    0  0.00000000000E+00  0.00000000000E+00  0.45593999997E+02  0.45594000000E+02  0.51100000000E-03 0. -1.
         11   -1    0    0    0    0 -0.00000000000E+00 -0.00000000000E+00 -0.45593999997E+02  0.45594000000E+02  0.51100000000E-03 0.  1.
    9900012    2    1    2    0    0  0.39548532518E+02 -0.91935199149E+01  0.21351000921E+01  0.50528857299E+02  0.29999992246E+02 0.  0.
        -12    1    1    2    0    0 -0.39548532518E+02  0.91935199149E+01 -0.21351000921E+01  0.40659142701E+02  0.00000000000E+00 0.  1.
         11    1    3    3    0    0  0.13897583698E+01 -0.11078481430E+02  0.22369734508E+01  0.11387195862E+02  0.51100000000E-03 0. -1.
        -11    1    3    3    0    0  0.22800603123E+01  0.19882729285E+01  0.11616017964E+01  0.32405590969E+01  0.51100000000E-03 0.  1.
         12    1    3    3    0    0  0.35878713836E+02 -0.10331141377E+00 -0.12634751551E+01  0.35901102340E+02  0.00000000000E+00 0. -1.
</event>
<event>
 7    1  0.4962385E-011  0.5052886E+02  0.7816164E-02  0.1300439E+00
        -11   -1    0    0    0    0  0.00000000000E+00  0.00000000000E+00  0.45593999997E+02  0.45594000000E+02  0.51100000000E-03 0.  1.
         11   -1    0    0    0    0 -0.00000000000E+00 -0.00000000000E+00 -0.45593999997E+02  0.45594000000E+02  0.51100000000E-03 0. -1.
    9900012    2    1    2    0    0  0.16175201854E+02 -0.26939830342E+02 -0.25802594503E+02  0.50528862072E+02  0.30000006755E+02 0.  0.
        -12    1    1    2    0    0 -0.16175201854E+02  0.26939830342E+02  0.25802594503E+02  0.40659137928E+02  0.00000000000E+00 0.  1.
         11    1    3    3    0    0  0.16442027499E+02 -0.22828193234E+02 -0.29404193173E+02  0.40694879912E+02  0.51100000000E-03 0. -1.
        -11    1    3    3    0    0 -0.34846754165E+01 -0.47156477598E+01  0.25628826169E+01  0.63991143232E+01  0.51100000000E-03 0.  1.
         12    1    3    3    0    0  0.32178497718E+01  0.60401065182E+00  0.10387160526E+01  0.34348678372E+01  0.00000000000E+00 0. -1.
</event>
<event>
 7    1  0.4962385E-011  0.5052884E+02  0.7816164E-02  0.1300439E+00
        -11   -1    0    0    0    0  0.00000000000E+00  0.00000000000E+00  0.45593999997E+02  0.45594000000E+02  0.51100000000E-03 0.  1.
         11   -1    0    0    0    0 -0.00000000000E+00 -0.00000000000E+00 -0.45593999997E+02  0.45594000000E+02  0.51100000000E-03 0. -1.
    9900012    2    1    2    0    0  0.20490508761E+02 -0.34664894051E+02 -0.56259294837E+01  0.50528844679E+02  0.29999953885E+02 0.  0.
        -12    1    1    2    0    0 -0.20490508761E+02  0.34664894051E+02  0.56259294837E+01  0.40659155321E+02  0.00000000000E+00 0.  1.
         11    1    3    3    0    0  0.58225168120E+01 -0.17985153164E+02 -0.14081493753E+02  0.23572354633E+02  0.51100000000E-03 0. -1.
        -11    1    3    3    0    0  0.39441745583E+01 -0.13909937001E+02  0.57141250826E+01  0.15546513629E+02  0.51100000000E-03 0.  1.
         12    1    3    3    0    0  0.10723817391E+02 -0.27698038866E+01  0.27414391865E+01  0.11409976416E+02  0.00000000000E+00 0. -1.
</event>
<event>
 7    1  0.4962385E-011  0.5052886E+02  0.7816164E-02  0.1300439E+00
        -11   -1    0    0    0    0  0.00000000000E+00  0.00000000000E+00  0.45593999997E+02  0.45594000000E+02  0.51100000000E-03 0. -1.
         11   -1    0    0    0    0 -0.00000000000E+00 -0.00000000000E+00 -0.45593999997E+02  0.45594000000E+02  0.51100000000E-03 0.  1.
    9900012    2    1    2    0    0 -0.23908510471E+01  0.38659544756E+02  0.12364821600E+02  0.50528863478E+02  0.30000011028E+02 0.  0.
        -12    1    1    2    0    0  0.23908510471E+01 -0.38659544756E+02 -0.12364821600E+02  0.40659136522E+02  0.00000000000E+00 0.  1.
         11    1    3    3    0    0 -0.91441561777E+01  0.14889693636E+02  0.82784230199E-01  0.17473563525E+02  0.51100000000E-03 0. -1.
        -11    1    3    3    0    0  0.53022032288E+01  0.25312300620E+02  0.14774673486E+02  0.29784507695E+02  0.51100000000E-03 0.  1.
        -12    1    3    3    0    0  0.14511019019E+01 -0.15424494998E+01 -0.24926361158E+01  0.32707922580E+01  0.00000000000E+00 0.  1.
</event>
<event>
 7    1  0.4962385E-011  0.5052886E+02  0.7816164E-02  0.1300439E+00
        -11   -1    0    0    0    0  0.00000000000E+00  0.00000000000E+00  0.45593999997E+02  0.45594000000E+02  0.51100000000E-03 0. -1.
         11   -1    0    0    0    0 -0.00000000000E+00 -0.00000000000E+00 -0.45593999997E+02  0.45594000000E+02  0.51100000000E-03 0.  1.
    9900012    2    1    2    0    0  0.11131149241E+02  0.25338352146E+02  0.29786429078E+02  0.50528856746E+02  0.29999990566E+02 0.  0.
        -12    1    1    2    0    0 -0.11131149241E+02 -0.25338352146E+02 -0.29786429078E+02  0.40659143254E+02  0.00000000000E+00 0.  1.
         11    1    3    3    0    0  0.13335755615E+02  0.13133492038E+02  0.31193779150E+02  0.36378329385E+02  0.51100000000E-03 0. -1.
        -11    1    3    3    0    0  0.75340032486E+00  0.80988919445E+01  0.15629982080E+01  0.82826702480E+01  0.51100000000E-03 0.  1.
         12    1    3    3    0    0 -0.29580066982E+01  0.41059681641E+01 -0.29703482806E+01  0.58678571130E+01  0.00000000000E+00 0. -1.
</event>
<event>
 7    1  0.4962385E-011  0.5052886E+02  0.7816164E-02  0.1300439E+00
        -11   -1    0    0    0    0  0.00000000000E+00  0.00000000000E+00  0.45593999997E+02  0.45594000000E+02  0.51100000000E-03 0. -1.
         11   -1    0    0    0    0 -0.00000000000E+00 -0.00000000000E+00 -0.45593999997E+02  0.45594000000E+02  0.51100000000E-03 0.  1.
    9900012    2    1    2    0    0  0.70558636146E+01  0.24490383830E+00  0.40041487133E+02  0.50528857349E+02  0.29999992399E+02 0.  0.
        -12    1    1    2    0    0 -0.70558636146E+01 -0.24490383830E+00 -0.40041487133E+02  0.40659142651E+02  0.00000000000E+00 0.  1.
         11    1    3    3    0    0  0.54069111270E+01 -0.12892978050E+02  0.30390439525E+02  0.33452090902E+02  0.51100000000E-03 0. -1.
        -11    1    3    3    0    0  0.22230520561E+01  0.87059566103E+01  0.39043294291E+01  0.97969091808E+01  0.51100000000E-03 0.  1.
         12    1    3    3    0    0 -0.57409956851E+00  0.44319252784E+01  0.57467181789E+01  0.72798572662E+01  0.00000000000E+00 0. -1.
</event>
<event>
 7    1  0.4962385E-011  0.5052885E+02  0.7816164E-02  0.1300439E+00
        -11   -1    0    0    0    0  0.00000000000E+00  0.00000000000E+00  0.45593999997E+02  0.45594000000E+02  0.51100000000E-03 0.  1.
         11   -1    0    0    0    0 -0.00000000000E+00 -0.00000000000E+00 -0.45593999997E+02  0.45594000000E+02  0.51100000000E-03 0. -1.
    9900012    2    1    2    0    0 -0.33153232219E+02 -0.19445559878E+02 -0.13262726427E+02  0.50528849519E+02  0.29999968597E+02 0.  0.
        -12    1    1    2    0    0  0.33153232219E+02  0.19445559878E+02  0.13262726427E+02  0.40659150481E+02  0.00000000000E+00 0.  1.
         11    1    3    3    0    0 -0.15606042256E+02 -0.22602162377E+02 -0.15068646132E+02  0.31328427914E+02  0.51100000000E-03 0. -1.
        -11    1    3    3    0    0 -0.16666982417E+02  0.42651662167E+01  0.40493872730E+00  0.17208832656E+02  0.51100000000E-03 0.  1.
         12    1    3    3    0    0 -0.88020754642E+00 -0.11085637174E+01  0.14009809783E+01  0.19915889490E+01  0.00000000000E+00 0. -1.
</event>
<event>
 7    1  0.4962385E-011  0.5052877E+02  0.7816164E-02  0.1300439E+00
        -11   -1    0    0    0    0  0.00000000000E+00  0.00000000000E+00  0.45593999997E+02  0.45594000000E+02  0.51100000000E-03 0. -1.
         11   -1    0    0    0    0 -0.00000000000E+00 -0.00000000000E+00 -0.45593999997E+02  0.45594000000E+02  0.51100000000E-03 0.  1.
    9900012    2    1    2    0    0 -0.11919189772E+02 -0.30143823085E+02  0.24544967378E+02  0.50528774988E+02  0.29999742052E+02 0.  0.
        -12    1    1    2    0    0  0.11919189772E+02  0.30143823085E+02 -0.24544967378E+02  0.40659225012E+02  0.00000000000E+00 0.  1.
         11    1    3    3    0    0 -0.10539814259E+02 -0.20635091967E+02  0.12741110775E+02  0.26442968992E+02  0.51100000000E-03 0. -1.
        -11    1    3    3    0    0 -0.32661985184E+01  0.46308958122E+01  0.70594170786E+01  0.90525476268E+01  0.51100000000E-03 0.  1.
        -12    1    3    3    0    0  0.18868230055E+01 -0.14139626930E+02  0.47444395241E+01  0.15033258369E+02  0.00000000000E+00 0.  1.
</event>
<event>
 7    1  0.4962385E-011  0.5052886E+02  0.7816164E-02  0.1300439E+00
        -11   -1    0    0    0    0  0.00000000000E+00  0.00000000000E+00  0.45593999997E+02  0.45594000000E+02  0.51100000000E-03 0. -1.
         11   -1    0    0    0    0 -0.00000000000E+00 -0.00000000000E+00 -0.45593999997E+02  0.45594000000E+02  0.51100000000E-03 0.  1.
    9900012    2    1    2    0    0 -0.65776106278E+01  0.84089936311E-01  0.40123478792E+02  0.50528861015E+02  0.30000003540E+02 0.  0.
        -12    1    1    2    0    0  0.65776106278E+01 -0.84089936311E-01 -0.40123478792E+02  0.40659138985E+02  0.00000000000E+00 0.  1.
         11    1    3    3    0    0 -0.66064643418E+01  0.38004514957E+01  0.49345836899E+01  0.90795880482E+01  0.51100000000E-03 0. -1.
        -11    1    3    3    0    0 -0.40083768061E+01 -0.12012988777E+02  0.19645539219E+02  0.23373621787E+02  0.51100000000E-03 0.  1.
        -12    1    3    3    0    0  0.40372305201E+01  0.82966272178E+01  0.15543355883E+02  0.18075651179E+02  0.00000000000E+00 0.  1.
</event>
<event>
 7    1  0.4962385E-011  0.5052888E+02  0.7816164E-02  0.1300439E+00
        -11   -1    0    0    0    0  0.00000000000E+00  0.00000000000E+00  0.45593999997E+02  0.45594000000E+02  0.51100000000E-03 0. -1.
         11   -1    0    0    0    0 -0.00000000000E+00 -0.00000000000E+00 -0.45593999997E+02  0.45594000000E+02  0.51100000000E-03 0.  1.
    9900012    2    1    2    0    0 -0.25208097362E+02  0.80149678133E+01  0.30878411243E+02  0.50528878483E+02  0.30000056637E+02 0.  0.
        -12    1    1    2    0    0  0.25208097362E+02 -0.80149678133E+01 -0.30878411243E+02  0.40659121517E+02  0.00000000000E+00 0.  1.
         11    1    3    3    0    0 -0.50121962993E+01  0.72334149655E+01  0.26397509390E+02  0.27825759757E+02  0.51100000000E-03 0. -1.
        -11    1    3    3    0    0 -0.37037590977E+01 -0.35297139334E+01  0.16537035424E+00  0.51189900879E+01  0.51100000000E-03 0.  1.
         12    1    3    3    0    0 -0.16492141965E+02  0.43112667811E+01  0.43155314984E+01  0.17584128638E+02  0.00000000000E+00 0. -1.
</event>
<event>
 7    1  0.4962385E-011  0.5052886E+02  0.7816164E-02  0.1300439E+00
        -11   -1    0    0    0    0  0.00000000000E+00  0.00000000000E+00  0.45593999997E+02  0.45594000000E+02  0.51100000000E-03 0.  1.
         11   -1    0    0    0    0 -0.00000000000E+00 -0.00000000000E+00 -0.45593999997E+02  0.45594000000E+02  0.51100000000E-03 0. -1.
    9900012    2    1    2    0    0 -0.15052945244E+02  0.37766991351E+02 -0.47852659837E+00  0.50528858544E+02  0.29999996031E+02 0.  0.
        -12    1    1    2    0    0  0.15052945244E+02 -0.37766991351E+02  0.47852659837E+00  0.40659141456E+02  0.00000000000E+00 0.  1.
         11    1    3    3    0    0  0.74890358939E+00  0.21287008733E+02  0.47735622081E+01  0.21828524774E+02  0.51100000000E-03 0. -1.
        -11    1    3    3    0    0 -0.19085450184E+02  0.11711047150E+02 -0.36033278037E+01  0.22680101535E+02  0.51100000000E-03 0.  1.
         12    1    3    3    0    0  0.32836013512E+01  0.47689354677E+01 -0.16487610028E+01  0.60202322358E+01  0.00000000000E+00 0. -1.
</event>
<event>
 7    1  0.4962385E-011  0.5052886E+02  0.7816164E-02  0.1300439E+00
        -11   -1    0    0    0    0  0.00000000000E+00  0.00000000000E+00  0.45593999997E+02  0.45594000000E+02  0.51100000000E-03 0.  1.
         11   -1    0    0    0    0 -0.00000000000E+00 -0.00000000000E+00 -0.45593999997E+02  0.45594000000E+02  0.51100000000E-03 0. -1.
    9900012    2    1    2    0    0 -0.40300554542E+02 -0.42386389889E+01  0.33264236884E+01  0.50528857714E+02  0.29999993507E+02 0.  0.
        -12    1    1    2    0    0  0.40300554542E+02  0.42386389889E+01 -0.33264236884E+01  0.40659142286E+02  0.00000000000E+00 0.  1.
         11    1    3    3    0    0 -0.19187352834E+01  0.61808145019E+01  0.71167759744E-01  0.64721772307E+01  0.51100000000E-03 0.  1.
        -11    1    3    3    0    0 -0.19336210773E+02 -0.14484164383E+02 -0.76475024728E+00  0.24171572314E+02  0.51100000000E-03 0. -1.
         12    1    3    3    0    0 -0.19045608486E+02  0.40647108921E+01  0.40200061759E+01  0.19885108169E+02  0.00000000000E+00 0. -1.
</event>
<event>
 7    1  0.4962385E-011  0.5052886E+02  0.7816164E-02  0.1300439E+00
        -11   -1    0    0    0    0  0.00000000000E+00  0.00000000000E+00  0.45593999997E+02  0.45594000000E+02  0.51100000000E-03 0.  1.
         11   -1    0    0    0    0 -0.00000000000E+00 -0.00000000000E+00 -0.45593999997E+02  0.45594000000E+02  0.51100000000E-03 0. -1.
    9900012    2    1    2    0    0 -0.32838859898E+02  0.78423680506E+01 -0.22655512878E+02  0.50528859333E+02  0.29999998429E+02 0.  0.
        -12    1    1    2    0    0  0.32838859898E+02 -0.78423680506E+01  0.22655512878E+02  0.40659140667E+02  0.00000000000E+00 0.  1.
         11    1    3    3    0    0 -0.16990171065E+02  0.14803641265E+02 -0.11017110384E+02  0.25083668571E+02  0.51100000000E-03 0. -1.
        -11    1    3    3    0    0 -0.14522374542E+02 -0.10967834249E+02 -0.10735800790E+02  0.21129367462E+02  0.51100000000E-03 0.  1.
        -12    1    3    3    0    0 -0.13263142905E+01  0.40065610352E+01 -0.90260170384E+00  0.43158233006E+01  0.00000000000E+00 0.  1.
</event>
<event>
 7    1  0.4962385E-011  0.5052886E+02  0.7816164E-02  0.1300439E+00
        -11   -1    0    0    0    0  0.00000000000E+00  0.00000000000E+00  0.45593999997E+02  0.45594000000E+02  0.51100000000E-03 0.  1.
         11   -1    0    0    0    0 -0.00000000000E+00 -0.00000000000E+00 -0.45593999997E+02  0.45594000000E+02  0.51100000000E-03 0. -1.
    9900012    2    1    2    0    0 -0.84716064349E+01 -0.34917537787E+02 -0.19030588132E+02  0.50528857789E+02  0.29999993734E+02 0.  0.
        -12    1    1    2    0    0  0.84716064349E+01  0.34917537787E+02  0.19030588132E+02  0.40659142211E+02  0.00000000000E+00 0.  1.
         11    1    3    3    0    0 -0.14101464586E+02 -0.14400274610E+02 -0.35554703547E+01  0.20466083700E+02  0.51100000000E-03 0.  1.
        -11    1    3    3    0    0  0.10036234206E+02 -0.16692537580E+02 -0.93567041310E+01  0.21608209559E+02  0.51100000000E-03 0. -1.
         12    1    3    3    0    0 -0.44063760548E+01 -0.38247255978E+01 -0.61184136462E+01  0.84545645294E+01  0.00000000000E+00 0. -1.
</event>
<event>
 7    1  0.4962385E-011  0.5052885E+02  0.7816164E-02  0.1300439E+00
        -11   -1    0    0    0    0  0.00000000000E+00  0.00000000000E+00  0.45593999997E+02  0.45594000000E+02  0.51100000000E-03 0.  1.
         11   -1    0    0    0    0 -0.00000000000E+00 -0.00000000000E+00 -0.45593999997E+02  0.45594000000E+02  0.51100000000E-03 0. -1.
    9900012    2    1    2    0    0 -0.19152615694E+02 -0.35758035578E+02  0.27760311305E+01  0.50528854102E+02  0.29999982529E+02 0.  0.
        -12    1    1    2    0    0  0.19152615694E+02  0.35758035578E+02 -0.27760311305E+01  0.40659145898E+02  0.00000000000E+00 0.  1.
         11    1    3    3    0    0 -0.10853178939E+02 -0.21807069108E+02 -0.54462243707E+01  0.24959990311E+02  0.51100000000E-03 0. -1.
        -11    1    3    3    0    0  0.18282907086E+01 -0.59653911392E+00  0.85917685771E+01  0.88043735367E+01  0.51100000000E-03 0.  1.
        -12    1    3    3    0    0 -0.10127727464E+02 -0.13354427356E+02 -0.36951307592E+00  0.16764490255E+02  0.00000000000E+00 0.  1.
</event>
<event>
 7    1  0.4962385E-011  0.5052886E+02  0.7816164E-02  0.1300439E+00
        -11   -1    0    0    0    0  0.00000000000E+00  0.00000000000E+00  0.45593999997E+02  0.45594000000E+02  0.51100000000E-03 0.  1.
         11   -1    0    0    0    0 -0.00000000000E+00 -0.00000000000E+00 -0.45593999997E+02  0.45594000000E+02  0.51100000000E-03 0. -1.
    9900012    2    1    2    0    0  0.45450618310E+01 -0.24413524869E+02 -0.32194531336E+02  0.50528860418E+02  0.30000001728E+02 0.  0.
        -12    1    1    2    0    0 -0.45450618310E+01  0.24413524869E+02  0.32194531336E+02  0.40659139582E+02  0.00000000000E+00 0.  1.
         11    1    3    3    0    0 -0.60049295109E+01 -0.94517860622E+01 -0.13320763374E+02  0.17402246272E+02  0.51100000000E-03 0. -1.
        -11    1    3    3    0    0  0.16326518068E+02 -0.80157058913E+01 -0.12794204880E+02  0.22237320251E+02  0.51100000000E-03 0.  1.
        -12    1    3    3    0    0 -0.57765267259E+01 -0.69460329156E+01 -0.60795630815E+01  0.10889293895E+02  0.00000000000E+00 0.  1.
</event>
<event>
 7    1  0.4962385E-011  0.5052886E+02  0.7816164E-02  0.1300439E+00
        -11   -1    0    0    0    0  0.00000000000E+00  0.00000000000E+00  0.45593999997E+02  0.45594000000E+02  0.51100000000E-03 0.  1.
         11   -1    0    0    0    0 -0.00000000000E+00 -0.00000000000E+00 -0.45593999997E+02  0.45594000000E+02  0.51100000000E-03 0. -1.
    9900012    2    1    2    0    0  0.22425450739E+02 -0.31724612955E+02 -0.11992242594E+02  0.50528858464E+02  0.29999995788E+02 0.  0.
        -12    1    1    2    0    0 -0.22425450739E+02  0.31724612955E+02  0.11992242594E+02  0.40659141536E+02  0.00000000000E+00 0.  1.
         11    1    3    3    0    0  0.17770572426E+01 -0.17449268505E+02 -0.52122967933E+01  0.18297621210E+02  0.51100000000E-03 0. -1.
        -11    1    3    3    0    0  0.23711391329E+02 -0.11535023183E+02 -0.28109064563E+01  0.26517692848E+02  0.51100000000E-03 0.  1.
        -12    1    3    3    0    0 -0.30629978327E+01 -0.27403212666E+01 -0.39690393446E+01  0.57135444066E+01  0.00000000000E+00 0.  1.
</event>
<event>
 7    1  0.4962385E-011  0.5052883E+02  0.7816164E-02  0.1300439E+00
        -11   -1    0    0    0    0  0.00000000000E+00  0.00000000000E+00  0.45593999997E+02  0.45594000000E+02  0.51100000000E-03 0.  1.
         11   -1    0    0    0    0 -0.00000000000E+00 -0.00000000000E+00 -0.45593999997E+02  0.45594000000E+02  0.51100000000E-03 0. -1.
    9900012    2    1    2    0    0 -0.16179322935E+02  0.47229797713E+00 -0.37298453823E+02  0.50528828666E+02  0.29999905212E+02 0.  0.
        -12    1    1    2    0    0  0.16179322935E+02 -0.47229797713E+00  0.37298453823E+02  0.40659171334E+02  0.00000000000E+00 0.  1.
         11    1    3    3    0    0 -0.45985898869E+01  0.24927762430E+01 -0.13451146937E+02  0.14432405085E+02  0.51100000000E-03 0. -1.
        -11    1    3    3    0    0  0.19223560877E+01 -0.99358552504E+01 -0.41511175312E+01  0.10938393369E+02  0.51100000000E-03 0.  1.
        -12    1    3    3    0    0 -0.13503089136E+02  0.79153769845E+01 -0.19696189354E+02  0.25158030211E+02  0.00000000000E+00 0.  1.
</event>
<event>
 7    1  0.4962385E-011  0.5052886E+02  0.7816164E-02  0.1300439E+00
        -11   -1    0    0    0    0  0.00000000000E+00  0.00000000000E+00  0.45593999997E+02  0.45594000000E+02  0.51100000000E-03 0.  1.
         11   -1    0    0    0    0 -0.00000000000E+00 -0.00000000000E+00 -0.45593999997E+02  0.45594000000E+02  0.51100000000E-03 0. -1.
    9900012    2    1    2    0    0  0.16380680412E+02 -0.10907807173E+02 -0.35578909511E+02  0.50528858960E+02  0.29999997295E+02 0.  0.
        -12    1    1    2    0    0 -0.16380680412E+02  0.10907807173E+02  0.35578909511E+02  0.40659141040E+02  0.00000000000E+00 0.  1.
         11    1    3    3    0    0  0.16249563840E+02 -0.91811554980E+01 -0.88152416338E+01  0.20640988993E+02  0.51100000000E-03 0. -1.
        -11    1    3    3    0    0 -0.57036972993E+00  0.50809220984E+01 -0.18314604300E+02  0.19014884220E+02  0.51100000000E-03 0.  1.
        -12    1    3    3    0    0  0.70148630218E+00 -0.68075737735E+01 -0.84490635778E+01  0.10872985747E+02  0.00000000000E+00 0.  1.
</event>
<event>
 7    1  0.4962385E-011  0.5052885E+02  0.7816164E-02  0.1300439E+00
        -11   -1    0    0    0    0  0.00000000000E+00  0.00000000000E+00  0.45593999997E+02  0.45594000000E+02  0.51100000000E-03 0.  1.
         11   -1    0    0    0    0 -0.00000000000E+00 -0.00000000000E+00 -0.45593999997E+02  0.45594000000E+02  0.51100000000E-03 0. -1.
    9900012    2    1    2    0    0 -0.30258772975E+02 -0.24418939904E+02 -0.11886479935E+02  0.50528851297E+02  0.29999974003E+02 0.  0.
        -12    1    1    2    0    0  0.30258772975E+02  0.24418939904E+02  0.11886479935E+02  0.40659148703E+02  0.00000000000E+00 0.  1.
         11    1    3    3    0    0 -0.23790627191E+02 -0.15164703988E+02 -0.18611481714E+02  0.33798660344E+02  0.51100000000E-03 0. -1.
        -11    1    3    3    0    0 -0.25835297171E+01  0.20697296134E+01  0.98682247690E+00  0.34543053330E+01  0.51100000000E-03 0.  1.
         12    1    3    3    0    0 -0.38846160669E+01 -0.11323965529E+02  0.57381793023E+01  0.13275885620E+02  0.00000000000E+00 0. -1.
</event>
<event>
 7    1  0.4962385E-011  0.5052885E+02  0.7816164E-02  0.1300439E+00
        -11   -1    0    0    0    0  0.00000000000E+00  0.00000000000E+00  0.45593999997E+02  0.45594000000E+02  0.51100000000E-03 0.  1.
         11   -1    0    0    0    0 -0.00000000000E+00 -0.00000000000E+00 -0.45593999997E+02  0.45594000000E+02  0.51100000000E-03 0. -1.
    9900012    2    1    2    0    0 -0.16779662657E+02  0.26549309569E+02 -0.25821374430E+02  0.50528852260E+02  0.29999976930E+02 0.  0.
        -12    1    1    2    0    0  0.16779662657E+02 -0.26549309569E+02  0.25821374430E+02  0.40659147740E+02  0.00000000000E+00 0.  1.
         11    1    3    3    0    0 -0.19686034064E+02  0.13462430477E+02 -0.23134548333E+02  0.33226259169E+02  0.51100000000E-03 0. -1.
        -11    1    3    3    0    0  0.23030729605E+01  0.14466816489E+02 -0.41265241794E+01  0.15219103996E+02  0.51100000000E-03 0.  1.
        -12    1    3    3    0    0  0.60329844730E+00 -0.13799373974E+01  0.14396980826E+01  0.20834890943E+01  0.00000000000E+00 0.  1.
</event>
<event>
 7    1  0.4962385E-011  0.5052885E+02  0.7816164E-02  0.1300439E+00
        -11   -1    0    0    0    0  0.00000000000E+00  0.00000000000E+00  0.45593999997E+02  0.45594000000E+02  0.51100000000E-03 0.  1.
         11   -1    0    0    0    0 -0.00000000000E+00 -0.00000000000E+00 -0.45593999997E+02  0.45594000000E+02  0.51100000000E-03 0. -1.
    9900012    2    1    2    0    0 -0.15043185132E+02 -0.88205394746E+01 -0.36729648023E+02  0.50528851222E+02  0.29999973773E+02 0.  0.
        -12    1    1    2    0    0  0.15043185132E+02  0.88205394746E+01  0.36729648023E+02  0.40659148778E+02  0.00000000000E+00 0.  1.
         11    1    3    3    0    0 -0.85791093537E+01 -0.97896447198E+01 -0.11619287736E+02  0.17448384132E+02  0.51100000000E-03 0. -1.
        -11    1    3    3    0    0  0.22693306115E+01  0.69810381855E+01 -0.19295850334E+01  0.75899969851E+01  0.51100000000E-03 0.  1.
        -12    1    3    3    0    0 -0.87334063894E+01 -0.60119329403E+01 -0.23180775253E+02  0.25490470105E+02  0.00000000000E+00 0.  1.
</event>
<event>
 7    1  0.4962385E-011  0.5052886E+02  0.7816164E-02  0.1300439E+00
        -11   -1    0    0    0    0  0.00000000000E+00  0.00000000000E+00  0.45593999997E+02  0.45594000000E+02  0.51100000000E-03 0.  1.
         11   -1    0    0    0    0 -0.00000000000E+00 -0.00000000000E+00 -0.45593999997E+02  0.45594000000E+02  0.51100000000E-03 0. -1.
    9900012    2    1    2    0    0  0.21092522555E+02 -0.81464248779E+01 -0.33792114770E+02  0.50528858757E+02  0.29999996677E+02 0.  0.
        -12    1    1    2    0    0 -0.21092522555E+02  0.81464248779E+01  0.33792114770E+02  0.40659141243E+02  0.00000000000E+00 0.  1.
         11    1    3    3    0    0 -0.32354030542E+00 -0.75162086169E+01 -0.76978679294E+01  0.10763607259E+02  0.51100000000E-03 0. -1.
        -11    1    3    3    0    0  0.25515669417E+02  0.11285307866E+01 -0.21965393956E+02  0.33686814920E+02  0.51100000000E-03 0.  1.
        -12    1    3    3    0    0 -0.40996065563E+01 -0.17587470477E+01 -0.41288528844E+01  0.60784365782E+01  0.00000000000E+00 0.  1.
</event>
<event>
 7    1  0.4962385E-011  0.5052887E+02  0.7816164E-02  0.1300439E+00
        -11   -1    0    0    0    0  0.00000000000E+00  0.00000000000E+00  0.45593999997E+02  0.45594000000E+02  0.51100000000E-03 0.  1.
         11   -1    0    0    0    0 -0.00000000000E+00 -0.00000000000E+00 -0.45593999997E+02  0.45594000000E+02  0.51100000000E-03 0. -1.
    9900012    2    1    2    0    0  0.17962986236E+02 -0.18915070359E+02 -0.31188393436E+02  0.50528872534E+02  0.30000038553E+02 0.  0.
        -12    1    1    2    0    0 -0.17962986236E+02  0.18915070359E+02  0.31188393436E+02  0.40659127466E+02  0.00000000000E+00 0.  1.
         11    1    3    3    0    0  0.73870210567E+01 -0.91617776798E+01 -0.30637126529E+02  0.32819807625E+02  0.51100000000E-03 0. -1.
        -11    1    3    3    0    0  0.32378684712E+01  0.17869043807E+01 -0.15216185446E+01  0.39990177243E+01  0.51100000000E-03 0.  1.
         12    1    3    3    0    0  0.73380967083E+01 -0.11540197060E+02  0.97035163765E+00  0.13710047184E+02  0.00000000000E+00 0. -1.
</event>
<event>
 7    1  0.4962385E-011  0.5052886E+02  0.7816164E-02  0.1300439E+00
        -11   -1    0    0    0    0  0.00000000000E+00  0.00000000000E+00  0.45593999997E+02  0.45594000000E+02  0.51100000000E-03 0.  1.
         11   -1    0    0    0    0 -0.00000000000E+00 -0.00000000000E+00 -0.45593999997E+02  0.45594000000E+02  0.51100000000E-03 0. -1.
    9900012    2    1    2    0    0  0.20387631650E+02 -0.82167548386E+01 -0.34205194761E+02  0.50528856710E+02  0.29999990456E+02 0.  0.
        -12    1    1    2    0    0 -0.20387631650E+02  0.82167548386E+01  0.34205194761E+02  0.40659143290E+02  0.00000000000E+00 0.  1.
         11    1    3    3    0    0  0.38487139033E+01  0.94805254215E+00 -0.14139847875E+02  0.14684914046E+02  0.51100000000E-03 0. -1.
        -11    1    3    3    0    0  0.16852758001E+02 -0.14020990646E+02 -0.88929261664E+01  0.23657721087E+02  0.51100000000E-03 0.  1.
        -12    1    3    3    0    0 -0.31384025427E+00  0.48561832652E+01 -0.11172420720E+02  0.12186221578E+02  0.00000000000E+00 0.  1.
</event>
<event>
 7    1  0.4962385E-011  0.5052886E+02  0.7816164E-02  0.1300439E+00
        -11   -1    0    0    0    0  0.00000000000E+00  0.00000000000E+00  0.45593999997E+02  0.45594000000E+02  0.51100000000E-03 0.  1.
         11   -1    0    0    0    0 -0.00000000000E+00 -0.00000000000E+00 -0.45593999997E+02  0.45594000000E+02  0.51100000000E-03 0. -1.
    9900012    2    1    2    0    0 -0.29540306799E+02  0.13004604761E+02 -0.24726834230E+02  0.50528858324E+02  0.29999995363E+02 0.  0.
        -12    1    1    2    0    0  0.29540306799E+02 -0.13004604761E+02  0.24726834230E+02  0.40659141676E+02  0.00000000000E+00 0.  1.
         11    1    3    3    0    0 -0.13636463784E+02  0.11929716981E+02 -0.19408437458E+02  0.26551059049E+02  0.51100000000E-03 0. -1.
        -11    1    3    3    0    0 -0.88112776405E+01 -0.51452119373E+00  0.58956295402E+01  0.10614226004E+02  0.51100000000E-03 0.  1.
        -12    1    3    3    0    0 -0.70925653740E+01  0.15894089733E+01 -0.11214026312E+02  0.13363573272E+02  0.00000000000E+00 0.  1.
</event>
<event>
 7    1  0.4962385E-011  0.5052888E+02  0.7816164E-02  0.1300439E+00
        -11   -1    0    0    0    0  0.00000000000E+00  0.00000000000E+00  0.45593999997E+02  0.45594000000E+02  0.51100000000E-03 0.  1.
         11   -1    0    0    0    0 -0.00000000000E+00 -0.00000000000E+00 -0.45593999997E+02  0.45594000000E+02  0.51100000000E-03 0. -1.
    9900012    2    1    2    0    0  0.25950918289E+02  0.56920891470E+00 -0.31295202273E+02  0.50528882398E+02  0.30000068536E+02 0.  0.
        -12    1    1    2    0    0 -0.25950918289E+02 -0.56920891470E+00  0.31295202273E+02  0.40659117602E+02  0.00000000000E+00 0.  1.
         11    1    3    3    0    0  0.86400779469E+01  0.17814497531E+01 -0.28408675899E+02  0.29746888522E+02  0.51100000000E-03 0. -1.
        -11    1    3    3    0    0  0.36511524338E+00  0.50465143888E+00  0.27666181961E+01  0.28358700111E+01  0.51100000000E-03 0.  1.
         12    1    3    3    0    0  0.16945725099E+02 -0.17168922773E+01 -0.56531445703E+01  0.17946123865E+02  0.00000000000E+00 0. -1.
</event>
<event>
 7    1  0.4962385E-011  0.5052886E+02  0.7816164E-02  0.1300439E+00
        -11   -1    0    0    0    0  0.00000000000E+00  0.00000000000E+00  0.45593999997E+02  0.45594000000E+02  0.51100000000E-03 0.  1.
         11   -1    0    0    0    0 -0.00000000000E+00 -0.00000000000E+00 -0.45593999997E+02  0.45594000000E+02  0.51100000000E-03 0. -1.
    9900012    2    1    2    0    0 -0.28657341278E+02  0.91934486979E+00 -0.28828410333E+02  0.50528860235E+02  0.30000001169E+02 0.  0.
        -12    1    1    2    0    0  0.28657341278E+02 -0.91934486979E+00  0.28828410333E+02  0.40659139765E+02  0.00000000000E+00 0.  1.
         11    1    3    3    0    0 -0.12741186710E+02  0.75590161259E-01 -0.25681748861E+02  0.28668724727E+02  0.51100000000E-03 0. -1.
        -11    1    3    3    0    0 -0.14336221915E+02  0.46765859998E+01  0.20434571937E+01  0.15217537020E+02  0.51100000000E-03 0.  1.
         12    1    3    3    0    0 -0.15799326533E+01 -0.38328312912E+01 -0.51901186656E+01  0.66425984869E+01  0.00000000000E+00 0. -1.
</event>
<event>
 7    1  0.4962385E-011  0.5052884E+02  0.7816164E-02  0.1300439E+00
        -11   -1    0    0    0    0  0.00000000000E+00  0.00000000000E+00  0.45593999997E+02  0.45594000000E+02  0.51100000000E-03 0.  1.
         11   -1    0    0    0    0 -0.00000000000E+00 -0.00000000000E+00 -0.45593999997E+02  0.45594000000E+02  0.51100000000E-03 0. -1.
    9900012    2    1    2    0    0  0.52913395819E+01 -0.37301365644E+02 -0.15289765346E+02  0.50528842632E+02  0.29999947665E+02 0.  0.
        -12    1    1    2    0    0 -0.52913395819E+01  0.37301365644E+02  0.15289765346E+02  0.40659157368E+02  0.00000000000E+00 0.  1.
         11    1    3    3    0    0  0.30666407860E+01 -0.11404683696E+02 -0.17095908838E+02  0.20778382882E+02  0.51100000000E-03 0. -1.
        -11    1    3    3    0    0 -0.25088708247E+01 -0.21611672137E+02 -0.27168557418E+01  0.21925786435E+02  0.51100000000E-03 0.  1.
         12    1    3    3    0    0  0.47335696206E+01 -0.42850098104E+01  0.45229992336E+01  0.78246733156E+01  0.00000000000E+00 0. -1.
</event>
<event>
 7    1  0.4962385E-011  0.5052886E+02  0.7816164E-02  0.1300439E+00
        -11   -1    0    0    0    0  0.00000000000E+00  0.00000000000E+00  0.45593999997E+02  0.45594000000E+02  0.51100000000E-03 0.  1.
         11   -1    0    0    0    0 -0.00000000000E+00 -0.00000000000E+00 -0.45593999997E+02  0.45594000000E+02  0.51100000000E-03 0. -1.
    9900012    2    1    2    0    0 -0.23438515612E+02  0.11975873147E+01 -0.33201915746E+02  0.50528862790E+02  0.30000008936E+02 0.  0.
        -12    1    1    2    0    0  0.23438515612E+02 -0.11975873147E+01  0.33201915746E+02  0.40659137210E+02  0.00000000000E+00 0.  1.
         11    1    3    3    0    0 -0.86831644378E+01 -0.16781629092E+01 -0.16141600761E+02  0.18405565755E+02  0.51100000000E-03 0. -1.
        -11    1    3    3    0    0 -0.16582125312E+02  0.97500787170E+01 -0.86024301487E+01  0.21072083893E+02  0.51100000000E-03 0.  1.
        -12    1    3    3    0    0  0.18267741381E+01 -0.68743284931E+01 -0.84578848368E+01  0.11051213141E+02  0.00000000000E+00 0.  1.
</event>
<event>
 7    1  0.4962385E-011  0.5052885E+02  0.7816164E-02  0.1300439E+00
        -11   -1    0    0    0    0  0.00000000000E+00  0.00000000000E+00  0.45593999997E+02  0.45594000000E+02  0.51100000000E-03 0.  1.
         11   -1    0    0    0    0 -0.00000000000E+00 -0.00000000000E+00 -0.45593999997E+02  0.45594000000E+02  0.51100000000E-03 0. -1.
    9900012    2    1    2    0    0  0.21557617065E+02 -0.33596791400E+02 -0.77260025841E+01  0.50528851438E+02  0.29999974430E+02 0.  0.
        -12    1    1    2    0    0 -0.21557617065E+02  0.33596791400E+02  0.77260025841E+01  0.40659148562E+02  0.00000000000E+00 0.  1.
         11    1    3    3    0    0  0.14267610426E+02 -0.27117342506E+02  0.27852396928E+01  0.30768044011E+02  0.51100000000E-03 0. -1.
        -11    1    3    3    0    0  0.54433085865E+01 -0.93858618080E+01 -0.11849368219E+02  0.16066472472E+02  0.51100000000E-03 0.  1.
         12    1    3    3    0    0  0.18466980523E+01  0.29064129137E+01  0.13381259425E+01  0.36943349549E+01  0.00000000000E+00 0. -1.
</event>
<event>
 7    1  0.4962385E-011  0.5052886E+02  0.7816164E-02  0.1300439E+00
        -11   -1    0    0    0    0  0.00000000000E+00  0.00000000000E+00  0.45593999997E+02  0.45594000000E+02  0.51100000000E-03 0.  1.
         11   -1    0    0    0    0 -0.00000000000E+00 -0.00000000000E+00 -0.45593999997E+02  0.45594000000E+02  0.51100000000E-03 0. -1.
    9900012    2    1    2    0    0 -0.78922859471E+01 -0.97063872676E+01 -0.38686735395E+02  0.50528860476E+02  0.30000001904E+02 0.  0.
        -12    1    1    2    0    0  0.78922859471E+01  0.97063872676E+01  0.38686735395E+02  0.40659139524E+02  0.00000000000E+00 0.  1.
         11    1    3    3    0    0  0.79164259967E+01 -0.32657257581E-02 -0.54388253978E+01  0.96047193189E+01  0.51100000000E-03 0.  1.
        -11    1    3    3    0    0 -0.91963848527E+01 -0.42980038222E+01 -0.30193065812E+02  0.31853846778E+02  0.51100000000E-03 0. -1.
        -12    1    3    3    0    0 -0.66123270911E+01 -0.54051177196E+01 -0.30548441859E+01  0.90702943791E+01  0.00000000000E+00 0.  1.
</event>
<event>
 7    1  0.4962385E-011  0.5052886E+02  0.7816164E-02  0.1300439E+00
        -11   -1    0    0    0    0  0.00000000000E+00  0.00000000000E+00  0.45593999997E+02  0.45594000000E+02  0.51100000000E-03 0.  1.
         11   -1    0    0    0    0 -0.00000000000E+00 -0.00000000000E+00 -0.45593999997E+02  0.45594000000E+02  0.51100000000E-03 0. -1.
    9900012    2    1    2    0    0 -0.27040416928E+02  0.16375754207E+01 -0.30319955867E+02  0.50528861732E+02  0.30000005721E+02 0.  0.
        -12    1    1    2    0    0  0.27040416928E+02 -0.16375754207E+01  0.30319955867E+02  0.40659138268E+02  0.00000000000E+00 0.  1.
         11    1    3    3    0    0 -0.41753016002E+01 -0.65472982755E+01  0.16585143238E+01  0.79404614592E+01  0.51100000000E-03 0. -1.
        -11    1    3    3    0    0 -0.72450863081E+01  0.85797775159E+01 -0.73484021547E+01  0.13420241142E+02  0.51100000000E-03 0.  1.
         12    1    3    3    0    0 -0.15620029019E+02 -0.39490381968E+00 -0.24630068036E+02  0.29168159131E+02  0.00000000000E+00 0. -1.
</event>
<event>
 7    1  0.4962385E-011  0.5052886E+02  0.7816164E-02  0.1300439E+00
        -11   -1    0    0    0    0  0.00000000000E+00  0.00000000000E+00  0.45593999997E+02  0.45594000000E+02  0.51100000000E-03 0.  1.
         11   -1    0    0    0    0 -0.00000000000E+00 -0.00000000000E+00 -0.45593999997E+02  0.45594000000E+02  0.51100000000E-03 0. -1.
    9900012    2    1    2    0    0  0.21858263864E+02  0.11553192052E+02 -0.32278568085E+02  0.50528857075E+02  0.29999991566E+02 0.  0.
        -12    1    1    2    0    0 -0.21858263864E+02 -0.11553192052E+02  0.32278568085E+02  0.40659142925E+02  0.00000000000E+00 0.  1.
         11    1    3    3    0    0  0.17637871711E+02  0.19399291824E+01 -0.32375871155E+02  0.36919573088E+02  0.51100000000E-03 0. -1.
        -11    1    3    3    0    0  0.41489523923E+01  0.31731022449E+00  0.96859780148E+00  0.42723147935E+01  0.51100000000E-03 0.  1.
         12    1    3    3    0    0  0.71439760871E-01  0.92959526447E+01 -0.87129473220E+00  0.93369691937E+01  0.00000000000E+00 0. -1.
</event>
<event>
 7    1  0.4962385E-011  0.5052886E+02  0.7816164E-02  0.1300439E+00
        -11   -1    0    0    0    0  0.00000000000E+00  0.00000000000E+00  0.45593999997E+02  0.45594000000E+02  0.51100000000E-03 0.  1.
         11   -1    0    0    0    0 -0.00000000000E+00 -0.00000000000E+00 -0.45593999997E+02  0.45594000000E+02  0.51100000000E-03 0. -1.
    9900012    2    1    2    0    0  0.35261119800E+02  0.11564825470E+02 -0.16615478366E+02  0.50528857374E+02  0.29999992475E+02 0.  0.
        -12    1    1    2    0    0 -0.35261119800E+02 -0.11564825470E+02  0.16615478366E+02  0.40659142626E+02  0.00000000000E+00 0.  1.
         11    1    3    3    0    0  0.15402391183E+02  0.32968934408E+00 -0.18467708232E+02  0.24049918853E+02  0.51100000000E-03 0. -1.
        -11    1    3    3    0    0  0.19663942194E+02  0.81154983421E+01 -0.21720077898E+01  0.21383394353E+02  0.51100000000E-03 0.  1.
         12    1    3    3    0    0  0.19478642286E+00  0.31196377843E+01  0.40242376562E+01  0.50955441681E+01  0.00000000000E+00 0. -1.
</event>
<event>
 7    1  0.4962385E-011  0.5052886E+02  0.7816164E-02  0.1300439E+00
        -11   -1    0    0    0    0  0.00000000000E+00  0.00000000000E+00  0.45593999997E+02  0.45594000000E+02  0.51100000000E-03 0.  1.
         11   -1    0    0    0    0 -0.00000000000E+00 -0.00000000000E+00 -0.45593999997E+02  0.45594000000E+02  0.51100000000E-03 0. -1.
    9900012    2    1    2    0    0 -0.20079419345E+01  0.23386798383E+02 -0.33199271847E+02  0.50528858093E+02  0.29999994660E+02 0.  0.
        -12    1    1    2    0    0  0.20079419345E+01 -0.23386798383E+02  0.33199271847E+02  0.40659141907E+02  0.00000000000E+00 0.  1.
         11    1    3    3    0    0  0.71483121356E+01  0.12321189903E+02 -0.93807474840E+01  0.17056040298E+02  0.51100000000E-03 0. -1.
        -11    1    3    3    0    0 -0.69065803080E+01  0.10518163062E+02 -0.26853564075E+02  0.29655463401E+02  0.51100000000E-03 0.  1.
        -12    1    3    3    0    0 -0.22496737621E+01  0.54744541713E+00  0.30350397115E+01  0.38173543942E+01  0.00000000000E+00 0.  1.
</event>
<event>
 7    1  0.4962385E-011  0.5052888E+02  0.7816164E-02  0.1300439E+00
        -11   -1    0    0    0    0  0.00000000000E+00  0.00000000000E+00  0.45593999997E+02  0.45594000000E+02  0.51100000000E-03 0.  1.
         11   -1    0    0    0    0 -0.00000000000E+00 -0.00000000000E+00 -0.45593999997E+02  0.45594000000E+02  0.51100000000E-03 0. -1.
    9900012    2    1    2    0    0 -0.85436731527E+01  0.30842550947E+02 -0.25078015440E+02  0.50528878536E+02  0.30000056797E+02 0.  0.
        -12    1    1    2    0    0  0.85436731527E+01 -0.30842550947E+02  0.25078015440E+02  0.40659121464E+02  0.00000000000E+00 0.  1.
         11    1    3    3    0    0 -0.66779609986E+01  0.25683504415E+02 -0.50893174372E+01  0.27021079075E+02  0.51100000000E-03 0. -1.
        -11    1    3    3    0    0 -0.43551503224E+01  0.19935451271E+01 -0.18663394916E+02  0.19268208701E+02  0.51100000000E-03 0.  1.
        -12    1    3    3    0    0  0.24894381683E+01  0.31655014046E+01 -0.13253030868E+01  0.42395907596E+01  0.00000000000E+00 0.  1.
</event>
<event>
 7    1  0.4962385E-011  0.5052889E+02  0.7816164E-02  0.1300439E+00
        -11   -1    0    0    0    0  0.00000000000E+00  0.00000000000E+00  0.45593999997E+02  0.45594000000E+02  0.51100000000E-03 0.  1.
         11   -1    0    0    0    0 -0.00000000000E+00 -0.00000000000E+00 -0.45593999997E+02  0.45594000000E+02  0.51100000000E-03 0. -1.
    9900012    2    1    2    0    0 -0.32450843214E+02 -0.26761202817E+01 -0.24350453875E+02  0.50528887258E+02  0.30000083310E+02 0.  0.
        -12    1    1    2    0    0  0.32450843214E+02  0.26761202817E+01  0.24350453875E+02  0.40659112742E+02  0.00000000000E+00 0.  1.
         11    1    3    3    0    0 -0.12856759034E+02 -0.25543001783E-01 -0.21914483753E+02  0.25407508806E+02  0.51100000000E-03 0. -1.
        -11    1    3    3    0    0 -0.20077067016E+02 -0.43796352337E+01 -0.57620197279E+01  0.21341759449E+02  0.51100000000E-03 0.  1.
         12    1    3    3    0    0  0.48298283636E+00  0.17290579538E+01  0.33260496063E+01  0.37796190035E+01  0.00000000000E+00 0. -1.
</event>
<event>
 7    1  0.4962385E-011  0.5052886E+02  0.7816164E-02  0.1300439E+00
        -11   -1    0    0    0    0  0.00000000000E+00  0.00000000000E+00  0.45593999997E+02  0.45594000000E+02  0.51100000000E-03 0.  1.
         11   -1    0    0    0    0 -0.00000000000E+00 -0.00000000000E+00 -0.45593999997E+02  0.45594000000E+02  0.51100000000E-03 0. -1.
    9900012    2    1    2    0    0 -0.21009777172E+02  0.29640654158E+02 -0.18253403558E+02  0.50528857644E+02  0.29999993294E+02 0.  0.
        -12    1    1    2    0    0  0.21009777172E+02 -0.29640654158E+02  0.18253403558E+02  0.40659142356E+02  0.00000000000E+00 0.  1.
         11    1    3    3    0    0  0.47867539417E+01  0.11832969301E+01 -0.91151641588E+01  0.10363369280E+02  0.51100000000E-03 0. -1.
        -11    1    3    3    0    0 -0.25038864039E+02  0.24969607847E+02 -0.71397144994E+01  0.36074943545E+02  0.51100000000E-03 0.  1.
         12    1    3    3    0    0 -0.75766707391E+00  0.34877493812E+01 -0.19985248996E+01  0.40905448189E+01  0.00000000000E+00 0. -1.
</event>
<event>
 7    1  0.4962385E-011  0.5052885E+02  0.7816164E-02  0.1300439E+00
        -11   -1    0    0    0    0  0.00000000000E+00  0.00000000000E+00  0.45593999997E+02  0.45594000000E+02  0.51100000000E-03 0. -1.
         11   -1    0    0    0    0 -0.00000000000E+00 -0.00000000000E+00 -0.45593999997E+02  0.45594000000E+02  0.51100000000E-03 0.  1.
    9900012    2    1    2    0    0  0.58252996037E+01 -0.39913536310E+02 -0.51129125973E+01  0.50528851319E+02  0.29999974070E+02 0.  0.
        -12    1    1    2    0    0 -0.58252996037E+01  0.39913536310E+02  0.51129125973E+01  0.40659148681E+02  0.00000000000E+00 0.  1.
         11    1    3    3    0    0  0.75641360324E+01 -0.34260285064E+02 -0.78539146692E+01  0.35953682183E+02  0.51100000000E-03 0. -1.
        -11    1    3    3    0    0 -0.31366217239E+01  0.16132229105E+00 -0.43078865741E+01  0.53312576112E+01  0.51100000000E-03 0.  1.
         12    1    3    3    0    0  0.13977852953E+01 -0.58145735364E+01  0.70488886461E+01  0.92439115253E+01  0.00000000000E+00 0. -1.
</event>
<event>
 7    1  0.4962385E-011  0.5052891E+02  0.7816164E-02  0.1300439E+00
        -11   -1    0    0    0    0  0.00000000000E+00  0.00000000000E+00  0.45593999997E+02  0.45594000000E+02  0.51100000000E-03 0. -1.
         11   -1    0    0    0    0 -0.00000000000E+00 -0.00000000000E+00 -0.45593999997E+02  0.45594000000E+02  0.51100000000E-03 0.  1.
    9900012    2    1    2    0    0 -0.23494515677E+02 -0.27436039295E+02  0.18666372372E+02  0.50528905364E+02  0.30000138344E+02 0.  0.
        -12    1    1    2    0    0  0.23494515677E+02  0.27436039295E+02 -0.18666372372E+02  0.40659094636E+02  0.00000000000E+00 0.  1.
         11    1    3    3    0    0  0.15759014954E+01 -0.17987426227E+02  0.12385765605E+02  0.21896076307E+02  0.51100000000E-03 0. -1.
        -11    1    3    3    0    0 -0.10300393220E+02 -0.20540194674E+01 -0.10618465723E+01  0.10556733153E+02  0.51100000000E-03 0.  1.
         12    1    3    3    0    0 -0.14770023953E+02 -0.73945936008E+01  0.73424533393E+01  0.18076095904E+02  0.00000000000E+00 0. -1.
</event>
<event>
 7    1  0.4962385E-011  0.5052886E+02  0.7816164E-02  0.1300439E+00
        -11   -1    0    0    0    0  0.00000000000E+00  0.00000000000E+00  0.45593999997E+02  0.45594000000E+02  0.51100000000E-03 0.  1.
         11   -1    0    0    0    0 -0.00000000000E+00 -0.00000000000E+00 -0.45593999997E+02  0.45594000000E+02  0.51100000000E-03 0. -1.
    9900012    2    1    2    0    0  0.21049510635E+02 -0.21997582897E+02 -0.26947914277E+02  0.50528860374E+02  0.30000001593E+02 0.  0.
        -12    1    1    2    0    0 -0.21049510635E+02  0.21997582897E+02  0.26947914277E+02  0.40659139626E+02  0.00000000000E+00 0.  1.
         11    1    3    3    0    0  0.77907272902E+01 -0.24051100813E+02 -0.23354737959E+02  0.34417941069E+02  0.51100000000E-03 0. -1.
        -11    1    3    3    0    0  0.73462644124E+01  0.38870528282E+01  0.10437515414E+01  0.83765266099E+01  0.51100000000E-03 0.  1.
        -12    1    3    3    0    0  0.59125189323E+01 -0.18335349125E+01 -0.46369278588E+01  0.77343926955E+01  0.00000000000E+00 0.  1.
</event>
<event>
 7    1  0.4962385E-011  0.5052886E+02  0.7816164E-02  0.1300439E+00
        -11   -1    0    0    0    0  0.00000000000E+00  0.00000000000E+00  0.45593999997E+02  0.45594000000E+02  0.51100000000E-03 0. -1.
         11   -1    0    0    0    0 -0.00000000000E+00 -0.00000000000E+00 -0.45593999997E+02  0.45594000000E+02  0.51100000000E-03 0.  1.
    9900012    2    1    2    0    0  0.14004687522E+02  0.37661091465E+02  0.62190443090E+01  0.50528860867E+02  0.30000003092E+02 0.  0.
        -12    1    1    2    0    0 -0.14004687522E+02 -0.37661091465E+02 -0.62190443090E+01  0.40659139133E+02  0.00000000000E+00 0.  1.
         11    1    3    3    0    0  0.48899921745E+01  0.25752650106E+02  0.13818445237E+02  0.29632084638E+02  0.51100000000E-03 0. -1.
        -11    1    3    3    0    0  0.67250234957E+01  0.14047095809E+02 -0.82506125525E+01  0.17624399265E+02  0.51100000000E-03 0.  1.
         12    1    3    3    0    0  0.23896718520E+01 -0.21386544504E+01  0.65121162406E+00  0.32723769645E+01  0.00000000000E+00 0. -1.
</event>
<event>
 7    1  0.4962385E-011  0.5052887E+02  0.7816164E-02  0.1300439E+00
        -11   -1    0    0    0    0  0.00000000000E+00  0.00000000000E+00  0.45593999997E+02  0.45594000000E+02  0.51100000000E-03 0.  1.
         11   -1    0    0    0    0 -0.00000000000E+00 -0.00000000000E+00 -0.45593999997E+02  0.45594000000E+02  0.51100000000E-03 0. -1.
    9900012    2    1    2    0    0  0.18797487639E+02 -0.32699364034E+02 -0.15184562613E+02  0.50528869518E+02  0.30000029386E+02 0.  0.
        -12    1    1    2    0    0 -0.18797487639E+02  0.32699364034E+02  0.15184562613E+02  0.40659130482E+02  0.00000000000E+00 0.  1.
         11    1    3    3    0    0 -0.18380498914E+01 -0.43546946268E+01 -0.43191151635E+01  0.64028547346E+01  0.51100000000E-03 0. -1.
        -11    1    3    3    0    0  0.14164778901E+02 -0.16676073204E+02  0.59361700550E+01  0.22670917361E+02  0.51100000000E-03 0.  1.
        -12    1    3    3    0    0  0.64707586301E+01 -0.11668596204E+02 -0.16801617505E+02  0.21455097422E+02  0.00000000000E+00 0.  1.
</event>
<event>
 7    1  0.4962385E-011  0.5052886E+02  0.7816164E-02  0.1300439E+00
        -11   -1    0    0    0    0  0.00000000000E+00  0.00000000000E+00  0.45593999997E+02  0.45594000000E+02  0.51100000000E-03 0.  1.
         11   -1    0    0    0    0 -0.00000000000E+00 -0.00000000000E+00 -0.45593999997E+02  0.45594000000E+02  0.51100000000E-03 0. -1.
    9900012    2    1    2    0    0  0.69584197037E+01  0.27002770648E+02 -0.29590480952E+02  0.50528858464E+02  0.29999995788E+02 0.  0.
        -12    1    1    2    0    0 -0.69584197037E+01 -0.27002770648E+02  0.29590480952E+02  0.40659141536E+02  0.00000000000E+00 0.  1.
         11    1    3    3    0    0  0.13855227520E+02  0.13437926779E+02 -0.28050419718E+02  0.34049541148E+02  0.51100000000E-03 0. -1.
        -11    1    3    3    0    0  0.25637835816E+00  0.38956946801E+01  0.13113094323E+01  0.41184583999E+01  0.51100000000E-03 0.  1.
         12    1    3    3    0    0 -0.71531861745E+01  0.96691491888E+01 -0.28513706662E+01  0.12360858917E+02  0.00000000000E+00 0. -1.
</event>
<event>
 7    1  0.4962385E-011  0.5052886E+02  0.7816164E-02  0.1300439E+00
        -11   -1    0    0    0    0  0.00000000000E+00  0.00000000000E+00  0.45593999997E+02  0.45594000000E+02  0.51100000000E-03 0. -1.
         11   -1    0    0    0    0 -0.00000000000E+00 -0.00000000000E+00 -0.45593999997E+02  0.45594000000E+02  0.51100000000E-03 0.  1.
    9900012    2    1    2    0    0 -0.32837155389E+02  0.20354253684E+02  0.12672452344E+02  0.50528862460E+02  0.30000007934E+02 0.  0.
        -12    1    1    2    0    0  0.32837155389E+02 -0.20354253684E+02 -0.12672452344E+02  0.40659137540E+02  0.00000000000E+00 0.  1.
         11    1    3    3    0    0 -0.15880478258E+02  0.22807489382E+02  0.43282192369E+01  0.28126582509E+02  0.51100000000E-03 0. -1.
        -11    1    3    3    0    0 -0.79910236537E+01 -0.47434616564E+01  0.92409109872E+01  0.13105392923E+02  0.51100000000E-03 0.  1.
        -12    1    3    3    0    0 -0.89656534764E+01  0.22902259588E+01 -0.89667787992E+00  0.92968870286E+01  0.00000000000E+00 0.  1.
</event>
<event>
 7    1  0.4962385E-011  0.5052886E+02  0.7816164E-02  0.1300439E+00
        -11   -1    0    0    0    0  0.00000000000E+00  0.00000000000E+00  0.45593999997E+02  0.45594000000E+02  0.51100000000E-03 0.  1.
         11   -1    0    0    0    0 -0.00000000000E+00 -0.00000000000E+00 -0.45593999997E+02  0.45594000000E+02  0.51100000000E-03 0. -1.
    9900012    2    1    2    0    0  0.28281982187E+02  0.27163261016E+01 -0.29084646467E+02  0.50528860756E+02  0.30000002754E+02 0.  0.
        -12    1    1    2    0    0 -0.28281982187E+02 -0.27163261016E+01  0.29084646467E+02  0.40659139244E+02  0.00000000000E+00 0.  1.
         11    1    3    3    0    0  0.71193241861E+01  0.50047654823E+01 -0.19156931222E+02  0.21040923661E+02  0.51100000000E-03 0. -1.
        -11    1    3    3    0    0  0.90210351123E+01 -0.94408634912E+01 -0.78716425140E+01  0.15247023778E+02  0.51100000000E-03 0.  1.
        -12    1    3    3    0    0  0.12141622889E+02  0.71524241105E+01 -0.20560727309E+01  0.14240913317E+02  0.00000000000E+00 0.  1.
</event>
<event>
 7    1  0.4962385E-011  0.5052887E+02  0.7816164E-02  0.1300439E+00
        -11   -1    0    0    0    0  0.00000000000E+00  0.00000000000E+00  0.45593999997E+02  0.45594000000E+02  0.51100000000E-03 0. -1.
         11   -1    0    0    0    0 -0.00000000000E+00 -0.00000000000E+00 -0.45593999997E+02  0.45594000000E+02  0.51100000000E-03 0.  1.
    9900012    2    1    2    0    0 -0.26717909378E+02  0.10202449720E+02  0.28900313323E+02  0.50528870989E+02  0.30000033857E+02 0.  0.
        -12    1    1    2    0    0  0.26717909378E+02 -0.10202449720E+02 -0.28900313323E+02  0.40659129011E+02  0.00000000000E+00 0.  1.
         11    1    3    3    0    0 -0.25388493687E+01  0.45464778046E+01  0.58212566741E+01  0.78104574816E+01  0.51100000000E-03 0. -1.
        -11    1    3    3    0    0 -0.27307550832E+02 -0.99758618305E+00  0.13047333252E+02  0.30280858903E+02  0.51100000000E-03 0.  1.
        -12    1    3    3    0    0  0.31284908236E+01  0.66535580987E+01  0.10031723397E+02  0.12437554604E+02  0.00000000000E+00 0.  1.
</event>
<event>
 7    1  0.4962385E-011  0.5052887E+02  0.7816164E-02  0.1300439E+00
        -11   -1    0    0    0    0  0.00000000000E+00  0.00000000000E+00  0.45593999997E+02  0.45594000000E+02  0.51100000000E-03 0.  1.
         11   -1    0    0    0    0 -0.00000000000E+00 -0.00000000000E+00 -0.45593999997E+02  0.45594000000E+02  0.51100000000E-03 0. -1.
    9900012    2    1    2    0    0  0.95906317751E+01  0.10864197065E+02 -0.37988863428E+02  0.50528871378E+02  0.30000035042E+02 0.  0.
        -12    1    1    2    0    0 -0.95906317751E+01 -0.10864197065E+02  0.37988863428E+02  0.40659128622E+02  0.00000000000E+00 0.  1.
         11    1    3    3    0    0  0.15818787206E+01  0.14457091233E+02 -0.10776648282E+02  0.18100993776E+02  0.51100000000E-03 0. -1.
        -11    1    3    3    0    0  0.12081872650E+01 -0.74102655296E+01 -0.53580667189E+01  0.92239162460E+01  0.51100000000E-03 0.  1.
         12    1    3    3    0    0  0.68005657895E+01  0.38173713616E+01 -0.21854148427E+02  0.23203961357E+02  0.00000000000E+00 0. -1.
</event>
<event>
 7    1  0.4962385E-011  0.5052886E+02  0.7816164E-02  0.1300439E+00
        -11   -1    0    0    0    0  0.00000000000E+00  0.00000000000E+00  0.45593999997E+02  0.45594000000E+02  0.51100000000E-03 0.  1.
         11   -1    0    0    0    0 -0.00000000000E+00 -0.00000000000E+00 -0.45593999997E+02  0.45594000000E+02  0.51100000000E-03 0. -1.
    9900012    2    1    2    0    0 -0.30854300502E+02  0.14535553654E+02 -0.22133584907E+02  0.50528858835E+02  0.29999996913E+02 0.  0.
        -12    1    1    2    0    0  0.30854300502E+02 -0.14535553654E+02  0.22133584907E+02  0.40659141165E+02  0.00000000000E+00 0.  1.
         11    1    3    3    0    0 -0.67260223026E+01 -0.29825756566E+01 -0.13378643411E+02  0.15268373631E+02  0.51100000000E-03 0. -1.
        -11    1    3    3    0    0 -0.54850185330E+01  0.13944257564E+02 -0.20268943053E+01  0.15120715859E+02  0.51100000000E-03 0.  1.
        -12    1    3    3    0    0 -0.18643259666E+02  0.35738717468E+01 -0.67280471910E+01  0.20139769344E+02  0.00000000000E+00 0.  1.
</event>
<event>
 7    1  0.4962385E-011  0.5052886E+02  0.7816164E-02  0.1300439E+00
        -11   -1    0    0    0    0  0.00000000000E+00  0.00000000000E+00  0.45593999997E+02  0.45594000000E+02  0.51100000000E-03 0.  1.
         11   -1    0    0    0    0 -0.00000000000E+00 -0.00000000000E+00 -0.45593999997E+02  0.45594000000E+02  0.51100000000E-03 0. -1.
    9900012    2    1    2    0    0 -0.39172762644E+02  0.10702922141E+02 -0.20268245580E+01  0.50528857199E+02  0.29999991941E+02 0.  0.
        -12    1    1    2    0    0  0.39172762644E+02 -0.10702922141E+02  0.20268245580E+01  0.40659142801E+02  0.00000000000E+00 0.  1.
         11    1    3    3    0    0 -0.14091375732E+02 -0.84955296919E+01 -0.71790273130E+00  0.16469859725E+02  0.51100000000E-03 0. -1.
        -11    1    3    3    0    0 -0.16720412886E+02  0.13057717193E+02 -0.68559846839E+01  0.22295306942E+02  0.51100000000E-03 0.  1.
         12    1    3    3    0    0 -0.83609740258E+01  0.61407346401E+01  0.55470628572E+01  0.11763690532E+02  0.00000000000E+00 0. -1.
</event>
<event>
 7    1  0.4962385E-011  0.5052886E+02  0.7816164E-02  0.1300439E+00
        -11   -1    0    0    0    0  0.00000000000E+00  0.00000000000E+00  0.45593999997E+02  0.45594000000E+02  0.51100000000E-03 0.  1.
         11   -1    0    0    0    0 -0.00000000000E+00 -0.00000000000E+00 -0.45593999997E+02  0.45594000000E+02  0.51100000000E-03 0. -1.
    9900012    2    1    2    0    0 -0.38781911712E+02 -0.85325080770E+01  0.87364260564E+01  0.50528861909E+02  0.30000006258E+02 0.  0.
        -12    1    1    2    0    0  0.38781911712E+02  0.85325080770E+01 -0.87364260564E+01  0.40659138091E+02  0.00000000000E+00 0.  1.
         11    1    3    3    0    0 -0.16939727684E+02 -0.10208850169E+02  0.29182642609E+01  0.19992280069E+02  0.51100000000E-03 0. -1.
        -11    1    3    3    0    0  0.20304502546E+01 -0.56058714080E+00 -0.40839233987E+01  0.45951514411E+01  0.51100000000E-03 0.  1.
        -12    1    3    3    0    0 -0.23872634282E+02  0.22369292329E+01  0.99020851942E+01  0.25941430399E+02  0.00000000000E+00 0.  1.
</event>
<event>
 7    1  0.4962385E-011  0.5052886E+02  0.7816164E-02  0.1300439E+00
        -11   -1    0    0    0    0  0.00000000000E+00  0.00000000000E+00  0.45593999997E+02  0.45594000000E+02  0.51100000000E-03 0. -1.
         11   -1    0    0    0    0 -0.00000000000E+00 -0.00000000000E+00 -0.45593999997E+02  0.45594000000E+02  0.51100000000E-03 0.  1.
    9900012    2    1    2    0    0 -0.38309686010E+02  0.88428474478E+01  0.10360375606E+02  0.50528863562E+02  0.30000011284E+02 0.  0.
        -12    1    1    2    0    0  0.38309686010E+02 -0.88428474478E+01 -0.10360375606E+02  0.40659136438E+02  0.00000000000E+00 0.  1.
         11    1    3    3    0    0 -0.10328942343E+02  0.90507864510E+01 -0.12686416068E+01  0.13791781506E+02  0.51100000000E-03 0. -1.
        -11    1    3    3    0    0 -0.21702729219E+02 -0.78385431598E+01  0.23710208840E+01  0.23196399606E+02  0.51100000000E-03 0.  1.
        -12    1    3    3    0    0 -0.62780144477E+01  0.76306041565E+01  0.92579963285E+01  0.13540682450E+02  0.00000000000E+00 0.  1.
</event>
<event>
 7    1  0.4962385E-011  0.5052886E+02  0.7816164E-02  0.1300439E+00
        -11   -1    0    0    0    0  0.00000000000E+00  0.00000000000E+00  0.45593999997E+02  0.45594000000E+02  0.51100000000E-03 0.  1.
         11   -1    0    0    0    0 -0.00000000000E+00 -0.00000000000E+00 -0.45593999997E+02  0.45594000000E+02  0.51100000000E-03 0. -1.
    9900012    2    1    2    0    0  0.21196431888E+02 -0.79715849378E+01 -0.33768783403E+02  0.50528860514E+02  0.30000002018E+02 0.  0.
        -12    1    1    2    0    0 -0.21196431888E+02  0.79715849378E+01  0.33768783403E+02  0.40659139486E+02  0.00000000000E+00 0.  1.
         11    1    3    3    0    0  0.30423719846E+01  0.19985022042E+01  0.32405863352E+01  0.48735447479E+01  0.51100000000E-03 0. -1.
        -11    1    3    3    0    0  0.15328915331E+01 -0.12111103253E+01 -0.20653033565E+02  0.20745224519E+02  0.51100000000E-03 0.  1.
         12    1    3    3    0    0  0.16621168370E+02 -0.87589768167E+01 -0.16356336174E+02  0.24910091246E+02  0.00000000000E+00 0. -1.
</event>
<event>
 7    1  0.4962385E-011  0.5052886E+02  0.7816164E-02  0.1300439E+00
        -11   -1    0    0    0    0  0.00000000000E+00  0.00000000000E+00  0.45593999997E+02  0.45594000000E+02  0.51100000000E-03 0.  1.
         11   -1    0    0    0    0 -0.00000000000E+00 -0.00000000000E+00 -0.45593999997E+02  0.45594000000E+02  0.51100000000E-03 0. -1.
    9900012    2    1    2    0    0 -0.71782411707E+01 -0.22640999757E+02 -0.33000354847E+02  0.50528862818E+02  0.30000009023E+02 0.  0.
        -12    1    1    2    0    0  0.71782411707E+01  0.22640999757E+02  0.33000354847E+02  0.40659137182E+02  0.00000000000E+00 0.  1.
         11    1    3    3    0    0 -0.72840916053E+01 -0.12210579804E+02 -0.33760788473E+02  0.36632595980E+02  0.51100000000E-03 0. -1.
        -11    1    3    3    0    0 -0.34760968904E+01 -0.85467923303E+01  0.23937174041E+01  0.95320927399E+01  0.51100000000E-03 0.  1.
         12    1    3    3    0    0  0.35819473250E+01 -0.18836276232E+01 -0.16332837780E+01  0.43641740984E+01  0.00000000000E+00 0. -1.
</event>
<event>
 7    1  0.4962385E-011  0.5052885E+02  0.7816164E-02  0.1300439E+00
        -11   -1    0    0    0    0  0.00000000000E+00  0.00000000000E+00  0.45593999997E+02  0.45594000000E+02  0.51100000000E-03 0.  1.
         11   -1    0    0    0    0 -0.00000000000E+00 -0.00000000000E+00 -0.45593999997E+02  0.45594000000E+02  0.51100000000E-03 0. -1.
    9900012    2    1    2    0    0 -0.34211514265E+02 -0.47888604142E+01 -0.21443074513E+02  0.50528851744E+02  0.29999975361E+02 0.  0.
        -12    1    1    2    0    0  0.34211514265E+02  0.47888604142E+01  0.21443074513E+02  0.40659148256E+02  0.00000000000E+00 0.  1.
         11    1    3    3    0    0 -0.27516741438E+02 -0.13927880481E+02 -0.22165444751E+02  0.37979782191E+02  0.51100000000E-03 0. -1.
        -11    1    3    3    0    0 -0.18925978540E+01  0.58406980706E+01 -0.14890706343E+01  0.63176745883E+01  0.51100000000E-03 0.  1.
        -12    1    3    3    0    0 -0.48021749732E+01  0.32983219964E+01  0.22114408725E+01  0.62313949640E+01  0.00000000000E+00 0.  1.
</event>
<event>
 7    1  0.4962385E-011  0.5052885E+02  0.7816164E-02  0.1300439E+00
        -11   -1    0    0    0    0  0.00000000000E+00  0.00000000000E+00  0.45593999997E+02  0.45594000000E+02  0.51100000000E-03 0.  1.
         11   -1    0    0    0    0 -0.00000000000E+00 -0.00000000000E+00 -0.45593999997E+02  0.45594000000E+02  0.51100000000E-03 0. -1.
    9900012    2    1    2    0    0 -0.36782524254E+02 -0.13893743024E+02  0.10352590987E+02  0.50528851880E+02  0.29999975774E+02 0.  0.
        -12    1    1    2    0    0  0.36782524254E+02  0.13893743024E+02 -0.10352590987E+02  0.40659148120E+02  0.00000000000E+00 0.  1.
         11    1    3    3    0    0 -0.21534330382E+02  0.42202549225E+01  0.12016685497E+02  0.25018766301E+02  0.51100000000E-03 0. -1.
        -11    1    3    3    0    0 -0.87033857968E+01 -0.75233155436E+01  0.35101215750E+01  0.12027890706E+02  0.51100000000E-03 0.  1.
         12    1    3    3    0    0 -0.65448080748E+01 -0.10590682403E+02 -0.51742160854E+01  0.13482194873E+02  0.00000000000E+00 0. -1.
</event>
<event>
 7    1  0.4962385E-011  0.5052886E+02  0.7816164E-02  0.1300439E+00
        -11   -1    0    0    0    0  0.00000000000E+00  0.00000000000E+00  0.45593999997E+02  0.45594000000E+02  0.51100000000E-03 0.  1.
         11   -1    0    0    0    0 -0.00000000000E+00 -0.00000000000E+00 -0.45593999997E+02  0.45594000000E+02  0.51100000000E-03 0. -1.
    9900012    2    1    2    0    0 -0.29388086637E+02 -0.27617953633E+02  0.51724799617E+01  0.50528861445E+02  0.30000004847E+02 0.  0.
        -12    1    1    2    0    0  0.29388086637E+02  0.27617953633E+02 -0.51724799617E+01  0.40659138555E+02  0.00000000000E+00 0.  1.
         11    1    3    3    0    0  0.30606504324E+01  0.26178943993E+01  0.12164840531E+01  0.42072301895E+01  0.51100000000E-03 0.  1.
        -11    1    3    3    0    0 -0.22234018976E+02 -0.27673709669E+02  0.44615249479E+01  0.35778359546E+02  0.51100000000E-03 0. -1.
        -12    1    3    3    0    0 -0.10214718093E+02 -0.25621383636E+01 -0.50552903924E+00  0.10543271709E+02  0.00000000000E+00 0.  1.
</event>
<event>
 7    1  0.4962385E-011  0.5052886E+02  0.7816164E-02  0.1300439E+00
        -11   -1    0    0    0    0  0.00000000000E+00  0.00000000000E+00  0.45593999997E+02  0.45594000000E+02  0.51100000000E-03 0. -1.
         11   -1    0    0    0    0 -0.00000000000E+00 -0.00000000000E+00 -0.45593999997E+02  0.45594000000E+02  0.51100000000E-03 0.  1.
    9900012    2    1    2    0    0  0.33753577731E+01 -0.40464356127E+02  0.20996131934E+01  0.50528861637E+02  0.30000005431E+02 0.  0.
        -12    1    1    2    0    0 -0.33753577731E+01  0.40464356127E+02 -0.20996131934E+01  0.40659138363E+02  0.00000000000E+00 0.  1.
         11    1    3    3    0    0  0.37782906086E+01 -0.17736716834E+02  0.81753761793E+01  0.19892294486E+02  0.51100000000E-03 0. -1.
        -11    1    3    3    0    0  0.59602650250E+01 -0.49302244001E+01 -0.86013266111E+01  0.11567830027E+02  0.51100000000E-03 0.  1.
         12    1    3    3    0    0 -0.63631978605E+01 -0.17797414893E+02  0.25255636252E+01  0.19068737124E+02  0.00000000000E+00 0. -1.
</event>
<event>
 7    1  0.4962385E-011  0.5052886E+02  0.7816164E-02  0.1300439E+00
        -11   -1    0    0    0    0  0.00000000000E+00  0.00000000000E+00  0.45593999997E+02  0.45594000000E+02  0.51100000000E-03 0. -1.
         11   -1    0    0    0    0 -0.00000000000E+00 -0.00000000000E+00 -0.45593999997E+02  0.45594000000E+02  0.51100000000E-03 0.  1.
    9900012    2    1    2    0    0  0.43518467662E+01  0.27682442860E+02  0.29460300244E+02  0.50528861994E+02  0.30000006515E+02 0.  0.
        -12    1    1    2    0    0 -0.43518467662E+01 -0.27682442860E+02 -0.29460300244E+02  0.40659138006E+02  0.00000000000E+00 0.  1.
         11    1    3    3    0    0  0.20934862917E+01  0.20750575267E+02  0.25356786841E+02  0.32831931073E+02  0.51100000000E-03 0. -1.
        -11    1    3    3    0    0 -0.18197634981E+01  0.10421039115E+02 -0.55049125657E+00  0.10593046602E+02  0.51100000000E-03 0.  1.
         12    1    3    3    0    0  0.40781239726E+01 -0.34891715225E+01  0.46540046591E+01  0.71038843188E+01  0.00000000000E+00 0. -1.
</event>
<event>
 7    1  0.4962385E-011  0.5052884E+02  0.7816164E-02  0.1300439E+00
        -11   -1    0    0    0    0  0.00000000000E+00  0.00000000000E+00  0.45593999997E+02  0.45594000000E+02  0.51100000000E-03 0. -1.
         11   -1    0    0    0    0 -0.00000000000E+00 -0.00000000000E+00 -0.45593999997E+02  0.45594000000E+02  0.51100000000E-03 0.  1.
    9900012    2    1    2    0    0  0.62173733853E+01 -0.10008703917E+02  0.38914484662E+02  0.50528843559E+02  0.29999950483E+02 0.  0.
        -12    1    1    2    0    0 -0.62173733853E+01  0.10008703917E+02 -0.38914484662E+02  0.40659156441E+02  0.00000000000E+00 0.  1.
         11    1    3    3    0    0 -0.13564654036E+01 -0.13077409190E+02  0.20321470853E+02  0.24203735401E+02  0.51100000000E-03 0. -1.
        -11    1    3    3    0    0  0.57945133740E+01 -0.26830647390E+01 -0.40256028900E+00  0.63982244945E+01  0.51100000000E-03 0.  1.
         12    1    3    3    0    0  0.17793254148E+01  0.57517700112E+01  0.18995574099E+02  0.19926883663E+02  0.00000000000E+00 0. -1.
</event>
<event>
 7    1  0.4962385E-011  0.5052880E+02  0.7816164E-02  0.1300439E+00
        -11   -1    0    0    0    0  0.00000000000E+00  0.00000000000E+00  0.45593999997E+02  0.45594000000E+02  0.51100000000E-03 0.  1.
         11   -1    0    0    0    0 -0.00000000000E+00 -0.00000000000E+00 -0.45593999997E+02  0.45594000000E+02  0.51100000000E-03 0. -1.
    9900012    2    1    2    0    0  0.94285164362E+01 -0.38805673950E+02  0.76415731763E+01  0.50528795710E+02  0.29999805040E+02 0.  0.
        -12    1    1    2    0    0 -0.94285164362E+01  0.38805673950E+02 -0.76415731763E+01  0.40659204290E+02  0.00000000000E+00 0.  1.
         11    1    3    3    0    0 -0.20180431974E+01 -0.51754804330E+01  0.16482166328E+00  0.55574510795E+01  0.51100000000E-03 0. -1.
        -11    1    3    3    0    0  0.17174474290E+02 -0.10090877118E+02  0.54985477691E+01  0.20664520221E+02  0.51100000000E-03 0.  1.
        -12    1    3    3    0    0 -0.57279146562E+01 -0.23539316399E+02  0.19782037438E+01  0.24306824410E+02  0.00000000000E+00 0.  1.
</event>
<event>
 7    1  0.4962385E-011  0.5052886E+02  0.7816164E-02  0.1300439E+00
        -11   -1    0    0    0    0  0.00000000000E+00  0.00000000000E+00  0.45593999997E+02  0.45594000000E+02  0.51100000000E-03 0.  1.
         11   -1    0    0    0    0 -0.00000000000E+00 -0.00000000000E+00 -0.45593999997E+02  0.45594000000E+02  0.51100000000E-03 0. -1.
    9900012    2    1    2    0    0  0.63936689769E+01  0.28435777731E+02 -0.28349482564E+02  0.50528860563E+02  0.30000002166E+02 0.  0.
        -12    1    1    2    0    0 -0.63936689769E+01 -0.28435777731E+02  0.28349482564E+02  0.40659139437E+02  0.00000000000E+00 0.  1.
         11    1    3    3    0    0  0.10551483709E+02  0.17526164900E+02 -0.72038478094E+01  0.21688607334E+02  0.51100000000E-03 0.  1.
        -11    1    3    3    0    0 -0.97375422452E+01  0.96131465291E+01 -0.12939373724E+02  0.18832411099E+02  0.51100000000E-03 0. -1.
         12    1    3    3    0    0  0.55797275132E+01  0.12964663014E+01 -0.82062610302E+01  0.10007842129E+02  0.00000000000E+00 0. -1.
</event>
<event>
 7    1  0.4962385E-011  0.5052887E+02  0.7816164E-02  0.1300439E+00
        -11   -1    0    0    0    0  0.00000000000E+00  0.00000000000E+00  0.45593999997E+02  0.45594000000E+02  0.51100000000E-03 0.  1.
         11   -1    0    0    0    0 -0.00000000000E+00 -0.00000000000E+00 -0.45593999997E+02  0.45594000000E+02  0.51100000000E-03 0. -1.
    9900012    2    1    2    0    0  0.36561773015E+02  0.16983493592E+02  0.52879942861E+01  0.50528865920E+02  0.30000018450E+02 0.  0.
        -12    1    1    2    0    0 -0.36561773015E+02 -0.16983493592E+02 -0.52879942861E+01  0.40659134080E+02  0.00000000000E+00 0.  1.
         11    1    3    3    0    0  0.11366877353E+01 -0.51497060928E+01 -0.32832078878E+01  0.62121643688E+01  0.51100000000E-03 0. -1.
        -11    1    3    3    0    0  0.27071452641E+02  0.16777890427E+02  0.10513717868E+01  0.31866385709E+02  0.51100000000E-03 0.  1.
        -12    1    3    3    0    0  0.83536326386E+01  0.53553092584E+01  0.75198303872E+01  0.12450315842E+02  0.00000000000E+00 0.  1.
</event>
<event>
 7    1  0.4962385E-011  0.5052889E+02  0.7816164E-02  0.1300439E+00
        -11   -1    0    0    0    0  0.00000000000E+00  0.00000000000E+00  0.45593999997E+02  0.45594000000E+02  0.51100000000E-03 0. -1.
         11   -1    0    0    0    0 -0.00000000000E+00 -0.00000000000E+00 -0.45593999997E+02  0.45594000000E+02  0.51100000000E-03 0.  1.
    9900012    2    1    2    0    0 -0.91385002284E-01 -0.19394658201E+02  0.35735166144E+02  0.50528890107E+02  0.30000091970E+02 0.  0.
        -12    1    1    2    0    0  0.91385002284E-01  0.19394658201E+02 -0.35735166144E+02  0.40659109893E+02  0.00000000000E+00 0.  1.
         11    1    3    3    0    0 -0.12827595192E+02 -0.64842182299E+01  0.21789987625E+02  0.26103560015E+02  0.51100000000E-03 0. -1.
        -11    1    3    3    0    0  0.38285214794E+01 -0.14397420566E+01 -0.27504091141E+00  0.40995221272E+01  0.51100000000E-03 0.  1.
         12    1    3    3    0    0  0.89076887104E+01 -0.11470697914E+02  0.14220219430E+02  0.20325807965E+02  0.00000000000E+00 0. -1.
</event>
<event>
 7    1  0.4962385E-011  0.5052886E+02  0.7816164E-02  0.1300439E+00
        -11   -1    0    0    0    0  0.00000000000E+00  0.00000000000E+00  0.45593999997E+02  0.45594000000E+02  0.51100000000E-03 0. -1.
         11   -1    0    0    0    0 -0.00000000000E+00 -0.00000000000E+00 -0.45593999997E+02  0.45594000000E+02  0.51100000000E-03 0.  1.
    9900012    2    1    2    0    0 -0.19599549118E+02 -0.19772205172E+02  0.29632474986E+02  0.50528855926E+02  0.29999988074E+02 0.  0.
        -12    1    1    2    0    0  0.19599549118E+02  0.19772205172E+02 -0.29632474986E+02  0.40659144074E+02  0.00000000000E+00 0.  1.
         11    1    3    3    0    0 -0.21167101216E+02 -0.13018656877E+02  0.15697425121E+02  0.29392869143E+02  0.51100000000E-03 0. -1.
        -11    1    3    3    0    0  0.66175835153E+01 -0.81467635228E+01  0.10648670189E+02  0.14951800712E+02  0.51100000000E-03 0.  1.
         12    1    3    3    0    0 -0.50500314172E+01  0.13932152279E+01  0.32863796769E+01  0.61841860715E+01  0.00000000000E+00 0. -1.
</event>
<event>
 7    1  0.4962385E-011  0.5052886E+02  0.7816164E-02  0.1300439E+00
        -11   -1    0    0    0    0  0.00000000000E+00  0.00000000000E+00  0.45593999997E+02  0.45594000000E+02  0.51100000000E-03 0. -1.
         11   -1    0    0    0    0 -0.00000000000E+00 -0.00000000000E+00 -0.45593999997E+02  0.45594000000E+02  0.51100000000E-03 0.  1.
    9900012    2    1    2    0    0 -0.23067313798E+02  0.33434252392E+02 -0.17930828326E+01  0.50528863943E+02  0.30000012441E+02 0.  0.
        -12    1    1    2    0    0  0.23067313798E+02 -0.33434252392E+02  0.17930828326E+01  0.40659136057E+02  0.00000000000E+00 0.  1.
         11    1    3    3    0    0 -0.22401287942E+02  0.31901694564E+02  0.34191857983E+01  0.39130891240E+02  0.51100000000E-03 0. -1.
        -11    1    3    3    0    0  0.31534828091E+01 -0.25462034677E+01 -0.49133156206E+00  0.40827702472E+01  0.51100000000E-03 0.  1.
        -12    1    3    3    0    0 -0.38195086650E+01  0.40787612963E+01 -0.47209370688E+01  0.73152024553E+01  0.00000000000E+00 0.  1.
</event>
<event>
 7    1  0.4962385E-011  0.5052886E+02  0.7816164E-02  0.1300439E+00
        -11   -1    0    0    0    0  0.00000000000E+00  0.00000000000E+00  0.45593999997E+02  0.45594000000E+02  0.51100000000E-03 0. -1.
         11   -1    0    0    0    0 -0.00000000000E+00 -0.00000000000E+00 -0.45593999997E+02  0.45594000000E+02  0.51100000000E-03 0.  1.
    9900012    2    1    2    0    0 -0.10267206733E+02  0.10393038495E+02  0.37943842167E+02  0.50528856604E+02  0.29999990135E+02 0.  0.
        -12    1    1    2    0    0  0.10267206733E+02 -0.10393038495E+02 -0.37943842167E+02  0.40659143396E+02  0.00000000000E+00 0.  1.
         11    1    3    3    0    0  0.92366231275E+01  0.39131787867E+00  0.66352319356E+01  0.11379571151E+02  0.51100000000E-03 0. -1.
        -11    1    3    3    0    0 -0.11824149664E+02  0.35260230254E+01  0.23050342420E+02  0.26145011754E+02  0.51100000000E-03 0.  1.
         12    1    3    3    0    0 -0.76796801970E+01  0.64756975905E+01  0.82582678113E+01  0.13004273700E+02  0.00000000000E+00 0. -1.
</event>
<event>
 7    1  0.4962385E-011  0.5052886E+02  0.7816164E-02  0.1300439E+00
        -11   -1    0    0    0    0  0.00000000000E+00  0.00000000000E+00  0.45593999997E+02  0.45594000000E+02  0.51100000000E-03 0.  1.
         11   -1    0    0    0    0 -0.00000000000E+00 -0.00000000000E+00 -0.45593999997E+02  0.45594000000E+02  0.51100000000E-03 0. -1.
    9900012    2    1    2    0    0 -0.11033358954E+02  0.22206035674E+02 -0.32223008210E+02  0.50528864640E+02  0.30000014559E+02 0.  0.
        -12    1    1    2    0    0  0.11033358954E+02 -0.22206035674E+02  0.32223008210E+02  0.40659135360E+02  0.00000000000E+00 0.  1.
         11    1    3    3    0    0 -0.65788178068E+00 -0.18779494658E+01 -0.40228419069E+01  0.44880686161E+01  0.51100000000E-03 0.  1.
        -11    1    3    3    0    0 -0.16676711616E+02  0.22315058545E+02 -0.27992825685E+02  0.39492693479E+02  0.51100000000E-03 0. -1.
        -12    1    3    3    0    0  0.63012344425E+01  0.17689265955E+01 -0.20734061794E+00  0.65481025443E+01  0.00000000000E+00 0.  1.
</event>
<event>
 7    1  0.4962385E-011  0.5052887E+02  0.7816164E-02  0.1300439E+00
        -11   -1    0    0    0    0  0.00000000000E+00  0.00000000000E+00  0.45593999997E+02  0.45594000000E+02  0.51100000000E-03 0. -1.
         11   -1    0    0    0    0 -0.00000000000E+00 -0.00000000000E+00 -0.45593999997E+02  0.45594000000E+02  0.51100000000E-03 0.  1.
    9900012    2    1    2    0    0  0.32453615199E+02 -0.19050538778E+02  0.15394965548E+02  0.50528866568E+02  0.30000020421E+02 0.  0.
        -12    1    1    2    0    0 -0.32453615199E+02  0.19050538778E+02 -0.15394965548E+02  0.40659133432E+02  0.00000000000E+00 0.  1.
         11    1    3    3    0    0  0.31038714702E+02 -0.83580527040E+01  0.12724420212E+01  0.32169519181E+02  0.51100000000E-03 0. -1.
        -11    1    3    3    0    0 -0.33143543988E+00 -0.73009845819E+01  0.62708604801E+01  0.96300527900E+01  0.51100000000E-03 0.  1.
         12    1    3    3    0    0  0.17463359364E+01 -0.33915014919E+01  0.78516630468E+01  0.87292945977E+01  0.00000000000E+00 0. -1.
</event>
<event>
 7    1  0.4962385E-011  0.5052885E+02  0.7816164E-02  0.1300439E+00
        -11   -1    0    0    0    0  0.00000000000E+00  0.00000000000E+00  0.45593999997E+02  0.45594000000E+02  0.51100000000E-03 0.  1.
         11   -1    0    0    0    0 -0.00000000000E+00 -0.00000000000E+00 -0.45593999997E+02  0.45594000000E+02  0.51100000000E-03 0. -1.
    9900012    2    1    2    0    0  0.14591334999E+02  0.11643194490E+02 -0.36120566784E+02  0.50528851217E+02  0.29999973759E+02 0.  0.
        -12    1    1    2    0    0 -0.14591334999E+02 -0.11643194490E+02  0.36120566784E+02  0.40659148783E+02  0.00000000000E+00 0.  1.
         11    1    3    3    0    0  0.36661897445E+01  0.12805206924E+02 -0.15211322652E+02  0.20218768724E+02  0.51100000000E-03 0. -1.
        -11    1    3    3    0    0  0.14651227384E+02 -0.36889261429E+00 -0.76859491801E+01  0.16548968568E+02  0.51100000000E-03 0.  1.
        -12    1    3    3    0    0 -0.37260821295E+01 -0.79311981925E+00 -0.13223294951E+02  0.13761113925E+02  0.00000000000E+00 0.  1.
</event>
<event>
 7    1  0.4962385E-011  0.5052885E+02  0.7816164E-02  0.1300439E+00
        -11   -1    0    0    0    0  0.00000000000E+00  0.00000000000E+00  0.45593999997E+02  0.45594000000E+02  0.51100000000E-03 0.  1.
         11   -1    0    0    0    0 -0.00000000000E+00 -0.00000000000E+00 -0.45593999997E+02  0.45594000000E+02  0.51100000000E-03 0. -1.
    9900012    2    1    2    0    0  0.25008245245E+02 -0.27669820648E+02 -0.16190599202E+02  0.50528845958E+02  0.29999957773E+02 0.  0.
        -12    1    1    2    0    0 -0.25008245245E+02  0.27669820648E+02  0.16190599202E+02  0.40659154042E+02  0.00000000000E+00 0.  1.
         11    1    3    3    0    0  0.23999622612E+02 -0.30218540724E+02 -0.12648153134E+02  0.40609332264E+02  0.51100000000E-03 0. -1.
        -11    1    3    3    0    0  0.18767129063E+01  0.10239913629E+01 -0.62990183507E+01  0.66519352137E+01  0.51100000000E-03 0.  1.
         12    1    3    3    0    0 -0.86809027328E+00  0.15247287131E+01  0.27565722829E+01  0.32675784798E+01  0.00000000000E+00 0. -1.
</event>
<event>
 7    1  0.4962385E-011  0.5052886E+02  0.7816164E-02  0.1300439E+00
        -11   -1    0    0    0    0  0.00000000000E+00  0.00000000000E+00  0.45593999997E+02  0.45594000000E+02  0.51100000000E-03 0.  1.
         11   -1    0    0    0    0 -0.00000000000E+00 -0.00000000000E+00 -0.45593999997E+02  0.45594000000E+02  0.51100000000E-03 0. -1.
    9900012    2    1    2    0    0  0.88568701138E+01  0.38141584894E+02 -0.10951757332E+02  0.50528860374E+02  0.30000001593E+02 0.  0.
        -12    1    1    2    0    0 -0.88568701138E+01 -0.38141584894E+02  0.10951757332E+02  0.40659139626E+02  0.00000000000E+00 0.  1.
         11    1    3    3    0    0  0.20299852974E+01  0.26219720714E+01  0.58054590661E+01  0.66857260698E+01  0.51100000000E-03 0. -1.
        -11    1    3    3    0    0  0.11554445736E+02  0.31608249462E+02 -0.16997049152E+02  0.37702603762E+02  0.51100000000E-03 0.  1.
        -12    1    3    3    0    0 -0.47275609194E+01  0.39113633608E+01  0.23983275432E+00  0.61405305420E+01  0.00000000000E+00 0.  1.
</event>
<event>
 7    1  0.4962385E-011  0.5052885E+02  0.7816164E-02  0.1300439E+00
        -11   -1    0    0    0    0  0.00000000000E+00  0.00000000000E+00  0.45593999997E+02  0.45594000000E+02  0.51100000000E-03 0.  1.
         11   -1    0    0    0    0 -0.00000000000E+00 -0.00000000000E+00 -0.45593999997E+02  0.45594000000E+02  0.51100000000E-03 0. -1.
    9900012    2    1    2    0    0 -0.18102343876E+02 -0.35042974282E+02 -0.98722727185E+01  0.50528847661E+02  0.29999962950E+02 0.  0.
        -12    1    1    2    0    0  0.18102343876E+02  0.35042974282E+02  0.98722727185E+01  0.40659152339E+02  0.00000000000E+00 0.  1.
         11    1    3    3    0    0 -0.50629192673E+01 -0.18814100363E+01 -0.10252830143E+02  0.11588502122E+02  0.51100000000E-03 0. -1.
        -11    1    3    3    0    0 -0.43808712503E+01 -0.28971636610E+02  0.80357855570E+00  0.29312002653E+02  0.51100000000E-03 0.  1.
        -12    1    3    3    0    0 -0.86585533583E+01 -0.41899276352E+01 -0.42302113162E+00  0.96283428857E+01  0.00000000000E+00 0.  1.
</event>
<event>
 7    1  0.4962385E-011  0.5052882E+02  0.7816164E-02  0.1300439E+00
        -11   -1    0    0    0    0  0.00000000000E+00  0.00000000000E+00  0.45593999997E+02  0.45594000000E+02  0.51100000000E-03 0. -1.
         11   -1    0    0    0    0 -0.00000000000E+00 -0.00000000000E+00 -0.45593999997E+02  0.45594000000E+02  0.51100000000E-03 0.  1.
    9900012    2    1    2    0    0  0.20190107800E+02  0.13518107011E+02  0.32600448781E+02  0.50528819845E+02  0.29999878401E+02 0.  0.
        -12    1    1    2    0    0 -0.20190107800E+02 -0.13518107011E+02 -0.32600448781E+02  0.40659180155E+02  0.00000000000E+00 0.  1.
         11    1    3    3    0    0  0.12228402368E+02  0.18299464516E+01  0.30509835515E+02  0.32920094045E+02  0.51100000000E-03 0.  1.
        -11    1    3    3    0    0  0.90977756626E+01  0.47030580874E+01  0.24223452060E+01  0.10524069267E+02  0.51100000000E-03 0. -1.
         12    1    3    3    0    0 -0.11360702307E+01  0.69851024718E+01 -0.33173193998E+00  0.70846565330E+01  0.00000000000E+00 0. -1.
</event>
<event>
 7    1  0.4962385E-011  0.5052886E+02  0.7816164E-02  0.1300439E+00
        -11   -1    0    0    0    0  0.00000000000E+00  0.00000000000E+00  0.45593999997E+02  0.45594000000E+02  0.51100000000E-03 0.  1.
         11   -1    0    0    0    0 -0.00000000000E+00 -0.00000000000E+00 -0.45593999997E+02  0.45594000000E+02  0.51100000000E-03 0. -1.
    9900012    2    1    2    0    0  0.39442313091E+02  0.78879323331E+01  0.59372073002E+01  0.50528856269E+02  0.29999989114E+02 0.  0.
        -12    1    1    2    0    0 -0.39442313091E+02 -0.78879323331E+01 -0.59372073002E+01  0.40659143731E+02  0.00000000000E+00 0.  1.
         11    1    3    3    0    0  0.31226175890E+02  0.12386729784E+02  0.17743079644E+01  0.33640055060E+02  0.51100000000E-03 0. -1.
        -11    1    3    3    0    0 -0.26191694602E+01  0.46076754362E+00 -0.21351216716E+01  0.34104398843E+01  0.51100000000E-03 0.  1.
         12    1    3    3    0    0  0.10835306661E+02 -0.49595649946E+01  0.62980210073E+01  0.13478361324E+02  0.00000000000E+00 0. -1.
</event>
<event>
 7    1  0.4962385E-011  0.5052886E+02  0.7816164E-02  0.1300439E+00
        -11   -1    0    0    0    0  0.00000000000E+00  0.00000000000E+00  0.45593999997E+02  0.45594000000E+02  0.51100000000E-03 0.  1.
         11   -1    0    0    0    0 -0.00000000000E+00 -0.00000000000E+00 -0.45593999997E+02  0.45594000000E+02  0.51100000000E-03 0. -1.
    9900012    2    1    2    0    0 -0.20543964214E+02 -0.30438864001E+02 -0.17452405282E+02  0.50528863789E+02  0.30000011974E+02 0.  0.
        -12    1    1    2    0    0  0.20543964214E+02  0.30438864001E+02  0.17452405282E+02  0.40659136211E+02  0.00000000000E+00 0.  1.
         11    1    3    3    0    0 -0.19165613388E+02 -0.28243895887E+02 -0.22399601375E+02  0.40826223600E+02  0.51100000000E-03 0. -1.
        -11    1    3    3    0    0 -0.31766389403E+01  0.14796629937E+01  0.30889380977E+00  0.35179330834E+01  0.51100000000E-03 0.  1.
         12    1    3    3    0    0  0.17982881137E+01 -0.36746311075E+01  0.46383022834E+01  0.61847071061E+01  0.00000000000E+00 0. -1.
</event>
<event>
 7    1  0.4962385E-011  0.5052896E+02  0.7816164E-02  0.1300438E+00
        -11   -1    0    0    0    0  0.00000000000E+00  0.00000000000E+00  0.45593999997E+02  0.45594000000E+02  0.51100000000E-03 0.  1.
         11   -1    0    0    0    0 -0.00000000000E+00 -0.00000000000E+00 -0.45593999997E+02  0.45594000000E+02  0.51100000000E-03 0. -1.
    9900012    2    1    2    0    0  0.25147769630E+02 -0.15439004736E+02 -0.27971128952E+02  0.50528963619E+02  0.30000315415E+02 0.  0.
        -12    1    1    2    0    0 -0.25147769630E+02  0.15439004736E+02  0.27971128952E+02  0.40659036381E+02  0.00000000000E+00 0.  1.
         11    1    3    3    0    0  0.48704763685E+01  0.46808758587E+01 -0.18168775660E+02  0.19383924992E+02  0.51100000000E-03 0. -1.
        -11    1    3    3    0    0  0.18744117377E+02 -0.17412652575E+02 -0.60853558528E+01  0.26297793863E+02  0.51100000000E-03 0.  1.
        -12    1    3    3    0    0  0.15331758847E+01 -0.27072280198E+01 -0.37169974386E+01  0.48472447641E+01  0.00000000000E+00 0.  1.
</event>
<event>
 7    1  0.4962385E-011  0.5052886E+02  0.7816164E-02  0.1300439E+00
        -11   -1    0    0    0    0  0.00000000000E+00  0.00000000000E+00  0.45593999997E+02  0.45594000000E+02  0.51100000000E-03 0. -1.
         11   -1    0    0    0    0 -0.00000000000E+00 -0.00000000000E+00 -0.45593999997E+02  0.45594000000E+02  0.51100000000E-03 0.  1.
    9900012    2    1    2    0    0 -0.31304690176E+02 -0.75834471068E+01  0.24812772151E+02  0.50528856393E+02  0.29999989492E+02 0.  0.
        -12    1    1    2    0    0  0.31304690176E+02  0.75834471068E+01 -0.24812772151E+02  0.40659143607E+02  0.00000000000E+00 0.  1.
         11    1    3    3    0    0 -0.17370385106E+02  0.95492297033E+01  0.18323735212E+02  0.26994024135E+02  0.51100000000E-03 0. -1.
        -11    1    3    3    0    0 -0.56959270935E+01 -0.10767014751E+02  0.28881522461E+01  0.12518530895E+02  0.51100000000E-03 0.  1.
         12    1    3    3    0    0 -0.82383779774E+01 -0.63656620589E+01  0.36008846924E+01  0.11016301363E+02  0.00000000000E+00 0. -1.
</event>
<event>
 7    1  0.4962385E-011  0.5052887E+02  0.7816164E-02  0.1300439E+00
        -11   -1    0    0    0    0  0.00000000000E+00  0.00000000000E+00  0.45593999997E+02  0.45594000000E+02  0.51100000000E-03 0.  1.
         11   -1    0    0    0    0 -0.00000000000E+00 -0.00000000000E+00 -0.45593999997E+02  0.45594000000E+02  0.51100000000E-03 0. -1.
    9900012    2    1    2    0    0  0.26818107888E+02  0.30312928571E+02 -0.38833427492E+01  0.50528869412E+02  0.30000029065E+02 0.  0.
        -12    1    1    2    0    0 -0.26818107888E+02 -0.30312928571E+02  0.38833427492E+01  0.40659130588E+02  0.00000000000E+00 0.  1.
         11    1    3    3    0    0  0.12841148779E+02  0.73913132697E+01 -0.23291616324E+01  0.14998386846E+02  0.51100000000E-03 0. -1.
        -11    1    3    3    0    0 -0.63161839950E+01  0.73200732371E+01 -0.22382497137E+01  0.99240825519E+01  0.51100000000E-03 0.  1.
        -12    1    3    3    0    0  0.20293143105E+02  0.15601542064E+02  0.68406859701E+00  0.25606400014E+02  0.00000000000E+00 0.  1.
</event>
<event>
 7    1  0.4962385E-011  0.5052886E+02  0.7816164E-02  0.1300439E+00
        -11   -1    0    0    0    0  0.00000000000E+00  0.00000000000E+00  0.45593999997E+02  0.45594000000E+02  0.51100000000E-03 0.  1.
         11   -1    0    0    0    0 -0.00000000000E+00 -0.00000000000E+00 -0.45593999997E+02  0.45594000000E+02  0.51100000000E-03 0. -1.
    9900012    2    1    2    0    0  0.14793933009E+02  0.31818851208E+02 -0.20539381088E+02  0.50528856852E+02  0.29999990888E+02 0.  0.
        -12    1    1    2    0    0 -0.14793933009E+02 -0.31818851208E+02  0.20539381088E+02  0.40659143148E+02  0.00000000000E+00 0.  1.
         11    1    3    3    0    0 -0.17691158331E+01  0.17748188964E+01 -0.52766280796E+01  0.58414516258E+01  0.51100000000E-03 0. -1.
        -11    1    3    3    0    0  0.14572257377E+02  0.24863805319E+02 -0.39982416699E+00  0.28822202546E+02  0.51100000000E-03 0.  1.
        -12    1    3    3    0    0  0.19907914655E+01  0.51802269926E+01 -0.14862928841E+02  0.15865202680E+02  0.00000000000E+00 0.  1.
</event>
<event>
 7    1  0.4962385E-011  0.5052887E+02  0.7816164E-02  0.1300439E+00
        -11   -1    0    0    0    0  0.00000000000E+00  0.00000000000E+00  0.45593999997E+02  0.45594000000E+02  0.51100000000E-03 0.  1.
         11   -1    0    0    0    0 -0.00000000000E+00 -0.00000000000E+00 -0.45593999997E+02  0.45594000000E+02  0.51100000000E-03 0. -1.
    9900012    2    1    2    0    0  0.34914227604E+01 -0.25749152244E+01 -0.40427032448E+02  0.50528866047E+02  0.30000018836E+02 0.  0.
        -12    1    1    2    0    0 -0.34914227604E+01  0.25749152244E+01  0.40427032448E+02  0.40659133953E+02  0.00000000000E+00 0.  1.
         11    1    3    3    0    0 -0.16284642187E+01 -0.30883305194E+01 -0.21293548537E+01  0.40894783852E+01  0.51100000000E-03 0. -1.
        -11    1    3    3    0    0  0.13276463827E+01  0.27742396875E+01 -0.41096861624E+02  0.41211783343E+02  0.51100000000E-03 0.  1.
        -12    1    3    3    0    0  0.37922405964E+01 -0.22608243924E+01  0.27991840298E+01  0.52276043181E+01  0.00000000000E+00 0.  1.
</event>
<event>
 7    1  0.4962385E-011  0.5052886E+02  0.7816164E-02  0.1300439E+00
        -11   -1    0    0    0    0  0.00000000000E+00  0.00000000000E+00  0.45593999997E+02  0.45594000000E+02  0.51100000000E-03 0.  1.
         11   -1    0    0    0    0 -0.00000000000E+00 -0.00000000000E+00 -0.45593999997E+02  0.45594000000E+02  0.51100000000E-03 0. -1.
    9900012    2    1    2    0    0  0.33939060791E+02 -0.13243536899E+02 -0.18053114136E+02  0.50528855309E+02  0.29999986197E+02 0.  0.
        -12    1    1    2    0    0 -0.33939060791E+02  0.13243536899E+02  0.18053114136E+02  0.40659144691E+02  0.00000000000E+00 0.  1.
         11    1    3    3    0    0  0.11185388229E+02 -0.66470947899E+01 -0.25975974543E+01  0.13268168366E+02  0.51100000000E-03 0. -1.
        -11    1    3    3    0    0  0.28383853515E+01  0.75671135614E+01 -0.87667760413E+01  0.11923673992E+02  0.51100000000E-03 0.  1.
        -12    1    3    3    0    0  0.19915287211E+02 -0.14163555671E+02 -0.66887406404E+01  0.25337012951E+02  0.00000000000E+00 0.  1.
</event>
<event>
 7    1  0.4962385E-011  0.5052885E+02  0.7816164E-02  0.1300439E+00
        -11   -1    0    0    0    0  0.00000000000E+00  0.00000000000E+00  0.45593999997E+02  0.45594000000E+02  0.51100000000E-03 0. -1.
         11   -1    0    0    0    0 -0.00000000000E+00 -0.00000000000E+00 -0.45593999997E+02  0.45594000000E+02  0.51100000000E-03 0.  1.
    9900012    2    1    2    0    0 -0.34338449783E+02 -0.11009171753E+02  0.18783906883E+02  0.50528853993E+02  0.29999982199E+02 0.  0.
        -12    1    1    2    0    0  0.34338449783E+02  0.11009171753E+02 -0.18783906883E+02  0.40659146007E+02  0.00000000000E+00 0.  1.
         11    1    3    3    0    0 -0.21936872504E+02 -0.12996592468E+02  0.14413809886E+02  0.29289856721E+02  0.51100000000E-03 0. -1.
        -11    1    3    3    0    0 -0.12116719964E+02  0.15977516766E+01 -0.39965295608E+01  0.12858458769E+02  0.51100000000E-03 0.  1.
         12    1    3    3    0    0 -0.28485731388E+00  0.38966903763E+00  0.83666265583E+01  0.83805385038E+01  0.00000000000E+00 0. -1.
</event>
<event>
 7    1  0.4962385E-011  0.5052887E+02  0.7816164E-02  0.1300439E+00
        -11   -1    0    0    0    0  0.00000000000E+00  0.00000000000E+00  0.45593999997E+02  0.45594000000E+02  0.51100000000E-03 0.  1.
         11   -1    0    0    0    0 -0.00000000000E+00 -0.00000000000E+00 -0.45593999997E+02  0.45594000000E+02  0.51100000000E-03 0. -1.
    9900012    2    1    2    0    0 -0.28831235443E+02 -0.73226055075E+01 -0.27718306169E+02  0.50528865904E+02  0.30000018401E+02 0.  0.
        -12    1    1    2    0    0  0.28831235443E+02  0.73226055075E+01  0.27718306169E+02  0.40659134096E+02  0.00000000000E+00 0.  1.
         11    1    3    3    0    0 -0.23351705088E+02 -0.93082731940E+01 -0.93213609940E+01  0.26811077028E+02  0.51100000000E-03 0. -1.
        -11    1    3    3    0    0 -0.78455021755E+01  0.37391383455E+01 -0.18832192866E+02  0.20740890732E+02  0.51100000000E-03 0.  1.
        -12    1    3    3    0    0  0.23659718203E+01 -0.17534706590E+01  0.43524769055E+00  0.29768981439E+01  0.00000000000E+00 0.  1.
</event>
<event>
 7    1  0.4962385E-011  0.5052888E+02  0.7816164E-02  0.1300439E+00
        -11   -1    0    0    0    0  0.00000000000E+00  0.00000000000E+00  0.45593999997E+02  0.45594000000E+02  0.51100000000E-03 0.  1.
         11   -1    0    0    0    0 -0.00000000000E+00 -0.00000000000E+00 -0.45593999997E+02  0.45594000000E+02  0.51100000000E-03 0. -1.
    9900012    2    1    2    0    0 -0.70984377128E+01 -0.40015710287E+02  0.12326453108E+01  0.50528876765E+02  0.30000051415E+02 0.  0.
        -12    1    1    2    0    0  0.70984377128E+01  0.40015710287E+02 -0.12326453108E+01  0.40659123235E+02  0.00000000000E+00 0.  1.
         11    1    3    3    0    0 -0.14844519261E+02 -0.16958051926E+02 -0.34705758460E+01  0.22803073788E+02  0.51100000000E-03 0. -1.
        -11    1    3    3    0    0  0.69734470671E+01 -0.12647342222E+02 -0.30019859942E+01  0.14751140615E+02  0.51100000000E-03 0.  1.
         12    1    3    3    0    0  0.77263448119E+00 -0.10410316140E+02  0.77052071510E+01  0.12974662362E+02  0.00000000000E+00 0. -1.
</event>
<event>
 7    1  0.4962385E-011  0.5052886E+02  0.7816164E-02  0.1300439E+00
        -11   -1    0    0    0    0  0.00000000000E+00  0.00000000000E+00  0.45593999997E+02  0.45594000000E+02  0.51100000000E-03 0.  1.
         11   -1    0    0    0    0 -0.00000000000E+00 -0.00000000000E+00 -0.45593999997E+02  0.45594000000E+02  0.51100000000E-03 0. -1.
    9900012    2    1    2    0    0 -0.13913551690E+02 -0.16647895033E+02 -0.34386427207E+02  0.50528859506E+02  0.29999998954E+02 0.  0.
        -12    1    1    2    0    0  0.13913551690E+02  0.16647895033E+02  0.34386427207E+02  0.40659140494E+02  0.00000000000E+00 0.  1.
         11    1    3    3    0    0 -0.12164562334E+01 -0.35277316717E+01  0.59526263315E+00  0.37787556654E+01  0.51100000000E-03 0. -1.
        -11    1    3    3    0    0 -0.15685815133E+01 -0.16439738462E+02 -0.29721268214E+02  0.34001165174E+02  0.51100000000E-03 0.  1.
        -12    1    3    3    0    0 -0.11128513944E+02  0.33195751006E+01 -0.52604216256E+01  0.12748938667E+02  0.00000000000E+00 0.  1.
</event>
<event>
 7    1  0.4962385E-011  0.5052887E+02  0.7816164E-02  0.1300439E+00
        -11   -1    0    0    0    0  0.00000000000E+00  0.00000000000E+00  0.45593999997E+02  0.45594000000E+02  0.51100000000E-03 0.  1.
         11   -1    0    0    0    0 -0.00000000000E+00 -0.00000000000E+00 -0.45593999997E+02  0.45594000000E+02  0.51100000000E-03 0. -1.
    9900012    2    1    2    0    0 -0.26738221647E+02 -0.28294249445E+02 -0.11733208506E+02  0.50528865352E+02  0.30000016723E+02 0.  0.
        -12    1    1    2    0    0  0.26738221647E+02  0.28294249445E+02  0.11733208506E+02  0.40659134648E+02  0.00000000000E+00 0.  1.
         11    1    3    3    0    0 -0.14130022999E+02 -0.18255684195E+02  0.60091454792E+01  0.23854504502E+02  0.51100000000E-03 0. -1.
        -11    1    3    3    0    0 -0.14760975935E+02 -0.92829293135E+01 -0.16774794136E+02  0.24196134108E+02  0.51100000000E-03 0.  1.
         12    1    3    3    0    0  0.21527772880E+01 -0.75563593650E+00 -0.96755984870E+00  0.24782267413E+01  0.00000000000E+00 0. -1.
</event>
<event>
 7    1  0.4962385E-011  0.5052888E+02  0.7816164E-02  0.1300439E+00
        -11   -1    0    0    0    0  0.00000000000E+00  0.00000000000E+00  0.45593999997E+02  0.45594000000E+02  0.51100000000E-03 0.  1.
         11   -1    0    0    0    0 -0.00000000000E+00 -0.00000000000E+00 -0.45593999997E+02  0.45594000000E+02  0.51100000000E-03 0. -1.
    9900012    2    1    2    0    0  0.23467423902E+02  0.13189504481E+01 -0.33176861308E+02  0.50528883665E+02  0.30000072388E+02 0.  0.
        -12    1    1    2    0    0 -0.23467423902E+02 -0.13189504481E+01  0.33176861308E+02  0.40659116335E+02  0.00000000000E+00 0.  1.
         11    1    3    3    0    0 -0.40724200758E+01 -0.36413745706E+01 -0.57534975179E+01  0.79339112667E+01  0.51100000000E-03 0. -1.
        -11    1    3    3    0    0  0.16605546758E+02  0.64650155807E+01 -0.65541454416E+01  0.18986769928E+02  0.51100000000E-03 0.  1.
         12    1    3    3    0    0  0.10934297220E+02 -0.15046905621E+01 -0.20869218349E+02  0.23608202470E+02  0.00000000000E+00 0. -1.
</event>
<event>
 7    1  0.4962385E-011  0.5052887E+02  0.7816164E-02  0.1300439E+00
        -11   -1    0    0    0    0  0.00000000000E+00  0.00000000000E+00  0.45593999997E+02  0.45594000000E+02  0.51100000000E-03 0.  1.
         11   -1    0    0    0    0 -0.00000000000E+00 -0.00000000000E+00 -0.45593999997E+02  0.45594000000E+02  0.51100000000E-03 0. -1.
    9900012    2    1    2    0    0 -0.83658304347E+01 -0.34308920463E+02 -0.20151325379E+02  0.50528867486E+02  0.30000023212E+02 0.  0.
        -12    1    1    2    0    0  0.83658304347E+01  0.34308920463E+02  0.20151325379E+02  0.40659132514E+02  0.00000000000E+00 0.  1.
         11    1    3    3    0    0 -0.56227826084E+01 -0.14243230829E+02 -0.19983268354E+02  0.25175708989E+02  0.51100000000E-03 0. -1.
        -11    1    3    3    0    0 -0.55927523549E+01 -0.14178106258E+02  0.59836898538E+01  0.16373824247E+02  0.51100000000E-03 0.  1.
         12    1    3    3    0    0  0.28497045286E+01 -0.58875833768E+01 -0.61517468788E+01  0.89793342504E+01  0.00000000000E+00 0. -1.
</event>
<event>
 7    1  0.4962385E-011  0.5052885E+02  0.7816164E-02  0.1300439E+00
        -11   -1    0    0    0    0  0.00000000000E+00  0.00000000000E+00  0.45593999997E+02  0.45594000000E+02  0.51100000000E-03 0.  1.
         11   -1    0    0    0    0 -0.00000000000E+00 -0.00000000000E+00 -0.45593999997E+02  0.45594000000E+02  0.51100000000E-03 0. -1.
    9900012    2    1    2    0    0  0.92209014673E+00 -0.12636191721E+02 -0.38634733058E+02  0.50528853551E+02  0.29999980855E+02 0.  0.
        -12    1    1    2    0    0 -0.92209014673E+00  0.12636191721E+02  0.38634733058E+02  0.40659146449E+02  0.00000000000E+00 0.  1.
         11    1    3    3    0    0 -0.51047864188E+01 -0.98327533734E+01 -0.98359535226E+01  0.14815122856E+02  0.51100000000E-03 0. -1.
        -11    1    3    3    0    0  0.52606613287E+01  0.24854549297E+01 -0.29725767852E+02  0.30289822028E+02  0.51100000000E-03 0.  1.
        -12    1    3    3    0    0  0.76621523684E+00 -0.52888932775E+01  0.92698831668E+00  0.54239086672E+01  0.00000000000E+00 0.  1.
</event>
<event>
 7    1  0.4962385E-011  0.5052887E+02  0.7816164E-02  0.1300439E+00
        -11   -1    0    0    0    0  0.00000000000E+00  0.00000000000E+00  0.45593999997E+02  0.45594000000E+02  0.51100000000E-03 0. -1.
         11   -1    0    0    0    0 -0.00000000000E+00 -0.00000000000E+00 -0.45593999997E+02  0.45594000000E+02  0.51100000000E-03 0.  1.
    9900012    2    1    2    0    0 -0.12557811901E+02 -0.35439783446E+02  0.15475410147E+02  0.50528865606E+02  0.30000017497E+02 0.  0.
        -12    1    1    2    0    0  0.12557811901E+02  0.35439783446E+02 -0.15475410147E+02  0.40659134394E+02  0.00000000000E+00 0.  1.
         11    1    3    3    0    0  0.42021300432E+01 -0.19270895828E+02  0.16144287337E+02  0.25488494204E+02  0.51100000000E-03 0. -1.
        -11    1    3    3    0    0 -0.72510365736E+01 -0.82723322465E+01 -0.48083925421E+01  0.12005400922E+02  0.51100000000E-03 0.  1.
        -12    1    3    3    0    0 -0.95089053706E+01 -0.78965553721E+01  0.41395153519E+01  0.13034970481E+02  0.00000000000E+00 0.  1.
</event>
<event>
 7    1  0.4962385E-011  0.5052887E+02  0.7816164E-02  0.1300439E+00
        -11   -1    0    0    0    0  0.00000000000E+00  0.00000000000E+00  0.45593999997E+02  0.45594000000E+02  0.51100000000E-03 0.  1.
         11   -1    0    0    0    0 -0.00000000000E+00 -0.00000000000E+00 -0.45593999997E+02  0.45594000000E+02  0.51100000000E-03 0. -1.
    9900012    2    1    2    0    0 -0.16948944022E+02  0.71045623544E+01 -0.36268770896E+02  0.50528865085E+02  0.30000015914E+02 0.  0.
        -12    1    1    2    0    0  0.16948944022E+02 -0.71045623544E+01  0.36268770896E+02  0.40659134915E+02  0.00000000000E+00 0.  1.
         11    1    3    3    0    0  0.63163530726E+00 -0.48713817124E+01 -0.39851709035E+01  0.63254177997E+01  0.51100000000E-03 0. -1.
        -11    1    3    3    0    0 -0.14899732648E+02  0.17983332160E+02 -0.27449018555E+02  0.36039573921E+02  0.51100000000E-03 0.  1.
        -12    1    3    3    0    0 -0.26808466816E+01 -0.60073880933E+01 -0.48345814374E+01  0.81638733643E+01  0.00000000000E+00 0.  1.
</event>
<event>
 7    1  0.4962385E-011  0.5052889E+02  0.7816164E-02  0.1300439E+00
        -11   -1    0    0    0    0  0.00000000000E+00  0.00000000000E+00  0.45593999997E+02  0.45594000000E+02  0.51100000000E-03 0. -1.
         11   -1    0    0    0    0 -0.00000000000E+00 -0.00000000000E+00 -0.45593999997E+02  0.45594000000E+02  0.51100000000E-03 0.  1.
    9900012    2    1    2    0    0 -0.20239581358E+02 -0.13627704134E+02  0.32523967736E+02  0.50528887235E+02  0.30000083240E+02 0.  0.
        -12    1    1    2    0    0  0.20239581358E+02  0.13627704134E+02 -0.32523967736E+02  0.40659112765E+02  0.00000000000E+00 0.  1.
         11    1    3    3    0    0 -0.70055573070E+01 -0.54542392364E+01  0.50526562639E+01  0.10215473284E+02  0.51100000000E-03 0. -1.
        -11    1    3    3    0    0 -0.78201144086E+01  0.51066801993E+01  0.23715647350E+02  0.25488513129E+02  0.51100000000E-03 0.  1.
        -12    1    3    3    0    0 -0.54139096427E+01 -0.13280145097E+02  0.37556641226E+01  0.14824900823E+02  0.00000000000E+00 0.  1.
</event>
<event>
 7    1  0.4962385E-011  0.5052886E+02  0.7816164E-02  0.1300439E+00
        -11   -1    0    0    0    0  0.00000000000E+00  0.00000000000E+00  0.45593999997E+02  0.45594000000E+02  0.51100000000E-03 0. -1.
         11   -1    0    0    0    0 -0.00000000000E+00 -0.00000000000E+00 -0.45593999997E+02  0.45594000000E+02  0.51100000000E-03 0.  1.
    9900012    2    1    2    0    0  0.60167462954E+01 -0.28987961496E+02  0.27868662063E+02  0.50528862369E+02  0.30000007657E+02 0.  0.
        -12    1    1    2    0    0 -0.60167462954E+01  0.28987961496E+02 -0.27868662063E+02  0.40659137631E+02  0.00000000000E+00 0.  1.
         11    1    3    3    0    0 -0.84211151360E+01 -0.17466952768E+02  0.70898876504E+01  0.20646455538E+02  0.51100000000E-03 0. -1.
        -11    1    3    3    0    0  0.27951867231E+01  0.96829592480E+00  0.80770279914E+01  0.86016886278E+01  0.51100000000E-03 0.  1.
         12    1    3    3    0    0  0.11642674708E+02 -0.12489304653E+02  0.12701746422E+02  0.21280718203E+02  0.00000000000E+00 0. -1.
</event>
<event>
 7    1  0.4962385E-011  0.5052887E+02  0.7816164E-02  0.1300439E+00
        -11   -1    0    0    0    0  0.00000000000E+00  0.00000000000E+00  0.45593999997E+02  0.45594000000E+02  0.51100000000E-03 0.  1.
         11   -1    0    0    0    0 -0.00000000000E+00 -0.00000000000E+00 -0.45593999997E+02  0.45594000000E+02  0.51100000000E-03 0. -1.
    9900012    2    1    2    0    0 -0.27799033619E+02  0.86851071377E+01 -0.28371590910E+02  0.50528874002E+02  0.30000043017E+02 0.  0.
        -12    1    1    2    0    0  0.27799033619E+02 -0.86851071377E+01  0.28371590910E+02  0.40659125998E+02  0.00000000000E+00 0.  1.
         11    1    3    3    0    0  0.34298732629E+00  0.56578616804E+01 -0.14317050543E+02  0.15398278333E+02  0.51100000000E-03 0. -1.
        -11    1    3    3    0    0 -0.19958525309E+02  0.14307920988E+01 -0.15082898172E+01  0.20066510334E+02  0.51100000000E-03 0.  1.
        -12    1    3    3    0    0 -0.81834956368E+01  0.15964533586E+01 -0.12546250549E+02  0.15064085336E+02  0.00000000000E+00 0.  1.
</event>
<event>
 7    1  0.4962385E-011  0.5052886E+02  0.7816164E-02  0.1300439E+00
        -11   -1    0    0    0    0  0.00000000000E+00  0.00000000000E+00  0.45593999997E+02  0.45594000000E+02  0.51100000000E-03 0.  1.
         11   -1    0    0    0    0 -0.00000000000E+00 -0.00000000000E+00 -0.45593999997E+02  0.45594000000E+02  0.51100000000E-03 0. -1.
    9900012    2    1    2    0    0  0.12876374233E+02 -0.34050393437E+02 -0.18108990332E+02  0.50528857885E+02  0.29999994029E+02 0.  0.
        -12    1    1    2    0    0 -0.12876374233E+02  0.34050393437E+02  0.18108990332E+02  0.40659142115E+02  0.00000000000E+00 0.  1.
         11    1    3    3    0    0  0.50952774808E+01 -0.22568030207E+01 -0.89734013067E+01  0.10562998805E+02  0.51100000000E-03 0. -1.
        -11    1    3    3    0    0 -0.44720221732E+01 -0.12256074955E+02  0.37152415937E+01  0.13565153002E+02  0.51100000000E-03 0.  1.
        -12    1    3    3    0    0  0.12253118925E+02 -0.19537515462E+02 -0.12850830619E+02  0.26400706078E+02  0.00000000000E+00 0.  1.
</event>
<event>
 7    1  0.4962385E-011  0.5052886E+02  0.7816164E-02  0.1300439E+00
        -11   -1    0    0    0    0  0.00000000000E+00  0.00000000000E+00  0.45593999997E+02  0.45594000000E+02  0.51100000000E-03 0.  1.
         11   -1    0    0    0    0 -0.00000000000E+00 -0.00000000000E+00 -0.45593999997E+02  0.45594000000E+02  0.51100000000E-03 0. -1.
    9900012    2    1    2    0    0  0.17953331856E+02  0.36073698572E+02 -0.54343285009E+01  0.50528858597E+02  0.29999996191E+02 0.  0.
        -12    1    1    2    0    0 -0.17953331856E+02 -0.36073698572E+02  0.54343285009E+01  0.40659141403E+02  0.00000000000E+00 0.  1.
         11    1    3    3    0    0  0.30027483331E+01  0.13828369091E+01 -0.91826349569E+01  0.97595860815E+01  0.51100000000E-03 0. -1.
        -11    1    3    3    0    0  0.12716459834E+00  0.18429442401E+02  0.35271044389E+01  0.18764354080E+02  0.51100000000E-03 0.  1.
         12    1    3    3    0    0  0.14823418924E+02  0.16261419262E+02  0.22120201706E+00  0.22004918435E+02  0.00000000000E+00 0. -1.
</event>
<event>
 7    1  0.4962385E-011  0.5052886E+02  0.7816164E-02  0.1300439E+00
        -11   -1    0    0    0    0  0.00000000000E+00  0.00000000000E+00  0.45593999997E+02  0.45594000000E+02  0.51100000000E-03 0.  1.
         11   -1    0    0    0    0 -0.00000000000E+00 -0.00000000000E+00 -0.45593999997E+02  0.45594000000E+02  0.51100000000E-03 0. -1.
    9900012    2    1    2    0    0  0.16513033105E+02 -0.14746428904E+02 -0.34103201669E+02  0.50528858448E+02  0.29999995738E+02 0.  0.
        -12    1    1    2    0    0 -0.16513033105E+02  0.14746428904E+02  0.34103201669E+02  0.40659141552E+02  0.00000000000E+00 0.  1.
         11    1    3    3    0    0  0.11201441096E+02 -0.50007796882E+01 -0.36109343423E+02  0.38136134608E+02  0.51100000000E-03 0. -1.
        -11    1    3    3    0    0  0.30829479552E+01 -0.48569512924E+01 -0.15398553271E+01  0.59553084421E+01  0.51100000000E-03 0.  1.
         12    1    3    3    0    0  0.22286440534E+01 -0.48886979231E+01  0.35459970817E+01  0.64374153977E+01  0.00000000000E+00 0. -1.
</event>
<event>
 7    1  0.4962385E-011  0.5052886E+02  0.7816164E-02  0.1300439E+00
        -11   -1    0    0    0    0  0.00000000000E+00  0.00000000000E+00  0.45593999997E+02  0.45594000000E+02  0.51100000000E-03 0. -1.
         11   -1    0    0    0    0 -0.00000000000E+00 -0.00000000000E+00 -0.45593999997E+02  0.45594000000E+02  0.51100000000E-03 0.  1.
    9900012    2    1    2    0    0  0.78495861143E+01 -0.39683659183E+02 -0.40935192857E+01  0.50528859472E+02  0.29999998852E+02 0.  0.
        -12    1    1    2    0    0 -0.78495861143E+01  0.39683659183E+02  0.40935192857E+01  0.40659140528E+02  0.00000000000E+00 0.  1.
         11    1    3    3    0    0 -0.74033295933E+00 -0.18736933875E+02  0.47566549512E+01  0.19345452967E+02  0.51100000000E-03 0. -1.
        -11    1    3    3    0    0  0.87690157244E+01 -0.25216549369E+01  0.26024894901E+01  0.94882734047E+01  0.51100000000E-03 0.  1.
        -12    1    3    3    0    0 -0.17909665073E+00 -0.18425070371E+02 -0.11452663727E+02  0.21695133100E+02  0.00000000000E+00 0.  1.
</event>
<event>
 7    1  0.4962385E-011  0.5052887E+02  0.7816164E-02  0.1300439E+00
        -11   -1    0    0    0    0  0.00000000000E+00  0.00000000000E+00  0.45593999997E+02  0.45594000000E+02  0.51100000000E-03 0.  1.
         11   -1    0    0    0    0 -0.00000000000E+00 -0.00000000000E+00 -0.45593999997E+02  0.45594000000E+02  0.51100000000E-03 0. -1.
    9900012    2    1    2    0    0  0.24137393218E+02  0.28799725793E+02 -0.15528269508E+02  0.50528866819E+02  0.30000021184E+02 0.  0.
        -12    1    1    2    0    0 -0.24137393218E+02 -0.28799725793E+02  0.15528269508E+02  0.40659133181E+02  0.00000000000E+00 0.  1.
         11    1    3    3    0    0  0.17772854095E+02  0.34725168637E+01 -0.81981714143E+01  0.19878197374E+02  0.51100000000E-03 0. -1.
        -11    1    3    3    0    0  0.91253724570E+01  0.23675579773E+02 -0.34444723586E+01  0.25606051827E+02  0.51100000000E-03 0.  1.
         12    1    3    3    0    0 -0.27608333340E+01  0.16516291566E+01 -0.38856257351E+01  0.50446176190E+01  0.00000000000E+00 0. -1.
</event>
<event>
 7    1  0.4962385E-011  0.5052886E+02  0.7816164E-02  0.1300439E+00
        -11   -1    0    0    0    0  0.00000000000E+00  0.00000000000E+00  0.45593999997E+02  0.45594000000E+02  0.51100000000E-03 0.  1.
         11   -1    0    0    0    0 -0.00000000000E+00 -0.00000000000E+00 -0.45593999997E+02  0.45594000000E+02  0.51100000000E-03 0. -1.
    9900012    2    1    2    0    0  0.18294085761E+02  0.99673584546E+01 -0.34916242178E+02  0.50528858639E+02  0.29999996318E+02 0.  0.
        -12    1    1    2    0    0 -0.18294085761E+02 -0.99673584546E+01  0.34916242178E+02  0.40659141361E+02  0.00000000000E+00 0.  1.
         11    1    3    3    0    0 -0.25275769417E+01  0.69880919374E+01 -0.79255818661E+01  0.10864479845E+02  0.51100000000E-03 0. -1.
        -11    1    3    3    0    0  0.18517995695E+02 -0.17792375089E+01 -0.28617683965E+02  0.34132882774E+02  0.51100000000E-03 0.  1.
        -12    1    3    3    0    0  0.23036670079E+01  0.47585040260E+01  0.16270236531E+01  0.55314960198E+01  0.00000000000E+00 0.  1.
</event>
<event>
 7    1  0.4962385E-011  0.5052886E+02  0.7816164E-02  0.1300439E+00
        -11   -1    0    0    0    0  0.00000000000E+00  0.00000000000E+00  0.45593999997E+02  0.45594000000E+02  0.51100000000E-03 0. -1.
         11   -1    0    0    0    0 -0.00000000000E+00 -0.00000000000E+00 -0.45593999997E+02  0.45594000000E+02  0.51100000000E-03 0.  1.
    9900012    2    1    2    0    0  0.32091957508E+01  0.15641886647E+02  0.37392485042E+02  0.50528862123E+02  0.30000006909E+02 0.  0.
        -12    1    1    2    0    0 -0.32091957508E+01 -0.15641886647E+02 -0.37392485042E+02  0.40659137877E+02  0.00000000000E+00 0.  1.
         11    1    3    3    0    0 -0.47729989248E+01  0.16772665896E+02  0.13556844277E+02  0.22088274423E+02  0.51100000000E-03 0. -1.
        -11    1    3    3    0    0  0.31746940312E+01 -0.24623266829E+01 -0.71725780326E-01  0.40183180230E+01  0.51100000000E-03 0.  1.
         12    1    3    3    0    0  0.48075006445E+01  0.13315474346E+01  0.23907366546E+02  0.24422269677E+02  0.00000000000E+00 0. -1.
</event>
<event>
 7    1  0.4962385E-011  0.5052886E+02  0.7816164E-02  0.1300439E+00
        -11   -1    0    0    0    0  0.00000000000E+00  0.00000000000E+00  0.45593999997E+02  0.45594000000E+02  0.51100000000E-03 0.  1.
         11   -1    0    0    0    0 -0.00000000000E+00 -0.00000000000E+00 -0.45593999997E+02  0.45594000000E+02  0.51100000000E-03 0. -1.
    9900012    2    1    2    0    0 -0.39775320114E+01  0.34893198055E+02 -0.20489254231E+02  0.50528861171E+02  0.30000004014E+02 0.  0.
        -12    1    1    2    0    0  0.39775320114E+01 -0.34893198055E+02  0.20489254231E+02  0.40659138829E+02  0.00000000000E+00 0.  1.
         11    1    3    3    0    0  0.87520875430E+01  0.21904296879E+02 -0.14013267878E+02  0.27436634907E+02  0.51100000000E-03 0. -1.
        -11    1    3    3    0    0 -0.39595350922E+01  0.11788325277E+02 -0.56534188003E+00  0.12448379118E+02  0.51100000000E-03 0.  1.
         12    1    3    3    0    0 -0.87700844622E+01  0.12005758988E+01 -0.59106444734E+01  0.10643847145E+02  0.00000000000E+00 0. -1.
</event>
<event>
 7    1  0.4962385E-011  0.5052886E+02  0.7816164E-02  0.1300439E+00
        -11   -1    0    0    0    0  0.00000000000E+00  0.00000000000E+00  0.45593999997E+02  0.45594000000E+02  0.51100000000E-03 0.  1.
         11   -1    0    0    0    0 -0.00000000000E+00 -0.00000000000E+00 -0.45593999997E+02  0.45594000000E+02  0.51100000000E-03 0. -1.
    9900012    2    1    2    0    0 -0.40139262206E+02 -0.63340229980E+01 -0.13729918421E+01  0.50528864195E+02  0.30000013208E+02 0.  0.
        -12    1    1    2    0    0  0.40139262206E+02  0.63340229980E+01  0.13729918421E+01  0.40659135805E+02  0.00000000000E+00 0.  1.
         11    1    3    3    0    0 -0.88451207535E+01 -0.79512001014E+01  0.89672721125E+01  0.14895291659E+02  0.51100000000E-03 0.  1.
        -11    1    3    3    0    0 -0.19528830875E+02 -0.47316496689E+01 -0.95321265038E+01  0.22240170410E+02  0.51100000000E-03 0. -1.
        -12    1    3    3    0    0 -0.11765310578E+02  0.63488267722E+01 -0.80813745088E+00  0.13393402126E+02  0.00000000000E+00 0.  1.
</event>
<event>
 7    1  0.4962385E-011  0.5052887E+02  0.7816164E-02  0.1300439E+00
        -11   -1    0    0    0    0  0.00000000000E+00  0.00000000000E+00  0.45593999997E+02  0.45594000000E+02  0.51100000000E-03 0.  1.
         11   -1    0    0    0    0 -0.00000000000E+00 -0.00000000000E+00 -0.45593999997E+02  0.45594000000E+02  0.51100000000E-03 0. -1.
    9900012    2    1    2    0    0  0.10007401753E+02  0.35557521940E+02 -0.16990578820E+02  0.50528865418E+02  0.30000016924E+02 0.  0.
        -12    1    1    2    0    0 -0.10007401753E+02 -0.35557521940E+02  0.16990578820E+02  0.40659134582E+02  0.00000000000E+00 0.  1.
         11    1    3    3    0    0  0.28646517975E+01  0.85263144694E+01 -0.10118303016E+02  0.13538254117E+02  0.51100000000E-03 0. -1.
        -11    1    3    3    0    0  0.45053473770E+01 -0.20035014621E+01  0.34995299533E+01  0.60463942355E+01  0.51100000000E-03 0.  1.
        -12    1    3    3    0    0  0.26374025784E+01  0.29034708932E+02 -0.10371805758E+02  0.30944217066E+02  0.00000000000E+00 0.  1.
</event>
<event>
 7    1  0.4962385E-011  0.5052887E+02  0.7816164E-02  0.1300439E+00
        -11   -1    0    0    0    0  0.00000000000E+00  0.00000000000E+00  0.45593999997E+02  0.45594000000E+02  0.51100000000E-03 0.  1.
         11   -1    0    0    0    0 -0.00000000000E+00 -0.00000000000E+00 -0.45593999997E+02  0.45594000000E+02  0.51100000000E-03 0. -1.
    9900012    2    1    2    0    0  0.39315593555E+02  0.96107518910E+00 -0.10321116792E+02  0.50528868013E+02  0.30000024813E+02 0.  0.
        -12    1    1    2    0    0 -0.39315593555E+02 -0.96107518910E+00  0.10321116792E+02  0.40659131987E+02  0.00000000000E+00 0.  1.
         11    1    3    3    0    0  0.22287514551E+02  0.38271558516E+01  0.11420273010E+01  0.22642540789E+02  0.51100000000E-03 0. -1.
        -11    1    3    3    0    0  0.62188309793E+01 -0.10470659099E+02 -0.48574759349E+01  0.13111202593E+02  0.51100000000E-03 0.  1.
        -12    1    3    3    0    0  0.10809248024E+02  0.76045784365E+01 -0.66056681582E+01  0.14775124631E+02  0.00000000000E+00 0.  1.
</event>
<event>
 7    1  0.4962385E-011  0.5052885E+02  0.7816164E-02  0.1300439E+00
        -11   -1    0    0    0    0  0.00000000000E+00  0.00000000000E+00  0.45593999997E+02  0.45594000000E+02  0.51100000000E-03 0.  1.
         11   -1    0    0    0    0 -0.00000000000E+00 -0.00000000000E+00 -0.45593999997E+02  0.45594000000E+02  0.51100000000E-03 0. -1.
    9900012    2    1    2    0    0 -0.80521757825E+01  0.28764084119E+02 -0.27585444487E+02  0.50528845832E+02  0.29999957392E+02 0.  0.
        -12    1    1    2    0    0  0.80521757825E+01 -0.28764084119E+02  0.27585444487E+02  0.40659154168E+02  0.00000000000E+00 0.  1.
         11    1    3    3    0    0  0.27046462943E+01 -0.12398172521E+01 -0.27806863918E+01  0.40724041384E+01  0.51100000000E-03 0. -1.
        -11    1    3    3    0    0 -0.16608449225E+02  0.20665350827E+02 -0.10780415451E+02  0.28620179384E+02  0.51100000000E-03 0.  1.
        -12    1    3    3    0    0  0.58516271480E+01  0.93385505449E+01 -0.14024342645E+02  0.17836262310E+02  0.00000000000E+00 0.  1.
</event>
<event>
 7    1  0.4962385E-011  0.5052886E+02  0.7816164E-02  0.1300439E+00
        -11   -1    0    0    0    0  0.00000000000E+00  0.00000000000E+00  0.45593999997E+02  0.45594000000E+02  0.51100000000E-03 0.  1.
         11   -1    0    0    0    0 -0.00000000000E+00 -0.00000000000E+00 -0.45593999997E+02  0.45594000000E+02  0.51100000000E-03 0. -1.
    9900012    2    1    2    0    0 -0.23847575344E+02 -0.58651475934E+01 -0.32404614823E+02  0.50528857511E+02  0.29999992891E+02 0.  0.
        -12    1    1    2    0    0  0.23847575344E+02  0.58651475934E+01  0.32404614823E+02  0.40659142489E+02  0.00000000000E+00 0.  1.
         11    1    3    3    0    0  0.27693943500E+01 -0.56050158458E+01 -0.40734402845E+01  0.74618137011E+01  0.51100000000E-03 0. -1.
        -11    1    3    3    0    0 -0.20350351959E+02 -0.14883945300E+01 -0.82750371491E+01  0.22018818842E+02  0.51100000000E-03 0.  1.
         12    1    3    3    0    0 -0.62666177355E+01  0.12282627824E+01 -0.20056137390E+02  0.21048224968E+02  0.00000000000E+00 0. -1.
</event>
<event>
 7    1  0.4962385E-011  0.5052889E+02  0.7816164E-02  0.1300439E+00
        -11   -1    0    0    0    0  0.00000000000E+00  0.00000000000E+00  0.45593999997E+02  0.45594000000E+02  0.51100000000E-03 0. -1.
         11   -1    0    0    0    0 -0.00000000000E+00 -0.00000000000E+00 -0.45593999997E+02  0.45594000000E+02  0.51100000000E-03 0.  1.
    9900012    2    1    2    0    0 -0.10621503069E+02  0.10396193317E+02  0.37845287717E+02  0.50528893205E+02  0.30000101386E+02 0.  0.
        -12    1    1    2    0    0  0.10621503069E+02 -0.10396193317E+02 -0.37845287717E+02  0.40659106795E+02  0.00000000000E+00 0.  1.
         11    1    3    3    0    0  0.14590788695E+01 -0.35735281108E+01  0.78082049988E+01  0.87101710586E+01  0.51100000000E-03 0. -1.
        -11    1    3    3    0    0 -0.15654664871E+02  0.90894500336E+01  0.30795975964E+02  0.35722244750E+02  0.51100000000E-03 0.  1.
        -12    1    3    3    0    0  0.35740829327E+01  0.48802713946E+01 -0.75889324503E+00  0.60964773970E+01  0.00000000000E+00 0.  1.
</event>
<event>
 7    1  0.4962385E-011  0.5052886E+02  0.7816164E-02  0.1300439E+00
        -11   -1    0    0    0    0  0.00000000000E+00  0.00000000000E+00  0.45593999997E+02  0.45594000000E+02  0.51100000000E-03 0.  1.
         11   -1    0    0    0    0 -0.00000000000E+00 -0.00000000000E+00 -0.45593999997E+02  0.45594000000E+02  0.51100000000E-03 0. -1.
    9900012    2    1    2    0    0  0.17851791221E+02  0.18015121828E+02 -0.31779467324E+02  0.50528860712E+02  0.30000002620E+02 0.  0.
        -12    1    1    2    0    0 -0.17851791221E+02 -0.18015121828E+02  0.31779467324E+02  0.40659139288E+02  0.00000000000E+00 0.  1.
         11    1    3    3    0    0  0.14433683199E+02  0.16546417381E+02 -0.10449657768E+02  0.24316876579E+02  0.51100000000E-03 0.  1.
        -11    1    3    3    0    0 -0.22654101920E+01 -0.50302158145E+01 -0.38843985405E+01  0.67471258148E+01  0.51100000000E-03 0. -1.
        -12    1    3    3    0    0  0.56835182134E+01  0.64989202620E+01 -0.17445411015E+02  0.19464858318E+02  0.00000000000E+00 0.  1.
</event>
<event>
 7    1  0.4962385E-011  0.5052887E+02  0.7816164E-02  0.1300439E+00
        -11   -1    0    0    0    0  0.00000000000E+00  0.00000000000E+00  0.45593999997E+02  0.45594000000E+02  0.51100000000E-03 0.  1.
         11   -1    0    0    0    0 -0.00000000000E+00 -0.00000000000E+00 -0.45593999997E+02  0.45594000000E+02  0.51100000000E-03 0. -1.
    9900012    2    1    2    0    0 -0.15627499159E+02 -0.19848628922E+02 -0.31858724567E+02  0.50528866572E+02  0.30000020433E+02 0.  0.
        -12    1    1    2    0    0  0.15627499159E+02  0.19848628922E+02  0.31858724567E+02  0.40659133428E+02  0.00000000000E+00 0.  1.
         11    1    3    3    0    0  0.76323292540E+01  0.47931409228E+00 -0.61402950376E+01  0.98074163392E+01  0.51100000000E-03 0.  1.
        -11    1    3    3    0    0 -0.76967712489E+01 -0.99068113455E+01 -0.76321635604E+01  0.14684519725E+02  0.51100000000E-03 0. -1.
        -12    1    3    3    0    0 -0.15563057165E+02 -0.10421131669E+02 -0.18086265969E+02  0.26036930508E+02  0.00000000000E+00 0.  1.
</event>
<event>
 7    1  0.4962385E-011  0.5052886E+02  0.7816164E-02  0.1300439E+00
        -11   -1    0    0    0    0  0.00000000000E+00  0.00000000000E+00  0.45593999997E+02  0.45594000000E+02  0.51100000000E-03 0. -1.
         11   -1    0    0    0    0 -0.00000000000E+00 -0.00000000000E+00 -0.45593999997E+02  0.45594000000E+02  0.51100000000E-03 0.  1.
    9900012    2    1    2    0    0 -0.33454978723E+02 -0.28482959997E+01  0.22930705520E+02  0.50528860227E+02  0.30000001146E+02 0.  0.
        -12    1    1    2    0    0  0.33454978723E+02  0.28482959997E+01 -0.22930705520E+02  0.40659139773E+02  0.00000000000E+00 0.  1.
         11    1    3    3    0    0 -0.17754684143E+02 -0.11166505522E+02 -0.36285653266E+00  0.20977400214E+02  0.51100000000E-03 0.  1.
        -11    1    3    3    0    0 -0.10318197209E+02  0.33593457552E+01  0.14506918700E+02  0.18116321039E+02  0.51100000000E-03 0. -1.
        -12    1    3    3    0    0 -0.53820973702E+01  0.49588637672E+01  0.87866433518E+01  0.11435138974E+02  0.00000000000E+00 0.  1.
</event>
<event>
 7    1  0.4962385E-011  0.5052887E+02  0.7816164E-02  0.1300439E+00
        -11   -1    0    0    0    0  0.00000000000E+00  0.00000000000E+00  0.45593999997E+02  0.45594000000E+02  0.51100000000E-03 0.  1.
         11   -1    0    0    0    0 -0.00000000000E+00 -0.00000000000E+00 -0.45593999997E+02  0.45594000000E+02  0.51100000000E-03 0. -1.
    9900012    2    1    2    0    0 -0.23991733484E+02 -0.32318095206E+02  0.57534607196E+01  0.50528869862E+02  0.30000030434E+02 0.  0.
        -12    1    1    2    0    0  0.23991733484E+02  0.32318095206E+02 -0.57534607196E+01  0.40659130138E+02  0.00000000000E+00 0.  1.
         11    1    3    3    0    0 -0.20754331724E+02 -0.29146699959E+02  0.22890529167E+01  0.35854039763E+02  0.51100000000E-03 0. -1.
        -11    1    3    3    0    0  0.22549833904E+01  0.16633464153E+01 -0.35608155967E+01  0.45311234107E+01  0.51100000000E-03 0.  1.
         12    1    3    3    0    0 -0.54923851497E+01 -0.48347416625E+01  0.70252233996E+01  0.10143706689E+02  0.00000000000E+00 0. -1.
</event>
<event>
 7    1  0.4962385E-011  0.5052884E+02  0.7816164E-02  0.1300439E+00
        -11   -1    0    0    0    0  0.00000000000E+00  0.00000000000E+00  0.45593999997E+02  0.45594000000E+02  0.51100000000E-03 0. -1.
         11   -1    0    0    0    0 -0.00000000000E+00 -0.00000000000E+00 -0.45593999997E+02  0.45594000000E+02  0.51100000000E-03 0.  1.
    9900012    2    1    2    0    0 -0.14200217496E+02  0.33004295027E+02  0.19032548037E+02  0.50528836802E+02  0.29999929945E+02 0.  0.
        -12    1    1    2    0    0  0.14200217496E+02 -0.33004295027E+02 -0.19032548037E+02  0.40659163198E+02  0.00000000000E+00 0.  1.
         11    1    3    3    0    0 -0.90369415078E+01  0.12246568525E+02  0.18808954383E+02  0.24195485482E+02  0.51100000000E-03 0. -1.
        -11    1    3    3    0    0 -0.10453921324E+02  0.10959947500E+02  0.94083759774E+00  0.15175312052E+02  0.51100000000E-03 0.  1.
        -12    1    3    3    0    0  0.52906453358E+01  0.97977790024E+01 -0.71724394377E+00  0.11158039269E+02  0.00000000000E+00 0.  1.
</event>
<event>
 7    1  0.4962385E-011  0.5052886E+02  0.7816164E-02  0.1300439E+00
        -11   -1    0    0    0    0  0.00000000000E+00  0.00000000000E+00  0.45593999997E+02  0.45594000000E+02  0.51100000000E-03 0.  1.
         11   -1    0    0    0    0 -0.00000000000E+00 -0.00000000000E+00 -0.45593999997E+02  0.45594000000E+02  0.51100000000E-03 0. -1.
    9900012    2    1    2    0    0  0.37517301827E+02 -0.95314564009E+00 -0.15643191734E+02  0.50528857478E+02  0.29999992790E+02 0.  0.
        -12    1    1    2    0    0 -0.37517301827E+02  0.95314564009E+00  0.15643191734E+02  0.40659142522E+02  0.00000000000E+00 0.  1.
         11    1    3    3    0    0  0.13596576349E+02  0.44724350983E+01 -0.12523485759E+02  0.19018602997E+02  0.51100000000E-03 0. -1.
        -11    1    3    3    0    0  0.87395825883E+01 -0.14188755947E+01  0.82681442809E+01  0.12114277605E+02  0.51100000000E-03 0.  1.
         12    1    3    3    0    0  0.15181142890E+02 -0.40067051437E+01 -0.11387850256E+02  0.19395976877E+02  0.00000000000E+00 0. -1.
</event>
<event>
 7    1  0.4962385E-011  0.5052890E+02  0.7816164E-02  0.1300439E+00
        -11   -1    0    0    0    0  0.00000000000E+00  0.00000000000E+00  0.45593999997E+02  0.45594000000E+02  0.51100000000E-03 0.  1.
         11   -1    0    0    0    0 -0.00000000000E+00 -0.00000000000E+00 -0.45593999997E+02  0.45594000000E+02  0.51100000000E-03 0. -1.
    9900012    2    1    2    0    0 -0.30595470645E+01  0.16942830822E+02 -0.36833981392E+02  0.50528898563E+02  0.30000117671E+02 0.  0.
        -12    1    1    2    0    0  0.30595470645E+01 -0.16942830822E+02  0.36833981392E+02  0.40659101437E+02  0.00000000000E+00 0.  1.
         11    1    3    3    0    0  0.36621019385E+01  0.19272365470E+02 -0.28070156849E+02  0.34245711661E+02  0.51100000000E-03 0. -1.
        -11    1    3    3    0    0  0.68133417261E+00 -0.48330709736E+01 -0.49518028019E+00  0.49059142941E+01  0.51100000000E-03 0.  1.
         12    1    3    3    0    0 -0.74029831756E+01  0.25035363258E+01 -0.82686442629E+01  0.11377272607E+02  0.00000000000E+00 0. -1.
</event>
<event>
 7    1  0.4962385E-011  0.5052886E+02  0.7816164E-02  0.1300439E+00
        -11   -1    0    0    0    0  0.00000000000E+00  0.00000000000E+00  0.45593999997E+02  0.45594000000E+02  0.51100000000E-03 0.  1.
         11   -1    0    0    0    0 -0.00000000000E+00 -0.00000000000E+00 -0.45593999997E+02  0.45594000000E+02  0.51100000000E-03 0. -1.
    9900012    2    1    2    0    0  0.39683618317E+02  0.10645414457E+01  0.87887787624E+01  0.50528862733E+02  0.30000008762E+02 0.  0.
        -12    1    1    2    0    0 -0.39683618317E+02 -0.10645414457E+01 -0.87887787624E+01  0.40659137267E+02  0.00000000000E+00 0.  1.
         11    1    3    3    0    0  0.28281529241E+02 -0.88902915510E+01  0.75546674596E+01  0.30593384591E+02  0.51100000000E-03 0. -1.
        -11    1    3    3    0    0  0.10938714462E+02  0.12883554166E+02  0.65053888650E+00  0.16913445632E+02  0.51100000000E-03 0.  1.
        -12    1    3    3    0    0  0.46337461363E+00 -0.29287211697E+01  0.58357241634E+00  0.30220325093E+01  0.00000000000E+00 0.  1.
</event>
<event>
 7    1  0.4962385E-011  0.5052885E+02  0.7816164E-02  0.1300439E+00
        -11   -1    0    0    0    0  0.00000000000E+00  0.00000000000E+00  0.45593999997E+02  0.45594000000E+02  0.51100000000E-03 0. -1.
         11   -1    0    0    0    0 -0.00000000000E+00 -0.00000000000E+00 -0.45593999997E+02  0.45594000000E+02  0.51100000000E-03 0.  1.
    9900012    2    1    2    0    0 -0.39225214636E+02  0.59467591017E+01 -0.88986066658E+01  0.50528848415E+02  0.29999965241E+02 0.  0.
        -12    1    1    2    0    0  0.39225214636E+02 -0.59467591017E+01  0.88986066658E+01  0.40659151585E+02  0.00000000000E+00 0.  1.
         11    1    3    3    0    0 -0.27216716262E+02 -0.23801126239E+01  0.13859292845E+01  0.27355719336E+02  0.51100000000E-03 0. -1.
        -11    1    3    3    0    0  0.31059287979E+01  0.11871146609E+01 -0.42614714885E+01  0.54051988330E+01  0.51100000000E-03 0.  1.
         12    1    3    3    0    0 -0.15114427172E+02  0.71397570646E+01 -0.60230644618E+01  0.17767930245E+02  0.00000000000E+00 0. -1.
</event>
<event>
 7    1  0.4962385E-011  0.5052883E+02  0.7816164E-02  0.1300439E+00
        -11   -1    0    0    0    0  0.00000000000E+00  0.00000000000E+00  0.45593999997E+02  0.45594000000E+02  0.51100000000E-03 0.  1.
         11   -1    0    0    0    0 -0.00000000000E+00 -0.00000000000E+00 -0.45593999997E+02  0.45594000000E+02  0.51100000000E-03 0. -1.
    9900012    2    1    2    0    0 -0.14096486498E+01 -0.40132233540E+02  0.63706408892E+01  0.50528827067E+02  0.29999900353E+02 0.  0.
        -12    1    1    2    0    0  0.14096486498E+01  0.40132233540E+02 -0.63706408892E+01  0.40659172933E+02  0.00000000000E+00 0.  1.
         11    1    3    3    0    0 -0.54621161921E+01 -0.10267178358E+02  0.49557501750E+01  0.12641563384E+02  0.51100000000E-03 0. -1.
        -11    1    3    3    0    0  0.83534480012E+01 -0.10612508164E+01  0.23723183505E+01  0.87483850750E+01  0.51100000000E-03 0.  1.
        -12    1    3    3    0    0 -0.43009804588E+01 -0.28803804366E+02 -0.95742763637E+00  0.29138878608E+02  0.00000000000E+00 0.  1.
</event>
<event>
 7    1  0.4962385E-011  0.5052887E+02  0.7816164E-02  0.1300439E+00
        -11   -1    0    0    0    0  0.00000000000E+00  0.00000000000E+00  0.45593999997E+02  0.45594000000E+02  0.51100000000E-03 0. -1.
         11   -1    0    0    0    0 -0.00000000000E+00 -0.00000000000E+00 -0.45593999997E+02  0.45594000000E+02  0.51100000000E-03 0.  1.
    9900012    2    1    2    0    0 -0.38310933167E+02 -0.95854191097E+01 -0.96724824658E+01  0.50528870931E+02  0.30000033681E+02 0.  0.
        -12    1    1    2    0    0  0.38310933167E+02  0.95854191097E+01  0.96724824658E+01  0.40659129069E+02  0.00000000000E+00 0.  1.
         11    1    3    3    0    0 -0.21161555762E+01 -0.22259458694E+01 -0.11818191110E+01  0.32908427657E+01  0.51100000000E-03 0. -1.
        -11    1    3    3    0    0  0.29043795412E+01 -0.67183876301E+01 -0.21022338634E+01  0.76152176821E+01  0.51100000000E-03 0.  1.
        -12    1    3    3    0    0 -0.39099157132E+02 -0.64108561010E+00 -0.63884294914E+01  0.39622810483E+02  0.00000000000E+00 0.  1.
</event>
<event>
 7    1  0.4962385E-011  0.5052887E+02  0.7816164E-02  0.1300439E+00
        -11   -1    0    0    0    0  0.00000000000E+00  0.00000000000E+00  0.45593999997E+02  0.45594000000E+02  0.51100000000E-03 0.  1.
         11   -1    0    0    0    0 -0.00000000000E+00 -0.00000000000E+00 -0.45593999997E+02  0.45594000000E+02  0.51100000000E-03 0. -1.
    9900012    2    1    2    0    0 -0.40606507926E+02 -0.45448531757E+00 -0.20172884516E+01  0.50528874388E+02  0.30000044188E+02 0.  0.
        -12    1    1    2    0    0  0.40606507926E+02  0.45448531757E+00  0.20172884516E+01  0.40659125612E+02  0.00000000000E+00 0.  1.
         11    1    3    3    0    0 -0.20641566723E+02  0.14013650343E+02 -0.28041996496E+01  0.25106178695E+02  0.51100000000E-03 0. -1.
        -11    1    3    3    0    0 -0.65120886297E+01 -0.23729536519E+01  0.22135496580E+01  0.72758511326E+01  0.51100000000E-03 0.  1.
         12    1    3    3    0    0 -0.13452852574E+02 -0.12095182009E+02 -0.14266384599E+01  0.18146844560E+02  0.00000000000E+00 0. -1.
</event>
<event>
 7    1  0.4962385E-011  0.5052886E+02  0.7816164E-02  0.1300439E+00
        -11   -1    0    0    0    0  0.00000000000E+00  0.00000000000E+00  0.45593999997E+02  0.45594000000E+02  0.51100000000E-03 0.  1.
         11   -1    0    0    0    0 -0.00000000000E+00 -0.00000000000E+00 -0.45593999997E+02  0.45594000000E+02  0.51100000000E-03 0. -1.
    9900012    2    1    2    0    0 -0.29520584090E+02  0.26476792803E+02 -0.89822054214E+01  0.50528862573E+02  0.30000008276E+02 0.  0.
        -12    1    1    2    0    0  0.29520584090E+02 -0.26476792803E+02  0.89822054214E+01  0.40659137427E+02  0.00000000000E+00 0.  1.
         11    1    3    3    0    0 -0.27748130118E+02  0.27128686455E+02 -0.80336772879E+01  0.39629084330E+02  0.51100000000E-03 0. -1.
        -11    1    3    3    0    0  0.12310592970E-01 -0.46799625663E+01 -0.34676508893E+01  0.58246720185E+01  0.51100000000E-03 0.  1.
         12    1    3    3    0    0 -0.17847645646E+01  0.40280689138E+01  0.25191227559E+01  0.50751062240E+01  0.00000000000E+00 0. -1.
</event>
<event>
 7    1  0.4962385E-011  0.5052893E+02  0.7816164E-02  0.1300439E+00
        -11   -1    0    0    0    0  0.00000000000E+00  0.00000000000E+00  0.45593999997E+02  0.45594000000E+02  0.51100000000E-03 0.  1.
         11   -1    0    0    0    0 -0.00000000000E+00 -0.00000000000E+00 -0.45593999997E+02  0.45594000000E+02  0.51100000000E-03 0. -1.
    9900012    2    1    2    0    0  0.76231859713E+01  0.35951091129E+02 -0.17394416354E+02  0.50528934123E+02  0.30000225760E+02 0.  0.
        -12    1    1    2    0    0 -0.76231859713E+01 -0.35951091129E+02  0.17394416354E+02  0.40659065877E+02  0.00000000000E+00 0.  1.
         11    1    3    3    0    0  0.88767798404E+01  0.18961374980E+00  0.12751059959E+01  0.89698979521E+01  0.51100000000E-03 0.  1.
        -11    1    3    3    0    0  0.39664233836E+00 -0.14717230975E+00 -0.18033923608E+01  0.18523523156E+01  0.51100000000E-03 0. -1.
         12    1    3    3    0    0 -0.16502362074E+01  0.35908649688E+02 -0.16866129989E+02  0.39706683855E+02  0.00000000000E+00 0. -1.
</event>
<event>
 7    1  0.4962385E-011  0.5052886E+02  0.7816164E-02  0.1300439E+00
        -11   -1    0    0    0    0  0.00000000000E+00  0.00000000000E+00  0.45593999997E+02  0.45594000000E+02  0.51100000000E-03 0.  1.
         11   -1    0    0    0    0 -0.00000000000E+00 -0.00000000000E+00 -0.45593999997E+02  0.45594000000E+02  0.51100000000E-03 0. -1.
    9900012    2    1    2    0    0  0.19322893732E+02  0.11973339587E+02 -0.33710983741E+02  0.50528861939E+02  0.30000006350E+02 0.  0.
        -12    1    1    2    0    0 -0.19322893732E+02 -0.11973339587E+02  0.33710983741E+02  0.40659138061E+02  0.00000000000E+00 0.  1.
         11    1    3    3    0    0  0.11318721181E+02 -0.12080306959E+01 -0.93319398260E+00  0.11421192521E+02  0.51100000000E-03 0. -1.
        -11    1    3    3    0    0  0.28096475320E+00 -0.77700718965E+00 -0.15761120225E+02  0.15782762508E+02  0.51100000000E-03 0.  1.
         12    1    3    3    0    0  0.77232077980E+01  0.13958377473E+02 -0.17016669534E+02  0.23324906910E+02  0.00000000000E+00 0. -1.
</event>
<event>
 7    1  0.4962385E-011  0.5052885E+02  0.7816164E-02  0.1300439E+00
        -11   -1    0    0    0    0  0.00000000000E+00  0.00000000000E+00  0.45593999997E+02  0.45594000000E+02  0.51100000000E-03 0. -1.
         11   -1    0    0    0    0 -0.00000000000E+00 -0.00000000000E+00 -0.45593999997E+02  0.45594000000E+02  0.51100000000E-03 0.  1.
    9900012    2    1    2    0    0  0.11327466540E+02 -0.38061001632E+02 -0.87301338489E+01  0.50528848749E+02  0.29999966256E+02 0.  0.
        -12    1    1    2    0    0 -0.11327466540E+02  0.38061001632E+02  0.87301338489E+01  0.40659151251E+02  0.00000000000E+00 0.  1.
         11    1    3    3    0    0  0.97332906254E+01 -0.28071712655E+02 -0.88110794589E+01  0.30990210055E+02  0.51100000000E-03 0. -1.
        -11    1    3    3    0    0  0.30260838885E+01 -0.66982688679E+01  0.79880703299E+01  0.10855102827E+02  0.51100000000E-03 0.  1.
         12    1    3    3    0    0 -0.14319079742E+01 -0.32910201097E+01 -0.79071247198E+01  0.86835358664E+01  0.00000000000E+00 0. -1.
</event>
<event>
 7    1  0.4962385E-011  0.5052885E+02  0.7816164E-02  0.1300439E+00
        -11   -1    0    0    0    0  0.00000000000E+00  0.00000000000E+00  0.45593999997E+02  0.45594000000E+02  0.51100000000E-03 0.  1.
         11   -1    0    0    0    0 -0.00000000000E+00 -0.00000000000E+00 -0.45593999997E+02  0.45594000000E+02  0.51100000000E-03 0. -1.
    9900012    2    1    2    0    0  0.25110731183E+02 -0.22474603046E+01 -0.31899319559E+02  0.50528849901E+02  0.29999969761E+02 0.  0.
        -12    1    1    2    0    0 -0.25110731183E+02  0.22474603046E+01  0.31899319559E+02  0.40659150099E+02  0.00000000000E+00 0.  1.
         11    1    3    3    0    0  0.85222745131E+01  0.46774860661E+01 -0.11167209838E+02  0.14805897967E+02  0.51100000000E-03 0. -1.
        -11    1    3    3    0    0  0.99427435493E+01 -0.14291357425E+02 -0.69600971173E+01  0.18749506619E+02  0.51100000000E-03 0.  1.
        -12    1    3    3    0    0  0.66457131208E+01  0.73664110540E+01 -0.13772012604E+02  0.16973445315E+02  0.00000000000E+00 0.  1.
</event>
<event>
 7    1  0.4962385E-011  0.5052886E+02  0.7816164E-02  0.1300439E+00
        -11   -1    0    0    0    0  0.00000000000E+00  0.00000000000E+00  0.45593999997E+02  0.45594000000E+02  0.51100000000E-03 0. -1.
         11   -1    0    0    0    0 -0.00000000000E+00 -0.00000000000E+00 -0.45593999997E+02  0.45594000000E+02  0.51100000000E-03 0.  1.
    9900012    2    1    2    0    0 -0.23894049159E+02  0.25978752429E+02 -0.20182774853E+02  0.50528861252E+02  0.30000004261E+02 0.  0.
        -12    1    1    2    0    0  0.23894049159E+02 -0.25978752429E+02  0.20182774853E+02  0.40659138748E+02  0.00000000000E+00 0.  1.
         11    1    3    3    0    0 -0.20349210612E+02  0.23102220899E+02 -0.36578492126E+01  0.31002948958E+02  0.51100000000E-03 0. -1.
        -11    1    3    3    0    0 -0.25470039647E+01 -0.32787128667E+01 -0.71051332263E+01  0.82292226658E+01  0.51100000000E-03 0.  1.
         12    1    3    3    0    0 -0.99783458315E+00  0.61552443967E+01 -0.94197924138E+01  0.11296689628E+02  0.00000000000E+00 0. -1.
</event>
<event>
 7    1  0.4962385E-011  0.5052888E+02  0.7816164E-02  0.1300439E+00
        -11   -1    0    0    0    0  0.00000000000E+00  0.00000000000E+00  0.45593999997E+02  0.45594000000E+02  0.51100000000E-03 0.  1.
         11   -1    0    0    0    0 -0.00000000000E+00 -0.00000000000E+00 -0.45593999997E+02  0.45594000000E+02  0.51100000000E-03 0. -1.
    9900012    2    1    2    0    0  0.36578281802E+02 -0.15302570834E+02  0.90013883495E+01  0.50528875982E+02  0.30000049034E+02 0.  0.
        -12    1    1    2    0    0 -0.36578281802E+02  0.15302570834E+02 -0.90013883495E+01  0.40659124018E+02  0.00000000000E+00 0.  1.
         11    1    3    3    0    0  0.10000869213E+01 -0.10403902834E+02 -0.43495228985E+01  0.11320764891E+02  0.51100000000E-03 0. -1.
        -11    1    3    3    0    0  0.94579387699E+01 -0.20376879825E+01  0.76163942967E+01  0.12313173451E+02  0.51100000000E-03 0.  1.
         12    1    3    3    0    0  0.26120256111E+02 -0.28609800178E+01  0.57345169513E+01  0.26894937639E+02  0.00000000000E+00 0. -1.
</event>
<event>
 7    1  0.4962385E-011  0.5052886E+02  0.7816164E-02  0.1300439E+00
        -11   -1    0    0    0    0  0.00000000000E+00  0.00000000000E+00  0.45593999997E+02  0.45594000000E+02  0.51100000000E-03 0.  1.
         11   -1    0    0    0    0 -0.00000000000E+00 -0.00000000000E+00 -0.45593999997E+02  0.45594000000E+02  0.51100000000E-03 0. -1.
    9900012    2    1    2    0    0 -0.26505675418E+02 -0.12185292982E+02 -0.28321962841E+02  0.50528858671E+02  0.29999996416E+02 0.  0.
        -12    1    1    2    0    0  0.26505675418E+02  0.12185292982E+02  0.28321962841E+02  0.40659141329E+02  0.00000000000E+00 0.  1.
         11    1    3    3    0    0 -0.13738621647E+02  0.53541381455E+01 -0.22059023804E+02  0.26533319647E+02  0.51100000000E-03 0. -1.
        -11    1    3    3    0    0 -0.33265039357E+01 -0.81803062924E+01  0.93199038310E+00  0.88798449202E+01  0.51100000000E-03 0.  1.
         12    1    3    3    0    0 -0.94405498358E+01 -0.93591248348E+01 -0.71949294205E+01  0.15115694104E+02  0.00000000000E+00 0. -1.
</event>
<event>
 7    1  0.4962385E-011  0.5052887E+02  0.7816164E-02  0.1300439E+00
        -11   -1    0    0    0    0  0.00000000000E+00  0.00000000000E+00  0.45593999997E+02  0.45594000000E+02  0.51100000000E-03 0. -1.
         11   -1    0    0    0    0 -0.00000000000E+00 -0.00000000000E+00 -0.45593999997E+02  0.45594000000E+02  0.51100000000E-03 0.  1.
    9900012    2    1    2    0    0  0.71828076587E+01  0.12632960939E+02  0.37973414713E+02  0.50528872453E+02  0.30000038308E+02 0.  0.
        -12    1    1    2    0    0 -0.71828076587E+01 -0.12632960939E+02 -0.37973414713E+02  0.40659127547E+02  0.00000000000E+00 0.  1.
         11    1    3    3    0    0  0.13445589112E+02  0.11852464873E+02  0.28556418605E+02  0.33715483594E+02  0.51100000000E-03 0. -1.
        -11    1    3    3    0    0 -0.76925282905E+01  0.39012044100E+01  0.23230388442E+01  0.89325750532E+01  0.51100000000E-03 0.  1.
         12    1    3    3    0    0  0.14297468376E+01 -0.31207083445E+01  0.70939572633E+01  0.78808138060E+01  0.00000000000E+00 0. -1.
</event>
<event>
 7    1  0.4962385E-011  0.5052886E+02  0.7816164E-02  0.1300439E+00
        -11   -1    0    0    0    0  0.00000000000E+00  0.00000000000E+00  0.45593999997E+02  0.45594000000E+02  0.51100000000E-03 0.  1.
         11   -1    0    0    0    0 -0.00000000000E+00 -0.00000000000E+00 -0.45593999997E+02  0.45594000000E+02  0.51100000000E-03 0. -1.
    9900012    2    1    2    0    0 -0.78914864793E+01  0.28799380321E+02 -0.27595027865E+02  0.50528862914E+02  0.30000009313E+02 0.  0.
        -12    1    1    2    0    0  0.78914864793E+01 -0.28799380321E+02  0.27595027865E+02  0.40659137086E+02  0.00000000000E+00 0.  1.
         11    1    3    3    0    0  0.55313396562E+01  0.23122603859E+02 -0.81025081244E+01  0.25117746033E+02  0.51100000000E-03 0. -1.
        -11    1    3    3    0    0 -0.31632824294E+01 -0.17321258805E+01 -0.50977782540E+01  0.62445143271E+01  0.51100000000E-03 0.  1.
         12    1    3    3    0    0 -0.10259543706E+02  0.74089023425E+01 -0.14394741487E+02  0.19166602554E+02  0.00000000000E+00 0. -1.
</event>
<event>
 7    1  0.4962385E-011  0.5052874E+02  0.7816164E-02  0.1300439E+00
        -11   -1    0    0    0    0  0.00000000000E+00  0.00000000000E+00  0.45593999997E+02  0.45594000000E+02  0.51100000000E-03 0. -1.
         11   -1    0    0    0    0 -0.00000000000E+00 -0.00000000000E+00 -0.45593999997E+02  0.45594000000E+02  0.51100000000E-03 0.  1.
    9900012    2    1    2    0    0 -0.32655744850E+02 -0.87278855245E+01  0.22596499565E+02  0.50528739677E+02  0.29999634719E+02 0.  0.
        -12    1    1    2    0    0  0.32655744850E+02  0.87278855245E+01 -0.22596499565E+02  0.40659260323E+02  0.00000000000E+00 0.  1.
         11    1    3    3    0    0 -0.13103991058E+02 -0.18560376743E+01  0.17951482896E+02  0.22302806907E+02  0.51100000000E-03 0. -1.
        -11    1    3    3    0    0 -0.23460973017E+01  0.33098220301E+01 -0.46561814098E+01  0.61756878162E+01  0.51100000000E-03 0.  1.
        -12    1    3    3    0    0 -0.17205656491E+02 -0.10181669880E+02  0.93011980789E+01  0.22050244954E+02  0.00000000000E+00 0.  1.
</event>
<event>
 7    1  0.4962385E-011  0.5052886E+02  0.7816164E-02  0.1300439E+00
        -11   -1    0    0    0    0  0.00000000000E+00  0.00000000000E+00  0.45593999997E+02  0.45594000000E+02  0.51100000000E-03 0.  1.
         11   -1    0    0    0    0 -0.00000000000E+00 -0.00000000000E+00 -0.45593999997E+02  0.45594000000E+02  0.51100000000E-03 0. -1.
    9900012    2    1    2    0    0  0.41034548923E+00  0.57444897312E+01 -0.40249202071E+02  0.50528858186E+02  0.29999994943E+02 0.  0.
        -12    1    1    2    0    0 -0.41034548923E+00 -0.57444897312E+01  0.40249202071E+02  0.40659141814E+02  0.00000000000E+00 0.  1.
         11    1    3    3    0    0 -0.61115947035E+01  0.10517976967E+02 -0.14278641590E+02  0.18757905939E+02  0.51100000000E-03 0. -1.
        -11    1    3    3    0    0  0.10055070725E+02 -0.14037462349E+01 -0.73840165065E+01  0.12553830125E+02  0.51100000000E-03 0.  1.
        -12    1    3    3    0    0 -0.35331305323E+01 -0.33697410007E+01 -0.18586543974E+02  0.19217122123E+02  0.00000000000E+00 0.  1.
</event>
<event>
 7    1  0.4962385E-011  0.5052886E+02  0.7816164E-02  0.1300439E+00
        -11   -1    0    0    0    0  0.00000000000E+00  0.00000000000E+00  0.45593999997E+02  0.45594000000E+02  0.51100000000E-03 0. -1.
         11   -1    0    0    0    0 -0.00000000000E+00 -0.00000000000E+00 -0.45593999997E+02  0.45594000000E+02  0.51100000000E-03 0.  1.
    9900012    2    1    2    0    0  0.35200723645E+02 -0.99016311931E+00  0.20324717237E+02  0.50528862049E+02  0.30000006684E+02 0.  0.
        -12    1    1    2    0    0 -0.35200723645E+02  0.99016311931E+00 -0.20324717237E+02  0.40659137951E+02  0.00000000000E+00 0.  1.
         11    1    3    3    0    0  0.98756746555E+01 -0.14022006079E+02  0.71911893176E+01  0.18597279598E+02  0.51100000000E-03 0. -1.
        -11    1    3    3    0    0  0.78870595396E+01  0.53685469983E+01  0.72921993249E+01  0.12008462695E+02  0.51100000000E-03 0.  1.
         12    1    3    3    0    0  0.17437989450E+02  0.76632959614E+01  0.58413285946E+01  0.19923119756E+02  0.00000000000E+00 0. -1.
</event>
<event>
 7    1  0.4962385E-011  0.5052886E+02  0.7816164E-02  0.1300439E+00
        -11   -1    0    0    0    0  0.00000000000E+00  0.00000000000E+00  0.45593999997E+02  0.45594000000E+02  0.51100000000E-03 0.  1.
         11   -1    0    0    0    0 -0.00000000000E+00 -0.00000000000E+00 -0.45593999997E+02  0.45594000000E+02  0.51100000000E-03 0. -1.
    9900012    2    1    2    0    0  0.37512155408E+02  0.15069465365E+02 -0.43491745045E+01  0.50528857011E+02  0.29999991372E+02 0.  0.
        -12    1    1    2    0    0 -0.37512155408E+02 -0.15069465365E+02  0.43491745045E+01  0.40659142989E+02  0.00000000000E+00 0.  1.
         11    1    3    3    0    0  0.29478017080E+02  0.79117443862E+01  0.13094361218E+01  0.30549366825E+02  0.51100000000E-03 0. -1.
        -11    1    3    3    0    0  0.11364750190E+01  0.67392811927E+01  0.41390246116E+01  0.79900570373E+01  0.51100000000E-03 0.  1.
        -12    1    3    3    0    0  0.68976633085E+01  0.41843978570E+00 -0.97976352379E+01  0.11989433149E+02  0.00000000000E+00 0.  1.
</event>
<event>
 7    1  0.4962385E-011  0.5052886E+02  0.7816164E-02  0.1300439E+00
        -11   -1    0    0    0    0  0.00000000000E+00  0.00000000000E+00  0.45593999997E+02  0.45594000000E+02  0.51100000000E-03 0.  1.
         11   -1    0    0    0    0 -0.00000000000E+00 -0.00000000000E+00 -0.45593999997E+02  0.45594000000E+02  0.51100000000E-03 0. -1.
    9900012    2    1    2    0    0 -0.68470287585E+01 -0.39719638290E+02  0.53510973552E+01  0.50528859433E+02  0.29999998734E+02 0.  0.
        -12    1    1    2    0    0  0.68470287585E+01  0.39719638290E+02 -0.53510973552E+01  0.40659140567E+02  0.00000000000E+00 0.  1.
         11    1    3    3    0    0 -0.13842183018E+02 -0.16375170106E+02  0.17123890213E+01  0.21510102350E+02  0.51100000000E-03 0. -1.
        -11    1    3    3    0    0  0.67829258367E+00 -0.18216018198E+02  0.78615509576E+01  0.19851634279E+02  0.51100000000E-03 0.  1.
         12    1    3    3    0    0  0.63168616755E+01 -0.51284499854E+01 -0.42228426237E+01  0.91671228040E+01  0.00000000000E+00 0. -1.
</event>
<event>
 7    1  0.4962385E-011  0.5052886E+02  0.7816164E-02  0.1300439E+00
        -11   -1    0    0    0    0  0.00000000000E+00  0.00000000000E+00  0.45593999997E+02  0.45594000000E+02  0.51100000000E-03 0.  1.
         11   -1    0    0    0    0 -0.00000000000E+00 -0.00000000000E+00 -0.45593999997E+02  0.45594000000E+02  0.51100000000E-03 0. -1.
    9900012    2    1    2    0    0  0.97545737765E+01  0.34153754423E+02 -0.19787245914E+02  0.50528858942E+02  0.29999997240E+02 0.  0.
        -12    1    1    2    0    0 -0.97545737765E+01 -0.34153754423E+02  0.19787245914E+02  0.40659141058E+02  0.00000000000E+00 0.  1.
         11    1    3    3    0    0  0.13059877330E+02  0.16660143195E+02  0.13470964789E+00  0.21169291771E+02  0.51100000000E-03 0. -1.
        -11    1    3    3    0    0 -0.10965225977E+01 -0.60184127305E+00 -0.67603272169E+01  0.68750708408E+01  0.51100000000E-03 0.  1.
         12    1    3    3    0    0 -0.22087809556E+01  0.18095452501E+02 -0.13161628345E+02  0.22484496330E+02  0.00000000000E+00 0. -1.
</event>
<event>
 7    1  0.4962385E-011  0.5052884E+02  0.7816164E-02  0.1300439E+00
        -11   -1    0    0    0    0  0.00000000000E+00  0.00000000000E+00  0.45593999997E+02  0.45594000000E+02  0.51100000000E-03 0.  1.
         11   -1    0    0    0    0 -0.00000000000E+00 -0.00000000000E+00 -0.45593999997E+02  0.45594000000E+02  0.51100000000E-03 0. -1.
    9900012    2    1    2    0    0 -0.18948581486E+02  0.30328535557E+02 -0.19346802552E+02  0.50528836478E+02  0.29999928957E+02 0.  0.
        -12    1    1    2    0    0  0.18948581486E+02 -0.30328535557E+02  0.19346802552E+02  0.40659163522E+02  0.00000000000E+00 0.  1.
         11    1    3    3    0    0 -0.23164591530E+01  0.72532961985E+01 -0.16950157708E+02  0.18581822713E+02  0.51100000000E-03 0. -1.
        -11    1    3    3    0    0 -0.37879523127E+01 -0.36417816428E+00  0.27924781084E+01  0.47200786758E+01  0.51100000000E-03 0.  1.
         12    1    3    3    0    0 -0.12844170020E+02  0.23439417522E+02 -0.51891229521E+01  0.27226935088E+02  0.00000000000E+00 0. -1.
</event>
<event>
 7    1  0.4962385E-011  0.5052888E+02  0.7816164E-02  0.1300439E+00
        -11   -1    0    0    0    0  0.00000000000E+00  0.00000000000E+00  0.45593999997E+02  0.45594000000E+02  0.51100000000E-03 0. -1.
         11   -1    0    0    0    0 -0.00000000000E+00 -0.00000000000E+00 -0.45593999997E+02  0.45594000000E+02  0.51100000000E-03 0.  1.
    9900012    2    1    2    0    0  0.32868183063E+02 -0.14229500636E+02  0.19244937375E+02  0.50528883423E+02  0.30000071653E+02 0.  0.
        -12    1    1    2    0    0 -0.32868183063E+02  0.14229500636E+02 -0.19244937375E+02  0.40659116577E+02  0.00000000000E+00 0.  1.
         11    1    3    3    0    0  0.25659151670E+02 -0.13723349171E+02  0.26736264553E+02  0.39516455046E+02  0.51100000000E-03 0. -1.
        -11    1    3    3    0    0  0.51577899905E+01  0.89383760031E+00 -0.34509474233E+01  0.62698310680E+01  0.51100000000E-03 0.  1.
         12    1    3    3    0    0  0.20512414029E+01 -0.13999890658E+01 -0.40403797545E+01  0.47425973092E+01  0.00000000000E+00 0. -1.
</event>
<event>
 7    1  0.4962385E-011  0.5052887E+02  0.7816164E-02  0.1300439E+00
        -11   -1    0    0    0    0  0.00000000000E+00  0.00000000000E+00  0.45593999997E+02  0.45594000000E+02  0.51100000000E-03 0. -1.
         11   -1    0    0    0    0 -0.00000000000E+00 -0.00000000000E+00 -0.45593999997E+02  0.45594000000E+02  0.51100000000E-03 0.  1.
    9900012    2    1    2    0    0 -0.26019564087E+02  0.30784663465E+02  0.53339935930E+01  0.50528871781E+02  0.30000036264E+02 0.  0.
        -12    1    1    2    0    0  0.26019564087E+02 -0.30784663465E+02 -0.53339935930E+01  0.40659128219E+02  0.00000000000E+00 0.  1.
         11    1    3    3    0    0 -0.14163268210E+02  0.25928639157E+02  0.26344240381E+01  0.29661973723E+02  0.51100000000E-03 0. -1.
        -11    1    3    3    0    0  0.31157371908E+01 -0.65448588989E-01  0.39798391911E+01  0.50548216594E+01  0.51100000000E-03 0.  1.
         12    1    3    3    0    0 -0.14972033068E+02  0.49214728969E+01 -0.12802696362E+01  0.15812076398E+02  0.00000000000E+00 0. -1.
</event>
<event>
 7    1  0.4962385E-011  0.5052886E+02  0.7816164E-02  0.1300439E+00
        -11   -1    0    0    0    0  0.00000000000E+00  0.00000000000E+00  0.45593999997E+02  0.45594000000E+02  0.51100000000E-03 0.  1.
         11   -1    0    0    0    0 -0.00000000000E+00 -0.00000000000E+00 -0.45593999997E+02  0.45594000000E+02  0.51100000000E-03 0. -1.
    9900012    2    1    2    0    0 -0.31849158096E+02 -0.10440470686E+02  0.23017242473E+02  0.50528858953E+02  0.29999997274E+02 0.  0.
        -12    1    1    2    0    0  0.31849158096E+02  0.10440470686E+02 -0.23017242473E+02  0.40659141047E+02  0.00000000000E+00 0.  1.
         11    1    3    3    0    0 -0.54488254358E+01  0.64044885728E+01  0.12553040080E+02  0.15109135913E+02  0.51100000000E-03 0.  1.
        -11    1    3    3    0    0 -0.98667194757E+01 -0.13110890248E+02  0.81212347002E+01  0.18308523961E+02  0.51100000000E-03 0. -1.
         12    1    3    3    0    0 -0.16533613185E+02 -0.37340690110E+01  0.23429676928E+01  0.17111199079E+02  0.00000000000E+00 0. -1.
</event>
<event>
 7    1  0.4962385E-011  0.5052886E+02  0.7816164E-02  0.1300439E+00
        -11   -1    0    0    0    0  0.00000000000E+00  0.00000000000E+00  0.45593999997E+02  0.45594000000E+02  0.51100000000E-03 0.  1.
         11   -1    0    0    0    0 -0.00000000000E+00 -0.00000000000E+00 -0.45593999997E+02  0.45594000000E+02  0.51100000000E-03 0. -1.
    9900012    2    1    2    0    0 -0.12041143288E+02  0.37748358797E+02 -0.91234708430E+01  0.50528862727E+02  0.30000008745E+02 0.  0.
        -12    1    1    2    0    0  0.12041143288E+02 -0.37748358797E+02  0.91234708430E+01  0.40659137273E+02  0.00000000000E+00 0.  1.
         11    1    3    3    0    0 -0.11536107261E+01  0.18031347968E+02 -0.69344531562E+00  0.18081515255E+02  0.51100000000E-03 0. -1.
        -11    1    3    3    0    0 -0.35444717032E+01  0.41326827389E+01 -0.13444238998E+02  0.14504823638E+02  0.51100000000E-03 0.  1.
        -12    1    3    3    0    0 -0.73430608583E+01  0.15584328090E+02  0.50142134705E+01  0.17942523834E+02  0.00000000000E+00 0.  1.
</event>
<event>
 7    1  0.4962385E-011  0.5052880E+02  0.7816164E-02  0.1300439E+00
        -11   -1    0    0    0    0  0.00000000000E+00  0.00000000000E+00  0.45593999997E+02  0.45594000000E+02  0.51100000000E-03 0.  1.
         11   -1    0    0    0    0 -0.00000000000E+00 -0.00000000000E+00 -0.45593999997E+02  0.45594000000E+02  0.51100000000E-03 0. -1.
    9900012    2    1    2    0    0  0.59196984763E+00  0.96159993052E+01 -0.39501296009E+02  0.50528803533E+02  0.29999828818E+02 0.  0.
        -12    1    1    2    0    0 -0.59196984763E+00 -0.96159993052E+01  0.39501296009E+02  0.40659196467E+02  0.00000000000E+00 0.  1.
         11    1    3    3    0    0 -0.93060587510E+01  0.12598737918E+02 -0.15798823752E+02  0.22247106751E+02  0.51100000000E-03 0. -1.
        -11    1    3    3    0    0  0.78241378403E+01 -0.23892301333E+01 -0.52874804446E+01  0.97407906910E+01  0.51100000000E-03 0.  1.
         12    1    3    3    0    0  0.20738907584E+01 -0.59350847924E+00 -0.18414991813E+02  0.18540906091E+02  0.00000000000E+00 0. -1.
</event>
<event>
 7    1  0.4962385E-011  0.5052887E+02  0.7816164E-02  0.1300439E+00
        -11   -1    0    0    0    0  0.00000000000E+00  0.00000000000E+00  0.45593999997E+02  0.45594000000E+02  0.51100000000E-03 0. -1.
         11   -1    0    0    0    0 -0.00000000000E+00 -0.00000000000E+00 -0.45593999997E+02  0.45594000000E+02  0.51100000000E-03 0.  1.
    9900012    2    1    2    0    0  0.59692561134E+00  0.40160637925E+02  0.63191840618E+01  0.50528865160E+02  0.30000016140E+02 0.  0.
        -12    1    1    2    0    0 -0.59692561134E+00 -0.40160637925E+02 -0.63191840618E+01  0.40659134840E+02  0.00000000000E+00 0.  1.
         11    1    3    3    0    0  0.34784374563E+01  0.14751668139E+02  0.79503593350E+01  0.17114889828E+02  0.51100000000E-03 0. -1.
        -11    1    3    3    0    0 -0.11457965445E+02  0.20502085108E+02 -0.84485820888E+00  0.23501792518E+02  0.51100000000E-03 0.  1.
        -12    1    3    3    0    0  0.85764536001E+01  0.49068846785E+01 -0.78631706433E+00  0.99121828135E+01  0.00000000000E+00 0.  1.
</event>
<event>
 7    1  0.4962385E-011  0.5052887E+02  0.7816164E-02  0.1300439E+00
        -11   -1    0    0    0    0  0.00000000000E+00  0.00000000000E+00  0.45593999997E+02  0.45594000000E+02  0.51100000000E-03 0.  1.
         11   -1    0    0    0    0 -0.00000000000E+00 -0.00000000000E+00 -0.45593999997E+02  0.45594000000E+02  0.51100000000E-03 0. -1.
    9900012    2    1    2    0    0  0.36717560279E+02  0.10181797421E+02 -0.14188613676E+02  0.50528868313E+02  0.30000025723E+02 0.  0.
        -12    1    1    2    0    0 -0.36717560279E+02 -0.10181797421E+02  0.14188613676E+02  0.40659131687E+02  0.00000000000E+00 0.  1.
         11    1    3    3    0    0  0.88766051617E+01  0.38463220727E+01 -0.17901604056E+02  0.20348359657E+02  0.51100000000E-03 0. -1.
        -11    1    3    3    0    0  0.11038053666E+02 -0.43758320770E+00 -0.19114951415E+01  0.11210884074E+02  0.51100000000E-03 0.  1.
         12    1    3    3    0    0  0.16802901451E+02  0.67730585555E+01  0.56244855215E+01  0.18969624581E+02  0.00000000000E+00 0. -1.
</event>
<event>
 7    1  0.4962385E-011  0.5052886E+02  0.7816164E-02  0.1300439E+00
        -11   -1    0    0    0    0  0.00000000000E+00  0.00000000000E+00  0.45593999997E+02  0.45594000000E+02  0.51100000000E-03 0.  1.
         11   -1    0    0    0    0 -0.00000000000E+00 -0.00000000000E+00 -0.45593999997E+02  0.45594000000E+02  0.51100000000E-03 0. -1.
    9900012    2    1    2    0    0  0.18002346851E+02  0.46653913956E+01 -0.36156818136E+02  0.50528857526E+02  0.29999992935E+02 0.  0.
        -12    1    1    2    0    0 -0.18002346851E+02 -0.46653913956E+01  0.36156818136E+02  0.40659142474E+02  0.00000000000E+00 0.  1.
         11    1    3    3    0    0 -0.88655756978E+00  0.10838359335E+02 -0.44804252416E+01  0.11761387163E+02  0.51100000000E-03 0. -1.
        -11    1    3    3    0    0  0.82960245623E+01 -0.66627165826E+01 -0.21883372058E+02  0.24333059584E+02  0.51100000000E-03 0.  1.
         12    1    3    3    0    0  0.10592879858E+02  0.48974864305E+00 -0.97930208361E+01  0.14434410779E+02  0.00000000000E+00 0. -1.
</event>
<event>
 7    1  0.4962385E-011  0.5052884E+02  0.7816164E-02  0.1300439E+00
        -11   -1    0    0    0    0  0.00000000000E+00  0.00000000000E+00  0.45593999997E+02  0.45594000000E+02  0.51100000000E-03 0.  1.
         11   -1    0    0    0    0 -0.00000000000E+00 -0.00000000000E+00 -0.45593999997E+02  0.45594000000E+02  0.51100000000E-03 0. -1.
    9900012    2    1    2    0    0 -0.32303884250E+02 -0.13432128538E+02 -0.20717249849E+02  0.50528837982E+02  0.29999933529E+02 0.  0.
        -12    1    1    2    0    0  0.32303884250E+02  0.13432128538E+02  0.20717249849E+02  0.40659162018E+02  0.00000000000E+00 0.  1.
         11    1    3    3    0    0 -0.69867464509E+01 -0.16027184254E+01 -0.87645468163E+01  0.11322570975E+02  0.51100000000E-03 0. -1.
        -11    1    3    3    0    0 -0.10178161652E+02 -0.45148952595E+01  0.75527591644E+01  0.13454494605E+02  0.51100000000E-03 0.  1.
        -12    1    3    3    0    0 -0.15138976148E+02 -0.73145148529E+01 -0.19505462197E+02  0.25751772402E+02  0.00000000000E+00 0.  1.
</event>
<event>
 7    1  0.4962385E-011  0.5052886E+02  0.7816164E-02  0.1300439E+00
        -11   -1    0    0    0    0  0.00000000000E+00  0.00000000000E+00  0.45593999997E+02  0.45594000000E+02  0.51100000000E-03 0.  1.
         11   -1    0    0    0    0 -0.00000000000E+00 -0.00000000000E+00 -0.45593999997E+02  0.45594000000E+02  0.51100000000E-03 0. -1.
    9900012    2    1    2    0    0 -0.19299012563E+02  0.17453784039E+02 -0.31242262567E+02  0.50528862853E+02  0.30000009129E+02 0.  0.
        -12    1    1    2    0    0  0.19299012563E+02 -0.17453784039E+02  0.31242262567E+02  0.40659137147E+02  0.00000000000E+00 0.  1.
         11    1    3    3    0    0 -0.15352822781E+02 -0.18700806059E+01 -0.23068313966E+02  0.27773251130E+02  0.51100000000E-03 0. -1.
        -11    1    3    3    0    0 -0.47396902260E+00  0.10189106323E+02 -0.80307904550E+01  0.12982146582E+02  0.51100000000E-03 0.  1.
         12    1    3    3    0    0 -0.34722207594E+01  0.91347583223E+01 -0.14315814567E+00  0.97734651411E+01  0.00000000000E+00 0. -1.
</event>
<event>
 7    1  0.4962385E-011  0.5052886E+02  0.7816164E-02  0.1300439E+00
        -11   -1    0    0    0    0  0.00000000000E+00  0.00000000000E+00  0.45593999997E+02  0.45594000000E+02  0.51100000000E-03 0.  1.
         11   -1    0    0    0    0 -0.00000000000E+00 -0.00000000000E+00 -0.45593999997E+02  0.45594000000E+02  0.51100000000E-03 0. -1.
    9900012    2    1    2    0    0  0.19068519097E+02 -0.23122136262E+02 -0.27475880663E+02  0.50528860510E+02  0.30000002006E+02 0.  0.
        -12    1    1    2    0    0 -0.19068519097E+02  0.23122136262E+02  0.27475880663E+02  0.40659139490E+02  0.00000000000E+00 0.  1.
         11    1    3    3    0    0  0.27911246445E+01  0.94925982277E-01 -0.42313205580E+01  0.50698581488E+01  0.51100000000E-03 0. -1.
        -11    1    3    3    0    0  0.28994724389E+01 -0.19048961214E+02 -0.24750064294E+02  0.31366152881E+02  0.51100000000E-03 0.  1.
        -12    1    3    3    0    0  0.13377922014E+02 -0.41681010300E+01  0.15055041892E+01  0.14092849480E+02  0.00000000000E+00 0.  1.
</event>
<event>
 7    1  0.4962385E-011  0.5052888E+02  0.7816164E-02  0.1300439E+00
        -11   -1    0    0    0    0  0.00000000000E+00  0.00000000000E+00  0.45593999997E+02  0.45594000000E+02  0.51100000000E-03 0.  1.
         11   -1    0    0    0    0 -0.00000000000E+00 -0.00000000000E+00 -0.45593999997E+02  0.45594000000E+02  0.51100000000E-03 0. -1.
    9900012    2    1    2    0    0 -0.56568848421E+01  0.28811434479E+02 -0.28125873103E+02  0.50528882441E+02  0.30000068668E+02 0.  0.
        -12    1    1    2    0    0  0.56568848421E+01 -0.28811434479E+02  0.28125873103E+02  0.40659117559E+02  0.00000000000E+00 0.  1.
         11    1    3    3    0    0 -0.12997946546E+02  0.12806944428E+02 -0.65499704859E+01  0.19387278139E+02  0.51100000000E-03 0. -1.
        -11    1    3    3    0    0  0.55988618610E+01  0.17679427622E+02 -0.21906899803E+02  0.28702293888E+02  0.51100000000E-03 0.  1.
         12    1    3    3    0    0  0.17421998430E+01 -0.16749375713E+01  0.33099718594E+00  0.24393104144E+01  0.00000000000E+00 0. -1.
</event>
<event>
 7    1  0.4962385E-011  0.5052887E+02  0.7816164E-02  0.1300439E+00
        -11   -1    0    0    0    0  0.00000000000E+00  0.00000000000E+00  0.45593999997E+02  0.45594000000E+02  0.51100000000E-03 0. -1.
         11   -1    0    0    0    0 -0.00000000000E+00 -0.00000000000E+00 -0.45593999997E+02  0.45594000000E+02  0.51100000000E-03 0.  1.
    9900012    2    1    2    0    0  0.17290795858E+01 -0.39753884287E+02  0.83548663275E+01  0.50528870355E+02  0.30000031932E+02 0.  0.
        -12    1    1    2    0    0 -0.17290795858E+01  0.39753884287E+02 -0.83548663275E+01  0.40659129645E+02  0.00000000000E+00 0.  1.
         11    1    3    3    0    0 -0.39758555016E+00 -0.18696371130E+02 -0.58272043942E+01  0.19587462291E+02  0.51100000000E-03 0. -1.
        -11    1    3    3    0    0 -0.48793039057E+01 -0.10886916228E+02  0.14258188960E+02  0.18591086688E+02  0.51100000000E-03 0.  1.
        -12    1    3    3    0    0  0.70059690416E+01 -0.10170596929E+02 -0.76118238429E-01  0.12350321376E+02  0.00000000000E+00 0.  1.
</event>
<event>
 7    1  0.4962385E-011  0.5052886E+02  0.7816164E-02  0.1300439E+00
        -11   -1    0    0    0    0  0.00000000000E+00  0.00000000000E+00  0.45593999997E+02  0.45594000000E+02  0.51100000000E-03 0. -1.
         11   -1    0    0    0    0 -0.00000000000E+00 -0.00000000000E+00 -0.45593999997E+02  0.45594000000E+02  0.51100000000E-03 0.  1.
    9900012    2    1    2    0    0 -0.30965923726E+02 -0.12883737345E+02  0.22984480932E+02  0.50528862234E+02  0.30000007247E+02 0.  0.
        -12    1    1    2    0    0  0.30965923726E+02  0.12883737345E+02 -0.22984480932E+02  0.40659137766E+02  0.00000000000E+00 0.  1.
         11    1    3    3    0    0 -0.12429890902E+02  0.17936414424E+01 -0.18815264606E+01  0.12698798350E+02  0.51100000000E-03 0. -1.
        -11    1    3    3    0    0 -0.18976407194E+02 -0.11478893795E+02  0.26208870461E+02  0.34333277208E+02  0.51100000000E-03 0.  1.
        -12    1    3    3    0    0  0.44037437011E+00 -0.31984849928E+01 -0.13428630689E+01  0.34967866759E+01  0.00000000000E+00 0.  1.
</event>
<event>
 7    1  0.4962385E-011  0.5052886E+02  0.7816164E-02  0.1300439E+00
        -11   -1    0    0    0    0  0.00000000000E+00  0.00000000000E+00  0.45593999997E+02  0.45594000000E+02  0.51100000000E-03 0.  1.
         11   -1    0    0    0    0 -0.00000000000E+00 -0.00000000000E+00 -0.45593999997E+02  0.45594000000E+02  0.51100000000E-03 0. -1.
    9900012    2    1    2    0    0  0.21683995356E+02  0.19015899012E+02 -0.28659481587E+02  0.50528856444E+02  0.29999989647E+02 0.  0.
        -12    1    1    2    0    0 -0.21683995356E+02 -0.19015899012E+02  0.28659481587E+02  0.40659143556E+02  0.00000000000E+00 0.  1.
         11    1    3    3    0    0  0.59258546729E+00  0.14208484365E+01 -0.10269742612E+02  0.10384487537E+02  0.51100000000E-03 0.  1.
        -11    1    3    3    0    0  0.16096486308E+02  0.23160113676E+02 -0.14718822054E+02  0.31814013577E+02  0.51100000000E-03 0. -1.
        -12    1    3    3    0    0  0.49949235810E+01 -0.55650631003E+01 -0.36709169204E+01  0.83303553302E+01  0.00000000000E+00 0.  1.
</event>
<event>
 7    1  0.4962385E-011  0.5052886E+02  0.7816164E-02  0.1300439E+00
        -11   -1    0    0    0    0  0.00000000000E+00  0.00000000000E+00  0.45593999997E+02  0.45594000000E+02  0.51100000000E-03 0.  1.
         11   -1    0    0    0    0 -0.00000000000E+00 -0.00000000000E+00 -0.45593999997E+02  0.45594000000E+02  0.51100000000E-03 0. -1.
    9900012    2    1    2    0    0  0.21233356164E+02  0.15940527072E+02 -0.30793016916E+02  0.50528859477E+02  0.29999998865E+02 0.  0.
        -12    1    1    2    0    0 -0.21233356164E+02 -0.15940527072E+02  0.30793016916E+02  0.40659140523E+02  0.00000000000E+00 0.  1.
         11    1    3    3    0    0  0.23103257132E+02  0.30952615874E+01 -0.14363974792E+02  0.27380009249E+02  0.51100000000E-03 0. -1.
        -11    1    3    3    0    0 -0.81368965522E+00  0.18319852082E+01 -0.10315186984E+02  0.10508156043E+02  0.51100000000E-03 0.  1.
         12    1    3    3    0    0 -0.10562113130E+01  0.11013280276E+02 -0.61138551402E+01  0.12640694184E+02  0.00000000000E+00 0. -1.
</event>
<event>
 7    1  0.4962385E-011  0.5052887E+02  0.7816164E-02  0.1300439E+00
        -11   -1    0    0    0    0  0.00000000000E+00  0.00000000000E+00  0.45593999997E+02  0.45594000000E+02  0.51100000000E-03 0.  1.
         11   -1    0    0    0    0 -0.00000000000E+00 -0.00000000000E+00 -0.45593999997E+02  0.45594000000E+02  0.51100000000E-03 0. -1.
    9900012    2    1    2    0    0 -0.28630087256E+02  0.26754386498E+02 -0.10848315665E+02  0.50528867620E+02  0.30000023617E+02 0.  0.
        -12    1    1    2    0    0  0.28630087256E+02 -0.26754386498E+02  0.10848315665E+02  0.40659132380E+02  0.00000000000E+00 0.  1.
         11    1    3    3    0    0 -0.24398678173E+02  0.18276328113E+02 -0.12237258287E+02  0.32849203286E+02  0.51100000000E-03 0. -1.
        -11    1    3    3    0    0 -0.79482099305E+01  0.11147188235E+01  0.40800478289E+01  0.90035231827E+01  0.51100000000E-03 0.  1.
         12    1    3    3    0    0  0.37168008479E+01  0.73633395616E+01 -0.26911052062E+01  0.86761411511E+01  0.00000000000E+00 0. -1.
</event>
<event>
 7    1  0.4962385E-011  0.5052899E+02  0.7816164E-02  0.1300438E+00
        -11   -1    0    0    0    0  0.00000000000E+00  0.00000000000E+00  0.45593999997E+02  0.45594000000E+02  0.51100000000E-03 0.  1.
         11   -1    0    0    0    0 -0.00000000000E+00 -0.00000000000E+00 -0.45593999997E+02  0.45594000000E+02  0.51100000000E-03 0. -1.
    9900012    2    1    2    0    0 -0.29791362764E+02  0.15035362657E+02 -0.23228588853E+02  0.50528994040E+02  0.30000407881E+02 0.  0.
        -12    1    1    2    0    0  0.29791362764E+02 -0.15035362657E+02  0.23228588853E+02  0.40659005960E+02  0.00000000000E+00 0.  1.
         11    1    3    3    0    0 -0.17077559928E+02  0.97588489677E+01  0.32885778609E+01  0.19942239866E+02  0.51100000000E-03 0. -1.
        -11    1    3    3    0    0 -0.28034855571E+00  0.18059085529E+01 -0.12532584094E+01  0.22159778690E+01  0.51100000000E-03 0.  1.
         12    1    3    3    0    0 -0.12433454281E+02  0.34706051363E+01 -0.25263908304E+02  0.28370776305E+02  0.00000000000E+00 0. -1.
</event>
<event>
 7    1  0.4962385E-011  0.5052884E+02  0.7816164E-02  0.1300439E+00
        -11   -1    0    0    0    0  0.00000000000E+00  0.00000000000E+00  0.45593999997E+02  0.45594000000E+02  0.51100000000E-03 0. -1.
         11   -1    0    0    0    0 -0.00000000000E+00 -0.00000000000E+00 -0.45593999997E+02  0.45594000000E+02  0.51100000000E-03 0.  1.
    9900012    2    1    2    0    0 -0.39486481722E+02 -0.76467566694E+01  0.59591765832E+01  0.50528844673E+02  0.29999953869E+02 0.  0.
        -12    1    1    2    0    0  0.39486481722E+02  0.76467566694E+01 -0.59591765832E+01  0.40659155327E+02  0.00000000000E+00 0.  1.
         11    1    3    3    0    0 -0.35666943575E+02 -0.13303425698E+02  0.11903378536E+02  0.39884864549E+02  0.51100000000E-03 0. -1.
        -11    1    3    3    0    0  0.11551642353E+01  0.20427539242E+01 -0.30492423584E+01  0.38477431342E+01  0.51100000000E-03 0.  1.
         12    1    3    3    0    0 -0.49747023824E+01  0.36139151042E+01 -0.28949595944E+01  0.67962369902E+01  0.00000000000E+00 0. -1.
</event>
<event>
 7    1  0.4962385E-011  0.5052884E+02  0.7816164E-02  0.1300439E+00
        -11   -1    0    0    0    0  0.00000000000E+00  0.00000000000E+00  0.45593999997E+02  0.45594000000E+02  0.51100000000E-03 0.  1.
         11   -1    0    0    0    0 -0.00000000000E+00 -0.00000000000E+00 -0.45593999997E+02  0.45594000000E+02  0.51100000000E-03 0. -1.
    9900012    2    1    2    0    0  0.19543151074E+02  0.35024600370E+02 -0.66716037994E+01  0.50528835200E+02  0.29999925073E+02 0.  0.
        -12    1    1    2    0    0 -0.19543151074E+02 -0.35024600370E+02  0.66716037994E+01  0.40659164800E+02  0.00000000000E+00 0.  1.
         11    1    3    3    0    0  0.20028690431E+02  0.12608379689E+02 -0.12327096336E+02  0.26684770621E+02  0.51100000000E-03 0. -1.
        -11    1    3    3    0    0 -0.17328818802E+01  0.23041694580E+01  0.15719663029E+01  0.32837714324E+01  0.51100000000E-03 0.  1.
         12    1    3    3    0    0  0.12473425240E+01  0.20112051223E+02  0.40835262337E+01  0.20560293146E+02  0.00000000000E+00 0. -1.
</event>
<event>
 7    1  0.4962385E-011  0.5052901E+02  0.7816164E-02  0.1300438E+00
        -11   -1    0    0    0    0  0.00000000000E+00  0.00000000000E+00  0.45593999997E+02  0.45594000000E+02  0.51100000000E-03 0.  1.
         11   -1    0    0    0    0 -0.00000000000E+00 -0.00000000000E+00 -0.45593999997E+02  0.45594000000E+02  0.51100000000E-03 0. -1.
    9900012    2    1    2    0    0  0.19519318612E+02  0.35231143219E+02 -0.55602686347E+01  0.50529005437E+02  0.30000442522E+02 0.  0.
        -12    1    1    2    0    0 -0.19519318612E+02 -0.35231143219E+02  0.55602686347E+01  0.40658994563E+02  0.00000000000E+00 0.  1.
         11    1    3    3    0    0  0.15052650697E+02  0.11715641453E+02 -0.34329035759E+01  0.19381005518E+02  0.51100000000E-03 0. -1.
        -11    1    3    3    0    0  0.49568117375E+01  0.14518042021E+02  0.82385448426E+01  0.17413131485E+02  0.51100000000E-03 0.  1.
        -12    1    3    3    0    0 -0.49014382165E+00  0.89974597450E+01 -0.10365909901E+02  0.13734868434E+02  0.00000000000E+00 0.  1.
</event>
<event>
 7    1  0.4962385E-011  0.5052886E+02  0.7816164E-02  0.1300439E+00
        -11   -1    0    0    0    0  0.00000000000E+00  0.00000000000E+00  0.45593999997E+02  0.45594000000E+02  0.51100000000E-03 0.  1.
         11   -1    0    0    0    0 -0.00000000000E+00 -0.00000000000E+00 -0.45593999997E+02  0.45594000000E+02  0.51100000000E-03 0. -1.
    9900012    2    1    2    0    0 -0.71194852545E+01 -0.29256882830E+02 -0.27322402900E+02  0.50528856337E+02  0.29999989321E+02 0.  0.
        -12    1    1    2    0    0  0.71194852545E+01  0.29256882830E+02  0.27322402900E+02  0.40659143663E+02  0.00000000000E+00 0.  1.
         11    1    3    3    0    0 -0.15049419437E+02 -0.27506788798E+02 -0.27123261115E+02  0.41458168666E+02  0.51100000000E-03 0. -1.
        -11    1    3    3    0    0  0.64185467608E+01 -0.42569693719E+00 -0.15906362325E+01  0.66263930074E+01  0.51100000000E-03 0.  1.
         12    1    3    3    0    0  0.15113874216E+01 -0.13243970951E+01  0.13914944476E+01  0.24442946634E+01  0.00000000000E+00 0. -1.
</event>
<event>
 7    1  0.4962385E-011  0.5052885E+02  0.7816164E-02  0.1300439E+00
        -11   -1    0    0    0    0  0.00000000000E+00  0.00000000000E+00  0.45593999997E+02  0.45594000000E+02  0.51100000000E-03 0.  1.
         11   -1    0    0    0    0 -0.00000000000E+00 -0.00000000000E+00 -0.45593999997E+02  0.45594000000E+02  0.51100000000E-03 0. -1.
    9900012    2    1    2    0    0  0.11285591463E+02 -0.37170036199E+02 -0.12007912081E+02  0.50528854433E+02  0.29999983534E+02 0.  0.
        -12    1    1    2    0    0 -0.11285591463E+02  0.37170036199E+02  0.12007912081E+02  0.40659145567E+02  0.00000000000E+00 0.  1.
         11    1    3    3    0    0 -0.49458287057E+00 -0.71307656023E+01 -0.12104986458E+01  0.72496715459E+01  0.51100000000E-03 0. -1.
        -11    1    3    3    0    0  0.14444804953E+02 -0.77612025638E+01  0.33743962328E+01  0.16741421850E+02  0.51100000000E-03 0.  1.
        -12    1    3    3    0    0 -0.26646306190E+01 -0.22278068033E+02 -0.14171809668E+02  0.26537761037E+02  0.00000000000E+00 0.  1.
</event>
<event>
 7    1  0.4962385E-011  0.5052886E+02  0.7816164E-02  0.1300439E+00
        -11   -1    0    0    0    0  0.00000000000E+00  0.00000000000E+00  0.45593999997E+02  0.45594000000E+02  0.51100000000E-03 0.  1.
         11   -1    0    0    0    0 -0.00000000000E+00 -0.00000000000E+00 -0.45593999997E+02  0.45594000000E+02  0.51100000000E-03 0. -1.
    9900012    2    1    2    0    0 -0.21891666637E+02  0.23538945377E+02 -0.24896553824E+02  0.50528863144E+02  0.30000010012E+02 0.  0.
        -12    1    1    2    0    0  0.21891666637E+02 -0.23538945377E+02  0.24896553824E+02  0.40659136856E+02  0.00000000000E+00 0.  1.
         11    1    3    3    0    0 -0.25459365194E+02  0.22828521157E+02 -0.17333166987E+02  0.38337440347E+02  0.51100000000E-03 0. -1.
        -11    1    3    3    0    0  0.66329604213E+00 -0.39340643663E+01 -0.40422647225E+01  0.56795007197E+01  0.51100000000E-03 0.  1.
         12    1    3    3    0    0  0.29044025148E+01  0.46444885858E+01 -0.35211221144E+01  0.65119220769E+01  0.00000000000E+00 0. -1.
</event>
<event>
 7    1  0.4962385E-011  0.5052886E+02  0.7816164E-02  0.1300439E+00
        -11   -1    0    0    0    0  0.00000000000E+00  0.00000000000E+00  0.45593999997E+02  0.45594000000E+02  0.51100000000E-03 0.  1.
         11   -1    0    0    0    0 -0.00000000000E+00 -0.00000000000E+00 -0.45593999997E+02  0.45594000000E+02  0.51100000000E-03 0. -1.
    9900012    2    1    2    0    0 -0.25219325375E+02 -0.16617343650E+02 -0.27221597712E+02  0.50528857556E+02  0.29999993026E+02 0.  0.
        -12    1    1    2    0    0  0.25219325375E+02  0.16617343650E+02  0.27221597712E+02  0.40659142444E+02  0.00000000000E+00 0.  1.
         11    1    3    3    0    0 -0.99178411685E+01 -0.94815734997E+01 -0.99308568653E+01  0.16937701373E+02  0.51100000000E-03 0. -1.
        -11    1    3    3    0    0 -0.55605620733E+01  0.17259098880E+01  0.50175872224E+01  0.76860130958E+01  0.51100000000E-03 0.  1.
        -12    1    3    3    0    0 -0.97409221328E+01 -0.88616800381E+01 -0.22308328069E+02  0.25905143086E+02  0.00000000000E+00 0.  1.
</event>
<event>
 7    1  0.4962385E-011  0.5052886E+02  0.7816164E-02  0.1300439E+00
        -11   -1    0    0    0    0  0.00000000000E+00  0.00000000000E+00  0.45593999997E+02  0.45594000000E+02  0.51100000000E-03 0.  1.
         11   -1    0    0    0    0 -0.00000000000E+00 -0.00000000000E+00 -0.45593999997E+02  0.45594000000E+02  0.51100000000E-03 0. -1.
    9900012    2    1    2    0    0 -0.38528616011E+02  0.11566789664E+02  0.59093869141E+01  0.50528859225E+02  0.29999998099E+02 0.  0.
        -12    1    1    2    0    0  0.38528616011E+02 -0.11566789664E+02 -0.59093869141E+01  0.40659140775E+02  0.00000000000E+00 0.  1.
         11    1    3    3    0    0 -0.12020288927E+02  0.12104496612E+02  0.85651518317E+01  0.19088426082E+02  0.51100000000E-03 0.  1.
        -11    1    3    3    0    0 -0.54415988686E+01  0.27444091466E+01 -0.74116368640E+01  0.95955792465E+01  0.51100000000E-03 0. -1.
         12    1    3    3    0    0 -0.21066728216E+02 -0.32821160945E+01  0.47558719464E+01  0.21844853896E+02  0.00000000000E+00 0. -1.
</event>
<event>
 7    1  0.4962385E-011  0.5052886E+02  0.7816164E-02  0.1300439E+00
        -11   -1    0    0    0    0  0.00000000000E+00  0.00000000000E+00  0.45593999997E+02  0.45594000000E+02  0.51100000000E-03 0.  1.
         11   -1    0    0    0    0 -0.00000000000E+00 -0.00000000000E+00 -0.45593999997E+02  0.45594000000E+02  0.51100000000E-03 0. -1.
    9900012    2    1    2    0    0  0.21765182477E+02  0.17885131481E+02 -0.29318326217E+02  0.50528863899E+02  0.30000012306E+02 0.  0.
        -12    1    1    2    0    0 -0.21765182477E+02 -0.17885131481E+02  0.29318326217E+02  0.40659136101E+02  0.00000000000E+00 0.  1.
         11    1    3    3    0    0  0.16747551148E+02 -0.44674264186E+00 -0.11064393062E+02  0.20077371405E+02  0.51100000000E-03 0. -1.
        -11    1    3    3    0    0  0.67612526197E+01  0.20217712236E+02 -0.14072288070E+02  0.25544074006E+02  0.51100000000E-03 0.  1.
        -12    1    3    3    0    0 -0.17436212905E+01 -0.18858381134E+01 -0.41816450850E+01  0.49074184875E+01  0.00000000000E+00 0.  1.
</event>
<event>
 7    1  0.4962385E-011  0.5052886E+02  0.7816164E-02  0.1300439E+00
        -11   -1    0    0    0    0  0.00000000000E+00  0.00000000000E+00  0.45593999997E+02  0.45594000000E+02  0.51100000000E-03 0.  1.
         11   -1    0    0    0    0 -0.00000000000E+00 -0.00000000000E+00 -0.45593999997E+02  0.45594000000E+02  0.51100000000E-03 0. -1.
    9900012    2    1    2    0    0 -0.39049176167E+01 -0.18553848394E+02 -0.35967648151E+02  0.50528863446E+02  0.30000010930E+02 0.  0.
        -12    1    1    2    0    0  0.39049176167E+01  0.18553848394E+02  0.35967648151E+02  0.40659136554E+02  0.00000000000E+00 0.  1.
         11    1    3    3    0    0 -0.11214006676E+02 -0.56421444949E+01 -0.31370014367E+02  0.33788541577E+02  0.51100000000E-03 0. -1.
        -11    1    3    3    0    0  0.58562401216E+01 -0.60556288068E+01 -0.48629230414E+01  0.97269835702E+01  0.51100000000E-03 0.  1.
         12    1    3    3    0    0  0.14528489372E+01 -0.68560750924E+01  0.26528925765E+00  0.70133382991E+01  0.00000000000E+00 0. -1.
</event>
<event>
 7    1  0.4962385E-011  0.5052886E+02  0.7816164E-02  0.1300439E+00
        -11   -1    0    0    0    0  0.00000000000E+00  0.00000000000E+00  0.45593999997E+02  0.45594000000E+02  0.51100000000E-03 0.  1.
         11   -1    0    0    0    0 -0.00000000000E+00 -0.00000000000E+00 -0.45593999997E+02  0.45594000000E+02  0.51100000000E-03 0. -1.
    9900012    2    1    2    0    0  0.22919055179E+02  0.22209479687E+02 -0.25191701165E+02  0.50528857291E+02  0.29999992223E+02 0.  0.
        -12    1    1    2    0    0 -0.22919055179E+02 -0.22209479687E+02  0.25191701165E+02  0.40659142709E+02  0.00000000000E+00 0.  1.
         11    1    3    3    0    0 -0.42283224395E+01  0.95273824520E+01 -0.42659881473E+01  0.11262698707E+02  0.51100000000E-03 0. -1.
        -11    1    3    3    0    0  0.24166866903E+02  0.14692329585E+02 -0.14216730106E+02  0.31654658736E+02  0.51100000000E-03 0.  1.
        -12    1    3    3    0    0  0.29805107154E+01 -0.20102323502E+01 -0.67089829118E+01  0.76114998480E+01  0.00000000000E+00 0.  1.
</event>
<event>
 7    1  0.4962385E-011  0.5052885E+02  0.7816164E-02  0.1300439E+00
        -11   -1    0    0    0    0  0.00000000000E+00  0.00000000000E+00  0.45593999997E+02  0.45594000000E+02  0.51100000000E-03 0.  1.
         11   -1    0    0    0    0 -0.00000000000E+00 -0.00000000000E+00 -0.45593999997E+02  0.45594000000E+02  0.51100000000E-03 0. -1.
    9900012    2    1    2    0    0  0.31463193852E+02  0.16795807111E+02 -0.19522665870E+02  0.50528853593E+02  0.29999980980E+02 0.  0.
        -12    1    1    2    0    0 -0.31463193852E+02 -0.16795807111E+02  0.19522665870E+02  0.40659146407E+02  0.00000000000E+00 0.  1.
         11    1    3    3    0    0  0.73892823733E+01  0.19072918419E+02 -0.12324249724E+02  0.23880218645E+02  0.51100000000E-03 0. -1.
        -11    1    3    3    0    0  0.13905735489E+02  0.14750121666E+01 -0.73739042359E+01  0.15808845762E+02  0.51100000000E-03 0.  1.
         12    1    3    3    0    0  0.10168175990E+02 -0.37521234739E+01  0.17548808961E+00  0.10839789186E+02  0.00000000000E+00 0. -1.
</event>
<event>
 7    1  0.4962385E-011  0.5052883E+02  0.7816164E-02  0.1300439E+00
        -11   -1    0    0    0    0  0.00000000000E+00  0.00000000000E+00  0.45593999997E+02  0.45594000000E+02  0.51100000000E-03 0. -1.
         11   -1    0    0    0    0 -0.00000000000E+00 -0.00000000000E+00 -0.45593999997E+02  0.45594000000E+02  0.51100000000E-03 0.  1.
    9900012    2    1    2    0    0  0.60145997746E+01  0.39857599031E+02  0.53258157928E+01  0.50528832217E+02  0.29999916007E+02 0.  0.
        -12    1    1    2    0    0 -0.60145997746E+01 -0.39857599031E+02 -0.53258157928E+01  0.40659167783E+02  0.00000000000E+00 0.  1.
         11    1    3    3    0    0  0.22593252959E+01  0.24682107370E+02  0.75135586389E+01  0.25899122353E+02  0.51100000000E-03 0. -1.
        -11    1    3    3    0    0  0.44055829189E+01 -0.22264642891E+01 -0.49583999899E+01  0.69965730759E+01  0.51100000000E-03 0.  1.
        -12    1    3    3    0    0 -0.65030844022E+00  0.17401955950E+02  0.27706571437E+01  0.17633136788E+02  0.00000000000E+00 0.  1.
</event>
<event>
 7    1  0.4962385E-011  0.5052886E+02  0.7816164E-02  0.1300439E+00
        -11   -1    0    0    0    0  0.00000000000E+00  0.00000000000E+00  0.45593999997E+02  0.45594000000E+02  0.51100000000E-03 0.  1.
         11   -1    0    0    0    0 -0.00000000000E+00 -0.00000000000E+00 -0.45593999997E+02  0.45594000000E+02  0.51100000000E-03 0. -1.
    9900012    2    1    2    0    0  0.10022197317E+02  0.39190120959E+02 -0.41055454500E+01  0.50528861749E+02  0.30000005774E+02 0.  0.
        -12    1    1    2    0    0 -0.10022197317E+02 -0.39190120959E+02  0.41055454500E+01  0.40659138251E+02  0.00000000000E+00 0.  1.
         11    1    3    3    0    0  0.11702106102E+00  0.19863939344E+02 -0.15223216944E+02  0.25026708025E+02  0.51100000000E-03 0. -1.
        -11    1    3    3    0    0  0.27347177742E+01  0.44902045682E+01  0.65575626921E+01  0.84048942344E+01  0.51100000000E-03 0.  1.
         12    1    3    3    0    0  0.71704584820E+01  0.14835977047E+02  0.45601088023E+01  0.17097259490E+02  0.00000000000E+00 0. -1.
</event>
<event>
 7    1  0.4962385E-011  0.5052886E+02  0.7816164E-02  0.1300439E+00
        -11   -1    0    0    0    0  0.00000000000E+00  0.00000000000E+00  0.45593999997E+02  0.45594000000E+02  0.51100000000E-03 0.  1.
         11   -1    0    0    0    0 -0.00000000000E+00 -0.00000000000E+00 -0.45593999997E+02  0.45594000000E+02  0.51100000000E-03 0. -1.
    9900012    2    1    2    0    0  0.15806951937E+02  0.29823946781E+02 -0.22667997690E+02  0.50528860186E+02  0.30000001023E+02 0.  0.
        -12    1    1    2    0    0 -0.15806951937E+02 -0.29823946781E+02  0.22667997690E+02  0.40659139814E+02  0.00000000000E+00 0.  1.
         11    1    3    3    0    0  0.85490691659E+00  0.94451498646E+01 -0.15419191360E+02  0.18102297762E+02  0.51100000000E-03 0. -1.
        -11    1    3    3    0    0  0.91933103884E+01  0.18897366853E+02  0.23388487864E+01  0.21144683582E+02  0.51100000000E-03 0.  1.
        -12    1    3    3    0    0  0.57587346317E+01  0.14814300630E+01 -0.95876551164E+01  0.11281878843E+02  0.00000000000E+00 0.  1.
</event>
<event>
 7    1  0.6099040E-011  0.5052886E+02  0.7816164E-02  0.1300439E+00
        -11   -1    0    0    0    0  0.00000000000E+00  0.00000000000E+00  0.45593999997E+02  0.45594000000E+02  0.51100000000E-03 0.  1.
         11   -1    0    0    0    0 -0.00000000000E+00 -0.00000000000E+00 -0.45593999997E+02  0.45594000000E+02  0.51100000000E-03 0. -1.
    9900012    2    1    2    0    0 -0.36413547969E+02 -0.72418229222E+01  0.16576346635E+02  0.50528859051E+02  0.29999997571E+02 0.  0.
        -12    1    1    2    0    0  0.36413547969E+02  0.72418229222E+01 -0.16576346635E+02  0.40659140949E+02  0.00000000000E+00 0.  1.
         11    1    3    3    0    0 -0.20644621209E+02  0.12086118666E+01  0.77128815248E+01  0.22071467310E+02  0.51100000000E-03 0. -1.
        -11    1    3    3    0    0 -0.12034672106E+02 -0.13154849552E+02  0.95624529155E-01  0.17829541322E+02  0.51100000000E-03 0.  1.
        -12    1    3    3    0    0 -0.37342546534E+01  0.47044147630E+01  0.87678405814E+01  0.10627850420E+02  0.00000000000E+00 0.  1.
</event>
<event>
 7    1  0.4962385E-011  0.5052886E+02  0.7816164E-02  0.1300439E+00
        -11   -1    0    0    0    0  0.00000000000E+00  0.00000000000E+00  0.45593999997E+02  0.45594000000E+02  0.51100000000E-03 0.  1.
         11   -1    0    0    0    0 -0.00000000000E+00 -0.00000000000E+00 -0.45593999997E+02  0.45594000000E+02  0.51100000000E-03 0. -1.
    9900012    2    1    2    0    0  0.95470786176E+01  0.43094347927E+01 -0.39286735280E+02  0.50528861946E+02  0.30000006370E+02 0.  0.
        -12    1    1    2    0    0 -0.95470786176E+01 -0.43094347927E+01  0.39286735280E+02  0.40659138054E+02  0.00000000000E+00 0.  1.
         11    1    3    3    0    0  0.12560475803E+02 -0.32162206981E+01 -0.26144232734E+02  0.29182709495E+02  0.51100000000E-03 0. -1.
        -11    1    3    3    0    0  0.16708753118E+01  0.31002769668E+01  0.25724246163E+01  0.43612968537E+01  0.51100000000E-03 0.  1.
        -12    1    3    3    0    0 -0.46842724975E+01  0.44253785240E+01 -0.15714927162E+02  0.16984855596E+02  0.00000000000E+00 0.  1.
</event>
<event>
 7    1  0.4962385E-011  0.5052886E+02  0.7816164E-02  0.1300439E+00
        -11   -1    0    0    0    0  0.00000000000E+00  0.00000000000E+00  0.45593999997E+02  0.45594000000E+02  0.51100000000E-03 0. -1.
         11   -1    0    0    0    0 -0.00000000000E+00 -0.00000000000E+00 -0.45593999997E+02  0.45594000000E+02  0.51100000000E-03 0.  1.
    9900012    2    1    2    0    0  0.37135947703E+02 -0.27978413023E+01  0.16317437597E+02  0.50528864526E+02  0.30000014213E+02 0.  0.
        -12    1    1    2    0    0 -0.37135947703E+02  0.27978413023E+01 -0.16317437597E+02  0.40659135474E+02  0.00000000000E+00 0.  1.
         11    1    3    3    0    0  0.23581583831E+02 -0.63155612317E+01  0.99401739161E+01  0.26358764527E+02  0.51100000000E-03 0. -1.
        -11    1    3    3    0    0 -0.30154182063E+01 -0.38206157765E+01 -0.25157156818E+00  0.48737193586E+01  0.51100000000E-03 0.  1.
         12    1    3    3    0    0  0.16569782079E+02  0.73383357059E+01  0.66288352492E+01  0.19296380641E+02  0.00000000000E+00 0. -1.
</event>
<event>
 7    1  0.5774673E-011  0.5052886E+02  0.7816164E-02  0.1300439E+00
        -11   -1    0    0    0    0  0.00000000000E+00  0.00000000000E+00  0.45593999997E+02  0.45594000000E+02  0.51100000000E-03 0.  1.
         11   -1    0    0    0    0 -0.00000000000E+00 -0.00000000000E+00 -0.45593999997E+02  0.45594000000E+02  0.51100000000E-03 0. -1.
    9900012    2    1    2    0    0 -0.34922078531E+02  0.15925330132E+02 -0.13416321392E+02  0.50528863408E+02  0.30000010815E+02 0.  0.
        -12    1    1    2    0    0  0.34922078531E+02 -0.15925330132E+02  0.13416321392E+02  0.40659136592E+02  0.00000000000E+00 0.  1.
         11    1    3    3    0    0 -0.24643029311E+02  0.69374932668E+01 -0.74213623843E+01  0.26654911862E+02  0.51100000000E-03 0. -1.
        -11    1    3    3    0    0 -0.14111855589E+01  0.69354419487E+01 -0.11303745432E+02  0.13336658531E+02  0.51100000000E-03 0.  1.
        -12    1    3    3    0    0 -0.88678636607E+01  0.20523949163E+01  0.53087864248E+01  0.10537293016E+02  0.00000000000E+00 0.  1.
</event>
<event>
 7    1  0.4962385E-011  0.5052885E+02  0.7816164E-02  0.1300439E+00
        -11   -1    0    0    0    0  0.00000000000E+00  0.00000000000E+00  0.45593999997E+02  0.45594000000E+02  0.51100000000E-03 0.  1.
         11   -1    0    0    0    0 -0.00000000000E+00 -0.00000000000E+00 -0.45593999997E+02  0.45594000000E+02  0.51100000000E-03 0. -1.
    9900012    2    1    2    0    0 -0.66246483135E+01 -0.34649575751E+02 -0.20216011901E+02  0.50528853401E+02  0.29999980397E+02 0.  0.
        -12    1    1    2    0    0  0.66246483135E+01  0.34649575751E+02  0.20216011901E+02  0.40659146599E+02  0.00000000000E+00 0.  1.
         11    1    3    3    0    0 -0.19735296018E+01  0.36039611003E+01 -0.10274579204E+01  0.42354485879E+01  0.51100000000E-03 0.  1.
        -11    1    3    3    0    0 -0.97218365762E-01 -0.36183667650E+02 -0.13261103685E+02  0.38537308251E+02  0.51100000000E-03 0. -1.
         12    1    3    3    0    0 -0.45539003460E+01 -0.20698692012E+01 -0.59274502952E+01  0.77560965616E+01  0.00000000000E+00 0. -1.
</event>
<event>
 7    1  0.4962385E-011  0.5052886E+02  0.7816164E-02  0.1300439E+00
        -11   -1    0    0    0    0  0.00000000000E+00  0.00000000000E+00  0.45593999997E+02  0.45594000000E+02  0.51100000000E-03 0. -1.
         11   -1    0    0    0    0 -0.00000000000E+00 -0.00000000000E+00 -0.45593999997E+02  0.45594000000E+02  0.51100000000E-03 0.  1.
    9900012    2    1    2    0    0  0.36257283713E+02 -0.16037091884E+02  0.90214774066E+01  0.50528855974E+02  0.29999988219E+02 0.  0.
        -12    1    1    2    0    0 -0.36257283713E+02  0.16037091884E+02 -0.90214774066E+01  0.40659144026E+02  0.00000000000E+00 0.  1.
         11    1    3    3    0    0 -0.29932330387E+01  0.26673117332E+01 -0.13968017459E+01  0.42455919829E+01  0.51100000000E-03 0. -1.
        -11    1    3    3    0    0  0.11984172550E+02  0.78064950641E-01  0.25971578249E+01  0.12262614520E+02  0.51100000000E-03 0.  1.
         12    1    3    3    0    0  0.27266344202E+02 -0.18782468568E+02  0.78211213277E+01  0.34020649471E+02  0.00000000000E+00 0. -1.
</event>
<event>
 7    1  0.4962385E-011  0.5052881E+02  0.7816164E-02  0.1300439E+00
        -11   -1    0    0    0    0  0.00000000000E+00  0.00000000000E+00  0.45593999997E+02  0.45594000000E+02  0.51100000000E-03 0.  1.
         11   -1    0    0    0    0 -0.00000000000E+00 -0.00000000000E+00 -0.45593999997E+02  0.45594000000E+02  0.51100000000E-03 0. -1.
    9900012    2    1    2    0    0 -0.27174044041E+02  0.13390869800E+02 -0.27118740159E+02  0.50528805083E+02  0.29999833529E+02 0.  0.
        -12    1    1    2    0    0  0.27174044041E+02 -0.13390869800E+02  0.27118740159E+02  0.40659194917E+02  0.00000000000E+00 0.  1.
         11    1    3    3    0    0 -0.77820889402E+01 -0.47933440801E+01 -0.19841185855E+02  0.21845130170E+02  0.51100000000E-03 0. -1.
        -11    1    3    3    0    0 -0.15036010037E+02  0.89560550620E+01 -0.53307450100E+01  0.18295063890E+02  0.51100000000E-03 0.  1.
         12    1    3    3    0    0 -0.43559450636E+01  0.92281588181E+01 -0.19468092941E+01  0.10388611023E+02  0.00000000000E+00 0. -1.
</event>
<event>
 7    1  0.4962385E-011  0.5052886E+02  0.7816164E-02  0.1300439E+00
        -11   -1    0    0    0    0  0.00000000000E+00  0.00000000000E+00  0.45593999997E+02  0.45594000000E+02  0.51100000000E-03 0. -1.
         11   -1    0    0    0    0 -0.00000000000E+00 -0.00000000000E+00 -0.45593999997E+02  0.45594000000E+02  0.51100000000E-03 0.  1.
    9900012    2    1    2    0    0  0.18486804625E+02  0.39899303148E+01  0.35992836005E+02  0.50528859172E+02  0.29999997940E+02 0.  0.
        -12    1    1    2    0    0 -0.18486804625E+02 -0.39899303148E+01 -0.35992836005E+02  0.40659140828E+02  0.00000000000E+00 0.  1.
         11    1    3    3    0    0  0.20267086824E+02 -0.77775816336E+01  0.19401289982E+02  0.29114526231E+02  0.51100000000E-03 0. -1.
        -11    1    3    3    0    0 -0.19870907418E+01  0.13033945027E+01  0.63110536088E+01  0.67436462511E+01  0.51100000000E-03 0.  1.
         12    1    3    3    0    0  0.20680854276E+00  0.10464117446E+02  0.10280492414E+02  0.14670686691E+02  0.00000000000E+00 0. -1.
</event>
<event>
 7    1  0.4962385E-011  0.5052886E+02  0.7816164E-02  0.1300439E+00
        -11   -1    0    0    0    0  0.00000000000E+00  0.00000000000E+00  0.45593999997E+02  0.45594000000E+02  0.51100000000E-03 0.  1.
         11   -1    0    0    0    0 -0.00000000000E+00 -0.00000000000E+00 -0.45593999997E+02  0.45594000000E+02  0.51100000000E-03 0. -1.
    9900012    2    1    2    0    0 -0.34362824602E+02  0.43392468569E+01 -0.21296305555E+02  0.50528863164E+02  0.30000010074E+02 0.  0.
        -12    1    1    2    0    0  0.34362824602E+02 -0.43392468569E+01  0.21296305555E+02  0.40659136836E+02  0.00000000000E+00 0.  1.
         11    1    3    3    0    0 -0.34419652036E+02  0.91546359569E+01 -0.24900504750E+02  0.43457507325E+02  0.51100000000E-03 0. -1.
        -11    1    3    3    0    0  0.16100857222E+01 -0.20965792838E+01  0.27742013694E+01  0.38319987246E+01  0.51100000000E-03 0.  1.
         12    1    3    3    0    0 -0.15532582888E+01 -0.27188098162E+01  0.82999782642E+00  0.32393571153E+01  0.00000000000E+00 0. -1.
</event>
<event>
 7    1  0.4962385E-011  0.5052886E+02  0.7816164E-02  0.1300439E+00
        -11   -1    0    0    0    0  0.00000000000E+00  0.00000000000E+00  0.45593999997E+02  0.45594000000E+02  0.51100000000E-03 0.  1.
         11   -1    0    0    0    0 -0.00000000000E+00 -0.00000000000E+00 -0.45593999997E+02  0.45594000000E+02  0.51100000000E-03 0. -1.
    9900012    2    1    2    0    0 -0.24848339573E+02  0.85392093449E+01 -0.31029137932E+02  0.50528862324E+02  0.30000007520E+02 0.  0.
        -12    1    1    2    0    0  0.24848339573E+02 -0.85392093449E+01  0.31029137932E+02  0.40659137676E+02  0.00000000000E+00 0.  1.
         11    1    3    3    0    0 -0.20524109349E+01  0.12857125279E+02 -0.48544313004E+01  0.13895451220E+02  0.51100000000E-03 0. -1.
        -11    1    3    3    0    0 -0.10787525523E+02 -0.74948306539E+01 -0.14829877587E+02  0.19810816816E+02  0.51100000000E-03 0.  1.
        -12    1    3    3    0    0 -0.12008403116E+02  0.31769147197E+01 -0.11344829045E+02  0.16822594288E+02  0.00000000000E+00 0.  1.
</event>
<event>
 7    1  0.4962385E-011  0.5052886E+02  0.7816164E-02  0.1300439E+00
        -11   -1    0    0    0    0  0.00000000000E+00  0.00000000000E+00  0.45593999997E+02  0.45594000000E+02  0.51100000000E-03 0.  1.
         11   -1    0    0    0    0 -0.00000000000E+00 -0.00000000000E+00 -0.45593999997E+02  0.45594000000E+02  0.51100000000E-03 0. -1.
    9900012    2    1    2    0    0 -0.22681363350E+02 -0.10799330811E+02 -0.31970234453E+02  0.50528859818E+02  0.29999999902E+02 0.  0.
        -12    1    1    2    0    0  0.22681363350E+02  0.10799330811E+02  0.31970234453E+02  0.40659140182E+02  0.00000000000E+00 0.  1.
         11    1    3    3    0    0 -0.11207939458E+02 -0.16153148764E+01  0.21209541333E+01  0.11520659518E+02  0.51100000000E-03 0.  1.
        -11    1    3    3    0    0  0.58880016467E+00 -0.57382176286E+01 -0.15873397728E+02  0.16889007753E+02  0.51100000000E-03 0. -1.
        -12    1    3    3    0    0 -0.12062224057E+02 -0.34457983063E+01 -0.18217790859E+02  0.22119192547E+02  0.00000000000E+00 0.  1.
</event>
<event>
 7    1  0.4962385E-011  0.5052885E+02  0.7816164E-02  0.1300439E+00
        -11   -1    0    0    0    0  0.00000000000E+00  0.00000000000E+00  0.45593999997E+02  0.45594000000E+02  0.51100000000E-03 0. -1.
         11   -1    0    0    0    0 -0.00000000000E+00 -0.00000000000E+00 -0.45593999997E+02  0.45594000000E+02  0.51100000000E-03 0.  1.
    9900012    2    1    2    0    0 -0.38713095829E+02  0.12414038282E+02 -0.59493620535E+00  0.50528854852E+02  0.29999984807E+02 0.  0.
        -12    1    1    2    0    0  0.38713095829E+02 -0.12414038282E+02  0.59493620535E+00  0.40659145148E+02  0.00000000000E+00 0.  1.
         11    1    3    3    0    0 -0.24010869611E+02  0.19198929297E+02  0.75324806575E+01  0.31652156495E+02  0.51100000000E-03 0. -1.
        -11    1    3    3    0    0 -0.46152246205E+01 -0.48484607319E+01 -0.40638715712E+01  0.78308953622E+01  0.51100000000E-03 0.  1.
         12    1    3    3    0    0 -0.10087001597E+02 -0.19364302836E+01 -0.40635452916E+01  0.11045802995E+02  0.00000000000E+00 0. -1.
</event>
<event>
 7    1  0.4962385E-011  0.5052886E+02  0.7816164E-02  0.1300439E+00
        -11   -1    0    0    0    0  0.00000000000E+00  0.00000000000E+00  0.45593999997E+02  0.45594000000E+02  0.51100000000E-03 0.  1.
         11   -1    0    0    0    0 -0.00000000000E+00 -0.00000000000E+00 -0.45593999997E+02  0.45594000000E+02  0.51100000000E-03 0. -1.
    9900012    2    1    2    0    0  0.24210643433E+02 -0.28809479402E+02 -0.15395597919E+02  0.50528858419E+02  0.29999995649E+02 0.  0.
        -12    1    1    2    0    0 -0.24210643433E+02  0.28809479402E+02  0.15395597919E+02  0.40659141581E+02  0.00000000000E+00 0.  1.
         11    1    3    3    0    0  0.12870459039E+02 -0.23234872718E+02 -0.92472327827E+01  0.28125066053E+02  0.51100000000E-03 0. -1.
        -11    1    3    3    0    0  0.56715115024E+01  0.18302437362E+01 -0.10530563588E+02  0.12099942339E+02  0.51100000000E-03 0.  1.
        -12    1    3    3    0    0  0.56686728920E+01 -0.74048504194E+01  0.43821984520E+01  0.10303850026E+02  0.00000000000E+00 0.  1.
</event>
<event>
 7    1  0.4962385E-011  0.5052886E+02  0.7816164E-02  0.1300439E+00
        -11   -1    0    0    0    0  0.00000000000E+00  0.00000000000E+00  0.45593999997E+02  0.45594000000E+02  0.51100000000E-03 0.  1.
         11   -1    0    0    0    0 -0.00000000000E+00 -0.00000000000E+00 -0.45593999997E+02  0.45594000000E+02  0.51100000000E-03 0. -1.
    9900012    2    1    2    0    0 -0.16859699312E+02 -0.32970788089E+02 -0.16788198934E+02  0.50528856483E+02  0.29999989765E+02 0.  0.
        -12    1    1    2    0    0  0.16859699312E+02  0.32970788089E+02  0.16788198934E+02  0.40659143517E+02  0.00000000000E+00 0.  1.
         11    1    3    3    0    0  0.16928426939E+00 -0.13163763643E+02  0.38727667065E+01  0.13722669297E+02  0.51100000000E-03 0. -1.
        -11    1    3    3    0    0 -0.12937509416E+02 -0.19981021907E+02 -0.22084462736E+02  0.32470661850E+02  0.51100000000E-03 0.  1.
        -12    1    3    3    0    0 -0.40914741646E+01  0.17399746041E+00  0.14234970963E+01  0.43355253360E+01  0.00000000000E+00 0.  1.
</event>
<event>
 7    1  0.4962385E-011  0.5052887E+02  0.7816164E-02  0.1300439E+00
        -11   -1    0    0    0    0  0.00000000000E+00  0.00000000000E+00  0.45593999997E+02  0.45594000000E+02  0.51100000000E-03 0.  1.
         11   -1    0    0    0    0 -0.00000000000E+00 -0.00000000000E+00 -0.45593999997E+02  0.45594000000E+02  0.51100000000E-03 0. -1.
    9900012    2    1    2    0    0  0.21638068638E+02 -0.31825874226E+02 -0.13117656835E+02  0.50528865657E+02  0.30000017652E+02 0.  0.
        -12    1    1    2    0    0 -0.21638068638E+02  0.31825874226E+02  0.13117656835E+02  0.40659134343E+02  0.00000000000E+00 0.  1.
         11    1    3    3    0    0  0.23576441969E+02 -0.22680029578E+02 -0.64889247629E+01  0.33351739122E+02  0.51100000000E-03 0. -1.
        -11    1    3    3    0    0 -0.65854620355E+01 -0.49518082941E+01 -0.71315495069E+01  0.10897142480E+02  0.51100000000E-03 0.  1.
        -12    1    3    3    0    0  0.46470887046E+01 -0.41940363537E+01  0.50281743524E+00  0.62799840556E+01  0.00000000000E+00 0.  1.
</event>
<event>
 7    1  0.4962385E-011  0.5052884E+02  0.7816164E-02  0.1300439E+00
        -11   -1    0    0    0    0  0.00000000000E+00  0.00000000000E+00  0.45593999997E+02  0.45594000000E+02  0.51100000000E-03 0.  1.
         11   -1    0    0    0    0 -0.00000000000E+00 -0.00000000000E+00 -0.45593999997E+02  0.45594000000E+02  0.51100000000E-03 0. -1.
    9900012    2    1    2    0    0 -0.22197269747E+02  0.33540278096E+02 -0.59580114639E+01  0.50528844333E+02  0.29999952833E+02 0.  0.
        -12    1    1    2    0    0  0.22197269747E+02 -0.33540278096E+02  0.59580114639E+01  0.40659155667E+02  0.00000000000E+00 0.  1.
         11    1    3    3    0    0 -0.29492077493E+01  0.21805261952E+02  0.46332748577E+01  0.22486318314E+02  0.51100000000E-03 0. -1.
        -11    1    3    3    0    0 -0.17234675247E+02  0.13676917984E+02 -0.62402978989E+01  0.22869924235E+02  0.51100000000E-03 0.  1.
         12    1    3    3    0    0 -0.20133867509E+01 -0.19419018391E+01 -0.43509884227E+01  0.51726017840E+01  0.00000000000E+00 0. -1.
</event>
<event>
 7    1  0.4962385E-011  0.5052886E+02  0.7816164E-02  0.1300439E+00
        -11   -1    0    0    0    0  0.00000000000E+00  0.00000000000E+00  0.45593999997E+02  0.45594000000E+02  0.51100000000E-03 0.  1.
         11   -1    0    0    0    0 -0.00000000000E+00 -0.00000000000E+00 -0.45593999997E+02  0.45594000000E+02  0.51100000000E-03 0. -1.
    9900012    2    1    2    0    0  0.28732949734E+02  0.18527745380E+02 -0.22006955579E+02  0.50528857816E+02  0.29999993817E+02 0.  0.
        -12    1    1    2    0    0 -0.28732949734E+02 -0.18527745380E+02  0.22006955579E+02  0.40659142184E+02  0.00000000000E+00 0.  1.
         11    1    3    3    0    0  0.23948503317E+02  0.16756800428E+02 -0.27691981836E+02  0.40263718532E+02  0.51100000000E-03 0. -1.
        -11    1    3    3    0    0  0.15133491954E+01 -0.25690581181E+01  0.11823297510E+01  0.32075207408E+01  0.51100000000E-03 0.  1.
         12    1    3    3    0    0  0.32710972212E+01  0.43400030699E+01  0.45026965062E+01  0.70576185434E+01  0.00000000000E+00 0. -1.
</event>
<event>
 7    1  0.4962385E-011  0.5052886E+02  0.7816164E-02  0.1300439E+00
        -11   -1    0    0    0    0  0.00000000000E+00  0.00000000000E+00  0.45593999997E+02  0.45594000000E+02  0.51100000000E-03 0.  1.
         11   -1    0    0    0    0 -0.00000000000E+00 -0.00000000000E+00 -0.45593999997E+02  0.45594000000E+02  0.51100000000E-03 0. -1.
    9900012    2    1    2    0    0 -0.19058220346E+02  0.69791170513E+00 -0.35909086855E+02  0.50528863730E+02  0.30000011793E+02 0.  0.
        -12    1    1    2    0    0  0.19058220346E+02 -0.69791170513E+00  0.35909086855E+02  0.40659136270E+02  0.00000000000E+00 0.  1.
         11    1    3    3    0    0  0.61551157240E+01  0.26598954258E+00 -0.10164870305E+02  0.11886159539E+02  0.51100000000E-03 0. -1.
        -11    1    3    3    0    0 -0.14699879565E+02  0.53892084684E+01 -0.84108604896E+01  0.17772805113E+02  0.51100000000E-03 0.  1.
        -12    1    3    3    0    0 -0.10513456506E+02 -0.49572863059E+01 -0.17333356060E+02  0.20869899077E+02  0.00000000000E+00 0.  1.
</event>
<event>
 7    1  0.4962385E-011  0.5052886E+02  0.7816164E-02  0.1300439E+00
        -11   -1    0    0    0    0  0.00000000000E+00  0.00000000000E+00  0.45593999997E+02  0.45594000000E+02  0.51100000000E-03 0. -1.
         11   -1    0    0    0    0 -0.00000000000E+00 -0.00000000000E+00 -0.45593999997E+02  0.45594000000E+02  0.51100000000E-03 0.  1.
    9900012    2    1    2    0    0 -0.30198670653E+02 -0.53154798768E+01  0.26701156244E+02  0.50528858589E+02  0.29999996168E+02 0.  0.
        -12    1    1    2    0    0  0.30198670653E+02  0.53154798768E+01 -0.26701156244E+02  0.40659141411E+02  0.00000000000E+00 0.  1.
         11    1    3    3    0    0 -0.12316357738E+01  0.40373517495E+01  0.22804004123E+01  0.47976413090E+01  0.51100000000E-03 0. -1.
        -11    1    3    3    0    0 -0.27835522700E+02 -0.71610985976E+01  0.90052599667E+01  0.30119634201E+02  0.51100000000E-03 0.  1.
        -12    1    3    3    0    0 -0.11315121795E+01 -0.21917330287E+01  0.15415495865E+02  0.15611583079E+02  0.00000000000E+00 0.  1.
</event>
<event>
 7    1  0.4962385E-011  0.5052883E+02  0.7816164E-02  0.1300439E+00
        -11   -1    0    0    0    0  0.00000000000E+00  0.00000000000E+00  0.45593999997E+02  0.45594000000E+02  0.51100000000E-03 0.  1.
         11   -1    0    0    0    0 -0.00000000000E+00 -0.00000000000E+00 -0.45593999997E+02  0.45594000000E+02  0.51100000000E-03 0. -1.
    9900012    2    1    2    0    0 -0.51060185127E+01  0.37975701024E+02  0.13599353444E+02  0.50528834891E+02  0.29999924133E+02 0.  0.
        -12    1    1    2    0    0  0.51060185127E+01 -0.37975701024E+02 -0.13599353444E+02  0.40659165109E+02  0.00000000000E+00 0.  1.
         11    1    3    3    0    0 -0.37376393104E+01  0.28867667591E+02  0.16640038980E+02  0.33529137736E+02  0.51100000000E-03 0. -1.
        -11    1    3    3    0    0  0.49945929774E+01  0.10798978465E+01 -0.43002028770E+01  0.66786138842E+01  0.51100000000E-03 0.  1.
         12    1    3    3    0    0 -0.63629721798E+01  0.80281355859E+01  0.12595173409E+01  0.10321083271E+02  0.00000000000E+00 0. -1.
</event>
<event>
 7    1  0.4962385E-011  0.5052886E+02  0.7816164E-02  0.1300439E+00
        -11   -1    0    0    0    0  0.00000000000E+00  0.00000000000E+00  0.45593999997E+02  0.45594000000E+02  0.51100000000E-03 0. -1.
         11   -1    0    0    0    0 -0.00000000000E+00 -0.00000000000E+00 -0.45593999997E+02  0.45594000000E+02  0.51100000000E-03 0.  1.
    9900012    2    1    2    0    0  0.24511890143E+02 -0.12860922282E+02  0.29781366345E+02  0.50528857588E+02  0.29999993124E+02 0.  0.
        -12    1    1    2    0    0 -0.24511890143E+02  0.12860922282E+02 -0.29781366345E+02  0.40659142412E+02  0.00000000000E+00 0.  1.
         11    1    3    3    0    0  0.68774446676E+01 -0.33270001455E+01  0.85343005327E+01  0.11454364276E+02  0.51100000000E-03 0. -1.
        -11    1    3    3    0    0  0.13336551425E+02 -0.16191782614E+02  0.58818436602E+01  0.21786085312E+02  0.51100000000E-03 0.  1.
        -12    1    3    3    0    0  0.42978940509E+01  0.66578604769E+01  0.15365222152E+02  0.17288408000E+02  0.00000000000E+00 0.  1.
</event>
<event>
 7    1  0.4962385E-011  0.5052886E+02  0.7816164E-02  0.1300439E+00
        -11   -1    0    0    0    0  0.00000000000E+00  0.00000000000E+00  0.45593999997E+02  0.45594000000E+02  0.51100000000E-03 0. -1.
         11   -1    0    0    0    0 -0.00000000000E+00 -0.00000000000E+00 -0.45593999997E+02  0.45594000000E+02  0.51100000000E-03 0.  1.
    9900012    2    1    2    0    0  0.37929459234E+02 -0.94257338376E+01  0.11210586577E+02  0.50528860959E+02  0.30000003372E+02 0.  0.
        -12    1    1    2    0    0 -0.37929459234E+02  0.94257338376E+01 -0.11210586577E+02  0.40659139041E+02  0.00000000000E+00 0.  1.
         11    1    3    3    0    0  0.32917410732E+02 -0.86963390929E+00  0.16709554484E+02  0.36925890696E+02  0.51100000000E-03 0. -1.
        -11    1    3    3    0    0  0.11335135395E+01 -0.74539472615E+01 -0.10727878681E+01  0.76155798723E+01  0.51100000000E-03 0.  1.
         12    1    3    3    0    0  0.38785349625E+01 -0.11021526668E+01 -0.44261800387E+01  0.59873903907E+01  0.00000000000E+00 0. -1.
</event>
<event>
 7    1  0.4962385E-011  0.5052886E+02  0.7816164E-02  0.1300439E+00
        -11   -1    0    0    0    0  0.00000000000E+00  0.00000000000E+00  0.45593999997E+02  0.45594000000E+02  0.51100000000E-03 0.  1.
         11   -1    0    0    0    0 -0.00000000000E+00 -0.00000000000E+00 -0.45593999997E+02  0.45594000000E+02  0.51100000000E-03 0. -1.
    9900012    2    1    2    0    0  0.19334044329E+01  0.25358674700E+02 -0.31723264322E+02  0.50528856693E+02  0.29999990404E+02 0.  0.
        -12    1    1    2    0    0 -0.19334044329E+01 -0.25358674700E+02  0.31723264322E+02  0.40659143307E+02  0.00000000000E+00 0.  1.
         11    1    3    3    0    0 -0.31945657123E+01  0.17943780670E+02 -0.75717410988E+01  0.19736154092E+02  0.51100000000E-03 0. -1.
        -11    1    3    3    0    0  0.13339616122E+01 -0.46442837720E+01 -0.13235856765E+02  0.14090306239E+02  0.51100000000E-03 0.  1.
        -12    1    3    3    0    0  0.37940085330E+01  0.12059177802E+02 -0.10915666458E+02  0.16702396362E+02  0.00000000000E+00 0.  1.
</event>
<event>
 7    1  0.4962385E-011  0.5052886E+02  0.7816164E-02  0.1300439E+00
        -11   -1    0    0    0    0  0.00000000000E+00  0.00000000000E+00  0.45593999997E+02  0.45594000000E+02  0.51100000000E-03 0.  1.
         11   -1    0    0    0    0 -0.00000000000E+00 -0.00000000000E+00 -0.45593999997E+02  0.45594000000E+02  0.51100000000E-03 0. -1.
    9900012    2    1    2    0    0 -0.39930477238E+02 -0.65657968077E+01  0.39513685283E+01  0.50528855722E+02  0.29999987451E+02 0.  0.
        -12    1    1    2    0    0  0.39930477238E+02  0.65657968077E+01 -0.39513685283E+01  0.40659144278E+02  0.00000000000E+00 0.  1.
         11    1    3    3    0    0 -0.16675284420E+02  0.70451948980E+01 -0.83667260408E+01  0.19942466913E+02  0.51100000000E-03 0. -1.
        -11    1    3    3    0    0 -0.22826395372E+02 -0.11025339822E+02  0.11537237044E+02  0.27851575947E+02  0.51100000000E-03 0.  1.
         12    1    3    3    0    0 -0.42879744551E+00 -0.25856518840E+01  0.78085752548E+00  0.27348128619E+01  0.00000000000E+00 0. -1.
</event>
<event>
 7    1  0.4962385E-011  0.5052884E+02  0.7816164E-02  0.1300439E+00
        -11   -1    0    0    0    0  0.00000000000E+00  0.00000000000E+00  0.45593999997E+02  0.45594000000E+02  0.51100000000E-03 0. -1.
         11   -1    0    0    0    0 -0.00000000000E+00 -0.00000000000E+00 -0.45593999997E+02  0.45594000000E+02  0.51100000000E-03 0.  1.
    9900012    2    1    2    0    0  0.90232706936E-01  0.11160045485E+02  0.39097471466E+02  0.50528843194E+02  0.29999949372E+02 0.  0.
        -12    1    1    2    0    0 -0.90232706936E-01 -0.11160045485E+02 -0.39097471466E+02  0.40659156806E+02  0.00000000000E+00 0.  1.
         11    1    3    3    0    0 -0.11181267809E+02  0.71164120361E+00  0.67038452011E+01  0.13056367173E+02  0.51100000000E-03 0. -1.
        -11    1    3    3    0    0  0.75793777515E+01  0.86065661482E+01  0.31102045103E+02  0.33149014432E+02  0.51100000000E-03 0.  1.
         12    1    3    3    0    0  0.36921227640E+01  0.18418381333E+01  0.12915811613E+01  0.43234615889E+01  0.00000000000E+00 0. -1.
</event>
<event>
 7    1  0.4962385E-011  0.5052888E+02  0.7816164E-02  0.1300439E+00
        -11   -1    0    0    0    0  0.00000000000E+00  0.00000000000E+00  0.45593999997E+02  0.45594000000E+02  0.51100000000E-03 0. -1.
         11   -1    0    0    0    0 -0.00000000000E+00 -0.00000000000E+00 -0.45593999997E+02  0.45594000000E+02  0.51100000000E-03 0.  1.
    9900012    2    1    2    0    0 -0.14476249876E+02  0.25561487977E+02  0.28110723077E+02  0.50528877653E+02  0.30000054115E+02 0.  0.
        -12    1    1    2    0    0  0.14476249876E+02 -0.25561487977E+02 -0.28110723077E+02  0.40659122347E+02  0.00000000000E+00 0.  1.
         11    1    3    3    0    0 -0.20806788653E+02  0.16461876841E+02  0.19774379164E+02  0.33089906540E+02  0.51100000000E-03 0. -1.
        -11    1    3    3    0    0  0.71812994807E+01  0.34522871472E+01  0.85973845718E+01  0.11721961035E+02  0.51100000000E-03 0.  1.
         12    1    3    3    0    0 -0.85076070308E+00  0.56473239889E+01 -0.26104065871E+00  0.57170100783E+01  0.00000000000E+00 0. -1.
</event>
<event>
 7    1  0.4962385E-011  0.5052883E+02  0.7816164E-02  0.1300439E+00
        -11   -1    0    0    0    0  0.00000000000E+00  0.00000000000E+00  0.45593999997E+02  0.45594000000E+02  0.51100000000E-03 0. -1.
         11   -1    0    0    0    0 -0.00000000000E+00 -0.00000000000E+00 -0.45593999997E+02  0.45594000000E+02  0.51100000000E-03 0.  1.
    9900012    2    1    2    0    0  0.31585600196E+02  0.25550194687E+02 -0.16448667559E+01  0.50528829141E+02  0.29999906657E+02 0.  0.
        -12    1    1    2    0    0 -0.31585600196E+02 -0.25550194687E+02  0.16448667559E+01  0.40659170859E+02  0.00000000000E+00 0.  1.
         11    1    3    3    0    0  0.11538400878E+02  0.44022475207E+01 -0.12806426455E+02  0.17790981898E+02  0.51100000000E-03 0. -1.
        -11    1    3    3    0    0  0.45658821534E+01  0.11337345364E+01 -0.76266312287E+00  0.47659510213E+01  0.51100000000E-03 0.  1.
         12    1    3    3    0    0  0.15481317165E+02  0.20014212630E+02  0.11924222822E+02  0.27971896222E+02  0.00000000000E+00 0. -1.
</event>
<event>
 7    1  0.4962385E-011  0.5052886E+02  0.7816164E-02  0.1300439E+00
        -11   -1    0    0    0    0  0.00000000000E+00  0.00000000000E+00  0.45593999997E+02  0.45594000000E+02  0.51100000000E-03 0.  1.
         11   -1    0    0    0    0 -0.00000000000E+00 -0.00000000000E+00 -0.45593999997E+02  0.45594000000E+02  0.51100000000E-03 0. -1.
    9900012    2    1    2    0    0 -0.29366762595E+02 -0.39676469388E+01 -0.27839127113E+02  0.50528856306E+02  0.29999989227E+02 0.  0.
        -12    1    1    2    0    0  0.29366762595E+02  0.39676469388E+01  0.27839127113E+02  0.40659143694E+02  0.00000000000E+00 0.  1.
         11    1    3    3    0    0  0.40352873418E+01  0.28524401317E+01 -0.64141286116E+01  0.80969750366E+01  0.51100000000E-03 0. -1.
        -11    1    3    3    0    0 -0.23654674143E+02 -0.10916685742E+02 -0.15186763701E+02  0.30155520695E+02  0.51100000000E-03 0.  1.
         12    1    3    3    0    0 -0.97473757937E+01  0.40965986710E+01 -0.62382347999E+01  0.12276360574E+02  0.00000000000E+00 0. -1.
</event>
<event>
 7    1  0.4962385E-011  0.5052886E+02  0.7816164E-02  0.1300439E+00
        -11   -1    0    0    0    0  0.00000000000E+00  0.00000000000E+00  0.45593999997E+02  0.45594000000E+02  0.51100000000E-03 0.  1.
         11   -1    0    0    0    0 -0.00000000000E+00 -0.00000000000E+00 -0.45593999997E+02  0.45594000000E+02  0.51100000000E-03 0. -1.
    9900012    2    1    2    0    0 -0.39591930115E+02  0.59059012474E+01  0.71249404900E+01  0.50528863551E+02  0.30000011249E+02 0.  0.
        -12    1    1    2    0    0  0.39591930115E+02 -0.59059012474E+01 -0.71249404900E+01  0.40659136449E+02  0.00000000000E+00 0.  1.
         11    1    3    3    0    0 -0.39435752075E+02  0.38001762128E+01 -0.34959725051E+00  0.39619970967E+02  0.51100000000E-03 0. -1.
        -11    1    3    3    0    0  0.19257138760E+01  0.24084163841E+01  0.81382725572E+01  0.87028916969E+01  0.51100000000E-03 0.  1.
        -12    1    3    3    0    0 -0.20818919168E+01 -0.30269134951E+00 -0.66373481672E+00  0.22060008869E+01  0.00000000000E+00 0.  1.
</event>
<event>
 7    1  0.4962385E-011  0.5052887E+02  0.7816164E-02  0.1300439E+00
        -11   -1    0    0    0    0  0.00000000000E+00  0.00000000000E+00  0.45593999997E+02  0.45594000000E+02  0.51100000000E-03 0.  1.
         11   -1    0    0    0    0 -0.00000000000E+00 -0.00000000000E+00 -0.45593999997E+02  0.45594000000E+02  0.51100000000E-03 0. -1.
    9900012    2    1    2    0    0  0.22825065836E+02 -0.42980322352E+01 -0.33372267250E+02  0.50528869009E+02  0.30000027841E+02 0.  0.
        -12    1    1    2    0    0 -0.22825065836E+02  0.42980322352E+01  0.33372267250E+02  0.40659130991E+02  0.00000000000E+00 0.  1.
         11    1    3    3    0    0  0.20853827472E+02 -0.11601176902E+01 -0.22954096027E+02  0.31034150833E+02  0.51100000000E-03 0. -1.
        -11    1    3    3    0    0 -0.42592665373E+01 -0.52536392670E+01 -0.10974673127E+02  0.12891296579E+02  0.51100000000E-03 0.  1.
         12    1    3    3    0    0  0.62305049013E+01  0.21157247221E+01  0.55650190314E+00  0.66034215974E+01  0.00000000000E+00 0. -1.
</event>
<event>
 7    1  0.4962385E-011  0.5052886E+02  0.7816164E-02  0.1300439E+00
        -11   -1    0    0    0    0  0.00000000000E+00  0.00000000000E+00  0.45593999997E+02  0.45594000000E+02  0.51100000000E-03 0.  1.
         11   -1    0    0    0    0 -0.00000000000E+00 -0.00000000000E+00 -0.45593999997E+02  0.45594000000E+02  0.51100000000E-03 0. -1.
    9900012    2    1    2    0    0 -0.19360077231E+01 -0.40082730363E+02 -0.65416047988E+01  0.50528855978E+02  0.29999988231E+02 0.  0.
        -12    1    1    2    0    0  0.19360077231E+01  0.40082730363E+02  0.65416047988E+01  0.40659144022E+02  0.00000000000E+00 0.  1.
         11    1    3    3    0    0  0.41397239989E+01 -0.64923694195E+01 -0.11812937957E+02  0.14100839652E+02  0.51100000000E-03 0. -1.
        -11    1    3    3    0    0 -0.83973435431E+01 -0.14789670066E+02  0.11834077537E+01  0.17048465427E+02  0.51100000000E-03 0.  1.
         12    1    3    3    0    0  0.23216118211E+01 -0.18800690878E+02  0.40879254044E+01  0.19379550899E+02  0.00000000000E+00 0. -1.
</event>
<event>
 7    1  0.4962385E-011  0.5052885E+02  0.7816164E-02  0.1300439E+00
        -11   -1    0    0    0    0  0.00000000000E+00  0.00000000000E+00  0.45593999997E+02  0.45594000000E+02  0.51100000000E-03 0.  1.
         11   -1    0    0    0    0 -0.00000000000E+00 -0.00000000000E+00 -0.45593999997E+02  0.45594000000E+02  0.51100000000E-03 0. -1.
    9900012    2    1    2    0    0  0.28699164932E+02  0.52316190132E+01 -0.28322329059E+02  0.50528853076E+02  0.29999979409E+02 0.  0.
        -12    1    1    2    0    0 -0.28699164932E+02 -0.52316190132E+01  0.28322329059E+02  0.40659146924E+02  0.00000000000E+00 0.  1.
         11    1    3    3    0    0  0.16691788872E+02 -0.87387826177E+00  0.48237465991E+00  0.16721607714E+02  0.51100000000E-03 0.  1.
        -11    1    3    3    0    0  0.44516622718E+01  0.78713487636E+01 -0.10098667740E+02  0.13555755926E+02  0.51100000000E-03 0. -1.
         12    1    3    3    0    0  0.75557137880E+01 -0.17658514886E+01 -0.18706035979E+02  0.20251489436E+02  0.00000000000E+00 0. -1.
</event>
<event>
 7    1  0.4962385E-011  0.5052886E+02  0.7816164E-02  0.1300439E+00
        -11   -1    0    0    0    0  0.00000000000E+00  0.00000000000E+00  0.45593999997E+02  0.45594000000E+02  0.51100000000E-03 0.  1.
         11   -1    0    0    0    0 -0.00000000000E+00 -0.00000000000E+00 -0.45593999997E+02  0.45594000000E+02  0.51100000000E-03 0. -1.
    9900012    2    1    2    0    0  0.35079023276E+02  0.15945030734E+02 -0.12976285438E+02  0.50528857574E+02  0.29999993081E+02 0.  0.
        -12    1    1    2    0    0 -0.35079023276E+02 -0.15945030734E+02  0.12976285438E+02  0.40659142426E+02  0.00000000000E+00 0.  1.
         11    1    3    3    0    0  0.28904827838E+02  0.33027266405E+01 -0.12137924547E+02  0.31523424436E+02  0.51100000000E-03 0. -1.
        -11    1    3    3    0    0 -0.72484038908E+00  0.46062740273E+01  0.50613237025E+01  0.68818712489E+01  0.51100000000E-03 0.  1.
        -12    1    3    3    0    0  0.68990358268E+01  0.80360300663E+01 -0.58996845935E+01  0.12123561889E+02  0.00000000000E+00 0.  1.
</event>
<event>
 7    1  0.4962385E-011  0.5052886E+02  0.7816164E-02  0.1300439E+00
        -11   -1    0    0    0    0  0.00000000000E+00  0.00000000000E+00  0.45593999997E+02  0.45594000000E+02  0.51100000000E-03 0.  1.
         11   -1    0    0    0    0 -0.00000000000E+00 -0.00000000000E+00 -0.45593999997E+02  0.45594000000E+02  0.51100000000E-03 0. -1.
    9900012    2    1    2    0    0 -0.15890652631E+02  0.17964951412E+02 -0.32831594625E+02  0.50528856798E+02  0.29999990724E+02 0.  0.
        -12    1    1    2    0    0  0.15890652631E+02 -0.17964951412E+02  0.32831594625E+02  0.40659143202E+02  0.00000000000E+00 0.  1.
         11    1    3    3    0    0 -0.10303157636E+02  0.19339656167E+02 -0.29053333931E+02  0.36390569804E+02  0.51100000000E-03 0. -1.
        -11    1    3    3    0    0 -0.31759758668E+01  0.81157365810E+00  0.43127135405E+01  0.54171000408E+01  0.51100000000E-03 0.  1.
         12    1    3    3    0    0 -0.24115191280E+01 -0.21862784131E+01 -0.80909742346E+01  0.87211869530E+01  0.00000000000E+00 0. -1.
</event>
<event>
 7    1  0.4962385E-011  0.5052886E+02  0.7816164E-02  0.1300439E+00
        -11   -1    0    0    0    0  0.00000000000E+00  0.00000000000E+00  0.45593999997E+02  0.45594000000E+02  0.51100000000E-03 0.  1.
         11   -1    0    0    0    0 -0.00000000000E+00 -0.00000000000E+00 -0.45593999997E+02  0.45594000000E+02  0.51100000000E-03 0. -1.
    9900012    2    1    2    0    0  0.28576873779E+02  0.37805526644E+01 -0.28674646012E+02  0.50528860593E+02  0.30000002258E+02 0.  0.
        -12    1    1    2    0    0 -0.28576873779E+02 -0.37805526644E+01  0.28674646012E+02  0.40659139407E+02  0.00000000000E+00 0.  1.
         11    1    3    3    0    0  0.75378500079E+01  0.25798669282E+00 -0.28106716621E+02  0.29101086910E+02  0.51100000000E-03 0. -1.
        -11    1    3    3    0    0  0.64513360610E+01  0.45988652269E+00  0.47835597930E+00  0.64853725637E+01  0.51100000000E-03 0.  1.
         12    1    3    3    0    0  0.14587687710E+02  0.30626794489E+01 -0.10462853705E+01  0.14942401119E+02  0.00000000000E+00 0. -1.
</event>
<event>
 7    1  0.4962385E-011  0.5052886E+02  0.7816164E-02  0.1300439E+00
        -11   -1    0    0    0    0  0.00000000000E+00  0.00000000000E+00  0.45593999997E+02  0.45594000000E+02  0.51100000000E-03 0. -1.
         11   -1    0    0    0    0 -0.00000000000E+00 -0.00000000000E+00 -0.45593999997E+02  0.45594000000E+02  0.51100000000E-03 0.  1.
    9900012    2    1    2    0    0  0.10700707690E+02  0.30072542828E+02 -0.25185361922E+02  0.50528862868E+02  0.30000009173E+02 0.  0.
        -12    1    1    2    0    0 -0.10700707690E+02 -0.30072542828E+02  0.25185361922E+02  0.40659137132E+02  0.00000000000E+00 0.  1.
         11    1    3    3    0    0  0.32042967927E+01  0.58935006800E+01 -0.13041724251E+02  0.14665859671E+02  0.51100000000E-03 0.  1.
        -11    1    3    3    0    0 -0.73319083354E+01  0.13389336415E+02 -0.38923057660E+01  0.15753769515E+02  0.51100000000E-03 0. -1.
         12    1    3    3    0    0  0.14828319233E+02  0.10789705733E+02 -0.82513319046E+01  0.20109233682E+02  0.00000000000E+00 0. -1.
</event>
<event>
 7    1  0.4962385E-011  0.5052886E+02  0.7816164E-02  0.1300439E+00
        -11   -1    0    0    0    0  0.00000000000E+00  0.00000000000E+00  0.45593999997E+02  0.45594000000E+02  0.51100000000E-03 0.  1.
         11   -1    0    0    0    0 -0.00000000000E+00 -0.00000000000E+00 -0.45593999997E+02  0.45594000000E+02  0.51100000000E-03 0. -1.
    9900012    2    1    2    0    0 -0.38970558080E+02 -0.10278180367E+02  0.53684569123E+01  0.50528859350E+02  0.29999998481E+02 0.  0.
        -12    1    1    2    0    0  0.38970558080E+02  0.10278180367E+02 -0.53684569123E+01  0.40659140650E+02  0.00000000000E+00 0.  1.
         11    1    3    3    0    0 -0.13841758968E+02 -0.26641951272E+01  0.16139190831E+02  0.21428152229E+02  0.51100000000E-03 0.  1.
        -11    1    3    3    0    0 -0.13158631342E+02 -0.29705402464E+01 -0.88120400166E+01  0.16112905935E+02  0.51100000000E-03 0. -1.
        -12    1    3    3    0    0 -0.11970167771E+02 -0.46434449933E+01 -0.19586939022E+01  0.12987801187E+02  0.00000000000E+00 0.  1.
</event>
<event>
 7    1  0.4962385E-011  0.5052886E+02  0.7816164E-02  0.1300439E+00
        -11   -1    0    0    0    0  0.00000000000E+00  0.00000000000E+00  0.45593999997E+02  0.45594000000E+02  0.51100000000E-03 0. -1.
         11   -1    0    0    0    0 -0.00000000000E+00 -0.00000000000E+00 -0.45593999997E+02  0.45594000000E+02  0.51100000000E-03 0.  1.
    9900012    2    1    2    0    0 -0.79048795529E+01 -0.22670506845E+02  0.32813511696E+02  0.50528861406E+02  0.30000004729E+02 0.  0.
        -12    1    1    2    0    0  0.79048795529E+01  0.22670506845E+02 -0.32813511696E+02  0.40659138594E+02  0.00000000000E+00 0.  1.
         11    1    3    3    0    0 -0.12006927821E+02 -0.23153450283E+02  0.14944362264E+02  0.30059649689E+02  0.51100000000E-03 0. -1.
        -11    1    3    3    0    0 -0.70132036134E+00 -0.75972163776E+00  0.14348014544E+02  0.14385219805E+02  0.51100000000E-03 0.  1.
         12    1    3    3    0    0  0.48033686290E+01  0.12426650760E+01  0.35211348887E+01  0.60839919117E+01  0.00000000000E+00 0. -1.
</event>
<event>
 7    1  0.4962385E-011  0.5052886E+02  0.7816164E-02  0.1300439E+00
        -11   -1    0    0    0    0  0.00000000000E+00  0.00000000000E+00  0.45593999997E+02  0.45594000000E+02  0.51100000000E-03 0.  1.
         11   -1    0    0    0    0 -0.00000000000E+00 -0.00000000000E+00 -0.45593999997E+02  0.45594000000E+02  0.51100000000E-03 0. -1.
    9900012    2    1    2    0    0 -0.68009628303E+01  0.28127738148E+02 -0.28561219932E+02  0.50528855484E+02  0.29999986730E+02 0.  0.
        -12    1    1    2    0    0  0.68009628303E+01 -0.28127738148E+02  0.28561219932E+02  0.40659144516E+02  0.00000000000E+00 0.  1.
         11    1    3    3    0    0 -0.41226873591E+01  0.22911022347E+02 -0.23539367264E+02  0.33106091698E+02  0.51100000000E-03 0. -1.
        -11    1    3    3    0    0 -0.12575162787E+01 -0.49104601425E+01 -0.51077589512E+01  0.71960522349E+01  0.51100000000E-03 0.  1.
         12    1    3    3    0    0 -0.14207591925E+01  0.10127175943E+02  0.85906282828E-01  0.10226711552E+02  0.00000000000E+00 0. -1.
</event>
<event>
 7    1  0.4962385E-011  0.5052886E+02  0.7816164E-02  0.1300439E+00
        -11   -1    0    0    0    0  0.00000000000E+00  0.00000000000E+00  0.45593999997E+02  0.45594000000E+02  0.51100000000E-03 0.  1.
         11   -1    0    0    0    0 -0.00000000000E+00 -0.00000000000E+00 -0.45593999997E+02  0.45594000000E+02  0.51100000000E-03 0. -1.
    9900012    2    1    2    0    0 -0.26726814110E+02 -0.25292746221E+01 -0.30535973321E+02  0.50528862168E+02  0.30000007046E+02 0.  0.
        -12    1    1    2    0    0  0.26726814110E+02  0.25292746221E+01  0.30535973321E+02  0.40659137832E+02  0.00000000000E+00 0.  1.
         11    1    3    3    0    0 -0.76324165989E+01 -0.97134381967E+01 -0.91443816133E+01  0.15369592711E+02  0.51100000000E-03 0. -1.
        -11    1    3    3    0    0  0.17990480437E+01  0.62294635492E+01 -0.24180587743E+01  0.69202455499E+01  0.51100000000E-03 0.  1.
        -12    1    3    3    0    0 -0.20893445555E+02  0.95470002542E+00 -0.18973532933E+02  0.28239023908E+02  0.00000000000E+00 0.  1.
</event>
<event>
 7    1  0.4962385E-011  0.5052885E+02  0.7816164E-02  0.1300439E+00
        -11   -1    0    0    0    0  0.00000000000E+00  0.00000000000E+00  0.45593999997E+02  0.45594000000E+02  0.51100000000E-03 0.  1.
         11   -1    0    0    0    0 -0.00000000000E+00 -0.00000000000E+00 -0.45593999997E+02  0.45594000000E+02  0.51100000000E-03 0. -1.
    9900012    2    1    2    0    0  0.25382728104E+02 -0.24242885163E+02  0.20522328098E+02  0.50528851981E+02  0.29999976082E+02 0.  0.
        -12    1    1    2    0    0 -0.25382728104E+02  0.24242885163E+02 -0.20522328098E+02  0.40659148019E+02  0.00000000000E+00 0.  1.
         11    1    3    3    0    0 -0.58334434730E+01 -0.41366921778E+01  0.39822172397E+01  0.81853124150E+01  0.51100000000E-03 0. -1.
        -11    1    3    3    0    0  0.17014592366E+02 -0.57882785625E+01  0.12181210528E+02  0.21711342941E+02  0.51100000000E-03 0.  1.
         12    1    3    3    0    0  0.14201579211E+02 -0.14317914423E+02  0.43589003307E+01  0.20632196626E+02  0.00000000000E+00 0. -1.
</event>
<event>
 7    1  0.4962385E-011  0.5052886E+02  0.7816164E-02  0.1300439E+00
        -11   -1    0    0    0    0  0.00000000000E+00  0.00000000000E+00  0.45593999997E+02  0.45594000000E+02  0.51100000000E-03 0. -1.
         11   -1    0    0    0    0 -0.00000000000E+00 -0.00000000000E+00 -0.45593999997E+02  0.45594000000E+02  0.51100000000E-03 0.  1.
    9900012    2    1    2    0    0 -0.28056262887E+02 -0.26988045861E+02  0.11732733397E+02  0.50528861550E+02  0.30000005166E+02 0.  0.
        -12    1    1    2    0    0  0.28056262887E+02  0.26988045861E+02 -0.11732733397E+02  0.40659138450E+02  0.00000000000E+00 0.  1.
         11    1    3    3    0    0 -0.48211838680E+01  0.55869117951E+01  0.27381895123E+01  0.78711548938E+01  0.51100000000E-03 0.  1.
        -11    1    3    3    0    0 -0.21380327034E+02 -0.24978580087E+02  0.10845940132E+02  0.34621991059E+02  0.51100000000E-03 0. -1.
        -12    1    3    3    0    0 -0.18547519841E+01 -0.75963775690E+01 -0.18513962469E+01  0.80357155971E+01  0.00000000000E+00 0.  1.
</event>
<event>
 7    1  0.4962385E-011  0.5052886E+02  0.7816164E-02  0.1300439E+00
        -11   -1    0    0    0    0  0.00000000000E+00  0.00000000000E+00  0.45593999997E+02  0.45594000000E+02  0.51100000000E-03 0.  1.
         11   -1    0    0    0    0 -0.00000000000E+00 -0.00000000000E+00 -0.45593999997E+02  0.45594000000E+02  0.51100000000E-03 0. -1.
    9900012    2    1    2    0    0 -0.35057870812E+02 -0.16729851401E+02 -0.12009298908E+02  0.50528862109E+02  0.30000006866E+02 0.  0.
        -12    1    1    2    0    0  0.35057870812E+02  0.16729851401E+02  0.12009298908E+02  0.40659137891E+02  0.00000000000E+00 0.  1.
         11    1    3    3    0    0 -0.28902466125E+01 -0.10666040698E+02  0.47441172461E+01  0.12025996772E+02  0.51100000000E-03 0. -1.
        -11    1    3    3    0    0 -0.22983409052E+02 -0.73685907501E+01 -0.16474397174E+02  0.29222234408E+02  0.51100000000E-03 0.  1.
        -12    1    3    3    0    0 -0.91842151474E+01  0.13047800471E+01 -0.27901898056E+00  0.92806309288E+01  0.00000000000E+00 0.  1.
</event>
<event>
 7    1  0.4962385E-011  0.5052882E+02  0.7816164E-02  0.1300439E+00
        -11   -1    0    0    0    0  0.00000000000E+00  0.00000000000E+00  0.45593999997E+02  0.45594000000E+02  0.51100000000E-03 0. -1.
         11   -1    0    0    0    0 -0.00000000000E+00 -0.00000000000E+00 -0.45593999997E+02  0.45594000000E+02  0.51100000000E-03 0.  1.
    9900012    2    1    2    0    0 -0.76429078286E+01 -0.28796651309E+01  0.39830417565E+02  0.50528822995E+02  0.29999887975E+02 0.  0.
        -12    1    1    2    0    0  0.76429078286E+01  0.28796651309E+01 -0.39830417565E+02  0.40659177005E+02  0.00000000000E+00 0.  1.
         11    1    3    3    0    0 -0.18299270983E+01  0.12340902026E+02  0.17514341900E+02  0.21503457128E+02  0.51100000000E-03 0. -1.
        -11    1    3    3    0    0 -0.45718775681E+01 -0.15948425738E+02  0.21996046765E+02  0.27551414148E+02  0.51100000000E-03 0.  1.
        -12    1    3    3    0    0 -0.12411031622E+01  0.72785858066E+00  0.32002889959E+00  0.14739517188E+01  0.00000000000E+00 0.  1.
</event>
<event>
 7    1  0.4962385E-011  0.5052884E+02  0.7816164E-02  0.1300439E+00
        -11   -1    0    0    0    0  0.00000000000E+00  0.00000000000E+00  0.45593999997E+02  0.45594000000E+02  0.51100000000E-03 0.  1.
         11   -1    0    0    0    0 -0.00000000000E+00 -0.00000000000E+00 -0.45593999997E+02  0.45594000000E+02  0.51100000000E-03 0. -1.
    9900012    2    1    2    0    0 -0.73742975408E+01  0.15101439543E+02 -0.37023415400E+02  0.50528843241E+02  0.29999949515E+02 0.  0.
        -12    1    1    2    0    0  0.73742975408E+01 -0.15101439543E+02  0.37023415400E+02  0.40659156759E+02  0.00000000000E+00 0.  1.
         11    1    3    3    0    0 -0.13887019057E+01 -0.27867984495E+00 -0.23966627330E+02  0.24008443958E+02  0.51100000000E-03 0. -1.
        -11    1    3    3    0    0  0.30439225095E+01  0.10887723110E+02 -0.18704184009E+01  0.11458902391E+02  0.51100000000E-03 0.  1.
         12    1    3    3    0    0 -0.90295181445E+01  0.44923962781E+01 -0.11186369669E+02  0.15061496892E+02  0.00000000000E+00 0. -1.
</event>
<event>
 7    1  0.4962385E-011  0.5052886E+02  0.7816164E-02  0.1300439E+00
        -11   -1    0    0    0    0  0.00000000000E+00  0.00000000000E+00  0.45593999997E+02  0.45594000000E+02  0.51100000000E-03 0. -1.
         11   -1    0    0    0    0 -0.00000000000E+00 -0.00000000000E+00 -0.45593999997E+02  0.45594000000E+02  0.51100000000E-03 0.  1.
    9900012    2    1    2    0    0  0.28135312336E+02 -0.29341340162E+02  0.80985084862E+00  0.50528857102E+02  0.29999991649E+02 0.  0.
        -12    1    1    2    0    0 -0.28135312336E+02  0.29341340162E+02 -0.80985084862E+00  0.40659142898E+02  0.00000000000E+00 0.  1.
         11    1    3    3    0    0  0.19877080521E+02 -0.10760759157E+02 -0.43587669525E+01  0.23019363963E+02  0.51100000000E-03 0. -1.
        -11    1    3    3    0    0 -0.48987844419E+00 -0.14600278703E+02 -0.29796045134E+01  0.14909264315E+02  0.51100000000E-03 0.  1.
         12    1    3    3    0    0  0.87481102597E+01 -0.39803023018E+01  0.81482223145E+01  0.12600228824E+02  0.00000000000E+00 0. -1.
</event>
<event>
 7    1  0.4962385E-011  0.5052887E+02  0.7816164E-02  0.1300439E+00
        -11   -1    0    0    0    0  0.00000000000E+00  0.00000000000E+00  0.45593999997E+02  0.45594000000E+02  0.51100000000E-03 0. -1.
         11   -1    0    0    0    0 -0.00000000000E+00 -0.00000000000E+00 -0.45593999997E+02  0.45594000000E+02  0.51100000000E-03 0.  1.
    9900012    2    1    2    0    0 -0.36970752067E+02 -0.89611983215E+01  0.14353594107E+02  0.50528865140E+02  0.30000016081E+02 0.  0.
        -12    1    1    2    0    0  0.36970752067E+02  0.89611983215E+01 -0.14353594107E+02  0.40659134860E+02  0.00000000000E+00 0.  1.
         11    1    3    3    0    0 -0.78830891829E+01 -0.26819749958E+00  0.14122816872E+02  0.16176185633E+02  0.51100000000E-03 0. -1.
        -11    1    3    3    0    0 -0.18642259102E+01  0.25171534525E+01 -0.34759621147E+01  0.46790717703E+01  0.51100000000E-03 0.  1.
         12    1    3    3    0    0 -0.27223436974E+02 -0.11210154274E+02  0.37067393491E+01  0.29673607737E+02  0.00000000000E+00 0. -1.
</event>
<event>
 7    1  0.4962385E-011  0.5052885E+02  0.7816164E-02  0.1300439E+00
        -11   -1    0    0    0    0  0.00000000000E+00  0.00000000000E+00  0.45593999997E+02  0.45594000000E+02  0.51100000000E-03 0.  1.
         11   -1    0    0    0    0 -0.00000000000E+00 -0.00000000000E+00 -0.45593999997E+02  0.45594000000E+02  0.51100000000E-03 0. -1.
    9900012    2    1    2    0    0 -0.30800784823E+02 -0.22880646920E+02 -0.13451916108E+02  0.50528851015E+02  0.29999973147E+02 0.  0.
        -12    1    1    2    0    0  0.30800784823E+02  0.22880646920E+02  0.13451916108E+02  0.40659148985E+02  0.00000000000E+00 0.  1.
         11    1    3    3    0    0 -0.79263161355E+01  0.40919192341E+01 -0.49180514209E+01  0.10186143556E+02  0.51100000000E-03 0. -1.
        -11    1    3    3    0    0 -0.11341638787E+02 -0.25324801230E+02 -0.52736090310E+01  0.28245163837E+02  0.51100000000E-03 0.  1.
         12    1    3    3    0    0 -0.11532829900E+02 -0.16477649238E+01 -0.32602556559E+01  0.12097543622E+02  0.00000000000E+00 0. -1.
</event>
<event>
 7    1  0.4962385E-011  0.5052886E+02  0.7816164E-02  0.1300439E+00
        -11   -1    0    0    0    0  0.00000000000E+00  0.00000000000E+00  0.45593999997E+02  0.45594000000E+02  0.51100000000E-03 0.  1.
         11   -1    0    0    0    0 -0.00000000000E+00 -0.00000000000E+00 -0.45593999997E+02  0.45594000000E+02  0.51100000000E-03 0. -1.
    9900012    2    1    2    0    0 -0.30173742870E+02  0.18754056175E+02 -0.19773635403E+02  0.50528855409E+02  0.29999986500E+02 0.  0.
        -12    1    1    2    0    0  0.30173742870E+02 -0.18754056175E+02  0.19773635403E+02  0.40659144591E+02  0.00000000000E+00 0.  1.
         11    1    3    3    0    0 -0.25054021216E+02  0.23736381922E+02 -0.16502884048E+02  0.38255260919E+02  0.51100000000E-03 0. -1.
        -11    1    3    3    0    0 -0.29241416528E+01 -0.30380320253E+01  0.31177482059E+01  0.52441011745E+01  0.51100000000E-03 0.  1.
         12    1    3    3    0    0 -0.21955800017E+01 -0.19442937217E+01 -0.63884995611E+01  0.70294933147E+01  0.00000000000E+00 0. -1.
</event>
<event>
 7    1  0.4962385E-011  0.5052886E+02  0.7816164E-02  0.1300439E+00
        -11   -1    0    0    0    0  0.00000000000E+00  0.00000000000E+00  0.45593999997E+02  0.45594000000E+02  0.51100000000E-03 0.  1.
         11   -1    0    0    0    0 -0.00000000000E+00 -0.00000000000E+00 -0.45593999997E+02  0.45594000000E+02  0.51100000000E-03 0. -1.
    9900012    2    1    2    0    0 -0.32879749699E+02 -0.22483334619E+02 -0.81601329604E+01  0.50528855324E+02  0.29999986243E+02 0.  0.
        -12    1    1    2    0    0  0.32879749699E+02  0.22483334619E+02  0.81601329604E+01  0.40659144676E+02  0.00000000000E+00 0.  1.
         11    1    3    3    0    0 -0.27129738456E+02 -0.89590996604E+01  0.84614235080E-01  0.28570882647E+02  0.51100000000E-03 0. -1.
        -11    1    3    3    0    0 -0.52378134220E+01 -0.16305651779E+02 -0.84975591097E+01  0.19118511460E+02  0.51100000000E-03 0.  1.
        -12    1    3    3    0    0 -0.51219782113E+00  0.27814168202E+01  0.25281191422E+00  0.28394612164E+01  0.00000000000E+00 0.  1.
</event>
<event>
 7    1  0.4962385E-011  0.5052886E+02  0.7816164E-02  0.1300439E+00
        -11   -1    0    0    0    0  0.00000000000E+00  0.00000000000E+00  0.45593999997E+02  0.45594000000E+02  0.51100000000E-03 0. -1.
         11   -1    0    0    0    0 -0.00000000000E+00 -0.00000000000E+00 -0.45593999997E+02  0.45594000000E+02  0.51100000000E-03 0.  1.
    9900012    2    1    2    0    0 -0.29953437012E+01 -0.20473403715E+02  0.35000478609E+02  0.50528857776E+02  0.29999993695E+02 0.  0.
        -12    1    1    2    0    0  0.29953437012E+01  0.20473403715E+02 -0.35000478609E+02  0.40659142224E+02  0.00000000000E+00 0.  1.
         11    1    3    3    0    0 -0.84932254466E+01 -0.81587178142E+01  0.20687074245E+02  0.23804507891E+02  0.51100000000E-03 0. -1.
        -11    1    3    3    0    0  0.82962746782E+01 -0.59934799300E+01 -0.63547077494E+00  0.10254452622E+02  0.51100000000E-03 0.  1.
        -12    1    3    3    0    0 -0.27983929329E+01 -0.63212059712E+01  0.14948875138E+02  0.16469897263E+02  0.00000000000E+00 0.  1.
</event>
<event>
 7    1  0.4962385E-011  0.5052899E+02  0.7816164E-02  0.1300438E+00
        -11   -1    0    0    0    0  0.00000000000E+00  0.00000000000E+00  0.45593999997E+02  0.45594000000E+02  0.51100000000E-03 0. -1.
         11   -1    0    0    0    0 -0.00000000000E+00 -0.00000000000E+00 -0.45593999997E+02  0.45594000000E+02  0.51100000000E-03 0.  1.
    9900012    2    1    2    0    0 -0.10935762988E+01 -0.39272255626E+02  0.10471335615E+02  0.50528993118E+02  0.30000405078E+02 0.  0.
        -12    1    1    2    0    0  0.10935762988E+01  0.39272255626E+02 -0.10471335615E+02  0.40659006882E+02  0.00000000000E+00 0.  1.
         11    1    3    3    0    0  0.14965102839E+00 -0.75982457422E+01  0.11519688504E+02  0.13800686841E+02  0.51100000000E-03 0. -1.
        -11    1    3    3    0    0 -0.47589056828E+01 -0.93856391348E+01 -0.78870641649E+01  0.13150786542E+02  0.51100000000E-03 0.  1.
        -12    1    3    3    0    0  0.35156783556E+01 -0.22288370749E+02  0.68387112759E+01  0.23577519735E+02  0.00000000000E+00 0.  1.
</event>
<event>
 7    1  0.4962385E-011  0.5052886E+02  0.7816164E-02  0.1300439E+00
        -11   -1    0    0    0    0  0.00000000000E+00  0.00000000000E+00  0.45593999997E+02  0.45594000000E+02  0.51100000000E-03 0. -1.
         11   -1    0    0    0    0 -0.00000000000E+00 -0.00000000000E+00 -0.45593999997E+02  0.45594000000E+02  0.51100000000E-03 0.  1.
    9900012    2    1    2    0    0  0.94669155729E+01 -0.38592131120E+02  0.86133882948E+01  0.50528861633E+02  0.30000005419E+02 0.  0.
        -12    1    1    2    0    0 -0.94669155729E+01  0.38592131120E+02 -0.86133882948E+01  0.40659138367E+02  0.00000000000E+00 0.  1.
         11    1    3    3    0    0  0.18082608330E+01 -0.25957491079E+02  0.70543798616E+01  0.26959700032E+02  0.51100000000E-03 0. -1.
        -11    1    3    3    0    0  0.13609318872E+02 -0.95520455110E+01 -0.24556226621E+00  0.16628753251E+02  0.51100000000E-03 0.  1.
        -12    1    3    3    0    0 -0.59506641318E+01 -0.30825945303E+01  0.18045706995E+01  0.69404083495E+01  0.00000000000E+00 0.  1.
</event>
<event>
 7    1  0.4962385E-011  0.5052887E+02  0.7816164E-02  0.1300439E+00
        -11   -1    0    0    0    0  0.00000000000E+00  0.00000000000E+00  0.45593999997E+02  0.45594000000E+02  0.51100000000E-03 0.  1.
         11   -1    0    0    0    0 -0.00000000000E+00 -0.00000000000E+00 -0.45593999997E+02  0.45594000000E+02  0.51100000000E-03 0. -1.
    9900012    2    1    2    0    0  0.97389268382E+01 -0.11538019443E+02 -0.37751717457E+02  0.50528871141E+02  0.30000034320E+02 0.  0.
        -12    1    1    2    0    0 -0.97389268382E+01  0.11538019443E+02  0.37751717457E+02  0.40659128859E+02  0.00000000000E+00 0.  1.
         11    1    3    3    0    0  0.62528048172E+01  0.33561213179E+01 -0.13437785200E+02  0.15196551903E+02  0.51100000000E-03 0. -1.
        -11    1    3    3    0    0 -0.47448761915E+01 -0.13367958300E+02 -0.22759230440E+02  0.26817880782E+02  0.51100000000E-03 0.  1.
        -12    1    3    3    0    0  0.82309982125E+01 -0.15261824604E+01 -0.15547018172E+01  0.85144384557E+01  0.00000000000E+00 0.  1.
</event>
<event>
 7    1  0.4962385E-011  0.5052886E+02  0.7816164E-02  0.1300439E+00
        -11   -1    0    0    0    0  0.00000000000E+00  0.00000000000E+00  0.45593999997E+02  0.45594000000E+02  0.51100000000E-03 0. -1.
         11   -1    0    0    0    0 -0.00000000000E+00 -0.00000000000E+00 -0.45593999997E+02  0.45594000000E+02  0.51100000000E-03 0.  1.
    9900012    2    1    2    0    0 -0.35144723623E+02 -0.19413729286E+02 -0.64125942894E+01  0.50528857746E+02  0.29999993605E+02 0.  0.
        -12    1    1    2    0    0  0.35144723623E+02  0.19413729286E+02  0.64125942894E+01  0.40659142254E+02  0.00000000000E+00 0.  1.
         11    1    3    3    0    0 -0.12061182335E+02 -0.23228355155E+02 -0.72571064946E+00  0.26183110181E+02  0.51100000000E-03 0. -1.
        -11    1    3    3    0    0 -0.14364450454E+02  0.18043904791E+01 -0.17950779738E+01  0.14588199581E+02  0.51100000000E-03 0.  1.
         12    1    3    3    0    0 -0.87190908348E+01  0.20102353907E+01 -0.38918056662E+01  0.97575479837E+01  0.00000000000E+00 0. -1.
</event>
<event>
 7    1  0.4962385E-011  0.5052887E+02  0.7816164E-02  0.1300439E+00
        -11   -1    0    0    0    0  0.00000000000E+00  0.00000000000E+00  0.45593999997E+02  0.45594000000E+02  0.51100000000E-03 0.  1.
         11   -1    0    0    0    0 -0.00000000000E+00 -0.00000000000E+00 -0.45593999997E+02  0.45594000000E+02  0.51100000000E-03 0. -1.
    9900012    2    1    2    0    0 -0.23910795874E+02 -0.30416078414E+02 -0.12502021130E+02  0.50528874115E+02  0.30000043359E+02 0.  0.
        -12    1    1    2    0    0  0.23910795874E+02  0.30416078414E+02  0.12502021130E+02  0.40659125885E+02  0.00000000000E+00 0.  1.
         11    1    3    3    0    0 -0.67120732954E+01  0.16422100000E+01  0.27584334998E+01  0.74402780352E+01  0.51100000000E-03 0. -1.
        -11    1    3    3    0    0 -0.15770451594E+01 -0.21159449096E+02 -0.88669154162E+01  0.22996337681E+02  0.51100000000E-03 0.  1.
         12    1    3    3    0    0 -0.15621677419E+02 -0.10898839319E+02 -0.63935392134E+01  0.20092258399E+02  0.00000000000E+00 0. -1.
</event>
<event>
 7    1  0.4962385E-011  0.5052891E+02  0.7816164E-02  0.1300439E+00
        -11   -1    0    0    0    0  0.00000000000E+00  0.00000000000E+00  0.45593999997E+02  0.45594000000E+02  0.51100000000E-03 0. -1.
         11   -1    0    0    0    0 -0.00000000000E+00 -0.00000000000E+00 -0.45593999997E+02  0.45594000000E+02  0.51100000000E-03 0.  1.
    9900012    2    1    2    0    0  0.38688264364E+02 -0.34775716629E+01  0.12011908058E+02  0.50528914430E+02  0.30000165902E+02 0.  0.
        -12    1    1    2    0    0 -0.38688264364E+02  0.34775716629E+01 -0.12011908058E+02  0.40659085570E+02  0.00000000000E+00 0.  1.
         11    1    3    3    0    0  0.29352383077E+02  0.58599344786E+01  0.62609791423E+00  0.29938156644E+02  0.51100000000E-03 0. -1.
        -11    1    3    3    0    0  0.20366961578E+01  0.17234369036E+00  0.78212218644E+01  0.80838941915E+01  0.51100000000E-03 0.  1.
         12    1    3    3    0    0  0.72991851288E+01 -0.95098498319E+01  0.35645882799E+01  0.12506863595E+02  0.00000000000E+00 0. -1.
</event>
<event>
 7    1  0.4962385E-011  0.5052886E+02  0.7816164E-02  0.1300439E+00
        -11   -1    0    0    0    0  0.00000000000E+00  0.00000000000E+00  0.45593999997E+02  0.45594000000E+02  0.51100000000E-03 0.  1.
         11   -1    0    0    0    0 -0.00000000000E+00 -0.00000000000E+00 -0.45593999997E+02  0.45594000000E+02  0.51100000000E-03 0. -1.
    9900012    2    1    2    0    0  0.22308233051E+02  0.33953244463E+02  0.16388033308E+01  0.50528858989E+02  0.29999997383E+02 0.  0.
        -12    1    1    2    0    0 -0.22308233051E+02 -0.33953244463E+02 -0.16388033308E+01  0.40659141011E+02  0.00000000000E+00 0.  1.
         11    1    3    3    0    0  0.90603221469E+01  0.25885769742E+02  0.26241514997E+01  0.27550838171E+02  0.51100000000E-03 0. -1.
        -11    1    3    3    0    0  0.93653257693E+01  0.41797788985E+01  0.76140797495E+01  0.12773178504E+02  0.51100000000E-03 0.  1.
         12    1    3    3    0    0  0.38825851345E+01  0.38876958219E+01 -0.85994279183E+01  0.10204842314E+02  0.00000000000E+00 0. -1.
</event>
<event>
 7    1  0.4962385E-011  0.5052887E+02  0.7816164E-02  0.1300439E+00
        -11   -1    0    0    0    0  0.00000000000E+00  0.00000000000E+00  0.45593999997E+02  0.45594000000E+02  0.51100000000E-03 0.  1.
         11   -1    0    0    0    0 -0.00000000000E+00 -0.00000000000E+00 -0.45593999997E+02  0.45594000000E+02  0.51100000000E-03 0. -1.
    9900012    2    1    2    0    0  0.37326197996E+02  0.47905644775E+01 -0.15393847744E+02  0.50528866792E+02  0.30000021101E+02 0.  0.
        -12    1    1    2    0    0 -0.37326197996E+02 -0.47905644775E+01  0.15393847744E+02  0.40659133208E+02  0.00000000000E+00 0.  1.
         11    1    3    3    0    0  0.35159170755E+02 -0.11424892519E+01 -0.12005836382E+02  0.37170050812E+02  0.51100000000E-03 0. -1.
        -11    1    3    3    0    0  0.47982253269E+01  0.60787971126E+01  0.14224032047E+01  0.78738790797E+01  0.51100000000E-03 0.  1.
         12    1    3    3    0    0 -0.26311980854E+01 -0.14574338323E+00 -0.48104145669E+01  0.54849369006E+01  0.00000000000E+00 0. -1.
</event>
<event>
 7    1  0.4962385E-011  0.5052886E+02  0.7816164E-02  0.1300439E+00
        -11   -1    0    0    0    0  0.00000000000E+00  0.00000000000E+00  0.45593999997E+02  0.45594000000E+02  0.51100000000E-03 0. -1.
         11   -1    0    0    0    0 -0.00000000000E+00 -0.00000000000E+00 -0.45593999997E+02  0.45594000000E+02  0.51100000000E-03 0.  1.
    9900012    2    1    2    0    0 -0.24891991347E+02 -0.16504930852E+02 -0.27588792528E+02  0.50528862665E+02  0.30000008557E+02 0.  0.
        -12    1    1    2    0    0  0.24891991347E+02  0.16504930852E+02  0.27588792528E+02  0.40659137335E+02  0.00000000000E+00 0.  1.
         11    1    3    3    0    0  0.40150926228E+00  0.51346562503E+01 -0.13063632670E+02  0.14042236406E+02  0.51100000000E-03 0. -1.
        -11    1    3    3    0    0 -0.96413942248E+01 -0.10292105557E+02 -0.52997864211E+01  0.15065578507E+02  0.51100000000E-03 0.  1.
         12    1    3    3    0    0 -0.15652106385E+02 -0.11347481546E+02 -0.92253734370E+01  0.21421047752E+02  0.00000000000E+00 0. -1.
</event>
<event>
 7    1  0.4962385E-011  0.5052886E+02  0.7816164E-02  0.1300439E+00
        -11   -1    0    0    0    0  0.00000000000E+00  0.00000000000E+00  0.45593999997E+02  0.45594000000E+02  0.51100000000E-03 0. -1.
         11   -1    0    0    0    0 -0.00000000000E+00 -0.00000000000E+00 -0.45593999997E+02  0.45594000000E+02  0.51100000000E-03 0.  1.
    9900012    2    1    2    0    0  0.21399696417E+02 -0.22147068325E+02  0.26546668939E+02  0.50528864816E+02  0.30000015094E+02 0.  0.
        -12    1    1    2    0    0 -0.21399696417E+02  0.22147068325E+02 -0.26546668939E+02  0.40659135184E+02  0.00000000000E+00 0.  1.
         11    1    3    3    0    0  0.14573526142E+02 -0.23298185790E+02  0.92708175054E+01  0.29002434084E+02  0.51100000000E-03 0. -1.
        -11    1    3    3    0    0 -0.89282701324E+00  0.42057577952E+01  0.40220949232E+01  0.58875110650E+01  0.51100000000E-03 0.  1.
         12    1    3    3    0    0  0.77189972887E+01 -0.30546403301E+01  0.13253756511E+02  0.15638919667E+02  0.00000000000E+00 0. -1.
</event>
<event>
 7    1  0.4962385E-011  0.5052886E+02  0.7816164E-02  0.1300439E+00
        -11   -1    0    0    0    0  0.00000000000E+00  0.00000000000E+00  0.45593999997E+02  0.45594000000E+02  0.51100000000E-03 0.  1.
         11   -1    0    0    0    0 -0.00000000000E+00 -0.00000000000E+00 -0.45593999997E+02  0.45594000000E+02  0.51100000000E-03 0. -1.
    9900012    2    1    2    0    0  0.26826226507E+02 -0.10604482288E+00 -0.30553360284E+02  0.50528862051E+02  0.30000006691E+02 0.  0.
        -12    1    1    2    0    0 -0.26826226507E+02  0.10604482288E+00  0.30553360284E+02  0.40659137949E+02  0.00000000000E+00 0.  1.
         11    1    3    3    0    0  0.29056001802E+02 -0.59282152359E+01 -0.18826573893E+02  0.35125985558E+02  0.51100000000E-03 0. -1.
        -11    1    3    3    0    0  0.17796449758E+01  0.50113998409E+01 -0.39799594802E+01  0.66423898057E+01  0.51100000000E-03 0.  1.
         12    1    3    3    0    0 -0.40094202705E+01  0.81077057214E+00 -0.77468269102E+01  0.87604866875E+01  0.00000000000E+00 0. -1.
</event>
<event>
 7    1  0.4962385E-011  0.5052884E+02  0.7816164E-02  0.1300439E+00
        -11   -1    0    0    0    0  0.00000000000E+00  0.00000000000E+00  0.45593999997E+02  0.45594000000E+02  0.51100000000E-03 0.  1.
         11   -1    0    0    0    0 -0.00000000000E+00 -0.00000000000E+00 -0.45593999997E+02  0.45594000000E+02  0.51100000000E-03 0. -1.
    9900012    2    1    2    0    0  0.17212609853E+02  0.22744369265E+02 -0.28975628144E+02  0.50528839931E+02  0.29999939454E+02 0.  0.
        -12    1    1    2    0    0 -0.17212609853E+02 -0.22744369265E+02  0.28975628144E+02  0.40659160069E+02  0.00000000000E+00 0.  1.
         11    1    3    3    0    0  0.70636791616E+01  0.10345317684E+02 -0.89782056992E+01  0.15411986865E+02  0.51100000000E-03 0. -1.
        -11    1    3    3    0    0  0.15377522271E+02  0.69050166630E+00 -0.71759443179E+01  0.16983496720E+02  0.51100000000E-03 0.  1.
        -12    1    3    3    0    0 -0.52285915797E+01  0.11708549914E+02 -0.12821478127E+02  0.18133356345E+02  0.00000000000E+00 0.  1.
</event>
<event>
 7    1  0.4962385E-011  0.5052886E+02  0.7816164E-02  0.1300439E+00
        -11   -1    0    0    0    0  0.00000000000E+00  0.00000000000E+00  0.45593999997E+02  0.45594000000E+02  0.51100000000E-03 0.  1.
         11   -1    0    0    0    0 -0.00000000000E+00 -0.00000000000E+00 -0.45593999997E+02  0.45594000000E+02  0.51100000000E-03 0. -1.
    9900012    2    1    2    0    0  0.22981267378E+02 -0.18876377695E+02 -0.27725605139E+02  0.50528862460E+02  0.30000007933E+02 0.  0.
        -12    1    1    2    0    0 -0.22981267378E+02  0.18876377695E+02  0.27725605139E+02  0.40659137540E+02  0.00000000000E+00 0.  1.
         11    1    3    3    0    0  0.90758389133E+01 -0.74543848870E-01 -0.10911233951E+02  0.14192654274E+02  0.51100000000E-03 0. -1.
        -11    1    3    3    0    0  0.61345877820E+01 -0.22143700509E+02 -0.85691506065E+01  0.24523600508E+02  0.51100000000E-03 0.  1.
        -12    1    3    3    0    0  0.77708406826E+01  0.33418666628E+01 -0.82452205814E+01  0.11812607677E+02  0.00000000000E+00 0.  1.
</event>
<event>
 7    1  0.4962385E-011  0.5052888E+02  0.7816164E-02  0.1300439E+00
        -11   -1    0    0    0    0  0.00000000000E+00  0.00000000000E+00  0.45593999997E+02  0.45594000000E+02  0.51100000000E-03 0.  1.
         11   -1    0    0    0    0 -0.00000000000E+00 -0.00000000000E+00 -0.45593999997E+02  0.45594000000E+02  0.51100000000E-03 0. -1.
    9900012    2    1    2    0    0  0.35786914458E+02 -0.56176453591E+00 -0.19291064335E+02  0.50528880617E+02  0.30000063123E+02 0.  0.
        -12    1    1    2    0    0 -0.35786914458E+02  0.56176453591E+00  0.19291064335E+02  0.40659119383E+02  0.00000000000E+00 0.  1.
         11    1    3    3    0    0  0.19186053919E+01 -0.55856235374E+01 -0.87512962237E+01  0.10557718636E+02  0.51100000000E-03 0. -1.
        -11    1    3    3    0    0  0.24296496883E+02 -0.12157511993E+01  0.14560215333E+00  0.24327330556E+02  0.51100000000E-03 0.  1.
         12    1    3    3    0    0  0.95718121835E+01  0.62396102008E+01 -0.10685370265E+02  0.15643831424E+02  0.00000000000E+00 0. -1.
</event>
<event>
 7    1  0.4962385E-011  0.5052884E+02  0.7816164E-02  0.1300439E+00
        -11   -1    0    0    0    0  0.00000000000E+00  0.00000000000E+00  0.45593999997E+02  0.45594000000E+02  0.51100000000E-03 0.  1.
         11   -1    0    0    0    0 -0.00000000000E+00 -0.00000000000E+00 -0.45593999997E+02  0.45594000000E+02  0.51100000000E-03 0. -1.
    9900012    2    1    2    0    0  0.79157184084E+01  0.39841694534E+02  0.17742068270E+01  0.50528843206E+02  0.29999949410E+02 0.  0.
        -12    1    1    2    0    0 -0.79157184084E+01 -0.39841694534E+02 -0.17742068270E+01  0.40659156794E+02  0.00000000000E+00 0.  1.
         11    1    3    3    0    0 -0.24522151306E+01  0.62017402815E+01 -0.32090371625E+01  0.74008689583E+01  0.51100000000E-03 0. -1.
        -11    1    3    3    0    0  0.17935317959E+02  0.26265512065E+02  0.64735595369E+01  0.32457044346E+02  0.51100000000E-03 0.  1.
        -12    1    3    3    0    0 -0.75673844203E+01  0.73744421881E+01 -0.14903155473E+01  0.10670929902E+02  0.00000000000E+00 0.  1.
</event>
<event>
 7    1  0.4962385E-011  0.5052886E+02  0.7816164E-02  0.1300439E+00
        -11   -1    0    0    0    0  0.00000000000E+00  0.00000000000E+00  0.45593999997E+02  0.45594000000E+02  0.51100000000E-03 0.  1.
         11   -1    0    0    0    0 -0.00000000000E+00 -0.00000000000E+00 -0.45593999997E+02  0.45594000000E+02  0.51100000000E-03 0. -1.
    9900012    2    1    2    0    0 -0.16593603001E+01 -0.13932413576E+02 -0.38161496274E+02  0.50528862989E+02  0.30000009541E+02 0.  0.
        -12    1    1    2    0    0  0.16593603001E+01  0.13932413576E+02  0.38161496274E+02  0.40659137011E+02  0.00000000000E+00 0.  1.
         11    1    3    3    0    0  0.69683011267E+01 -0.81623668794E+01 -0.23985059151E+02  0.26276691504E+02  0.51100000000E-03 0. -1.
        -11    1    3    3    0    0 -0.74115880573E+01 -0.11484311981E+02 -0.11329113497E+02  0.17753024309E+02  0.51100000000E-03 0.  1.
        -12    1    3    3    0    0 -0.12160733695E+01  0.57142652849E+01 -0.28473236258E+01  0.64991471761E+01  0.00000000000E+00 0.  1.
</event>
<event>
 7    1  0.4962385E-011  0.5052886E+02  0.7816164E-02  0.1300439E+00
        -11   -1    0    0    0    0  0.00000000000E+00  0.00000000000E+00  0.45593999997E+02  0.45594000000E+02  0.51100000000E-03 0.  1.
         11   -1    0    0    0    0 -0.00000000000E+00 -0.00000000000E+00 -0.45593999997E+02  0.45594000000E+02  0.51100000000E-03 0. -1.
    9900012    2    1    2    0    0 -0.32907964753E+02 -0.11891270449E+02 -0.20708194498E+02  0.50528858636E+02  0.29999996311E+02 0.  0.
        -12    1    1    2    0    0  0.32907964753E+02  0.11891270449E+02  0.20708194498E+02  0.40659141364E+02  0.00000000000E+00 0.  1.
         11    1    3    3    0    0 -0.26532347840E+02  0.13558497641E+01 -0.41700172244E+01  0.26892245246E+02  0.51100000000E-03 0. -1.
        -11    1    3    3    0    0 -0.33176267925E+01 -0.47485507996E+01 -0.12431425210E+02  0.13714799132E+02  0.51100000000E-03 0.  1.
        -12    1    3    3    0    0 -0.30579901204E+01 -0.84985694134E+01 -0.41067520643E+01  0.99218142578E+01  0.00000000000E+00 0.  1.
</event>
<event>
 7    1  0.4962385E-011  0.5052891E+02  0.7816164E-02  0.1300439E+00
        -11   -1    0    0    0    0  0.00000000000E+00  0.00000000000E+00  0.45593999997E+02  0.45594000000E+02  0.51100000000E-03 0.  1.
         11   -1    0    0    0    0 -0.00000000000E+00 -0.00000000000E+00 -0.45593999997E+02  0.45594000000E+02  0.51100000000E-03 0. -1.
    9900012    2    1    2    0    0 -0.23147132557E+02 -0.27990415444E+02 -0.18273159948E+02  0.50528911510E+02  0.30000157026E+02 0.  0.
        -12    1    1    2    0    0  0.23147132557E+02  0.27990415444E+02  0.18273159948E+02  0.40659088490E+02  0.00000000000E+00 0.  1.
         11    1    3    3    0    0 -0.10087920456E+02 -0.12345062360E+02  0.51011251442E+01  0.16738822593E+02  0.51100000000E-03 0. -1.
        -11    1    3    3    0    0  0.13825883565E+01  0.14554534782E+01 -0.22052149127E+01  0.29820912902E+01  0.51100000000E-03 0.  1.
         12    1    3    3    0    0 -0.14441800458E+02 -0.17100806562E+02 -0.21169070180E+02  0.30807997627E+02  0.00000000000E+00 0. -1.
</event>
<event>
 7    1  0.4962385E-011  0.5052886E+02  0.7816164E-02  0.1300439E+00
        -11   -1    0    0    0    0  0.00000000000E+00  0.00000000000E+00  0.45593999997E+02  0.45594000000E+02  0.51100000000E-03 0.  1.
         11   -1    0    0    0    0 -0.00000000000E+00 -0.00000000000E+00 -0.45593999997E+02  0.45594000000E+02  0.51100000000E-03 0. -1.
    9900012    2    1    2    0    0 -0.90541649902E+01  0.39328087518E+02 -0.49486691678E+01  0.50528859601E+02  0.29999999243E+02 0.  0.
        -12    1    1    2    0    0  0.90541649902E+01 -0.39328087518E+02  0.49486691678E+01  0.40659140399E+02  0.00000000000E+00 0.  1.
         11    1    3    3    0    0 -0.87516746677E+01  0.34591257317E+02 -0.10435876040E+01  0.35696441946E+02  0.51100000000E-03 0. -1.
        -11    1    3    3    0    0  0.59681384504E+01  0.29659710790E+00  0.46412697355E+00  0.59935015239E+01  0.51100000000E-03 0.  1.
         12    1    3    3    0    0 -0.62706287729E+01  0.44402330925E+01 -0.43692085374E+01  0.88389161308E+01  0.00000000000E+00 0. -1.
</event>
<event>
 7    1  0.4962385E-011  0.5052884E+02  0.7816164E-02  0.1300439E+00
        -11   -1    0    0    0    0  0.00000000000E+00  0.00000000000E+00  0.45593999997E+02  0.45594000000E+02  0.51100000000E-03 0.  1.
         11   -1    0    0    0    0 -0.00000000000E+00 -0.00000000000E+00 -0.45593999997E+02  0.45594000000E+02  0.51100000000E-03 0. -1.
    9900012    2    1    2    0    0 -0.52077887112E+01  0.38610142343E+02 -0.11632004684E+02  0.50528835129E+02  0.29999924858E+02 0.  0.
        -12    1    1    2    0    0  0.52077887112E+01 -0.38610142343E+02  0.11632004684E+02  0.40659164871E+02  0.00000000000E+00 0.  1.
         11    1    3    3    0    0 -0.73596230715E+01  0.10831099357E+02  0.51747501879E+01  0.14080298463E+02  0.51100000000E-03 0.  1.
        -11    1    3    3    0    0  0.70092734806E+01  0.24406084959E+02 -0.96496291415E+01  0.27164356068E+02  0.51100000000E-03 0. -1.
        -12    1    3    3    0    0 -0.48574391203E+01  0.33729580273E+01 -0.71571257300E+01  0.92841805980E+01  0.00000000000E+00 0.  1.
</event>
<event>
 7    1  0.4962385E-011  0.5052886E+02  0.7816164E-02  0.1300439E+00
        -11   -1    0    0    0    0  0.00000000000E+00  0.00000000000E+00  0.45593999997E+02  0.45594000000E+02  0.51100000000E-03 0. -1.
         11   -1    0    0    0    0 -0.00000000000E+00 -0.00000000000E+00 -0.45593999997E+02  0.45594000000E+02  0.51100000000E-03 0.  1.
    9900012    2    1    2    0    0  0.12478403857E+02  0.38406906791E+02  0.47291157802E+01  0.50528860952E+02  0.30000003350E+02 0.  0.
        -12    1    1    2    0    0 -0.12478403857E+02 -0.38406906791E+02 -0.47291157802E+01  0.40659139048E+02  0.00000000000E+00 0.  1.
         11    1    3    3    0    0  0.37194363440E+00  0.22469192474E+02 -0.85947408502E+01  0.24059769804E+02  0.51100000000E-03 0. -1.
        -11    1    3    3    0    0  0.32364822965E+01  0.12676478354E+02  0.99408239533E+01  0.16431308598E+02  0.51100000000E-03 0.  1.
        -12    1    3    3    0    0  0.88699779262E+01  0.32612359631E+01  0.33830326770E+01  0.10037782550E+02  0.00000000000E+00 0.  1.
</event>
<event>
 7    1  0.4962385E-011  0.5052886E+02  0.7816164E-02  0.1300439E+00
        -11   -1    0    0    0    0  0.00000000000E+00  0.00000000000E+00  0.45593999997E+02  0.45594000000E+02  0.51100000000E-03 0. -1.
         11   -1    0    0    0    0 -0.00000000000E+00 -0.00000000000E+00 -0.45593999997E+02  0.45594000000E+02  0.51100000000E-03 0.  1.
    9900012    2    1    2    0    0 -0.31690271587E+02 -0.25327507640E+02  0.27220590878E+01  0.50528861271E+02  0.30000004320E+02 0.  0.
        -12    1    1    2    0    0  0.31690271587E+02  0.25327507640E+02 -0.27220590878E+01  0.40659138729E+02  0.00000000000E+00 0.  1.
         11    1    3    3    0    0 -0.11744116332E+02 -0.17840245871E+01 -0.71504966795E+00  0.11900349089E+02  0.51100000000E-03 0. -1.
        -11    1    3    3    0    0  0.81853452723E+00 -0.16073807700E+02 -0.97600742543E+00  0.16124201794E+02  0.51100000000E-03 0.  1.
        -12    1    3    3    0    0 -0.20764689782E+02 -0.74696753531E+01  0.44131161812E+01  0.22504310389E+02  0.00000000000E+00 0.  1.
</event>
<event>
 7    1  0.4962385E-011  0.5052886E+02  0.7816164E-02  0.1300439E+00
        -11   -1    0    0    0    0  0.00000000000E+00  0.00000000000E+00  0.45593999997E+02  0.45594000000E+02  0.51100000000E-03 0. -1.
         11   -1    0    0    0    0 -0.00000000000E+00 -0.00000000000E+00 -0.45593999997E+02  0.45594000000E+02  0.51100000000E-03 0.  1.
    9900012    2    1    2    0    0 -0.17976899714E+02  0.35060337088E+02  0.10038390078E+02  0.50528862830E+02  0.30000009057E+02 0.  0.
        -12    1    1    2    0    0  0.17976899714E+02 -0.35060337088E+02 -0.10038390078E+02  0.40659137170E+02  0.00000000000E+00 0.  1.
         11    1    3    3    0    0 -0.15015748271E+02  0.17263048951E+02  0.11213939302E+02  0.25480148943E+02  0.51100000000E-03 0. -1.
        -11    1    3    3    0    0  0.66797141230E+01  0.72053824827E+01  0.27407977157E+01  0.10200396554E+02  0.51100000000E-03 0.  1.
         12    1    3    3    0    0 -0.96408655661E+01  0.10591905655E+02 -0.39163469396E+01  0.14848317333E+02  0.00000000000E+00 0. -1.
</event>
<event>
 7    1  0.4962385E-011  0.5052885E+02  0.7816164E-02  0.1300439E+00
        -11   -1    0    0    0    0  0.00000000000E+00  0.00000000000E+00  0.45593999997E+02  0.45594000000E+02  0.51100000000E-03 0.  1.
         11   -1    0    0    0    0 -0.00000000000E+00 -0.00000000000E+00 -0.45593999997E+02  0.45594000000E+02  0.51100000000E-03 0. -1.
    9900012    2    1    2    0    0 -0.37262061681E+02 -0.53011150617E+01  0.15381905465E+02  0.50528854936E+02  0.29999985063E+02 0.  0.
        -12    1    1    2    0    0  0.37262061681E+02  0.53011150617E+01 -0.15381905465E+02  0.40659145064E+02  0.00000000000E+00 0.  1.
         11    1    3    3    0    0 -0.17897423452E+02  0.21257225568E+01 -0.58940182333E+01  0.18962487015E+02  0.51100000000E-03 0. -1.
        -11    1    3    3    0    0 -0.73920028333E+01 -0.75077787116E+01  0.14120987075E+02  0.17618476759E+02  0.51100000000E-03 0.  1.
         12    1    3    3    0    0 -0.11972635396E+02  0.80941093139E-01  0.71549366228E+01  0.13947891162E+02  0.00000000000E+00 0. -1.
</event>
<event>
 7    1  0.4962385E-011  0.5052886E+02  0.7816164E-02  0.1300439E+00
        -11   -1    0    0    0    0  0.00000000000E+00  0.00000000000E+00  0.45593999997E+02  0.45594000000E+02  0.51100000000E-03 0.  1.
         11   -1    0    0    0    0 -0.00000000000E+00 -0.00000000000E+00 -0.45593999997E+02  0.45594000000E+02  0.51100000000E-03 0. -1.
    9900012    2    1    2    0    0 -0.24932859316E+02  0.20241995643E+02 -0.24935515602E+02  0.50528858351E+02  0.29999995445E+02 0.  0.
        -12    1    1    2    0    0  0.24932859316E+02 -0.20241995643E+02  0.24935515602E+02  0.40659141649E+02  0.00000000000E+00 0.  1.
         11    1    3    3    0    0 -0.37276357324E+01  0.18972313343E+02 -0.17689473282E+02  0.26206133004E+02  0.51100000000E-03 0. -1.
        -11    1    3    3    0    0 -0.26864341945E+01 -0.16804640354E+01  0.16440338517E+01  0.35698369181E+01  0.51100000000E-03 0.  1.
         12    1    3    3    0    0 -0.18518789389E+02  0.29501463349E+01 -0.88900761712E+01  0.20752888430E+02  0.00000000000E+00 0. -1.
</event>
<event>
 7    1  0.4962385E-011  0.5052886E+02  0.7816164E-02  0.1300439E+00
        -11   -1    0    0    0    0  0.00000000000E+00  0.00000000000E+00  0.45593999997E+02  0.45594000000E+02  0.51100000000E-03 0. -1.
         11   -1    0    0    0    0 -0.00000000000E+00 -0.00000000000E+00 -0.45593999997E+02  0.45594000000E+02  0.51100000000E-03 0.  1.
    9900012    2    1    2    0    0 -0.21163732700E+02  0.21474861728E+02  0.27278063070E+02  0.50528855975E+02  0.29999988221E+02 0.  0.
        -12    1    1    2    0    0  0.21163732700E+02 -0.21474861728E+02 -0.27278063070E+02  0.40659144025E+02  0.00000000000E+00 0.  1.
         11    1    3    3    0    0  0.34263095899E+01  0.38573559522E+01  0.93849240572E+01  0.10709602802E+02  0.51100000000E-03 0. -1.
        -11    1    3    3    0    0 -0.25986004431E+02  0.11689580327E+02  0.18044709714E+02  0.33727292560E+02  0.51100000000E-03 0.  1.
        -12    1    3    3    0    0  0.13959621414E+01  0.59279254490E+01 -0.15157070157E+00  0.60919606127E+01  0.00000000000E+00 0.  1.
</event>
<event>
 7    1  0.4962385E-011  0.5052887E+02  0.7816164E-02  0.1300439E+00
        -11   -1    0    0    0    0  0.00000000000E+00  0.00000000000E+00  0.45593999997E+02  0.45594000000E+02  0.51100000000E-03 0.  1.
         11   -1    0    0    0    0 -0.00000000000E+00 -0.00000000000E+00 -0.45593999997E+02  0.45594000000E+02  0.51100000000E-03 0. -1.
    9900012    2    1    2    0    0  0.24439467245E+02 -0.11564950039E+02 -0.30366583382E+02  0.50528868001E+02  0.30000024775E+02 0.  0.
        -12    1    1    2    0    0 -0.24439467245E+02  0.11564950039E+02  0.30366583382E+02  0.40659131999E+02  0.00000000000E+00 0.  1.
         11    1    3    3    0    0  0.68967237580E+01  0.47387520872E+00 -0.13066607258E+02  0.14782610791E+02  0.51100000000E-03 0. -1.
        -11    1    3    3    0    0  0.55438234925E+01 -0.13744578390E+02 -0.24361128022E+00  0.14822508585E+02  0.51100000000E-03 0.  1.
        -12    1    3    3    0    0  0.11998919994E+02  0.17057531421E+01 -0.17056364844E+02  0.20923748625E+02  0.00000000000E+00 0.  1.
</event>
<event>
 7    1  0.4962385E-011  0.5052886E+02  0.7816164E-02  0.1300439E+00
        -11   -1    0    0    0    0  0.00000000000E+00  0.00000000000E+00  0.45593999997E+02  0.45594000000E+02  0.51100000000E-03 0.  1.
         11   -1    0    0    0    0 -0.00000000000E+00 -0.00000000000E+00 -0.45593999997E+02  0.45594000000E+02  0.51100000000E-03 0. -1.
    9900012    2    1    2    0    0  0.26188608485E+02 -0.40449978239E+01 -0.30837641732E+02  0.50528863642E+02  0.30000011525E+02 0.  0.
        -12    1    1    2    0    0 -0.26188608485E+02  0.40449978239E+01  0.30837641732E+02  0.40659136358E+02  0.00000000000E+00 0.  1.
         11    1    3    3    0    0 -0.26388460926E+01 -0.73140895024E+00 -0.57239653472E+01  0.63452539200E+01  0.51100000000E-03 0. -1.
        -11    1    3    3    0    0  0.29729729081E+02  0.14067622614E+01 -0.15784974987E+02  0.33689778967E+02  0.51100000000E-03 0.  1.
        -12    1    3    3    0    0 -0.90227450298E+00 -0.47203511351E+01 -0.93287013984E+01  0.10493830754E+02  0.00000000000E+00 0.  1.
</event>
<event>
 7    1  0.4962385E-011  0.5052874E+02  0.7816164E-02  0.1300439E+00
        -11   -1    0    0    0    0  0.00000000000E+00  0.00000000000E+00  0.45593999997E+02  0.45594000000E+02  0.51100000000E-03 0.  1.
         11   -1    0    0    0    0 -0.00000000000E+00 -0.00000000000E+00 -0.45593999997E+02  0.45594000000E+02  0.51100000000E-03 0. -1.
    9900012    2    1    2    0    0 -0.11704698111E+02 -0.28282923561E+02 -0.26762872233E+02  0.50528744557E+02  0.29999649552E+02 0.  0.
        -12    1    1    2    0    0  0.11704698111E+02  0.28282923561E+02  0.26762872233E+02  0.40659255443E+02  0.00000000000E+00 0.  1.
         11    1    3    3    0    0 -0.35366257162E+01 -0.31583457426E+02 -0.22428136034E+02  0.38897863574E+02  0.51100000000E-03 0. -1.
        -11    1    3    3    0    0 -0.16356811805E+01  0.17500131599E+01  0.14230267441E+01  0.27862168544E+01  0.51100000000E-03 0.  1.
         12    1    3    3    0    0 -0.65323912140E+01  0.15505207045E+01 -0.57577629439E+01  0.88446641285E+01  0.00000000000E+00 0. -1.
</event>
<event>
 7    1  0.4962385E-011  0.5052886E+02  0.7816164E-02  0.1300439E+00
        -11   -1    0    0    0    0  0.00000000000E+00  0.00000000000E+00  0.45593999997E+02  0.45594000000E+02  0.51100000000E-03 0. -1.
         11   -1    0    0    0    0 -0.00000000000E+00 -0.00000000000E+00 -0.45593999997E+02  0.45594000000E+02  0.51100000000E-03 0.  1.
    9900012    2    1    2    0    0 -0.34492123723E+02 -0.76546326013E+01  0.20121265652E+02  0.50528864119E+02  0.30000012975E+02 0.  0.
        -12    1    1    2    0    0  0.34492123723E+02  0.76546326013E+01 -0.20121265652E+02  0.40659135881E+02  0.00000000000E+00 0.  1.
         11    1    3    3    0    0 -0.24226159200E+02  0.68355105513E+01  0.12377175754E+02  0.28050409515E+02  0.51100000000E-03 0. -1.
        -11    1    3    3    0    0 -0.77217188816E+01 -0.10930403562E+02 -0.22781017791E+00  0.13384713753E+02  0.51100000000E-03 0.  1.
         12    1    3    3    0    0 -0.25442456420E+01 -0.35597395906E+01  0.79719000754E+01  0.90937408503E+01  0.00000000000E+00 0. -1.
</event>
<event>
 7    1  0.4962385E-011  0.5052885E+02  0.7816164E-02  0.1300439E+00
        -11   -1    0    0    0    0  0.00000000000E+00  0.00000000000E+00  0.45593999997E+02  0.45594000000E+02  0.51100000000E-03 0.  1.
         11   -1    0    0    0    0 -0.00000000000E+00 -0.00000000000E+00 -0.45593999997E+02  0.45594000000E+02  0.51100000000E-03 0. -1.
    9900012    2    1    2    0    0 -0.95109707280E+01 -0.21585263545E+02 -0.33117733394E+02  0.50528850578E+02  0.29999971818E+02 0.  0.
        -12    1    1    2    0    0  0.95109707280E+01  0.21585263545E+02  0.33117733394E+02  0.40659149422E+02  0.00000000000E+00 0.  1.
         11    1    3    3    0    0 -0.13881359507E+01 -0.98326640448E+00 -0.68831211121E+01  0.70902109097E+01  0.51100000000E-03 0. -1.
        -11    1    3    3    0    0  0.73189498832E+01 -0.10950342244E+02 -0.23098282528E+01  0.13372072744E+02  0.51100000000E-03 0.  1.
        -12    1    3    3    0    0 -0.15441784661E+02 -0.96516548968E+01 -0.23924784030E+02  0.30066566924E+02  0.00000000000E+00 0.  1.
</event>
<event>
 7    1  0.4962385E-011  0.5052886E+02  0.7816164E-02  0.1300439E+00
        -11   -1    0    0    0    0  0.00000000000E+00  0.00000000000E+00  0.45593999997E+02  0.45594000000E+02  0.51100000000E-03 0. -1.
         11   -1    0    0    0    0 -0.00000000000E+00 -0.00000000000E+00 -0.45593999997E+02  0.45594000000E+02  0.51100000000E-03 0.  1.
    9900012    2    1    2    0    0  0.38443387222E+02  0.12230495893E+02 -0.50682015351E+01  0.50528859359E+02  0.29999998506E+02 0.  0.
        -12    1    1    2    0    0 -0.38443387222E+02 -0.12230495893E+02  0.50682015351E+01  0.40659140641E+02  0.00000000000E+00 0.  1.
         11    1    3    3    0    0  0.20228351890E+02  0.16929553621E+02  0.58952369935E+01  0.27028685234E+02  0.51100000000E-03 0. -1.
        -11    1    3    3    0    0  0.58859640124E+00 -0.17466359788E+01 -0.38426671004E+01  0.42618392358E+01  0.51100000000E-03 0.  1.
         12    1    3    3    0    0  0.17626438931E+02 -0.29524217493E+01 -0.71207714281E+01  0.19238334889E+02  0.00000000000E+00 0. -1.
</event>
<event>
 7    1  0.4962385E-011  0.5052889E+02  0.7816164E-02  0.1300439E+00
        -11   -1    0    0    0    0  0.00000000000E+00  0.00000000000E+00  0.45593999997E+02  0.45594000000E+02  0.51100000000E-03 0.  1.
         11   -1    0    0    0    0 -0.00000000000E+00 -0.00000000000E+00 -0.45593999997E+02  0.45594000000E+02  0.51100000000E-03 0. -1.
    9900012    2    1    2    0    0  0.34990290242E+02  0.12997426029E+02 -0.16121716628E+02  0.50528889808E+02  0.30000091060E+02 0.  0.
        -12    1    1    2    0    0 -0.34990290242E+02 -0.12997426029E+02  0.16121716628E+02  0.40659110192E+02  0.00000000000E+00 0.  1.
         11    1    3    3    0    0  0.17639513544E+02  0.10976749391E+02 -0.21199877868E+02  0.29682929221E+02  0.51100000000E-03 0. -1.
        -11    1    3    3    0    0 -0.63922968009E+00  0.16436601411E+01  0.18660358428E+01  0.25675519997E+01  0.51100000000E-03 0.  1.
         12    1    3    3    0    0  0.17990006378E+02  0.37701649605E+00  0.32121253968E+01  0.18278408587E+02  0.00000000000E+00 0. -1.
</event>
<event>
 7    1  0.4962385E-011  0.5052885E+02  0.7816164E-02  0.1300439E+00
        -11   -1    0    0    0    0  0.00000000000E+00  0.00000000000E+00  0.45593999997E+02  0.45594000000E+02  0.51100000000E-03 0. -1.
         11   -1    0    0    0    0 -0.00000000000E+00 -0.00000000000E+00 -0.45593999997E+02  0.45594000000E+02  0.51100000000E-03 0.  1.
    9900012    2    1    2    0    0  0.21196584659E+02  0.31520804176E+02 -0.14502088504E+02  0.50528845212E+02  0.29999955506E+02 0.  0.
        -12    1    1    2    0    0 -0.21196584659E+02 -0.31520804176E+02  0.14502088504E+02  0.40659154788E+02  0.00000000000E+00 0.  1.
         11    1    3    3    0    0  0.33055406466E-01  0.13740847119E+02 -0.13998180399E+01  0.13812004309E+02  0.51100000000E-03 0. -1.
        -11    1    3    3    0    0  0.14764576056E+02  0.84411445305E+01  0.27593747765E+01  0.17229619163E+02  0.51100000000E-03 0.  1.
        -12    1    3    3    0    0  0.63989531968E+01  0.93388125262E+01 -0.15861645240E+02  0.19487221740E+02  0.00000000000E+00 0.  1.
</event>
<event>
 7    1  0.4962385E-011  0.5052886E+02  0.7816164E-02  0.1300439E+00
        -11   -1    0    0    0    0  0.00000000000E+00  0.00000000000E+00  0.45593999997E+02  0.45594000000E+02  0.51100000000E-03 0.  1.
         11   -1    0    0    0    0 -0.00000000000E+00 -0.00000000000E+00 -0.45593999997E+02  0.45594000000E+02  0.51100000000E-03 0. -1.
    9900012    2    1    2    0    0 -0.32787832388E+02  0.16756986934E+02 -0.17243176831E+02  0.50528859441E+02  0.29999998757E+02 0.  0.
        -12    1    1    2    0    0  0.32787832388E+02 -0.16756986934E+02  0.17243176831E+02  0.40659140559E+02  0.00000000000E+00 0.  1.
         11    1    3    3    0    0 -0.27258445489E+02  0.98734649929E+01 -0.15106778214E+02  0.32691327745E+02  0.51100000000E-03 0. -1.
        -11    1    3    3    0    0 -0.46439047760E+01 -0.36736832975E+01  0.22994239586E+01  0.63520981842E+01  0.51100000000E-03 0.  1.
         12    1    3    3    0    0 -0.88548212247E+00  0.10557205239E+02 -0.44358225751E+01  0.11485433512E+02  0.00000000000E+00 0. -1.
</event>
<event>
 7    1  0.4962385E-011  0.5052885E+02  0.7816164E-02  0.1300439E+00
        -11   -1    0    0    0    0  0.00000000000E+00  0.00000000000E+00  0.45593999997E+02  0.45594000000E+02  0.51100000000E-03 0. -1.
         11   -1    0    0    0    0 -0.00000000000E+00 -0.00000000000E+00 -0.45593999997E+02  0.45594000000E+02  0.51100000000E-03 0.  1.
    9900012    2    1    2    0    0 -0.35301262549E+02 -0.17412043608E+00 -0.20173166344E+02  0.50528854709E+02  0.29999984373E+02 0.  0.
        -12    1    1    2    0    0  0.35301262549E+02  0.17412043608E+00  0.20173166344E+02  0.40659145291E+02  0.00000000000E+00 0.  1.
         11    1    3    3    0    0 -0.15108302522E+02 -0.58102365420E+01 -0.12022903069E+02  0.20163577367E+02  0.51100000000E-03 0. -1.
        -11    1    3    3    0    0 -0.50546754179E+01  0.67091770908E+01  0.54280660293E+01  0.10001335006E+02  0.51100000000E-03 0.  1.
        -12    1    3    3    0    0 -0.15138284609E+02 -0.10730609849E+01 -0.13578329304E+02  0.20363942336E+02  0.00000000000E+00 0.  1.
</event>
<event>
 7    1  0.4962385E-011  0.5052886E+02  0.7816164E-02  0.1300439E+00
        -11   -1    0    0    0    0  0.00000000000E+00  0.00000000000E+00  0.45593999997E+02  0.45594000000E+02  0.51100000000E-03 0.  1.
         11   -1    0    0    0    0 -0.00000000000E+00 -0.00000000000E+00 -0.45593999997E+02  0.45594000000E+02  0.51100000000E-03 0. -1.
    9900012    2    1    2    0    0 -0.24146728666E+02  0.23876866222E+01 -0.32625151088E+02  0.50528855442E+02  0.29999986602E+02 0.  0.
        -12    1    1    2    0    0  0.24146728666E+02 -0.23876866222E+01  0.32625151088E+02  0.40659144558E+02  0.00000000000E+00 0.  1.
         11    1    3    3    0    0 -0.20004093767E+02 -0.32731191430E+01 -0.10477281241E+02  0.22817767174E+02  0.51100000000E-03 0. -1.
        -11    1    3    3    0    0  0.45192979699E+01  0.17671874449E+01 -0.16590015158E+01  0.51282835234E+01  0.51100000000E-03 0.  1.
        -12    1    3    3    0    0 -0.86619328694E+01  0.38936183203E+01 -0.20488868331E+02  0.22582804745E+02  0.00000000000E+00 0.  1.
</event>
<event>
 7    1  0.4962385E-011  0.5052886E+02  0.7816164E-02  0.1300439E+00
        -11   -1    0    0    0    0  0.00000000000E+00  0.00000000000E+00  0.45593999997E+02  0.45594000000E+02  0.51100000000E-03 0. -1.
         11   -1    0    0    0    0 -0.00000000000E+00 -0.00000000000E+00 -0.45593999997E+02  0.45594000000E+02  0.51100000000E-03 0.  1.
    9900012    2    1    2    0    0  0.24678711016E+02 -0.23963274053E+02  0.21676901805E+02  0.50528863849E+02  0.30000012155E+02 0.  0.
        -12    1    1    2    0    0 -0.24678711016E+02  0.23963274053E+02 -0.21676901805E+02  0.40659136151E+02  0.00000000000E+00 0.  1.
         11    1    3    3    0    0  0.64674020340E+01 -0.29766564872E+01  0.24887886524E+01  0.75420051796E+01  0.51100000000E-03 0. -1.
        -11    1    3    3    0    0 -0.50465715887E+01 -0.64608906467E+01 -0.18747351838E+01  0.84098528536E+01  0.51100000000E-03 0.  1.
        -12    1    3    3    0    0  0.23257880570E+02 -0.14525726919E+02  0.21062848336E+02  0.34577005816E+02  0.00000000000E+00 0.  1.
</event>
<event>
 7    1  0.4962385E-011  0.5052885E+02  0.7816164E-02  0.1300439E+00
        -11   -1    0    0    0    0  0.00000000000E+00  0.00000000000E+00  0.45593999997E+02  0.45594000000E+02  0.51100000000E-03 0.  1.
         11   -1    0    0    0    0 -0.00000000000E+00 -0.00000000000E+00 -0.45593999997E+02  0.45594000000E+02  0.51100000000E-03 0. -1.
    9900012    2    1    2    0    0 -0.32425663079E+02 -0.20413456201E+02 -0.13602694163E+02  0.50528854551E+02  0.29999983892E+02 0.  0.
        -12    1    1    2    0    0  0.32425663079E+02  0.20413456201E+02  0.13602694163E+02  0.40659145449E+02  0.00000000000E+00 0.  1.
         11    1    3    3    0    0 -0.31705936005E+02 -0.80901396988E+01 -0.11438377941E+02  0.34663427824E+02  0.51100000000E-03 0. -1.
        -11    1    3    3    0    0  0.18328404901E+01 -0.51981788221E+00  0.23033719062E+01  0.29891532735E+01  0.51100000000E-03 0.  1.
         12    1    3    3    0    0 -0.25525675639E+01 -0.11803498620E+02 -0.44676881287E+01  0.12876273454E+02  0.00000000000E+00 0. -1.
</event>
<event>
 7    1  0.4962385E-011  0.5052891E+02  0.7816164E-02  0.1300439E+00
        -11   -1    0    0    0    0  0.00000000000E+00  0.00000000000E+00  0.45593999997E+02  0.45594000000E+02  0.51100000000E-03 0.  1.
         11   -1    0    0    0    0 -0.00000000000E+00 -0.00000000000E+00 -0.45593999997E+02  0.45594000000E+02  0.51100000000E-03 0. -1.
    9900012    2    1    2    0    0 -0.23164848614E+01  0.40028027007E+02 -0.67492359286E+01  0.50528914499E+02  0.30000166110E+02 0.  0.
        -12    1    1    2    0    0  0.23164848614E+01 -0.40028027007E+02  0.67492359286E+01  0.40659085501E+02  0.00000000000E+00 0.  1.
         11    1    3    3    0    0 -0.90884847190E+01  0.25962754135E+01 -0.10704891499E+01  0.95124732742E+01  0.51100000000E-03 0.  1.
        -11    1    3    3    0    0  0.74095675834E+01  0.19074235958E+02 -0.89920902162E+01  0.22351417313E+02  0.51100000000E-03 0. -1.
         12    1    3    3    0    0 -0.63756772580E+00  0.18357515635E+02  0.33133434375E+01  0.18665023912E+02  0.00000000000E+00 0. -1.
</event>
<event>
 7    1  0.4962385E-011  0.5052889E+02  0.7816164E-02  0.1300439E+00
        -11   -1    0    0    0    0  0.00000000000E+00  0.00000000000E+00  0.45593999997E+02  0.45594000000E+02  0.51100000000E-03 0.  1.
         11   -1    0    0    0    0 -0.00000000000E+00 -0.00000000000E+00 -0.45593999997E+02  0.45594000000E+02  0.51100000000E-03 0. -1.
    9900012    2    1    2    0    0  0.71019206824E+01  0.39690108940E+02 -0.52365299154E+01  0.50528889452E+02  0.30000089977E+02 0.  0.
        -12    1    1    2    0    0 -0.71019206824E+01 -0.39690108940E+02  0.52365299154E+01  0.40659110548E+02  0.00000000000E+00 0.  1.
         11    1    3    3    0    0  0.66301574812E+01  0.56679889376E+01  0.90046510779E+01  0.12536699251E+02  0.51100000000E-03 0.  1.
        -11    1    3    3    0    0 -0.82188602430E+00  0.32250266439E+02 -0.15120815609E+02  0.35628559429E+02  0.51100000000E-03 0. -1.
         12    1    3    3    0    0  0.12936492255E+01  0.17718535632E+01  0.87963461540E+00  0.23636307717E+01  0.00000000000E+00 0. -1.
</event>
<event>
 7    1  0.4962385E-011  0.5052894E+02  0.7816164E-02  0.1300439E+00
        -11   -1    0    0    0    0  0.00000000000E+00  0.00000000000E+00  0.45593999997E+02  0.45594000000E+02  0.51100000000E-03 0.  1.
         11   -1    0    0    0    0 -0.00000000000E+00 -0.00000000000E+00 -0.45593999997E+02  0.45594000000E+02  0.51100000000E-03 0. -1.
    9900012    2    1    2    0    0  0.12450681694E+02 -0.13321244924E+02 -0.36341221880E+02  0.50528936451E+02  0.30000232835E+02 0.  0.
        -12    1    1    2    0    0 -0.12450681694E+02  0.13321244924E+02  0.36341221880E+02  0.40659063549E+02  0.00000000000E+00 0.  1.
         11    1    3    3    0    0  0.16612520838E+02 -0.39523277560E+01 -0.26163243057E+02  0.31242791662E+02  0.51100000000E-03 0. -1.
        -11    1    3    3    0    0 -0.81182884063E+01 -0.72540319594E+01 -0.10021435861E+02  0.14797187682E+02  0.51100000000E-03 0.  1.
         12    1    3    3    0    0  0.39564492626E+01 -0.21148852084E+01 -0.15654296182E+00  0.44889571073E+01  0.00000000000E+00 0. -1.
</event>
<event>
 7    1  0.4962385E-011  0.5052886E+02  0.7816164E-02  0.1300439E+00
        -11   -1    0    0    0    0  0.00000000000E+00  0.00000000000E+00  0.45593999997E+02  0.45594000000E+02  0.51100000000E-03 0. -1.
         11   -1    0    0    0    0 -0.00000000000E+00 -0.00000000000E+00 -0.45593999997E+02  0.45594000000E+02  0.51100000000E-03 0.  1.
    9900012    2    1    2    0    0  0.97635434538E+01 -0.10241989359E+02  0.38117453692E+02  0.50528863232E+02  0.30000010279E+02 0.  0.
        -12    1    1    2    0    0 -0.97635434538E+01  0.10241989359E+02 -0.38117453692E+02  0.40659136768E+02  0.00000000000E+00 0.  1.
         11    1    3    3    0    0  0.21438462528E+01 -0.36515110985E+00  0.35647958774E+02  0.35714232137E+02  0.51100000000E-03 0. -1.
        -11    1    3    3    0    0 -0.53746840431E+00 -0.70374640386E+00 -0.16448758150E+01  0.18680867203E+01  0.51100000000E-03 0.  1.
         12    1    3    3    0    0  0.81571656053E+01 -0.91730918455E+01  0.41143707325E+01  0.12946544375E+02  0.00000000000E+00 0. -1.
</event>
<event>
 7    1  0.4962385E-011  0.5052887E+02  0.7816164E-02  0.1300439E+00
        -11   -1    0    0    0    0  0.00000000000E+00  0.00000000000E+00  0.45593999997E+02  0.45594000000E+02  0.51100000000E-03 0.  1.
         11   -1    0    0    0    0 -0.00000000000E+00 -0.00000000000E+00 -0.45593999997E+02  0.45594000000E+02  0.51100000000E-03 0. -1.
    9900012    2    1    2    0    0 -0.12514722508E+02 -0.26217781848E+01 -0.38596277688E+02  0.50528872468E+02  0.30000038354E+02 0.  0.
        -12    1    1    2    0    0  0.12514722508E+02  0.26217781848E+01  0.38596277688E+02  0.40659127532E+02  0.00000000000E+00 0.  1.
         11    1    3    3    0    0 -0.89756029412E+01 -0.48660198960E+01 -0.10322287845E+02  0.14518582038E+02  0.51100000000E-03 0. -1.
        -11    1    3    3    0    0  0.23026388586E+01  0.65806056100E+01 -0.27864506978E+02  0.28723461930E+02  0.51100000000E-03 0.  1.
        -12    1    3    3    0    0 -0.58417584253E+01 -0.43363638988E+01 -0.40948286526E+00  0.72868284994E+01  0.00000000000E+00 0.  1.
</event>
<event>
 7    1  0.4962385E-011  0.5052886E+02  0.7816164E-02  0.1300439E+00
        -11   -1    0    0    0    0  0.00000000000E+00  0.00000000000E+00  0.45593999997E+02  0.45594000000E+02  0.51100000000E-03 0.  1.
         11   -1    0    0    0    0 -0.00000000000E+00 -0.00000000000E+00 -0.45593999997E+02  0.45594000000E+02  0.51100000000E-03 0. -1.
    9900012    2    1    2    0    0 -0.24585023566E+02 -0.31445317269E+02 -0.77417271207E+01  0.50528859567E+02  0.29999999141E+02 0.  0.
        -12    1    1    2    0    0  0.24585023566E+02  0.31445317269E+02  0.77417271207E+01  0.40659140433E+02  0.00000000000E+00 0.  1.
         11    1    3    3    0    0 -0.10624675298E+02 -0.12058132600E+02 -0.81173777797E+01  0.18004835719E+02  0.51100000000E-03 0. -1.
        -11    1    3    3    0    0  0.40804702553E+00 -0.47129308366E+01  0.90641776554E+01  0.10224359945E+02  0.51100000000E-03 0.  1.
        -12    1    3    3    0    0 -0.14368395294E+02 -0.14674253832E+02 -0.86885269965E+01  0.22299663904E+02  0.00000000000E+00 0.  1.
</event>
<event>
 7    1  0.4962385E-011  0.5052886E+02  0.7816164E-02  0.1300439E+00
        -11   -1    0    0    0    0  0.00000000000E+00  0.00000000000E+00  0.45593999997E+02  0.45594000000E+02  0.51100000000E-03 0.  1.
         11   -1    0    0    0    0 -0.00000000000E+00 -0.00000000000E+00 -0.45593999997E+02  0.45594000000E+02  0.51100000000E-03 0. -1.
    9900012    2    1    2    0    0 -0.23145622104E+02 -0.30832404934E+01 -0.33285721467E+02  0.50528862674E+02  0.30000008583E+02 0.  0.
        -12    1    1    2    0    0  0.23145622104E+02  0.30832404934E+01  0.33285721467E+02  0.40659137326E+02  0.00000000000E+00 0.  1.
         11    1    3    3    0    0 -0.80706553751E+01  0.85774252801E+01 -0.18000394349E+02  0.21510971610E+02  0.51100000000E-03 0. -1.
        -11    1    3    3    0    0 -0.16311162896E+02 -0.59882547696E+01 -0.15390113153E+02  0.23211394041E+02  0.51100000000E-03 0.  1.
         12    1    3    3    0    0  0.12361961670E+01 -0.56724110039E+01  0.10478603505E+00  0.58064970226E+01  0.00000000000E+00 0. -1.
</event>
<event>
 7    1  0.4962385E-011  0.5052884E+02  0.7816164E-02  0.1300439E+00
        -11   -1    0    0    0    0  0.00000000000E+00  0.00000000000E+00  0.45593999997E+02  0.45594000000E+02  0.51100000000E-03 0. -1.
         11   -1    0    0    0    0 -0.00000000000E+00 -0.00000000000E+00 -0.45593999997E+02  0.45594000000E+02  0.51100000000E-03 0.  1.
    9900012    2    1    2    0    0  0.83623746095E+01  0.39770439076E+02  0.12450354462E+01  0.50528840556E+02  0.29999941355E+02 0.  0.
        -12    1    1    2    0    0 -0.83623746095E+01 -0.39770439076E+02 -0.12450354462E+01  0.40659159444E+02  0.00000000000E+00 0.  1.
         11    1    3    3    0    0  0.14365731238E+02  0.21051490672E+02  0.75186140996E+01  0.26571959878E+02  0.51100000000E-03 0. -1.
        -11    1    3    3    0    0 -0.22724792626E+01 -0.13406342441E+01 -0.13673149390E+01  0.29717019667E+01  0.51100000000E-03 0.  1.
         12    1    3    3    0    0 -0.37308773658E+01  0.20059582648E+02 -0.49062637144E+01  0.20985178712E+02  0.00000000000E+00 0. -1.
</event>
<event>
 7    1  0.4962385E-011  0.5052886E+02  0.7816164E-02  0.1300439E+00
        -11   -1    0    0    0    0  0.00000000000E+00  0.00000000000E+00  0.45593999997E+02  0.45594000000E+02  0.51100000000E-03 0. -1.
         11   -1    0    0    0    0 -0.00000000000E+00 -0.00000000000E+00 -0.45593999997E+02  0.45594000000E+02  0.51100000000E-03 0.  1.
    9900012    2    1    2    0    0  0.16399136493E+02  0.30015870872E+02  0.21983666621E+02  0.50528858592E+02  0.29999996176E+02 0.  0.
        -12    1    1    2    0    0 -0.16399136493E+02 -0.30015870872E+02 -0.21983666621E+02  0.40659141408E+02  0.00000000000E+00 0.  1.
         11    1    3    3    0    0  0.72781683951E+01  0.31435769354E+02  0.12053513478E+02  0.34445123276E+02  0.51100000000E-03 0. -1.
        -11    1    3    3    0    0  0.98618847055E+00  0.29087400224E+01  0.94508524608E+00  0.32134907189E+01  0.51100000000E-03 0.  1.
         12    1    3    3    0    0  0.81347796274E+01 -0.43286385039E+01  0.89850678966E+01  0.12870244597E+02  0.00000000000E+00 0. -1.
</event>
<event>
 7    1  0.4962385E-011  0.5052887E+02  0.7816164E-02  0.1300439E+00
        -11   -1    0    0    0    0  0.00000000000E+00  0.00000000000E+00  0.45593999997E+02  0.45594000000E+02  0.51100000000E-03 0.  1.
         11   -1    0    0    0    0 -0.00000000000E+00 -0.00000000000E+00 -0.45593999997E+02  0.45594000000E+02  0.51100000000E-03 0. -1.
    9900012    2    1    2    0    0  0.38560151701E+01 -0.21101856559E+02 -0.34539947712E+02  0.50528865834E+02  0.30000018189E+02 0.  0.
        -12    1    1    2    0    0 -0.38560151701E+01  0.21101856559E+02  0.34539947712E+02  0.40659134166E+02  0.00000000000E+00 0.  1.
         11    1    3    3    0    0  0.22800056392E+01 -0.26629132577E+02 -0.23928976123E+02  0.35873458518E+02  0.51100000000E-03 0. -1.
        -11    1    3    3    0    0  0.20056611723E+01  0.58406767521E+01 -0.27223484502E+01  0.67488786481E+01  0.51100000000E-03 0.  1.
        -12    1    3    3    0    0 -0.42965164143E+00 -0.31340073406E+00 -0.78886231382E+01  0.79065286675E+01  0.00000000000E+00 0.  1.
</event>
<event>
 7    1  0.4962385E-011  0.5052886E+02  0.7816164E-02  0.1300439E+00
        -11   -1    0    0    0    0  0.00000000000E+00  0.00000000000E+00  0.45593999997E+02  0.45594000000E+02  0.51100000000E-03 0.  1.
         11   -1    0    0    0    0 -0.00000000000E+00 -0.00000000000E+00 -0.45593999997E+02  0.45594000000E+02  0.51100000000E-03 0. -1.
    9900012    2    1    2    0    0  0.19786327202E+02 -0.45845716835E+01 -0.35222842105E+02  0.50528860221E+02  0.30000001126E+02 0.  0.
        -12    1    1    2    0    0 -0.19786327202E+02  0.45845716835E+01  0.35222842105E+02  0.40659139779E+02  0.00000000000E+00 0.  1.
         11    1    3    3    0    0  0.61515504630E+01  0.51218090796E+01 -0.16566913888E+01  0.81742967872E+01  0.51100000000E-03 0. -1.
        -11    1    3    3    0    0  0.18727660108E+02 -0.72500618864E+01 -0.27622803742E+02  0.34151250889E+02  0.51100000000E-03 0.  1.
        -12    1    3    3    0    0 -0.50928833693E+01 -0.24563188767E+01 -0.59433469742E+01  0.82033125440E+01  0.00000000000E+00 0.  1.
</event>
<event>
 7    1  0.4962385E-011  0.5052886E+02  0.7816164E-02  0.1300439E+00
        -11   -1    0    0    0    0  0.00000000000E+00  0.00000000000E+00  0.45593999997E+02  0.45594000000E+02  0.51100000000E-03 0.  1.
         11   -1    0    0    0    0 -0.00000000000E+00 -0.00000000000E+00 -0.45593999997E+02  0.45594000000E+02  0.51100000000E-03 0. -1.
    9900012    2    1    2    0    0 -0.12621479699E+02  0.24506360065E+02 -0.29888159028E+02  0.50528862239E+02  0.30000007261E+02 0.  0.
        -12    1    1    2    0    0  0.12621479699E+02 -0.24506360065E+02  0.29888159028E+02  0.40659137761E+02  0.00000000000E+00 0.  1.
         11    1    3    3    0    0 -0.97412497466E+01  0.17481609425E+02 -0.34262159267E+01  0.20303634418E+02  0.51100000000E-03 0.  1.
        -11    1    3    3    0    0 -0.57678367485E+01  0.65851487899E+01 -0.25780092965E+02  0.27225820812E+02  0.51100000000E-03 0. -1.
         12    1    3    3    0    0  0.28876067965E+01  0.43960184981E+00 -0.68185013569E+00  0.29994070089E+01  0.00000000000E+00 0. -1.
</event>
<event>
 7    1  0.4962385E-011  0.5052885E+02  0.7816164E-02  0.1300439E+00
        -11   -1    0    0    0    0  0.00000000000E+00  0.00000000000E+00  0.45593999997E+02  0.45594000000E+02  0.51100000000E-03 0. -1.
         11   -1    0    0    0    0 -0.00000000000E+00 -0.00000000000E+00 -0.45593999997E+02  0.45594000000E+02  0.51100000000E-03 0.  1.
    9900012    2    1    2    0    0  0.35872210753E+02 -0.10058986833E+02  0.16283970817E+02  0.50528850648E+02  0.29999972030E+02 0.  0.
        -12    1    1    2    0    0 -0.35872210753E+02  0.10058986833E+02 -0.16283970817E+02  0.40659149352E+02  0.00000000000E+00 0.  1.
         11    1    3    3    0    0  0.35173768250E+01  0.50448397951E+01  0.79813810873E+01  0.10075951201E+02  0.51100000000E-03 0. -1.
        -11    1    3    3    0    0  0.88127747306E+01 -0.41966590818E+01 -0.53533328147E+01  0.11132615074E+02  0.51100000000E-03 0.  1.
         12    1    3    3    0    0  0.23542059198E+02 -0.10907167547E+02  0.13655922544E+02  0.29320284373E+02  0.00000000000E+00 0. -1.
</event>
<event>
 7    1  0.4962385E-011  0.5052886E+02  0.7816164E-02  0.1300439E+00
        -11   -1    0    0    0    0  0.00000000000E+00  0.00000000000E+00  0.45593999997E+02  0.45594000000E+02  0.51100000000E-03 0.  1.
         11   -1    0    0    0    0 -0.00000000000E+00 -0.00000000000E+00 -0.45593999997E+02  0.45594000000E+02  0.51100000000E-03 0. -1.
    9900012    2    1    2    0    0 -0.17427325196E+01 -0.19759959505E+02 -0.35491869338E+02  0.50528857051E+02  0.29999991492E+02 0.  0.
        -12    1    1    2    0    0  0.17427325196E+01  0.19759959505E+02  0.35491869338E+02  0.40659142949E+02  0.00000000000E+00 0.  1.
         11    1    3    3    0    0  0.18219214969E+01 -0.15681622923E+02 -0.31339605371E+02  0.35091360198E+02  0.51100000000E-03 0. -1.
        -11    1    3    3    0    0  0.14863702496E+01  0.21272357318E+01  0.35059130685E+01  0.43618637166E+01  0.51100000000E-03 0.  1.
        -12    1    3    3    0    0 -0.50510242660E+01 -0.62055723134E+01 -0.76581770352E+01  0.11075633137E+02  0.00000000000E+00 0.  1.
</event>
<event>
 7    1  0.4962385E-011  0.5052886E+02  0.7816164E-02  0.1300439E+00
        -11   -1    0    0    0    0  0.00000000000E+00  0.00000000000E+00  0.45593999997E+02  0.45594000000E+02  0.51100000000E-03 0.  1.
         11   -1    0    0    0    0 -0.00000000000E+00 -0.00000000000E+00 -0.45593999997E+02  0.45594000000E+02  0.51100000000E-03 0. -1.
    9900012    2    1    2    0    0 -0.16322114304E+02 -0.18059321842E+02 -0.32567092453E+02  0.50528855499E+02  0.29999986774E+02 0.  0.
        -12    1    1    2    0    0  0.16322114304E+02  0.18059321842E+02  0.32567092453E+02  0.40659144501E+02  0.00000000000E+00 0.  1.
         11    1    3    3    0    0 -0.37069869870E+01 -0.15603146843E+02 -0.10377556783E+02  0.19102189115E+02  0.51100000000E-03 0. -1.
        -11    1    3    3    0    0 -0.14917929715E+02  0.52367894582E+00 -0.83919366968E+01  0.17124353080E+02  0.51100000000E-03 0.  1.
        -12    1    3    3    0    0  0.23028023988E+01 -0.29798539450E+01 -0.13797598973E+02  0.14302313304E+02  0.00000000000E+00 0.  1.
</event>
<event>
 7    1  0.5032047E-011  0.5052886E+02  0.7816164E-02  0.1300439E+00
        -11   -1    0    0    0    0  0.00000000000E+00  0.00000000000E+00  0.45593999997E+02  0.45594000000E+02  0.51100000000E-03 0. -1.
         11   -1    0    0    0    0 -0.00000000000E+00 -0.00000000000E+00 -0.45593999997E+02  0.45594000000E+02  0.51100000000E-03 0.  1.
    9900012    2    1    2    0    0  0.30844312369E+02  0.98396291233E+01  0.24596260779E+02  0.50528856488E+02  0.29999989782E+02 0.  0.
        -12    1    1    2    0    0 -0.30844312369E+02 -0.98396291233E+01 -0.24596260779E+02  0.40659143512E+02  0.00000000000E+00 0.  1.
         11    1    3    3    0    0  0.13932237041E+02  0.94653321944E+01  0.85916772451E+01  0.18908110975E+02  0.51100000000E-03 0. -1.
        -11    1    3    3    0    0  0.15787696453E+02 -0.55292301950E+01  0.25975338474E+01  0.16928405956E+02  0.51100000000E-03 0.  1.
        -12    1    3    3    0    0  0.11243788746E+01  0.59035271239E+01  0.13407049687E+02  0.14692339557E+02  0.00000000000E+00 0.  1.
</event>
<event>
 7    1  0.4962385E-011  0.5052886E+02  0.7816164E-02  0.1300439E+00
        -11   -1    0    0    0    0  0.00000000000E+00  0.00000000000E+00  0.45593999997E+02  0.45594000000E+02  0.51100000000E-03 0. -1.
         11   -1    0    0    0    0 -0.00000000000E+00 -0.00000000000E+00 -0.45593999997E+02  0.45594000000E+02  0.51100000000E-03 0.  1.
    9900012    2    1    2    0    0 -0.14897044850E+01  0.32452976322E+02 -0.24448947647E+02  0.50528856715E+02  0.29999990470E+02 0.  0.
        -12    1    1    2    0    0  0.14897044850E+01 -0.32452976322E+02  0.24448947647E+02  0.40659143285E+02  0.00000000000E+00 0.  1.
         11    1    3    3    0    0 -0.11995492534E+02  0.12849273082E+02 -0.29649113793E+01  0.17826563314E+02  0.51100000000E-03 0. -1.
        -11    1    3    3    0    0  0.10132564899E+02  0.20933319376E+02 -0.19982421382E+02  0.30662190008E+02  0.51100000000E-03 0.  1.
         12    1    3    3    0    0  0.37322315004E+00 -0.13296161352E+01 -0.15016148861E+01  0.20401033927E+01  0.00000000000E+00 0. -1.
</event>
<event>
 7    1  0.4962385E-011  0.5052888E+02  0.7816164E-02  0.1300439E+00
        -11   -1    0    0    0    0  0.00000000000E+00  0.00000000000E+00  0.45593999997E+02  0.45594000000E+02  0.51100000000E-03 0.  1.
         11   -1    0    0    0    0 -0.00000000000E+00 -0.00000000000E+00 -0.45593999997E+02  0.45594000000E+02  0.51100000000E-03 0. -1.
    9900012    2    1    2    0    0 -0.31590091889E+00  0.31895878710E+02 -0.25213429227E+02  0.50528881890E+02  0.30000066993E+02 0.  0.
        -12    1    1    2    0    0  0.31590091889E+00 -0.31895878710E+02  0.25213429227E+02  0.40659118110E+02  0.00000000000E+00 0.  1.
         11    1    3    3    0    0 -0.22855027676E+01 -0.20914362248E+01 -0.87450840635E+01  0.92776141288E+01  0.51100000000E-03 0. -1.
        -11    1    3    3    0    0  0.43699721612E+01  0.28511844642E+02 -0.64071134653E+01  0.29547809475E+02  0.51100000000E-03 0.  1.
        -12    1    3    3    0    0 -0.24003703125E+01  0.54754702931E+01 -0.10061231698E+02  0.11703458286E+02  0.00000000000E+00 0.  1.
</event>
<event>
 7    1  0.4962385E-011  0.5052886E+02  0.7816164E-02  0.1300439E+00
        -11   -1    0    0    0    0  0.00000000000E+00  0.00000000000E+00  0.45593999997E+02  0.45594000000E+02  0.51100000000E-03 0.  1.
         11   -1    0    0    0    0 -0.00000000000E+00 -0.00000000000E+00 -0.45593999997E+02  0.45594000000E+02  0.51100000000E-03 0. -1.
    9900012    2    1    2    0    0  0.25061987718E+02 -0.30028696935E+02 -0.11105851966E+02  0.50528858151E+02  0.29999994837E+02 0.  0.
        -12    1    1    2    0    0 -0.25061987718E+02  0.30028696935E+02  0.11105851966E+02  0.40659141849E+02  0.00000000000E+00 0.  1.
         11    1    3    3    0    0  0.19254717484E+02 -0.17081655281E+02 -0.11102884107E+02  0.28032144554E+02  0.51100000000E-03 0. -1.
        -11    1    3    3    0    0 -0.21569115685E+01  0.34677529713E+01  0.10658175739E+01  0.42206096179E+01  0.51100000000E-03 0.  1.
        -12    1    3    3    0    0  0.79641818022E+01 -0.16414794625E+02 -0.10687854330E+01  0.18276103980E+02  0.00000000000E+00 0.  1.
</event>
<event>
 7    1  0.4962385E-011  0.5052888E+02  0.7816164E-02  0.1300439E+00
        -11   -1    0    0    0    0  0.00000000000E+00  0.00000000000E+00  0.45593999997E+02  0.45594000000E+02  0.51100000000E-03 0.  1.
         11   -1    0    0    0    0 -0.00000000000E+00 -0.00000000000E+00 -0.45593999997E+02  0.45594000000E+02  0.51100000000E-03 0. -1.
    9900012    2    1    2    0    0 -0.27930031058E+02 -0.18746118007E+02 -0.22839892312E+02  0.50528877333E+02  0.30000053141E+02 0.  0.
        -12    1    1    2    0    0  0.27930031058E+02  0.18746118007E+02  0.22839892312E+02  0.40659122667E+02  0.00000000000E+00 0.  1.
         11    1    3    3    0    0 -0.11826049404E+02 -0.14353846833E+02 -0.41812979392E+01  0.19062308783E+02  0.51100000000E-03 0. -1.
        -11    1    3    3    0    0 -0.51963800273E+01  0.74992997341E+01 -0.55727850188E+01  0.10691014686E+02  0.51100000000E-03 0.  1.
         12    1    3    3    0    0 -0.10907601626E+02 -0.11891570909E+02 -0.13085809354E+02  0.20775553864E+02  0.00000000000E+00 0. -1.
</event>
<event>
 7    1  0.4962385E-011  0.5052886E+02  0.7816164E-02  0.1300439E+00
        -11   -1    0    0    0    0  0.00000000000E+00  0.00000000000E+00  0.45593999997E+02  0.45594000000E+02  0.51100000000E-03 0.  1.
         11   -1    0    0    0    0 -0.00000000000E+00 -0.00000000000E+00 -0.45593999997E+02  0.45594000000E+02  0.51100000000E-03 0. -1.
    9900012    2    1    2    0    0  0.28596485508E+02 -0.10441968779E+01 -0.28884540405E+02  0.50528855826E+02  0.29999987769E+02 0.  0.
        -12    1    1    2    0    0 -0.28596485508E+02  0.10441968779E+01  0.28884540405E+02  0.40659144174E+02  0.00000000000E+00 0.  1.
         11    1    3    3    0    0  0.22543131942E+02 -0.11859141648E+02 -0.99094445089E+01  0.27331833622E+02  0.51100000000E-03 0. -1.
        -11    1    3    3    0    0  0.11698926873E+01  0.63293769839E+01 -0.70057559436E+01  0.95136890062E+01  0.51100000000E-03 0.  1.
         12    1    3    3    0    0  0.48834608784E+01  0.44855677860E+01 -0.11969339953E+02  0.13683333198E+02  0.00000000000E+00 0. -1.
</event>
<event>
 7    1  0.4962385E-011  0.5052886E+02  0.7816164E-02  0.1300439E+00
        -11   -1    0    0    0    0  0.00000000000E+00  0.00000000000E+00  0.45593999997E+02  0.45594000000E+02  0.51100000000E-03 0.  1.
         11   -1    0    0    0    0 -0.00000000000E+00 -0.00000000000E+00 -0.45593999997E+02  0.45594000000E+02  0.51100000000E-03 0. -1.
    9900012    2    1    2    0    0  0.55638375597E+01 -0.19730085246E+02 -0.35113143686E+02  0.50528863121E+02  0.30000009944E+02 0.  0.
        -12    1    1    2    0    0 -0.55638375597E+01  0.19730085246E+02  0.35113143686E+02  0.40659136879E+02  0.00000000000E+00 0.  1.
         11    1    3    3    0    0  0.79881451152E+01 -0.14828764501E+02 -0.35397577620E+02  0.39200653319E+02  0.51100000000E-03 0. -1.
        -11    1    3    3    0    0 -0.20202037771E+01 -0.43665293329E+01  0.47805294287E+01  0.67824231360E+01  0.51100000000E-03 0.  1.
        -12    1    3    3    0    0 -0.40410377843E+00 -0.53479141171E+00 -0.44960954943E+01  0.45457866659E+01  0.00000000000E+00 0.  1.
</event>
<event>
 7    1  0.4962385E-011  0.5052887E+02  0.7816164E-02  0.1300439E+00
        -11   -1    0    0    0    0  0.00000000000E+00  0.00000000000E+00  0.45593999997E+02  0.45594000000E+02  0.51100000000E-03 0.  1.
         11   -1    0    0    0    0 -0.00000000000E+00 -0.00000000000E+00 -0.45593999997E+02  0.45594000000E+02  0.51100000000E-03 0. -1.
    9900012    2    1    2    0    0  0.31154365747E+02  0.17453421727E+02 -0.19440886092E+02  0.50528874492E+02  0.30000044505E+02 0.  0.
        -12    1    1    2    0    0 -0.31154365747E+02 -0.17453421727E+02  0.19440886092E+02  0.40659125508E+02  0.00000000000E+00 0.  1.
         11    1    3    3    0    0  0.21260555099E+02  0.94948285340E+01 -0.82762832524E+00  0.23299097427E+02  0.51100000000E-03 0. -1.
        -11    1    3    3    0    0 -0.28516780613E+01 -0.21792149220E+01 -0.33974233586E+01  0.49420169142E+01  0.51100000000E-03 0.  1.
         12    1    3    3    0    0  0.12745488709E+02  0.10137808115E+02 -0.15215834408E+02  0.22287760151E+02  0.00000000000E+00 0. -1.
</event>
<event>
 7    1  0.4962385E-011  0.5052886E+02  0.7816164E-02  0.1300439E+00
        -11   -1    0    0    0    0  0.00000000000E+00  0.00000000000E+00  0.45593999997E+02  0.45594000000E+02  0.51100000000E-03 0. -1.
         11   -1    0    0    0    0 -0.00000000000E+00 -0.00000000000E+00 -0.45593999997E+02  0.45594000000E+02  0.51100000000E-03 0.  1.
    9900012    2    1    2    0    0 -0.30213551596E+02 -0.25078299711E+02 -0.10553965879E+02  0.50528855737E+02  0.29999987497E+02 0.  0.
        -12    1    1    2    0    0  0.30213551596E+02  0.25078299711E+02  0.10553965879E+02  0.40659144263E+02  0.00000000000E+00 0.  1.
         11    1    3    3    0    0 -0.26917680824E+02 -0.41570046932E+01 -0.25508698066E+01  0.27355971304E+02  0.51100000000E-03 0. -1.
        -11    1    3    3    0    0 -0.60974361952E+00 -0.10442682269E+02 -0.63305999768E+01  0.12226933245E+02  0.51100000000E-03 0.  1.
         12    1    3    3    0    0 -0.26861271532E+01 -0.10478612748E+02 -0.16724960957E+01  0.10945951188E+02  0.00000000000E+00 0. -1.
</event>
<event>
 7    1  0.4962385E-011  0.5052884E+02  0.7816164E-02  0.1300439E+00
        -11   -1    0    0    0    0  0.00000000000E+00  0.00000000000E+00  0.45593999997E+02  0.45594000000E+02  0.51100000000E-03 0.  1.
         11   -1    0    0    0    0 -0.00000000000E+00 -0.00000000000E+00 -0.45593999997E+02  0.45594000000E+02  0.51100000000E-03 0. -1.
    9900012    2    1    2    0    0  0.28071584100E+02 -0.12719722363E+02 -0.26520973275E+02  0.50528841200E+02  0.29999943312E+02 0.  0.
        -12    1    1    2    0    0 -0.28071584100E+02  0.12719722363E+02  0.26520973275E+02  0.40659158800E+02  0.00000000000E+00 0.  1.
         11    1    3    3    0    0  0.14472823399E+02 -0.26851488252E+01 -0.20527692300E+02  0.25259825668E+02  0.51100000000E-03 0. -1.
        -11    1    3    3    0    0  0.95566620217E+01 -0.11224597276E+01  0.47550745667E+01  0.10733146754E+02  0.51100000000E-03 0.  1.
        -12    1    3    3    0    0  0.40420986787E+01 -0.89121138101E+01 -0.10748355542E+02  0.14535868779E+02  0.00000000000E+00 0.  1.
</event>
<event>
 7    1  0.4962385E-011  0.5052884E+02  0.7816164E-02  0.1300439E+00
        -11   -1    0    0    0    0  0.00000000000E+00  0.00000000000E+00  0.45593999997E+02  0.45594000000E+02  0.51100000000E-03 0. -1.
         11   -1    0    0    0    0 -0.00000000000E+00 -0.00000000000E+00 -0.45593999997E+02  0.45594000000E+02  0.51100000000E-03 0.  1.
    9900012    2    1    2    0    0  0.59155546807E+01  0.38536637015E+02  0.11536941430E+02  0.50528841165E+02  0.29999943206E+02 0.  0.
        -12    1    1    2    0    0 -0.59155546807E+01 -0.38536637015E+02 -0.11536941430E+02  0.40659158835E+02  0.00000000000E+00 0.  1.
         11    1    3    3    0    0  0.31711254347E+01  0.11151540312E+02  0.74270198613E+01  0.13768569720E+02  0.51100000000E-03 0. -1.
        -11    1    3    3    0    0  0.31715402883E+01  0.27694226817E+02 -0.44118435001E+01  0.28222211645E+02  0.51100000000E-03 0.  1.
        -12    1    3    3    0    0 -0.42711104232E+00 -0.30913011432E+00  0.85217650686E+01  0.85380598004E+01  0.00000000000E+00 0.  1.
</event>
<event>
 7    1  0.4962385E-011  0.5052886E+02  0.7816164E-02  0.1300439E+00
        -11   -1    0    0    0    0  0.00000000000E+00  0.00000000000E+00  0.45593999997E+02  0.45594000000E+02  0.51100000000E-03 0.  1.
         11   -1    0    0    0    0 -0.00000000000E+00 -0.00000000000E+00 -0.45593999997E+02  0.45594000000E+02  0.51100000000E-03 0. -1.
    9900012    2    1    2    0    0 -0.14509469513E+02 -0.17434049804E+02 -0.33744551960E+02  0.50528860989E+02  0.30000003461E+02 0.  0.
        -12    1    1    2    0    0  0.14509469513E+02  0.17434049804E+02  0.33744551960E+02  0.40659139011E+02  0.00000000000E+00 0.  1.
         11    1    3    3    0    0  0.31031449564E+01  0.45548400439E+01 -0.99457240815E+01  0.11370730153E+02  0.51100000000E-03 0. -1.
        -11    1    3    3    0    0 -0.15833926090E+02 -0.13917560208E+02 -0.22427871365E+02  0.30780206494E+02  0.51100000000E-03 0.  1.
        -12    1    3    3    0    0 -0.17786883801E+01 -0.80713296404E+01 -0.13709565139E+01  0.83779243420E+01  0.00000000000E+00 0.  1.
</event>
<event>
 7    1  0.4962385E-011  0.5052884E+02  0.7816164E-02  0.1300439E+00
        -11   -1    0    0    0    0  0.00000000000E+00  0.00000000000E+00  0.45593999997E+02  0.45594000000E+02  0.51100000000E-03 0.  1.
         11   -1    0    0    0    0 -0.00000000000E+00 -0.00000000000E+00 -0.45593999997E+02  0.45594000000E+02  0.51100000000E-03 0. -1.
    9900012    2    1    2    0    0  0.24845442648E+02 -0.25772701492E+02  0.19277937201E+02  0.50528843278E+02  0.29999949629E+02 0.  0.
        -12    1    1    2    0    0 -0.24845442648E+02  0.25772701492E+02 -0.19277937201E+02  0.40659156722E+02  0.00000000000E+00 0.  1.
         11    1    3    3    0    0  0.40277160359E+01  0.64387201286E+00 -0.41283578287E+01  0.58034822527E+01  0.51100000000E-03 0. -1.
        -11    1    3    3    0    0  0.23398201936E+02 -0.25648102990E+02  0.23671998601E+02  0.42019811504E+02  0.51100000000E-03 0.  1.
        -12    1    3    3    0    0 -0.25804753231E+01 -0.76847051496E+00 -0.26570357211E+00  0.27055495216E+01  0.00000000000E+00 0.  1.
</event>
<event>
 7    1  0.4962385E-011  0.5052886E+02  0.7816164E-02  0.1300439E+00
        -11   -1    0    0    0    0  0.00000000000E+00  0.00000000000E+00  0.45593999997E+02  0.45594000000E+02  0.51100000000E-03 0.  1.
         11   -1    0    0    0    0 -0.00000000000E+00 -0.00000000000E+00 -0.45593999997E+02  0.45594000000E+02  0.51100000000E-03 0. -1.
    9900012    2    1    2    0    0  0.24808599968E+02  0.12028899734E+02 -0.29883184848E+02  0.50528858373E+02  0.29999995511E+02 0.  0.
        -12    1    1    2    0    0 -0.24808599968E+02 -0.12028899734E+02  0.29883184848E+02  0.40659141627E+02  0.00000000000E+00 0.  1.
         11    1    3    3    0    0  0.13019694571E+02  0.13336019712E+02 -0.28307067125E+02  0.33891767702E+02  0.51100000000E-03 0. -1.
        -11    1    3    3    0    0  0.35287068379E+01 -0.17009025378E+01  0.47994796665E+01  0.61951470298E+01  0.51100000000E-03 0.  1.
        -12    1    3    3    0    0  0.82601985590E+01  0.39378256006E+00 -0.63755973899E+01  0.10441943642E+02  0.00000000000E+00 0.  1.
</event>
<event>
 7    1  0.4962385E-011  0.5052886E+02  0.7816164E-02  0.1300439E+00
        -11   -1    0    0    0    0  0.00000000000E+00  0.00000000000E+00  0.45593999997E+02  0.45594000000E+02  0.51100000000E-03 0.  1.
         11   -1    0    0    0    0 -0.00000000000E+00 -0.00000000000E+00 -0.45593999997E+02  0.45594000000E+02  0.51100000000E-03 0. -1.
    9900012    2    1    2    0    0 -0.24024576997E+02 -0.32540439050E+02  0.41358682937E+01  0.50528857363E+02  0.29999992439E+02 0.  0.
        -12    1    1    2    0    0  0.24024576997E+02  0.32540439050E+02 -0.41358682937E+01  0.40659142637E+02  0.00000000000E+00 0.  1.
         11    1    3    3    0    0 -0.10114858957E+02  0.11495865587E+01 -0.21158816540E+01  0.10397541845E+02  0.51100000000E-03 0. -1.
        -11    1    3    3    0    0 -0.19984185061E+00 -0.19878925904E+02  0.69065336959E+00  0.19891923844E+02  0.51100000000E-03 0.  1.
        -12    1    3    3    0    0 -0.13709876189E+02 -0.13811099705E+02  0.55610965782E+01  0.20239391674E+02  0.00000000000E+00 0.  1.
</event>
<event>
 7    1  0.4962385E-011  0.5052887E+02  0.7816164E-02  0.1300439E+00
        -11   -1    0    0    0    0  0.00000000000E+00  0.00000000000E+00  0.45593999997E+02  0.45594000000E+02  0.51100000000E-03 0.  1.
         11   -1    0    0    0    0 -0.00000000000E+00 -0.00000000000E+00 -0.45593999997E+02  0.45594000000E+02  0.51100000000E-03 0. -1.
    9900012    2    1    2    0    0  0.90908946067E+01 -0.33238700846E+02 -0.21580295702E+02  0.50528871120E+02  0.30000034258E+02 0.  0.
        -12    1    1    2    0    0 -0.90908946067E+01  0.33238700846E+02  0.21580295702E+02  0.40659128880E+02  0.00000000000E+00 0.  1.
         11    1    3    3    0    0 -0.82281852913E+00 -0.38977738019E+01 -0.12858382316E+01  0.41860543667E+01  0.51100000000E-03 0. -1.
        -11    1    3    3    0    0 -0.79969636689E+01 -0.64811578672E+01  0.98472095802E+00  0.10340527590E+02  0.51100000000E-03 0.  1.
        -12    1    3    3    0    0  0.17910676805E+02 -0.22859769176E+02 -0.21279178429E+02  0.36002289163E+02  0.00000000000E+00 0.  1.
</event>
<event>
 7    1  0.4962385E-011  0.5052887E+02  0.7816164E-02  0.1300439E+00
        -11   -1    0    0    0    0  0.00000000000E+00  0.00000000000E+00  0.45593999997E+02  0.45594000000E+02  0.51100000000E-03 0. -1.
         11   -1    0    0    0    0 -0.00000000000E+00 -0.00000000000E+00 -0.45593999997E+02  0.45594000000E+02  0.51100000000E-03 0.  1.
    9900012    2    1    2    0    0 -0.15615664640E+01 -0.40339703761E+02  0.48409551605E+01  0.50528867739E+02  0.30000023981E+02 0.  0.
        -12    1    1    2    0    0  0.15615664640E+01  0.40339703761E+02 -0.48409551605E+01  0.40659132261E+02  0.00000000000E+00 0.  1.
         11    1    3    3    0    0 -0.58200746246E+01 -0.31374169665E+02  0.11950003922E+02  0.34073661160E+02  0.51100000000E-03 0. -1.
        -11    1    3    3    0    0  0.50172687485E+01  0.76926285927E+00 -0.24023776696E+01  0.56157074149E+01  0.51100000000E-03 0.  1.
         12    1    3    3    0    0 -0.75876058792E+00 -0.97347969545E+01 -0.47066710921E+01  0.10839499165E+02  0.00000000000E+00 0. -1.
</event>
<event>
 7    1  0.4962385E-011  0.5052895E+02  0.7816164E-02  0.1300438E+00
        -11   -1    0    0    0    0  0.00000000000E+00  0.00000000000E+00  0.45593999997E+02  0.45594000000E+02  0.51100000000E-03 0.  1.
         11   -1    0    0    0    0 -0.00000000000E+00 -0.00000000000E+00 -0.45593999997E+02  0.45594000000E+02  0.51100000000E-03 0. -1.
    9900012    2    1    2    0    0  0.25276388459E+02  0.95988072118E+01 -0.30366511756E+02  0.50528954885E+02  0.30000288868E+02 0.  0.
        -12    1    1    2    0    0 -0.25276388459E+02 -0.95988072118E+01  0.30366511756E+02  0.40659045115E+02  0.00000000000E+00 0.  1.
         11    1    3    3    0    0 -0.25505772837E+01 -0.18716481048E+01  0.42158226681E+00  0.31915894124E+01  0.51100000000E-03 0. -1.
        -11    1    3    3    0    0  0.11153547692E+02  0.14181011815E+02 -0.10268865931E+02  0.20759391369E+02  0.51100000000E-03 0.  1.
        -12    1    3    3    0    0  0.16673418050E+02 -0.27105564983E+01 -0.20519228092E+02  0.26577974104E+02  0.00000000000E+00 0.  1.
</event>
<event>
 7    1  0.4962385E-011  0.5052887E+02  0.7816164E-02  0.1300439E+00
        -11   -1    0    0    0    0  0.00000000000E+00  0.00000000000E+00  0.45593999997E+02  0.45594000000E+02  0.51100000000E-03 0.  1.
         11   -1    0    0    0    0 -0.00000000000E+00 -0.00000000000E+00 -0.45593999997E+02  0.45594000000E+02  0.51100000000E-03 0. -1.
    9900012    2    1    2    0    0 -0.17301910835E+02  0.48880350141E+01 -0.36468011434E+02  0.50528869871E+02  0.30000030461E+02 0.  0.
        -12    1    1    2    0    0  0.17301910835E+02 -0.48880350141E+01  0.36468011434E+02  0.40659130129E+02  0.00000000000E+00 0.  1.
         11    1    3    3    0    0 -0.13206046060E+02  0.10124984498E+02 -0.18747629492E+02  0.25067679898E+02  0.51100000000E-03 0. -1.
        -11    1    3    3    0    0  0.32460197849E+01 -0.64777231402E+01 -0.12052077088E+01  0.73450709600E+01  0.51100000000E-03 0.  1.
        -12    1    3    3    0    0 -0.73418845598E+01  0.12407736565E+01 -0.16515174234E+02  0.18116119014E+02  0.00000000000E+00 0.  1.
</event>
<event>
 7    1  0.4962385E-011  0.5052886E+02  0.7816164E-02  0.1300439E+00
        -11   -1    0    0    0    0  0.00000000000E+00  0.00000000000E+00  0.45593999997E+02  0.45594000000E+02  0.51100000000E-03 0.  1.
         11   -1    0    0    0    0 -0.00000000000E+00 -0.00000000000E+00 -0.45593999997E+02  0.45594000000E+02  0.51100000000E-03 0. -1.
    9900012    2    1    2    0    0 -0.12049228303E+02 -0.24250502520E+02 -0.30329765098E+02  0.50528862945E+02  0.30000009407E+02 0.  0.
        -12    1    1    2    0    0  0.12049228303E+02  0.24250502520E+02  0.30329765098E+02  0.40659137055E+02  0.00000000000E+00 0.  1.
         11    1    3    3    0    0  0.73964020661E+01 -0.11745801485E+02 -0.17482851955E+02  0.22323098548E+02  0.51100000000E-03 0. -1.
        -11    1    3    3    0    0 -0.17566148692E+02 -0.12267619135E+02 -0.77770903069E+01  0.22793577889E+02  0.51100000000E-03 0.  1.
         12    1    3    3    0    0 -0.18794816777E+01 -0.23708190099E+00 -0.50698228355E+01  0.54121865071E+01  0.00000000000E+00 0. -1.
</event>
<event>
 7    1  0.4962385E-011  0.5052886E+02  0.7816164E-02  0.1300439E+00
        -11   -1    0    0    0    0  0.00000000000E+00  0.00000000000E+00  0.45593999997E+02  0.45594000000E+02  0.51100000000E-03 0.  1.
         11   -1    0    0    0    0 -0.00000000000E+00 -0.00000000000E+00 -0.45593999997E+02  0.45594000000E+02  0.51100000000E-03 0. -1.
    9900012    2    1    2    0    0 -0.70887375864E+01  0.20286624043E+02 -0.34516202737E+02  0.50528861212E+02  0.30000004140E+02 0.  0.
        -12    1    1    2    0    0  0.70887375864E+01 -0.20286624043E+02  0.34516202737E+02  0.40659138788E+02  0.00000000000E+00 0.  1.
         11    1    3    3    0    0 -0.12537479331E+02  0.11909108051E+02 -0.79802857962E+01  0.19044689658E+02  0.51100000000E-03 0. -1.
        -11    1    3    3    0    0  0.76414021896E+01  0.10732061847E+01 -0.66517273112E+01  0.10187653087E+02  0.51100000000E-03 0.  1.
         12    1    3    3    0    0 -0.21926604455E+01  0.73043098077E+01 -0.19884189629E+02  0.21296518467E+02  0.00000000000E+00 0. -1.
</event>
<event>
 7    1  0.4962385E-011  0.5052885E+02  0.7816164E-02  0.1300439E+00
        -11   -1    0    0    0    0  0.00000000000E+00  0.00000000000E+00  0.45593999997E+02  0.45594000000E+02  0.51100000000E-03 0.  1.
         11   -1    0    0    0    0 -0.00000000000E+00 -0.00000000000E+00 -0.45593999997E+02  0.45594000000E+02  0.51100000000E-03 0. -1.
    9900012    2    1    2    0    0 -0.39328590190E+02  0.85710997410E+01 -0.57414932386E+01  0.50528849718E+02  0.29999969202E+02 0.  0.
        -12    1    1    2    0    0  0.39328590190E+02 -0.85710997410E+01  0.57414932386E+01  0.40659150282E+02  0.00000000000E+00 0.  1.
         11    1    3    3    0    0  0.29248472825E+00  0.33562459660E+00  0.59102333938E+01  0.59269764819E+01  0.51100000000E-03 0. -1.
        -11    1    3    3    0    0 -0.12446609610E+02  0.97671113507E+01 -0.37336261083E+01  0.16255907206E+02  0.51100000000E-03 0.  1.
         12    1    3    3    0    0 -0.27174465308E+02 -0.15316362063E+01 -0.79181005242E+01  0.28345966029E+02  0.00000000000E+00 0. -1.
</event>
<event>
 7    1  0.4962385E-011  0.5052886E+02  0.7816164E-02  0.1300439E+00
        -11   -1    0    0    0    0  0.00000000000E+00  0.00000000000E+00  0.45593999997E+02  0.45594000000E+02  0.51100000000E-03 0.  1.
         11   -1    0    0    0    0 -0.00000000000E+00 -0.00000000000E+00 -0.45593999997E+02  0.45594000000E+02  0.51100000000E-03 0. -1.
    9900012    2    1    2    0    0  0.54956936710E+01  0.38831158860E+01 -0.40098434201E+02  0.50528860028E+02  0.30000000540E+02 0.  0.
        -12    1    1    2    0    0 -0.54956936710E+01 -0.38831158860E+01  0.40098434201E+02  0.40659139972E+02  0.00000000000E+00 0.  1.
         11    1    3    3    0    0 -0.78334585291E+01  0.97312135475E+01 -0.10568820955E+02  0.16363360482E+02  0.51100000000E-03 0. -1.
        -11    1    3    3    0    0  0.78736176823E+01 -0.42375690191E+01 -0.83457073485E+01  0.12231176477E+02  0.51100000000E-03 0.  1.
         12    1    3    3    0    0  0.54555345178E+01 -0.16105286425E+01 -0.21183905898E+02  0.21934323069E+02  0.00000000000E+00 0. -1.
</event>
<event>
 7    1  0.4962385E-011  0.5052886E+02  0.7816164E-02  0.1300439E+00
        -11   -1    0    0    0    0  0.00000000000E+00  0.00000000000E+00  0.45593999997E+02  0.45594000000E+02  0.51100000000E-03 0. -1.
         11   -1    0    0    0    0 -0.00000000000E+00 -0.00000000000E+00 -0.45593999997E+02  0.45594000000E+02  0.51100000000E-03 0.  1.
    9900012    2    1    2    0    0  0.15631846534E+02 -0.21523319706E+02 -0.30749928767E+02  0.50528855439E+02  0.29999986592E+02 0.  0.
        -12    1    1    2    0    0 -0.15631846534E+02  0.21523319706E+02  0.30749928767E+02  0.40659144561E+02  0.00000000000E+00 0.  1.
         11    1    3    3    0    0  0.12420916130E+02 -0.27898313829E+02 -0.18572974051E+02  0.35742837568E+02  0.51100000000E-03 0. -1.
        -11    1    3    3    0    0  0.27575431623E+01  0.62849541394E+01 -0.78202280074E+01  0.10404838258E+02  0.51100000000E-03 0.  1.
         12    1    3    3    0    0  0.45338724149E+00  0.90039983601E-01 -0.43567267086E+01  0.43811796131E+01  0.00000000000E+00 0. -1.
</event>
<event>
 7    1  0.4962385E-011  0.5052887E+02  0.7816164E-02  0.1300439E+00
        -11   -1    0    0    0    0  0.00000000000E+00  0.00000000000E+00  0.45593999997E+02  0.45594000000E+02  0.51100000000E-03 0.  1.
         11   -1    0    0    0    0 -0.00000000000E+00 -0.00000000000E+00 -0.45593999997E+02  0.45594000000E+02  0.51100000000E-03 0. -1.
    9900012    2    1    2    0    0 -0.11304703939E+02 -0.19881475472E+02 -0.33616888762E+02  0.50528873004E+02  0.30000039982E+02 0.  0.
        -12    1    1    2    0    0  0.11304703939E+02  0.19881475472E+02  0.33616888762E+02  0.40659126996E+02  0.00000000000E+00 0.  1.
         11    1    3    3    0    0 -0.10171593713E+02 -0.14184954349E+02 -0.11668338144E+02  0.20995817771E+02  0.51100000000E-03 0. -1.
        -11    1    3    3    0    0 -0.61957212790E-01  0.30514028418E+01 -0.20348027589E+02  0.20575643976E+02  0.51100000000E-03 0.  1.
        -12    1    3    3    0    0 -0.10711530129E+01 -0.87479239641E+01 -0.16005230280E+01  0.89574112567E+01  0.00000000000E+00 0.  1.
</event>
<event>
 7    1  0.4962385E-011  0.5052885E+02  0.7816164E-02  0.1300439E+00
        -11   -1    0    0    0    0  0.00000000000E+00  0.00000000000E+00  0.45593999997E+02  0.45594000000E+02  0.51100000000E-03 0.  1.
         11   -1    0    0    0    0 -0.00000000000E+00 -0.00000000000E+00 -0.45593999997E+02  0.45594000000E+02  0.51100000000E-03 0. -1.
    9900012    2    1    2    0    0 -0.31116247642E+02 -0.15322440628E+02 -0.21217178997E+02  0.50528846803E+02  0.29999960341E+02 0.  0.
        -12    1    1    2    0    0  0.31116247642E+02  0.15322440628E+02  0.21217178997E+02  0.40659153197E+02  0.00000000000E+00 0.  1.
         11    1    3    3    0    0 -0.16585116224E+02 -0.52353266249E+00 -0.19164429690E+02  0.25349862568E+02  0.51100000000E-03 0. -1.
        -11    1    3    3    0    0 -0.76315449251E+01 -0.10234390640E+02  0.55709867413E+01  0.13929074745E+02  0.51100000000E-03 0.  1.
        -12    1    3    3    0    0 -0.68995864928E+01 -0.45645173253E+01 -0.76237360483E+01  0.11249909489E+02  0.00000000000E+00 0.  1.
</event>
<event>
 7    1  0.4962385E-011  0.5052887E+02  0.7816164E-02  0.1300439E+00
        -11   -1    0    0    0    0  0.00000000000E+00  0.00000000000E+00  0.45593999997E+02  0.45594000000E+02  0.51100000000E-03 0.  1.
         11   -1    0    0    0    0 -0.00000000000E+00 -0.00000000000E+00 -0.45593999997E+02  0.45594000000E+02  0.51100000000E-03 0. -1.
    9900012    2    1    2    0    0  0.83926125600E+01  0.13145773044E+02 -0.37548869444E+02  0.50528869525E+02  0.30000029408E+02 0.  0.
        -12    1    1    2    0    0 -0.83926125600E+01 -0.13145773044E+02  0.37548869444E+02  0.40659130475E+02  0.00000000000E+00 0.  1.
         11    1    3    3    0    0  0.47286364342E+01  0.55504526004E+01 -0.74456705114E+01  0.10421397997E+02  0.51100000000E-03 0. -1.
        -11    1    3    3    0    0 -0.85063586069E+01 -0.41692721711E+01 -0.91414636822E+01  0.13164624024E+02  0.51100000000E-03 0.  1.
        -12    1    3    3    0    0  0.12170334733E+02  0.11764592614E+02 -0.20961735250E+02  0.26942847503E+02  0.00000000000E+00 0.  1.
</event>
<event>
 7    1  0.4962385E-011  0.5052885E+02  0.7816164E-02  0.1300439E+00
        -11   -1    0    0    0    0  0.00000000000E+00  0.00000000000E+00  0.45593999997E+02  0.45594000000E+02  0.51100000000E-03 0. -1.
         11   -1    0    0    0    0 -0.00000000000E+00 -0.00000000000E+00 -0.45593999997E+02  0.45594000000E+02  0.51100000000E-03 0.  1.
    9900012    2    1    2    0    0 -0.11552121634E+01 -0.12635013717E+02  0.38628851092E+02  0.50528853139E+02  0.29999979601E+02 0.  0.
        -12    1    1    2    0    0  0.11552121634E+01  0.12635013717E+02 -0.38628851092E+02  0.40659146861E+02  0.00000000000E+00 0.  1.
         11    1    3    3    0    0  0.60184142897E+01 -0.41339834602E+01  0.96857208698E+01  0.12129481392E+02  0.51100000000E-03 0. -1.
        -11    1    3    3    0    0 -0.91116992073E+01  0.64626872981E-01  0.28142398073E+02  0.29580767546E+02  0.51100000000E-03 0.  1.
        -12    1    3    3    0    0  0.19380727541E+01 -0.85656571302E+01  0.80073214932E+00  0.88186042006E+01  0.00000000000E+00 0.  1.
</event>
<event>
 7    1  0.4962385E-011  0.5052885E+02  0.7816164E-02  0.1300439E+00
        -11   -1    0    0    0    0  0.00000000000E+00  0.00000000000E+00  0.45593999997E+02  0.45594000000E+02  0.51100000000E-03 0.  1.
         11   -1    0    0    0    0 -0.00000000000E+00 -0.00000000000E+00 -0.45593999997E+02  0.45594000000E+02  0.51100000000E-03 0. -1.
    9900012    2    1    2    0    0 -0.17377852853E+02  0.32235054090E+02 -0.17665730845E+02  0.50528849391E+02  0.29999968208E+02 0.  0.
        -12    1    1    2    0    0  0.17377852853E+02 -0.32235054090E+02  0.17665730845E+02  0.40659150609E+02  0.00000000000E+00 0.  1.
         11    1    3    3    0    0  0.29630841824E+01 -0.38102069408E+01 -0.19189910221E+00  0.48305662535E+01  0.51100000000E-03 0. -1.
        -11    1    3    3    0    0 -0.23048919568E+01  0.21423111177E+01  0.68343379329E+00  0.32201096050E+01  0.51100000000E-03 0.  1.
         12    1    3    3    0    0 -0.18036045078E+02  0.33902949913E+02 -0.18157265536E+02  0.42478173532E+02  0.00000000000E+00 0. -1.
</event>
<event>
 7    1  0.4962385E-011  0.5052884E+02  0.7816164E-02  0.1300439E+00
        -11   -1    0    0    0    0  0.00000000000E+00  0.00000000000E+00  0.45593999997E+02  0.45594000000E+02  0.51100000000E-03 0.  1.
         11   -1    0    0    0    0 -0.00000000000E+00 -0.00000000000E+00 -0.45593999997E+02  0.45594000000E+02  0.51100000000E-03 0. -1.
    9900012    2    1    2    0    0  0.10151030890E+01 -0.19684871775E+01 -0.40598790725E+02  0.50528841322E+02  0.29999943682E+02 0.  0.
        -12    1    1    2    0    0 -0.10151030890E+01  0.19684871775E+01  0.40598790725E+02  0.40659158678E+02  0.00000000000E+00 0.  1.
         11    1    3    3    0    0  0.45619772799E+01 -0.36403518621E+01 -0.41598855656E+01  0.71671784241E+01  0.51100000000E-03 0. -1.
        -11    1    3    3    0    0 -0.45768578017E+00  0.11254164787E+02 -0.28152823253E+02  0.30322387088E+02  0.51100000000E-03 0.  1.
        -12    1    3    3    0    0 -0.30891884108E+01 -0.95823001023E+01 -0.82860819069E+01  0.13039275810E+02  0.00000000000E+00 0.  1.
</event>
<event>
 7    1  0.4962385E-011  0.5052887E+02  0.7816164E-02  0.1300439E+00
        -11   -1    0    0    0    0  0.00000000000E+00  0.00000000000E+00  0.45593999997E+02  0.45594000000E+02  0.51100000000E-03 0.  1.
         11   -1    0    0    0    0 -0.00000000000E+00 -0.00000000000E+00 -0.45593999997E+02  0.45594000000E+02  0.51100000000E-03 0. -1.
    9900012    2    1    2    0    0 -0.11247677842E+02  0.30945521489E+02 -0.23854341682E+02  0.50528866043E+02  0.30000018825E+02 0.  0.
        -12    1    1    2    0    0  0.11247677842E+02 -0.30945521489E+02  0.23854341682E+02  0.40659133957E+02  0.00000000000E+00 0.  1.
         11    1    3    3    0    0 -0.11023144663E+02  0.15817991589E+02 -0.10423705175E+02  0.21917395055E+02  0.51100000000E-03 0. -1.
        -11    1    3    3    0    0  0.82978895906E+01  0.14247355345E+02 -0.10542441804E+02  0.19570007293E+02  0.51100000000E-03 0.  1.
        -12    1    3    3    0    0 -0.85224227696E+01  0.88017455486E+00 -0.28881947021E+01  0.90414636950E+01  0.00000000000E+00 0.  1.
</event>
<event>
 7    1  0.4962385E-011  0.5052886E+02  0.7816164E-02  0.1300439E+00
        -11   -1    0    0    0    0  0.00000000000E+00  0.00000000000E+00  0.45593999997E+02  0.45594000000E+02  0.51100000000E-03 0.  1.
         11   -1    0    0    0    0 -0.00000000000E+00 -0.00000000000E+00 -0.45593999997E+02  0.45594000000E+02  0.51100000000E-03 0. -1.
    9900012    2    1    2    0    0 -0.39264596328E+01 -0.22792444376E+02 -0.33440290116E+02  0.50528860696E+02  0.30000002572E+02 0.  0.
        -12    1    1    2    0    0  0.39264596328E+01  0.22792444376E+02  0.33440290116E+02  0.40659139304E+02  0.00000000000E+00 0.  1.
         11    1    3    3    0    0  0.28458086860E+01 -0.10354240552E+02  0.23235331687E+00  0.10740712863E+02  0.51100000000E-03 0. -1.
        -11    1    3    3    0    0 -0.70251061007E+00  0.34919493737E+01 -0.10005513831E+02  0.10620618573E+02  0.51100000000E-03 0.  1.
         12    1    3    3    0    0 -0.60697577087E+01 -0.15930153198E+02 -0.23667129602E+02  0.29167529260E+02  0.00000000000E+00 0. -1.
</event>
<event>
 7    1  0.4962385E-011  0.5052887E+02  0.7816164E-02  0.1300439E+00
        -11   -1    0    0    0    0  0.00000000000E+00  0.00000000000E+00  0.45593999997E+02  0.45594000000E+02  0.51100000000E-03 0.  1.
         11   -1    0    0    0    0 -0.00000000000E+00 -0.00000000000E+00 -0.45593999997E+02  0.45594000000E+02  0.51100000000E-03 0. -1.
    9900012    2    1    2    0    0  0.37474640254E+02  0.15407352823E+02 -0.33808187361E+01  0.50528866727E+02  0.30000020903E+02 0.  0.
        -12    1    1    2    0    0 -0.37474640254E+02 -0.15407352823E+02  0.33808187361E+01  0.40659133273E+02  0.00000000000E+00 0.  1.
         11    1    3    3    0    0  0.56766722120E+01  0.12936322000E+02  0.50676131091E+01  0.15008455522E+02  0.51100000000E-03 0. -1.
        -11    1    3    3    0    0  0.89478504089E+01  0.19741446987E+01 -0.87401968832E+01  0.12663029497E+02  0.51100000000E-03 0.  1.
         12    1    3    3    0    0  0.22850117633E+02  0.49688612482E+00  0.29176503801E+00  0.22857381707E+02  0.00000000000E+00 0. -1.
</event>
<event>
 7    1  0.4962385E-011  0.5052887E+02  0.7816164E-02  0.1300439E+00
        -11   -1    0    0    0    0  0.00000000000E+00  0.00000000000E+00  0.45593999997E+02  0.45594000000E+02  0.51100000000E-03 0.  1.
         11   -1    0    0    0    0 -0.00000000000E+00 -0.00000000000E+00 -0.45593999997E+02  0.45594000000E+02  0.51100000000E-03 0. -1.
    9900012    2    1    2    0    0  0.42040748192E+01  0.33880853093E+01 -0.40299029886E+02  0.50528866009E+02  0.30000018721E+02 0.  0.
        -12    1    1    2    0    0 -0.42040748192E+01 -0.33880853093E+01  0.40299029886E+02  0.40659133991E+02  0.00000000000E+00 0.  1.
         11    1    3    3    0    0  0.97466797993E+01  0.16498158050E+01 -0.25221419190E+02  0.27089474811E+02  0.51100000000E-03 0. -1.
        -11    1    3    3    0    0 -0.11079886344E+02 -0.16572737776E+01 -0.11361617712E+02  0.15956089591E+02  0.51100000000E-03 0.  1.
        -12    1    3    3    0    0  0.55372813635E+01  0.33955432819E+01 -0.37159929842E+01  0.74833016067E+01  0.00000000000E+00 0.  1.
</event>
<event>
 7    1  0.4962385E-011  0.5052887E+02  0.7816164E-02  0.1300439E+00
        -11   -1    0    0    0    0  0.00000000000E+00  0.00000000000E+00  0.45593999997E+02  0.45594000000E+02  0.51100000000E-03 0.  1.
         11   -1    0    0    0    0 -0.00000000000E+00 -0.00000000000E+00 -0.45593999997E+02  0.45594000000E+02  0.51100000000E-03 0. -1.
    9900012    2    1    2    0    0 -0.40444811284E+02 -0.22119533022E+01  0.35340830839E+01  0.50528865228E+02  0.30000016346E+02 0.  0.
        -12    1    1    2    0    0  0.40444811284E+02  0.22119533022E+01 -0.35340830839E+01  0.40659134772E+02  0.00000000000E+00 0.  1.
         11    1    3    3    0    0 -0.85990731668E+01  0.61418210916E+01 -0.92331077456E+01  0.14032687004E+02  0.51100000000E-03 0.  1.
        -11    1    3    3    0    0 -0.56507254342E+01  0.19941099156E+01  0.16365769049E+01  0.62117273375E+01  0.51100000000E-03 0. -1.
         12    1    3    3    0    0 -0.26195012683E+02 -0.10347884309E+02  0.11130613925E+02  0.30284450886E+02  0.00000000000E+00 0. -1.
</event>
<event>
 7    1  0.4962385E-011  0.5052891E+02  0.7816164E-02  0.1300439E+00
        -11   -1    0    0    0    0  0.00000000000E+00  0.00000000000E+00  0.45593999997E+02  0.45594000000E+02  0.51100000000E-03 0.  1.
         11   -1    0    0    0    0 -0.00000000000E+00 -0.00000000000E+00 -0.45593999997E+02  0.45594000000E+02  0.51100000000E-03 0. -1.
    9900012    2    1    2    0    0  0.26882976033E+02  0.26051164679E+02 -0.15868346064E+02  0.50528905220E+02  0.30000137905E+02 0.  0.
        -12    1    1    2    0    0 -0.26882976033E+02 -0.26051164679E+02  0.15868346064E+02  0.40659094780E+02  0.00000000000E+00 0.  1.
         11    1    3    3    0    0  0.14437089152E+02  0.29556340290E+01 -0.15330494227E+02  0.21264744748E+02  0.51100000000E-03 0. -1.
        -11    1    3    3    0    0 -0.13133597994E+01  0.87536744773E+01 -0.27443103862E+01  0.92673065437E+01  0.51100000000E-03 0.  1.
         12    1    3    3    0    0  0.13759246681E+02  0.14341856173E+02  0.22064585486E+01  0.19996853928E+02  0.00000000000E+00 0. -1.
</event>
<event>
 7    1  0.6461626E-011  0.5052886E+02  0.7816164E-02  0.1300439E+00
        -11   -1    0    0    0    0  0.00000000000E+00  0.00000000000E+00  0.45593999997E+02  0.45594000000E+02  0.51100000000E-03 0.  1.
         11   -1    0    0    0    0 -0.00000000000E+00 -0.00000000000E+00 -0.45593999997E+02  0.45594000000E+02  0.51100000000E-03 0. -1.
    9900012    2    1    2    0    0 -0.15062418724E+02 -0.34965023596E+02 -0.14273633059E+02  0.50528856704E+02  0.29999990436E+02 0.  0.
        -12    1    1    2    0    0  0.15062418724E+02  0.34965023596E+02  0.14273633059E+02  0.40659143296E+02  0.00000000000E+00 0.  1.
         11    1    3    3    0    0 -0.89324537718E+01 -0.17173786536E+02 -0.60960434448E+01  0.20295059012E+02  0.51100000000E-03 0. -1.
        -11    1    3    3    0    0 -0.83581023120E+01  0.11774959393E+01 -0.72255480116E+01  0.11110936741E+02  0.51100000000E-03 0.  1.
        -12    1    3    3    0    0  0.22281373598E+01 -0.18968732999E+02 -0.95204160276E+00  0.19122860950E+02  0.00000000000E+00 0.  1.
</event>
<event>
 7    1  0.4962385E-011  0.5052883E+02  0.7816164E-02  0.1300439E+00
        -11   -1    0    0    0    0  0.00000000000E+00  0.00000000000E+00  0.45593999997E+02  0.45594000000E+02  0.51100000000E-03 0. -1.
         11   -1    0    0    0    0 -0.00000000000E+00 -0.00000000000E+00 -0.45593999997E+02  0.45594000000E+02  0.51100000000E-03 0.  1.
    9900012    2    1    2    0    0  0.34175835604E+02 -0.11067899896E+02  0.19044203967E+02  0.50528833112E+02  0.29999918727E+02 0.  0.
        -12    1    1    2    0    0 -0.34175835604E+02  0.11067899896E+02 -0.19044203967E+02  0.40659166888E+02  0.00000000000E+00 0.  1.
         11    1    3    3    0    0  0.85030641320E+01 -0.11281847813E+02  0.86784203825E+00  0.14153986710E+02  0.51100000000E-03 0. -1.
        -11    1    3    3    0    0  0.44271343575E+01  0.47086276784E+01  0.12273221793E+02  0.13870928832E+02  0.51100000000E-03 0.  1.
         12    1    3    3    0    0  0.21245637114E+02 -0.44946797606E+01  0.59031401360E+01  0.22503917570E+02  0.00000000000E+00 0. -1.
</event>
<event>
 7    1  0.4962385E-011  0.5052886E+02  0.7816164E-02  0.1300439E+00
        -11   -1    0    0    0    0  0.00000000000E+00  0.00000000000E+00  0.45593999997E+02  0.45594000000E+02  0.51100000000E-03 0.  1.
         11   -1    0    0    0    0 -0.00000000000E+00 -0.00000000000E+00 -0.45593999997E+02  0.45594000000E+02  0.51100000000E-03 0. -1.
    9900012    2    1    2    0    0 -0.31751178283E+02  0.42739687109E+01 -0.25035204076E+02  0.50528861125E+02  0.30000003876E+02 0.  0.
        -12    1    1    2    0    0  0.31751178283E+02 -0.42739687109E+01  0.25035204076E+02  0.40659138875E+02  0.00000000000E+00 0.  1.
         11    1    3    3    0    0 -0.29451516410E+02  0.62603632298E+01 -0.13961834441E+02  0.33189106463E+02  0.51100000000E-03 0. -1.
        -11    1    3    3    0    0  0.48976344485E+01 -0.24451199623E+01 -0.75161595303E+01  0.92982842055E+01  0.51100000000E-03 0.  1.
        -12    1    3    3    0    0 -0.71972963216E+01  0.45872544329E+00 -0.35572101045E+01  0.80414704564E+01  0.00000000000E+00 0.  1.
</event>
<event>
 7    1  0.4962385E-011  0.5052886E+02  0.7816164E-02  0.1300439E+00
        -11   -1    0    0    0    0  0.00000000000E+00  0.00000000000E+00  0.45593999997E+02  0.45594000000E+02  0.51100000000E-03 0. -1.
         11   -1    0    0    0    0 -0.00000000000E+00 -0.00000000000E+00 -0.45593999997E+02  0.45594000000E+02  0.51100000000E-03 0.  1.
    9900012    2    1    2    0    0 -0.20583115885E+02 -0.32090483885E+02  0.14131594674E+02  0.50528858549E+02  0.29999996045E+02 0.  0.
        -12    1    1    2    0    0  0.20583115885E+02  0.32090483885E+02 -0.14131594674E+02  0.40659141451E+02  0.00000000000E+00 0.  1.
         11    1    3    3    0    0  0.52250814486E-01 -0.30663012315E+01  0.14204313684E+02  0.14531602144E+02  0.51100000000E-03 0. -1.
        -11    1    3    3    0    0 -0.95648096409E+01 -0.16053798751E+02  0.21088006042E+01  0.18805772466E+02  0.51100000000E-03 0.  1.
         12    1    3    3    0    0 -0.11070557059E+02 -0.12970383902E+02 -0.21815196143E+01  0.17191483938E+02  0.00000000000E+00 0. -1.
</event>
<event>
 7    1  0.4962385E-011  0.5052886E+02  0.7816164E-02  0.1300439E+00
        -11   -1    0    0    0    0  0.00000000000E+00  0.00000000000E+00  0.45593999997E+02  0.45594000000E+02  0.51100000000E-03 0.  1.
         11   -1    0    0    0    0 -0.00000000000E+00 -0.00000000000E+00 -0.45593999997E+02  0.45594000000E+02  0.51100000000E-03 0. -1.
    9900012    2    1    2    0    0 -0.10021738785E+02 -0.17615130047E+02 -0.35248223615E+02  0.50528864214E+02  0.30000013264E+02 0.  0.
        -12    1    1    2    0    0  0.10021738785E+02  0.17615130047E+02  0.35248223615E+02  0.40659135786E+02  0.00000000000E+00 0.  1.
         11    1    3    3    0    0 -0.92575276801E+01 -0.11282730165E+02 -0.34385031196E+02  0.37354145544E+02  0.51100000000E-03 0. -1.
        -11    1    3    3    0    0 -0.35141197727E+01  0.90982280266E-01  0.34809212612E+01  0.49471333761E+01  0.51100000000E-03 0.  1.
         12    1    3    3    0    0  0.27499086683E+01 -0.64233821626E+01 -0.43441136810E+01  0.82275852936E+01  0.00000000000E+00 0. -1.
</event>
<event>
 7    1  0.4962385E-011  0.5052886E+02  0.7816164E-02  0.1300439E+00
        -11   -1    0    0    0    0  0.00000000000E+00  0.00000000000E+00  0.45593999997E+02  0.45594000000E+02  0.51100000000E-03 0. -1.
         11   -1    0    0    0    0 -0.00000000000E+00 -0.00000000000E+00 -0.45593999997E+02  0.45594000000E+02  0.51100000000E-03 0.  1.
    9900012    2    1    2    0    0  0.98738994974E+01  0.33656640344E+02  0.20564586876E+02  0.50528861250E+02  0.30000004255E+02 0.  0.
        -12    1    1    2    0    0 -0.98738994974E+01 -0.33656640344E+02 -0.20564586876E+02  0.40659138750E+02  0.00000000000E+00 0.  1.
         11    1    3    3    0    0  0.29662542654E+01  0.32193340042E+01 -0.71742508393E+01  0.84043233615E+01  0.51100000000E-03 0.  1.
        -11    1    3    3    0    0  0.70063624975E+01  0.19325716103E+02  0.18923314102E+02  0.27940369274E+02  0.51100000000E-03 0. -1.
        -12    1    3    3    0    0 -0.98717265519E-01  0.11111590237E+02  0.88155236138E+01  0.14184168614E+02  0.00000000000E+00 0.  1.
</event>
<event>
 7    1  0.4962385E-011  0.5052886E+02  0.7816164E-02  0.1300439E+00
        -11   -1    0    0    0    0  0.00000000000E+00  0.00000000000E+00  0.45593999997E+02  0.45594000000E+02  0.51100000000E-03 0. -1.
         11   -1    0    0    0    0 -0.00000000000E+00 -0.00000000000E+00 -0.45593999997E+02  0.45594000000E+02  0.51100000000E-03 0.  1.
    9900012    2    1    2    0    0  0.19723136344E+02 -0.25310838558E+02  0.24970485096E+02  0.50528858572E+02  0.29999996115E+02 0.  0.
        -12    1    1    2    0    0 -0.19723136344E+02  0.25310838558E+02 -0.24970485096E+02  0.40659141428E+02  0.00000000000E+00 0.  1.
         11    1    3    3    0    0 -0.68732659721E+01 -0.65873102527E+01  0.92773205904E+01  0.13292972545E+02  0.51100000000E-03 0. -1.
        -11    1    3    3    0    0  0.76986006434E+01 -0.28630686027E+01  0.43048674600E+00  0.82250187106E+01  0.51100000000E-03 0.  1.
         12    1    3    3    0    0  0.18897801673E+02 -0.15860459702E+02  0.15262677760E+02  0.29010867316E+02  0.00000000000E+00 0. -1.
</event>
<event>
 7    1  0.4962385E-011  0.5052886E+02  0.7816164E-02  0.1300439E+00
        -11   -1    0    0    0    0  0.00000000000E+00  0.00000000000E+00  0.45593999997E+02  0.45594000000E+02  0.51100000000E-03 0. -1.
         11   -1    0    0    0    0 -0.00000000000E+00 -0.00000000000E+00 -0.45593999997E+02  0.45594000000E+02  0.51100000000E-03 0.  1.
    9900012    2    1    2    0    0 -0.24527544780E+02  0.31601119688E+02 -0.72756090955E+01  0.50528859500E+02  0.29999998937E+02 0.  0.
        -12    1    1    2    0    0  0.24527544780E+02 -0.31601119688E+02  0.72756090955E+01  0.40659140500E+02  0.00000000000E+00 0.  1.
         11    1    3    3    0    0 -0.17021253803E+02  0.17476533135E+02 -0.45154946432E+01  0.24810118572E+02  0.51100000000E-03 0. -1.
        -11    1    3    3    0    0  0.53167175098E+01  0.97900473764E+01 -0.46107655458E+01  0.12057017537E+02  0.51100000000E-03 0.  1.
        -12    1    3    3    0    0 -0.12823008487E+02  0.43345391768E+01  0.18506510936E+01  0.13661723391E+02  0.00000000000E+00 0.  1.
</event>
<event>
 7    1  0.4962385E-011  0.5052886E+02  0.7816164E-02  0.1300439E+00
        -11   -1    0    0    0    0  0.00000000000E+00  0.00000000000E+00  0.45593999997E+02  0.45594000000E+02  0.51100000000E-03 0. -1.
         11   -1    0    0    0    0 -0.00000000000E+00 -0.00000000000E+00 -0.45593999997E+02  0.45594000000E+02  0.51100000000E-03 0.  1.
    9900012    2    1    2    0    0 -0.20664173088E+02  0.11948681736E+02  0.32914839745E+02  0.50528859329E+02  0.29999998416E+02 0.  0.
        -12    1    1    2    0    0  0.20664173088E+02 -0.11948681736E+02 -0.32914839745E+02  0.40659140671E+02  0.00000000000E+00 0.  1.
         11    1    3    3    0    0 -0.10454105766E+01  0.14857833254E+02  0.24448744842E+02  0.28628468644E+02  0.51100000000E-03 0. -1.
        -11    1    3    3    0    0 -0.40819474794E+01 -0.21237906486E+01  0.25187344642E+01  0.52456463382E+01  0.51100000000E-03 0.  1.
         12    1    3    3    0    0 -0.15536815032E+02 -0.78536087030E+00  0.59473604389E+01  0.16654744346E+02  0.00000000000E+00 0. -1.
</event>
<event>
 7    1  0.4962385E-011  0.5052886E+02  0.7816164E-02  0.1300439E+00
        -11   -1    0    0    0    0  0.00000000000E+00  0.00000000000E+00  0.45593999997E+02  0.45594000000E+02  0.51100000000E-03 0. -1.
         11   -1    0    0    0    0 -0.00000000000E+00 -0.00000000000E+00 -0.45593999997E+02  0.45594000000E+02  0.51100000000E-03 0.  1.
    9900012    2    1    2    0    0 -0.29656758559E+02 -0.24753274821E+02  0.12685342680E+02  0.50528857590E+02  0.29999993131E+02 0.  0.
        -12    1    1    2    0    0  0.29656758559E+02  0.24753274821E+02 -0.12685342680E+02  0.40659142410E+02  0.00000000000E+00 0.  1.
         11    1    3    3    0    0 -0.11126987783E+02 -0.11218954795E+01  0.16072597162E+02  0.19580523138E+02  0.51100000000E-03 0. -1.
        -11    1    3    3    0    0 -0.17960010445E+02 -0.19651308288E+02 -0.20080778427E+01  0.26697720305E+02  0.51100000000E-03 0.  1.
         12    1    3    3    0    0 -0.56976033161E+00 -0.39800710531E+01 -0.13791766392E+01  0.42506141468E+01  0.00000000000E+00 0. -1.
</event>
<event>
 7    1  0.4962385E-011  0.5052887E+02  0.7816164E-02  0.1300439E+00
        -11   -1    0    0    0    0  0.00000000000E+00  0.00000000000E+00  0.45593999997E+02  0.45594000000E+02  0.51100000000E-03 0.  1.
         11   -1    0    0    0    0 -0.00000000000E+00 -0.00000000000E+00 -0.45593999997E+02  0.45594000000E+02  0.51100000000E-03 0. -1.
    9900012    2    1    2    0    0  0.38336864253E+02  0.56188599461E+01 -0.12323871336E+02  0.50528873687E+02  0.30000042058E+02 0.  0.
        -12    1    1    2    0    0 -0.38336864253E+02 -0.56188599461E+01  0.12323871336E+02  0.40659126313E+02  0.00000000000E+00 0.  1.
         11    1    3    3    0    0  0.39967510124E+02  0.21884607833E+01 -0.98288803970E+01  0.41216478698E+02  0.51100000000E-03 0. -1.
        -11    1    3    3    0    0 -0.23577801984E+01  0.51943844194E+01  0.53738241746E+00  0.57297065444E+01  0.51100000000E-03 0.  1.
        -12    1    3    3    0    0  0.72713432702E+00 -0.17639852566E+01 -0.30323733568E+01  0.35826884445E+01  0.00000000000E+00 0.  1.
</event>
<event>
 7    1  0.4962385E-011  0.5052886E+02  0.7816164E-02  0.1300439E+00
        -11   -1    0    0    0    0  0.00000000000E+00  0.00000000000E+00  0.45593999997E+02  0.45594000000E+02  0.51100000000E-03 0.  1.
         11   -1    0    0    0    0 -0.00000000000E+00 -0.00000000000E+00 -0.45593999997E+02  0.45594000000E+02  0.51100000000E-03 0. -1.
    9900012    2    1    2    0    0  0.91069280722E+01 -0.63737531695E+01 -0.39110160383E+02  0.50528861869E+02  0.30000006138E+02 0.  0.
        -12    1    1    2    0    0 -0.91069280722E+01  0.63737531695E+01  0.39110160383E+02  0.40659138131E+02  0.00000000000E+00 0.  1.
         11    1    3    3    0    0  0.10319355194E+02 -0.87988750678E+01 -0.26030776045E+02  0.29351500743E+02  0.51100000000E-03 0. -1.
        -11    1    3    3    0    0 -0.70045838270E+01 -0.33411809110E+01 -0.94674284442E+01  0.12241727251E+02  0.51100000000E-03 0.  1.
         12    1    3    3    0    0  0.57921567051E+01  0.57663028093E+01 -0.36119558931E+01  0.89356338756E+01  0.00000000000E+00 0. -1.
</event>
<event>
 7    1  0.4962385E-011  0.5052883E+02  0.7816164E-02  0.1300439E+00
        -11   -1    0    0    0    0  0.00000000000E+00  0.00000000000E+00  0.45593999997E+02  0.45594000000E+02  0.51100000000E-03 0.  1.
         11   -1    0    0    0    0 -0.00000000000E+00 -0.00000000000E+00 -0.45593999997E+02  0.45594000000E+02  0.51100000000E-03 0. -1.
    9900012    2    1    2    0    0  0.38545184725E+02  0.12879241123E+02  0.12496332709E+01  0.50528834973E+02  0.29999924383E+02 0.  0.
        -12    1    1    2    0    0 -0.38545184725E+02 -0.12879241123E+02 -0.12496332709E+01  0.40659165027E+02  0.00000000000E+00 0.  1.
         11    1    3    3    0    0  0.14963884238E+02  0.11167724102E+02  0.82427114198E+01  0.20410247057E+02  0.51100000000E-03 0. -1.
        -11    1    3    3    0    0  0.77708047012E+01 -0.72019613097E+01 -0.54192413826E+01  0.11900497041E+02  0.51100000000E-03 0.  1.
        -12    1    3    3    0    0  0.15810495786E+02  0.89134783305E+01 -0.15738367662E+01  0.18218090874E+02  0.00000000000E+00 0.  1.
</event>
<event>
 7    1  0.4962385E-011  0.5052884E+02  0.7816164E-02  0.1300439E+00
        -11   -1    0    0    0    0  0.00000000000E+00  0.00000000000E+00  0.45593999997E+02  0.45594000000E+02  0.51100000000E-03 0.  1.
         11   -1    0    0    0    0 -0.00000000000E+00 -0.00000000000E+00 -0.45593999997E+02  0.45594000000E+02  0.51100000000E-03 0. -1.
    9900012    2    1    2    0    0 -0.37520927265E+01 -0.13618364833E+02 -0.38126488500E+02  0.50528841304E+02  0.29999943627E+02 0.  0.
        -12    1    1    2    0    0  0.37520927265E+01  0.13618364833E+02  0.38126488500E+02  0.40659158696E+02  0.00000000000E+00 0.  1.
         11    1    3    3    0    0 -0.18602570122E+01 -0.21580827973E+00 -0.27372503097E+02  0.27436491311E+02  0.51100000000E-03 0. -1.
        -11    1    3    3    0    0  0.31174319220E+01 -0.13328101536E+02 -0.32477842274E+01  0.14067863200E+02  0.51100000000E-03 0.  1.
        -12    1    3    3    0    0 -0.50092676363E+01 -0.74455017130E-01 -0.75062011750E+01  0.90244867933E+01  0.00000000000E+00 0.  1.
</event>
<event>
 7    1  0.4962385E-011  0.5052886E+02  0.7816164E-02  0.1300439E+00
        -11   -1    0    0    0    0  0.00000000000E+00  0.00000000000E+00  0.45593999997E+02  0.45594000000E+02  0.51100000000E-03 0.  1.
         11   -1    0    0    0    0 -0.00000000000E+00 -0.00000000000E+00 -0.45593999997E+02  0.45594000000E+02  0.51100000000E-03 0. -1.
    9900012    2    1    2    0    0  0.91524842473E+01 -0.17597315663E+02 -0.35492704174E+02  0.50528861592E+02  0.30000005296E+02 0.  0.
        -12    1    1    2    0    0 -0.91524842473E+01  0.17597315663E+02  0.35492704174E+02  0.40659138408E+02  0.00000000000E+00 0.  1.
         11    1    3    3    0    0  0.41894990841E+00 -0.18540612429E+02 -0.19389637087E+02  0.26830725949E+02  0.51100000000E-03 0. -1.
        -11    1    3    3    0    0  0.99003674596E-01  0.49613027023E+01 -0.12614894590E+02  0.13555806579E+02  0.51100000000E-03 0.  1.
         12    1    3    3    0    0  0.86345306643E+01 -0.40180059360E+01 -0.34881724971E+01  0.10142329065E+02  0.00000000000E+00 0. -1.
</event>
<event>
 7    1  0.4962385E-011  0.5052887E+02  0.7816164E-02  0.1300439E+00
        -11   -1    0    0    0    0  0.00000000000E+00  0.00000000000E+00  0.45593999997E+02  0.45594000000E+02  0.51100000000E-03 0. -1.
         11   -1    0    0    0    0 -0.00000000000E+00 -0.00000000000E+00 -0.45593999997E+02  0.45594000000E+02  0.51100000000E-03 0.  1.
    9900012    2    1    2    0    0 -0.19631102002E+02  0.28993659550E+02  0.20667673721E+02  0.50528865762E+02  0.30000017970E+02 0.  0.
        -12    1    1    2    0    0  0.19631102002E+02 -0.28993659550E+02 -0.20667673721E+02  0.40659134238E+02  0.00000000000E+00 0.  1.
         11    1    3    3    0    0 -0.17930715710E+02  0.16277953278E+02  0.11236814246E+02  0.26697346749E+02  0.51100000000E-03 0. -1.
        -11    1    3    3    0    0  0.31431021322E+01 -0.12674255898E+01 -0.29838531805E+01  0.45154001709E+01  0.51100000000E-03 0.  1.
         12    1    3    3    0    0 -0.48434884242E+01  0.13983131862E+02  0.12414712656E+02  0.19316118842E+02  0.00000000000E+00 0. -1.
</event>
<event>
 7    1  0.4962385E-011  0.5052887E+02  0.7816164E-02  0.1300439E+00
        -11   -1    0    0    0    0  0.00000000000E+00  0.00000000000E+00  0.45593999997E+02  0.45594000000E+02  0.51100000000E-03 0. -1.
         11   -1    0    0    0    0 -0.00000000000E+00 -0.00000000000E+00 -0.45593999997E+02  0.45594000000E+02  0.51100000000E-03 0.  1.
    9900012    2    1    2    0    0 -0.36021436352E+02  0.17143001981E+02 -0.78573859931E+01  0.50528869310E+02  0.30000028756E+02 0.  0.
        -12    1    1    2    0    0  0.36021436352E+02 -0.17143001981E+02  0.78573859931E+01  0.40659130690E+02  0.00000000000E+00 0.  1.
         11    1    3    3    0    0 -0.22550237875E+01  0.96046713205E+01  0.51211133718E+01  0.11115783638E+02  0.51100000000E-03 0.  1.
        -11    1    3    3    0    0 -0.13440892204E+02  0.86895654964E+01 -0.99105440957E+01  0.18825116634E+02  0.51100000000E-03 0. -1.
         12    1    3    3    0    0 -0.20325520361E+02 -0.11512348364E+01 -0.30679552692E+01  0.20587969038E+02  0.00000000000E+00 0. -1.
</event>
<event>
 7    1  0.4962385E-011  0.5052885E+02  0.7816164E-02  0.1300439E+00
        -11   -1    0    0    0    0  0.00000000000E+00  0.00000000000E+00  0.45593999997E+02  0.45594000000E+02  0.51100000000E-03 0.  1.
         11   -1    0    0    0    0 -0.00000000000E+00 -0.00000000000E+00 -0.45593999997E+02  0.45594000000E+02  0.51100000000E-03 0. -1.
    9900012    2    1    2    0    0 -0.11089641016E+02 -0.18156366229E+02 -0.34648707731E+02  0.50528847034E+02  0.29999961045E+02 0.  0.
        -12    1    1    2    0    0  0.11089641016E+02  0.18156366229E+02  0.34648707731E+02  0.40659152966E+02  0.00000000000E+00 0.  1.
         11    1    3    3    0    0 -0.40953126391E+01 -0.11219760439E+02 -0.22303351599E+02  0.25300081081E+02  0.51100000000E-03 0. -1.
        -11    1    3    3    0    0 -0.10179405052E+02 -0.10678154677E+02 -0.35812296012E+01  0.15181188367E+02  0.51100000000E-03 0.  1.
        -12    1    3    3    0    0  0.31850766743E+01  0.37415488873E+01 -0.87641265306E+01  0.10047577586E+02  0.00000000000E+00 0.  1.
</event>
<event>
 7    1  0.4962385E-011  0.5052886E+02  0.7816164E-02  0.1300439E+00
        -11   -1    0    0    0    0  0.00000000000E+00  0.00000000000E+00  0.45593999997E+02  0.45594000000E+02  0.51100000000E-03 0.  1.
         11   -1    0    0    0    0 -0.00000000000E+00 -0.00000000000E+00 -0.45593999997E+02  0.45594000000E+02  0.51100000000E-03 0. -1.
    9900012    2    1    2    0    0  0.37234467016E+01  0.26867604893E+02 -0.30289164360E+02  0.50528859260E+02  0.29999998208E+02 0.  0.
        -12    1    1    2    0    0 -0.37234467016E+01 -0.26867604893E+02  0.30289164360E+02  0.40659140740E+02  0.00000000000E+00 0.  1.
         11    1    3    3    0    0  0.48914439279E+00  0.65181884434E+00 -0.18002409676E+02  0.18020845830E+02  0.51100000000E-03 0. -1.
        -11    1    3    3    0    0 -0.45091328522E+01  0.92406176143E+01 -0.21295221428E+00  0.10284291025E+02  0.51100000000E-03 0.  1.
         12    1    3    3    0    0  0.77434351610E+01  0.16975168434E+02 -0.12073802470E+02  0.22223722406E+02  0.00000000000E+00 0. -1.
</event>
<event>
 7    1  0.4962385E-011  0.5052884E+02  0.7816164E-02  0.1300439E+00
        -11   -1    0    0    0    0  0.00000000000E+00  0.00000000000E+00  0.45593999997E+02  0.45594000000E+02  0.51100000000E-03 0.  1.
         11   -1    0    0    0    0 -0.00000000000E+00 -0.00000000000E+00 -0.45593999997E+02  0.45594000000E+02  0.51100000000E-03 0. -1.
    9900012    2    1    2    0    0  0.28413201487E+02 -0.26094841204E+02  0.12841969230E+02  0.50528844452E+02  0.29999953197E+02 0.  0.
        -12    1    1    2    0    0 -0.28413201487E+02  0.26094841204E+02 -0.12841969230E+02  0.40659155548E+02  0.00000000000E+00 0.  1.
         11    1    3    3    0    0  0.29649150920E+02 -0.27047726590E+02  0.11966526944E+02  0.41878985558E+02  0.51100000000E-03 0. -1.
        -11    1    3    3    0    0  0.11300984455E+01  0.61411557539E+00  0.42918070090E+01  0.44803870480E+01  0.51100000000E-03 0.  1.
         12    1    3    3    0    0 -0.23660478792E+01  0.33876981134E+00 -0.34163647236E+01  0.41694718462E+01  0.00000000000E+00 0. -1.
</event>
<event>
 7    1  0.4962385E-011  0.5052885E+02  0.7816164E-02  0.1300439E+00
        -11   -1    0    0    0    0  0.00000000000E+00  0.00000000000E+00  0.45593999997E+02  0.45594000000E+02  0.51100000000E-03 0.  1.
         11   -1    0    0    0    0 -0.00000000000E+00 -0.00000000000E+00 -0.45593999997E+02  0.45594000000E+02  0.51100000000E-03 0. -1.
    9900012    2    1    2    0    0  0.34562918762E+02 -0.13509648193E+02  0.16615060952E+02  0.50528853451E+02  0.29999980549E+02 0.  0.
        -12    1    1    2    0    0 -0.34562918762E+02  0.13509648193E+02 -0.16615060952E+02  0.40659146549E+02  0.00000000000E+00 0.  1.
         11    1    3    3    0    0  0.13422568430E+02  0.28941302902E+01  0.66307974925E+01  0.15248239539E+02  0.51100000000E-03 0. -1.
        -11    1    3    3    0    0 -0.25010274933E+01  0.74655037305E+00  0.50154792043E+01  0.56539815963E+01  0.51100000000E-03 0.  1.
        -12    1    3    3    0    0  0.23641377825E+02 -0.17150328857E+02  0.49687842550E+01  0.29626632315E+02  0.00000000000E+00 0.  1.
</event>
<event>
 7    1  0.4962385E-011  0.5052886E+02  0.7816164E-02  0.1300439E+00
        -11   -1    0    0    0    0  0.00000000000E+00  0.00000000000E+00  0.45593999997E+02  0.45594000000E+02  0.51100000000E-03 0. -1.
         11   -1    0    0    0    0 -0.00000000000E+00 -0.00000000000E+00 -0.45593999997E+02  0.45594000000E+02  0.51100000000E-03 0.  1.
    9900012    2    1    2    0    0 -0.24214006561E+02  0.25698087583E+02  0.20160756391E+02  0.50528856903E+02  0.29999991042E+02 0.  0.
        -12    1    1    2    0    0  0.24214006561E+02 -0.25698087583E+02 -0.20160756391E+02  0.40659143097E+02  0.00000000000E+00 0.  1.
         11    1    3    3    0    0 -0.86471767663E+01  0.13247224962E+01  0.14067239367E+01  0.88604417619E+01  0.51100000000E-03 0. -1.
        -11    1    3    3    0    0 -0.13063761588E+02  0.26514228547E+02  0.22150952275E+02  0.36936849747E+02  0.51100000000E-03 0.  1.
        -12    1    3    3    0    0 -0.25030682071E+01 -0.21408634604E+01 -0.33969198214E+01  0.47315653941E+01  0.00000000000E+00 0.  1.
</event>
<event>
 7    1  0.4962385E-011  0.5052884E+02  0.7816164E-02  0.1300439E+00
        -11   -1    0    0    0    0  0.00000000000E+00  0.00000000000E+00  0.45593999997E+02  0.45594000000E+02  0.51100000000E-03 0.  1.
         11   -1    0    0    0    0 -0.00000000000E+00 -0.00000000000E+00 -0.45593999997E+02  0.45594000000E+02  0.51100000000E-03 0. -1.
    9900012    2    1    2    0    0 -0.11397530681E+02  0.50156841174E+01 -0.38705378992E+02  0.50528841675E+02  0.29999944756E+02 0.  0.
        -12    1    1    2    0    0  0.11397530681E+02 -0.50156841174E+01  0.38705378992E+02  0.40659158325E+02  0.00000000000E+00 0.  1.
         11    1    3    3    0    0 -0.10181574573E+02  0.13430570831E+02 -0.19704223350E+02  0.25928769961E+02  0.51100000000E-03 0. -1.
        -11    1    3    3    0    0 -0.52900904889E+01 -0.95189170078E+01 -0.10595349446E+02  0.15193954999E+02  0.51100000000E-03 0.  1.
        -12    1    3    3    0    0  0.40741343803E+01  0.11040302944E+01 -0.84058061964E+01  0.94061167148E+01  0.00000000000E+00 0.  1.
</event>
<event>
 7    1  0.4962385E-011  0.5052890E+02  0.7816164E-02  0.1300439E+00
        -11   -1    0    0    0    0  0.00000000000E+00  0.00000000000E+00  0.45593999997E+02  0.45594000000E+02  0.51100000000E-03 0. -1.
         11   -1    0    0    0    0 -0.00000000000E+00 -0.00000000000E+00 -0.45593999997E+02  0.45594000000E+02  0.51100000000E-03 0.  1.
    9900012    2    1    2    0    0  0.12116610929E+02  0.38788866874E+02  0.13318679398E+01  0.50528901068E+02  0.30000125286E+02 0.  0.
        -12    1    1    2    0    0 -0.12116610929E+02 -0.38788866874E+02 -0.13318679398E+01  0.40659098932E+02  0.00000000000E+00 0.  1.
         11    1    3    3    0    0 -0.15764526085E+00  0.17827132576E+01  0.68817658006E+01  0.71106694046E+01  0.51100000000E-03 0.  1.
        -11    1    3    3    0    0  0.15128595592E+02  0.32568725643E+02 -0.21023254783E+00  0.35911564887E+02  0.51100000000E-03 0. -1.
         12    1    3    3    0    0 -0.28543394027E+01  0.44374279731E+01 -0.53396653129E+01  0.75066667767E+01  0.00000000000E+00 0. -1.
</event>
<event>
 7    1  0.4962385E-011  0.5052885E+02  0.7816164E-02  0.1300439E+00
        -11   -1    0    0    0    0  0.00000000000E+00  0.00000000000E+00  0.45593999997E+02  0.45594000000E+02  0.51100000000E-03 0.  1.
         11   -1    0    0    0    0 -0.00000000000E+00 -0.00000000000E+00 -0.45593999997E+02  0.45594000000E+02  0.51100000000E-03 0. -1.
    9900012    2    1    2    0    0  0.28099124107E+02 -0.23574338753E+02 -0.17545822253E+02  0.50528854636E+02  0.29999984151E+02 0.  0.
        -12    1    1    2    0    0 -0.28099124107E+02  0.23574338753E+02  0.17545822253E+02  0.40659145364E+02  0.00000000000E+00 0.  1.
         11    1    3    3    0    0  0.12761378039E+02 -0.16481376565E+02 -0.11368969711E+02  0.23743251999E+02  0.51100000000E-03 0. -1.
        -11    1    3    3    0    0  0.17194917634E+02 -0.18614849998E+01  0.14458363075E+01  0.17355712654E+02  0.51100000000E-03 0.  1.
        -12    1    3    3    0    0 -0.18571715657E+01 -0.52314771879E+01 -0.76226888491E+01  0.94298899825E+01  0.00000000000E+00 0.  1.
</event>
<event>
 7    1  0.4962385E-011  0.5052879E+02  0.7816164E-02  0.1300439E+00
        -11   -1    0    0    0    0  0.00000000000E+00  0.00000000000E+00  0.45593999997E+02  0.45594000000E+02  0.51100000000E-03 0.  1.
         11   -1    0    0    0    0 -0.00000000000E+00 -0.00000000000E+00 -0.45593999997E+02  0.45594000000E+02  0.51100000000E-03 0. -1.
    9900012    2    1    2    0    0 -0.13821581525E+02 -0.38218271283E+02  0.12242283984E+01  0.50528793037E+02  0.29999796914E+02 0.  0.
        -12    1    1    2    0    0  0.13821581525E+02  0.38218271283E+02 -0.12242283984E+01  0.40659206963E+02  0.00000000000E+00 0.  1.
         11    1    3    3    0    0 -0.61654011093E+01 -0.32401362223E+02 -0.14313299885E+01  0.33013772134E+02  0.51100000000E-03 0. -1.
        -11    1    3    3    0    0  0.20974968190E+01  0.12511684038E+01  0.47006189248E+01  0.52972383199E+01  0.51100000000E-03 0.  1.
         12    1    3    3    0    0 -0.97536772346E+01 -0.70680774640E+01 -0.20450605379E+01  0.12217782583E+02  0.00000000000E+00 0. -1.
</event>
<event>
 7    1  0.4962385E-011  0.5052887E+02  0.7816164E-02  0.1300439E+00
        -11   -1    0    0    0    0  0.00000000000E+00  0.00000000000E+00  0.45593999997E+02  0.45594000000E+02  0.51100000000E-03 0. -1.
         11   -1    0    0    0    0 -0.00000000000E+00 -0.00000000000E+00 -0.45593999997E+02  0.45594000000E+02  0.51100000000E-03 0.  1.
    9900012    2    1    2    0    0 -0.22799903639E+02 -0.17853902065E+02  0.28540633499E+02  0.50528865904E+02  0.30000018401E+02 0.  0.
        -12    1    1    2    0    0  0.22799903639E+02  0.17853902065E+02 -0.28540633499E+02  0.40659134096E+02  0.00000000000E+00 0.  1.
         11    1    3    3    0    0  0.40892794081E+01 -0.85911494210E+01  0.18886458173E+01  0.97003627631E+01  0.51100000000E-03 0. -1.
        -11    1    3    3    0    0 -0.10008013412E+02  0.86241534882E+00  0.39839369046E+01  0.10806287347E+02  0.51100000000E-03 0.  1.
         12    1    3    3    0    0 -0.16881169635E+02 -0.10125167993E+02  0.22668050777E+02  0.30022215794E+02  0.00000000000E+00 0. -1.
</event>
<event>
 7    1  0.4962385E-011  0.5052879E+02  0.7816164E-02  0.1300439E+00
        -11   -1    0    0    0    0  0.00000000000E+00  0.00000000000E+00  0.45593999997E+02  0.45594000000E+02  0.51100000000E-03 0.  1.
         11   -1    0    0    0    0 -0.00000000000E+00 -0.00000000000E+00 -0.45593999997E+02  0.45594000000E+02  0.51100000000E-03 0. -1.
    9900012    2    1    2    0    0 -0.57477492324E+01  0.32500508951E+02 -0.23745558061E+02  0.50528791560E+02  0.29999792425E+02 0.  0.
        -12    1    1    2    0    0  0.57477492324E+01 -0.32500508951E+02  0.23745558061E+02  0.40659208440E+02  0.00000000000E+00 0.  1.
         11    1    3    3    0    0 -0.10153149814E+02  0.30735890499E+02 -0.27528694440E+02  0.42492475025E+02  0.51100000000E-03 0. -1.
        -11    1    3    3    0    0  0.26511755177E+01  0.36518984288E+01  0.23525345182E+01  0.50891563820E+01  0.51100000000E-03 0.  1.
         12    1    3    3    0    0  0.17542250643E+01 -0.18872799767E+01  0.14306018600E+01  0.29471601532E+01  0.00000000000E+00 0. -1.
</event>
<event>
 7    1  0.4962385E-011  0.5052893E+02  0.7816164E-02  0.1300439E+00
        -11   -1    0    0    0    0  0.00000000000E+00  0.00000000000E+00  0.45593999997E+02  0.45594000000E+02  0.51100000000E-03 0. -1.
         11   -1    0    0    0    0 -0.00000000000E+00 -0.00000000000E+00 -0.45593999997E+02  0.45594000000E+02  0.51100000000E-03 0.  1.
    9900012    2    1    2    0    0  0.82688960352E+01 -0.37955189914E+02  0.12007860955E+02  0.50528932035E+02  0.30000219413E+02 0.  0.
        -12    1    1    2    0    0 -0.82688960352E+01  0.37955189914E+02 -0.12007860955E+02  0.40659067965E+02  0.00000000000E+00 0.  1.
         11    1    3    3    0    0 -0.60835711151E+01 -0.24922547498E+02  0.62685093522E+01  0.26409040518E+02  0.51100000000E-03 0. -1.
        -11    1    3    3    0    0  0.69996054078E+01 -0.11502940406E+02 -0.16717956728E+01  0.13568604014E+02  0.51100000000E-03 0.  1.
         12    1    3    3    0    0  0.73528617425E+01 -0.15297020098E+01  0.74111472753E+01  0.10551287503E+02  0.00000000000E+00 0. -1.
</event>
<event>
 7    1  0.4962385E-011  0.5052886E+02  0.7816164E-02  0.1300439E+00
        -11   -1    0    0    0    0  0.00000000000E+00  0.00000000000E+00  0.45593999997E+02  0.45594000000E+02  0.51100000000E-03 0. -1.
         11   -1    0    0    0    0 -0.00000000000E+00 -0.00000000000E+00 -0.45593999997E+02  0.45594000000E+02  0.51100000000E-03 0.  1.
    9900012    2    1    2    0    0  0.14746349388E+02 -0.25220469183E+02 -0.28277886731E+02  0.50528858789E+02  0.29999996774E+02 0.  0.
        -12    1    1    2    0    0 -0.14746349388E+02  0.25220469183E+02  0.28277886731E+02  0.40659141211E+02  0.00000000000E+00 0.  1.
         11    1    3    3    0    0 -0.20695554385E+01 -0.14793253514E+02 -0.11724897546E+01  0.14983262052E+02  0.51100000000E-03 0. -1.
        -11    1    3    3    0    0  0.43191907523E+01 -0.56387954213E+00 -0.14789592530E+02  0.15417698153E+02  0.51100000000E-03 0.  1.
         12    1    3    3    0    0  0.12496714074E+02 -0.98633361266E+01 -0.12315804447E+02  0.20127898583E+02  0.00000000000E+00 0. -1.
</event>
<event>
 7    1  0.4962385E-011  0.5052886E+02  0.7816164E-02  0.1300439E+00
        -11   -1    0    0    0    0  0.00000000000E+00  0.00000000000E+00  0.45593999997E+02  0.45594000000E+02  0.51100000000E-03 0. -1.
         11   -1    0    0    0    0 -0.00000000000E+00 -0.00000000000E+00 -0.45593999997E+02  0.45594000000E+02  0.51100000000E-03 0.  1.
    9900012    2    1    2    0    0 -0.35115416735E+02 -0.94862227111E+01  0.18168227350E+02  0.50528863280E+02  0.30000010424E+02 0.  0.
        -12    1    1    2    0    0  0.35115416735E+02  0.94862227111E+01 -0.18168227350E+02  0.40659136720E+02  0.00000000000E+00 0.  1.
         11    1    3    3    0    0  0.26567332626E+01  0.10242579576E+01 -0.29192463652E+01  0.40779082376E+01  0.51100000000E-03 0. -1.
        -11    1    3    3    0    0 -0.29304900248E+02 -0.12372894489E+02  0.20322879478E+02  0.37747650618E+02  0.51100000000E-03 0.  1.
        -12    1    3    3    0    0 -0.84672497495E+01  0.18624138202E+01  0.76459423695E+00  0.87033044244E+01  0.00000000000E+00 0.  1.
</event>
<event>
 7    1  0.4962385E-011  0.5052886E+02  0.7816164E-02  0.1300439E+00
        -11   -1    0    0    0    0  0.00000000000E+00  0.00000000000E+00  0.45593999997E+02  0.45594000000E+02  0.51100000000E-03 0. -1.
         11   -1    0    0    0    0 -0.00000000000E+00 -0.00000000000E+00 -0.45593999997E+02  0.45594000000E+02  0.51100000000E-03 0.  1.
    9900012    2    1    2    0    0  0.31522779121E+02 -0.13611534398E+02  0.21776279638E+02  0.50528858013E+02  0.29999994418E+02 0.  0.
        -12    1    1    2    0    0 -0.31522779121E+02  0.13611534398E+02 -0.21776279638E+02  0.40659141987E+02  0.00000000000E+00 0.  1.
         11    1    3    3    0    0  0.37978460538E+01 -0.39938766367E+01  0.13502731447E+02  0.14584184654E+02  0.51100000000E-03 0. -1.
        -11    1    3    3    0    0  0.26999352646E+01 -0.77251813848E+01 -0.26105151805E+01  0.85896954329E+01  0.51100000000E-03 0.  1.
        -12    1    3    3    0    0  0.25024997803E+02 -0.18924763762E+01  0.10884063372E+02  0.27354977926E+02  0.00000000000E+00 0.  1.
</event>
<event>
 7    1  0.4962385E-011  0.5052886E+02  0.7816164E-02  0.1300439E+00
        -11   -1    0    0    0    0  0.00000000000E+00  0.00000000000E+00  0.45593999997E+02  0.45594000000E+02  0.51100000000E-03 0.  1.
         11   -1    0    0    0    0 -0.00000000000E+00 -0.00000000000E+00 -0.45593999997E+02  0.45594000000E+02  0.51100000000E-03 0. -1.
    9900012    2    1    2    0    0 -0.15055691713E+02  0.47416929599E+01 -0.37470100103E+02  0.50528857033E+02  0.29999991437E+02 0.  0.
        -12    1    1    2    0    0  0.15055691713E+02 -0.47416929599E+01  0.37470100103E+02  0.40659142967E+02  0.00000000000E+00 0.  1.
         11    1    3    3    0    0 -0.27902309193E+01 -0.84373187487E+01 -0.15894516651E+02  0.18210145416E+02  0.51100000000E-03 0. -1.
        -11    1    3    3    0    0 -0.11300204158E+02  0.13139237066E+02 -0.24060841307E+02  0.29652289108E+02  0.51100000000E-03 0.  1.
        -12    1    3    3    0    0 -0.96525663504E+00  0.39774642115E-01  0.24852578542E+01  0.26664225088E+01  0.00000000000E+00 0.  1.
</event>
<event>
 7    1  0.4962385E-011  0.5052890E+02  0.7816164E-02  0.1300439E+00
        -11   -1    0    0    0    0  0.00000000000E+00  0.00000000000E+00  0.45593999997E+02  0.45594000000E+02  0.51100000000E-03 0. -1.
         11   -1    0    0    0    0 -0.00000000000E+00 -0.00000000000E+00 -0.45593999997E+02  0.45594000000E+02  0.51100000000E-03 0.  1.
    9900012    2    1    2    0    0 -0.52403654510E+01 -0.38900193058E+02  0.10605469237E+02  0.50528899816E+02  0.30000121482E+02 0.  0.
        -12    1    1    2    0    0  0.52403654510E+01  0.38900193058E+02 -0.10605469237E+02  0.40659100184E+02  0.00000000000E+00 0.  1.
         11    1    3    3    0    0 -0.32501033942E+01 -0.24711211432E+02  0.17883805234E+02  0.30676336685E+02  0.51100000000E-03 0. -1.
        -11    1    3    3    0    0 -0.53654579579E+01 -0.40429333860E+01 -0.61367552814E+01  0.90990777064E+01  0.51100000000E-03 0.  1.
        -12    1    3    3    0    0  0.33751959011E+01 -0.10146048240E+02 -0.11415807153E+01  0.10753485425E+02  0.00000000000E+00 0.  1.
</event>
<event>
 7    1  0.4962385E-011  0.5052886E+02  0.7816164E-02  0.1300439E+00
        -11   -1    0    0    0    0  0.00000000000E+00  0.00000000000E+00  0.45593999997E+02  0.45594000000E+02  0.51100000000E-03 0.  1.
         11   -1    0    0    0    0 -0.00000000000E+00 -0.00000000000E+00 -0.45593999997E+02  0.45594000000E+02  0.51100000000E-03 0. -1.
    9900012    2    1    2    0    0 -0.17753079374E+02 -0.36502949597E+02  0.23513100896E+01  0.50528858154E+02  0.29999994844E+02 0.  0.
        -12    1    1    2    0    0  0.17753079374E+02  0.36502949597E+02 -0.23513100896E+01  0.40659141846E+02  0.00000000000E+00 0.  1.
         11    1    3    3    0    0 -0.27961477083E+01 -0.49197090346E+01 -0.10958868354E+02  0.12333644022E+02  0.51100000000E-03 0. -1.
        -11    1    3    3    0    0 -0.12572426278E+01 -0.95273247959E+01  0.55434581252E+01  0.11094165360E+02  0.51100000000E-03 0.  1.
         12    1    3    3    0    0 -0.13699689038E+02 -0.22055915767E+02  0.77667203183E+01  0.27101048772E+02  0.00000000000E+00 0. -1.
</event>
<event>
 7    1  0.4962385E-011  0.5052886E+02  0.7816164E-02  0.1300439E+00
        -11   -1    0    0    0    0  0.00000000000E+00  0.00000000000E+00  0.45593999997E+02  0.45594000000E+02  0.51100000000E-03 0.  1.
         11   -1    0    0    0    0 -0.00000000000E+00 -0.00000000000E+00 -0.45593999997E+02  0.45594000000E+02  0.51100000000E-03 0. -1.
    9900012    2    1    2    0    0 -0.15152732574E+02  0.34095800642E+02 -0.16156618902E+02  0.50528864984E+02  0.30000015606E+02 0.  0.
        -12    1    1    2    0    0  0.15152732574E+02 -0.34095800642E+02  0.16156618902E+02  0.40659135016E+02  0.00000000000E+00 0.  1.
         11    1    3    3    0    0 -0.54225432695E+01  0.35130003982E+02 -0.12189092383E+02  0.37577854232E+02  0.51100000000E-03 0. -1.
        -11    1    3    3    0    0  0.33152639272E+00 -0.18680532643E+01  0.41915792663E+00  0.19429941781E+01  0.51100000000E-03 0.  1.
         12    1    3    3    0    0 -0.10061715697E+02  0.83384992400E+00 -0.43866844454E+01  0.11008016574E+02  0.00000000000E+00 0. -1.
</event>
<event>
 7    1  0.4962385E-011  0.5052887E+02  0.7816164E-02  0.1300439E+00
        -11   -1    0    0    0    0  0.00000000000E+00  0.00000000000E+00  0.45593999997E+02  0.45594000000E+02  0.51100000000E-03 0.  1.
         11   -1    0    0    0    0 -0.00000000000E+00 -0.00000000000E+00 -0.45593999997E+02  0.45594000000E+02  0.51100000000E-03 0. -1.
    9900012    2    1    2    0    0 -0.16181856880E+01 -0.15846573319E+02 -0.37408992639E+02  0.50528866449E+02  0.30000020057E+02 0.  0.
        -12    1    1    2    0    0  0.16181856880E+01  0.15846573319E+02  0.37408992639E+02  0.40659133551E+02  0.00000000000E+00 0.  1.
         11    1    3    3    0    0 -0.11086541729E+02 -0.15369584333E+02 -0.29626750401E+02  0.35169302945E+02  0.51100000000E-03 0. -1.
        -11    1    3    3    0    0  0.75830905664E+01 -0.50178827708E+00 -0.25945428594E+00  0.76041022350E+01  0.51100000000E-03 0.  1.
         12    1    3    3    0    0  0.18852654742E+01  0.24799291388E-01 -0.75227879523E+01  0.77554612686E+01  0.00000000000E+00 0. -1.
</event>
<event>
 7    1  0.4962385E-011  0.5052884E+02  0.7816164E-02  0.1300439E+00
        -11   -1    0    0    0    0  0.00000000000E+00  0.00000000000E+00  0.45593999997E+02  0.45594000000E+02  0.51100000000E-03 0. -1.
         11   -1    0    0    0    0 -0.00000000000E+00 -0.00000000000E+00 -0.45593999997E+02  0.45594000000E+02  0.51100000000E-03 0.  1.
    9900012    2    1    2    0    0 -0.69762993300E+01 -0.11857997116E+02  0.38260773395E+02  0.50528835858E+02  0.29999927074E+02 0.  0.
        -12    1    1    2    0    0  0.69762993300E+01  0.11857997116E+02 -0.38260773395E+02  0.40659164142E+02  0.00000000000E+00 0.  1.
         11    1    3    3    0    0 -0.84882215259E+01 -0.59743825081E+01  0.12547704166E+02  0.16284594902E+02  0.51100000000E-03 0. -1.
        -11    1    3    3    0    0  0.11342220256E+02 -0.50755195266E+00  0.14172987757E+02  0.18159767387E+02  0.51100000000E-03 0.  1.
        -12    1    3    3    0    0 -0.98302980601E+01 -0.53760626548E+01  0.11540081472E+02  0.16084473569E+02  0.00000000000E+00 0.  1.
</event>
<event>
 7    1  0.4962385E-011  0.5052885E+02  0.7816164E-02  0.1300439E+00
        -11   -1    0    0    0    0  0.00000000000E+00  0.00000000000E+00  0.45593999997E+02  0.45594000000E+02  0.51100000000E-03 0. -1.
         11   -1    0    0    0    0 -0.00000000000E+00 -0.00000000000E+00 -0.45593999997E+02  0.45594000000E+02  0.51100000000E-03 0.  1.
    9900012    2    1    2    0    0  0.24026230388E+02 -0.12991939898E+02 -0.30118366723E+02  0.50528852653E+02  0.29999978124E+02 0.  0.
        -12    1    1    2    0    0 -0.24026230388E+02  0.12991939898E+02  0.30118366723E+02  0.40659147347E+02  0.00000000000E+00 0.  1.
         11    1    3    3    0    0  0.19542612476E+02 -0.89780987329E+01 -0.91221262284E+01  0.23360932054E+02  0.51100000000E-03 0. -1.
        -11    1    3    3    0    0 -0.71530934275E+00  0.52979175812E+01 -0.12284111423E+02  0.13396976967E+02  0.51100000000E-03 0.  1.
        -12    1    3    3    0    0  0.51989272544E+01 -0.93117587464E+01 -0.87121290714E+01  0.13770943632E+02  0.00000000000E+00 0.  1.
</event>
<event>
 7    1  0.4962385E-011  0.5052887E+02  0.7816164E-02  0.1300439E+00
        -11   -1    0    0    0    0  0.00000000000E+00  0.00000000000E+00  0.45593999997E+02  0.45594000000E+02  0.51100000000E-03 0.  1.
         11   -1    0    0    0    0 -0.00000000000E+00 -0.00000000000E+00 -0.45593999997E+02  0.45594000000E+02  0.51100000000E-03 0. -1.
    9900012    2    1    2    0    0  0.63119540843E+01  0.38236490787E+02 -0.12300184289E+02  0.50528874018E+02  0.30000043065E+02 0.  0.
        -12    1    1    2    0    0 -0.63119540843E+01 -0.38236490787E+02  0.12300184289E+02  0.40659125982E+02  0.00000000000E+00 0.  1.
         11    1    3    3    0    0 -0.58609287817E+01  0.21827155950E+02 -0.26276320565E+01  0.22752575097E+02  0.51100000000E-03 0. -1.
        -11    1    3    3    0    0  0.86186588363E+01  0.45055506655E+01  0.28526789251E+01  0.10135040417E+02  0.51100000000E-03 0.  1.
         12    1    3    3    0    0  0.35542240296E+01  0.11903784172E+02 -0.12525231158E+02  0.17641258504E+02  0.00000000000E+00 0. -1.
</event>
<event>
 7    1  0.4962385E-011  0.5052885E+02  0.7816164E-02  0.1300439E+00
        -11   -1    0    0    0    0  0.00000000000E+00  0.00000000000E+00  0.45593999997E+02  0.45594000000E+02  0.51100000000E-03 0.  1.
         11   -1    0    0    0    0 -0.00000000000E+00 -0.00000000000E+00 -0.45593999997E+02  0.45594000000E+02  0.51100000000E-03 0. -1.
    9900012    2    1    2    0    0 -0.74836210993E+01  0.39543989754E+02  0.57822724770E+01  0.50528851147E+02  0.29999973548E+02 0.  0.
        -12    1    1    2    0    0  0.74836210993E+01 -0.39543989754E+02 -0.57822724770E+01  0.40659148853E+02  0.00000000000E+00 0.  1.
         11    1    3    3    0    0 -0.93788356202E+01  0.57487168658E+01 -0.74420824840E+01  0.13281373993E+02  0.51100000000E-03 0. -1.
        -11    1    3    3    0    0  0.88519732912E+00  0.44951824226E+01  0.50354845905E+01  0.68078149685E+01  0.51100000000E-03 0.  1.
         12    1    3    3    0    0  0.10100171918E+01  0.29300090466E+02  0.81888703704E+01  0.30439662185E+02  0.00000000000E+00 0. -1.
</event>
<event>
 7    1  0.4962385E-011  0.5052887E+02  0.7816164E-02  0.1300439E+00
        -11   -1    0    0    0    0  0.00000000000E+00  0.00000000000E+00  0.45593999997E+02  0.45594000000E+02  0.51100000000E-03 0. -1.
         11   -1    0    0    0    0 -0.00000000000E+00 -0.00000000000E+00 -0.45593999997E+02  0.45594000000E+02  0.51100000000E-03 0.  1.
    9900012    2    1    2    0    0 -0.47935121251E+01  0.37466880522E+02  0.15047260838E+02  0.50528868759E+02  0.30000027080E+02 0.  0.
        -12    1    1    2    0    0  0.47935121251E+01 -0.37466880522E+02 -0.15047260838E+02  0.40659131241E+02  0.00000000000E+00 0.  1.
         11    1    3    3    0    0  0.36463274627E+01  0.11240502155E+02  0.14205739467E+02  0.18478301511E+02  0.51100000000E-03 0. -1.
        -11    1    3    3    0    0 -0.22408320670E+01  0.25591911465E+02 -0.41767741590E+00  0.25693223142E+02  0.51100000000E-03 0.  1.
         12    1    3    3    0    0 -0.61990075208E+01  0.63446690258E+00  0.12591987871E+01  0.63573441057E+01  0.00000000000E+00 0. -1.
</event>
<event>
 7    1  0.4962385E-011  0.5052886E+02  0.7816164E-02  0.1300439E+00
        -11   -1    0    0    0    0  0.00000000000E+00  0.00000000000E+00  0.45593999997E+02  0.45594000000E+02  0.51100000000E-03 0. -1.
         11   -1    0    0    0    0 -0.00000000000E+00 -0.00000000000E+00 -0.45593999997E+02  0.45594000000E+02  0.51100000000E-03 0.  1.
    9900012    2    1    2    0    0  0.27360418168E+02 -0.29495406386E+02 -0.58816695805E+01  0.50528861823E+02  0.30000005998E+02 0.  0.
        -12    1    1    2    0    0 -0.27360418168E+02  0.29495406386E+02  0.58816695805E+01  0.40659138177E+02  0.00000000000E+00 0.  1.
         11    1    3    3    0    0  0.14080842466E+02 -0.23183243663E+01 -0.80996922945E+01  0.16408832011E+02  0.51100000000E-03 0. -1.
        -11    1    3    3    0    0  0.46556967699E+01 -0.16940344336E+02 -0.58193390221E+01  0.18507173895E+02  0.51100000000E-03 0.  1.
         12    1    3    3    0    0  0.86238789319E+01 -0.10236737684E+02  0.80373617361E+01  0.15612855918E+02  0.00000000000E+00 0. -1.
</event>
<event>
 7    1  0.4962385E-011  0.5052884E+02  0.7816164E-02  0.1300439E+00
        -11   -1    0    0    0    0  0.00000000000E+00  0.00000000000E+00  0.45593999997E+02  0.45594000000E+02  0.51100000000E-03 0. -1.
         11   -1    0    0    0    0 -0.00000000000E+00 -0.00000000000E+00 -0.45593999997E+02  0.45594000000E+02  0.51100000000E-03 0.  1.
    9900012    2    1    2    0    0  0.25308901890E+02 -0.11952596401E+02  0.29491725679E+02  0.50528844093E+02  0.29999952104E+02 0.  0.
        -12    1    1    2    0    0 -0.25308901890E+02  0.11952596401E+02 -0.29491725679E+02  0.40659155907E+02  0.00000000000E+00 0.  1.
         11    1    3    3    0    0  0.80790108738E+01 -0.12150908647E+02 -0.18939380437E+01  0.14714006906E+02  0.51100000000E-03 0. -1.
        -11    1    3    3    0    0  0.83133311445E+01  0.52377681511E+00  0.15133505637E+02  0.17274513307E+02  0.51100000000E-03 0.  1.
         12    1    3    3    0    0  0.89165598719E+01 -0.32546456835E+00  0.16252158085E+02  0.18540323880E+02  0.00000000000E+00 0. -1.
</event>
<event>
 7    1  0.4962385E-011  0.5052885E+02  0.7816164E-02  0.1300439E+00
        -11   -1    0    0    0    0  0.00000000000E+00  0.00000000000E+00  0.45593999997E+02  0.45594000000E+02  0.51100000000E-03 0.  1.
         11   -1    0    0    0    0 -0.00000000000E+00 -0.00000000000E+00 -0.45593999997E+02  0.45594000000E+02  0.51100000000E-03 0. -1.
    9900012    2    1    2    0    0 -0.15232557897E+02 -0.22806772217E+02 -0.30016438998E+02  0.50528852331E+02  0.29999977145E+02 0.  0.
        -12    1    1    2    0    0  0.15232557897E+02  0.22806772217E+02  0.30016438998E+02  0.40659147669E+02  0.00000000000E+00 0.  1.
         11    1    3    3    0    0  0.38896347648E+01 -0.43166267589E+01 -0.19347999258E+02  0.20201673216E+02  0.51100000000E-03 0. -1.
        -11    1    3    3    0    0 -0.20070303641E+02 -0.17133965086E+02 -0.87688999190E+01  0.27807974645E+02  0.51100000000E-03 0.  1.
        -12    1    3    3    0    0  0.94811097888E+00 -0.13561803715E+01 -0.18995398216E+01  0.25192044701E+01  0.00000000000E+00 0.  1.
</event>
<event>
 7    1  0.4962385E-011  0.5052885E+02  0.7816164E-02  0.1300439E+00
        -11   -1    0    0    0    0  0.00000000000E+00  0.00000000000E+00  0.45593999997E+02  0.45594000000E+02  0.51100000000E-03 0. -1.
         11   -1    0    0    0    0 -0.00000000000E+00 -0.00000000000E+00 -0.45593999997E+02  0.45594000000E+02  0.51100000000E-03 0.  1.
    9900012    2    1    2    0    0  0.98258332853E+01 -0.25055711466E+02  0.30476719189E+02  0.50528854789E+02  0.29999984616E+02 0.  0.
        -12    1    1    2    0    0 -0.98258332853E+01  0.25055711466E+02 -0.30476719189E+02  0.40659145211E+02  0.00000000000E+00 0.  1.
         11    1    3    3    0    0  0.97299679164E+01 -0.92371580771E+01  0.19804384505E+02  0.23920932483E+02  0.51100000000E-03 0. -1.
        -11    1    3    3    0    0 -0.51794927138E+01 -0.15583768221E+02  0.12893934624E+02  0.20879045167E+02  0.51100000000E-03 0.  1.
        -12    1    3    3    0    0  0.52753580828E+01 -0.23478516746E+00 -0.22215999397E+01  0.57288771385E+01  0.00000000000E+00 0.  1.
</event>
<event>
 7    1  0.5904479E-011  0.5052886E+02  0.7816164E-02  0.1300439E+00
        -11   -1    0    0    0    0  0.00000000000E+00  0.00000000000E+00  0.45593999997E+02  0.45594000000E+02  0.51100000000E-03 0.  1.
         11   -1    0    0    0    0 -0.00000000000E+00 -0.00000000000E+00 -0.45593999997E+02  0.45594000000E+02  0.51100000000E-03 0. -1.
    9900012    2    1    2    0    0 -0.16046536402E+02 -0.37223358253E+02 -0.31774416743E+01  0.50528857538E+02  0.29999992974E+02 0.  0.
        -12    1    1    2    0    0  0.16046536402E+02  0.37223358253E+02  0.31774416743E+01  0.40659142462E+02  0.00000000000E+00 0.  1.
         11    1    3    3    0    0 -0.14311039275E+02 -0.13947154329E+02  0.11054664293E+01  0.20013770642E+02  0.51100000000E-03 0. -1.
        -11    1    3    3    0    0  0.15192415523E+00 -0.20519508905E+02 -0.10802140661E+02  0.23189643589E+02  0.51100000000E-03 0.  1.
        -12    1    3    3    0    0 -0.18874212818E+01 -0.27566950184E+01  0.65192325572E+01  0.73254433077E+01  0.00000000000E+00 0.  1.
</event>
<event>
 7    1  0.4962385E-011  0.5052887E+02  0.7816164E-02  0.1300439E+00
        -11   -1    0    0    0    0  0.00000000000E+00  0.00000000000E+00  0.45593999997E+02  0.45594000000E+02  0.51100000000E-03 0. -1.
         11   -1    0    0    0    0 -0.00000000000E+00 -0.00000000000E+00 -0.45593999997E+02  0.45594000000E+02  0.51100000000E-03 0.  1.
    9900012    2    1    2    0    0  0.74887404257E+01  0.32378413922E+02  0.23424822937E+02  0.50528865099E+02  0.30000015954E+02 0.  0.
        -12    1    1    2    0    0 -0.74887404257E+01 -0.32378413922E+02 -0.23424822937E+02  0.40659134901E+02  0.00000000000E+00 0.  1.
         11    1    3    3    0    0 -0.54911070463E+01  0.28696138624E+02  0.88995288710E+01  0.30542138807E+02  0.51100000000E-03 0. -1.
        -11    1    3    3    0    0  0.68521917951E+01  0.24278658912E+01  0.60771492422E+01  0.94751679856E+01  0.51100000000E-03 0.  1.
         12    1    3    3    0    0  0.61276556768E+01  0.12544094069E+01  0.84481448237E+01  0.10511558306E+02  0.00000000000E+00 0. -1.
</event>
<event>
 7    1  0.4962385E-011  0.5052886E+02  0.7816164E-02  0.1300439E+00
        -11   -1    0    0    0    0  0.00000000000E+00  0.00000000000E+00  0.45593999997E+02  0.45594000000E+02  0.51100000000E-03 0.  1.
         11   -1    0    0    0    0 -0.00000000000E+00 -0.00000000000E+00 -0.45593999997E+02  0.45594000000E+02  0.51100000000E-03 0. -1.
    9900012    2    1    2    0    0  0.12672543216E+02  0.13440924523E+02 -0.36220348407E+02  0.50528862745E+02  0.30000008801E+02 0.  0.
        -12    1    1    2    0    0 -0.12672543216E+02 -0.13440924523E+02  0.36220348407E+02  0.40659137255E+02  0.00000000000E+00 0.  1.
         11    1    3    3    0    0  0.16012289100E+02  0.91246544052E+01 -0.29242740580E+02  0.34565743115E+02  0.51100000000E-03 0. -1.
        -11    1    3    3    0    0  0.22425101434E+01  0.42657195698E+01  0.21393744747E+01  0.52727733306E+01  0.51100000000E-03 0.  1.
         12    1    3    3    0    0 -0.55822560273E+01  0.50550547697E-01 -0.91169823015E+01  0.10690346299E+02  0.00000000000E+00 0. -1.
</event>
<event>
 7    1  0.4962385E-011  0.5052886E+02  0.7816164E-02  0.1300439E+00
        -11   -1    0    0    0    0  0.00000000000E+00  0.00000000000E+00  0.45593999997E+02  0.45594000000E+02  0.51100000000E-03 0.  1.
         11   -1    0    0    0    0 -0.00000000000E+00 -0.00000000000E+00 -0.45593999997E+02  0.45594000000E+02  0.51100000000E-03 0. -1.
    9900012    2    1    2    0    0 -0.32940190493E+02  0.23725359957E+02 -0.22840644903E+01  0.50528858280E+02  0.29999995227E+02 0.  0.
        -12    1    1    2    0    0  0.32940190493E+02 -0.23725359957E+02  0.22840644903E+01  0.40659141720E+02  0.00000000000E+00 0.  1.
         11    1    3    3    0    0 -0.14833165234E+02  0.86510454375E+01 -0.57632838904E+01  0.18112946184E+02  0.51100000000E-03 0. -1.
        -11    1    3    3    0    0 -0.35760746945E+01  0.13551768757E+02  0.91560349660E+01  0.16741317846E+02  0.51100000000E-03 0.  1.
        -12    1    3    3    0    0 -0.14530950565E+02  0.15225457627E+01 -0.56768155659E+01  0.15674594250E+02  0.00000000000E+00 0.  1.
</event>
<event>
 7    1  0.4962385E-011  0.5052887E+02  0.7816164E-02  0.1300439E+00
        -11   -1    0    0    0    0  0.00000000000E+00  0.00000000000E+00  0.45593999997E+02  0.45594000000E+02  0.51100000000E-03 0. -1.
         11   -1    0    0    0    0 -0.00000000000E+00 -0.00000000000E+00 -0.45593999997E+02  0.45594000000E+02  0.51100000000E-03 0.  1.
    9900012    2    1    2    0    0  0.74277392674E+01  0.18227231660E+02  0.35577547373E+02  0.50528866196E+02  0.30000019289E+02 0.  0.
        -12    1    1    2    0    0 -0.74277392674E+01 -0.18227231660E+02 -0.35577547373E+02  0.40659133804E+02  0.00000000000E+00 0.  1.
         11    1    3    3    0    0  0.91185935550E+01  0.30439408915E+01  0.12914654801E+02  0.16099771224E+02  0.51100000000E-03 0. -1.
        -11    1    3    3    0    0 -0.52038587896E+01  0.19590642971E+02  0.17292082465E+02  0.26643752637E+02  0.51100000000E-03 0.  1.
        -12    1    3    3    0    0  0.35130045020E+01 -0.44073522028E+01  0.53708101075E+01  0.77853423356E+01  0.00000000000E+00 0.  1.
</event>
<event>
 7    1  0.4962385E-011  0.5052885E+02  0.7816164E-02  0.1300439E+00
        -11   -1    0    0    0    0  0.00000000000E+00  0.00000000000E+00  0.45593999997E+02  0.45594000000E+02  0.51100000000E-03 0. -1.
         11   -1    0    0    0    0 -0.00000000000E+00 -0.00000000000E+00 -0.45593999997E+02  0.45594000000E+02  0.51100000000E-03 0.  1.
    9900012    2    1    2    0    0  0.38109766307E+02 -0.11364018345E+02  0.84658729539E+01  0.50528853356E+02  0.29999980262E+02 0.  0.
        -12    1    1    2    0    0 -0.38109766307E+02  0.11364018345E+02 -0.84658729539E+01  0.40659146644E+02  0.00000000000E+00 0.  1.
         11    1    3    3    0    0  0.18218556944E+02 -0.35914080148E+01 -0.21441253748E+01  0.18692546710E+02  0.51100000000E-03 0. -1.
        -11    1    3    3    0    0  0.17829212455E+02 -0.14186723401E+02  0.10525401390E+02  0.25098366725E+02  0.51100000000E-03 0.  1.
        -12    1    3    3    0    0  0.20619969083E+01  0.64141130705E+01  0.84596939017E-01  0.67379399206E+01  0.00000000000E+00 0.  1.
</event>
<event>
 7    1  0.4962385E-011  0.5052885E+02  0.7816164E-02  0.1300439E+00
        -11   -1    0    0    0    0  0.00000000000E+00  0.00000000000E+00  0.45593999997E+02  0.45594000000E+02  0.51100000000E-03 0.  1.
         11   -1    0    0    0    0 -0.00000000000E+00 -0.00000000000E+00 -0.45593999997E+02  0.45594000000E+02  0.51100000000E-03 0. -1.
    9900012    2    1    2    0    0  0.81555471421E+00 -0.18986259340E+02 -0.35944722853E+02  0.50528852515E+02  0.29999977706E+02 0.  0.
        -12    1    1    2    0    0 -0.81555471421E+00  0.18986259340E+02  0.35944722853E+02  0.40659147485E+02  0.00000000000E+00 0.  1.
         11    1    3    3    0    0  0.14894409937E+02 -0.11985103990E+02 -0.20677777435E+02  0.28161261423E+02  0.51100000000E-03 0. -1.
        -11    1    3    3    0    0 -0.10743510470E+02 -0.33315908640E+01 -0.91966879842E+01  0.14529335327E+02  0.51100000000E-03 0.  1.
         12    1    3    3    0    0 -0.33353447524E+01 -0.36695644859E+01 -0.60702574339E+01  0.78382557657E+01  0.00000000000E+00 0. -1.
</event>
<event>
 7    1  0.4962385E-011  0.5052886E+02  0.7816164E-02  0.1300439E+00
        -11   -1    0    0    0    0  0.00000000000E+00  0.00000000000E+00  0.45593999997E+02  0.45594000000E+02  0.51100000000E-03 0. -1.
         11   -1    0    0    0    0 -0.00000000000E+00 -0.00000000000E+00 -0.45593999997E+02  0.45594000000E+02  0.51100000000E-03 0.  1.
    9900012    2    1    2    0    0 -0.28002226798E+01 -0.33095318647E+02 -0.23452597111E+02  0.50528859888E+02  0.30000000116E+02 0.  0.
        -12    1    1    2    0    0  0.28002226798E+01  0.33095318647E+02  0.23452597111E+02  0.40659140112E+02  0.00000000000E+00 0.  1.
         11    1    3    3    0    0 -0.37759470867E+01 -0.45048089163E+00 -0.40159381355E+01  0.55306842981E+01  0.51100000000E-03 0. -1.
        -11    1    3    3    0    0  0.62606316560E+01 -0.34438411759E+02 -0.16793210593E+02  0.38822823641E+02  0.51100000000E-03 0.  1.
        -12    1    3    3    0    0 -0.52849072490E+01  0.17935740038E+01 -0.26434483826E+01  0.61753519486E+01  0.00000000000E+00 0.  1.
</event>
<event>
 7    1  0.4962385E-011  0.5052887E+02  0.7816164E-02  0.1300439E+00
        -11   -1    0    0    0    0  0.00000000000E+00  0.00000000000E+00  0.45593999997E+02  0.45594000000E+02  0.51100000000E-03 0. -1.
         11   -1    0    0    0    0 -0.00000000000E+00 -0.00000000000E+00 -0.45593999997E+02  0.45594000000E+02  0.51100000000E-03 0.  1.
    9900012    2    1    2    0    0 -0.24170006214E+02 -0.82528170894E+01  0.31636482529E+02  0.50528865515E+02  0.30000017219E+02 0.  0.
        -12    1    1    2    0    0  0.24170006214E+02  0.82528170894E+01 -0.31636482529E+02  0.40659134485E+02  0.00000000000E+00 0.  1.
         11    1    3    3    0    0 -0.14580483621E+02 -0.15327917782E+02  0.27783801849E+02  0.34920985261E+02  0.51100000000E-03 0. -1.
        -11    1    3    3    0    0 -0.76130914990E+00  0.61799824808E+01  0.20289981750E+01  0.65489395279E+01  0.51100000000E-03 0.  1.
         12    1    3    3    0    0 -0.88282134428E+01  0.89511821132E+00  0.18236825050E+01  0.90589407264E+01  0.00000000000E+00 0. -1.
</event>
<event>
 7    1  0.4962385E-011  0.5052886E+02  0.7816164E-02  0.1300439E+00
        -11   -1    0    0    0    0  0.00000000000E+00  0.00000000000E+00  0.45593999997E+02  0.45594000000E+02  0.51100000000E-03 0.  1.
         11   -1    0    0    0    0 -0.00000000000E+00 -0.00000000000E+00 -0.45593999997E+02  0.45594000000E+02  0.51100000000E-03 0. -1.
    9900012    2    1    2    0    0  0.33557092627E+02 -0.71798723948E+01 -0.21806807978E+02  0.50528857027E+02  0.29999991418E+02 0.  0.
        -12    1    1    2    0    0 -0.33557092627E+02  0.71798723948E+01  0.21806807978E+02  0.40659142973E+02  0.00000000000E+00 0.  1.
         11    1    3    3    0    0  0.23648414751E+02  0.46441965829E+01 -0.19643325089E+01  0.24180047242E+02  0.51100000000E-03 0. -1.
        -11    1    3    3    0    0 -0.16709327103E+00 -0.39004646250E+01 -0.79804560159E+01  0.88842120041E+01  0.51100000000E-03 0.  1.
         12    1    3    3    0    0  0.10075771146E+02 -0.79236043527E+01 -0.11862019453E+02  0.17464597780E+02  0.00000000000E+00 0. -1.
</event>
<event>
 7    1  0.4962385E-011  0.5052889E+02  0.7816164E-02  0.1300439E+00
        -11   -1    0    0    0    0  0.00000000000E+00  0.00000000000E+00  0.45593999997E+02  0.45594000000E+02  0.51100000000E-03 0. -1.
         11   -1    0    0    0    0 -0.00000000000E+00 -0.00000000000E+00 -0.45593999997E+02  0.45594000000E+02  0.51100000000E-03 0.  1.
    9900012    2    1    2    0    0  0.28761030463E+02  0.20716599387E+02  0.19919567818E+02  0.50528886071E+02  0.30000079700E+02 0.  0.
        -12    1    1    2    0    0 -0.28761030463E+02 -0.20716599387E+02 -0.19919567818E+02  0.40659113929E+02  0.00000000000E+00 0.  1.
         11    1    3    3    0    0 -0.33035948057E+01 -0.13886304031E+01  0.34423351129E+01  0.49690747959E+01  0.51100000000E-03 0. -1.
        -11    1    3    3    0    0  0.29358345717E+02  0.15756293908E+02  0.73557958384E+01  0.34121562005E+02  0.51100000000E-03 0.  1.
         12    1    3    3    0    0  0.27062795515E+01  0.63489358820E+01  0.91214368672E+01  0.11438249270E+02  0.00000000000E+00 0. -1.
</event>
<event>
 7    1  0.4962385E-011  0.5052886E+02  0.7816164E-02  0.1300439E+00
        -11   -1    0    0    0    0  0.00000000000E+00  0.00000000000E+00  0.45593999997E+02  0.45594000000E+02  0.51100000000E-03 0. -1.
         11   -1    0    0    0    0 -0.00000000000E+00 -0.00000000000E+00 -0.45593999997E+02  0.45594000000E+02  0.51100000000E-03 0.  1.
    9900012    2    1    2    0    0  0.14737858919E+02  0.32039436894E+02  0.20234519713E+02  0.50528858469E+02  0.29999995803E+02 0.  0.
        -12    1    1    2    0    0 -0.14737858919E+02 -0.32039436894E+02 -0.20234519713E+02  0.40659141531E+02  0.00000000000E+00 0.  1.
         11    1    3    3    0    0  0.15847271278E+01  0.95545877297E+01  0.94628359332E+01  0.13540560214E+02  0.51100000000E-03 0. -1.
        -11    1    3    3    0    0  0.17623790244E+02  0.23367044862E+02  0.50938295601E+01  0.29707976504E+02  0.51100000000E-03 0.  1.
        -12    1    3    3    0    0 -0.44706584533E+01 -0.88219569713E+00  0.56778542194E+01  0.72803217505E+01  0.00000000000E+00 0.  1.
</event>
<event>
 7    1  0.4962385E-011  0.5052892E+02  0.7816164E-02  0.1300439E+00
        -11   -1    0    0    0    0  0.00000000000E+00  0.00000000000E+00  0.45593999997E+02  0.45594000000E+02  0.51100000000E-03 0.  1.
         11   -1    0    0    0    0 -0.00000000000E+00 -0.00000000000E+00 -0.45593999997E+02  0.45594000000E+02  0.51100000000E-03 0. -1.
    9900012    2    1    2    0    0  0.34285052455E+02  0.25934764583E+01 -0.21701842618E+02  0.50528918419E+02  0.30000178027E+02 0.  0.
        -12    1    1    2    0    0 -0.34285052455E+02 -0.25934764583E+01  0.21701842618E+02  0.40659081581E+02  0.00000000000E+00 0.  1.
         11    1    3    3    0    0  0.31326666448E+02  0.58380046037E+01 -0.16157900524E+02  0.35728421154E+02  0.51100000000E-03 0. -1.
        -11    1    3    3    0    0  0.65487950770E+00 -0.42001452453E+01  0.34452825619E+01  0.54717510400E+01  0.51100000000E-03 0.  1.
         12    1    3    3    0    0  0.23035064988E+01  0.95561709981E+00 -0.89892246558E+01  0.93287462257E+01  0.00000000000E+00 0. -1.
</event>
<event>
 7    1  0.4962385E-011  0.5052887E+02  0.7816164E-02  0.1300439E+00
        -11   -1    0    0    0    0  0.00000000000E+00  0.00000000000E+00  0.45593999997E+02  0.45594000000E+02  0.51100000000E-03 0. -1.
         11   -1    0    0    0    0 -0.00000000000E+00 -0.00000000000E+00 -0.45593999997E+02  0.45594000000E+02  0.51100000000E-03 0.  1.
    9900012    2    1    2    0    0 -0.21338038906E+02  0.28284203536E+02 -0.19946352725E+02  0.50528867433E+02  0.30000023051E+02 0.  0.
        -12    1    1    2    0    0  0.21338038906E+02 -0.28284203536E+02  0.19946352725E+02  0.40659132567E+02  0.00000000000E+00 0.  1.
         11    1    3    3    0    0 -0.14742828725E+02  0.82808167674E+01 -0.21254728918E+02  0.27160383406E+02  0.51100000000E-03 0. -1.
        -11    1    3    3    0    0  0.12253373299E+01  0.12234020070E+02  0.30335716570E+00  0.12298972497E+02  0.51100000000E-03 0.  1.
         12    1    3    3    0    0 -0.78205475112E+01  0.77693666982E+01  0.10050190271E+01  0.11069511530E+02  0.00000000000E+00 0. -1.
</event>
<event>
 7    1  0.4962385E-011  0.5052885E+02  0.7816164E-02  0.1300439E+00
        -11   -1    0    0    0    0  0.00000000000E+00  0.00000000000E+00  0.45593999997E+02  0.45594000000E+02  0.51100000000E-03 0.  1.
         11   -1    0    0    0    0 -0.00000000000E+00 -0.00000000000E+00 -0.45593999997E+02  0.45594000000E+02  0.51100000000E-03 0. -1.
    9900012    2    1    2    0    0 -0.21182265805E+02 -0.79697213914E+01 -0.33778122134E+02  0.50528851231E+02  0.29999973803E+02 0.  0.
        -12    1    1    2    0    0  0.21182265805E+02  0.79697213914E+01  0.33778122134E+02  0.40659148769E+02  0.00000000000E+00 0.  1.
         11    1    3    3    0    0 -0.16158443507E+02  0.23329309178E+01 -0.12953380704E+02  0.20840535865E+02  0.51100000000E-03 0. -1.
        -11    1    3    3    0    0 -0.27114893673E+01 -0.11740790174E+02 -0.23156017523E+02  0.26103629561E+02  0.51100000000E-03 0.  1.
        -12    1    3    3    0    0 -0.23123329309E+01  0.14381378651E+01  0.23312760924E+01  0.35846858051E+01  0.00000000000E+00 0.  1.
</event>
<event>
 7    1  0.4962385E-011  0.5052880E+02  0.7816164E-02  0.1300439E+00
        -11   -1    0    0    0    0  0.00000000000E+00  0.00000000000E+00  0.45593999997E+02  0.45594000000E+02  0.51100000000E-03 0. -1.
         11   -1    0    0    0    0 -0.00000000000E+00 -0.00000000000E+00 -0.45593999997E+02  0.45594000000E+02  0.51100000000E-03 0.  1.
    9900012    2    1    2    0    0  0.10531721798E+01 -0.40641106910E+02  0.60121825564E+00  0.50528804166E+02  0.29999830743E+02 0.  0.
        -12    1    1    2    0    0 -0.10531721798E+01  0.40641106910E+02 -0.60121825564E+00  0.40659195834E+02  0.00000000000E+00 0.  1.
         11    1    3    3    0    0 -0.40714908230E-01 -0.41912881831E+02  0.34422925983E+01  0.42054021207E+02  0.51100000000E-03 0. -1.
        -11    1    3    3    0    0  0.11949257134E+01 -0.11423082517E+00  0.25975086595E+01  0.28614590054E+01  0.51100000000E-03 0.  1.
         12    1    3    3    0    0 -0.10103862531E+00  0.13860057469E+01 -0.54385830022E+01  0.56133239534E+01  0.00000000000E+00 0. -1.
</event>
<event>
 7    1  0.4962385E-011  0.5052886E+02  0.7816164E-02  0.1300439E+00
        -11   -1    0    0    0    0  0.00000000000E+00  0.00000000000E+00  0.45593999997E+02  0.45594000000E+02  0.51100000000E-03 0.  1.
         11   -1    0    0    0    0 -0.00000000000E+00 -0.00000000000E+00 -0.45593999997E+02  0.45594000000E+02  0.51100000000E-03 0. -1.
    9900012    2    1    2    0    0  0.22280527200E+01 -0.40460661217E+02  0.33371153679E+01  0.50528860019E+02  0.30000000513E+02 0.  0.
        -12    1    1    2    0    0 -0.22280527200E+01  0.40460661217E+02 -0.33371153679E+01  0.40659139981E+02  0.00000000000E+00 0.  1.
         11    1    3    3    0    0 -0.79377656496E+01 -0.31296711756E+02  0.66312792508E+01  0.32961586051E+02  0.51100000000E-03 0. -1.
        -11    1    3    3    0    0  0.33112297303E+01  0.18635770308E+01 -0.25211956773E+01  0.45599988575E+01  0.51100000000E-03 0.  1.
         12    1    3    3    0    0  0.68545886393E+01 -0.11027526492E+02 -0.77296820558E+00  0.13007275110E+02  0.00000000000E+00 0. -1.
</event>
<event>
 7    1  0.4962385E-011  0.5052888E+02  0.7816164E-02  0.1300439E+00
        -11   -1    0    0    0    0  0.00000000000E+00  0.00000000000E+00  0.45593999997E+02  0.45594000000E+02  0.51100000000E-03 0.  1.
         11   -1    0    0    0    0 -0.00000000000E+00 -0.00000000000E+00 -0.45593999997E+02  0.45594000000E+02  0.51100000000E-03 0. -1.
    9900012    2    1    2    0    0 -0.23327952836E+01 -0.13151795609E+01 -0.40570834895E+02  0.50528877098E+02  0.30000052426E+02 0.  0.
        -12    1    1    2    0    0  0.23327952836E+01  0.13151795609E+01  0.40570834895E+02  0.40659122902E+02  0.00000000000E+00 0.  1.
         11    1    3    3    0    0  0.60973195313E+01  0.57925988909E+01 -0.20760959386E+02  0.22399753174E+02  0.51100000000E-03 0. -1.
        -11    1    3    3    0    0 -0.10246244490E+02 -0.10283232501E+02 -0.99143805957E+01  0.17579116578E+02  0.51100000000E-03 0.  1.
         12    1    3    3    0    0  0.18161296749E+01  0.31754540489E+01 -0.98954949136E+01  0.10550007346E+02  0.00000000000E+00 0. -1.
</event>
<event>
 7    1  0.4962385E-011  0.5052884E+02  0.7816164E-02  0.1300439E+00
        -11   -1    0    0    0    0  0.00000000000E+00  0.00000000000E+00  0.45593999997E+02  0.45594000000E+02  0.51100000000E-03 0.  1.
         11   -1    0    0    0    0 -0.00000000000E+00 -0.00000000000E+00 -0.45593999997E+02  0.45594000000E+02  0.51100000000E-03 0. -1.
    9900012    2    1    2    0    0 -0.18321552957E+02 -0.32233893367E+02 -0.16687237427E+02  0.50528842639E+02  0.29999947685E+02 0.  0.
        -12    1    1    2    0    0  0.18321552957E+02  0.32233893367E+02  0.16687237427E+02  0.40659157361E+02  0.00000000000E+00 0.  1.
         11    1    3    3    0    0  0.63860770413E+01 -0.10688084994E+01 -0.35300610994E+01  0.73746636000E+01  0.51100000000E-03 0. -1.
        -11    1    3    3    0    0 -0.66384890338E+01 -0.16242196632E+02 -0.72581574605E+01  0.18988400092E+02  0.51100000000E-03 0.  1.
         12    1    3    3    0    0 -0.18069140964E+02 -0.14922888236E+02 -0.58990188671E+01  0.24165778946E+02  0.00000000000E+00 0. -1.
</event>
<event>
 7    1  0.4962385E-011  0.5052886E+02  0.7816164E-02  0.1300439E+00
        -11   -1    0    0    0    0  0.00000000000E+00  0.00000000000E+00  0.45593999997E+02  0.45594000000E+02  0.51100000000E-03 0. -1.
         11   -1    0    0    0    0 -0.00000000000E+00 -0.00000000000E+00 -0.45593999997E+02  0.45594000000E+02  0.51100000000E-03 0.  1.
    9900012    2    1    2    0    0 -0.24259704761E+02  0.10258226854E+02  0.30974203565E+02  0.50528858595E+02  0.29999996186E+02 0.  0.
        -12    1    1    2    0    0  0.24259704761E+02 -0.10258226854E+02 -0.30974203565E+02  0.40659141405E+02  0.00000000000E+00 0.  1.
         11    1    3    3    0    0 -0.16320500907E+02  0.27088652943E+01  0.72999005838E+01  0.18082733473E+02  0.51100000000E-03 0. -1.
        -11    1    3    3    0    0  0.35592687880E+01  0.93448508397E+01  0.14564237026E+02  0.17666681407E+02  0.51100000000E-03 0.  1.
        -12    1    3    3    0    0 -0.11498472642E+02 -0.17954892797E+01  0.91100659551E+01  0.14779443716E+02  0.00000000000E+00 0.  1.
</event>
<event>
 7    1  0.4962385E-011  0.5052887E+02  0.7816164E-02  0.1300439E+00
        -11   -1    0    0    0    0  0.00000000000E+00  0.00000000000E+00  0.45593999997E+02  0.45594000000E+02  0.51100000000E-03 0.  1.
         11   -1    0    0    0    0 -0.00000000000E+00 -0.00000000000E+00 -0.45593999997E+02  0.45594000000E+02  0.51100000000E-03 0. -1.
    9900012    2    1    2    0    0 -0.29504522863E+02  0.20912018478E+02 -0.18583210427E+02  0.50528867004E+02  0.30000021746E+02 0.  0.
        -12    1    1    2    0    0  0.29504522863E+02 -0.20912018478E+02  0.18583210427E+02  0.40659132996E+02  0.00000000000E+00 0.  1.
         11    1    3    3    0    0 -0.41106993105E+01  0.70408634903E+01  0.21894990590E+01  0.84418904222E+01  0.51100000000E-03 0. -1.
        -11    1    3    3    0    0 -0.10077240100E+02 -0.58296840945E+01 -0.69936223281E+01  0.13581116972E+02  0.51100000000E-03 0.  1.
        -12    1    3    3    0    0 -0.15316583453E+02  0.19700839082E+02 -0.13779087158E+02  0.28505859610E+02  0.00000000000E+00 0.  1.
</event>
<event>
 7    1  0.4962385E-011  0.5052886E+02  0.7816164E-02  0.1300439E+00
        -11   -1    0    0    0    0  0.00000000000E+00  0.00000000000E+00  0.45593999997E+02  0.45594000000E+02  0.51100000000E-03 0.  1.
         11   -1    0    0    0    0 -0.00000000000E+00 -0.00000000000E+00 -0.45593999997E+02  0.45594000000E+02  0.51100000000E-03 0. -1.
    9900012    2    1    2    0    0  0.47925842009E+01  0.70184558423E+01 -0.39761012822E+02  0.50528859252E+02  0.29999998181E+02 0.  0.
        -12    1    1    2    0    0 -0.47925842009E+01 -0.70184558423E+01  0.39761012822E+02  0.40659140748E+02  0.00000000000E+00 0.  1.
         11    1    3    3    0    0  0.62549090319E+01 -0.42713252191E+01 -0.18160596266E+02  0.19676772173E+02  0.51100000000E-03 0. -1.
        -11    1    3    3    0    0  0.26179359357E+01  0.14210667003E+02 -0.83627997868E+01  0.16695300709E+02  0.51100000000E-03 0.  1.
        -12    1    3    3    0    0 -0.40802607666E+01 -0.29208859411E+01 -0.13237616769E+02  0.14156786370E+02  0.00000000000E+00 0.  1.
</event>
<event>
 7    1  0.4962385E-011  0.5052886E+02  0.7816164E-02  0.1300439E+00
        -11   -1    0    0    0    0  0.00000000000E+00  0.00000000000E+00  0.45593999997E+02  0.45594000000E+02  0.51100000000E-03 0.  1.
         11   -1    0    0    0    0 -0.00000000000E+00 -0.00000000000E+00 -0.45593999997E+02  0.45594000000E+02  0.51100000000E-03 0. -1.
    9900012    2    1    2    0    0 -0.21471564529E+02 -0.42182973514E+01 -0.34268699449E+02  0.50528857390E+02  0.29999992522E+02 0.  0.
        -12    1    1    2    0    0  0.21471564529E+02  0.42182973514E+01  0.34268699449E+02  0.40659142610E+02  0.00000000000E+00 0.  1.
         11    1    3    3    0    0 -0.51940533527E+01 -0.62646965512E+01 -0.15357438971E+02  0.17380320628E+02  0.51100000000E-03 0. -1.
        -11    1    3    3    0    0 -0.15124566119E+02  0.10265986334E+02 -0.16176747469E+02  0.24409632005E+02  0.51100000000E-03 0.  1.
        -12    1    3    3    0    0 -0.11529450567E+01 -0.82195871337E+01 -0.27345130089E+01  0.87389047568E+01  0.00000000000E+00 0.  1.
</event>
<event>
 7    1  0.4962385E-011  0.5052897E+02  0.7816164E-02  0.1300438E+00
        -11   -1    0    0    0    0  0.00000000000E+00  0.00000000000E+00  0.45593999997E+02  0.45594000000E+02  0.51100000000E-03 0.  1.
         11   -1    0    0    0    0 -0.00000000000E+00 -0.00000000000E+00 -0.45593999997E+02  0.45594000000E+02  0.51100000000E-03 0. -1.
    9900012    2    1    2    0    0 -0.23626847938E+02  0.30470917110E+02 -0.12901613849E+02  0.50528974275E+02  0.30000347805E+02 0.  0.
        -12    1    1    2    0    0  0.23626847938E+02 -0.30470917110E+02  0.12901613849E+02  0.40659025725E+02  0.00000000000E+00 0.  1.
         11    1    3    3    0    0 -0.18456406243E+02  0.51372438616E+01 -0.82518945523E+01  0.20859625353E+02  0.51100000000E-03 0. -1.
        -11    1    3    3    0    0  0.28386808531E+01  0.16809632116E+02  0.93266497499E-01  0.17047889599E+02  0.51100000000E-03 0.  1.
        -12    1    3    3    0    0 -0.80091225481E+01  0.85240411317E+01 -0.47429857937E+01  0.12621459323E+02  0.00000000000E+00 0.  1.
</event>
<event>
 7    1  0.4962385E-011  0.5052886E+02  0.7816164E-02  0.1300439E+00
        -11   -1    0    0    0    0  0.00000000000E+00  0.00000000000E+00  0.45593999997E+02  0.45594000000E+02  0.51100000000E-03 0. -1.
         11   -1    0    0    0    0 -0.00000000000E+00 -0.00000000000E+00 -0.45593999997E+02  0.45594000000E+02  0.51100000000E-03 0.  1.
    9900012    2    1    2    0    0  0.89846913680E+01  0.35883690227E+02 -0.16876071666E+02  0.50528859599E+02  0.29999999238E+02 0.  0.
        -12    1    1    2    0    0 -0.89846913680E+01 -0.35883690227E+02  0.16876071666E+02  0.40659140401E+02  0.00000000000E+00 0.  1.
         11    1    3    3    0    0  0.12303358392E+01  0.27734165884E+02 -0.65748074724E+01  0.28529384450E+02  0.51100000000E-03 0. -1.
        -11    1    3    3    0    0 -0.26161200336E+01 -0.12071808290E+01 -0.71104510676E+01  0.76720195666E+01  0.51100000000E-03 0.  1.
        -12    1    3    3    0    0  0.10370475562E+02  0.93567051720E+01 -0.31908131258E+01  0.14327455583E+02  0.00000000000E+00 0.  1.
</event>
<event>
 7    1  0.4962385E-011  0.5052886E+02  0.7816164E-02  0.1300439E+00
        -11   -1    0    0    0    0  0.00000000000E+00  0.00000000000E+00  0.45593999997E+02  0.45594000000E+02  0.51100000000E-03 0. -1.
         11   -1    0    0    0    0 -0.00000000000E+00 -0.00000000000E+00 -0.45593999997E+02  0.45594000000E+02  0.51100000000E-03 0.  1.
    9900012    2    1    2    0    0  0.26873857737E+02 -0.14503394919E+02  0.26844234537E+02  0.50528860539E+02  0.30000002094E+02 0.  0.
        -12    1    1    2    0    0 -0.26873857737E+02  0.14503394919E+02 -0.26844234537E+02  0.40659139461E+02  0.00000000000E+00 0.  1.
         11    1    3    3    0    0  0.18622856589E+02 -0.48764943407E+01  0.18307393094E+02  0.26565986275E+02  0.51100000000E-03 0. -1.
        -11    1    3    3    0    0 -0.49118578227E+01 -0.11816463514E+01  0.64379410919E+01  0.81835029868E+01  0.51100000000E-03 0.  1.
         12    1    3    3    0    0  0.13162858970E+02 -0.84452542265E+01  0.20989003511E+01  0.15779371277E+02  0.00000000000E+00 0. -1.
</event>
<event>
 7    1  0.4962385E-011  0.5052886E+02  0.7816164E-02  0.1300439E+00
        -11   -1    0    0    0    0  0.00000000000E+00  0.00000000000E+00  0.45593999997E+02  0.45594000000E+02  0.51100000000E-03 0. -1.
         11   -1    0    0    0    0 -0.00000000000E+00 -0.00000000000E+00 -0.45593999997E+02  0.45594000000E+02  0.51100000000E-03 0.  1.
    9900012    2    1    2    0    0 -0.34125653307E+02 -0.28927034497E+01  0.21914326274E+02  0.50528860278E+02  0.30000001302E+02 0.  0.
        -12    1    1    2    0    0  0.34125653307E+02  0.28927034497E+01 -0.21914326274E+02  0.40659139722E+02  0.00000000000E+00 0.  1.
         11    1    3    3    0    0 -0.93655841509E+01 -0.13272524668E+02  0.15434516657E+02  0.22407551902E+02  0.51100000000E-03 0. -1.
        -11    1    3    3    0    0 -0.99999256521E+01  0.28054156029E+01  0.21659771968E+00  0.10388252239E+02  0.51100000000E-03 0.  1.
        -12    1    3    3    0    0 -0.14760143504E+02  0.75744056154E+01  0.62632118972E+01  0.17733056137E+02  0.00000000000E+00 0.  1.
</event>
<event>
 7    1  0.4962385E-011  0.5052885E+02  0.7816164E-02  0.1300439E+00
        -11   -1    0    0    0    0  0.00000000000E+00  0.00000000000E+00  0.45593999997E+02  0.45594000000E+02  0.51100000000E-03 0. -1.
         11   -1    0    0    0    0 -0.00000000000E+00 -0.00000000000E+00 -0.45593999997E+02  0.45594000000E+02  0.51100000000E-03 0.  1.
    9900012    2    1    2    0    0 -0.37896271534E+02  0.41615331030E+01  0.14132263770E+02  0.50528848100E+02  0.29999964284E+02 0.  0.
        -12    1    1    2    0    0  0.37896271534E+02 -0.41615331030E+01 -0.14132263770E+02  0.40659151900E+02  0.00000000000E+00 0.  1.
         11    1    3    3    0    0 -0.41401370040E+01 -0.37759897266E+01  0.96768560414E+01  0.11182145408E+02  0.51100000000E-03 0. -1.
        -11    1    3    3    0    0 -0.29117085998E+02  0.91787805312E+01  0.98926805328E+01  0.32092364161E+02  0.51100000000E-03 0.  1.
        -12    1    3    3    0    0 -0.46390485325E+01 -0.12412577016E+01 -0.54372728044E+01  0.72543385307E+01  0.00000000000E+00 0.  1.
</event>
<event>
 7    1  0.4962385E-011  0.5052897E+02  0.7816164E-02  0.1300438E+00
        -11   -1    0    0    0    0  0.00000000000E+00  0.00000000000E+00  0.45593999997E+02  0.45594000000E+02  0.51100000000E-03 0.  1.
         11   -1    0    0    0    0 -0.00000000000E+00 -0.00000000000E+00 -0.45593999997E+02  0.45594000000E+02  0.51100000000E-03 0. -1.
    9900012    2    1    2    0    0 -0.39185757277E+02  0.10674389348E+02  0.19210271618E+01  0.50528972630E+02  0.30000342803E+02 0.  0.
        -12    1    1    2    0    0  0.39185757277E+02 -0.10674389348E+02 -0.19210271618E+01  0.40659027370E+02  0.00000000000E+00 0.  1.
         11    1    3    3    0    0 -0.36596055871E+02  0.62063035127E+01  0.24734564661E+01  0.37200907190E+02  0.51100000000E-03 0. -1.
        -11    1    3    3    0    0 -0.81127741039E+00  0.10441547881E+01  0.57709808813E+01  0.59205279201E+01  0.51100000000E-03 0.  1.
         12    1    3    3    0    0 -0.17784239957E+01  0.34239310474E+01 -0.63234101857E+01  0.74075375195E+01  0.00000000000E+00 0. -1.
</event>
<event>
 7    1  0.4962385E-011  0.5052887E+02  0.7816164E-02  0.1300439E+00
        -11   -1    0    0    0    0  0.00000000000E+00  0.00000000000E+00  0.45593999997E+02  0.45594000000E+02  0.51100000000E-03 0.  1.
         11   -1    0    0    0    0 -0.00000000000E+00 -0.00000000000E+00 -0.45593999997E+02  0.45594000000E+02  0.51100000000E-03 0. -1.
    9900012    2    1    2    0    0 -0.35136651989E+02 -0.70195367784E+01 -0.19217351045E+02  0.50528870757E+02  0.30000033154E+02 0.  0.
        -12    1    1    2    0    0  0.35136651989E+02  0.70195367784E+01  0.19217351045E+02  0.40659129243E+02  0.00000000000E+00 0.  1.
         11    1    3    3    0    0 -0.23670001603E+02 -0.29718589395E+01 -0.19557938829E+02  0.30848239705E+02  0.51100000000E-03 0. -1.
        -11    1    3    3    0    0 -0.94023429220E+00  0.53813987418E+01 -0.71386603530E+00  0.55093645659E+01  0.51100000000E-03 0.  1.
         12    1    3    3    0    0 -0.10526416094E+02 -0.94290765807E+01  0.10544538193E+01  0.14171266486E+02  0.00000000000E+00 0. -1.
</event>
<event>
 7    1  0.4962385E-011  0.5052887E+02  0.7816164E-02  0.1300439E+00
        -11   -1    0    0    0    0  0.00000000000E+00  0.00000000000E+00  0.45593999997E+02  0.45594000000E+02  0.51100000000E-03 0. -1.
         11   -1    0    0    0    0 -0.00000000000E+00 -0.00000000000E+00 -0.45593999997E+02  0.45594000000E+02  0.51100000000E-03 0.  1.
    9900012    2    1    2    0    0 -0.22557934264E+02  0.11026323636E+02  0.31980069937E+02  0.50528867147E+02  0.30000022181E+02 0.  0.
        -12    1    1    2    0    0  0.22557934264E+02 -0.11026323636E+02 -0.31980069937E+02  0.40659132853E+02  0.00000000000E+00 0.  1.
         11    1    3    3    0    0 -0.13733455612E+02  0.46078437337E+00  0.29633785808E+02  0.32664681031E+02  0.51100000000E-03 0. -1.
        -11    1    3    3    0    0 -0.20699437176E+01  0.32108782701E+01 -0.43894410262E+01  0.58190720088E+01  0.51100000000E-03 0.  1.
         12    1    3    3    0    0 -0.67545349345E+01  0.73546609925E+01  0.67357251546E+01  0.12045114107E+02  0.00000000000E+00 0. -1.
</event>
<event>
 7    1  0.4962385E-011  0.5052886E+02  0.7816164E-02  0.1300439E+00
        -11   -1    0    0    0    0  0.00000000000E+00  0.00000000000E+00  0.45593999997E+02  0.45594000000E+02  0.51100000000E-03 0.  1.
         11   -1    0    0    0    0 -0.00000000000E+00 -0.00000000000E+00 -0.45593999997E+02  0.45594000000E+02  0.51100000000E-03 0. -1.
    9900012    2    1    2    0    0  0.15290182416E+02 -0.80870735517E+01 -0.36796397773E+02  0.50528864175E+02  0.30000013146E+02 0.  0.
        -12    1    1    2    0    0 -0.15290182416E+02  0.80870735517E+01  0.36796397773E+02  0.40659135825E+02  0.00000000000E+00 0.  1.
         11    1    3    3    0    0 -0.13375191896E+01  0.46971445520E+01 -0.19685191694E+02  0.20281984538E+02  0.51100000000E-03 0. -1.
        -11    1    3    3    0    0  0.15611935833E+02 -0.93197146081E+01 -0.69530914389E+01  0.19466255460E+02  0.51100000000E-03 0.  1.
        -12    1    3    3    0    0  0.10157657730E+01 -0.34645034957E+01 -0.10158114641E+02  0.10780624177E+02  0.00000000000E+00 0.  1.
</event>
<event>
 7    1  0.4962385E-011  0.5052885E+02  0.7816164E-02  0.1300439E+00
        -11   -1    0    0    0    0  0.00000000000E+00  0.00000000000E+00  0.45593999997E+02  0.45594000000E+02  0.51100000000E-03 0.  1.
         11   -1    0    0    0    0 -0.00000000000E+00 -0.00000000000E+00 -0.45593999997E+02  0.45594000000E+02  0.51100000000E-03 0. -1.
    9900012    2    1    2    0    0 -0.31745668166E+02 -0.11728823775E+02 -0.22534724058E+02  0.50528849212E+02  0.29999967665E+02 0.  0.
        -12    1    1    2    0    0  0.31745668166E+02  0.11728823775E+02  0.22534724058E+02  0.40659150788E+02  0.00000000000E+00 0.  1.
         11    1    3    3    0    0 -0.24518588956E+01  0.53417536020E+01 -0.46433395983E+01  0.74904303264E+01  0.51100000000E-03 0. -1.
        -11    1    3    3    0    0 -0.97183764855E+01 -0.16844864781E+02 -0.10595498260E+02  0.22146351723E+02  0.51100000000E-03 0.  1.
         12    1    3    3    0    0 -0.19575432785E+02 -0.22571259613E+00 -0.72958861995E+01  0.20892067162E+02  0.00000000000E+00 0. -1.
</event>
<event>
 7    1  0.4962385E-011  0.5052886E+02  0.7816164E-02  0.1300439E+00
        -11   -1    0    0    0    0  0.00000000000E+00  0.00000000000E+00  0.45593999997E+02  0.45594000000E+02  0.51100000000E-03 0.  1.
         11   -1    0    0    0    0 -0.00000000000E+00 -0.00000000000E+00 -0.45593999997E+02  0.45594000000E+02  0.51100000000E-03 0. -1.
    9900012    2    1    2    0    0 -0.90642987283E+01  0.38571818643E+02 -0.91224253662E+01  0.50528863888E+02  0.30000012273E+02 0.  0.
        -12    1    1    2    0    0  0.90642987283E+01 -0.38571818643E+02  0.91224253662E+01  0.40659136112E+02  0.00000000000E+00 0.  1.
         11    1    3    3    0    0 -0.48332990546E+01  0.59454745106E+01 -0.11325413440E+02  0.13673859614E+02  0.51100000000E-03 0. -1.
        -11    1    3    3    0    0  0.10868037093E+01  0.15894233168E+02  0.86788230415E+01  0.18141933743E+02  0.51100000000E-03 0.  1.
        -12    1    3    3    0    0 -0.53178033831E+01  0.16732110964E+02 -0.64758349677E+01  0.18713070530E+02  0.00000000000E+00 0.  1.
</event>
<event>
 7    1  0.4962385E-011  0.5052886E+02  0.7816164E-02  0.1300439E+00
        -11   -1    0    0    0    0  0.00000000000E+00  0.00000000000E+00  0.45593999997E+02  0.45594000000E+02  0.51100000000E-03 0.  1.
         11   -1    0    0    0    0 -0.00000000000E+00 -0.00000000000E+00 -0.45593999997E+02  0.45594000000E+02  0.51100000000E-03 0. -1.
    9900012    2    1    2    0    0  0.66991401342E+01 -0.95947577279E+01 -0.38938771031E+02  0.50528859038E+02  0.29999997532E+02 0.  0.
        -12    1    1    2    0    0 -0.66991401342E+01  0.95947577279E+01  0.38938771031E+02  0.40659140962E+02  0.00000000000E+00 0.  1.
         11    1    3    3    0    0  0.12564772631E+02 -0.12968787175E+02 -0.16554618620E+02  0.24497313118E+02  0.51100000000E-03 0. -1.
        -11    1    3    3    0    0  0.50207252895E+00  0.55456091414E+01 -0.15205647457E+02  0.16193133496E+02  0.51100000000E-03 0.  1.
         12    1    3    3    0    0 -0.63677050260E+01 -0.21715796946E+01 -0.71785049531E+01  0.98384124242E+01  0.00000000000E+00 0. -1.
</event>
<event>
 7    1  0.4962385E-011  0.5052886E+02  0.7816164E-02  0.1300439E+00
        -11   -1    0    0    0    0  0.00000000000E+00  0.00000000000E+00  0.45593999997E+02  0.45594000000E+02  0.51100000000E-03 0. -1.
         11   -1    0    0    0    0 -0.00000000000E+00 -0.00000000000E+00 -0.45593999997E+02  0.45594000000E+02  0.51100000000E-03 0.  1.
    9900012    2    1    2    0    0  0.36298035650E+02  0.68403063008E+01  0.16994955519E+02  0.50528859632E+02  0.29999999339E+02 0.  0.
        -12    1    1    2    0    0 -0.36298035650E+02 -0.68403063008E+01 -0.16994955519E+02  0.40659140368E+02  0.00000000000E+00 0.  1.
         11    1    3    3    0    0  0.12769212439E+02  0.14519285159E+02  0.12113879328E+02  0.22816846857E+02  0.51100000000E-03 0. -1.
        -11    1    3    3    0    0  0.12126722148E+02 -0.19989484893E+01 -0.31057676247E+01  0.12676710059E+02  0.51100000000E-03 0.  1.
         12    1    3    3    0    0  0.11402101063E+02 -0.56800303693E+01  0.79868438160E+01  0.15035302717E+02  0.00000000000E+00 0. -1.
</event>
<event>
 7    1  0.4962385E-011  0.5052885E+02  0.7816164E-02  0.1300439E+00
        -11   -1    0    0    0    0  0.00000000000E+00  0.00000000000E+00  0.45593999997E+02  0.45594000000E+02  0.51100000000E-03 0.  1.
         11   -1    0    0    0    0 -0.00000000000E+00 -0.00000000000E+00 -0.45593999997E+02  0.45594000000E+02  0.51100000000E-03 0. -1.
    9900012    2    1    2    0    0 -0.26683820745E+02 -0.49194438792E+01 -0.30280999946E+02  0.50528853731E+02  0.29999981400E+02 0.  0.
        -12    1    1    2    0    0  0.26683820745E+02  0.49194438792E+01  0.30280999946E+02  0.40659146269E+02  0.00000000000E+00 0.  1.
         11    1    3    3    0    0 -0.25563034845E+02 -0.93263928723E+01 -0.23504461613E+02  0.35957058701E+02  0.51100000000E-03 0. -1.
        -11    1    3    3    0    0 -0.26859736122E+01  0.82872798110E+01 -0.47557513837E+01  0.99252522586E+01  0.51100000000E-03 0.  1.
         12    1    3    3    0    0  0.15651877114E+01 -0.38803308179E+01 -0.20207869488E+01  0.46465427708E+01  0.00000000000E+00 0. -1.
</event>
<event>
 7    1  0.4962385E-011  0.5052887E+02  0.7816164E-02  0.1300439E+00
        -11   -1    0    0    0    0  0.00000000000E+00  0.00000000000E+00  0.45593999997E+02  0.45594000000E+02  0.51100000000E-03 0.  1.
         11   -1    0    0    0    0 -0.00000000000E+00 -0.00000000000E+00 -0.45593999997E+02  0.45594000000E+02  0.51100000000E-03 0. -1.
    9900012    2    1    2    0    0 -0.99467151979E+01  0.16006797871E+02 -0.36027911420E+02  0.50528866677E+02  0.30000020750E+02 0.  0.
        -12    1    1    2    0    0  0.99467151979E+01 -0.16006797871E+02  0.36027911420E+02  0.40659133323E+02  0.00000000000E+00 0.  1.
         11    1    3    3    0    0 -0.94427438440E+01  0.13315510166E+02 -0.60141037714E+01  0.17396484321E+02  0.51100000000E-03 0. -1.
        -11    1    3    3    0    0  0.11309215475E+01 -0.50880748738E+01 -0.66250129104E+01  0.84296076891E+01  0.51100000000E-03 0.  1.
         12    1    3    3    0    0 -0.16348929014E+01  0.77793625788E+01 -0.23388794738E+02  0.24702774667E+02  0.00000000000E+00 0. -1.
</event>
<event>
 7    1  0.4962385E-011  0.5052885E+02  0.7816164E-02  0.1300439E+00
        -11   -1    0    0    0    0  0.00000000000E+00  0.00000000000E+00  0.45593999997E+02  0.45594000000E+02  0.51100000000E-03 0.  1.
         11   -1    0    0    0    0 -0.00000000000E+00 -0.00000000000E+00 -0.45593999997E+02  0.45594000000E+02  0.51100000000E-03 0. -1.
    9900012    2    1    2    0    0  0.15855548713E+01 -0.38062098211E+02  0.14210174936E+02  0.50528851261E+02  0.29999973894E+02 0.  0.
        -12    1    1    2    0    0 -0.15855548713E+01  0.38062098211E+02 -0.14210174936E+02  0.40659148739E+02  0.00000000000E+00 0.  1.
         11    1    3    3    0    0 -0.22136043893E+01 -0.28168083892E+02  0.10913613785E+00  0.28255139453E+02  0.51100000000E-03 0. -1.
        -11    1    3    3    0    0 -0.46271006412E+01 -0.66163023238E+01  0.80033812616E+01  0.11368360861E+02  0.51100000000E-03 0.  1.
         12    1    3    3    0    0  0.84262599018E+01 -0.32777119946E+01  0.60976575364E+01  0.10905350947E+02  0.00000000000E+00 0. -1.
</event>
<event>
 7    1  0.4962385E-011  0.5052882E+02  0.7816164E-02  0.1300439E+00
        -11   -1    0    0    0    0  0.00000000000E+00  0.00000000000E+00  0.45593999997E+02  0.45594000000E+02  0.51100000000E-03 0. -1.
         11   -1    0    0    0    0 -0.00000000000E+00 -0.00000000000E+00 -0.45593999997E+02  0.45594000000E+02  0.51100000000E-03 0.  1.
    9900012    2    1    2    0    0 -0.27169700485E+02 -0.17336171297E+02  0.24787766943E+02  0.50528820843E+02  0.29999881435E+02 0.  0.
        -12    1    1    2    0    0  0.27169700485E+02  0.17336171297E+02 -0.24787766943E+02  0.40659179157E+02  0.00000000000E+00 0.  1.
         11    1    3    3    0    0 -0.63821873120E+01 -0.71602316167E+01  0.23988862198E+02  0.25835377712E+02  0.51100000000E-03 0. -1.
        -11    1    3    3    0    0 -0.35830101368E+01 -0.17447276499E+01 -0.32123380420E+01  0.51187061031E+01  0.51100000000E-03 0.  1.
         12    1    3    3    0    0 -0.17204503036E+02 -0.84312120305E+01  0.40112427863E+01  0.19574737028E+02  0.00000000000E+00 0. -1.
</event>
<event>
 7    1  0.4962385E-011  0.5052888E+02  0.7816164E-02  0.1300439E+00
        -11   -1    0    0    0    0  0.00000000000E+00  0.00000000000E+00  0.45593999997E+02  0.45594000000E+02  0.51100000000E-03 0.  1.
         11   -1    0    0    0    0 -0.00000000000E+00 -0.00000000000E+00 -0.45593999997E+02  0.45594000000E+02  0.51100000000E-03 0. -1.
    9900012    2    1    2    0    0  0.38737430626E+02 -0.77253433480E+00  0.12327970378E+02  0.50528878091E+02  0.30000055446E+02 0.  0.
        -12    1    1    2    0    0 -0.38737430626E+02  0.77253433480E+00 -0.12327970378E+02  0.40659121909E+02  0.00000000000E+00 0.  1.
         11    1    3    3    0    0  0.13301237097E+02 -0.20450720330E+01  0.26285939094E+01  0.13711846489E+02  0.51100000000E-03 0. -1.
        -11    1    3    3    0    0  0.21154066526E+01 -0.48946513714E+01  0.11450416502E+02  0.12631096377E+02  0.51100000000E-03 0.  1.
        -12    1    3    3    0    0  0.23320786876E+02  0.61671890695E+01 -0.17510400335E+01  0.24185935225E+02  0.00000000000E+00 0.  1.
</event>
<event>
 7    1  0.4962385E-011  0.5052886E+02  0.7816164E-02  0.1300439E+00
        -11   -1    0    0    0    0  0.00000000000E+00  0.00000000000E+00  0.45593999997E+02  0.45594000000E+02  0.51100000000E-03 0.  1.
         11   -1    0    0    0    0 -0.00000000000E+00 -0.00000000000E+00 -0.45593999997E+02  0.45594000000E+02  0.51100000000E-03 0. -1.
    9900012    2    1    2    0    0  0.15522003271E+02  0.99920803765E+00 -0.37566400746E+02  0.50528862439E+02  0.30000007868E+02 0.  0.
        -12    1    1    2    0    0 -0.15522003271E+02 -0.99920803765E+00  0.37566400746E+02  0.40659137561E+02  0.00000000000E+00 0.  1.
         11    1    3    3    0    0  0.89850010400E+01 -0.46680406906E+01 -0.91050098198E+01  0.13616976598E+02  0.51100000000E-03 0. -1.
        -11    1    3    3    0    0 -0.74823143034E+01  0.47420414327E+01 -0.71403065879E+01  0.11377871625E+02  0.51100000000E-03 0.  1.
        -12    1    3    3    0    0  0.14019316535E+02  0.92520729559E+00 -0.21321084338E+02  0.25534014216E+02  0.00000000000E+00 0.  1.
</event>
<event>
 7    1  0.4962385E-011  0.5052884E+02  0.7816164E-02  0.1300439E+00
        -11   -1    0    0    0    0  0.00000000000E+00  0.00000000000E+00  0.45593999997E+02  0.45594000000E+02  0.51100000000E-03 0.  1.
         11   -1    0    0    0    0 -0.00000000000E+00 -0.00000000000E+00 -0.45593999997E+02  0.45594000000E+02  0.51100000000E-03 0. -1.
    9900012    2    1    2    0    0  0.16969104888E+02 -0.21474192825E+02 -0.30067854723E+02  0.50528839091E+02  0.29999936902E+02 0.  0.
        -12    1    1    2    0    0 -0.16969104888E+02  0.21474192825E+02  0.30067854723E+02  0.40659160909E+02  0.00000000000E+00 0.  1.
         11    1    3    3    0    0  0.16067485518E+02  0.74082525580E+00 -0.18473271165E+02  0.24494380187E+02  0.51100000000E-03 0. -1.
        -11    1    3    3    0    0  0.33496509485E+01 -0.70442940733E+01 -0.25655010098E+01  0.82112140491E+01  0.51100000000E-03 0.  1.
         12    1    3    3    0    0 -0.24480315790E+01 -0.15170724007E+02 -0.90290825481E+01  0.17823244856E+02  0.00000000000E+00 0. -1.
</event>
<event>
 7    1  0.4962385E-011  0.5052886E+02  0.7816164E-02  0.1300439E+00
        -11   -1    0    0    0    0  0.00000000000E+00  0.00000000000E+00  0.45593999997E+02  0.45594000000E+02  0.51100000000E-03 0.  1.
         11   -1    0    0    0    0 -0.00000000000E+00 -0.00000000000E+00 -0.45593999997E+02  0.45594000000E+02  0.51100000000E-03 0. -1.
    9900012    2    1    2    0    0 -0.17860263774E+02 -0.99320124969E+01 -0.35150132890E+02  0.50528859127E+02  0.29999997804E+02 0.  0.
        -12    1    1    2    0    0  0.17860263774E+02  0.99320124969E+01  0.35150132890E+02  0.40659140873E+02  0.00000000000E+00 0.  1.
         11    1    3    3    0    0 -0.93293185523E+01 -0.75742085281E+00  0.65751076535E+00  0.93830800736E+01  0.51100000000E-03 0. -1.
        -11    1    3    3    0    0  0.20842914637E+01 -0.84842410683E+01 -0.22313657204E+02  0.23963011403E+02  0.51100000000E-03 0.  1.
         12    1    3    3    0    0 -0.10615236686E+02 -0.69035057578E+00 -0.13493986451E+02  0.17182767651E+02  0.00000000000E+00 0. -1.
</event>
<event>
 7    1  0.4962385E-011  0.5052885E+02  0.7816164E-02  0.1300439E+00
        -11   -1    0    0    0    0  0.00000000000E+00  0.00000000000E+00  0.45593999997E+02  0.45594000000E+02  0.51100000000E-03 0. -1.
         11   -1    0    0    0    0 -0.00000000000E+00 -0.00000000000E+00 -0.45593999997E+02  0.45594000000E+02  0.51100000000E-03 0.  1.
    9900012    2    1    2    0    0 -0.23340627845E+02 -0.24670417191E+02  0.22355141116E+02  0.50528846948E+02  0.29999960783E+02 0.  0.
        -12    1    1    2    0    0  0.23340627845E+02  0.24670417191E+02 -0.22355141116E+02  0.40659153052E+02  0.00000000000E+00 0.  1.
         11    1    3    3    0    0 -0.47104602178E+01 -0.51260700864E+01  0.16597138323E+02  0.17998056305E+02  0.51100000000E-03 0. -1.
        -11    1    3    3    0    0 -0.94978952438E+01 -0.14862927797E+02 -0.43068226091E+01  0.18156689071E+02  0.51100000000E-03 0.  1.
        -12    1    3    3    0    0 -0.91322723832E+01 -0.46814193075E+01  0.10064825402E+02  0.14374101572E+02  0.00000000000E+00 0.  1.
</event>
<event>
 7    1  0.4962385E-011  0.5052887E+02  0.7816164E-02  0.1300439E+00
        -11   -1    0    0    0    0  0.00000000000E+00  0.00000000000E+00  0.45593999997E+02  0.45594000000E+02  0.51100000000E-03 0.  1.
         11   -1    0    0    0    0 -0.00000000000E+00 -0.00000000000E+00 -0.45593999997E+02  0.45594000000E+02  0.51100000000E-03 0. -1.
    9900012    2    1    2    0    0  0.25275080290E+02 -0.21895290495E+02 -0.23128591070E+02  0.50528866285E+02  0.30000019561E+02 0.  0.
        -12    1    1    2    0    0 -0.25275080290E+02  0.21895290495E+02  0.23128591070E+02  0.40659133715E+02  0.00000000000E+00 0.  1.
         11    1    3    3    0    0  0.24293525582E+02 -0.21499349225E+02 -0.14623489114E+02  0.35584320092E+02  0.51100000000E-03 0.  1.
        -11    1    3    3    0    0  0.22545167028E+01  0.31974541094E+01 -0.10085482275E+02  0.10817740583E+02  0.51100000000E-03 0. -1.
        -12    1    3    3    0    0 -0.12729619941E+01 -0.35933953792E+01  0.15803803195E+01  0.41268056102E+01  0.00000000000E+00 0.  1.
</event>
<event>
 7    1  0.4962385E-011  0.5052887E+02  0.7816164E-02  0.1300439E+00
        -11   -1    0    0    0    0  0.00000000000E+00  0.00000000000E+00  0.45593999997E+02  0.45594000000E+02  0.51100000000E-03 0.  1.
         11   -1    0    0    0    0 -0.00000000000E+00 -0.00000000000E+00 -0.45593999997E+02  0.45594000000E+02  0.51100000000E-03 0. -1.
    9900012    2    1    2    0    0 -0.19889536982E+02 -0.17311095822E+02 -0.30949919683E+02  0.50528865131E+02  0.30000016051E+02 0.  0.
        -12    1    1    2    0    0  0.19889536982E+02  0.17311095822E+02  0.30949919683E+02  0.40659134869E+02  0.00000000000E+00 0.  1.
         11    1    3    3    0    0 -0.95348547741E+01  0.40918819617E+01 -0.10325490395E+02  0.14638056760E+02  0.51100000000E-03 0. -1.
        -11    1    3    3    0    0  0.26068162978E+01 -0.13761323319E+02 -0.12593755715E+02  0.18835397367E+02  0.51100000000E-03 0.  1.
        -12    1    3    3    0    0 -0.12961498505E+02 -0.76416544653E+01 -0.80306735740E+01  0.17055411004E+02  0.00000000000E+00 0.  1.
</event>
<event>
 7    1  0.4962385E-011  0.5052885E+02  0.7816164E-02  0.1300439E+00
        -11   -1    0    0    0    0  0.00000000000E+00  0.00000000000E+00  0.45593999997E+02  0.45594000000E+02  0.51100000000E-03 0. -1.
         11   -1    0    0    0    0 -0.00000000000E+00 -0.00000000000E+00 -0.45593999997E+02  0.45594000000E+02  0.51100000000E-03 0.  1.
    9900012    2    1    2    0    0  0.35813699127E+02 -0.10599379843E+02 -0.16068546818E+02  0.50528854719E+02  0.29999984402E+02 0.  0.
        -12    1    1    2    0    0 -0.35813699127E+02  0.10599379843E+02  0.16068546818E+02  0.40659145281E+02  0.00000000000E+00 0.  1.
         11    1    3    3    0    0  0.56076541967E+01 -0.38968515885E+01 -0.53063068580E+01  0.86480131027E+01  0.51100000000E-03 0. -1.
        -11    1    3    3    0    0  0.60609059142E+01 -0.52080599820E+01  0.79688997122E+01  0.11285469957E+02  0.51100000000E-03 0.  1.
        -12    1    3    3    0    0  0.24145139016E+02 -0.14944682725E+01 -0.18731139672E+02  0.30595371658E+02  0.00000000000E+00 0.  1.
</event>
<event>
 7    1  0.4962385E-011  0.5052886E+02  0.7816164E-02  0.1300439E+00
        -11   -1    0    0    0    0  0.00000000000E+00  0.00000000000E+00  0.45593999997E+02  0.45594000000E+02  0.51100000000E-03 0.  1.
         11   -1    0    0    0    0 -0.00000000000E+00 -0.00000000000E+00 -0.45593999997E+02  0.45594000000E+02  0.51100000000E-03 0. -1.
    9900012    2    1    2    0    0  0.24328399522E+02 -0.15824617488E+02 -0.28475886582E+02  0.50528860086E+02  0.30000000716E+02 0.  0.
        -12    1    1    2    0    0 -0.24328399522E+02  0.15824617488E+02  0.28475886582E+02  0.40659139914E+02  0.00000000000E+00 0.  1.
         11    1    3    3    0    0  0.15836643666E+02 -0.11256951291E+02 -0.24576626882E+02  0.31329360417E+02  0.51100000000E-03 0. -1.
        -11    1    3    3    0    0 -0.30279694507E+01 -0.59700713820E+01  0.67015819884E+00  0.67275154086E+01  0.51100000000E-03 0.  1.
        -12    1    3    3    0    0  0.11519725307E+02  0.14024051852E+01 -0.45694178985E+01  0.12471984260E+02  0.00000000000E+00 0.  1.
</event>
<event>
 7    1  0.4962385E-011  0.5052886E+02  0.7816164E-02  0.1300439E+00
        -11   -1    0    0    0    0  0.00000000000E+00  0.00000000000E+00  0.45593999997E+02  0.45594000000E+02  0.51100000000E-03 0.  1.
         11   -1    0    0    0    0 -0.00000000000E+00 -0.00000000000E+00 -0.45593999997E+02  0.45594000000E+02  0.51100000000E-03 0. -1.
    9900012    2    1    2    0    0  0.39912571908E+02  0.75240193117E+01  0.18818296901E+01  0.50528861472E+02  0.30000004929E+02 0.  0.
        -12    1    1    2    0    0 -0.39912571908E+02 -0.75240193117E+01 -0.18818296901E+01  0.40659138528E+02  0.00000000000E+00 0.  1.
         11    1    3    3    0    0  0.29909996524E+02  0.73761117850E+01  0.51101302543E+01  0.31227045146E+02  0.51100000000E-03 0. -1.
        -11    1    3    3    0    0 -0.31270654631E-01  0.10697104021E+01  0.57240482796E+01  0.58232282427E+01  0.51100000000E-03 0.  1.
         12    1    3    3    0    0  0.10033846039E+02 -0.92180287546E+00 -0.89523488438E+01  0.13478588082E+02  0.00000000000E+00 0. -1.
</event>
<event>
 7    1  0.4962385E-011  0.5052884E+02  0.7816164E-02  0.1300439E+00
        -11   -1    0    0    0    0  0.00000000000E+00  0.00000000000E+00  0.45593999997E+02  0.45594000000E+02  0.51100000000E-03 0.  1.
         11   -1    0    0    0    0 -0.00000000000E+00 -0.00000000000E+00 -0.45593999997E+02  0.45594000000E+02  0.51100000000E-03 0. -1.
    9900012    2    1    2    0    0  0.23020384416E+02 -0.90580933179E+01 -0.32267327660E+02  0.50528836364E+02  0.29999928613E+02 0.  0.
        -12    1    1    2    0    0 -0.23020384416E+02  0.90580933179E+01  0.32267327660E+02  0.40659163636E+02  0.00000000000E+00 0.  1.
         11    1    3    3    0    0  0.12767391293E+02 -0.18243450591E+02 -0.23276190647E+02  0.32211967049E+02  0.51100000000E-03 0. -1.
        -11    1    3    3    0    0  0.81670586345E+01  0.68897922453E+01 -0.22828133007E+01  0.10926175944E+02  0.51100000000E-03 0.  1.
         12    1    3    3    0    0  0.20859344887E+01  0.22955650273E+01 -0.67083237119E+01  0.73906933714E+01  0.00000000000E+00 0. -1.
</event>
<event>
 7    1  0.4962385E-011  0.5052886E+02  0.7816164E-02  0.1300439E+00
        -11   -1    0    0    0    0  0.00000000000E+00  0.00000000000E+00  0.45593999997E+02  0.45594000000E+02  0.51100000000E-03 0.  1.
         11   -1    0    0    0    0 -0.00000000000E+00 -0.00000000000E+00 -0.45593999997E+02  0.45594000000E+02  0.51100000000E-03 0. -1.
    9900012    2    1    2    0    0  0.94940460558E+01 -0.43330767571E+01 -0.39296982148E+02  0.50528864856E+02  0.30000015217E+02 0.  0.
        -12    1    1    2    0    0 -0.94940460558E+01  0.43330767571E+01  0.39296982148E+02  0.40659135144E+02  0.00000000000E+00 0.  1.
         11    1    3    3    0    0 -0.74000428271E+01 -0.52112077111E+01 -0.20339475440E+02  0.22262335481E+02  0.51100000000E-03 0. -1.
        -11    1    3    3    0    0  0.90957979498E+01  0.38761167087E+01 -0.31326968412E+01  0.10371673483E+02  0.51100000000E-03 0.  1.
         12    1    3    3    0    0  0.77982909331E+01 -0.29979857547E+01 -0.15824809867E+02  0.17894855892E+02  0.00000000000E+00 0. -1.
</event>
<event>
 7    1  0.4962385E-011  0.5052885E+02  0.7816164E-02  0.1300439E+00
        -11   -1    0    0    0    0  0.00000000000E+00  0.00000000000E+00  0.45593999997E+02  0.45594000000E+02  0.51100000000E-03 0.  1.
         11   -1    0    0    0    0 -0.00000000000E+00 -0.00000000000E+00 -0.45593999997E+02  0.45594000000E+02  0.51100000000E-03 0. -1.
    9900012    2    1    2    0    0  0.19717343233E+02  0.70408013708E+01 -0.34854262305E+02  0.50528854548E+02  0.29999983883E+02 0.  0.
        -12    1    1    2    0    0 -0.19717343233E+02 -0.70408013708E+01  0.34854262305E+02  0.40659145452E+02  0.00000000000E+00 0.  1.
         11    1    3    3    0    0  0.22113531250E+02  0.10730746578E+02 -0.13076720330E+02  0.27841655865E+02  0.51100000000E-03 0. -1.
        -11    1    3    3    0    0 -0.77197501582E+00 -0.44159276199E+01 -0.17241111962E+02  0.17814384753E+02  0.51100000000E-03 0.  1.
         12    1    3    3    0    0 -0.16242130012E+01  0.72598241242E+00 -0.45364300129E+01  0.48728139302E+01  0.00000000000E+00 0. -1.
</event>
<event>
 7    1  0.4962385E-011  0.5052889E+02  0.7816164E-02  0.1300439E+00
        -11   -1    0    0    0    0  0.00000000000E+00  0.00000000000E+00  0.45593999997E+02  0.45594000000E+02  0.51100000000E-03 0. -1.
         11   -1    0    0    0    0 -0.00000000000E+00 -0.00000000000E+00 -0.45593999997E+02  0.45594000000E+02  0.51100000000E-03 0.  1.
    9900012    2    1    2    0    0 -0.37327100801E+02  0.16071935974E+02  0.12424791014E+01  0.50528888666E+02  0.30000087588E+02 0.  0.
        -12    1    1    2    0    0  0.37327100801E+02 -0.16071935974E+02 -0.12424791014E+01  0.40659111334E+02  0.00000000000E+00 0.  1.
         11    1    3    3    0    0 -0.30978434853E+02  0.17270384150E+02 -0.55302180067E+01  0.35895861963E+02  0.51100000000E-03 0. -1.
        -11    1    3    3    0    0  0.43668227093E+00 -0.43626873097E+01 -0.21789058757E+00  0.43898984654E+01  0.51100000000E-03 0.  1.
         12    1    3    3    0    0 -0.67853482188E+01  0.31642391340E+01  0.69905876956E+01  0.10243128237E+02  0.00000000000E+00 0. -1.
</event>
<event>
 7    1  0.4962385E-011  0.5052886E+02  0.7816164E-02  0.1300439E+00
        -11   -1    0    0    0    0  0.00000000000E+00  0.00000000000E+00  0.45593999997E+02  0.45594000000E+02  0.51100000000E-03 0.  1.
         11   -1    0    0    0    0 -0.00000000000E+00 -0.00000000000E+00 -0.45593999997E+02  0.45594000000E+02  0.51100000000E-03 0. -1.
    9900012    2    1    2    0    0  0.39944253798E+02  0.11836479698E+01 -0.74980885942E+01  0.50528858758E+02  0.29999996681E+02 0.  0.
        -12    1    1    2    0    0 -0.39944253798E+02 -0.11836479698E+01  0.74980885942E+01  0.40659141242E+02  0.00000000000E+00 0.  1.
         11    1    3    3    0    0  0.10858594611E+02  0.12157011047E+02  0.97512031619E-01  0.16300659600E+02  0.51100000000E-03 0. -1.
        -11    1    3    3    0    0  0.35383262778E+01 -0.30596397545E+01  0.28930454523E+01  0.55000782291E+01  0.51100000000E-03 0.  1.
         12    1    3    3    0    0  0.25547332909E+02 -0.79137233225E+01 -0.10488646078E+02  0.28728120929E+02  0.00000000000E+00 0. -1.
</event>
<event>
 7    1  0.4962385E-011  0.5052886E+02  0.7816164E-02  0.1300439E+00
        -11   -1    0    0    0    0  0.00000000000E+00  0.00000000000E+00  0.45593999997E+02  0.45594000000E+02  0.51100000000E-03 0.  1.
         11   -1    0    0    0    0 -0.00000000000E+00 -0.00000000000E+00 -0.45593999997E+02  0.45594000000E+02  0.51100000000E-03 0. -1.
    9900012    2    1    2    0    0 -0.14285186531E+02  0.13030734526E+02 -0.35767288720E+02  0.50528861557E+02  0.30000005189E+02 0.  0.
        -12    1    1    2    0    0  0.14285186531E+02 -0.13030734526E+02  0.35767288720E+02  0.40659138443E+02  0.00000000000E+00 0.  1.
         11    1    3    3    0    0 -0.21729559884E+02  0.33497833994E+01 -0.29408946256E+02  0.36718945270E+02  0.51100000000E-03 0. -1.
        -11    1    3    3    0    0  0.29539319381E+01  0.43862178613E+01 -0.22854285789E+01  0.57608857889E+01  0.51100000000E-03 0.  1.
         12    1    3    3    0    0  0.44904414150E+01  0.52947332651E+01 -0.40729138855E+01  0.80490304986E+01  0.00000000000E+00 0. -1.
</event>
<event>
 7    1  0.4962385E-011  0.5052886E+02  0.7816164E-02  0.1300439E+00
        -11   -1    0    0    0    0  0.00000000000E+00  0.00000000000E+00  0.45593999997E+02  0.45594000000E+02  0.51100000000E-03 0.  1.
         11   -1    0    0    0    0 -0.00000000000E+00 -0.00000000000E+00 -0.45593999997E+02  0.45594000000E+02  0.51100000000E-03 0. -1.
    9900012    2    1    2    0    0 -0.21301761398E+02 -0.23542374809E+02 -0.25399940723E+02  0.50528862785E+02  0.30000008921E+02 0.  0.
        -12    1    1    2    0    0  0.21301761398E+02  0.23542374809E+02  0.25399940723E+02  0.40659137215E+02  0.00000000000E+00 0.  1.
         11    1    3    3    0    0 -0.21244041706E+02 -0.35570358153E+01 -0.17532456799E+02  0.27773167869E+02  0.51100000000E-03 0. -1.
        -11    1    3    3    0    0 -0.19555748130E+01 -0.19184160532E+02 -0.69127443079E+01  0.20485173231E+02  0.51100000000E-03 0.  1.
         12    1    3    3    0    0  0.18978551208E+01 -0.80117846164E+00 -0.95473961665E+00  0.22705216851E+01  0.00000000000E+00 0. -1.
</event>
<event>
 7    1  0.4962385E-011  0.5052886E+02  0.7816164E-02  0.1300439E+00
        -11   -1    0    0    0    0  0.00000000000E+00  0.00000000000E+00  0.45593999997E+02  0.45594000000E+02  0.51100000000E-03 0.  1.
         11   -1    0    0    0    0 -0.00000000000E+00 -0.00000000000E+00 -0.45593999997E+02  0.45594000000E+02  0.51100000000E-03 0. -1.
    9900012    2    1    2    0    0 -0.18371383968E+02  0.10886289015E+02 -0.34599810713E+02  0.50528856640E+02  0.29999990242E+02 0.  0.
        -12    1    1    2    0    0  0.18371383968E+02 -0.10886289015E+02  0.34599810713E+02  0.40659143360E+02  0.00000000000E+00 0.  1.
         11    1    3    3    0    0  0.91918603157E+00 -0.80161705893E+01 -0.53652731073E+01  0.96896877996E+01  0.51100000000E-03 0. -1.
        -11    1    3    3    0    0 -0.96843738948E+01  0.14432094239E+02 -0.21872852717E+02  0.27937324999E+02  0.51100000000E-03 0.  1.
        -12    1    3    3    0    0 -0.96061961045E+01  0.44703653657E+01 -0.73616848892E+01  0.12901843841E+02  0.00000000000E+00 0.  1.
</event>
<event>
 7    1  0.4962385E-011  0.5052886E+02  0.7816164E-02  0.1300439E+00
        -11   -1    0    0    0    0  0.00000000000E+00  0.00000000000E+00  0.45593999997E+02  0.45594000000E+02  0.51100000000E-03 0. -1.
         11   -1    0    0    0    0 -0.00000000000E+00 -0.00000000000E+00 -0.45593999997E+02  0.45594000000E+02  0.51100000000E-03 0.  1.
    9900012    2    1    2    0    0  0.26690889654E+02  0.15242871562E+02  0.26616097728E+02  0.50528863483E+02  0.30000011043E+02 0.  0.
        -12    1    1    2    0    0 -0.26690889654E+02 -0.15242871562E+02 -0.26616097728E+02  0.40659136517E+02  0.00000000000E+00 0.  1.
         11    1    3    3    0    0  0.94334917558E+01  0.38226312194E+01  0.24066659817E+02  0.26130583445E+02  0.51100000000E-03 0. -1.
        -11    1    3    3    0    0  0.58551724407E+01  0.11320853665E+02  0.25379626218E+01  0.12995615666E+02  0.51100000000E-03 0.  1.
        -12    1    3    3    0    0  0.11402225458E+02  0.99386678237E-01  0.11475289279E-01  0.11402664372E+02  0.00000000000E+00 0.  1.
</event>
<event>
 7    1  0.7643423E-011  0.5052885E+02  0.7816164E-02  0.1300439E+00
        -11   -1    0    0    0    0  0.00000000000E+00  0.00000000000E+00  0.45593999997E+02  0.45594000000E+02  0.51100000000E-03 0. -1.
         11   -1    0    0    0    0 -0.00000000000E+00 -0.00000000000E+00 -0.45593999997E+02  0.45594000000E+02  0.51100000000E-03 0.  1.
    9900012    2    1    2    0    0  0.32961693485E+02  0.22872186402E+02  0.65997131455E+01  0.50528851437E+02  0.29999974429E+02 0.  0.
        -12    1    1    2    0    0 -0.32961693485E+02 -0.22872186402E+02 -0.65997131455E+01  0.40659148563E+02  0.00000000000E+00 0.  1.
         11    1    3    3    0    0  0.29933037135E+02  0.21443030672E+02  0.90207592173E+01  0.37909950852E+02  0.51100000000E-03 0. -1.
        -11    1    3    3    0    0  0.10732636669E+01 -0.44519628922E+01  0.20089405273E+01  0.50007710201E+01  0.51100000000E-03 0.  1.
        -12    1    3    3    0    0  0.19553926838E+01  0.58811186227E+01 -0.44299865990E+01  0.76181295650E+01  0.00000000000E+00 0.  1.
</event>
<event>
 7    1  0.4962385E-011  0.5052886E+02  0.7816164E-02  0.1300439E+00
        -11   -1    0    0    0    0  0.00000000000E+00  0.00000000000E+00  0.45593999997E+02  0.45594000000E+02  0.51100000000E-03 0.  1.
         11   -1    0    0    0    0 -0.00000000000E+00 -0.00000000000E+00 -0.45593999997E+02  0.45594000000E+02  0.51100000000E-03 0. -1.
    9900012    2    1    2    0    0  0.11932334244E+02  0.12960182365E+02 -0.36644493576E+02  0.50528857893E+02  0.29999994051E+02 0.  0.
        -12    1    1    2    0    0 -0.11932334244E+02 -0.12960182365E+02  0.36644493576E+02  0.40659142107E+02  0.00000000000E+00 0.  1.
         11    1    3    3    0    0 -0.86716087248E+00  0.11524564964E+02 -0.54109575592E+01  0.12761113884E+02  0.51100000000E-03 0. -1.
        -11    1    3    3    0    0  0.15744943279E+02  0.30552249169E+01 -0.17977073864E+02  0.24091758406E+02  0.51100000000E-03 0.  1.
        -12    1    3    3    0    0 -0.29454481624E+01 -0.16196075156E+01 -0.13256462153E+02  0.13675985602E+02  0.00000000000E+00 0.  1.
</event>
<event>
 7    1  0.4962385E-011  0.5052886E+02  0.7816164E-02  0.1300439E+00
        -11   -1    0    0    0    0  0.00000000000E+00  0.00000000000E+00  0.45593999997E+02  0.45594000000E+02  0.51100000000E-03 0. -1.
         11   -1    0    0    0    0 -0.00000000000E+00 -0.00000000000E+00 -0.45593999997E+02  0.45594000000E+02  0.51100000000E-03 0.  1.
    9900012    2    1    2    0    0  0.21518672254E+02 -0.21981725816E+02  0.26587900012E+02  0.50528856471E+02  0.29999989730E+02 0.  0.
        -12    1    1    2    0    0 -0.21518672254E+02  0.21981725816E+02 -0.26587900012E+02  0.40659143529E+02  0.00000000000E+00 0.  1.
         11    1    3    3    0    0  0.11686106037E+02 -0.27540837656E+02  0.18895933922E+02  0.35385295423E+02  0.51100000000E-03 0. -1.
        -11    1    3    3    0    0  0.26635581568E+00  0.20577619815E+01 -0.42537639299E+00  0.21180828903E+01  0.51100000000E-03 0.  1.
         12    1    3    3    0    0  0.95662104011E+01  0.35013498583E+01  0.81173424832E+01  0.13025478159E+02  0.00000000000E+00 0. -1.
</event>
<event>
 7    1  0.4962385E-011  0.5052887E+02  0.7816164E-02  0.1300439E+00
        -11   -1    0    0    0    0  0.00000000000E+00  0.00000000000E+00  0.45593999997E+02  0.45594000000E+02  0.51100000000E-03 0. -1.
         11   -1    0    0    0    0 -0.00000000000E+00 -0.00000000000E+00 -0.45593999997E+02  0.45594000000E+02  0.51100000000E-03 0.  1.
    9900012    2    1    2    0    0  0.26577980480E+02  0.48912982482E+01  0.30378465698E+02  0.50528867901E+02  0.30000024471E+02 0.  0.
        -12    1    1    2    0    0 -0.26577980480E+02 -0.48912982482E+01 -0.30378465698E+02  0.40659132099E+02  0.00000000000E+00 0.  1.
         11    1    3    3    0    0 -0.78200301257E+00 -0.13390844704E+01  0.94071110613E+01  0.95340660115E+01  0.51100000000E-03 0. -1.
        -11    1    3    3    0    0  0.27588476028E+02  0.62421178136E+01  0.24522783133E+02  0.37436011235E+02  0.51100000000E-03 0.  1.
        -12    1    3    3    0    0 -0.22849253628E+00 -0.11735095006E-01 -0.35514284967E+01  0.35587906540E+01  0.00000000000E+00 0.  1.
</event>
<event>
 7    1  0.4962385E-011  0.5052882E+02  0.7816164E-02  0.1300439E+00
        -11   -1    0    0    0    0  0.00000000000E+00  0.00000000000E+00  0.45593999997E+02  0.45594000000E+02  0.51100000000E-03 0.  1.
         11   -1    0    0    0    0 -0.00000000000E+00 -0.00000000000E+00 -0.45593999997E+02  0.45594000000E+02  0.51100000000E-03 0. -1.
    9900012    2    1    2    0    0  0.33474582264E+01 -0.30602633940E+02 -0.26560158630E+02  0.50528822597E+02  0.29999886765E+02 0.  0.
        -12    1    1    2    0    0 -0.33474582264E+01  0.30602633940E+02  0.26560158630E+02  0.40659177403E+02  0.00000000000E+00 0.  1.
         11    1    3    3    0    0  0.11879273094E+02 -0.21528395012E+01 -0.80483947449E+01  0.14509600456E+02  0.51100000000E-03 0. -1.
        -11    1    3    3    0    0 -0.66188647487E+01 -0.82711770326E+01 -0.55395516919E+01  0.11954429023E+02  0.51100000000E-03 0.  1.
         12    1    3    3    0    0 -0.19129501190E+01 -0.20178617407E+02 -0.12972212193E+02  0.24064793117E+02  0.00000000000E+00 0. -1.
</event>
<event>
 7    1  0.4962385E-011  0.5052886E+02  0.7816164E-02  0.1300439E+00
        -11   -1    0    0    0    0  0.00000000000E+00  0.00000000000E+00  0.45593999997E+02  0.45594000000E+02  0.51100000000E-03 0. -1.
         11   -1    0    0    0    0 -0.00000000000E+00 -0.00000000000E+00 -0.45593999997E+02  0.45594000000E+02  0.51100000000E-03 0.  1.
    9900012    2    1    2    0    0  0.22619946611E+02 -0.78998308361E+01  0.32849599282E+02  0.50528862221E+02  0.30000007207E+02 0.  0.
        -12    1    1    2    0    0 -0.22619946611E+02  0.78998308361E+01 -0.32849599282E+02  0.40659137779E+02  0.00000000000E+00 0.  1.
         11    1    3    3    0    0  0.10886162909E+02 -0.74081372952E+01  0.43225982004E+01  0.13859072716E+02  0.51100000000E-03 0. -1.
        -11    1    3    3    0    0 -0.41609325443E+00 -0.79627339340E+01  0.15125350201E+02  0.17098376655E+02  0.51100000000E-03 0.  1.
         12    1    3    3    0    0  0.12149876956E+02  0.74710403931E+01  0.13401650882E+02  0.19571412850E+02  0.00000000000E+00 0. -1.
</event>
<event>
 7    1  0.4962385E-011  0.5052886E+02  0.7816164E-02  0.1300439E+00
        -11   -1    0    0    0    0  0.00000000000E+00  0.00000000000E+00  0.45593999997E+02  0.45594000000E+02  0.51100000000E-03 0.  1.
         11   -1    0    0    0    0 -0.00000000000E+00 -0.00000000000E+00 -0.45593999997E+02  0.45594000000E+02  0.51100000000E-03 0. -1.
    9900012    2    1    2    0    0  0.23098700983E+02  0.49785177013E+01 -0.33088218125E+02  0.50528858294E+02  0.29999995270E+02 0.  0.
        -12    1    1    2    0    0 -0.23098700983E+02 -0.49785177013E+01  0.33088218125E+02  0.40659141706E+02  0.00000000000E+00 0.  1.
         11    1    3    3    0    0  0.25181716969E+02  0.11715102557E+02 -0.20855656199E+02  0.34732130559E+02  0.51100000000E-03 0. -1.
        -11    1    3    3    0    0 -0.46562606885E+01 -0.34443010319E+01 -0.65529426282E+01  0.87455720538E+01  0.51100000000E-03 0.  1.
         12    1    3    3    0    0  0.25732447028E+01 -0.32922838233E+01 -0.56796192978E+01  0.70511556813E+01  0.00000000000E+00 0. -1.
</event>
<event>
 7    1  0.4962385E-011  0.5052886E+02  0.7816164E-02  0.1300439E+00
        -11   -1    0    0    0    0  0.00000000000E+00  0.00000000000E+00  0.45593999997E+02  0.45594000000E+02  0.51100000000E-03 0. -1.
         11   -1    0    0    0    0 -0.00000000000E+00 -0.00000000000E+00 -0.45593999997E+02  0.45594000000E+02  0.51100000000E-03 0.  1.
    9900012    2    1    2    0    0 -0.28961172518E+02  0.26593822751E+02 -0.10353012319E+02  0.50528858516E+02  0.29999995946E+02 0.  0.
        -12    1    1    2    0    0  0.28961172518E+02 -0.26593822751E+02  0.10353012319E+02  0.40659141484E+02  0.00000000000E+00 0.  1.
         11    1    3    3    0    0 -0.15082796334E+02  0.11196761598E+01  0.48618821856E+01  0.15886545207E+02  0.51100000000E-03 0. -1.
        -11    1    3    3    0    0 -0.12269335774E+02  0.23725995399E+02 -0.93255851632E+01  0.28291800878E+02  0.51100000000E-03 0.  1.
         12    1    3    3    0    0 -0.16090404093E+01  0.17481511926E+01 -0.58893093411E+01  0.63505124317E+01  0.00000000000E+00 0. -1.
</event>
<event>
 7    1  0.4962385E-011  0.5052886E+02  0.7816164E-02  0.1300439E+00
        -11   -1    0    0    0    0  0.00000000000E+00  0.00000000000E+00  0.45593999997E+02  0.45594000000E+02  0.51100000000E-03 0.  1.
         11   -1    0    0    0    0 -0.00000000000E+00 -0.00000000000E+00 -0.45593999997E+02  0.45594000000E+02  0.51100000000E-03 0. -1.
    9900012    2    1    2    0    0  0.13357512882E+02  0.32427155858E+02 -0.20572358068E+02  0.50528861988E+02  0.30000006498E+02 0.  0.
        -12    1    1    2    0    0 -0.13357512882E+02 -0.32427155858E+02  0.20572358068E+02  0.40659138012E+02  0.00000000000E+00 0.  1.
         11    1    3    3    0    0 -0.21858683109E+01  0.10839785741E+02 -0.74723919079E+01  0.13345996263E+02  0.51100000000E-03 0. -1.
        -11    1    3    3    0    0  0.21159207093E+02  0.18772920961E+02 -0.12319513626E+02  0.30852958083E+02  0.51100000000E-03 0.  1.
        -12    1    3    3    0    0 -0.56158259003E+01  0.28144491567E+01 -0.78045253373E+00  0.63299076420E+01  0.00000000000E+00 0.  1.
</event>
<event>
 7    1  0.4962385E-011  0.5052886E+02  0.7816164E-02  0.1300439E+00
        -11   -1    0    0    0    0  0.00000000000E+00  0.00000000000E+00  0.45593999997E+02  0.45594000000E+02  0.51100000000E-03 0.  1.
         11   -1    0    0    0    0 -0.00000000000E+00 -0.00000000000E+00 -0.45593999997E+02  0.45594000000E+02  0.51100000000E-03 0. -1.
    9900012    2    1    2    0    0 -0.34336891907E+02 -0.17324585949E+02 -0.13190980367E+02  0.50528863424E+02  0.30000010863E+02 0.  0.
        -12    1    1    2    0    0  0.34336891907E+02  0.17324585949E+02  0.13190980367E+02  0.40659136576E+02  0.00000000000E+00 0.  1.
         11    1    3    3    0    0 -0.20123930074E+02 -0.14842744395E+02 -0.11029257273E+02  0.27329912899E+02  0.51100000000E-03 0. -1.
        -11    1    3    3    0    0  0.33920527240E+00  0.70782365180E+00  0.61091613270E+01  0.61593771536E+01  0.51100000000E-03 0.  1.
        -12    1    3    3    0    0 -0.14552167105E+02 -0.31896652055E+01 -0.82708844204E+01  0.17039573371E+02  0.00000000000E+00 0.  1.
</event>
<event>
 7    1  0.4962385E-011  0.5052885E+02  0.7816164E-02  0.1300439E+00
        -11   -1    0    0    0    0  0.00000000000E+00  0.00000000000E+00  0.45593999997E+02  0.45594000000E+02  0.51100000000E-03 0. -1.
         11   -1    0    0    0    0 -0.00000000000E+00 -0.00000000000E+00 -0.45593999997E+02  0.45594000000E+02  0.51100000000E-03 0.  1.
    9900012    2    1    2    0    0  0.12328825520E+02 -0.20147259289E+02  0.33094625123E+02  0.50528853334E+02  0.29999980195E+02 0.  0.
        -12    1    1    2    0    0 -0.12328825520E+02  0.20147259289E+02 -0.33094625123E+02  0.40659146666E+02  0.00000000000E+00 0.  1.
         11    1    3    3    0    0  0.10848972357E+01 -0.14651880356E+02  0.98412354570E+01  0.17683453157E+02  0.51100000000E-03 0. -1.
        -11    1    3    3    0    0  0.61568620146E+01  0.14366063165E+01 -0.16210886832E+01  0.65267692127E+01  0.51100000000E-03 0.  1.
        -12    1    3    3    0    0  0.50870662696E+01 -0.69319852494E+01  0.24874478349E+02  0.26318630965E+02  0.00000000000E+00 0.  1.
</event>
<event>
 7    1  0.4962385E-011  0.5052888E+02  0.7816164E-02  0.1300439E+00
        -11   -1    0    0    0    0  0.00000000000E+00  0.00000000000E+00  0.45593999997E+02  0.45594000000E+02  0.51100000000E-03 0.  1.
         11   -1    0    0    0    0 -0.00000000000E+00 -0.00000000000E+00 -0.45593999997E+02  0.45594000000E+02  0.51100000000E-03 0. -1.
    9900012    2    1    2    0    0 -0.36143232431E+02 -0.11345124520E+02  0.14768852925E+02  0.50528879035E+02  0.30000058315E+02 0.  0.
        -12    1    1    2    0    0  0.36143232431E+02  0.11345124520E+02 -0.14768852925E+02  0.40659120965E+02  0.00000000000E+00 0.  1.
         11    1    3    3    0    0 -0.17430308338E+02 -0.19487106301E+01 -0.19205780770E+01  0.17643745132E+02  0.51100000000E-03 0. -1.
        -11    1    3    3    0    0  0.33219648705E+01 -0.47740598412E+01  0.31834395796E+01  0.66303382860E+01  0.51100000000E-03 0.  1.
        -12    1    3    3    0    0 -0.22034888963E+02 -0.46223540489E+01  0.13505991423E+02  0.26254795617E+02  0.00000000000E+00 0.  1.
</event>
<event>
 7    1  0.4962385E-011  0.5052886E+02  0.7816164E-02  0.1300439E+00
        -11   -1    0    0    0    0  0.00000000000E+00  0.00000000000E+00  0.45593999997E+02  0.45594000000E+02  0.51100000000E-03 0. -1.
         11   -1    0    0    0    0 -0.00000000000E+00 -0.00000000000E+00 -0.45593999997E+02  0.45594000000E+02  0.51100000000E-03 0.  1.
    9900012    2    1    2    0    0  0.40433046612E+02  0.40021094824E+01 -0.15223179499E+01  0.50528860922E+02  0.30000003259E+02 0.  0.
        -12    1    1    2    0    0 -0.40433046612E+02 -0.40021094824E+01  0.15223179499E+01  0.40659139078E+02  0.00000000000E+00 0.  1.
         11    1    3    3    0    0  0.84634769155E+01  0.83842161114E+01  0.27572928988E+01  0.12228171805E+02  0.51100000000E-03 0. -1.
        -11    1    3    3    0    0  0.33542717777E+02 -0.48445453436E+01 -0.18640680305E+00  0.33891271490E+02  0.51100000000E-03 0.  1.
        -12    1    3    3    0    0 -0.15731480808E+01  0.46243871457E+00 -0.40932040457E+01  0.44094176269E+01  0.00000000000E+00 0.  1.
</event>
<event>
 7    1  0.4962385E-011  0.5052886E+02  0.7816164E-02  0.1300439E+00
        -11   -1    0    0    0    0  0.00000000000E+00  0.00000000000E+00  0.45593999997E+02  0.45594000000E+02  0.51100000000E-03 0.  1.
         11   -1    0    0    0    0 -0.00000000000E+00 -0.00000000000E+00 -0.45593999997E+02  0.45594000000E+02  0.51100000000E-03 0. -1.
    9900012    2    1    2    0    0  0.23474373972E+02 -0.31916931615E+02  0.91339506750E+01  0.50528858199E+02  0.29999994980E+02 0.  0.
        -12    1    1    2    0    0 -0.23474373972E+02  0.31916931615E+02 -0.91339506750E+01  0.40659141801E+02  0.00000000000E+00 0.  1.
         11    1    3    3    0    0  0.56152405775E+01 -0.22704596199E+02 -0.69612560783E+01  0.24402637188E+02  0.51100000000E-03 0. -1.
        -11    1    3    3    0    0  0.35160910428E+01 -0.62617565862E-01  0.20950645251E+01  0.40934231159E+01  0.51100000000E-03 0.  1.
         12    1    3    3    0    0  0.14343042352E+02 -0.91497178505E+01  0.14000142228E+02  0.22032797894E+02  0.00000000000E+00 0. -1.
</event>
<event>
 7    1  0.4962385E-011  0.5052887E+02  0.7816164E-02  0.1300439E+00
        -11   -1    0    0    0    0  0.00000000000E+00  0.00000000000E+00  0.45593999997E+02  0.45594000000E+02  0.51100000000E-03 0.  1.
         11   -1    0    0    0    0 -0.00000000000E+00 -0.00000000000E+00 -0.45593999997E+02  0.45594000000E+02  0.51100000000E-03 0. -1.
    9900012    2    1    2    0    0  0.19556355496E+02 -0.66544652927E+01 -0.35020447754E+02  0.50528871757E+02  0.30000036191E+02 0.  0.
        -12    1    1    2    0    0 -0.19556355496E+02  0.66544652927E+01  0.35020447754E+02  0.40659128243E+02  0.00000000000E+00 0.  1.
         11    1    3    3    0    0  0.18921227063E+02 -0.18598142736E+01 -0.29177682537E+02  0.34825405973E+02  0.51100000000E-03 0. -1.
        -11    1    3    3    0    0  0.52469702980E+01 -0.34464397938E+00  0.19551032646E+01  0.56099826931E+01  0.51100000000E-03 0.  1.
         12    1    3    3    0    0 -0.46118418649E+01 -0.44500070397E+01 -0.77978684813E+01  0.10093483090E+02  0.00000000000E+00 0. -1.
</event>
<event>
 7    1  0.4962385E-011  0.5052886E+02  0.7816164E-02  0.1300439E+00
        -11   -1    0    0    0    0  0.00000000000E+00  0.00000000000E+00  0.45593999997E+02  0.45594000000E+02  0.51100000000E-03 0.  1.
         11   -1    0    0    0    0 -0.00000000000E+00 -0.00000000000E+00 -0.45593999997E+02  0.45594000000E+02  0.51100000000E-03 0. -1.
    9900012    2    1    2    0    0 -0.18238079420E+02 -0.13318350658E+02 -0.33810642725E+02  0.50528861216E+02  0.30000004152E+02 0.  0.
        -12    1    1    2    0    0  0.18238079420E+02  0.13318350658E+02  0.33810642725E+02  0.40659138784E+02  0.00000000000E+00 0.  1.
         11    1    3    3    0    0 -0.67760631557E+01 -0.16017928193E+02 -0.26705691601E+02  0.31869782234E+02  0.51100000000E-03 0. -1.
        -11    1    3    3    0    0 -0.18141082179E+01  0.65151489770E+01 -0.17602419448E+01  0.69883193104E+01  0.51100000000E-03 0.  1.
        -12    1    3    3    0    0 -0.96479080466E+01 -0.38155714419E+01 -0.53447091796E+01  0.11670759672E+02  0.00000000000E+00 0.  1.
</event>
<event>
 7    1  0.4962385E-011  0.5052886E+02  0.7816164E-02  0.1300439E+00
        -11   -1    0    0    0    0  0.00000000000E+00  0.00000000000E+00  0.45593999997E+02  0.45594000000E+02  0.51100000000E-03 0. -1.
         11   -1    0    0    0    0 -0.00000000000E+00 -0.00000000000E+00 -0.45593999997E+02  0.45594000000E+02  0.51100000000E-03 0.  1.
    9900012    2    1    2    0    0 -0.17280238348E+02 -0.30645323779E+02  0.20381933300E+02  0.50528859429E+02  0.29999998722E+02 0.  0.
        -12    1    1    2    0    0  0.17280238348E+02  0.30645323779E+02 -0.20381933300E+02  0.40659140571E+02  0.00000000000E+00 0.  1.
         11    1    3    3    0    0 -0.39602612304E+01 -0.19955751295E+01 -0.14815508748E+01  0.46755729452E+01  0.51100000000E-03 0.  1.
        -11    1    3    3    0    0 -0.12727846727E+02 -0.29082984054E+02  0.26380856134E+02  0.41276720006E+02  0.51100000000E-03 0. -1.
        -12    1    3    3    0    0 -0.59213039102E+00  0.43323540515E+00 -0.45173719589E+01  0.45765664785E+01  0.00000000000E+00 0.  1.
</event>
<event>
 7    1  0.4962385E-011  0.5052888E+02  0.7816164E-02  0.1300439E+00
        -11   -1    0    0    0    0  0.00000000000E+00  0.00000000000E+00  0.45593999997E+02  0.45594000000E+02  0.51100000000E-03 0.  1.
         11   -1    0    0    0    0 -0.00000000000E+00 -0.00000000000E+00 -0.45593999997E+02  0.45594000000E+02  0.51100000000E-03 0. -1.
    9900012    2    1    2    0    0  0.12395189183E+02  0.29907113438E+02 -0.24598539809E+02  0.50528876672E+02  0.30000051133E+02 0.  0.
        -12    1    1    2    0    0 -0.12395189183E+02 -0.29907113438E+02  0.24598539809E+02  0.40659123328E+02  0.00000000000E+00 0.  1.
         11    1    3    3    0    0  0.96012383087E+01  0.81390848341E+01 -0.34358924800E+01  0.13047368945E+02  0.51100000000E-03 0. -1.
        -11    1    3    3    0    0 -0.31682846782E+01  0.24079378573E+02 -0.14695913984E+02  0.28387046136E+02  0.51100000000E-03 0.  1.
        -12    1    3    3    0    0  0.59622355528E+01 -0.23113499695E+01 -0.64667333453E+01  0.90944615908E+01  0.00000000000E+00 0.  1.
</event>
<event>
 7    1  0.4962385E-011  0.5052886E+02  0.7816164E-02  0.1300439E+00
        -11   -1    0    0    0    0  0.00000000000E+00  0.00000000000E+00  0.45593999997E+02  0.45594000000E+02  0.51100000000E-03 0.  1.
         11   -1    0    0    0    0 -0.00000000000E+00 -0.00000000000E+00 -0.45593999997E+02  0.45594000000E+02  0.51100000000E-03 0. -1.
    9900012    2    1    2    0    0 -0.21442638447E+02 -0.23900067104E+02 -0.24943243187E+02  0.50528864104E+02  0.30000012930E+02 0.  0.
        -12    1    1    2    0    0  0.21442638447E+02  0.23900067104E+02  0.24943243187E+02  0.40659135896E+02  0.00000000000E+00 0.  1.
         11    1    3    3    0    0 -0.37081069852E+01 -0.72076514162E+01 -0.22836606959E+01  0.84211283559E+01  0.51100000000E-03 0. -1.
        -11    1    3    3    0    0 -0.11947783952E+02  0.47457397514E+01 -0.52303974786E+01  0.13879072202E+02  0.51100000000E-03 0.  1.
        -12    1    3    3    0    0 -0.57867475103E+01 -0.21438155440E+02 -0.17429185012E+02  0.28228663546E+02  0.00000000000E+00 0.  1.
</event>
<event>
 7    1  0.4962385E-011  0.5052882E+02  0.7816164E-02  0.1300439E+00
        -11   -1    0    0    0    0  0.00000000000E+00  0.00000000000E+00  0.45593999997E+02  0.45594000000E+02  0.51100000000E-03 0.  1.
         11   -1    0    0    0    0 -0.00000000000E+00 -0.00000000000E+00 -0.45593999997E+02  0.45594000000E+02  0.51100000000E-03 0. -1.
    9900012    2    1    2    0    0 -0.25177002709E+02 -0.12870801794E+02 -0.29216946583E+02  0.50528819341E+02  0.29999876868E+02 0.  0.
        -12    1    1    2    0    0  0.25177002709E+02  0.12870801794E+02  0.29216946583E+02  0.40659180659E+02  0.00000000000E+00 0.  1.
         11    1    3    3    0    0 -0.10163439745E+01  0.19614281001E+01 -0.26840759002E+01  0.34762650885E+01  0.51100000000E-03 0. -1.
        -11    1    3    3    0    0 -0.18318851398E+02 -0.21456574883E+02 -0.13418559307E+02  0.31241361308E+02  0.51100000000E-03 0.  1.
        -12    1    3    3    0    0 -0.58418073374E+01  0.66243449882E+01 -0.13114311375E+02  0.15811192944E+02  0.00000000000E+00 0.  1.
</event>
<event>
 7    1  0.4962385E-011  0.5052885E+02  0.7816164E-02  0.1300439E+00
        -11   -1    0    0    0    0  0.00000000000E+00  0.00000000000E+00  0.45593999997E+02  0.45594000000E+02  0.51100000000E-03 0. -1.
         11   -1    0    0    0    0 -0.00000000000E+00 -0.00000000000E+00 -0.45593999997E+02  0.45594000000E+02  0.51100000000E-03 0.  1.
    9900012    2    1    2    0    0  0.10630970200E+02  0.31128221618E+02 -0.23899425038E+02  0.50528853112E+02  0.29999979520E+02 0.  0.
        -12    1    1    2    0    0 -0.10630970200E+02 -0.31128221618E+02  0.23899425038E+02  0.40659146888E+02  0.00000000000E+00 0.  1.
         11    1    3    3    0    0  0.64443526231E+00  0.23010356051E+01  0.37783282265E+01  0.44705509852E+01  0.51100000000E-03 0. -1.
        -11    1    3    3    0    0  0.14943665812E+02  0.27444430661E+02 -0.25982557909E+02  0.40639921727E+02  0.51100000000E-03 0.  1.
        -12    1    3    3    0    0 -0.49571308738E+01  0.13827553511E+01 -0.16951953554E+01  0.54183803995E+01  0.00000000000E+00 0.  1.
</event>
<event>
 7    1  0.4962385E-011  0.5052886E+02  0.7816164E-02  0.1300439E+00
        -11   -1    0    0    0    0  0.00000000000E+00  0.00000000000E+00  0.45593999997E+02  0.45594000000E+02  0.51100000000E-03 0. -1.
         11   -1    0    0    0    0 -0.00000000000E+00 -0.00000000000E+00 -0.45593999997E+02  0.45594000000E+02  0.51100000000E-03 0.  1.
    9900012    2    1    2    0    0  0.17330895320E+01  0.26177007155E+01  0.40537758268E+02  0.50528858325E+02  0.29999995365E+02 0.  0.
        -12    1    1    2    0    0 -0.17330895320E+01 -0.26177007155E+01 -0.40537758268E+02  0.40659141675E+02  0.00000000000E+00 0.  1.
         11    1    3    3    0    0  0.16207365027E+01  0.97856531578E+01  0.30473088029E+02  0.32046760972E+02  0.51100000000E-03 0. -1.
        -11    1    3    3    0    0  0.44276129915E+01 -0.94394379225E+01  0.81871971701E+01  0.13256581115E+02  0.51100000000E-03 0.  1.
        -12    1    3    3    0    0 -0.43152599621E+01  0.22714854802E+01  0.18774730689E+01  0.52255162379E+01  0.00000000000E+00 0.  1.
</event>
<event>
 7    1  0.4962385E-011  0.5052887E+02  0.7816164E-02  0.1300439E+00
        -11   -1    0    0    0    0  0.00000000000E+00  0.00000000000E+00  0.45593999997E+02  0.45594000000E+02  0.51100000000E-03 0.  1.
         11   -1    0    0    0    0 -0.00000000000E+00 -0.00000000000E+00 -0.45593999997E+02  0.45594000000E+02  0.51100000000E-03 0. -1.
    9900012    2    1    2    0    0 -0.95849056055E+01  0.63853443134E+01 -0.38993871334E+02  0.50528867704E+02  0.30000023872E+02 0.  0.
        -12    1    1    2    0    0  0.95849056055E+01 -0.63853443134E+01  0.38993871334E+02  0.40659132296E+02  0.00000000000E+00 0.  1.
         11    1    3    3    0    0 -0.80073265160E+01 -0.83721075305E+01 -0.18802778170E+02  0.22085151790E+02  0.51100000000E-03 0. -1.
        -11    1    3    3    0    0  0.58280488290E+01  0.86605419900E+01 -0.10289322176E+02  0.14657465395E+02  0.51100000000E-03 0.  1.
        -12    1    3    3    0    0 -0.74056279185E+01  0.60969098539E+01 -0.99017709881E+01  0.13786250518E+02  0.00000000000E+00 0.  1.
</event>
<event>
 7    1  0.4962385E-011  0.5052887E+02  0.7816164E-02  0.1300439E+00
        -11   -1    0    0    0    0  0.00000000000E+00  0.00000000000E+00  0.45593999997E+02  0.45594000000E+02  0.51100000000E-03 0.  1.
         11   -1    0    0    0    0 -0.00000000000E+00 -0.00000000000E+00 -0.45593999997E+02  0.45594000000E+02  0.51100000000E-03 0. -1.
    9900012    2    1    2    0    0 -0.20147839498E+02  0.12026510250E+02  0.33205307013E+02  0.50528870656E+02  0.30000032845E+02 0.  0.
        -12    1    1    2    0    0  0.20147839498E+02 -0.12026510250E+02 -0.33205307013E+02  0.40659129344E+02  0.00000000000E+00 0.  1.
         11    1    3    3    0    0 -0.19317050216E+01  0.11623270877E+02  0.40268133327E+01  0.12451792483E+02  0.51100000000E-03 0. -1.
        -11    1    3    3    0    0 -0.12425311487E+02  0.43306163079E+01  0.28058951599E+02  0.30991085303E+02  0.51100000000E-03 0.  1.
         12    1    3    3    0    0 -0.57908229892E+01 -0.39273769343E+01  0.11195420806E+01  0.70859928695E+01  0.00000000000E+00 0. -1.
</event>
<event>
 7    1  0.4962385E-011  0.5052886E+02  0.7816164E-02  0.1300439E+00
        -11   -1    0    0    0    0  0.00000000000E+00  0.00000000000E+00  0.45593999997E+02  0.45594000000E+02  0.51100000000E-03 0.  1.
         11   -1    0    0    0    0 -0.00000000000E+00 -0.00000000000E+00 -0.45593999997E+02  0.45594000000E+02  0.51100000000E-03 0. -1.
    9900012    2    1    2    0    0 -0.13351271846E+02  0.32068426514E+02 -0.21131136655E+02  0.50528863569E+02  0.30000011305E+02 0.  0.
        -12    1    1    2    0    0  0.13351271846E+02 -0.32068426514E+02  0.21131136655E+02  0.40659136431E+02  0.00000000000E+00 0.  1.
         11    1    3    3    0    0 -0.33755347966E+01  0.49909950154E+01  0.72664752276E+00  0.60689606433E+01  0.51100000000E-03 0. -1.
        -11    1    3    3    0    0 -0.15826343017E+01  0.29463921627E+02 -0.19677250443E+02  0.35465780610E+02  0.51100000000E-03 0.  1.
        -12    1    3    3    0    0 -0.83931027480E+01 -0.23864901292E+01 -0.21805337344E+01  0.89941223164E+01  0.00000000000E+00 0.  1.
</event>
<event>
 7    1  0.4962385E-011  0.5052886E+02  0.7816164E-02  0.1300439E+00
        -11   -1    0    0    0    0  0.00000000000E+00  0.00000000000E+00  0.45593999997E+02  0.45594000000E+02  0.51100000000E-03 0.  1.
         11   -1    0    0    0    0 -0.00000000000E+00 -0.00000000000E+00 -0.45593999997E+02  0.45594000000E+02  0.51100000000E-03 0. -1.
    9900012    2    1    2    0    0  0.24308260138E+02 -0.58663337796E+00 -0.32587265896E+02  0.50528861442E+02  0.30000004840E+02 0.  0.
        -12    1    1    2    0    0 -0.24308260138E+02  0.58663337796E+00  0.32587265896E+02  0.40659138558E+02  0.00000000000E+00 0.  1.
         11    1    3    3    0    0  0.10779835413E+02 -0.10436866059E+02 -0.96404999801E+01  0.17834580590E+02  0.51100000000E-03 0. -1.
        -11    1    3    3    0    0 -0.17461646217E+01  0.70651351401E+01 -0.10596266264E+02  0.12854807833E+02  0.51100000000E-03 0.  1.
         12    1    3    3    0    0  0.15274589346E+02  0.27850975414E+01 -0.12350499652E+02  0.19839473019E+02  0.00000000000E+00 0. -1.
</event>
<event>
 7    1  0.4962385E-011  0.5052886E+02  0.7816164E-02  0.1300439E+00
        -11   -1    0    0    0    0  0.00000000000E+00  0.00000000000E+00  0.45593999997E+02  0.45594000000E+02  0.51100000000E-03 0.  1.
         11   -1    0    0    0    0 -0.00000000000E+00 -0.00000000000E+00 -0.45593999997E+02  0.45594000000E+02  0.51100000000E-03 0. -1.
    9900012    2    1    2    0    0  0.30363932697E+02 -0.17625601098E+02 -0.20506957610E+02  0.50528861626E+02  0.30000005399E+02 0.  0.
        -12    1    1    2    0    0 -0.30363932697E+02  0.17625601098E+02  0.20506957610E+02  0.40659138374E+02  0.00000000000E+00 0.  1.
         11    1    3    3    0    0  0.17059662239E+02 -0.17411376654E+02 -0.29304332046E+01  0.24551487770E+02  0.51100000000E-03 0. -1.
        -11    1    3    3    0    0  0.47521904106E+01 -0.36265303391E+00 -0.16714453407E+02  0.17380672710E+02  0.51100000000E-03 0.  1.
        -12    1    3    3    0    0  0.85520800473E+01  0.14842858969E+00 -0.86207099831E+00  0.85967011457E+01  0.00000000000E+00 0.  1.
</event>
<event>
 7    1  0.4962385E-011  0.5052886E+02  0.7816164E-02  0.1300439E+00
        -11   -1    0    0    0    0  0.00000000000E+00  0.00000000000E+00  0.45593999997E+02  0.45594000000E+02  0.51100000000E-03 0.  1.
         11   -1    0    0    0    0 -0.00000000000E+00 -0.00000000000E+00 -0.45593999997E+02  0.45594000000E+02  0.51100000000E-03 0. -1.
    9900012    2    1    2    0    0  0.34297809683E+02  0.82846091228E+01 -0.20203749830E+02  0.50528855830E+02  0.29999987782E+02 0.  0.
        -12    1    1    2    0    0 -0.34297809683E+02 -0.82846091228E+01  0.20203749830E+02  0.40659144170E+02  0.00000000000E+00 0.  1.
         11    1    3    3    0    0  0.26739195249E+02  0.16498396030E+02 -0.16497669217E+02  0.35487388238E+02  0.51100000000E-03 0. -1.
        -11    1    3    3    0    0 -0.42211746028E+00  0.71360590724E+00  0.17089363956E+01  0.18994421303E+01  0.51100000000E-03 0.  1.
         12    1    3    3    0    0  0.79807318945E+01 -0.89273928142E+01 -0.54150170088E+01  0.13142025462E+02  0.00000000000E+00 0. -1.
</event>
<event>
 7    1  0.4962385E-011  0.5052886E+02  0.7816164E-02  0.1300439E+00
        -11   -1    0    0    0    0  0.00000000000E+00  0.00000000000E+00  0.45593999997E+02  0.45594000000E+02  0.51100000000E-03 0.  1.
         11   -1    0    0    0    0 -0.00000000000E+00 -0.00000000000E+00 -0.45593999997E+02  0.45594000000E+02  0.51100000000E-03 0. -1.
    9900012    2    1    2    0    0  0.24743867293E+01 -0.30230605523E+01 -0.40471027501E+02  0.50528861399E+02  0.30000004710E+02 0.  0.
        -12    1    1    2    0    0 -0.24743867293E+01  0.30230605523E+01  0.40471027501E+02  0.40659138601E+02  0.00000000000E+00 0.  1.
         11    1    3    3    0    0  0.53605096486E+01 -0.68980306180E+01 -0.21011616754E+02  0.22755349459E+02  0.51100000000E-03 0. -1.
        -11    1    3    3    0    0  0.59957470067E+01  0.17028503103E+01  0.44095918352E-01  0.62330270382E+01  0.51100000000E-03 0.  1.
        -12    1    3    3    0    0 -0.88818699260E+01  0.21721197555E+01 -0.19503506665E+02  0.21540484903E+02  0.00000000000E+00 0.  1.
</event>
<event>
 7    1  0.4962385E-011  0.5052887E+02  0.7816164E-02  0.1300439E+00
        -11   -1    0    0    0    0  0.00000000000E+00  0.00000000000E+00  0.45593999997E+02  0.45594000000E+02  0.51100000000E-03 0.  1.
         11   -1    0    0    0    0 -0.00000000000E+00 -0.00000000000E+00 -0.45593999997E+02  0.45594000000E+02  0.51100000000E-03 0. -1.
    9900012    2    1    2    0    0  0.30950046299E+02  0.16731731785E+02 -0.20379124424E+02  0.50528869086E+02  0.30000028073E+02 0.  0.
        -12    1    1    2    0    0 -0.30950046299E+02 -0.16731731785E+02  0.20379124424E+02  0.40659130914E+02  0.00000000000E+00 0.  1.
         11    1    3    3    0    0  0.62655721782E+01 -0.24661383192E+00 -0.12032418556E+02  0.13568246374E+02  0.51100000000E-03 0. -1.
        -11    1    3    3    0    0  0.19354700435E+02  0.16722855661E+02  0.16472034458E+01  0.25631457427E+02  0.51100000000E-03 0.  1.
        -12    1    3    3    0    0  0.53297736857E+01  0.25548995520E+00 -0.99939093138E+01  0.11329165284E+02  0.00000000000E+00 0.  1.
</event>
<event>
 7    1  0.4962385E-011  0.5052885E+02  0.7816164E-02  0.1300439E+00
        -11   -1    0    0    0    0  0.00000000000E+00  0.00000000000E+00  0.45593999997E+02  0.45594000000E+02  0.51100000000E-03 0.  1.
         11   -1    0    0    0    0 -0.00000000000E+00 -0.00000000000E+00 -0.45593999997E+02  0.45594000000E+02  0.51100000000E-03 0. -1.
    9900012    2    1    2    0    0  0.13727510749E+02  0.14296316985E+02 -0.35501225309E+02  0.50528853069E+02  0.29999979389E+02 0.  0.
        -12    1    1    2    0    0 -0.13727510749E+02 -0.14296316985E+02  0.35501225309E+02  0.40659146931E+02  0.00000000000E+00 0.  1.
         11    1    3    3    0    0  0.84568271670E+01  0.12805757727E+02 -0.30253926478E+02  0.33923523170E+02  0.51100000000E-03 0. -1.
        -11    1    3    3    0    0  0.41891038798E+01 -0.61509632365E+01 -0.48389564580E+01  0.88768485352E+01  0.51100000000E-03 0.  1.
         12    1    3    3    0    0  0.10815797024E+01  0.76415224950E+01 -0.40834237244E+00  0.77284813636E+01  0.00000000000E+00 0. -1.
</event>
<event>
 7    1  0.4962385E-011  0.5052880E+02  0.7816164E-02  0.1300439E+00
        -11   -1    0    0    0    0  0.00000000000E+00  0.00000000000E+00  0.45593999997E+02  0.45594000000E+02  0.51100000000E-03 0. -1.
         11   -1    0    0    0    0 -0.00000000000E+00 -0.00000000000E+00 -0.45593999997E+02  0.45594000000E+02  0.51100000000E-03 0.  1.
    9900012    2    1    2    0    0  0.24335099931E+02  0.24720462800E+02  0.21210186004E+02  0.50528802270E+02  0.29999824981E+02 0.  0.
        -12    1    1    2    0    0 -0.24335099931E+02 -0.24720462800E+02 -0.21210186004E+02  0.40659197730E+02  0.00000000000E+00 0.  1.
         11    1    3    3    0    0  0.25765662304E+02  0.73890375509E+01  0.11862312304E+02  0.29311801094E+02  0.51100000000E-03 0. -1.
        -11    1    3    3    0    0 -0.22940001757E+01  0.18998888957E+01  0.37268989684E+01  0.47709318590E+01  0.51100000000E-03 0.  1.
         12    1    3    3    0    0  0.86343780249E+00  0.15431536353E+02  0.56209747318E+01  0.16446069318E+02  0.00000000000E+00 0. -1.
</event>
<event>
 7    1  0.4962385E-011  0.5052886E+02  0.7816164E-02  0.1300439E+00
        -11   -1    0    0    0    0  0.00000000000E+00  0.00000000000E+00  0.45593999997E+02  0.45594000000E+02  0.51100000000E-03 0.  1.
         11   -1    0    0    0    0 -0.00000000000E+00 -0.00000000000E+00 -0.45593999997E+02  0.45594000000E+02  0.51100000000E-03 0. -1.
    9900012    2    1    2    0    0 -0.30017668233E+02  0.26099980832E+02 -0.84199914409E+01  0.50528860050E+02  0.30000000609E+02 0.  0.
        -12    1    1    2    0    0  0.30017668233E+02 -0.26099980832E+02  0.84199914409E+01  0.40659139950E+02  0.00000000000E+00 0.  1.
         11    1    3    3    0    0 -0.25425118399E+02  0.85805118304E+01  0.56859470194E+01  0.27429761622E+02  0.51100000000E-03 0. -1.
        -11    1    3    3    0    0 -0.38942364451E+01  0.10037603651E+02 -0.86983791868E+01  0.13841255914E+02  0.51100000000E-03 0.  1.
        -12    1    3    3    0    0 -0.69831338872E+00  0.74818653515E+01 -0.54075592734E+01  0.92578425144E+01  0.00000000000E+00 0.  1.
</event>
<event>
 7    1  0.4962385E-011  0.5052886E+02  0.7816164E-02  0.1300439E+00
        -11   -1    0    0    0    0  0.00000000000E+00  0.00000000000E+00  0.45593999997E+02  0.45594000000E+02  0.51100000000E-03 0. -1.
         11   -1    0    0    0    0 -0.00000000000E+00 -0.00000000000E+00 -0.45593999997E+02  0.45594000000E+02  0.51100000000E-03 0.  1.
    9900012    2    1    2    0    0  0.25247796623E+02 -0.30358311462E+02  0.96998739828E+01  0.50528857554E+02  0.29999993022E+02 0.  0.
        -12    1    1    2    0    0 -0.25247796623E+02  0.30358311462E+02 -0.96998739828E+01  0.40659142446E+02  0.00000000000E+00 0.  1.
         11    1    3    3    0    0  0.27547678381E+02 -0.18296395073E+02 -0.11438715677E+01  0.33089894217E+02  0.51100000000E-03 0. -1.
        -11    1    3    3    0    0 -0.25450384983E+01 -0.12435821930E+01  0.20826107643E+01  0.35158193191E+01  0.51100000000E-03 0.  1.
         12    1    3    3    0    0  0.24515674001E+00 -0.10818334196E+02  0.87611347862E+01  0.13923144018E+02  0.00000000000E+00 0. -1.
</event>
<event>
 7    1  0.4962385E-011  0.5052886E+02  0.7816164E-02  0.1300439E+00
        -11   -1    0    0    0    0  0.00000000000E+00  0.00000000000E+00  0.45593999997E+02  0.45594000000E+02  0.51100000000E-03 0.  1.
         11   -1    0    0    0    0 -0.00000000000E+00 -0.00000000000E+00 -0.45593999997E+02  0.45594000000E+02  0.51100000000E-03 0. -1.
    9900012    2    1    2    0    0 -0.31942595319E+02  0.24618930845E+02 -0.51714815787E+01  0.50528863592E+02  0.30000011376E+02 0.  0.
        -12    1    1    2    0    0  0.31942595319E+02 -0.24618930845E+02  0.51714815787E+01  0.40659136408E+02  0.00000000000E+00 0.  1.
         11    1    3    3    0    0  0.18994692631E+01  0.10736720734E+02  0.30906543271E+01  0.11333018134E+02  0.51100000000E-03 0.  1.
        -11    1    3    3    0    0 -0.18512023116E+02  0.91351009106E+01 -0.10209416491E+02  0.23029920839E+02  0.51100000000E-03 0. -1.
         12    1    3    3    0    0 -0.15330041467E+02  0.47471092002E+01  0.19472805848E+01  0.16165924619E+02  0.00000000000E+00 0. -1.
</event>
<event>
 7    1  0.4962385E-011  0.5052886E+02  0.7816164E-02  0.1300439E+00
        -11   -1    0    0    0    0  0.00000000000E+00  0.00000000000E+00  0.45593999997E+02  0.45594000000E+02  0.51100000000E-03 0.  1.
         11   -1    0    0    0    0 -0.00000000000E+00 -0.00000000000E+00 -0.45593999997E+02  0.45594000000E+02  0.51100000000E-03 0. -1.
    9900012    2    1    2    0    0  0.21617218252E+02  0.32777137252E+02 -0.10560334961E+02  0.50528861717E+02  0.30000005676E+02 0.  0.
        -12    1    1    2    0    0 -0.21617218252E+02 -0.32777137252E+02  0.10560334961E+02  0.40659138283E+02  0.00000000000E+00 0.  1.
         11    1    3    3    0    0  0.67214656356E+01  0.11455316066E+02 -0.76835814463E+00  0.13303861881E+02  0.51100000000E-03 0. -1.
        -11    1    3    3    0    0 -0.60695877044E+01  0.96247834604E+01 -0.22392280667E+00  0.11380970664E+02  0.51100000000E-03 0.  1.
        -12    1    3    3    0    0  0.20965340321E+02  0.11697037725E+02 -0.95680540098E+01  0.25844029172E+02  0.00000000000E+00 0.  1.
</event>
<event>
 7    1  0.4962385E-011  0.5052886E+02  0.7816164E-02  0.1300439E+00
        -11   -1    0    0    0    0  0.00000000000E+00  0.00000000000E+00  0.45593999997E+02  0.45594000000E+02  0.51100000000E-03 0. -1.
         11   -1    0    0    0    0 -0.00000000000E+00 -0.00000000000E+00 -0.45593999997E+02  0.45594000000E+02  0.51100000000E-03 0.  1.
    9900012    2    1    2    0    0  0.33736556022E+02 -0.19664535598E+02  0.11327690551E+02  0.50528859014E+02  0.29999997459E+02 0.  0.
        -12    1    1    2    0    0 -0.33736556022E+02  0.19664535598E+02 -0.11327690551E+02  0.40659140986E+02  0.00000000000E+00 0.  1.
         11    1    3    3    0    0  0.17598968962E+02 -0.37062157160E+01 -0.42605271934E+01  0.18482744268E+02  0.51100000000E-03 0. -1.
        -11    1    3    3    0    0 -0.16260536985E+01 -0.77017035757E+01  0.74370786635E+01  0.10829147146E+02  0.51100000000E-03 0.  1.
        -12    1    3    3    0    0  0.17763640759E+02 -0.82566163066E+01  0.81511390807E+01  0.21216967600E+02  0.00000000000E+00 0.  1.
</event>
<event>
 7    1  0.4962385E-011  0.5052884E+02  0.7816164E-02  0.1300439E+00
        -11   -1    0    0    0    0  0.00000000000E+00  0.00000000000E+00  0.45593999997E+02  0.45594000000E+02  0.51100000000E-03 0.  1.
         11   -1    0    0    0    0 -0.00000000000E+00 -0.00000000000E+00 -0.45593999997E+02  0.45594000000E+02  0.51100000000E-03 0. -1.
    9900012    2    1    2    0    0 -0.10032340892E+02 -0.20256990080E+02 -0.33796062053E+02  0.50528839640E+02  0.29999938570E+02 0.  0.
        -12    1    1    2    0    0  0.10032340892E+02  0.20256990080E+02  0.33796062053E+02  0.40659160360E+02  0.00000000000E+00 0.  1.
         11    1    3    3    0    0 -0.85488094201E+01 -0.12404812343E+02 -0.35463930362E+02  0.38531180474E+02  0.51100000000E-03 0. -1.
        -11    1    3    3    0    0 -0.29628609195E+01 -0.88785526891E+01  0.29197478547E+01  0.98047014476E+01  0.51100000000E-03 0.  1.
        -12    1    3    3    0    0  0.14793294476E+01  0.10263749521E+01 -0.12518795457E+01  0.21929577182E+01  0.00000000000E+00 0.  1.
</event>
<event>
 7    1  0.4962385E-011  0.5052887E+02  0.7816164E-02  0.1300439E+00
        -11   -1    0    0    0    0  0.00000000000E+00  0.00000000000E+00  0.45593999997E+02  0.45594000000E+02  0.51100000000E-03 0.  1.
         11   -1    0    0    0    0 -0.00000000000E+00 -0.00000000000E+00 -0.45593999997E+02  0.45594000000E+02  0.51100000000E-03 0. -1.
    9900012    2    1    2    0    0 -0.27957407777E+01 -0.18265907726E+02 -0.36217468840E+02  0.50528873095E+02  0.30000040258E+02 0.  0.
        -12    1    1    2    0    0  0.27957407777E+01  0.18265907726E+02  0.36217468840E+02  0.40659126905E+02  0.00000000000E+00 0.  1.
         11    1    3    3    0    0 -0.45936569885E+01 -0.13862078353E+02 -0.12886125939E+02  0.19475911860E+02  0.51100000000E-03 0. -1.
        -11    1    3    3    0    0 -0.40640929259E+01  0.46958822738E+01 -0.10732351473E+01  0.63023801521E+01  0.51100000000E-03 0.  1.
        -12    1    3    3    0    0  0.58620091367E+01 -0.90997116476E+01 -0.22258107753E+02  0.24750581083E+02  0.00000000000E+00 0.  1.
</event>
<event>
 7    1  0.4962385E-011  0.5052888E+02  0.7816164E-02  0.1300439E+00
        -11   -1    0    0    0    0  0.00000000000E+00  0.00000000000E+00  0.45593999997E+02  0.45594000000E+02  0.51100000000E-03 0. -1.
         11   -1    0    0    0    0 -0.00000000000E+00 -0.00000000000E+00 -0.45593999997E+02  0.45594000000E+02  0.51100000000E-03 0.  1.
    9900012    2    1    2    0    0  0.53890270151E+01  0.54077731969E+01  0.39935932886E+02  0.50528876072E+02  0.30000049308E+02 0.  0.
        -12    1    1    2    0    0 -0.53890270151E+01 -0.54077731969E+01 -0.39935932886E+02  0.40659123928E+02  0.00000000000E+00 0.  1.
         11    1    3    3    0    0 -0.68606895717E+01  0.12012834651E+02  0.28442090928E+02  0.31627990678E+02  0.51100000000E-03 0. -1.
        -11    1    3    3    0    0  0.69320601455E+01 -0.32508686890E+01  0.27584717320E+01  0.81382290243E+01  0.51100000000E-03 0.  1.
         12    1    3    3    0    0  0.53176564413E+01 -0.33541927647E+01  0.87353702262E+01  0.10762656369E+02  0.00000000000E+00 0. -1.
</event>
<event>
 7    1  0.4962385E-011  0.5052885E+02  0.7816164E-02  0.1300439E+00
        -11   -1    0    0    0    0  0.00000000000E+00  0.00000000000E+00  0.45593999997E+02  0.45594000000E+02  0.51100000000E-03 0.  1.
         11   -1    0    0    0    0 -0.00000000000E+00 -0.00000000000E+00 -0.45593999997E+02  0.45594000000E+02  0.51100000000E-03 0. -1.
    9900012    2    1    2    0    0 -0.25663985474E+02  0.13998085178E+02 -0.28259154950E+02  0.50528851244E+02  0.29999973841E+02 0.  0.
        -12    1    1    2    0    0  0.25663985474E+02 -0.13998085178E+02  0.28259154950E+02  0.40659148756E+02  0.00000000000E+00 0.  1.
         11    1    3    3    0    0 -0.27882668642E+02  0.37134914420E+01 -0.15971961401E+02  0.32347129402E+02  0.51100000000E-03 0. -1.
        -11    1    3    3    0    0  0.23708680367E+01  0.42448269564E+01 -0.43874594706E+00  0.48818100541E+01  0.51100000000E-03 0.  1.
         12    1    3    3    0    0 -0.15218486876E+00  0.60397667798E+01 -0.11848447602E+02  0.13299911788E+02  0.00000000000E+00 0. -1.
</event>
<event>
 7    1  0.4962385E-011  0.5052886E+02  0.7816164E-02  0.1300439E+00
        -11   -1    0    0    0    0  0.00000000000E+00  0.00000000000E+00  0.45593999997E+02  0.45594000000E+02  0.51100000000E-03 0.  1.
         11   -1    0    0    0    0 -0.00000000000E+00 -0.00000000000E+00 -0.45593999997E+02  0.45594000000E+02  0.51100000000E-03 0. -1.
    9900012    2    1    2    0    0 -0.19637796760E+02  0.28581346528E+02 -0.21228029350E+02  0.50528860056E+02  0.30000000626E+02 0.  0.
        -12    1    1    2    0    0  0.19637796760E+02 -0.28581346528E+02  0.21228029350E+02  0.40659139944E+02  0.00000000000E+00 0.  1.
         11    1    3    3    0    0 -0.26184982266E+02  0.16841151970E+02 -0.19959262033E+02  0.36981750055E+02  0.51100000000E-03 0. -1.
        -11    1    3    3    0    0  0.43451560926E+01  0.67451934586E+01 -0.57156078929E+00  0.80439230640E+01  0.51100000000E-03 0.  1.
         12    1    3    3    0    0  0.22020294137E+01  0.49950010997E+01 -0.69720652764E+00  0.55031869373E+01  0.00000000000E+00 0. -1.
</event>
<event>
 7    1  0.4962385E-011  0.5052886E+02  0.7816164E-02  0.1300439E+00
        -11   -1    0    0    0    0  0.00000000000E+00  0.00000000000E+00  0.45593999997E+02  0.45594000000E+02  0.51100000000E-03 0.  1.
         11   -1    0    0    0    0 -0.00000000000E+00 -0.00000000000E+00 -0.45593999997E+02  0.45594000000E+02  0.51100000000E-03 0. -1.
    9900012    2    1    2    0    0 -0.32673245038E+02  0.24185161781E+02 -0.83832573322E+00  0.50528858572E+02  0.29999996114E+02 0.  0.
        -12    1    1    2    0    0  0.32673245038E+02 -0.24185161781E+02  0.83832573322E+00  0.40659141428E+02  0.00000000000E+00 0.  1.
         11    1    3    3    0    0  0.15501426150E+01  0.10252666740E+02  0.53633356747E+01  0.11674137537E+02  0.51100000000E-03 0.  1.
        -11    1    3    3    0    0 -0.21757485533E+02  0.14031457800E+02 -0.40735523331E+01  0.26208086798E+02  0.51100000000E-03 0. -1.
        -12    1    3    3    0    0 -0.12465902119E+02 -0.98962759784E-01 -0.21281090748E+01  0.12646634237E+02  0.00000000000E+00 0.  1.
</event>
<event>
 7    1  0.4962385E-011  0.5052886E+02  0.7816164E-02  0.1300439E+00
        -11   -1    0    0    0    0  0.00000000000E+00  0.00000000000E+00  0.45593999997E+02  0.45594000000E+02  0.51100000000E-03 0. -1.
         11   -1    0    0    0    0 -0.00000000000E+00 -0.00000000000E+00 -0.45593999997E+02  0.45594000000E+02  0.51100000000E-03 0.  1.
    9900012    2    1    2    0    0  0.32319329199E+01  0.31454674495E+02 -0.25560200962E+02  0.50528858209E+02  0.29999995013E+02 0.  0.
        -12    1    1    2    0    0 -0.32319329199E+01 -0.31454674495E+02  0.25560200962E+02  0.40659141791E+02  0.00000000000E+00 0.  1.
         11    1    3    3    0    0  0.55484091660E+01  0.84483015559E+00  0.42541322949E+00  0.56284597309E+01  0.51100000000E-03 0. -1.
        -11    1    3    3    0    0 -0.84604612511E+00  0.26845604659E+02 -0.10404532296E+02  0.28803759756E+02  0.51100000000E-03 0.  1.
        -12    1    3    3    0    0 -0.14704301210E+01  0.37642396802E+01 -0.15581081896E+02  0.16096638722E+02  0.00000000000E+00 0.  1.
</event>
<event>
 7    1  0.4962385E-011  0.5052886E+02  0.7816164E-02  0.1300439E+00
        -11   -1    0    0    0    0  0.00000000000E+00  0.00000000000E+00  0.45593999997E+02  0.45594000000E+02  0.51100000000E-03 0.  1.
         11   -1    0    0    0    0 -0.00000000000E+00 -0.00000000000E+00 -0.45593999997E+02  0.45594000000E+02  0.51100000000E-03 0. -1.
    9900012    2    1    2    0    0 -0.28004911066E+02  0.89250711636E+01 -0.28093301474E+02  0.50528861706E+02  0.30000005641E+02 0.  0.
        -12    1    1    2    0    0  0.28004911066E+02 -0.89250711636E+01  0.28093301474E+02  0.40659138294E+02  0.00000000000E+00 0.  1.
         11    1    3    3    0    0 -0.32761231929E+01  0.77824974254E+01 -0.55909547506E+01  0.10127142965E+02  0.51100000000E-03 0. -1.
        -11    1    3    3    0    0 -0.28443116394E+02  0.34122508758E+01 -0.16738220213E+02  0.33178642866E+02  0.51100000000E-03 0.  1.
        -12    1    3    3    0    0  0.37143285209E+01 -0.22696771375E+01 -0.57641265104E+01  0.72230758751E+01  0.00000000000E+00 0.  1.
</event>
<event>
 7    1  0.4962385E-011  0.5052886E+02  0.7816164E-02  0.1300439E+00
        -11   -1    0    0    0    0  0.00000000000E+00  0.00000000000E+00  0.45593999997E+02  0.45594000000E+02  0.51100000000E-03 0.  1.
         11   -1    0    0    0    0 -0.00000000000E+00 -0.00000000000E+00 -0.45593999997E+02  0.45594000000E+02  0.51100000000E-03 0. -1.
    9900012    2    1    2    0    0 -0.21721056322E+02 -0.33504425699E+02 -0.76690759242E+01  0.50528861363E+02  0.30000004600E+02 0.  0.
        -12    1    1    2    0    0  0.21721056322E+02  0.33504425699E+02  0.76690759242E+01  0.40659138637E+02  0.00000000000E+00 0.  1.
         11    1    3    3    0    0 -0.11470639233E+02 -0.27987219744E+02 -0.28289214638E+01  0.30378657480E+02  0.51100000000E-03 0. -1.
        -11    1    3    3    0    0 -0.22100484117E+01  0.47054541113E+01  0.18583327987E+01  0.55207801466E+01  0.51100000000E-03 0.  1.
        -12    1    3    3    0    0 -0.80403686767E+01 -0.10222660066E+02 -0.66984872591E+01  0.14629423736E+02  0.00000000000E+00 0.  1.
</event>
<event>
 7    1  0.4962385E-011  0.5052886E+02  0.7816164E-02  0.1300439E+00
        -11   -1    0    0    0    0  0.00000000000E+00  0.00000000000E+00  0.45593999997E+02  0.45594000000E+02  0.51100000000E-03 0. -1.
         11   -1    0    0    0    0 -0.00000000000E+00 -0.00000000000E+00 -0.45593999997E+02  0.45594000000E+02  0.51100000000E-03 0.  1.
    9900012    2    1    2    0    0 -0.16993550646E+02  0.14265109707E+02 -0.34071856453E+02  0.50528861781E+02  0.30000005870E+02 0.  0.
        -12    1    1    2    0    0  0.16993550646E+02 -0.14265109707E+02  0.34071856453E+02  0.40659138219E+02  0.00000000000E+00 0.  1.
         11    1    3    3    0    0 -0.18163979011E+02  0.17806475284E+02 -0.20738508844E+02  0.32818995184E+02  0.51100000000E-03 0. -1.
        -11    1    3    3    0    0  0.46827032022E+01 -0.40653834124E+01 -0.32121531916E+01  0.69837654570E+01  0.51100000000E-03 0.  1.
        -12    1    3    3    0    0 -0.35122748373E+01  0.52401783557E+00 -0.10121194418E+02  0.10726101140E+02  0.00000000000E+00 0.  1.
</event>
<event>
 7    1  0.4962385E-011  0.5052886E+02  0.7816164E-02  0.1300439E+00
        -11   -1    0    0    0    0  0.00000000000E+00  0.00000000000E+00  0.45593999997E+02  0.45594000000E+02  0.51100000000E-03 0.  1.
         11   -1    0    0    0    0 -0.00000000000E+00 -0.00000000000E+00 -0.45593999997E+02  0.45594000000E+02  0.51100000000E-03 0. -1.
    9900012    2    1    2    0    0 -0.36329257434E+02  0.88652960696E+01 -0.15961125183E+02  0.50528856659E+02  0.29999990302E+02 0.  0.
        -12    1    1    2    0    0  0.36329257434E+02 -0.88652960696E+01  0.15961125183E+02  0.40659143341E+02  0.00000000000E+00 0.  1.
         11    1    3    3    0    0 -0.31881866305E+02 -0.18014012041E+01 -0.59228210457E+01  0.32477349873E+02  0.51100000000E-03 0. -1.
        -11    1    3    3    0    0 -0.39297158086E+01  0.53171821898E+01 -0.10759717673E+02  0.12628801109E+02  0.51100000000E-03 0.  1.
         12    1    3    3    0    0 -0.51767532015E+00  0.53495150839E+01  0.72141353622E+00  0.54227056771E+01  0.00000000000E+00 0. -1.
</event>
<event>
 7    1  0.4962385E-011  0.5052886E+02  0.7816164E-02  0.1300439E+00
        -11   -1    0    0    0    0  0.00000000000E+00  0.00000000000E+00  0.45593999997E+02  0.45594000000E+02  0.51100000000E-03 0.  1.
         11   -1    0    0    0    0 -0.00000000000E+00 -0.00000000000E+00 -0.45593999997E+02  0.45594000000E+02  0.51100000000E-03 0. -1.
    9900012    2    1    2    0    0  0.26911730927E+02  0.73247775758E+01 -0.29585002390E+02  0.50528855955E+02  0.29999988162E+02 0.  0.
        -12    1    1    2    0    0 -0.26911730927E+02 -0.73247775758E+01  0.29585002390E+02  0.40659144045E+02  0.00000000000E+00 0.  1.
         11    1    3    3    0    0  0.17940654912E+02 -0.64571631895E+00 -0.12690437839E+02  0.21984796134E+02  0.51100000000E-03 0. -1.
        -11    1    3    3    0    0 -0.33287152138E+01  0.98574778141E+01 -0.60337636725E+01  0.12027323815E+02  0.51100000000E-03 0.  1.
        -12    1    3    3    0    0  0.12299791229E+02 -0.18869839194E+01 -0.10860800879E+02  0.16516736006E+02  0.00000000000E+00 0.  1.
</event>
<event>
 7    1  0.4962385E-011  0.5052886E+02  0.7816164E-02  0.1300439E+00
        -11   -1    0    0    0    0  0.00000000000E+00  0.00000000000E+00  0.45593999997E+02  0.45594000000E+02  0.51100000000E-03 0.  1.
         11   -1    0    0    0    0 -0.00000000000E+00 -0.00000000000E+00 -0.45593999997E+02  0.45594000000E+02  0.51100000000E-03 0. -1.
    9900012    2    1    2    0    0 -0.14202736645E+01  0.16068786732E+02 -0.37322147669E+02  0.50528858458E+02  0.29999995769E+02 0.  0.
        -12    1    1    2    0    0  0.14202736645E+01 -0.16068786732E+02  0.37322147669E+02  0.40659141542E+02  0.00000000000E+00 0.  1.
         11    1    3    3    0    0 -0.81359633317E+01  0.94197357617E+01 -0.16872370640E+02  0.20966692930E+02  0.51100000000E-03 0. -1.
        -11    1    3    3    0    0  0.10075851569E+01 -0.66880150492E+01 -0.53598745401E+01  0.86297756919E+01  0.51100000000E-03 0.  1.
        -12    1    3    3    0    0  0.57081045103E+01  0.13337066020E+02 -0.15089902489E+02  0.20932389836E+02  0.00000000000E+00 0.  1.
</event>
<event>
 7    1  0.4962385E-011  0.5052886E+02  0.7816164E-02  0.1300439E+00
        -11   -1    0    0    0    0  0.00000000000E+00  0.00000000000E+00  0.45593999997E+02  0.45594000000E+02  0.51100000000E-03 0.  1.
         11   -1    0    0    0    0 -0.00000000000E+00 -0.00000000000E+00 -0.45593999997E+02  0.45594000000E+02  0.51100000000E-03 0. -1.
    9900012    2    1    2    0    0 -0.18797207983E+02 -0.25411620729E+02 -0.25574994011E+02  0.50528858166E+02  0.29999994881E+02 0.  0.
        -12    1    1    2    0    0  0.18797207983E+02  0.25411620729E+02  0.25574994011E+02  0.40659141834E+02  0.00000000000E+00 0.  1.
         11    1    3    3    0    0 -0.14391702572E+02 -0.21820309571E+02 -0.77821606400E+01  0.27272862651E+02  0.51100000000E-03 0. -1.
        -11    1    3    3    0    0  0.83107604097E+00 -0.13632798744E+01 -0.17484010344E+02  0.17556760446E+02  0.51100000000E-03 0.  1.
        -12    1    3    3    0    0 -0.52365814520E+01 -0.22280312834E+01 -0.30882302738E+00  0.56992350685E+01  0.00000000000E+00 0.  1.
</event>
<event>
 7    1  0.4962385E-011  0.5052887E+02  0.7816164E-02  0.1300439E+00
        -11   -1    0    0    0    0  0.00000000000E+00  0.00000000000E+00  0.45593999997E+02  0.45594000000E+02  0.51100000000E-03 0. -1.
         11   -1    0    0    0    0 -0.00000000000E+00 -0.00000000000E+00 -0.45593999997E+02  0.45594000000E+02  0.51100000000E-03 0.  1.
    9900012    2    1    2    0    0 -0.16615599040E+02 -0.36288306566E+01  0.36931269946E+02  0.50528865194E+02  0.30000016242E+02 0.  0.
        -12    1    1    2    0    0  0.16615599040E+02  0.36288306566E+01 -0.36931269946E+02  0.40659134806E+02  0.00000000000E+00 0.  1.
         11    1    3    3    0    0 -0.16263148388E+02 -0.12022765049E+02  0.27614751205E+02  0.34228808908E+02  0.51100000000E-03 0. -1.
        -11    1    3    3    0    0 -0.86723038129E+00  0.89503159471E+01  0.11145221752E+02  0.14320482263E+02  0.51100000000E-03 0.  1.
        -12    1    3    3    0    0  0.51477972947E+00 -0.55638155506E+00 -0.18287030112E+01  0.19795740218E+01  0.00000000000E+00 0.  1.
</event>
<event>
 7    1  0.4962385E-011  0.5052885E+02  0.7816164E-02  0.1300439E+00
        -11   -1    0    0    0    0  0.00000000000E+00  0.00000000000E+00  0.45593999997E+02  0.45594000000E+02  0.51100000000E-03 0. -1.
         11   -1    0    0    0    0 -0.00000000000E+00 -0.00000000000E+00 -0.45593999997E+02  0.45594000000E+02  0.51100000000E-03 0.  1.
    9900012    2    1    2    0    0  0.38823575487E+02 -0.76509260605E+01 -0.93466589979E+01  0.50528847063E+02  0.29999961132E+02 0.  0.
        -12    1    1    2    0    0 -0.38823575487E+02  0.76509260605E+01  0.93466589979E+01  0.40659152937E+02  0.00000000000E+00 0.  1.
         11    1    3    3    0    0  0.41304798322E+01  0.81267667336E+01 -0.56559268949E+00  0.91337339866E+01  0.51100000000E-03 0. -1.
        -11    1    3    3    0    0  0.83677807184E+01 -0.99579160815E+01  0.10563216053E+00  0.13007344281E+02  0.51100000000E-03 0.  1.
         12    1    3    3    0    0  0.26325314936E+02 -0.58197767126E+01 -0.88866984690E+01  0.28387768795E+02  0.00000000000E+00 0. -1.
</event>
<event>
 7    1  0.4962385E-011  0.5052887E+02  0.7816164E-02  0.1300439E+00
        -11   -1    0    0    0    0  0.00000000000E+00  0.00000000000E+00  0.45593999997E+02  0.45594000000E+02  0.51100000000E-03 0.  1.
         11   -1    0    0    0    0 -0.00000000000E+00 -0.00000000000E+00 -0.45593999997E+02  0.45594000000E+02  0.51100000000E-03 0. -1.
    9900012    2    1    2    0    0 -0.16090453570E+02 -0.32580813621E+01 -0.37197406748E+02  0.50528869918E+02  0.30000030604E+02 0.  0.
        -12    1    1    2    0    0  0.16090453570E+02  0.32580813621E+01  0.37197406748E+02  0.40659130082E+02  0.00000000000E+00 0.  1.
         11    1    3    3    0    0 -0.14438489530E+01  0.82918625686E+01 -0.61067246184E+01  0.10398642723E+02  0.51100000000E-03 0. -1.
        -11    1    3    3    0    0 -0.34699243926E+00 -0.11032155207E+02 -0.14455955562E+02  0.18188004392E+02  0.51100000000E-03 0.  1.
        -12    1    3    3    0    0 -0.14299612178E+02 -0.51778872329E+00 -0.16634726567E+02  0.21942222804E+02  0.00000000000E+00 0.  1.
</event>
<event>
 7    1  0.4962385E-011  0.5052886E+02  0.7816164E-02  0.1300439E+00
        -11   -1    0    0    0    0  0.00000000000E+00  0.00000000000E+00  0.45593999997E+02  0.45594000000E+02  0.51100000000E-03 0. -1.
         11   -1    0    0    0    0 -0.00000000000E+00 -0.00000000000E+00 -0.45593999997E+02  0.45594000000E+02  0.51100000000E-03 0.  1.
    9900012    2    1    2    0    0  0.14726123712E+02  0.23379652276E+02  0.29827814652E+02  0.50528863425E+02  0.30000010865E+02 0.  0.
        -12    1    1    2    0    0 -0.14726123712E+02 -0.23379652276E+02 -0.29827814652E+02  0.40659136575E+02  0.00000000000E+00 0.  1.
         11    1    3    3    0    0  0.12305036738E+02  0.11503432297E+02  0.16754248327E+02  0.23758108531E+02  0.51100000000E-03 0. -1.
        -11    1    3    3    0    0 -0.71674557736E+01  0.11741008288E+02  0.81898694522E+01  0.16009299166E+02  0.51100000000E-03 0.  1.
        -12    1    3    3    0    0  0.95885427471E+01  0.13521169138E+00  0.48836968737E+01  0.10761455727E+02  0.00000000000E+00 0.  1.
</event>
<event>
 7    1  0.4962385E-011  0.5052888E+02  0.7816164E-02  0.1300439E+00
        -11   -1    0    0    0    0  0.00000000000E+00  0.00000000000E+00  0.45593999997E+02  0.45594000000E+02  0.51100000000E-03 0. -1.
         11   -1    0    0    0    0 -0.00000000000E+00 -0.00000000000E+00 -0.45593999997E+02  0.45594000000E+02  0.51100000000E-03 0.  1.
    9900012    2    1    2    0    0  0.27502543637E+00  0.30600366149E+02  0.26771361284E+02  0.50528882542E+02  0.30000068975E+02 0.  0.
        -12    1    1    2    0    0 -0.27502543637E+00 -0.30600366149E+02 -0.26771361284E+02  0.40659117458E+02  0.00000000000E+00 0.  1.
         11    1    3    3    0    0 -0.54033827828E+01  0.30148992522E+02  0.16528104517E+02  0.34804260297E+02  0.51100000000E-03 0. -1.
        -11    1    3    3    0    0  0.22502824342E+01  0.21975013331E+01 -0.14143126457E+01  0.34486321438E+01  0.51100000000E-03 0.  1.
         12    1    3    3    0    0  0.34281257850E+01 -0.17461277064E+01  0.11657569413E+02  0.12275990102E+02  0.00000000000E+00 0. -1.
</event>
<event>
 7    1  0.4962385E-011  0.5052889E+02  0.7816164E-02  0.1300439E+00
        -11   -1    0    0    0    0  0.00000000000E+00  0.00000000000E+00  0.45593999997E+02  0.45594000000E+02  0.51100000000E-03 0.  1.
         11   -1    0    0    0    0 -0.00000000000E+00 -0.00000000000E+00 -0.45593999997E+02  0.45594000000E+02  0.51100000000E-03 0. -1.
    9900012    2    1    2    0    0  0.26641756658E+02  0.16022116188E+02 -0.26204420561E+02  0.50528892018E+02  0.30000097777E+02 0.  0.
        -12    1    1    2    0    0 -0.26641756658E+02 -0.16022116188E+02  0.26204420561E+02  0.40659107982E+02  0.00000000000E+00 0.  1.
         11    1    3    3    0    0  0.19027898014E+02  0.36715288050E+01 -0.11438090038E+02  0.22502687186E+02  0.51100000000E-03 0. -1.
        -11    1    3    3    0    0  0.75161616120E+00  0.18120996173E+01  0.45625152267E+01  0.49664048699E+01  0.51100000000E-03 0.  1.
        -12    1    3    3    0    0  0.68622424828E+01  0.10538487766E+02 -0.19328845750E+02  0.23059799962E+02  0.00000000000E+00 0.  1.
</event>
<event>
 7    1  0.4962385E-011  0.5052886E+02  0.7816164E-02  0.1300439E+00
        -11   -1    0    0    0    0  0.00000000000E+00  0.00000000000E+00  0.45593999997E+02  0.45594000000E+02  0.51100000000E-03 0.  1.
         11   -1    0    0    0    0 -0.00000000000E+00 -0.00000000000E+00 -0.45593999997E+02  0.45594000000E+02  0.51100000000E-03 0. -1.
    9900012    2    1    2    0    0  0.35624051702E+02  0.58486958733E+00  0.19589546951E+02  0.50528862258E+02  0.30000007320E+02 0.  0.
        -12    1    1    2    0    0 -0.35624051702E+02 -0.58486958733E+00 -0.19589546951E+02  0.40659137742E+02  0.00000000000E+00 0.  1.
         11    1    3    3    0    0  0.24462198688E+02 -0.60758542928E+01  0.11936264399E+02  0.27888879111E+02  0.51100000000E-03 0. -1.
        -11    1    3    3    0    0  0.50766315376E+01  0.12097890421E+02  0.52689522694E+01  0.14138352050E+02  0.51100000000E-03 0.  1.
        -12    1    3    3    0    0  0.60852214772E+01 -0.54371665406E+01  0.23843302830E+01  0.85016310974E+01  0.00000000000E+00 0.  1.
</event>
<event>
 7    1  0.4962385E-011  0.5052885E+02  0.7816164E-02  0.1300439E+00
        -11   -1    0    0    0    0  0.00000000000E+00  0.00000000000E+00  0.45593999997E+02  0.45594000000E+02  0.51100000000E-03 0.  1.
         11   -1    0    0    0    0 -0.00000000000E+00 -0.00000000000E+00 -0.45593999997E+02  0.45594000000E+02  0.51100000000E-03 0. -1.
    9900012    2    1    2    0    0  0.30390636639E+02  0.31573754669E+00 -0.27008814694E+02  0.50528849041E+02  0.29999967146E+02 0.  0.
        -12    1    1    2    0    0 -0.30390636639E+02 -0.31573754669E+00  0.27008814694E+02  0.40659150959E+02  0.00000000000E+00 0.  1.
         11    1    3    3    0    0  0.12136909213E+02  0.56980450064E+01 -0.40093273774E+01  0.13994534234E+02  0.51100000000E-03 0. -1.
        -11    1    3    3    0    0  0.10603064415E+02 -0.13183423545E+02 -0.17351515268E+02  0.24234329240E+02  0.51100000000E-03 0.  1.
        -12    1    3    3    0    0  0.76506630111E+01  0.78011160857E+01 -0.56479720483E+01  0.12299985567E+02  0.00000000000E+00 0.  1.
</event>
<event>
 7    1  0.4962385E-011  0.5052886E+02  0.7816164E-02  0.1300439E+00
        -11   -1    0    0    0    0  0.00000000000E+00  0.00000000000E+00  0.45593999997E+02  0.45594000000E+02  0.51100000000E-03 0.  1.
         11   -1    0    0    0    0 -0.00000000000E+00 -0.00000000000E+00 -0.45593999997E+02  0.45594000000E+02  0.51100000000E-03 0. -1.
    9900012    2    1    2    0    0  0.18321071812E+01 -0.27284043814E+02 -0.30089696735E+02  0.50528861874E+02  0.30000006151E+02 0.  0.
        -12    1    1    2    0    0 -0.18321071812E+01  0.27284043814E+02  0.30089696735E+02  0.40659138126E+02  0.00000000000E+00 0.  1.
         11    1    3    3    0    0  0.95497350634E+00 -0.22326207369E+02 -0.35745804780E+02  0.42156068004E+02  0.51100000000E-03 0. -1.
        -11    1    3    3    0    0  0.52402660640E-01  0.15623203963E+00  0.20604566743E+01  0.20670356690E+01  0.51100000000E-03 0.  1.
         12    1    3    3    0    0  0.82473101425E+00 -0.51140684841E+01  0.35956513706E+01  0.63057582007E+01  0.00000000000E+00 0. -1.
</event>
<event>
 7    1  0.4962385E-011  0.5052886E+02  0.7816164E-02  0.1300439E+00
        -11   -1    0    0    0    0  0.00000000000E+00  0.00000000000E+00  0.45593999997E+02  0.45594000000E+02  0.51100000000E-03 0. -1.
         11   -1    0    0    0    0 -0.00000000000E+00 -0.00000000000E+00 -0.45593999997E+02  0.45594000000E+02  0.51100000000E-03 0.  1.
    9900012    2    1    2    0    0 -0.24874393979E+02  0.28763240018E+02  0.14391194098E+02  0.50528856874E+02  0.29999990954E+02 0.  0.
        -12    1    1    2    0    0  0.24874393979E+02 -0.28763240018E+02 -0.14391194098E+02  0.40659143126E+02  0.00000000000E+00 0.  1.
         11    1    3    3    0    0 -0.13380327307E+02  0.25476033451E+02  0.18525068977E+02  0.34223378269E+02  0.51100000000E-03 0. -1.
        -11    1    3    3    0    0 -0.30662584797E+01 -0.30865510990E+01  0.11375600164E+01  0.44969747390E+01  0.51100000000E-03 0.  1.
         12    1    3    3    0    0 -0.84278081926E+01  0.63737576654E+01 -0.52714348949E+01  0.11808503866E+02  0.00000000000E+00 0. -1.
</event>
<event>
 7    1  0.4962385E-011  0.5052886E+02  0.7816164E-02  0.1300439E+00
        -11   -1    0    0    0    0  0.00000000000E+00  0.00000000000E+00  0.45593999997E+02  0.45594000000E+02  0.51100000000E-03 0.  1.
         11   -1    0    0    0    0 -0.00000000000E+00 -0.00000000000E+00 -0.45593999997E+02  0.45594000000E+02  0.51100000000E-03 0. -1.
    9900012    2    1    2    0    0  0.38667085297E+02  0.11748932958E+02 -0.44704604131E+01  0.50528856781E+02  0.29999990671E+02 0.  0.
        -12    1    1    2    0    0 -0.38667085297E+02 -0.11748932958E+02  0.44704604131E+01  0.40659143219E+02  0.00000000000E+00 0.  1.
         11    1    3    3    0    0  0.25462459128E+02  0.17793861428E+02  0.10220735586E+00  0.31063946562E+02  0.51100000000E-03 0. -1.
        -11    1    3    3    0    0  0.15304046840E+02 -0.39206394652E+01 -0.46782290700E+01  0.16476379791E+02  0.51100000000E-03 0.  1.
        -12    1    3    3    0    0 -0.20994206719E+01 -0.21242890050E+01  0.10556130107E+00  0.29885304286E+01  0.00000000000E+00 0.  1.
</event>
<event>
 7    1  0.4962385E-011  0.5052885E+02  0.7816164E-02  0.1300439E+00
        -11   -1    0    0    0    0  0.00000000000E+00  0.00000000000E+00  0.45593999997E+02  0.45594000000E+02  0.51100000000E-03 0.  1.
         11   -1    0    0    0    0 -0.00000000000E+00 -0.00000000000E+00 -0.45593999997E+02  0.45594000000E+02  0.51100000000E-03 0. -1.
    9900012    2    1    2    0    0 -0.64920500634E+00  0.37985771819E+02 -0.14485371158E+02  0.50528852131E+02  0.29999976538E+02 0.  0.
        -12    1    1    2    0    0  0.64920500634E+00 -0.37985771819E+02  0.14485371158E+02  0.40659147869E+02  0.00000000000E+00 0.  1.
         11    1    3    3    0    0  0.58191830530E+01  0.52196560359E+01 -0.10613079635E+02  0.13181242739E+02  0.51100000000E-03 0. -1.
        -11    1    3    3    0    0 -0.10054815421E+02  0.12647488073E+02  0.14730208915E+01  0.16224304562E+02  0.51100000000E-03 0.  1.
        -12    1    3    3    0    0  0.35864273618E+01  0.20118627710E+02 -0.53453124146E+01  0.21123304831E+02  0.00000000000E+00 0.  1.
</event>
<event>
 7    1  0.4962385E-011  0.5052886E+02  0.7816164E-02  0.1300439E+00
        -11   -1    0    0    0    0  0.00000000000E+00  0.00000000000E+00  0.45593999997E+02  0.45594000000E+02  0.51100000000E-03 0.  1.
         11   -1    0    0    0    0 -0.00000000000E+00 -0.00000000000E+00 -0.45593999997E+02  0.45594000000E+02  0.51100000000E-03 0. -1.
    9900012    2    1    2    0    0 -0.39845572413E+02  0.67146906758E+01  0.45176123060E+01  0.50528861633E+02  0.30000005421E+02 0.  0.
        -12    1    1    2    0    0  0.39845572413E+02 -0.67146906758E+01 -0.45176123060E+01  0.40659138367E+02  0.00000000000E+00 0.  1.
         11    1    3    3    0    0 -0.46564862136E+01  0.46812087558E+01 -0.46239209565E+01  0.80608451509E+01  0.51100000000E-03 0. -1.
        -11    1    3    3    0    0 -0.31594209793E+02 -0.30910954336E+01  0.43910802724E+00  0.31748098833E+02  0.51100000000E-03 0.  1.
        -12    1    3    3    0    0 -0.35948764062E+01  0.51245773536E+01  0.87024252353E+01  0.10719917649E+02  0.00000000000E+00 0.  1.
</event>
<event>
 7    1  0.4962385E-011  0.5052886E+02  0.7816164E-02  0.1300439E+00
        -11   -1    0    0    0    0  0.00000000000E+00  0.00000000000E+00  0.45593999997E+02  0.45594000000E+02  0.51100000000E-03 0.  1.
         11   -1    0    0    0    0 -0.00000000000E+00 -0.00000000000E+00 -0.45593999997E+02  0.45594000000E+02  0.51100000000E-03 0. -1.
    9900012    2    1    2    0    0  0.15550650959E+02 -0.28746997621E+02 -0.24185802785E+02  0.50528859898E+02  0.30000000147E+02 0.  0.
        -12    1    1    2    0    0 -0.15550650959E+02  0.28746997621E+02  0.24185802785E+02  0.40659140102E+02  0.00000000000E+00 0.  1.
         11    1    3    3    0    0  0.21956901889E+01 -0.17962618124E+02 -0.73280205072E+01  0.19523744264E+02  0.51100000000E-03 0. -1.
        -11    1    3    3    0    0  0.77518342406E+01 -0.54253602830E+01 -0.20395083000E+02  0.22482990885E+02  0.51100000000E-03 0.  1.
        -12    1    3    3    0    0  0.56031265292E+01 -0.53590192134E+01  0.35373007226E+01  0.85221247487E+01  0.00000000000E+00 0.  1.
</event>
<event>
 7    1  0.4962385E-011  0.5052887E+02  0.7816164E-02  0.1300439E+00
        -11   -1    0    0    0    0  0.00000000000E+00  0.00000000000E+00  0.45593999997E+02  0.45594000000E+02  0.51100000000E-03 0.  1.
         11   -1    0    0    0    0 -0.00000000000E+00 -0.00000000000E+00 -0.45593999997E+02  0.45594000000E+02  0.51100000000E-03 0. -1.
    9900012    2    1    2    0    0  0.13973022014E+02 -0.37579006980E+02  0.67629970374E+01  0.50528865248E+02  0.30000016409E+02 0.  0.
        -12    1    1    2    0    0 -0.13973022014E+02  0.37579006980E+02 -0.67629970374E+01  0.40659134752E+02  0.00000000000E+00 0.  1.
         11    1    3    3    0    0  0.12095675863E+02 -0.34070930125E+02  0.29572939451E+01  0.36275049854E+02  0.51100000000E-03 0. -1.
        -11    1    3    3    0    0  0.35479023593E-03 -0.72792424973E-01 -0.47994957368E+01  0.48000477552E+01  0.51100000000E-03 0.  1.
         12    1    3    3    0    0  0.18769913610E+01 -0.34352844300E+01  0.86051988291E+01  0.94537676390E+01  0.00000000000E+00 0. -1.
</event>
<event>
 7    1  0.4962385E-011  0.5052885E+02  0.7816164E-02  0.1300439E+00
        -11   -1    0    0    0    0  0.00000000000E+00  0.00000000000E+00  0.45593999997E+02  0.45594000000E+02  0.51100000000E-03 0. -1.
         11   -1    0    0    0    0 -0.00000000000E+00 -0.00000000000E+00 -0.45593999997E+02  0.45594000000E+02  0.51100000000E-03 0.  1.
    9900012    2    1    2    0    0  0.87488452605E+01 -0.23886153089E+02  0.31718692823E+02  0.50528854938E+02  0.29999985070E+02 0.  0.
        -12    1    1    2    0    0 -0.87488452605E+01  0.23886153089E+02 -0.31718692823E+02  0.40659145062E+02  0.00000000000E+00 0.  1.
         11    1    3    3    0    0  0.98962719183E+01 -0.87776849674E+01  0.14455076063E+02  0.19594212807E+02  0.51100000000E-03 0. -1.
        -11    1    3    3    0    0 -0.91564160444E+01 -0.56091270811E+01  0.14771798603E+02  0.18262209495E+02  0.51100000000E-03 0.  1.
        -12    1    3    3    0    0  0.80089893866E+01 -0.94993410405E+01  0.24918181561E+01  0.12672432636E+02  0.00000000000E+00 0.  1.
</event>
<event>
 7    1  0.4962385E-011  0.5052886E+02  0.7816164E-02  0.1300439E+00
        -11   -1    0    0    0    0  0.00000000000E+00  0.00000000000E+00  0.45593999997E+02  0.45594000000E+02  0.51100000000E-03 0. -1.
         11   -1    0    0    0    0 -0.00000000000E+00 -0.00000000000E+00 -0.45593999997E+02  0.45594000000E+02  0.51100000000E-03 0.  1.
    9900012    2    1    2    0    0  0.87133144299E+01  0.13876192779E+02  0.37211493844E+02  0.50528857750E+02  0.29999993617E+02 0.  0.
        -12    1    1    2    0    0 -0.87133144299E+01 -0.13876192779E+02 -0.37211493844E+02  0.40659142250E+02  0.00000000000E+00 0.  1.
         11    1    3    3    0    0  0.10347628914E+02  0.17895432424E+02  0.31436617783E+02  0.37624205822E+02  0.51100000000E-03 0. -1.
        -11    1    3    3    0    0 -0.54572953242E+01  0.61237219630E+00  0.33169976198E+01  0.64155705462E+01  0.51100000000E-03 0.  1.
         12    1    3    3    0    0  0.38229808396E+01 -0.46316118414E+01  0.24578784408E+01  0.64890813818E+01  0.00000000000E+00 0. -1.
</event>
<event>
 7    1  0.4962385E-011  0.5052885E+02  0.7816164E-02  0.1300439E+00
        -11   -1    0    0    0    0  0.00000000000E+00  0.00000000000E+00  0.45593999997E+02  0.45594000000E+02  0.51100000000E-03 0. -1.
         11   -1    0    0    0    0 -0.00000000000E+00 -0.00000000000E+00 -0.45593999997E+02  0.45594000000E+02  0.51100000000E-03 0.  1.
    9900012    2    1    2    0    0 -0.25275320535E+02 -0.15654992751E+02 -0.27735275046E+02  0.50528854558E+02  0.29999983916E+02 0.  0.
        -12    1    1    2    0    0  0.25275320535E+02  0.15654992751E+02  0.27735275046E+02  0.40659145442E+02  0.00000000000E+00 0.  1.
         11    1    3    3    0    0 -0.96799375509E+01 -0.64629773997E+01  0.10004329342E+01  0.11682128837E+02  0.51100000000E-03 0. -1.
        -11    1    3    3    0    0 -0.31914951297E+01 -0.89821331474E+01 -0.23540373177E+02  0.25397116502E+02  0.51100000000E-03 0.  1.
        -12    1    3    3    0    0 -0.12403887854E+02 -0.20988220372E+00 -0.51953348037E+01  0.13449609219E+02  0.00000000000E+00 0.  1.
</event>
<event>
 7    1  0.4962385E-011  0.5052887E+02  0.7816164E-02  0.1300439E+00
        -11   -1    0    0    0    0  0.00000000000E+00  0.00000000000E+00  0.45593999997E+02  0.45594000000E+02  0.51100000000E-03 0.  1.
         11   -1    0    0    0    0 -0.00000000000E+00 -0.00000000000E+00 -0.45593999997E+02  0.45594000000E+02  0.51100000000E-03 0. -1.
    9900012    2    1    2    0    0  0.33913262721E+02  0.99017513737E+01 -0.20124886896E+02  0.50528866448E+02  0.30000020055E+02 0.  0.
        -12    1    1    2    0    0 -0.33913262721E+02 -0.99017513737E+01  0.20124886896E+02  0.40659133552E+02  0.00000000000E+00 0.  1.
         11    1    3    3    0    0  0.15776267810E+02  0.11348242961E+02  0.18751718418E+00  0.19434721693E+02  0.51100000000E-03 0. -1.
        -11    1    3    3    0    0  0.20554680984E+02 -0.24944308284E+01 -0.16582089828E+02  0.26527020166E+02  0.51100000000E-03 0.  1.
         12    1    3    3    0    0 -0.24176860736E+01  0.10479392410E+01 -0.37303142516E+01  0.45671245898E+01  0.00000000000E+00 0. -1.
</event>
<event>
 7    1  0.4962385E-011  0.5052887E+02  0.7816164E-02  0.1300439E+00
        -11   -1    0    0    0    0  0.00000000000E+00  0.00000000000E+00  0.45593999997E+02  0.45594000000E+02  0.51100000000E-03 0.  1.
         11   -1    0    0    0    0 -0.00000000000E+00 -0.00000000000E+00 -0.45593999997E+02  0.45594000000E+02  0.51100000000E-03 0. -1.
    9900012    2    1    2    0    0  0.38958328175E+02  0.56188696677E+01 -0.10190270146E+02  0.50528872658E+02  0.30000038932E+02 0.  0.
        -12    1    1    2    0    0 -0.38958328175E+02 -0.56188696677E+01  0.10190270146E+02  0.40659127342E+02  0.00000000000E+00 0.  1.
         11    1    3    3    0    0  0.63275081316E+01 -0.10692999605E+02 -0.44462968712E+01  0.13196482707E+02  0.51100000000E-03 0.  1.
        -11    1    3    3    0    0  0.11311939975E+02  0.84401830047E+01 -0.12725085350E+01  0.14170954568E+02  0.51100000000E-03 0. -1.
         12    1    3    3    0    0  0.21318880069E+02  0.78716862678E+01 -0.44714647398E+01  0.23161435383E+02  0.00000000000E+00 0. -1.
</event>
<event>
 7    1  0.4962385E-011  0.5052886E+02  0.7816164E-02  0.1300439E+00
        -11   -1    0    0    0    0  0.00000000000E+00  0.00000000000E+00  0.45593999997E+02  0.45594000000E+02  0.51100000000E-03 0.  1.
         11   -1    0    0    0    0 -0.00000000000E+00 -0.00000000000E+00 -0.45593999997E+02  0.45594000000E+02  0.51100000000E-03 0. -1.
    9900012    2    1    2    0    0 -0.88613410780E+01 -0.24439246628E+02 -0.31262849472E+02  0.50528857134E+02  0.29999991745E+02 0.  0.
        -12    1    1    2    0    0  0.88613410780E+01  0.24439246628E+02  0.31262849472E+02  0.40659142866E+02  0.00000000000E+00 0.  1.
         11    1    3    3    0    0  0.25881014081E+01  0.17880289172E+01 -0.15050868963E+02  0.15376084453E+02  0.51100000000E-03 0.  1.
        -11    1    3    3    0    0 -0.11520464614E+02 -0.12160785938E+02 -0.60945594682E+01  0.17825528742E+02  0.51100000000E-03 0. -1.
         12    1    3    3    0    0  0.71022127645E-01 -0.14066489607E+02 -0.10117421041E+02  0.17327243939E+02  0.00000000000E+00 0. -1.
</event>
<event>
 7    1  0.4962385E-011  0.5052886E+02  0.7816164E-02  0.1300439E+00
        -11   -1    0    0    0    0  0.00000000000E+00  0.00000000000E+00  0.45593999997E+02  0.45594000000E+02  0.51100000000E-03 0. -1.
         11   -1    0    0    0    0 -0.00000000000E+00 -0.00000000000E+00 -0.45593999997E+02  0.45594000000E+02  0.51100000000E-03 0.  1.
    9900012    2    1    2    0    0 -0.13272126724E+02  0.36654413986E+02  0.11552938696E+02  0.50528858285E+02  0.29999995244E+02 0.  0.
        -12    1    1    2    0    0  0.13272126724E+02 -0.36654413986E+02 -0.11552938696E+02  0.40659141715E+02  0.00000000000E+00 0.  1.
         11    1    3    3    0    0 -0.11777637823E+02  0.15213818103E+02  0.15208454162E+02  0.24524887201E+02  0.51100000000E-03 0. -1.
        -11    1    3    3    0    0  0.36844586581E+01  0.14766262290E+02  0.26685140511E+01  0.15451171643E+02  0.51100000000E-03 0.  1.
         12    1    3    3    0    0 -0.51789475597E+01  0.66743335929E+01 -0.63240295165E+01  0.10552799442E+02  0.00000000000E+00 0. -1.
</event>
<event>
 7    1  0.4962385E-011  0.5052885E+02  0.7816164E-02  0.1300439E+00
        -11   -1    0    0    0    0  0.00000000000E+00  0.00000000000E+00  0.45593999997E+02  0.45594000000E+02  0.51100000000E-03 0. -1.
         11   -1    0    0    0    0 -0.00000000000E+00 -0.00000000000E+00 -0.45593999997E+02  0.45594000000E+02  0.51100000000E-03 0.  1.
    9900012    2    1    2    0    0  0.24181030997E+01  0.29850580231E+02  0.27500215433E+02  0.50528853285E+02  0.29999980045E+02 0.  0.
        -12    1    1    2    0    0 -0.24181030997E+01 -0.29850580231E+02 -0.27500215433E+02  0.40659146715E+02  0.00000000000E+00 0.  1.
         11    1    3    3    0    0 -0.44960261447E+01  0.13591715810E+02  0.16646282295E+02  0.21955584808E+02  0.51100000000E-03 0. -1.
        -11    1    3    3    0    0  0.33818756106E+01  0.16509736237E+02 -0.31593972716E+00  0.16855512197E+02  0.51100000000E-03 0.  1.
        -12    1    3    3    0    0  0.35322536338E+01 -0.25087181640E+00  0.11169872865E+02  0.11717756280E+02  0.00000000000E+00 0.  1.
</event>
<event>
 7    1  0.4962385E-011  0.5052887E+02  0.7816164E-02  0.1300439E+00
        -11   -1    0    0    0    0  0.00000000000E+00  0.00000000000E+00  0.45593999997E+02  0.45594000000E+02  0.51100000000E-03 0.  1.
         11   -1    0    0    0    0 -0.00000000000E+00 -0.00000000000E+00 -0.45593999997E+02  0.45594000000E+02  0.51100000000E-03 0. -1.
    9900012    2    1    2    0    0  0.31777458668E+02  0.17415958382E+02 -0.18440247843E+02  0.50528865402E+02  0.30000016875E+02 0.  0.
        -12    1    1    2    0    0 -0.31777458668E+02 -0.17415958382E+02  0.18440247843E+02  0.40659134598E+02  0.00000000000E+00 0.  1.
         11    1    3    3    0    0  0.21446361255E+01  0.65379307024E+01 -0.83606505628E-02  0.68807028814E+01  0.51100000000E-03 0. -1.
        -11    1    3    3    0    0  0.32641462096E+02  0.51622736678E+01 -0.14516764853E+02  0.36095021530E+02  0.51100000000E-03 0.  1.
        -12    1    3    3    0    0 -0.30086395534E+01  0.57157540118E+01 -0.39151223402E+01  0.75531409907E+01  0.00000000000E+00 0.  1.
</event>
<event>
 7    1  0.4962385E-011  0.5052886E+02  0.7816164E-02  0.1300439E+00
        -11   -1    0    0    0    0  0.00000000000E+00  0.00000000000E+00  0.45593999997E+02  0.45594000000E+02  0.51100000000E-03 0. -1.
         11   -1    0    0    0    0 -0.00000000000E+00 -0.00000000000E+00 -0.45593999997E+02  0.45594000000E+02  0.51100000000E-03 0.  1.
    9900012    2    1    2    0    0 -0.99419993878E+01 -0.30174352977E+02  0.25373822227E+02  0.50528858545E+02  0.29999996034E+02 0.  0.
        -12    1    1    2    0    0  0.99419993878E+01  0.30174352977E+02 -0.25373822227E+02  0.40659141455E+02  0.00000000000E+00 0.  1.
         11    1    3    3    0    0  0.68564825717E+01 -0.20738117926E+02  0.12964621263E+02  0.25400045140E+02  0.51100000000E-03 0. -1.
        -11    1    3    3    0    0 -0.11694738520E+02 -0.13499224891E+01  0.41158149935E+01  0.12471131990E+02  0.51100000000E-03 0.  1.
         12    1    3    3    0    0 -0.51037434391E+01 -0.80863125623E+01  0.82933859705E+01  0.12657681415E+02  0.00000000000E+00 0. -1.
</event>
<event>
 7    1  0.4962385E-011  0.5052886E+02  0.7816164E-02  0.1300439E+00
        -11   -1    0    0    0    0  0.00000000000E+00  0.00000000000E+00  0.45593999997E+02  0.45594000000E+02  0.51100000000E-03 0.  1.
         11   -1    0    0    0    0 -0.00000000000E+00 -0.00000000000E+00 -0.45593999997E+02  0.45594000000E+02  0.51100000000E-03 0. -1.
    9900012    2    1    2    0    0 -0.11032757459E+02  0.16961652409E+02 -0.35266790187E+02  0.50528857367E+02  0.29999992452E+02 0.  0.
        -12    1    1    2    0    0  0.11032757459E+02 -0.16961652409E+02  0.35266790187E+02  0.40659142633E+02  0.00000000000E+00 0.  1.
         11    1    3    3    0    0 -0.87058878378E+01  0.56787491138E+01 -0.77848400322E+01  0.12986316226E+02  0.51100000000E-03 0. -1.
        -11    1    3    3    0    0  0.48009411905E+01 -0.97783247010E+00  0.16269874540E+01  0.51625847297E+01  0.51100000000E-03 0.  1.
        -12    1    3    3    0    0 -0.71278108114E+01  0.12260735766E+02 -0.29108937608E+02  0.32379956411E+02  0.00000000000E+00 0.  1.
</event>
<event>
 7    1  0.4962385E-011  0.5052888E+02  0.7816164E-02  0.1300439E+00
        -11   -1    0    0    0    0  0.00000000000E+00  0.00000000000E+00  0.45593999997E+02  0.45594000000E+02  0.51100000000E-03 0. -1.
         11   -1    0    0    0    0 -0.00000000000E+00 -0.00000000000E+00 -0.45593999997E+02  0.45594000000E+02  0.51100000000E-03 0.  1.
    9900012    2    1    2    0    0 -0.18441936305E+02  0.36227109289E+02  0.80947285181E+00  0.50528884067E+02  0.30000073611E+02 0.  0.
        -12    1    1    2    0    0  0.18441936305E+02 -0.36227109289E+02 -0.80947285181E+00  0.40659115933E+02  0.00000000000E+00 0.  1.
         11    1    3    3    0    0 -0.10128392462E+02  0.83805014016E+01  0.38732245337E+01  0.13704707445E+02  0.51100000000E-03 0. -1.
        -11    1    3    3    0    0  0.20214499441E+01  0.79738571498E+01 -0.10394376920E+02  0.13255630107E+02  0.51100000000E-03 0.  1.
        -12    1    3    3    0    0 -0.10334993788E+02  0.19872750738E+02  0.73306252381E+01  0.23568546515E+02  0.00000000000E+00 0.  1.
</event>
<event>
 7    1  0.4962385E-011  0.5052889E+02  0.7816164E-02  0.1300439E+00
        -11   -1    0    0    0    0  0.00000000000E+00  0.00000000000E+00  0.45593999997E+02  0.45594000000E+02  0.51100000000E-03 0.  1.
         11   -1    0    0    0    0 -0.00000000000E+00 -0.00000000000E+00 -0.45593999997E+02  0.45594000000E+02  0.51100000000E-03 0. -1.
    9900012    2    1    2    0    0 -0.12682253078E+02 -0.36021055257E+02  0.13957335448E+02  0.50528890593E+02  0.30000093446E+02 0.  0.
        -12    1    1    2    0    0  0.12682253078E+02  0.36021055257E+02 -0.13957335448E+02  0.40659109407E+02  0.00000000000E+00 0.  1.
         11    1    3    3    0    0 -0.12371201078E+02 -0.13290708706E+02 -0.39359666939E+01  0.18579057783E+02  0.51100000000E-03 0. -1.
        -11    1    3    3    0    0  0.57718116671E+01 -0.54622474608E+01  0.36055731475E+01  0.87264033385E+01  0.51100000000E-03 0.  1.
         12    1    3    3    0    0 -0.60828636669E+01 -0.17268099090E+02  0.14287728995E+02  0.23223429471E+02  0.00000000000E+00 0. -1.
</event>
<event>
 7    1  0.4962385E-011  0.5052886E+02  0.7816164E-02  0.1300439E+00
        -11   -1    0    0    0    0  0.00000000000E+00  0.00000000000E+00  0.45593999997E+02  0.45594000000E+02  0.51100000000E-03 0.  1.
         11   -1    0    0    0    0 -0.00000000000E+00 -0.00000000000E+00 -0.45593999997E+02  0.45594000000E+02  0.51100000000E-03 0. -1.
    9900012    2    1    2    0    0  0.31101531923E+02  0.17967884951E+02 -0.19052971448E+02  0.50528857135E+02  0.29999991747E+02 0.  0.
        -12    1    1    2    0    0 -0.31101531923E+02 -0.17967884951E+02  0.19052971448E+02  0.40659142865E+02  0.00000000000E+00 0.  1.
         11    1    3    3    0    0  0.17421365124E+02  0.89447576095E+01  0.41540801670E+01  0.20019216612E+02  0.51100000000E-03 0. -1.
        -11    1    3    3    0    0 -0.10241716064E+01  0.75584279735E+00 -0.70062388138E+01  0.71209274951E+01  0.51100000000E-03 0.  1.
         12    1    3    3    0    0  0.14704338405E+02  0.82672845441E+01 -0.16200812801E+02  0.23388713027E+02  0.00000000000E+00 0. -1.
</event>
<event>
 7    1  0.4962385E-011  0.5052887E+02  0.7816164E-02  0.1300439E+00
        -11   -1    0    0    0    0  0.00000000000E+00  0.00000000000E+00  0.45593999997E+02  0.45594000000E+02  0.51100000000E-03 0.  1.
         11   -1    0    0    0    0 -0.00000000000E+00 -0.00000000000E+00 -0.45593999997E+02  0.45594000000E+02  0.51100000000E-03 0. -1.
    9900012    2    1    2    0    0 -0.12857646648E+02 -0.55277012722E+01 -0.38174473193E+02  0.50528868649E+02  0.30000026746E+02 0.  0.
        -12    1    1    2    0    0  0.12857646648E+02  0.55277012722E+01  0.38174473193E+02  0.40659131351E+02  0.00000000000E+00 0.  1.
         11    1    3    3    0    0 -0.32860045370E+01 -0.23871752328E+01 -0.21659473928E+01  0.46030163783E+01  0.51100000000E-03 0. -1.
        -11    1    3    3    0    0 -0.78772415708E+01 -0.97262788113E+01 -0.36994625188E+02  0.39054496890E+02  0.51100000000E-03 0.  1.
        -12    1    3    3    0    0 -0.16944005398E+01  0.65857527719E+01  0.98609938816E+00  0.68713553805E+01  0.00000000000E+00 0.  1.
</event>
<event>
 7    1  0.4962385E-011  0.5052886E+02  0.7816164E-02  0.1300439E+00
        -11   -1    0    0    0    0  0.00000000000E+00  0.00000000000E+00  0.45593999997E+02  0.45594000000E+02  0.51100000000E-03 0. -1.
         11   -1    0    0    0    0 -0.00000000000E+00 -0.00000000000E+00 -0.45593999997E+02  0.45594000000E+02  0.51100000000E-03 0.  1.
    9900012    2    1    2    0    0  0.27621853860E+02 -0.16947066778E+02  0.24555964646E+02  0.50528864708E+02  0.30000014765E+02 0.  0.
        -12    1    1    2    0    0 -0.27621853860E+02  0.16947066778E+02 -0.24555964646E+02  0.40659135292E+02  0.00000000000E+00 0.  1.
         11    1    3    3    0    0  0.54209377809E+01  0.22699351348E+01  0.13093152378E+02  0.14351648386E+02  0.51100000000E-03 0. -1.
        -11    1    3    3    0    0 -0.50450353348E+00 -0.85016028328E+01 -0.14278566555E+00  0.85177557226E+01  0.51100000000E-03 0.  1.
         12    1    3    3    0    0  0.22705419612E+02 -0.10715399080E+02  0.11605597933E+02  0.27659460599E+02  0.00000000000E+00 0. -1.
</event>
<event>
 7    1  0.4962385E-011  0.5052886E+02  0.7816164E-02  0.1300439E+00
        -11   -1    0    0    0    0  0.00000000000E+00  0.00000000000E+00  0.45593999997E+02  0.45594000000E+02  0.51100000000E-03 0.  1.
         11   -1    0    0    0    0 -0.00000000000E+00 -0.00000000000E+00 -0.45593999997E+02  0.45594000000E+02  0.51100000000E-03 0. -1.
    9900012    2    1    2    0    0  0.63806846795E+01 -0.61595695880E+01 -0.39680126883E+02  0.50528857068E+02  0.29999991545E+02 0.  0.
        -12    1    1    2    0    0 -0.63806846795E+01  0.61595695880E+01  0.39680126883E+02  0.40659142932E+02  0.00000000000E+00 0.  1.
         11    1    3    3    0    0 -0.36762608301E+00 -0.60359502688E+01 -0.18477972538E+01  0.63231479135E+01  0.51100000000E-03 0. -1.
        -11    1    3    3    0    0  0.14624833940E+02  0.81789951395E-01 -0.28150716588E+02  0.31723103601E+02  0.51100000000E-03 0.  1.
        -12    1    3    3    0    0 -0.78765231780E+01 -0.20540927058E+00 -0.96816130406E+01  0.12482605554E+02  0.00000000000E+00 0.  1.
</event>
<event>
 7    1  0.4962385E-011  0.5052886E+02  0.7816164E-02  0.1300439E+00
        -11   -1    0    0    0    0  0.00000000000E+00  0.00000000000E+00  0.45593999997E+02  0.45594000000E+02  0.51100000000E-03 0.  1.
         11   -1    0    0    0    0 -0.00000000000E+00 -0.00000000000E+00 -0.45593999997E+02  0.45594000000E+02  0.51100000000E-03 0. -1.
    9900012    2    1    2    0    0  0.12212962502E+02  0.35628722340E+02  0.15316765555E+02  0.50528860612E+02  0.30000002316E+02 0.  0.
        -12    1    1    2    0    0 -0.12212962502E+02 -0.35628722340E+02 -0.15316765555E+02  0.40659139388E+02  0.00000000000E+00 0.  1.
         11    1    3    3    0    0 -0.43291894587E+01  0.23467670538E+02 -0.60156513769E+00  0.23871223737E+02  0.51100000000E-03 0. -1.
        -11    1    3    3    0    0  0.38250999750E+01  0.17830454493E+01  0.64510428993E+01  0.77088647441E+01  0.51100000000E-03 0.  1.
         12    1    3    3    0    0  0.12717051986E+02  0.10378006353E+02  0.94672877939E+01  0.18948772131E+02  0.00000000000E+00 0. -1.
</event>
<event>
 7    1  0.4962385E-011  0.5052886E+02  0.7816164E-02  0.1300439E+00
        -11   -1    0    0    0    0  0.00000000000E+00  0.00000000000E+00  0.45593999997E+02  0.45594000000E+02  0.51100000000E-03 0.  1.
         11   -1    0    0    0    0 -0.00000000000E+00 -0.00000000000E+00 -0.45593999997E+02  0.45594000000E+02  0.51100000000E-03 0. -1.
    9900012    2    1    2    0    0  0.37899785258E+02  0.14215214098E+02  0.38339836083E+01  0.50528862469E+02  0.30000007961E+02 0.  0.
        -12    1    1    2    0    0 -0.37899785258E+02 -0.14215214098E+02 -0.38339836083E+01  0.40659137531E+02  0.00000000000E+00 0.  1.
         11    1    3    3    0    0  0.24519632355E+02  0.13218727401E+02  0.82144975437E+01  0.29041781885E+02  0.51100000000E-03 0. -1.
        -11    1    3    3    0    0  0.46917556696E+01 -0.30858611854E+01 -0.91746788366E+01  0.10756850958E+02  0.51100000000E-03 0.  1.
        -12    1    3    3    0    0  0.86883972336E+01  0.40823478827E+01  0.47941649011E+01  0.10730229626E+02  0.00000000000E+00 0.  1.
</event>
<event>
 7    1  0.4962385E-011  0.5052885E+02  0.7816164E-02  0.1300439E+00
        -11   -1    0    0    0    0  0.00000000000E+00  0.00000000000E+00  0.45593999997E+02  0.45594000000E+02  0.51100000000E-03 0.  1.
         11   -1    0    0    0    0 -0.00000000000E+00 -0.00000000000E+00 -0.45593999997E+02  0.45594000000E+02  0.51100000000E-03 0. -1.
    9900012    2    1    2    0    0  0.21599067451E+01 -0.39046096590E+02  0.11131186160E+02  0.50528853902E+02  0.29999981920E+02 0.  0.
        -12    1    1    2    0    0 -0.21599067451E+01  0.39046096590E+02 -0.11131186160E+02  0.40659146098E+02  0.00000000000E+00 0.  1.
         11    1    3    3    0    0  0.62805171742E+01 -0.32649931250E+01 -0.18487292201E+01  0.73159330281E+01  0.51100000000E-03 0. -1.
        -11    1    3    3    0    0 -0.67624615780E+00 -0.30512170638E+02  0.17758039613E+02  0.35310024597E+02  0.51100000000E-03 0.  1.
        -12    1    3    3    0    0 -0.34443642713E+01 -0.52689328275E+01 -0.47781242327E+01  0.79028962765E+01  0.00000000000E+00 0.  1.
</event>
<event>
 7    1  0.5839164E-011  0.5052886E+02  0.7816164E-02  0.1300439E+00
        -11   -1    0    0    0    0  0.00000000000E+00  0.00000000000E+00  0.45593999997E+02  0.45594000000E+02  0.51100000000E-03 0.  1.
         11   -1    0    0    0    0 -0.00000000000E+00 -0.00000000000E+00 -0.45593999997E+02  0.45594000000E+02  0.51100000000E-03 0. -1.
    9900012    2    1    2    0    0 -0.33313503907E+02  0.10234023854E+02 -0.20943758920E+02  0.50528858045E+02  0.29999994513E+02 0.  0.
        -12    1    1    2    0    0  0.33313503907E+02 -0.10234023854E+02  0.20943758920E+02  0.40659141955E+02  0.00000000000E+00 0.  1.
         11    1    3    3    0    0 -0.27446136088E+02  0.60558371479E+01 -0.16658683233E+02  0.32672240160E+02  0.51100000000E-03 0. -1.
        -11    1    3    3    0    0  0.16066004831E+01  0.65706502239E+00 -0.84345203303E+01  0.86112736003E+01  0.51100000000E-03 0.  1.
        -12    1    3    3    0    0 -0.74739683025E+01  0.35211216835E+01  0.41494446435E+01  0.92453442849E+01  0.00000000000E+00 0.  1.
</event>
<event>
 7    1  0.4962385E-011  0.5052886E+02  0.7816164E-02  0.1300439E+00
        -11   -1    0    0    0    0  0.00000000000E+00  0.00000000000E+00  0.45593999997E+02  0.45594000000E+02  0.51100000000E-03 0. -1.
         11   -1    0    0    0    0 -0.00000000000E+00 -0.00000000000E+00 -0.45593999997E+02  0.45594000000E+02  0.51100000000E-03 0.  1.
    9900012    2    1    2    0    0 -0.21569185532E+02  0.34207033954E+02  0.42207564516E+01  0.50528859312E+02  0.29999998365E+02 0.  0.
        -12    1    1    2    0    0  0.21569185532E+02 -0.34207033954E+02 -0.42207564516E+01  0.40659140688E+02  0.00000000000E+00 0.  1.
         11    1    3    3    0    0 -0.19284985661E+01  0.72714028916E+01  0.39153676143E+01  0.84807140352E+01  0.51100000000E-03 0. -1.
        -11    1    3    3    0    0 -0.93357051281E+01  0.22331185125E+01 -0.95358313419E+01  0.13530494750E+02  0.51100000000E-03 0.  1.
        -12    1    3    3    0    0 -0.10304981837E+02  0.24702512550E+02  0.98412201792E+01  0.28517650527E+02  0.00000000000E+00 0.  1.
</event>
<event>
 7    1  0.4962385E-011  0.5052883E+02  0.7816164E-02  0.1300439E+00
        -11   -1    0    0    0    0  0.00000000000E+00  0.00000000000E+00  0.45593999997E+02  0.45594000000E+02  0.51100000000E-03 0.  1.
         11   -1    0    0    0    0 -0.00000000000E+00 -0.00000000000E+00 -0.45593999997E+02  0.45594000000E+02  0.51100000000E-03 0. -1.
    9900012    2    1    2    0    0  0.30262847956E+02  0.23547114264E+02 -0.13522624352E+02  0.50528832203E+02  0.29999915965E+02 0.  0.
        -12    1    1    2    0    0 -0.30262847956E+02 -0.23547114264E+02  0.13522624352E+02  0.40659167797E+02  0.00000000000E+00 0.  1.
         11    1    3    3    0    0  0.53512960338E+01  0.12768811412E+02 -0.57401598457E+01  0.14987606528E+02  0.51100000000E-03 0. -1.
        -11    1    3    3    0    0  0.25373231472E+02  0.49857290205E+01 -0.11853827450E+02  0.28445941620E+02  0.51100000000E-03 0.  1.
        -12    1    3    3    0    0 -0.46167954963E+00  0.57925738313E+01  0.40713629441E+01  0.70952840550E+01  0.00000000000E+00 0.  1.
</event>
<event>
 7    1  0.4962385E-011  0.5052884E+02  0.7816164E-02  0.1300439E+00
        -11   -1    0    0    0    0  0.00000000000E+00  0.00000000000E+00  0.45593999997E+02  0.45594000000E+02  0.51100000000E-03 0.  1.
         11   -1    0    0    0    0 -0.00000000000E+00 -0.00000000000E+00 -0.45593999997E+02  0.45594000000E+02  0.51100000000E-03 0. -1.
    9900012    2    1    2    0    0 -0.72186853965E+01  0.50993291308E+01 -0.39686954893E+02  0.50528844018E+02  0.29999951878E+02 0.  0.
        -12    1    1    2    0    0  0.72186853965E+01 -0.50993291308E+01  0.39686954893E+02  0.40659155982E+02  0.00000000000E+00 0.  1.
         11    1    3    3    0    0 -0.12264043699E+02  0.13052466459E+02 -0.17906019967E+02  0.25325860298E+02  0.51100000000E-03 0. -1.
        -11    1    3    3    0    0  0.46478248276E+01 -0.16746184329E+00 -0.59080505662E+01  0.75190013200E+01  0.51100000000E-03 0.  1.
         12    1    3    3    0    0  0.39753347528E+00 -0.77856754848E+01 -0.15872884360E+02  0.17683982400E+02  0.00000000000E+00 0. -1.
</event>
<event>
 7    1  0.4962385E-011  0.5052886E+02  0.7816164E-02  0.1300439E+00
        -11   -1    0    0    0    0  0.00000000000E+00  0.00000000000E+00  0.45593999997E+02  0.45594000000E+02  0.51100000000E-03 0.  1.
         11   -1    0    0    0    0 -0.00000000000E+00 -0.00000000000E+00 -0.45593999997E+02  0.45594000000E+02  0.51100000000E-03 0. -1.
    9900012    2    1    2    0    0  0.16986616679E+01  0.17388955127E+02 -0.36713813830E+02  0.50528864031E+02  0.30000012707E+02 0.  0.
        -12    1    1    2    0    0 -0.16986616679E+01 -0.17388955127E+02  0.36713813830E+02  0.40659135969E+02  0.00000000000E+00 0.  1.
         11    1    3    3    0    0 -0.12274066720E+00  0.21699323443E+01 -0.22519830775E+02  0.22624465741E+02  0.51100000000E-03 0. -1.
        -11    1    3    3    0    0 -0.77199858092E+01  0.10946740981E+02 -0.96294741862E+01  0.16497154068E+02  0.51100000000E-03 0.  1.
        -12    1    3    3    0    0  0.95413881443E+01  0.42722818021E+01 -0.45645088678E+01  0.11407244221E+02  0.00000000000E+00 0.  1.
</event>
<event>
 7    1  0.4962385E-011  0.5052887E+02  0.7816164E-02  0.1300439E+00
        -11   -1    0    0    0    0  0.00000000000E+00  0.00000000000E+00  0.45593999997E+02  0.45594000000E+02  0.51100000000E-03 0. -1.
         11   -1    0    0    0    0 -0.00000000000E+00 -0.00000000000E+00 -0.45593999997E+02  0.45594000000E+02  0.51100000000E-03 0.  1.
    9900012    2    1    2    0    0 -0.18301459096E+02 -0.36285946670E+02 -0.12456393225E+01  0.50528868822E+02  0.30000027272E+02 0.  0.
        -12    1    1    2    0    0  0.18301459096E+02  0.36285946670E+02  0.12456393225E+01  0.40659131178E+02  0.00000000000E+00 0.  1.
         11    1    3    3    0    0 -0.66919621697E+01 -0.23754486806E+02  0.12478127612E+02  0.27654324617E+02  0.51100000000E-03 0. -1.
        -11    1    3    3    0    0 -0.45365381075E+01 -0.78472219990E+01 -0.10315568770E+02  0.13732080338E+02  0.51100000000E-03 0.  1.
        -12    1    3    3    0    0 -0.70729588189E+01 -0.46842378656E+01 -0.34081981644E+01  0.91424638673E+01  0.00000000000E+00 0.  1.
</event>
<event>
 7    1  0.5619589E-011  0.5052885E+02  0.7816164E-02  0.1300439E+00
        -11   -1    0    0    0    0  0.00000000000E+00  0.00000000000E+00  0.45593999997E+02  0.45594000000E+02  0.51100000000E-03 0.  1.
         11   -1    0    0    0    0 -0.00000000000E+00 -0.00000000000E+00 -0.45593999997E+02  0.45594000000E+02  0.51100000000E-03 0. -1.
    9900012    2    1    2    0    0 -0.37845036529E+02 -0.14862706584E+02  0.14027594126E+00  0.50528849564E+02  0.29999968734E+02 0.  0.
        -12    1    1    2    0    0  0.37845036529E+02  0.14862706584E+02 -0.14027594126E+00  0.40659150436E+02  0.00000000000E+00 0.  1.
         11    1    3    3    0    0 -0.21142311690E+02 -0.11738098033E+02 -0.69129938866E+01  0.25150939819E+02  0.51100000000E-03 0. -1.
        -11    1    3    3    0    0 -0.11465389298E+02 -0.72594380431E+01  0.11136469703E+02  0.17554929512E+02  0.51100000000E-03 0.  1.
        -12    1    3    3    0    0 -0.52373355406E+01  0.41348294926E+01 -0.40831998755E+01  0.78229802327E+01  0.00000000000E+00 0.  1.
</event>
<event>
 7    1  0.4962385E-011  0.5052886E+02  0.7816164E-02  0.1300439E+00
        -11   -1    0    0    0    0  0.00000000000E+00  0.00000000000E+00  0.45593999997E+02  0.45594000000E+02  0.51100000000E-03 0.  1.
         11   -1    0    0    0    0 -0.00000000000E+00 -0.00000000000E+00 -0.45593999997E+02  0.45594000000E+02  0.51100000000E-03 0. -1.
    9900012    2    1    2    0    0 -0.12375124162E+02 -0.15406075400E+02 -0.35534138445E+02  0.50528857704E+02  0.29999993476E+02 0.  0.
        -12    1    1    2    0    0  0.12375124162E+02  0.15406075400E+02  0.35534138445E+02  0.40659142296E+02  0.00000000000E+00 0.  1.
         11    1    3    3    0    0 -0.13411434278E+01 -0.62953488103E+01  0.35681616556E+01  0.73594741795E+01  0.51100000000E-03 0. -1.
        -11    1    3    3    0    0  0.19660351697E+01 -0.23716027884E+01 -0.11715476389E+02  0.12113718725E+02  0.51100000000E-03 0.  1.
         12    1    3    3    0    0 -0.13000015904E+02 -0.67391238016E+01 -0.27386823711E+02  0.31055664799E+02  0.00000000000E+00 0. -1.
</event>
<event>
 7    1  0.4962385E-011  0.5052887E+02  0.7816164E-02  0.1300439E+00
        -11   -1    0    0    0    0  0.00000000000E+00  0.00000000000E+00  0.45593999997E+02  0.45594000000E+02  0.51100000000E-03 0.  1.
         11   -1    0    0    0    0 -0.00000000000E+00 -0.00000000000E+00 -0.45593999997E+02  0.45594000000E+02  0.51100000000E-03 0. -1.
    9900012    2    1    2    0    0 -0.30230139765E+02 -0.27112163665E+02  0.20577265957E+01  0.50528868092E+02  0.30000025051E+02 0.  0.
        -12    1    1    2    0    0  0.30230139765E+02  0.27112163665E+02 -0.20577265957E+01  0.40659131908E+02  0.00000000000E+00 0.  1.
         11    1    3    3    0    0 -0.16398026507E+02 -0.17564404735E+01 -0.31977113460E+01  0.16798979570E+02  0.51100000000E-03 0. -1.
        -11    1    3    3    0    0 -0.14636733989E+02 -0.20965867186E+02  0.97785958451E+01  0.27375582289E+02  0.51100000000E-03 0.  1.
        -12    1    3    3    0    0  0.80462073179E+00 -0.43898560059E+01 -0.45231579034E+01  0.63543062323E+01  0.00000000000E+00 0.  1.
</event>
<event>
 7    1  0.4962385E-011  0.5052884E+02  0.7816164E-02  0.1300439E+00
        -11   -1    0    0    0    0  0.00000000000E+00  0.00000000000E+00  0.45593999997E+02  0.45594000000E+02  0.51100000000E-03 0.  1.
         11   -1    0    0    0    0 -0.00000000000E+00 -0.00000000000E+00 -0.45593999997E+02  0.45594000000E+02  0.51100000000E-03 0. -1.
    9900012    2    1    2    0    0 -0.56866704303E+00  0.23566220906E+02 -0.33128190997E+02  0.50528841268E+02  0.29999943520E+02 0.  0.
        -12    1    1    2    0    0  0.56866704303E+00 -0.23566220906E+02  0.33128190997E+02  0.40659158732E+02  0.00000000000E+00 0.  1.
         11    1    3    3    0    0  0.76610027022E+01 -0.19263906445E+01 -0.10100058052E+02  0.12822367809E+02  0.51100000000E-03 0. -1.
        -11    1    3    3    0    0 -0.43629679507E+01  0.21786083862E+02 -0.11552931932E+02  0.25042746971E+02  0.51100000000E-03 0.  1.
         12    1    3    3    0    0 -0.38667017945E+01  0.37065276891E+01 -0.11475201013E+02  0.12663726488E+02  0.00000000000E+00 0. -1.
</event>
<event>
 7    1  0.4962385E-011  0.5052886E+02  0.7816164E-02  0.1300439E+00
        -11   -1    0    0    0    0  0.00000000000E+00  0.00000000000E+00  0.45593999997E+02  0.45594000000E+02  0.51100000000E-03 0.  1.
         11   -1    0    0    0    0 -0.00000000000E+00 -0.00000000000E+00 -0.45593999997E+02  0.45594000000E+02  0.51100000000E-03 0. -1.
    9900012    2    1    2    0    0 -0.23762605656E+02 -0.10021490238E+02 -0.31433650078E+02  0.50528855255E+02  0.29999986034E+02 0.  0.
        -12    1    1    2    0    0  0.23762605656E+02  0.10021490238E+02  0.31433650078E+02  0.40659144745E+02  0.00000000000E+00 0.  1.
         11    1    3    3    0    0 -0.11094418616E+02 -0.78557506869E+01 -0.22368369029E+02  0.26175234031E+02  0.51100000000E-03 0. -1.
        -11    1    3    3    0    0 -0.42659217254E+01 -0.72721420885E+01  0.28552276199E+01  0.89013742616E+01  0.51100000000E-03 0.  1.
        -12    1    3    3    0    0 -0.84022653143E+01  0.51064025372E+01 -0.11920508668E+02  0.15452246963E+02  0.00000000000E+00 0.  1.
</event>
<event>
 7    1  0.4962385E-011  0.5052886E+02  0.7816164E-02  0.1300439E+00
        -11   -1    0    0    0    0  0.00000000000E+00  0.00000000000E+00  0.45593999997E+02  0.45594000000E+02  0.51100000000E-03 0.  1.
         11   -1    0    0    0    0 -0.00000000000E+00 -0.00000000000E+00 -0.45593999997E+02  0.45594000000E+02  0.51100000000E-03 0. -1.
    9900012    2    1    2    0    0  0.49016242579E+01  0.11122819422E+02 -0.38799779484E+02  0.50528856868E+02  0.29999990936E+02 0.  0.
        -12    1    1    2    0    0 -0.49016242579E+01 -0.11122819422E+02  0.38799779484E+02  0.40659143132E+02  0.00000000000E+00 0.  1.
         11    1    3    3    0    0 -0.13010383634E+01  0.15106321441E+01 -0.37789737324E+02  0.37842290597E+02  0.51100000000E-03 0. -1.
        -11    1    3    3    0    0  0.51662980565E+01  0.99036890165E+01  0.57594316556E-01  0.11170362980E+02  0.51100000000E-03 0.  1.
        -12    1    3    3    0    0  0.10363645649E+01 -0.29150173890E+00 -0.10676364758E+01  0.15162032910E+01  0.00000000000E+00 0.  1.
</event>
<event>
 7    1  0.4962385E-011  0.5052886E+02  0.7816164E-02  0.1300439E+00
        -11   -1    0    0    0    0  0.00000000000E+00  0.00000000000E+00  0.45593999997E+02  0.45594000000E+02  0.51100000000E-03 0.  1.
         11   -1    0    0    0    0 -0.00000000000E+00 -0.00000000000E+00 -0.45593999997E+02  0.45594000000E+02  0.51100000000E-03 0. -1.
    9900012    2    1    2    0    0 -0.54946288032E+01  0.24983555089E+02 -0.31603742110E+02  0.50528862209E+02  0.30000007171E+02 0.  0.
        -12    1    1    2    0    0  0.54946288032E+01 -0.24983555089E+02  0.31603742110E+02  0.40659137791E+02  0.00000000000E+00 0.  1.
         11    1    3    3    0    0  0.15052165099E+01  0.14592445522E+02 -0.20320804198E+02  0.25062725841E+02  0.51100000000E-03 0. -1.
        -11    1    3    3    0    0 -0.41191275776E+01  0.95775920805E+00  0.49258378060E+01  0.64921793763E+01  0.51100000000E-03 0.  1.
        -12    1    3    3    0    0 -0.28807177355E+01  0.94333503586E+01 -0.16208775718E+02  0.18973956992E+02  0.00000000000E+00 0.  1.
</event>
<event>
 7    1  0.4962385E-011  0.5052888E+02  0.7816164E-02  0.1300439E+00
        -11   -1    0    0    0    0  0.00000000000E+00  0.00000000000E+00  0.45593999997E+02  0.45594000000E+02  0.51100000000E-03 0.  1.
         11   -1    0    0    0    0 -0.00000000000E+00 -0.00000000000E+00 -0.45593999997E+02  0.45594000000E+02  0.51100000000E-03 0. -1.
    9900012    2    1    2    0    0 -0.11411710486E+02  0.36618435984E+02 -0.13491740035E+02  0.50528879999E+02  0.30000061244E+02 0.  0.
        -12    1    1    2    0    0  0.11411710486E+02 -0.36618435984E+02  0.13491740035E+02  0.40659120001E+02  0.00000000000E+00 0.  1.
         11    1    3    3    0    0  0.47535860787E+01  0.14419339242E+02 -0.14416117373E+02  0.20936531832E+02  0.51100000000E-03 0. -1.
        -11    1    3    3    0    0 -0.12509604344E+02  0.14333916948E+02 -0.42485379477E+01  0.19493625904E+02  0.51100000000E-03 0.  1.
         12    1    3    3    0    0 -0.36556922208E+01  0.78651797931E+01  0.51729152854E+01  0.10098722263E+02  0.00000000000E+00 0. -1.
</event>
<event>
 7    1  0.4962385E-011  0.5052887E+02  0.7816164E-02  0.1300439E+00
        -11   -1    0    0    0    0  0.00000000000E+00  0.00000000000E+00  0.45593999997E+02  0.45594000000E+02  0.51100000000E-03 0. -1.
         11   -1    0    0    0    0 -0.00000000000E+00 -0.00000000000E+00 -0.45593999997E+02  0.45594000000E+02  0.51100000000E-03 0.  1.
    9900012    2    1    2    0    0  0.32164267029E+02  0.11640258634E+02  0.21980204487E+02  0.50528867153E+02  0.30000022199E+02 0.  0.
        -12    1    1    2    0    0 -0.32164267029E+02 -0.11640258634E+02 -0.21980204487E+02  0.40659132847E+02  0.00000000000E+00 0.  1.
         11    1    3    3    0    0  0.15991670688E+02  0.16619530553E+02  0.94305304652E+01  0.24917408218E+02  0.51100000000E-03 0. -1.
        -11    1    3    3    0    0  0.66444236501E+01 -0.27623800804E+01  0.13981508389E+02  0.15724556796E+02  0.51100000000E-03 0.  1.
         12    1    3    3    0    0  0.95281726905E+01 -0.22168918392E+01 -0.14318343670E+01  0.98869021388E+01  0.00000000000E+00 0. -1.
</event>
<event>
 7    1  0.4962385E-011  0.5052886E+02  0.7816164E-02  0.1300439E+00
        -11   -1    0    0    0    0  0.00000000000E+00  0.00000000000E+00  0.45593999997E+02  0.45594000000E+02  0.51100000000E-03 0. -1.
         11   -1    0    0    0    0 -0.00000000000E+00 -0.00000000000E+00 -0.45593999997E+02  0.45594000000E+02  0.51100000000E-03 0.  1.
    9900012    2    1    2    0    0  0.14973038462E+02 -0.27774094750E+01  0.37699598348E+02  0.50528860808E+02  0.30000002912E+02 0.  0.
        -12    1    1    2    0    0 -0.14973038462E+02  0.27774094750E+01 -0.37699598348E+02  0.40659139192E+02  0.00000000000E+00 0.  1.
         11    1    3    3    0    0 -0.27572034364E+01 -0.89478945376E+01  0.18144897918E+02  0.20418234697E+02  0.51100000000E-03 0.  1.
        -11    1    3    3    0    0  0.13769038016E+02  0.83587937920E+00  0.60559468447E+01  0.15065178215E+02  0.51100000000E-03 0. -1.
        -12    1    3    3    0    0  0.39612038832E+01  0.53346056834E+01  0.13498753586E+02  0.15045447896E+02  0.00000000000E+00 0.  1.
</event>
<event>
 7    1  0.4962385E-011  0.5052887E+02  0.7816164E-02  0.1300439E+00
        -11   -1    0    0    0    0  0.00000000000E+00  0.00000000000E+00  0.45593999997E+02  0.45594000000E+02  0.51100000000E-03 0.  1.
         11   -1    0    0    0    0 -0.00000000000E+00 -0.00000000000E+00 -0.45593999997E+02  0.45594000000E+02  0.51100000000E-03 0. -1.
    9900012    2    1    2    0    0 -0.16598031765E+02  0.14730087995E+02 -0.34068965612E+02  0.50528873489E+02  0.30000041457E+02 0.  0.
        -12    1    1    2    0    0  0.16598031765E+02 -0.14730087995E+02  0.34068965612E+02  0.40659126511E+02  0.00000000000E+00 0.  1.
         11    1    3    3    0    0 -0.19174901447E+02  0.37186422184E+01 -0.33529067312E+02  0.38803395476E+02  0.51100000000E-03 0. -1.
        -11    1    3    3    0    0  0.18742872375E+00  0.68933862117E+01  0.24425855717E+00  0.69002583643E+01  0.51100000000E-03 0.  1.
         12    1    3    3    0    0  0.23894409589E+01  0.41180595649E+01 -0.78415685718E+00  0.48252196481E+01  0.00000000000E+00 0. -1.
</event>
<event>
 7    1  0.4962385E-011  0.5052890E+02  0.7816164E-02  0.1300439E+00
        -11   -1    0    0    0    0  0.00000000000E+00  0.00000000000E+00  0.45593999997E+02  0.45594000000E+02  0.51100000000E-03 0. -1.
         11   -1    0    0    0    0 -0.00000000000E+00 -0.00000000000E+00 -0.45593999997E+02  0.45594000000E+02  0.51100000000E-03 0.  1.
    9900012    2    1    2    0    0 -0.18877755731E+02 -0.36009784807E+02  0.29706170502E+00  0.50528898818E+02  0.30000118447E+02 0.  0.
        -12    1    1    2    0    0  0.18877755731E+02  0.36009784807E+02 -0.29706170502E+00  0.40659101182E+02  0.00000000000E+00 0.  1.
         11    1    3    3    0    0 -0.18985255220E+01 -0.12062427822E+02  0.79312103584E+01  0.14560585913E+02  0.51100000000E-03 0. -1.
        -11    1    3    3    0    0 -0.15545631600E+02 -0.62505545884E+01 -0.71223817190E+01  0.18206164234E+02  0.51100000000E-03 0.  1.
        -12    1    3    3    0    0 -0.14335986092E+01 -0.17696802396E+02 -0.51176693430E+00  0.17762148671E+02  0.00000000000E+00 0.  1.
</event>
<event>
 7    1  0.4962385E-011  0.5052887E+02  0.7816164E-02  0.1300439E+00
        -11   -1    0    0    0    0  0.00000000000E+00  0.00000000000E+00  0.45593999997E+02  0.45594000000E+02  0.51100000000E-03 0. -1.
         11   -1    0    0    0    0 -0.00000000000E+00 -0.00000000000E+00 -0.45593999997E+02  0.45594000000E+02  0.51100000000E-03 0.  1.
    9900012    2    1    2    0    0 -0.38526270518E+02 -0.57712340205E+01 -0.11644071072E+02  0.50528867529E+02  0.30000023342E+02 0.  0.
        -12    1    1    2    0    0  0.38526270518E+02  0.57712340205E+01  0.11644071072E+02  0.40659132471E+02  0.00000000000E+00 0.  1.
         11    1    3    3    0    0 -0.18010071772E+02 -0.12087480468E+02 -0.72565632900E+01  0.22871982431E+02  0.51100000000E-03 0. -1.
        -11    1    3    3    0    0 -0.76548132728E+01  0.95837127217E+01 -0.70141525668E+01  0.14129474593E+02  0.51100000000E-03 0.  1.
        -12    1    3    3    0    0 -0.12861385474E+02 -0.32674662742E+01  0.26266447853E+01  0.13527410505E+02  0.00000000000E+00 0.  1.
</event>
<event>
 7    1  0.4962385E-011  0.5052887E+02  0.7816164E-02  0.1300439E+00
        -11   -1    0    0    0    0  0.00000000000E+00  0.00000000000E+00  0.45593999997E+02  0.45594000000E+02  0.51100000000E-03 0.  1.
         11   -1    0    0    0    0 -0.00000000000E+00 -0.00000000000E+00 -0.45593999997E+02  0.45594000000E+02  0.51100000000E-03 0. -1.
    9900012    2    1    2    0    0 -0.54608375128E+01  0.32403484823E+02 -0.23944904924E+02  0.50528867609E+02  0.30000023584E+02 0.  0.
        -12    1    1    2    0    0  0.54608375128E+01 -0.32403484823E+02  0.23944904924E+02  0.40659132391E+02  0.00000000000E+00 0.  1.
         11    1    3    3    0    0  0.49685928449E+00 -0.30832226917E+01  0.21861321695E+01  0.38121261048E+01  0.51100000000E-03 0.  1.
        -11    1    3    3    0    0 -0.84050109062E+01  0.19754333406E+02 -0.20890658171E+02  0.29954924399E+02  0.51100000000E-03 0. -1.
         12    1    3    3    0    0  0.24473141089E+01  0.15732374108E+02 -0.52403789219E+01  0.16761817105E+02  0.00000000000E+00 0. -1.
</event>
<event>
 7    1  0.4962385E-011  0.5052887E+02  0.7816164E-02  0.1300439E+00
        -11   -1    0    0    0    0  0.00000000000E+00  0.00000000000E+00  0.45593999997E+02  0.45594000000E+02  0.51100000000E-03 0. -1.
         11   -1    0    0    0    0 -0.00000000000E+00 -0.00000000000E+00 -0.45593999997E+02  0.45594000000E+02  0.51100000000E-03 0.  1.
    9900012    2    1    2    0    0 -0.39071307050E+02 -0.22721400302E+01  0.11019776358E+02  0.50528866636E+02  0.30000020626E+02 0.  0.
        -12    1    1    2    0    0  0.39071307050E+02  0.22721400302E+01 -0.11019776358E+02  0.40659133364E+02  0.00000000000E+00 0.  1.
         11    1    3    3    0    0 -0.20691671402E+02 -0.88807721893E+01  0.33520439325E+01  0.22765095626E+02  0.51100000000E-03 0. -1.
        -11    1    3    3    0    0  0.26809766738E+01  0.17763286744E+01  0.50649081693E+01  0.59996895344E+01  0.51100000000E-03 0.  1.
        -12    1    3    3    0    0 -0.21060612323E+02  0.48323034847E+01  0.26028242566E+01  0.21764081476E+02  0.00000000000E+00 0.  1.
</event>
<event>
 7    1  0.4962385E-011  0.5052886E+02  0.7816164E-02  0.1300439E+00
        -11   -1    0    0    0    0  0.00000000000E+00  0.00000000000E+00  0.45593999997E+02  0.45594000000E+02  0.51100000000E-03 0. -1.
         11   -1    0    0    0    0 -0.00000000000E+00 -0.00000000000E+00 -0.45593999997E+02  0.45594000000E+02  0.51100000000E-03 0.  1.
    9900012    2    1    2    0    0 -0.25820864827E+02 -0.21066654872E+02  0.23294741797E+02  0.50528855846E+02  0.29999987831E+02 0.  0.
        -12    1    1    2    0    0  0.25820864827E+02  0.21066654872E+02 -0.23294741797E+02  0.40659144154E+02  0.00000000000E+00 0.  1.
         11    1    3    3    0    0 -0.72250314999E+01  0.17795941444E+01 -0.39066403570E+01  0.84041581751E+01  0.51100000000E-03 0.  1.
        -11    1    3    3    0    0 -0.16775915130E+02 -0.17481712067E+02  0.14547745626E+02  0.28260900344E+02  0.51100000000E-03 0. -1.
         12    1    3    3    0    0 -0.18199181971E+01 -0.53645369502E+01  0.12653636528E+02  0.13863797327E+02  0.00000000000E+00 0. -1.
</event>
<event>
 7    1  0.4962385E-011  0.5052886E+02  0.7816164E-02  0.1300439E+00
        -11   -1    0    0    0    0  0.00000000000E+00  0.00000000000E+00  0.45593999997E+02  0.45594000000E+02  0.51100000000E-03 0.  1.
         11   -1    0    0    0    0 -0.00000000000E+00 -0.00000000000E+00 -0.45593999997E+02  0.45594000000E+02  0.51100000000E-03 0. -1.
    9900012    2    1    2    0    0  0.13994465287E+02  0.17614160419E+01 -0.38134208894E+02  0.50528861628E+02  0.30000005405E+02 0.  0.
        -12    1    1    2    0    0 -0.13994465287E+02 -0.17614160419E+01  0.38134208894E+02  0.40659138372E+02  0.00000000000E+00 0.  1.
         11    1    3    3    0    0  0.71324348768E+01 -0.20866329329E+00 -0.17157211924E+02  0.18581848372E+02  0.51100000000E-03 0. -1.
        -11    1    3    3    0    0 -0.42952458430E+01 -0.21188476290E+01  0.26691626030E+01  0.54829810678E+01  0.51100000000E-03 0.  1.
        -12    1    3    3    0    0  0.11157276254E+02  0.40889269642E+01 -0.23646159573E+02  0.26464032189E+02  0.00000000000E+00 0.  1.
</event>
<event>
 7    1  0.4962385E-011  0.5052885E+02  0.7816164E-02  0.1300439E+00
        -11   -1    0    0    0    0  0.00000000000E+00  0.00000000000E+00  0.45593999997E+02  0.45594000000E+02  0.51100000000E-03 0.  1.
         11   -1    0    0    0    0 -0.00000000000E+00 -0.00000000000E+00 -0.45593999997E+02  0.45594000000E+02  0.51100000000E-03 0. -1.
    9900012    2    1    2    0    0 -0.18904112959E+02  0.11464950894E+02 -0.34122654404E+02  0.50528854296E+02  0.29999983119E+02 0.  0.
        -12    1    1    2    0    0  0.18904112959E+02 -0.11464950894E+02  0.34122654404E+02  0.40659145704E+02  0.00000000000E+00 0.  1.
         11    1    3    3    0    0 -0.14611392696E+02  0.21615465391E+02 -0.23345824275E+02  0.35010693394E+02  0.51100000000E-03 0. -1.
        -11    1    3    3    0    0 -0.15846250417E+01 -0.31619301149E+01 -0.46218151231E+01  0.58197950022E+01  0.51100000000E-03 0.  1.
         12    1    3    3    0    0 -0.27080952213E+01 -0.69885843827E+01 -0.61550150062E+01  0.96983658999E+01  0.00000000000E+00 0. -1.
</event>
<event>
 7    1  0.4962385E-011  0.5052886E+02  0.7816164E-02  0.1300439E+00
        -11   -1    0    0    0    0  0.00000000000E+00  0.00000000000E+00  0.45593999997E+02  0.45594000000E+02  0.51100000000E-03 0.  1.
         11   -1    0    0    0    0 -0.00000000000E+00 -0.00000000000E+00 -0.45593999997E+02  0.45594000000E+02  0.51100000000E-03 0. -1.
    9900012    2    1    2    0    0 -0.37432636663E+02  0.14992027286E+02 -0.52155774944E+01  0.50528863041E+02  0.30000009699E+02 0.  0.
        -12    1    1    2    0    0  0.37432636663E+02 -0.14992027286E+02  0.52155774944E+01  0.40659136959E+02  0.00000000000E+00 0.  1.
         11    1    3    3    0    0 -0.28840136858E+02  0.69427588645E+00  0.42825037204E+01  0.29164625000E+02  0.51100000000E-03 0. -1.
        -11    1    3    3    0    0  0.15499126043E+01  0.12760164946E+01 -0.30338998577E+01  0.36379933732E+01  0.51100000000E-03 0.  1.
         12    1    3    3    0    0 -0.10142412408E+02  0.13021734905E+02 -0.64641813570E+01  0.17726244668E+02  0.00000000000E+00 0. -1.
</event>
<event>
 7    1  0.4962385E-011  0.5052882E+02  0.7816164E-02  0.1300439E+00
        -11   -1    0    0    0    0  0.00000000000E+00  0.00000000000E+00  0.45593999997E+02  0.45594000000E+02  0.51100000000E-03 0.  1.
         11   -1    0    0    0    0 -0.00000000000E+00 -0.00000000000E+00 -0.45593999997E+02  0.45594000000E+02  0.51100000000E-03 0. -1.
    9900012    2    1    2    0    0 -0.64600859803E+01 -0.21303551490E+02 -0.34023450354E+02  0.50528816646E+02  0.29999868678E+02 0.  0.
        -12    1    1    2    0    0  0.64600859803E+01  0.21303551490E+02  0.34023450354E+02  0.40659183354E+02  0.00000000000E+00 0.  1.
         11    1    3    3    0    0  0.14715208458E+01 -0.94471136053E+01 -0.94020260445E+01  0.13409378176E+02  0.51100000000E-03 0. -1.
        -11    1    3    3    0    0 -0.86616590351E+01 -0.14285488613E+01 -0.25164652797E+02  0.26651920001E+02  0.51100000000E-03 0.  1.
        -12    1    3    3    0    0  0.73005220900E+00 -0.10427889024E+02  0.54322848690E+00  0.10467518469E+02  0.00000000000E+00 0.  1.
</event>
<event>
 7    1  0.4962385E-011  0.5052886E+02  0.7816164E-02  0.1300439E+00
        -11   -1    0    0    0    0  0.00000000000E+00  0.00000000000E+00  0.45593999997E+02  0.45594000000E+02  0.51100000000E-03 0.  1.
         11   -1    0    0    0    0 -0.00000000000E+00 -0.00000000000E+00 -0.45593999997E+02  0.45594000000E+02  0.51100000000E-03 0. -1.
    9900012    2    1    2    0    0  0.30281940054E+02 -0.52665097207E+01 -0.26616420423E+02  0.50528857680E+02  0.29999993404E+02 0.  0.
        -12    1    1    2    0    0 -0.30281940054E+02  0.52665097207E+01  0.26616420423E+02  0.40659142320E+02  0.00000000000E+00 0.  1.
         11    1    3    3    0    0  0.27163343495E+02 -0.57259862036E+01 -0.45493057021E+01  0.28130594208E+02  0.51100000000E-03 0.  1.
        -11    1    3    3    0    0  0.32019035319E+01  0.29021637655E+00 -0.21931566758E+02  0.22165965634E+02  0.51100000000E-03 0. -1.
        -12    1    3    3    0    0 -0.83306973319E-01  0.16926010636E+00 -0.13554796272E+00  0.23229783814E+00  0.00000000000E+00 0.  1.
</event>
<event>
 7    1  0.4962385E-011  0.5052885E+02  0.7816164E-02  0.1300439E+00
        -11   -1    0    0    0    0  0.00000000000E+00  0.00000000000E+00  0.45593999997E+02  0.45594000000E+02  0.51100000000E-03 0.  1.
         11   -1    0    0    0    0 -0.00000000000E+00 -0.00000000000E+00 -0.45593999997E+02  0.45594000000E+02  0.51100000000E-03 0. -1.
    9900012    2    1    2    0    0  0.28059887346E+01  0.36174835625E+02 -0.18348681627E+02  0.50528850688E+02  0.29999972152E+02 0.  0.
        -12    1    1    2    0    0 -0.28059887346E+01 -0.36174835625E+02  0.18348681627E+02  0.40659149312E+02  0.00000000000E+00 0.  1.
         11    1    3    3    0    0  0.13266597987E+02  0.21848230877E+02 -0.74533140177E+01  0.26625170511E+02  0.51100000000E-03 0. -1.
        -11    1    3    3    0    0 -0.90075342149E+01  0.16007857180E+02 -0.11408948927E+02  0.21622934121E+02  0.51100000000E-03 0.  1.
        -12    1    3    3    0    0 -0.14530750375E+01 -0.16812524319E+01  0.51358131748E+00  0.22807460565E+01  0.00000000000E+00 0.  1.
</event>
<event>
 7    1  0.4962385E-011  0.5052886E+02  0.7816164E-02  0.1300439E+00
        -11   -1    0    0    0    0  0.00000000000E+00  0.00000000000E+00  0.45593999997E+02  0.45594000000E+02  0.51100000000E-03 0.  1.
         11   -1    0    0    0    0 -0.00000000000E+00 -0.00000000000E+00 -0.45593999997E+02  0.45594000000E+02  0.51100000000E-03 0. -1.
    9900012    2    1    2    0    0 -0.38355719627E+02  0.48182784655E+01 -0.12601134424E+02  0.50528860508E+02  0.30000002000E+02 0.  0.
        -12    1    1    2    0    0  0.38355719627E+02 -0.48182784655E+01  0.12601134424E+02  0.40659139492E+02  0.00000000000E+00 0.  1.
         11    1    3    3    0    0 -0.20881951064E+02 -0.71726006322E+01 -0.59569935855E+01  0.22868927673E+02  0.51100000000E-03 0. -1.
        -11    1    3    3    0    0 -0.35560037400E+01  0.87637655745E+01 -0.91446801304E+01  0.13155756329E+02  0.51100000000E-03 0.  1.
         12    1    3    3    0    0 -0.13917764823E+02  0.32271135231E+01  0.25005392924E+01  0.14504176506E+02  0.00000000000E+00 0. -1.
</event>
<event>
 7    1  0.4962385E-011  0.5052884E+02  0.7816164E-02  0.1300439E+00
        -11   -1    0    0    0    0  0.00000000000E+00  0.00000000000E+00  0.45593999997E+02  0.45594000000E+02  0.51100000000E-03 0.  1.
         11   -1    0    0    0    0 -0.00000000000E+00 -0.00000000000E+00 -0.45593999997E+02  0.45594000000E+02  0.51100000000E-03 0. -1.
    9900012    2    1    2    0    0 -0.59916459804E+01 -0.49206963981E+01 -0.39913085646E+02  0.50528837682E+02  0.29999932620E+02 0.  0.
        -12    1    1    2    0    0  0.59916459804E+01  0.49206963981E+01  0.39913085646E+02  0.40659162318E+02  0.00000000000E+00 0.  1.
         11    1    3    3    0    0 -0.86011290714E+01 -0.28062319457E-01 -0.89199823828E+01  0.12391379857E+02  0.51100000000E-03 0. -1.
        -11    1    3    3    0    0  0.79280262855E+01  0.28079818683E+01 -0.35261414787E+01  0.91198704457E+01  0.51100000000E-03 0.  1.
        -12    1    3    3    0    0 -0.53185431946E+01 -0.77006159470E+01 -0.27466961784E+02  0.29017587380E+02  0.00000000000E+00 0.  1.
</event>
<event>
 7    1  0.4962385E-011  0.5052886E+02  0.7816164E-02  0.1300439E+00
        -11   -1    0    0    0    0  0.00000000000E+00  0.00000000000E+00  0.45593999997E+02  0.45594000000E+02  0.51100000000E-03 0.  1.
         11   -1    0    0    0    0 -0.00000000000E+00 -0.00000000000E+00 -0.45593999997E+02  0.45594000000E+02  0.51100000000E-03 0. -1.
    9900012    2    1    2    0    0  0.14857366428E+02  0.32157651932E+02 -0.19957697742E+02  0.50528860632E+02  0.30000002377E+02 0.  0.
        -12    1    1    2    0    0 -0.14857366428E+02 -0.32157651932E+02  0.19957697742E+02  0.40659139368E+02  0.00000000000E+00 0.  1.
         11    1    3    3    0    0 -0.42162138815E+01  0.59624053968E+01 -0.11448055261E+02  0.13578833055E+02  0.51100000000E-03 0. -1.
        -11    1    3    3    0    0  0.14412558391E+02  0.72403013913E+01 -0.62600613833E+01  0.17301218813E+02  0.51100000000E-03 0.  1.
        -12    1    3    3    0    0  0.46610219186E+01  0.18954945144E+02 -0.22495810976E+01  0.19648808764E+02  0.00000000000E+00 0.  1.
</event>
<event>
 7    1  0.4962385E-011  0.5052886E+02  0.7816164E-02  0.1300439E+00
        -11   -1    0    0    0    0  0.00000000000E+00  0.00000000000E+00  0.45593999997E+02  0.45594000000E+02  0.51100000000E-03 0. -1.
         11   -1    0    0    0    0 -0.00000000000E+00 -0.00000000000E+00 -0.45593999997E+02  0.45594000000E+02  0.51100000000E-03 0.  1.
    9900012    2    1    2    0    0 -0.22372380952E+02 -0.23420642605E+02 -0.24578767930E+02  0.50528858808E+02  0.29999996832E+02 0.  0.
        -12    1    1    2    0    0  0.22372380952E+02  0.23420642605E+02  0.24578767930E+02  0.40659141192E+02  0.00000000000E+00 0.  1.
         11    1    3    3    0    0 -0.48792543085E+01  0.32586399986E+01 -0.27585199790E+01  0.64834628081E+01  0.51100000000E-03 0. -1.
        -11    1    3    3    0    0 -0.23910314750E+01 -0.17751197999E+02 -0.27303403228E+01  0.18118411091E+02  0.51100000000E-03 0.  1.
        -12    1    3    3    0    0 -0.15102095169E+02 -0.89280846041E+01 -0.19089907629E+02  0.25926984909E+02  0.00000000000E+00 0.  1.
</event>
<event>
 7    1  0.4962385E-011  0.5052886E+02  0.7816164E-02  0.1300439E+00
        -11   -1    0    0    0    0  0.00000000000E+00  0.00000000000E+00  0.45593999997E+02  0.45594000000E+02  0.51100000000E-03 0.  1.
         11   -1    0    0    0    0 -0.00000000000E+00 -0.00000000000E+00 -0.45593999997E+02  0.45594000000E+02  0.51100000000E-03 0. -1.
    9900012    2    1    2    0    0  0.71302623401E+01 -0.12008431938E+02 -0.38185375610E+02  0.50528856021E+02  0.29999988360E+02 0.  0.
        -12    1    1    2    0    0 -0.71302623401E+01  0.12008431938E+02  0.38185375610E+02  0.40659143979E+02  0.00000000000E+00 0.  1.
         11    1    3    3    0    0  0.13801314312E+01  0.28216040641E+01  0.14458485456E+00  0.31443786832E+01  0.51100000000E-03 0. -1.
        -11    1    3    3    0    0 -0.50774935914E+01 -0.15509064348E+02 -0.17694074247E+02  0.24070568789E+02  0.51100000000E-03 0.  1.
        -12    1    3    3    0    0  0.10827624500E+02  0.67902834545E+00 -0.20635886218E+02  0.23313908548E+02  0.00000000000E+00 0.  1.
</event>
<event>
 7    1  0.4962385E-011  0.5052886E+02  0.7816164E-02  0.1300439E+00
        -11   -1    0    0    0    0  0.00000000000E+00  0.00000000000E+00  0.45593999997E+02  0.45594000000E+02  0.51100000000E-03 0.  1.
         11   -1    0    0    0    0 -0.00000000000E+00 -0.00000000000E+00 -0.45593999997E+02  0.45594000000E+02  0.51100000000E-03 0. -1.
    9900012    2    1    2    0    0  0.18188764310E+02 -0.11736201726E+02 -0.34417963656E+02  0.50528858343E+02  0.29999995420E+02 0.  0.
        -12    1    1    2    0    0 -0.18188764310E+02  0.11736201726E+02  0.34417963656E+02  0.40659141657E+02  0.00000000000E+00 0.  1.
         11    1    3    3    0    0  0.10122782612E+02 -0.14604886620E+02 -0.26928182174E+02  0.32262988647E+02  0.51100000000E-03 0. -1.
        -11    1    3    3    0    0 -0.24530324922E+01  0.53121083545E+01 -0.29273220271E+01  0.65425589863E+01  0.51100000000E-03 0.  1.
        -12    1    3    3    0    0  0.10519014189E+02 -0.24434234605E+01 -0.45624594550E+01  0.11723310710E+02  0.00000000000E+00 0.  1.
</event>
<event>
 7    1  0.4962385E-011  0.5052885E+02  0.7816164E-02  0.1300439E+00
        -11   -1    0    0    0    0  0.00000000000E+00  0.00000000000E+00  0.45593999997E+02  0.45594000000E+02  0.51100000000E-03 0.  1.
         11   -1    0    0    0    0 -0.00000000000E+00 -0.00000000000E+00 -0.45593999997E+02  0.45594000000E+02  0.51100000000E-03 0. -1.
    9900012    2    1    2    0    0 -0.32848469110E+02  0.10027343659E+02 -0.21762287797E+02  0.50528847108E+02  0.29999961270E+02 0.  0.
        -12    1    1    2    0    0  0.32848469110E+02 -0.10027343659E+02  0.21762287797E+02  0.40659152892E+02  0.00000000000E+00 0.  1.
         11    1    3    3    0    0 -0.17736180884E+02 -0.58855572362E+01 -0.12741815444E+02  0.22617819466E+02  0.51100000000E-03 0. -1.
        -11    1    3    3    0    0 -0.12146509897E+02  0.13688722007E+02 -0.15473290691E+00  0.18301441348E+02  0.51100000000E-03 0.  1.
        -12    1    3    3    0    0 -0.29657783294E+01  0.22241788876E+01 -0.88657394460E+01  0.96095862943E+01  0.00000000000E+00 0.  1.
</event>
<event>
 7    1  0.4962385E-011  0.5052886E+02  0.7816164E-02  0.1300439E+00
        -11   -1    0    0    0    0  0.00000000000E+00  0.00000000000E+00  0.45593999997E+02  0.45594000000E+02  0.51100000000E-03 0.  1.
         11   -1    0    0    0    0 -0.00000000000E+00 -0.00000000000E+00 -0.45593999997E+02  0.45594000000E+02  0.51100000000E-03 0. -1.
    9900012    2    1    2    0    0 -0.14096091392E+02 -0.31631264747E+02 -0.21305612010E+02  0.50528858283E+02  0.29999995237E+02 0.  0.
        -12    1    1    2    0    0  0.14096091392E+02  0.31631264747E+02  0.21305612010E+02  0.40659141717E+02  0.00000000000E+00 0.  1.
         11    1    3    3    0    0 -0.11010752588E+01 -0.12840944645E+02 -0.65927076271E+01  0.14476395277E+02  0.51100000000E-03 0. -1.
        -11    1    3    3    0    0 -0.16534508689E+02 -0.14785121130E+02 -0.20110803960E+01  0.22271825903E+02  0.51100000000E-03 0.  1.
        -12    1    3    3    0    0  0.35394925560E+01 -0.40051989717E+01 -0.12701823987E+02  0.13780637102E+02  0.00000000000E+00 0.  1.
</event>
<event>
 7    1  0.4962385E-011  0.5052887E+02  0.7816164E-02  0.1300439E+00
        -11   -1    0    0    0    0  0.00000000000E+00  0.00000000000E+00  0.45593999997E+02  0.45594000000E+02  0.51100000000E-03 0.  1.
         11   -1    0    0    0    0 -0.00000000000E+00 -0.00000000000E+00 -0.45593999997E+02  0.45594000000E+02  0.51100000000E-03 0. -1.
    9900012    2    1    2    0    0  0.71022075215E+01  0.75638443593E+01 -0.39312999304E+02  0.50528868093E+02  0.30000025056E+02 0.  0.
        -12    1    1    2    0    0 -0.71022075215E+01 -0.75638443593E+01  0.39312999304E+02  0.40659131907E+02  0.00000000000E+00 0.  1.
         11    1    3    3    0    0 -0.50026899528E+01 -0.56394982629E-01 -0.14911777444E+02  0.15728674259E+02  0.51100000000E-03 0. -1.
        -11    1    3    3    0    0  0.17008467440E+02  0.17633726253E+01 -0.18078366685E+02  0.24884227734E+02  0.51100000000E-03 0.  1.
        -12    1    3    3    0    0 -0.49035699653E+01  0.58568667166E+01 -0.63228551751E+01  0.99159661005E+01  0.00000000000E+00 0.  1.
</event>
<event>
 7    1  0.4962385E-011  0.5052886E+02  0.7816164E-02  0.1300439E+00
        -11   -1    0    0    0    0  0.00000000000E+00  0.00000000000E+00  0.45593999997E+02  0.45594000000E+02  0.51100000000E-03 0.  1.
         11   -1    0    0    0    0 -0.00000000000E+00 -0.00000000000E+00 -0.45593999997E+02  0.45594000000E+02  0.51100000000E-03 0. -1.
    9900012    2    1    2    0    0 -0.29873483085E+02 -0.22226918592E+02 -0.16331099364E+02  0.50528859476E+02  0.29999998862E+02 0.  0.
        -12    1    1    2    0    0  0.29873483085E+02  0.22226918592E+02  0.16331099364E+02  0.40659140524E+02  0.00000000000E+00 0.  1.
         11    1    3    3    0    0 -0.17733908468E+02 -0.28109153995E+02 -0.15887124886E+02  0.36837708741E+02  0.51100000000E-03 0. -1.
        -11    1    3    3    0    0 -0.57701838201E+01  0.34696793521E+01 -0.11972004379E+01  0.68386391390E+01  0.51100000000E-03 0.  1.
         12    1    3    3    0    0 -0.63693907973E+01  0.24125560506E+01  0.75322595944E+00  0.68525115959E+01  0.00000000000E+00 0. -1.
</event>
<event>
 7    1  0.4962385E-011  0.5052886E+02  0.7816164E-02  0.1300439E+00
        -11   -1    0    0    0    0  0.00000000000E+00  0.00000000000E+00  0.45593999997E+02  0.45594000000E+02  0.51100000000E-03 0. -1.
         11   -1    0    0    0    0 -0.00000000000E+00 -0.00000000000E+00 -0.45593999997E+02  0.45594000000E+02  0.51100000000E-03 0.  1.
    9900012    2    1    2    0    0 -0.76871369589E+01 -0.32774619176E+02  0.22801274007E+02  0.50528857939E+02  0.29999994193E+02 0.  0.
        -12    1    1    2    0    0  0.76871369589E+01  0.32774619176E+02 -0.22801274007E+02  0.40659142061E+02  0.00000000000E+00 0.  1.
         11    1    3    3    0    0  0.59171897901E+00  0.21250458890E+00  0.37944338414E+01  0.38461692615E+01  0.51100000000E-03 0. -1.
        -11    1    3    3    0    0 -0.94773713997E+01 -0.33879125164E+02  0.86619142131E+01  0.36230435391E+02  0.51100000000E-03 0.  1.
        -12    1    3    3    0    0  0.11985154618E+01  0.89200139916E+00  0.10344925953E+02  0.10452253287E+02  0.00000000000E+00 0.  1.
</event>
<event>
 7    1  0.4962385E-011  0.5052885E+02  0.7816164E-02  0.1300439E+00
        -11   -1    0    0    0    0  0.00000000000E+00  0.00000000000E+00  0.45593999997E+02  0.45594000000E+02  0.51100000000E-03 0.  1.
         11   -1    0    0    0    0 -0.00000000000E+00 -0.00000000000E+00 -0.45593999997E+02  0.45594000000E+02  0.51100000000E-03 0. -1.
    9900012    2    1    2    0    0  0.15586989847E+02 -0.14907782146E+02 -0.34466941599E+02  0.50528852393E+02  0.29999977332E+02 0.  0.
        -12    1    1    2    0    0 -0.15586989847E+02  0.14907782146E+02  0.34466941599E+02  0.40659147607E+02  0.00000000000E+00 0.  1.
         11    1    3    3    0    0  0.74508968705E+00  0.52122081948E+01 -0.86139723086E+00  0.53351924387E+01  0.51100000000E-03 0. -1.
        -11    1    3    3    0    0  0.85946966947E+01 -0.12406560406E+02 -0.31667570941E+02  0.35080287940E+02  0.51100000000E-03 0.  1.
        -12    1    3    3    0    0  0.62472034655E+01 -0.77134299340E+01 -0.19379734267E+01  0.10113372014E+02  0.00000000000E+00 0.  1.
</event>
<event>
 7    1  0.4962385E-011  0.5052889E+02  0.7816164E-02  0.1300439E+00
        -11   -1    0    0    0    0  0.00000000000E+00  0.00000000000E+00  0.45593999997E+02  0.45594000000E+02  0.51100000000E-03 0.  1.
         11   -1    0    0    0    0 -0.00000000000E+00 -0.00000000000E+00 -0.45593999997E+02  0.45594000000E+02  0.51100000000E-03 0. -1.
    9900012    2    1    2    0    0  0.24825596727E+02  0.31402660031E+02 -0.71222138450E+01  0.50528889829E+02  0.30000091125E+02 0.  0.
        -12    1    1    2    0    0 -0.24825596727E+02 -0.31402660031E+02  0.71222138450E+01  0.40659110171E+02  0.00000000000E+00 0.  1.
         11    1    3    3    0    0  0.11046674592E+02  0.14326227025E+02 -0.80610450044E+01  0.19805308560E+02  0.51100000000E-03 0. -1.
        -11    1    3    3    0    0  0.33471961443E+01  0.15250662020E+02  0.84371829065E+01  0.17747463755E+02  0.51100000000E-03 0.  1.
        -12    1    3    3    0    0  0.10431725990E+02  0.18257709856E+01 -0.74983517472E+01  0.12976117515E+02  0.00000000000E+00 0.  1.
</event>
<event>
 7    1  0.4962385E-011  0.5052886E+02  0.7816164E-02  0.1300439E+00
        -11   -1    0    0    0    0  0.00000000000E+00  0.00000000000E+00  0.45593999997E+02  0.45594000000E+02  0.51100000000E-03 0.  1.
         11   -1    0    0    0    0 -0.00000000000E+00 -0.00000000000E+00 -0.45593999997E+02  0.45594000000E+02  0.51100000000E-03 0. -1.
    9900012    2    1    2    0    0 -0.17705413650E+02 -0.32202666288E+02 -0.17397489418E+02  0.50528855560E+02  0.29999986959E+02 0.  0.
        -12    1    1    2    0    0  0.17705413650E+02  0.32202666288E+02  0.17397489418E+02  0.40659144440E+02  0.00000000000E+00 0.  1.
         11    1    3    3    0    0 -0.23207556560E+01 -0.85574404892E+01 -0.26470083877E+01  0.92532344727E+01  0.51100000000E-03 0. -1.
        -11    1    3    3    0    0 -0.13905973066E+02 -0.78544883993E-01 -0.10155542181E+02  0.17219677508E+02  0.51100000000E-03 0.  1.
        -12    1    3    3    0    0 -0.14786849283E+01 -0.23566680915E+02 -0.45949388488E+01  0.24055943579E+02  0.00000000000E+00 0.  1.
</event>
<event>
 7    1  0.4962385E-011  0.5052886E+02  0.7816164E-02  0.1300439E+00
        -11   -1    0    0    0    0  0.00000000000E+00  0.00000000000E+00  0.45593999997E+02  0.45594000000E+02  0.51100000000E-03 0. -1.
         11   -1    0    0    0    0 -0.00000000000E+00 -0.00000000000E+00 -0.45593999997E+02  0.45594000000E+02  0.51100000000E-03 0.  1.
    9900012    2    1    2    0    0  0.14801093508E+02 -0.23918031515E+02  0.29360189623E+02  0.50528864061E+02  0.30000012801E+02 0.  0.
        -12    1    1    2    0    0 -0.14801093508E+02  0.23918031515E+02 -0.29360189623E+02  0.40659135939E+02  0.00000000000E+00 0.  1.
         11    1    3    3    0    0  0.14251771510E+02 -0.23620491511E+02  0.12826996777E+02  0.30423222331E+02  0.51100000000E-03 0. -1.
        -11    1    3    3    0    0 -0.29985260077E+01  0.84035958084E+00 -0.44533956493E-01  0.31143773019E+01  0.51100000000E-03 0.  1.
         12    1    3    3    0    0  0.35478480056E+01 -0.11378995841E+01  0.16577726803E+02  0.16991264428E+02  0.00000000000E+00 0. -1.
</event>
<event>
 7    1  0.4962385E-011  0.5052886E+02  0.7816164E-02  0.1300439E+00
        -11   -1    0    0    0    0  0.00000000000E+00  0.00000000000E+00  0.45593999997E+02  0.45594000000E+02  0.51100000000E-03 0. -1.
         11   -1    0    0    0    0 -0.00000000000E+00 -0.00000000000E+00 -0.45593999997E+02  0.45594000000E+02  0.51100000000E-03 0.  1.
    9900012    2    1    2    0    0  0.25917769438E+02 -0.31035823162E+02  0.42675723008E+01  0.50528864921E+02  0.30000015415E+02 0.  0.
        -12    1    1    2    0    0 -0.25917769438E+02  0.31035823162E+02 -0.42675723008E+01  0.40659135079E+02  0.00000000000E+00 0.  1.
         11    1    3    3    0    0  0.60976938021E+01 -0.21686220288E+02 -0.25032296323E+01  0.22665837266E+02  0.51100000000E-03 0.  1.
        -11    1    3    3    0    0  0.11384489661E+02 -0.61196526884E+01  0.11819965638E+02  0.17514803505E+02  0.51100000000E-03 0. -1.
         12    1    3    3    0    0  0.84355859755E+01 -0.32299501852E+01 -0.50491637054E+01  0.10348224151E+02  0.00000000000E+00 0. -1.
</event>
<event>
 7    1  0.4962385E-011  0.5052887E+02  0.7816164E-02  0.1300439E+00
        -11   -1    0    0    0    0  0.00000000000E+00  0.00000000000E+00  0.45593999997E+02  0.45594000000E+02  0.51100000000E-03 0.  1.
         11   -1    0    0    0    0 -0.00000000000E+00 -0.00000000000E+00 -0.45593999997E+02  0.45594000000E+02  0.51100000000E-03 0. -1.
    9900012    2    1    2    0    0 -0.12019343923E+02 -0.86754569992E+01 -0.37860755769E+02  0.50528868063E+02  0.30000024963E+02 0.  0.
        -12    1    1    2    0    0  0.12019343923E+02  0.86754569992E+01  0.37860755769E+02  0.40659131937E+02  0.00000000000E+00 0.  1.
         11    1    3    3    0    0 -0.28958822010E+01 -0.38498220186E+01 -0.35976477819E+01  0.60125147085E+01  0.51100000000E-03 0. -1.
        -11    1    3    3    0    0 -0.70910952232E+01  0.50939698116E+01 -0.33207127414E+02  0.34335775385E+02  0.51100000000E-03 0.  1.
        -12    1    3    3    0    0 -0.20323664983E+01 -0.99196047922E+01 -0.10559805729E+01  0.10180577969E+02  0.00000000000E+00 0.  1.
</event>
<event>
 7    1  0.4962385E-011  0.5052890E+02  0.7816164E-02  0.1300439E+00
        -11   -1    0    0    0    0  0.00000000000E+00  0.00000000000E+00  0.45593999997E+02  0.45594000000E+02  0.51100000000E-03 0.  1.
         11   -1    0    0    0    0 -0.00000000000E+00 -0.00000000000E+00 -0.45593999997E+02  0.45594000000E+02  0.51100000000E-03 0. -1.
    9900012    2    1    2    0    0  0.32277885476E+02  0.15288749073E+02 -0.19430772601E+02  0.50528896924E+02  0.30000112691E+02 0.  0.
        -12    1    1    2    0    0 -0.32277885476E+02 -0.15288749073E+02  0.19430772601E+02  0.40659103076E+02  0.00000000000E+00 0.  1.
         11    1    3    3    0    0  0.33299084336E+02  0.13768646114E+02 -0.15671913248E+02  0.39293937173E+02  0.51100000000E-03 0. -1.
        -11    1    3    3    0    0 -0.95078544345E+00 -0.11571319587E+01  0.33331316009E+01  0.36541365409E+01  0.51100000000E-03 0.  1.
         12    1    3    3    0    0 -0.70413416311E-01  0.26772349173E+01 -0.70919909547E+01  0.75808232108E+01  0.00000000000E+00 0. -1.
</event>
<event>
 7    1  0.4962385E-011  0.5052886E+02  0.7816164E-02  0.1300439E+00
        -11   -1    0    0    0    0  0.00000000000E+00  0.00000000000E+00  0.45593999997E+02  0.45594000000E+02  0.51100000000E-03 0.  1.
         11   -1    0    0    0    0 -0.00000000000E+00 -0.00000000000E+00 -0.45593999997E+02  0.45594000000E+02  0.51100000000E-03 0. -1.
    9900012    2    1    2    0    0 -0.20718759961E+02 -0.32947557044E+01 -0.34828775072E+02  0.50528855857E+02  0.29999987862E+02 0.  0.
        -12    1    1    2    0    0  0.20718759961E+02  0.32947557044E+01  0.34828775072E+02  0.40659144143E+02  0.00000000000E+00 0.  1.
         11    1    3    3    0    0  0.13870955224E+01 -0.24525718232E+01 -0.29681626654E+01  0.40925703911E+01  0.51100000000E-03 0. -1.
        -11    1    3    3    0    0 -0.20074244568E+02  0.35850956105E+01 -0.35094898180E+02  0.40589162149E+02  0.51100000000E-03 0.  1.
        -12    1    3    3    0    0 -0.20316109158E+01 -0.44272794918E+01  0.32342857735E+01  0.58471233163E+01  0.00000000000E+00 0.  1.
</event>
<event>
 7    1  0.4962385E-011  0.5052886E+02  0.7816164E-02  0.1300439E+00
        -11   -1    0    0    0    0  0.00000000000E+00  0.00000000000E+00  0.45593999997E+02  0.45594000000E+02  0.51100000000E-03 0. -1.
         11   -1    0    0    0    0 -0.00000000000E+00 -0.00000000000E+00 -0.45593999997E+02  0.45594000000E+02  0.51100000000E-03 0.  1.
    9900012    2    1    2    0    0  0.38215905557E+02 -0.83223925709E+01  0.11110724578E+02  0.50528857654E+02  0.29999993326E+02 0.  0.
        -12    1    1    2    0    0 -0.38215905557E+02  0.83223925709E+01 -0.11110724578E+02  0.40659142346E+02  0.00000000000E+00 0.  1.
         11    1    3    3    0    0  0.17125760302E+02 -0.70653652157E+01  0.15857979241E+02  0.24386196043E+02  0.51100000000E-03 0. -1.
        -11    1    3    3    0    0  0.63500154051E+01 -0.47960944798E+00 -0.87751682568E+01  0.10842338266E+02  0.51100000000E-03 0.  1.
         12    1    3    3    0    0  0.14740129849E+02 -0.77741790722E+00  0.40279135937E+01  0.15300323346E+02  0.00000000000E+00 0. -1.
</event>
<event>
 7    1  0.4962385E-011  0.5052885E+02  0.7816164E-02  0.1300439E+00
        -11   -1    0    0    0    0  0.00000000000E+00  0.00000000000E+00  0.45593999997E+02  0.45594000000E+02  0.51100000000E-03 0.  1.
         11   -1    0    0    0    0 -0.00000000000E+00 -0.00000000000E+00 -0.45593999997E+02  0.45594000000E+02  0.51100000000E-03 0. -1.
    9900012    2    1    2    0    0  0.23478456449E+02 -0.12020712606E+02 -0.30942375966E+02  0.50528854913E+02  0.29999984995E+02 0.  0.
        -12    1    1    2    0    0 -0.23478456449E+02  0.12020712606E+02  0.30942375966E+02  0.40659145087E+02  0.00000000000E+00 0.  1.
         11    1    3    3    0    0  0.28321542348E+01 -0.48441762445E+01 -0.87459885745E+01  0.10391316447E+02  0.51100000000E-03 0. -1.
        -11    1    3    3    0    0  0.93784678271E+01 -0.23235936483E+01  0.45738526609E+01  0.10689942687E+02  0.51100000000E-03 0.  1.
        -12    1    3    3    0    0  0.11267834387E+02 -0.48529427134E+01 -0.26770240052E+02  0.29447595779E+02  0.00000000000E+00 0.  1.
</event>
<event>
 7    1  0.4962385E-011  0.5052886E+02  0.7816164E-02  0.1300439E+00
        -11   -1    0    0    0    0  0.00000000000E+00  0.00000000000E+00  0.45593999997E+02  0.45594000000E+02  0.51100000000E-03 0.  1.
         11   -1    0    0    0    0 -0.00000000000E+00 -0.00000000000E+00 -0.45593999997E+02  0.45594000000E+02  0.51100000000E-03 0. -1.
    9900012    2    1    2    0    0 -0.36884551290E+02  0.13069601075E+02 -0.11039975697E+02  0.50528860074E+02  0.30000000681E+02 0.  0.
        -12    1    1    2    0    0  0.36884551290E+02 -0.13069601075E+02  0.11039975697E+02  0.40659139926E+02  0.00000000000E+00 0.  1.
         11    1    3    3    0    0 -0.99753346448E+01  0.50328624398E+01  0.16810511162E+01  0.11298802535E+02  0.51100000000E-03 0. -1.
        -11    1    3    3    0    0 -0.68978198341E+01 -0.76272728233E+01 -0.87626071670E+01  0.13510680731E+02  0.51100000000E-03 0.  1.
        -12    1    3    3    0    0 -0.20011396811E+02  0.15664011459E+02 -0.39584196460E+01  0.25719376808E+02  0.00000000000E+00 0.  1.
</event>
<event>
 7    1  0.4962385E-011  0.5052889E+02  0.7816164E-02  0.1300439E+00
        -11   -1    0    0    0    0  0.00000000000E+00  0.00000000000E+00  0.45593999997E+02  0.45594000000E+02  0.51100000000E-03 0. -1.
         11   -1    0    0    0    0 -0.00000000000E+00 -0.00000000000E+00 -0.45593999997E+02  0.45594000000E+02  0.51100000000E-03 0.  1.
    9900012    2    1    2    0    0  0.31369073834E+02  0.24180820205E+02 -0.91887106548E+01  0.50528889551E+02  0.30000090279E+02 0.  0.
        -12    1    1    2    0    0 -0.31369073834E+02 -0.24180820205E+02  0.91887106548E+01  0.40659110449E+02  0.00000000000E+00 0.  1.
         11    1    3    3    0    0  0.19908499175E+02 -0.17049953097E+01 -0.71233236338E+01  0.21213134805E+02  0.51100000000E-03 0.  1.
        -11    1    3    3    0    0  0.46999264084E+01  0.12508631380E+02 -0.45640529328E+01  0.14120401789E+02  0.51100000000E-03 0. -1.
        -12    1    3    3    0    0  0.67606482502E+01  0.13377184135E+02  0.24986659117E+01  0.15195352957E+02  0.00000000000E+00 0.  1.
</event>
<event>
 7    1  0.4962385E-011  0.5052886E+02  0.7816164E-02  0.1300439E+00
        -11   -1    0    0    0    0  0.00000000000E+00  0.00000000000E+00  0.45593999997E+02  0.45594000000E+02  0.51100000000E-03 0.  1.
         11   -1    0    0    0    0 -0.00000000000E+00 -0.00000000000E+00 -0.45593999997E+02  0.45594000000E+02  0.51100000000E-03 0. -1.
    9900012    2    1    2    0    0  0.37984953140E+02 -0.56925976064E+01  0.13338035690E+02  0.50528861684E+02  0.30000005574E+02 0.  0.
        -12    1    1    2    0    0 -0.37984953140E+02  0.56925976064E+01 -0.13338035690E+02  0.40659138316E+02  0.00000000000E+00 0.  1.
         11    1    3    3    0    0  0.94404120737E+01 -0.10049082202E+02 -0.35584720891E+01  0.14239668434E+02  0.51100000000E-03 0. -1.
        -11    1    3    3    0    0  0.16041511864E+02  0.70736605980E-01  0.16577262907E+02  0.23068176181E+02  0.51100000000E-03 0.  1.
         12    1    3    3    0    0  0.12503029202E+02  0.42857479899E+01  0.31924487219E+00  0.13221017070E+02  0.00000000000E+00 0. -1.
</event>
<event>
 7    1  0.4962385E-011  0.5052885E+02  0.7816164E-02  0.1300439E+00
        -11   -1    0    0    0    0  0.00000000000E+00  0.00000000000E+00  0.45593999997E+02  0.45594000000E+02  0.51100000000E-03 0. -1.
         11   -1    0    0    0    0 -0.00000000000E+00 -0.00000000000E+00 -0.45593999997E+02  0.45594000000E+02  0.51100000000E-03 0.  1.
    9900012    2    1    2    0    0  0.26641109154E+01  0.27426540134E+02  0.29897385876E+02  0.50528852531E+02  0.29999977753E+02 0.  0.
        -12    1    1    2    0    0 -0.26641109154E+01 -0.27426540134E+02 -0.29897385876E+02  0.40659147469E+02  0.00000000000E+00 0.  1.
         11    1    3    3    0    0 -0.12906844900E+02  0.97826324642E+01  0.70665062502E+01  0.17669806282E+02  0.51100000000E-03 0. -1.
        -11    1    3    3    0    0  0.10898849078E+02  0.11272131841E+02  0.14142882218E+02  0.21115562629E+02  0.51100000000E-03 0.  1.
         12    1    3    3    0    0  0.46721067374E+01  0.63717758288E+01  0.86879974076E+01  0.11743483620E+02  0.00000000000E+00 0. -1.
</event>
<event>
 7    1  0.4962385E-011  0.5052886E+02  0.7816164E-02  0.1300439E+00
        -11   -1    0    0    0    0  0.00000000000E+00  0.00000000000E+00  0.45593999997E+02  0.45594000000E+02  0.51100000000E-03 0.  1.
         11   -1    0    0    0    0 -0.00000000000E+00 -0.00000000000E+00 -0.45593999997E+02  0.45594000000E+02  0.51100000000E-03 0. -1.
    9900012    2    1    2    0    0 -0.94844330159E+01  0.23402921042E+02 -0.31867139876E+02  0.50528858508E+02  0.29999995922E+02 0.  0.
        -12    1    1    2    0    0  0.94844330159E+01 -0.23402921042E+02  0.31867139876E+02  0.40659141492E+02  0.00000000000E+00 0.  1.
         11    1    3    3    0    0  0.46537316301E+01  0.10336685502E+02 -0.81178317254E+01  0.13942864750E+02  0.51100000000E-03 0. -1.
        -11    1    3    3    0    0 -0.13059293750E+01 -0.49279994631E+01 -0.78498349957E+01  0.93600502115E+01  0.51100000000E-03 0.  1.
        -12    1    3    3    0    0 -0.12832235271E+02  0.17994235004E+02 -0.15899473155E+02  0.27225943547E+02  0.00000000000E+00 0.  1.
</event>
<event>
 7    1  0.4962385E-011  0.5052886E+02  0.7816164E-02  0.1300439E+00
        -11   -1    0    0    0    0  0.00000000000E+00  0.00000000000E+00  0.45593999997E+02  0.45594000000E+02  0.51100000000E-03 0.  1.
         11   -1    0    0    0    0 -0.00000000000E+00 -0.00000000000E+00 -0.45593999997E+02  0.45594000000E+02  0.51100000000E-03 0. -1.
    9900012    2    1    2    0    0  0.24630317854E+02 -0.31930313707E+02 -0.51931137139E+01  0.50528856858E+02  0.29999990905E+02 0.  0.
        -12    1    1    2    0    0 -0.24630317854E+02  0.31930313707E+02  0.51931137139E+01  0.40659143142E+02  0.00000000000E+00 0.  1.
         11    1    3    3    0    0  0.58832387455E+01 -0.34119211694E+01  0.51766008544E+00  0.68206800561E+01  0.51100000000E-03 0. -1.
        -11    1    3    3    0    0  0.48543672113E+00 -0.24360937985E+02 -0.54965148882E+01  0.24978042848E+02  0.51100000000E-03 0.  1.
        -12    1    3    3    0    0  0.18261642387E+02 -0.41574545522E+01 -0.21425891112E+00  0.18730133954E+02  0.00000000000E+00 0.  1.
</event>
<event>
 7    1  0.4962385E-011  0.5052887E+02  0.7816164E-02  0.1300439E+00
        -11   -1    0    0    0    0  0.00000000000E+00  0.00000000000E+00  0.45593999997E+02  0.45594000000E+02  0.51100000000E-03 0.  1.
         11   -1    0    0    0    0 -0.00000000000E+00 -0.00000000000E+00 -0.45593999997E+02  0.45594000000E+02  0.51100000000E-03 0. -1.
    9900012    2    1    2    0    0 -0.32049499775E+02 -0.95611906932E+01 -0.23120948490E+02  0.50528867417E+02  0.30000023002E+02 0.  0.
        -12    1    1    2    0    0  0.32049499775E+02  0.95611906932E+01  0.23120948490E+02  0.40659132583E+02  0.00000000000E+00 0.  1.
         11    1    3    3    0    0 -0.20582737384E+02 -0.18885395603E+02 -0.11034903104E+02  0.30034585598E+02  0.51100000000E-03 0. -1.
        -11    1    3    3    0    0 -0.70811567221E+01  0.98481943099E+01 -0.86416554644E+01  0.14893217286E+02  0.51100000000E-03 0.  1.
        -12    1    3    3    0    0 -0.43856056689E+01 -0.52398940031E+00 -0.34443899219E+01  0.56010645335E+01  0.00000000000E+00 0.  1.
</event>
<event>
 7    1  0.4962385E-011  0.5052886E+02  0.7816164E-02  0.1300439E+00
        -11   -1    0    0    0    0  0.00000000000E+00  0.00000000000E+00  0.45593999997E+02  0.45594000000E+02  0.51100000000E-03 0. -1.
         11   -1    0    0    0    0 -0.00000000000E+00 -0.00000000000E+00 -0.45593999997E+02  0.45594000000E+02  0.51100000000E-03 0.  1.
    9900012    2    1    2    0    0  0.81422982297E+01 -0.18402715907E+02  0.35329999619E+02  0.50528857777E+02  0.29999993700E+02 0.  0.
        -12    1    1    2    0    0 -0.81422982297E+01  0.18402715907E+02 -0.35329999619E+02  0.40659142223E+02  0.00000000000E+00 0.  1.
         11    1    3    3    0    0  0.28945517752E+01  0.57153260682E+00  0.19803518029E+02  0.20022097944E+02  0.51100000000E-03 0. -1.
        -11    1    3    3    0    0 -0.59748657343E+01 -0.10645468240E+02  0.84062818008E+01  0.14821963047E+02  0.51100000000E-03 0.  1.
        -12    1    3    3    0    0  0.11222612189E+02 -0.83287802736E+01  0.71201997888E+01  0.15684796786E+02  0.00000000000E+00 0.  1.
</event>
<event>
 7    1  0.4962385E-011  0.5052886E+02  0.7816164E-02  0.1300439E+00
        -11   -1    0    0    0    0  0.00000000000E+00  0.00000000000E+00  0.45593999997E+02  0.45594000000E+02  0.51100000000E-03 0.  1.
         11   -1    0    0    0    0 -0.00000000000E+00 -0.00000000000E+00 -0.45593999997E+02  0.45594000000E+02  0.51100000000E-03 0. -1.
    9900012    2    1    2    0    0  0.17132461740E+02 -0.32498605755E+02 -0.17420822956E+02  0.50528859653E+02  0.29999999402E+02 0.  0.
        -12    1    1    2    0    0 -0.17132461740E+02  0.32498605755E+02  0.17420822956E+02  0.40659140347E+02  0.00000000000E+00 0.  1.
         11    1    3    3    0    0 -0.21399919563E+01 -0.39975569545E+01 -0.16857661191E+01  0.48375442992E+01  0.51100000000E-03 0. -1.
        -11    1    3    3    0    0  0.12780657244E+02 -0.31818702586E+02 -0.83030987036E+01  0.35280539710E+02  0.51100000000E-03 0.  1.
        -12    1    3    3    0    0  0.64917964520E+01  0.33176537859E+01 -0.74319581333E+01  0.10410775644E+02  0.00000000000E+00 0.  1.
</event>
<event>
 7    1  0.4962385E-011  0.5052884E+02  0.7816164E-02  0.1300439E+00
        -11   -1    0    0    0    0  0.00000000000E+00  0.00000000000E+00  0.45593999997E+02  0.45594000000E+02  0.51100000000E-03 0. -1.
         11   -1    0    0    0    0 -0.00000000000E+00 -0.00000000000E+00 -0.45593999997E+02  0.45594000000E+02  0.51100000000E-03 0.  1.
    9900012    2    1    2    0    0 -0.34467541543E+02  0.21513660319E+02  0.15224829563E+01  0.50528844147E+02  0.29999952269E+02 0.  0.
        -12    1    1    2    0    0  0.34467541543E+02 -0.21513660319E+02 -0.15224829563E+01  0.40659155853E+02  0.00000000000E+00 0.  1.
         11    1    3    3    0    0 -0.82386712494E+01  0.11861046770E+01  0.80963790012E+01  0.11611800095E+02  0.51100000000E-03 0. -1.
        -11    1    3    3    0    0 -0.14269878570E+02  0.19658007819E+02 -0.10283036970E+02  0.26378164368E+02  0.51100000000E-03 0.  1.
        -12    1    3    3    0    0 -0.11958991723E+02  0.66954782314E+00  0.37091409251E+01  0.12538879684E+02  0.00000000000E+00 0.  1.
</event>
<event>
 7    1  0.4962385E-011  0.5052886E+02  0.7816164E-02  0.1300439E+00
        -11   -1    0    0    0    0  0.00000000000E+00  0.00000000000E+00  0.45593999997E+02  0.45594000000E+02  0.51100000000E-03 0.  1.
         11   -1    0    0    0    0 -0.00000000000E+00 -0.00000000000E+00 -0.45593999997E+02  0.45594000000E+02  0.51100000000E-03 0. -1.
    9900012    2    1    2    0    0 -0.11752883448E+02 -0.36649075092E+02 -0.13110317350E+02  0.50528863322E+02  0.30000010552E+02 0.  0.
        -12    1    1    2    0    0  0.11752883448E+02  0.36649075092E+02  0.13110317350E+02  0.40659136678E+02  0.00000000000E+00 0.  1.
         11    1    3    3    0    0 -0.97857766159E+01 -0.20396084906E+02 -0.15003359617E+02  0.27145211429E+02  0.51100000000E-03 0. -1.
        -11    1    3    3    0    0 -0.13074345713E+00 -0.18700408943E+02  0.46442165356E+01  0.19268916315E+02  0.51100000000E-03 0.  1.
         12    1    3    3    0    0 -0.18363633748E+01  0.24474187568E+01 -0.27511742688E+01  0.41147355775E+01  0.00000000000E+00 0. -1.
</event>
<event>
 7    1  0.4962385E-011  0.5052887E+02  0.7816164E-02  0.1300439E+00
        -11   -1    0    0    0    0  0.00000000000E+00  0.00000000000E+00  0.45593999997E+02  0.45594000000E+02  0.51100000000E-03 0. -1.
         11   -1    0    0    0    0 -0.00000000000E+00 -0.00000000000E+00 -0.45593999997E+02  0.45594000000E+02  0.51100000000E-03 0.  1.
    9900012    2    1    2    0    0 -0.30998219522E+02 -0.24978583859E+02  0.82671555318E+01  0.50528866638E+02  0.30000020634E+02 0.  0.
        -12    1    1    2    0    0  0.30998219522E+02  0.24978583859E+02 -0.82671555318E+01  0.40659133362E+02  0.00000000000E+00 0.  1.
         11    1    3    3    0    0 -0.16625726143E+02 -0.10820705897E+02 -0.14738895180E+01  0.19891576017E+02  0.51100000000E-03 0. -1.
        -11    1    3    3    0    0 -0.73890998584E+00  0.21867300840E+01  0.90522153399E+01  0.93418616586E+01  0.51100000000E-03 0.  1.
        -12    1    3    3    0    0 -0.13633583394E+02 -0.16344608046E+02  0.68882970987E+00  0.21295428962E+02  0.00000000000E+00 0.  1.
</event>
<event>
 7    1  0.4962385E-011  0.5052887E+02  0.7816164E-02  0.1300439E+00
        -11   -1    0    0    0    0  0.00000000000E+00  0.00000000000E+00  0.45593999997E+02  0.45594000000E+02  0.51100000000E-03 0.  1.
         11   -1    0    0    0    0 -0.00000000000E+00 -0.00000000000E+00 -0.45593999997E+02  0.45594000000E+02  0.51100000000E-03 0. -1.
    9900012    2    1    2    0    0 -0.17497376042E+02 -0.25787229010E+02 -0.26115616748E+02  0.50528870810E+02  0.30000033314E+02 0.  0.
        -12    1    1    2    0    0  0.17497376042E+02  0.25787229010E+02  0.26115616748E+02  0.40659129190E+02  0.00000000000E+00 0.  1.
         11    1    3    3    0    0 -0.54055125470E+01 -0.23932429180E+02 -0.60144265118E+01  0.25261711322E+02  0.51100000000E-03 0. -1.
        -11    1    3    3    0    0 -0.39003118294E+01  0.18508737633E+01 -0.13330426022E+02  0.14012081367E+02  0.51100000000E-03 0.  1.
         12    1    3    3    0    0 -0.81915516653E+01 -0.37056735928E+01 -0.67707642146E+01  0.11255078121E+02  0.00000000000E+00 0. -1.
</event>
<event>
 7    1  0.4962385E-011  0.5052886E+02  0.7816164E-02  0.1300439E+00
        -11   -1    0    0    0    0  0.00000000000E+00  0.00000000000E+00  0.45593999997E+02  0.45594000000E+02  0.51100000000E-03 0. -1.
         11   -1    0    0    0    0 -0.00000000000E+00 -0.00000000000E+00 -0.45593999997E+02  0.45594000000E+02  0.51100000000E-03 0.  1.
    9900012    2    1    2    0    0  0.37969040452E+01  0.34334601882E+02 -0.21444906260E+02  0.50528863620E+02  0.30000011459E+02 0.  0.
        -12    1    1    2    0    0 -0.37969040452E+01 -0.34334601882E+02  0.21444906260E+02  0.40659136380E+02  0.00000000000E+00 0.  1.
         11    1    3    3    0    0  0.95889292235E+01  0.16888177892E+02 -0.17952116820E+02  0.26446863987E+02  0.51100000000E-03 0.  1.
        -11    1    3    3    0    0 -0.35926672175E+01  0.18927120556E+02 -0.62532102653E+01  0.20254525153E+02  0.51100000000E-03 0. -1.
         12    1    3    3    0    0 -0.21993579607E+01 -0.14806965670E+01  0.27604208254E+01  0.38274744801E+01  0.00000000000E+00 0. -1.
</event>
<event>
 7    1  0.4962385E-011  0.5052887E+02  0.7816164E-02  0.1300439E+00
        -11   -1    0    0    0    0  0.00000000000E+00  0.00000000000E+00  0.45593999997E+02  0.45594000000E+02  0.51100000000E-03 0. -1.
         11   -1    0    0    0    0 -0.00000000000E+00 -0.00000000000E+00 -0.45593999997E+02  0.45594000000E+02  0.51100000000E-03 0.  1.
    9900012    2    1    2    0    0  0.27286027119E+02  0.19957804482E+02  0.22590338522E+02  0.50528872732E+02  0.30000039156E+02 0.  0.
        -12    1    1    2    0    0 -0.27286027119E+02 -0.19957804482E+02 -0.22590338522E+02  0.40659127268E+02  0.00000000000E+00 0.  1.
         11    1    3    3    0    0  0.27982490738E+01  0.66698872863E+00  0.81748587145E+00  0.29905443074E+01  0.51100000000E-03 0. -1.
        -11    1    3    3    0    0 -0.29223830400E+01  0.48558947017E+01 -0.42468472665E+01  0.70820722923E+01  0.51100000000E-03 0.  1.
        -12    1    3    3    0    0  0.27410161085E+02  0.14434921051E+02  0.26019699917E+02  0.40456256132E+02  0.00000000000E+00 0.  1.
</event>
<event>
 7    1  0.4962385E-011  0.5052885E+02  0.7816164E-02  0.1300439E+00
        -11   -1    0    0    0    0  0.00000000000E+00  0.00000000000E+00  0.45593999997E+02  0.45594000000E+02  0.51100000000E-03 0.  1.
         11   -1    0    0    0    0 -0.00000000000E+00 -0.00000000000E+00 -0.45593999997E+02  0.45594000000E+02  0.51100000000E-03 0. -1.
    9900012    2    1    2    0    0 -0.29464315613E+02 -0.33822002372E+01 -0.27813324407E+02  0.50528853580E+02  0.29999980943E+02 0.  0.
        -12    1    1    2    0    0  0.29464315613E+02  0.33822002372E+01  0.27813324407E+02  0.40659146420E+02  0.00000000000E+00 0.  1.
         11    1    3    3    0    0 -0.46047606683E+01 -0.23989852737E+01 -0.16091123313E+02  0.16908080934E+02  0.51100000000E-03 0. -1.
        -11    1    3    3    0    0 -0.25557726612E+02  0.40027501013E+01 -0.12125493230E+02  0.28570036477E+02  0.51100000000E-03 0.  1.
        -12    1    3    3    0    0  0.69817166755E+00 -0.49859650648E+01  0.40329213523E+00  0.50507361692E+01  0.00000000000E+00 0.  1.
</event>
<event>
 7    1  0.4962385E-011  0.5052884E+02  0.7816164E-02  0.1300439E+00
        -11   -1    0    0    0    0  0.00000000000E+00  0.00000000000E+00  0.45593999997E+02  0.45594000000E+02  0.51100000000E-03 0.  1.
         11   -1    0    0    0    0 -0.00000000000E+00 -0.00000000000E+00 -0.45593999997E+02  0.45594000000E+02  0.51100000000E-03 0. -1.
    9900012    2    1    2    0    0  0.79952210921E+01 -0.17444762742E+02 -0.35845832256E+02  0.50528843619E+02  0.29999950666E+02 0.  0.
        -12    1    1    2    0    0 -0.79952210921E+01  0.17444762742E+02  0.35845832256E+02  0.40659156381E+02  0.00000000000E+00 0.  1.
         11    1    3    3    0    0  0.35493771519E+00 -0.28430173777E+00 -0.17227343583E+02  0.17233344871E+02  0.51100000000E-03 0. -1.
        -11    1    3    3    0    0 -0.11176818327E+01 -0.27289923181E+01  0.40636705705E+01  0.50209591233E+01  0.51100000000E-03 0.  1.
        -12    1    3    3    0    0  0.87579652097E+01 -0.14431468686E+02 -0.22682159244E+02  0.28274539625E+02  0.00000000000E+00 0.  1.
</event>
<event>
 7    1  0.4962385E-011  0.5052886E+02  0.7816164E-02  0.1300439E+00
        -11   -1    0    0    0    0  0.00000000000E+00  0.00000000000E+00  0.45593999997E+02  0.45594000000E+02  0.51100000000E-03 0.  1.
         11   -1    0    0    0    0 -0.00000000000E+00 -0.00000000000E+00 -0.45593999997E+02  0.45594000000E+02  0.51100000000E-03 0. -1.
    9900012    2    1    2    0    0 -0.12864646969E+02  0.27897054586E+02  0.26634950787E+02  0.50528863270E+02  0.30000010395E+02 0.  0.
        -12    1    1    2    0    0  0.12864646969E+02 -0.27897054586E+02 -0.26634950787E+02  0.40659136730E+02  0.00000000000E+00 0.  1.
         11    1    3    3    0    0  0.24577241824E+01 -0.29362088150E+01  0.33884822577E+01  0.51130756531E+01  0.51100000000E-03 0. -1.
        -11    1    3    3    0    0 -0.12245773418E+02  0.17249980536E+02  0.37950555911E+01  0.21492399640E+02  0.51100000000E-03 0.  1.
        -12    1    3    3    0    0 -0.30765977342E+01  0.13583282865E+02  0.19451412938E+02  0.23923387977E+02  0.00000000000E+00 0.  1.
</event>
<event>
 7    1  0.4962385E-011  0.5052886E+02  0.7816164E-02  0.1300439E+00
        -11   -1    0    0    0    0  0.00000000000E+00  0.00000000000E+00  0.45593999997E+02  0.45594000000E+02  0.51100000000E-03 0.  1.
         11   -1    0    0    0    0 -0.00000000000E+00 -0.00000000000E+00 -0.45593999997E+02  0.45594000000E+02  0.51100000000E-03 0. -1.
    9900012    2    1    2    0    0 -0.27595299251E+01  0.42593398676E+01 -0.40341155242E+02  0.50528858497E+02  0.29999995887E+02 0.  0.
        -12    1    1    2    0    0  0.27595299251E+01 -0.42593398676E+01  0.40341155242E+02  0.40659141503E+02  0.00000000000E+00 0.  1.
         11    1    3    3    0    0  0.43701840272E+01  0.79720427340E+00 -0.37509597002E+02  0.37771734281E+02  0.51100000000E-03 0. -1.
        -11    1    3    3    0    0 -0.79379648361E+00  0.31352041352E+01  0.27970331630E+01  0.42758639598E+01  0.51100000000E-03 0.  1.
         12    1    3    3    0    0 -0.63359174686E+01  0.32693145902E+00 -0.56285914026E+01  0.84812602558E+01  0.00000000000E+00 0. -1.
</event>
<event>
 7    1  0.4962385E-011  0.5052887E+02  0.7816164E-02  0.1300439E+00
        -11   -1    0    0    0    0  0.00000000000E+00  0.00000000000E+00  0.45593999997E+02  0.45594000000E+02  0.51100000000E-03 0.  1.
         11   -1    0    0    0    0 -0.00000000000E+00 -0.00000000000E+00 -0.45593999997E+02  0.45594000000E+02  0.51100000000E-03 0. -1.
    9900012    2    1    2    0    0 -0.29459053358E+02  0.18832984312E+02 -0.20752056012E+02  0.50528868780E+02  0.30000027145E+02 0.  0.
        -12    1    1    2    0    0  0.29459053358E+02 -0.18832984312E+02  0.20752056012E+02  0.40659131220E+02  0.00000000000E+00 0.  1.
         11    1    3    3    0    0  0.48552544424E+00  0.18224959408E+01 -0.13899691504E+01  0.23429129116E+01  0.51100000000E-03 0. -1.
        -11    1    3    3    0    0  0.47501606820E+01  0.50248452119E+01 -0.58960916997E+01  0.90871884266E+01  0.51100000000E-03 0.  1.
        -12    1    3    3    0    0 -0.34694739484E+02  0.11985643159E+02 -0.13465995161E+02  0.39098767442E+02  0.00000000000E+00 0.  1.
</event>
<event>
 7    1  0.4962385E-011  0.5052886E+02  0.7816164E-02  0.1300439E+00
        -11   -1    0    0    0    0  0.00000000000E+00  0.00000000000E+00  0.45593999997E+02  0.45594000000E+02  0.51100000000E-03 0. -1.
         11   -1    0    0    0    0 -0.00000000000E+00 -0.00000000000E+00 -0.45593999997E+02  0.45594000000E+02  0.51100000000E-03 0.  1.
    9900012    2    1    2    0    0 -0.35720025397E+02 -0.18896164537E+02  0.44922625521E+01  0.50528859928E+02  0.30000000237E+02 0.  0.
        -12    1    1    2    0    0  0.35720025397E+02  0.18896164537E+02 -0.44922625521E+01  0.40659140072E+02  0.00000000000E+00 0.  1.
         11    1    3    3    0    0 -0.29926800253E+01 -0.18943915803E+01  0.93330842918E+01  0.99825505685E+01  0.51100000000E-03 0. -1.
        -11    1    3    3    0    0 -0.34165907639E+02 -0.17606819527E+02 -0.37005823424E+01  0.38613516398E+02  0.51100000000E-03 0.  1.
         12    1    3    3    0    0  0.14385622679E+01  0.60504656987E+00 -0.11402393973E+01  0.19327929619E+01  0.00000000000E+00 0. -1.
</event>
<event>
 7    1  0.4962385E-011  0.5052886E+02  0.7816164E-02  0.1300439E+00
        -11   -1    0    0    0    0  0.00000000000E+00  0.00000000000E+00  0.45593999997E+02  0.45594000000E+02  0.51100000000E-03 0.  1.
         11   -1    0    0    0    0 -0.00000000000E+00 -0.00000000000E+00 -0.45593999997E+02  0.45594000000E+02  0.51100000000E-03 0. -1.
    9900012    2    1    2    0    0 -0.83190644663E+01 -0.19284503760E+02 -0.34814745734E+02  0.50528862781E+02  0.30000008910E+02 0.  0.
        -12    1    1    2    0    0  0.83190644663E+01  0.19284503760E+02  0.34814745734E+02  0.40659137219E+02  0.00000000000E+00 0.  1.
         11    1    3    3    0    0 -0.26274070065E+01 -0.15600591103E+02 -0.39173722344E+02  0.42247629909E+02  0.51100000000E-03 0. -1.
        -11    1    3    3    0    0 -0.47222365021E+01 -0.34155604940E+01  0.43548939724E+01  0.72753469224E+01  0.51100000000E-03 0.  1.
         12    1    3    3    0    0 -0.96942095772E+00 -0.26835216225E+00  0.40826377434E-02  0.10058859499E+01  0.00000000000E+00 0. -1.
</event>
<event>
 7    1  0.4962385E-011  0.5052880E+02  0.7816164E-02  0.1300439E+00
        -11   -1    0    0    0    0  0.00000000000E+00  0.00000000000E+00  0.45593999997E+02  0.45594000000E+02  0.51100000000E-03 0. -1.
         11   -1    0    0    0    0 -0.00000000000E+00 -0.00000000000E+00 -0.45593999997E+02  0.45594000000E+02  0.51100000000E-03 0.  1.
    9900012    2    1    2    0    0 -0.14108084359E+02  0.23593098657E+02  0.29958277205E+02  0.50528797824E+02  0.29999811465E+02 0.  0.
        -12    1    1    2    0    0  0.14108084359E+02 -0.23593098657E+02 -0.29958277205E+02  0.40659202176E+02  0.00000000000E+00 0.  1.
         11    1    3    3    0    0 -0.10600915485E+02  0.34018613296E+01  0.19811075146E+02  0.22725113164E+02  0.51100000000E-03 0. -1.
        -11    1    3    3    0    0  0.14920153587E+01  0.33943401126E+01 -0.38721596216E+01  0.53610889777E+01  0.51100000000E-03 0.  1.
        -12    1    3    3    0    0 -0.49991842325E+01  0.16796897214E+02  0.14019361681E+02  0.22442595682E+02  0.00000000000E+00 0.  1.
</event>
<event>
 7    1  0.4962385E-011  0.5052886E+02  0.7816164E-02  0.1300439E+00
        -11   -1    0    0    0    0  0.00000000000E+00  0.00000000000E+00  0.45593999997E+02  0.45594000000E+02  0.51100000000E-03 0.  1.
         11   -1    0    0    0    0 -0.00000000000E+00 -0.00000000000E+00 -0.45593999997E+02  0.45594000000E+02  0.51100000000E-03 0. -1.
    9900012    2    1    2    0    0  0.58163676644E+00 -0.13960532581E+02 -0.38182861064E+02  0.50528860188E+02  0.30000001027E+02 0.  0.
        -12    1    1    2    0    0 -0.58163676644E+00  0.13960532581E+02  0.38182861064E+02  0.40659139812E+02  0.00000000000E+00 0.  1.
         11    1    3    3    0    0  0.28942752821E+00  0.45881191008E+01 -0.60325146768E+01  0.75845790103E+01  0.51100000000E-03 0. -1.
        -11    1    3    3    0    0 -0.35364268509E+01 -0.15948047495E+02 -0.76991434954E+01  0.18058885475E+02  0.51100000000E-03 0.  1.
        -12    1    3    3    0    0  0.38286360891E+01 -0.26006041866E+01 -0.24451202891E+02  0.24885395703E+02  0.00000000000E+00 0.  1.
</event>
<event>
 7    1  0.4962385E-011  0.5052895E+02  0.7816164E-02  0.1300438E+00
        -11   -1    0    0    0    0  0.00000000000E+00  0.00000000000E+00  0.45593999997E+02  0.45594000000E+02  0.51100000000E-03 0.  1.
         11   -1    0    0    0    0 -0.00000000000E+00 -0.00000000000E+00 -0.45593999997E+02  0.45594000000E+02  0.51100000000E-03 0. -1.
    9900012    2    1    2    0    0  0.17694293597E+02 -0.19046503747E+02 -0.31261809608E+02  0.50528953394E+02  0.30000284336E+02 0.  0.
        -12    1    1    2    0    0 -0.17694293597E+02  0.19046503747E+02  0.31261809608E+02  0.40659046606E+02  0.00000000000E+00 0.  1.
         11    1    3    3    0    0  0.16764106652E+02 -0.20776831868E+01 -0.21510951908E+02  0.27350924875E+02  0.51100000000E-03 0. -1.
        -11    1    3    3    0    0  0.30087962299E+01 -0.18264737759E+02 -0.91832557861E+01  0.20663631996E+02  0.51100000000E-03 0.  1.
        -12    1    3    3    0    0 -0.20786092850E+01  0.12959171989E+01 -0.56760191457E+00  0.25143965239E+01  0.00000000000E+00 0.  1.
</event>
<event>
 7    1  0.4997777E-011  0.5052884E+02  0.7816164E-02  0.1300439E+00
        -11   -1    0    0    0    0  0.00000000000E+00  0.00000000000E+00  0.45593999997E+02  0.45594000000E+02  0.51100000000E-03 0.  1.
         11   -1    0    0    0    0 -0.00000000000E+00 -0.00000000000E+00 -0.45593999997E+02  0.45594000000E+02  0.51100000000E-03 0. -1.
    9900012    2    1    2    0    0  0.32627780567E+02  0.21833241996E+02 -0.10578497954E+02  0.50528841871E+02  0.29999945350E+02 0.  0.
        -12    1    1    2    0    0 -0.32627780567E+02 -0.21833241996E+02  0.10578497954E+02  0.40659158129E+02  0.00000000000E+00 0.  1.
         11    1    3    3    0    0  0.18343437474E+02  0.92856366714E+01 -0.38009648386E+01  0.20908182148E+02  0.51100000000E-03 0. -1.
        -11    1    3    3    0    0 -0.24375584515E+01 -0.12975212770E+01  0.44059476346E+01  0.51997718689E+01  0.51100000000E-03 0.  1.
        -12    1    3    3    0    0  0.16721901545E+02  0.13845126602E+02 -0.11183480750E+02  0.24420887854E+02  0.00000000000E+00 0.  1.
</event>
