<event>
 7    1  0.2584640E-011  0.5052885E+02  0.7816164E-02  0.1300439E+00
        -11   -1    0    0    0    0  0.00000000000E+00  0.00000000000E+00  0.45593999997E+02  0.45594000000E+02  0.51100000000E-03 0. -1.
         11   -1    0    0    0    0 -0.00000000000E+00 -0.00000000000E+00 -0.45593999997E+02  0.45594000000E+02  0.51100000000E-03 0.  1.
    9900012    2    1    2    0    0  0.34357713214E+02  0.20000401723E+02  0.85263329140E+01  0.50528845074E+02  0.29999955086E+02 0.  0.
        -12    1    1    2    0    0 -0.34357713214E+02 -0.20000401723E+02 -0.85263329140E+01  0.40659154926E+02  0.00000000000E+00 0.  1.
         11    1    3    3    0    0  0.13312173752E+02  0.18529384893E+02  0.11393864755E+02  0.25502396531E+02  0.51100000000E-03 0. -1.
        -11    1    3    3    0    0  0.54464069934E+01  0.57686620331E+01 -0.38459337592E+01  0.88165762931E+01  0.51100000000E-03 0.  1.
         12    1    3    3    0    0  0.15599132468E+02 -0.42976452026E+01  0.97840191832E+00  0.16209872250E+02  0.00000000000E+00 0. -1.
</event>
<event>
 7    1  0.2584640E-011  0.5052890E+02  0.7816164E-02  0.1300439E+00
        -11   -1    0    0    0    0  0.00000000000E+00  0.00000000000E+00  0.45593999997E+02  0.45594000000E+02  0.51100000000E-03 0. -1.
         11   -1    0    0    0    0 -0.00000000000E+00 -0.00000000000E+00 -0.45593999997E+02  0.45594000000E+02  0.51100000000E-03 0.  1.
    9900012    2    1    2    0    0 -0.24912694607E+02  0.29384608039E+02  0.13002494024E+02  0.50528900243E+02  0.30000122778E+02 0.  0.
        -12    1    1    2    0    0  0.24912694607E+02 -0.29384608039E+02 -0.13002494024E+02  0.40659099757E+02  0.00000000000E+00 0.  1.
         11    1    3    3    0    0 -0.11312330098E+02  0.49632993286E+01 -0.71968685097E+01  0.14296785271E+02  0.51100000000E-03 0. -1.
        -11    1    3    3    0    0 -0.12066112503E+01  0.61624021966E+01  0.10260153942E+02  0.12029209065E+02  0.51100000000E-03 0.  1.
         12    1    3    3    0    0 -0.12393753259E+02  0.18258906514E+02  0.99392085911E+01  0.24202905907E+02  0.00000000000E+00 0. -1.
</event>
<event>
 7    1  0.2584640E-011  0.5052885E+02  0.7816164E-02  0.1300439E+00
        -11   -1    0    0    0    0  0.00000000000E+00  0.00000000000E+00  0.45593999997E+02  0.45594000000E+02  0.51100000000E-03 0.  1.
         11   -1    0    0    0    0 -0.00000000000E+00 -0.00000000000E+00 -0.45593999997E+02  0.45594000000E+02  0.51100000000E-03 0. -1.
    9900012    2    1    2    0    0  0.19120059977E+02 -0.31790496849E+01 -0.35741895717E+02  0.50528853921E+02  0.29999981978E+02 0.  0.
        -12    1    1    2    0    0 -0.19120059977E+02  0.31790496849E+01  0.35741895717E+02  0.40659146079E+02  0.00000000000E+00 0.  1.
         11    1    3    3    0    0  0.12679202472E+02 -0.37613233073E+01 -0.23424724720E+02  0.26900324474E+02  0.51100000000E-03 0.  1.
        -11    1    3    3    0    0  0.47628324298E+01 -0.49510634793E+01 -0.15552828632E+02  0.17002590422E+02  0.51100000000E-03 0. -1.
        -12    1    3    3    0    0  0.16780250750E+01  0.55333371017E+01  0.32356576349E+01  0.66259390251E+01  0.00000000000E+00 0.  1.
</event>
<event>
 7    1  0.2584640E-011  0.5052885E+02  0.7816164E-02  0.1300439E+00
        -11   -1    0    0    0    0  0.00000000000E+00  0.00000000000E+00  0.45593999997E+02  0.45594000000E+02  0.51100000000E-03 0.  1.
         11   -1    0    0    0    0 -0.00000000000E+00 -0.00000000000E+00 -0.45593999997E+02  0.45594000000E+02  0.51100000000E-03 0. -1.
    9900012    2    1    2    0    0  0.10483397686E+02 -0.66378372626E+01 -0.38719552894E+02  0.50528852360E+02  0.29999977232E+02 0.  0.
        -12    1    1    2    0    0 -0.10483397686E+02  0.66378372626E+01  0.38719552894E+02  0.40659147640E+02  0.00000000000E+00 0.  1.
         11    1    3    3    0    0 -0.10888073055E+01  0.26471402020E+01  0.31255769990E+01  0.42381699394E+01  0.51100000000E-03 0. -1.
        -11    1    3    3    0    0  0.63783661495E+01 -0.60705127927E+01 -0.79936969562E+01  0.11892597344E+02  0.51100000000E-03 0.  1.
         12    1    3    3    0    0  0.51938388423E+01 -0.32144646718E+01 -0.33851432936E+02  0.34398085076E+02  0.00000000000E+00 0. -1.
</event>
<event>
 7    1  0.2584640E-011  0.5052886E+02  0.7816164E-02  0.1300439E+00
        -11   -1    0    0    0    0  0.00000000000E+00  0.00000000000E+00  0.45593999997E+02  0.45594000000E+02  0.51100000000E-03 0.  1.
         11   -1    0    0    0    0 -0.00000000000E+00 -0.00000000000E+00 -0.45593999997E+02  0.45594000000E+02  0.51100000000E-03 0. -1.
    9900012    2    1    2    0    0 -0.19507240755E+02  0.20793642973E+02 -0.28987200314E+02  0.50528858199E+02  0.29999994980E+02 0.  0.
        -12    1    1    2    0    0  0.19507240755E+02 -0.20793642973E+02  0.28987200314E+02  0.40659141801E+02  0.00000000000E+00 0.  1.
         11    1    3    3    0    0 -0.11357652164E+02  0.14785535263E+02 -0.72293915149E+01  0.19996810186E+02  0.51100000000E-03 0. -1.
        -11    1    3    3    0    0  0.35174134644E+01 -0.28626899908E+01 -0.29802108048E+00  0.45448881492E+01  0.51100000000E-03 0.  1.
         12    1    3    3    0    0 -0.11667002056E+02  0.88707977012E+01 -0.21459787719E+02  0.25987159863E+02  0.00000000000E+00 0. -1.
</event>
<event>
 7    1  0.2584640E-011  0.5052887E+02  0.7816164E-02  0.1300439E+00
        -11   -1    0    0    0    0  0.00000000000E+00  0.00000000000E+00  0.45593999997E+02  0.45594000000E+02  0.51100000000E-03 0.  1.
         11   -1    0    0    0    0 -0.00000000000E+00 -0.00000000000E+00 -0.45593999997E+02  0.45594000000E+02  0.51100000000E-03 0. -1.
    9900012    2    1    2    0    0  0.32231675718E+02  0.15874154160E+02 -0.19034059344E+02  0.50528866893E+02  0.30000021408E+02 0.  0.
        -12    1    1    2    0    0 -0.32231675718E+02 -0.15874154160E+02  0.19034059344E+02  0.40659133107E+02  0.00000000000E+00 0.  1.
         11    1    3    3    0    0  0.39012267576E+01 -0.81918916242E+01 -0.49706659927E+01  0.10345732418E+02  0.51100000000E-03 0. -1.
        -11    1    3    3    0    0  0.58716893915E+01  0.38091027604E+01 -0.44288270972E+00  0.70129983249E+01  0.51100000000E-03 0.  1.
         12    1    3    3    0    0  0.22458759569E+02  0.20256943024E+02 -0.13620510642E+02  0.33170136150E+02  0.00000000000E+00 0. -1.
</event>
<event>
 7    1  0.2584640E-011  0.5052885E+02  0.7816164E-02  0.1300439E+00
        -11   -1    0    0    0    0  0.00000000000E+00  0.00000000000E+00  0.45593999997E+02  0.45594000000E+02  0.51100000000E-03 0.  1.
         11   -1    0    0    0    0 -0.00000000000E+00 -0.00000000000E+00 -0.45593999997E+02  0.45594000000E+02  0.51100000000E-03 0. -1.
    9900012    2    1    2    0    0  0.22964583748E+02 -0.32862731237E+02  0.67701567763E+01  0.50528853011E+02  0.29999979212E+02 0.  0.
        -12    1    1    2    0    0 -0.22964583748E+02  0.32862731237E+02 -0.67701567763E+01  0.40659146989E+02  0.00000000000E+00 0.  1.
         11    1    3    3    0    0 -0.25008026408E+01 -0.12167431737E+01 -0.64034750049E+01  0.69813301167E+01  0.51100000000E-03 0. -1.
        -11    1    3    3    0    0  0.75489003868E+01 -0.42762680398E+01  0.41251926989E+01  0.96067466117E+01  0.51100000000E-03 0.  1.
        -12    1    3    3    0    0  0.17916486002E+02 -0.27369720024E+02  0.90484390822E+01  0.33940776283E+02  0.00000000000E+00 0.  1.
</event>
<event>
 7    1  0.2584640E-011  0.5052891E+02  0.7816164E-02  0.1300439E+00
        -11   -1    0    0    0    0  0.00000000000E+00  0.00000000000E+00  0.45593999997E+02  0.45594000000E+02  0.51100000000E-03 0.  1.
         11   -1    0    0    0    0 -0.00000000000E+00 -0.00000000000E+00 -0.45593999997E+02  0.45594000000E+02  0.51100000000E-03 0. -1.
    9900012    2    1    2    0    0 -0.21743078895E+02 -0.41260041906E+01  0.34108297834E+02  0.50528912805E+02  0.30000160962E+02 0.  0.
        -12    1    1    2    0    0  0.21743078895E+02  0.41260041906E+01 -0.34108297834E+02  0.40659087195E+02  0.00000000000E+00 0.  1.
         11    1    3    3    0    0 -0.11897537254E+02 -0.27799739553E+01  0.13419035019E+02  0.18148006750E+02  0.51100000000E-03 0. -1.
        -11    1    3    3    0    0 -0.15422343294E+02 -0.25781272482E+01  0.62250203691E+01  0.16829922508E+02  0.51100000000E-03 0.  1.
        -12    1    3    3    0    0  0.55768016534E+01  0.12320970128E+01  0.14464242446E+02  0.15550983546E+02  0.00000000000E+00 0.  1.
</event>
<event>
 7    1  0.2584640E-011  0.5052886E+02  0.7816164E-02  0.1300439E+00
        -11   -1    0    0    0    0  0.00000000000E+00  0.00000000000E+00  0.45593999997E+02  0.45594000000E+02  0.51100000000E-03 0.  1.
         11   -1    0    0    0    0 -0.00000000000E+00 -0.00000000000E+00 -0.45593999997E+02  0.45594000000E+02  0.51100000000E-03 0. -1.
    9900012    2    1    2    0    0 -0.67918567026E+01 -0.51851510821E+01 -0.39751107368E+02  0.50528860238E+02  0.30000001179E+02 0.  0.
        -12    1    1    2    0    0  0.67918567026E+01  0.51851510821E+01  0.39751107368E+02  0.40659139762E+02  0.00000000000E+00 0.  1.
         11    1    3    3    0    0  0.30185206055E+01 -0.25634545721E+01 -0.34217269240E+02  0.34445671434E+02  0.51100000000E-03 0. -1.
        -11    1    3    3    0    0 -0.50359190219E+01 -0.65700675418E+01 -0.54048296944E+01  0.98862759513E+01  0.51100000000E-03 0.  1.
        -12    1    3    3    0    0 -0.47744582861E+01  0.39483710318E+01 -0.12900843350E+00  0.61969128529E+01  0.00000000000E+00 0.  1.
</event>
<event>
 7    1  0.2584640E-011  0.5052886E+02  0.7816164E-02  0.1300439E+00
        -11   -1    0    0    0    0  0.00000000000E+00  0.00000000000E+00  0.45593999997E+02  0.45594000000E+02  0.51100000000E-03 0.  1.
         11   -1    0    0    0    0 -0.00000000000E+00 -0.00000000000E+00 -0.45593999997E+02  0.45594000000E+02  0.51100000000E-03 0. -1.
    9900012    2    1    2    0    0  0.17936352430E+01  0.38399931594E+02 -0.13243619594E+02  0.50528864080E+02  0.30000012859E+02 0.  0.
        -12    1    1    2    0    0 -0.17936352430E+01 -0.38399931594E+02  0.13243619594E+02  0.40659135920E+02  0.00000000000E+00 0.  1.
         11    1    3    3    0    0 -0.92931562912E+01  0.81305105639E+01 -0.35514576402E+01  0.12848377622E+02  0.51100000000E-03 0. -1.
        -11    1    3    3    0    0  0.31728128382E+01  0.27808400375E+02 -0.60899631873E+01  0.28643699562E+02  0.51100000000E-03 0.  1.
        -12    1    3    3    0    0  0.79139786960E+01  0.24610206552E+01 -0.36021987664E+01  0.90367868968E+01  0.00000000000E+00 0.  1.
</event>
<event>
 7    1  0.2584640E-011  0.5052886E+02  0.7816164E-02  0.1300439E+00
        -11   -1    0    0    0    0  0.00000000000E+00  0.00000000000E+00  0.45593999997E+02  0.45594000000E+02  0.51100000000E-03 0.  1.
         11   -1    0    0    0    0 -0.00000000000E+00 -0.00000000000E+00 -0.45593999997E+02  0.45594000000E+02  0.51100000000E-03 0. -1.
    9900012    2    1    2    0    0 -0.70588559888E+01 -0.12214430289E+01 -0.40023075639E+02  0.50528856446E+02  0.29999989652E+02 0.  0.
        -12    1    1    2    0    0  0.70588559888E+01  0.12214430289E+01  0.40023075639E+02  0.40659143554E+02  0.00000000000E+00 0.  1.
         11    1    3    3    0    0 -0.11684003997E+02 -0.42311460651E+01 -0.32148465097E+02  0.34466539640E+02  0.51100000000E-03 0. -1.
        -11    1    3    3    0    0  0.87265552241E+01  0.41045508397E+01 -0.45127227853E+01  0.10647289367E+02  0.51100000000E-03 0.  1.
         12    1    3    3    0    0 -0.41014072156E+01 -0.10948478035E+01 -0.33618877573E+01  0.54150274379E+01  0.00000000000E+00 0. -1.
</event>
<event>
 7    1  0.2584640E-011  0.5052886E+02  0.7816164E-02  0.1300439E+00
        -11   -1    0    0    0    0  0.00000000000E+00  0.00000000000E+00  0.45593999997E+02  0.45594000000E+02  0.51100000000E-03 0. -1.
         11   -1    0    0    0    0 -0.00000000000E+00 -0.00000000000E+00 -0.45593999997E+02  0.45594000000E+02  0.51100000000E-03 0.  1.
    9900012    2    1    2    0    0 -0.25149353628E+02 -0.26036217953E+02  0.18514625673E+02  0.50528855924E+02  0.29999988066E+02 0.  0.
        -12    1    1    2    0    0  0.25149353628E+02  0.26036217953E+02 -0.18514625673E+02  0.40659144076E+02  0.00000000000E+00 0.  1.
         11    1    3    3    0    0  0.18786868711E+01 -0.67798363683E+01  0.83307357706E+01  0.10903981121E+02  0.51100000000E-03 0. -1.
        -11    1    3    3    0    0 -0.99158146615E+01 -0.32258733651E+01  0.12248910351E+02  0.16086188002E+02  0.51100000000E-03 0.  1.
        -12    1    3    3    0    0 -0.17112225837E+02 -0.16030508220E+02 -0.20650204484E+01  0.23538686801E+02  0.00000000000E+00 0.  1.
</event>
<event>
 7    1  0.2584640E-011  0.5052887E+02  0.7816164E-02  0.1300439E+00
        -11   -1    0    0    0    0  0.00000000000E+00  0.00000000000E+00  0.45593999997E+02  0.45594000000E+02  0.51100000000E-03 0.  1.
         11   -1    0    0    0    0 -0.00000000000E+00 -0.00000000000E+00 -0.45593999997E+02  0.45594000000E+02  0.51100000000E-03 0. -1.
    9900012    2    1    2    0    0 -0.48136493997E+01  0.22690490884E+01 -0.40309371059E+02  0.50528865731E+02  0.30000017877E+02 0.  0.
        -12    1    1    2    0    0  0.48136493997E+01 -0.22690490884E+01  0.40309371059E+02  0.40659134269E+02  0.00000000000E+00 0.  1.
         11    1    3    3    0    0  0.51616819553E+01 -0.47122033720E+01 -0.26087000705E+02  0.27007025517E+02  0.51100000000E-03 0. -1.
        -11    1    3    3    0    0 -0.67712910875E-01  0.80489557812E-01 -0.11033273785E+02  0.11033775160E+02  0.51100000000E-03 0.  1.
        -12    1    3    3    0    0 -0.99076184442E+01  0.69007629026E+01 -0.31890965686E+01  0.12488065054E+02  0.00000000000E+00 0.  1.
</event>
<event>
 7    1  0.2584640E-011  0.5052884E+02  0.7816164E-02  0.1300439E+00
        -11   -1    0    0    0    0  0.00000000000E+00  0.00000000000E+00  0.45593999997E+02  0.45594000000E+02  0.51100000000E-03 0.  1.
         11   -1    0    0    0    0 -0.00000000000E+00 -0.00000000000E+00 -0.45593999997E+02  0.45594000000E+02  0.51100000000E-03 0. -1.
    9900012    2    1    2    0    0 -0.12000106288E+02  0.14581137170E+02 -0.36007706006E+02  0.50528843542E+02  0.29999950430E+02 0.  0.
        -12    1    1    2    0    0  0.12000106288E+02 -0.14581137170E+02  0.36007706006E+02  0.40659156458E+02  0.00000000000E+00 0.  1.
         11    1    3    3    0    0  0.30888800254E+01  0.30224859072E+01 -0.22090983358E+02  0.22509734491E+02  0.51100000000E-03 0. -1.
        -11    1    3    3    0    0 -0.44784403741E+01 -0.34160763235E+01 -0.13987332341E+01  0.58036592382E+01  0.51100000000E-03 0.  1.
         12    1    3    3    0    0 -0.10610545939E+02  0.14974727586E+02 -0.12517989414E+02  0.22215449812E+02  0.00000000000E+00 0. -1.
</event>
<event>
 7    1  0.2584640E-011  0.5052886E+02  0.7816164E-02  0.1300439E+00
        -11   -1    0    0    0    0  0.00000000000E+00  0.00000000000E+00  0.45593999997E+02  0.45594000000E+02  0.51100000000E-03 0.  1.
         11   -1    0    0    0    0 -0.00000000000E+00 -0.00000000000E+00 -0.45593999997E+02  0.45594000000E+02  0.51100000000E-03 0. -1.
    9900012    2    1    2    0    0  0.14085246617E+02  0.14671866671E+02 -0.35206648454E+02  0.50528856634E+02  0.29999990224E+02 0.  0.
        -12    1    1    2    0    0 -0.14085246617E+02 -0.14671866671E+02  0.35206648454E+02  0.40659143366E+02  0.00000000000E+00 0.  1.
         11    1    3    3    0    0  0.82889498598E+01 -0.15398423079E+01 -0.57278572519E+01  0.10192455694E+02  0.51100000000E-03 0. -1.
        -11    1    3    3    0    0  0.61709464179E+00  0.99746248171E+01 -0.24223342024E+00  0.99966305988E+01  0.51100000000E-03 0.  1.
         12    1    3    3    0    0  0.51792021157E+01  0.62370841619E+01 -0.29236557782E+02  0.30339770341E+02  0.00000000000E+00 0. -1.
</event>
<event>
 7    1  0.2584640E-011  0.5052886E+02  0.7816164E-02  0.1300439E+00
        -11   -1    0    0    0    0  0.00000000000E+00  0.00000000000E+00  0.45593999997E+02  0.45594000000E+02  0.51100000000E-03 0.  1.
         11   -1    0    0    0    0 -0.00000000000E+00 -0.00000000000E+00 -0.45593999997E+02  0.45594000000E+02  0.51100000000E-03 0. -1.
    9900012    2    1    2    0    0  0.27541571149E+02  0.16390926391E+02 -0.25019295762E+02  0.50528858718E+02  0.29999996560E+02 0.  0.
        -12    1    1    2    0    0 -0.27541571149E+02 -0.16390926391E+02  0.25019295762E+02  0.40659141282E+02  0.00000000000E+00 0.  1.
         11    1    3    3    0    0  0.11337563011E+02  0.10028904632E+02  0.39179801734E-01  0.15136736717E+02  0.51100000000E-03 0. -1.
        -11    1    3    3    0    0  0.16703661712E+02 -0.18017541443E+00 -0.11354045483E+02  0.20197998091E+02  0.51100000000E-03 0.  1.
        -12    1    3    3    0    0 -0.49965357368E+00  0.65421971743E+01 -0.13704430081E+02  0.15194123910E+02  0.00000000000E+00 0.  1.
</event>
<event>
 7    1  0.2584640E-011  0.5052886E+02  0.7816164E-02  0.1300439E+00
        -11   -1    0    0    0    0  0.00000000000E+00  0.00000000000E+00  0.45593999997E+02  0.45594000000E+02  0.51100000000E-03 0. -1.
         11   -1    0    0    0    0 -0.00000000000E+00 -0.00000000000E+00 -0.45593999997E+02  0.45594000000E+02  0.51100000000E-03 0.  1.
    9900012    2    1    2    0    0 -0.30469756625E+02  0.26858965536E+02  0.18317327824E+01  0.50528863961E+02  0.30000012496E+02 0.  0.
        -12    1    1    2    0    0  0.30469756625E+02 -0.26858965536E+02 -0.18317327824E+01  0.40659136039E+02  0.00000000000E+00 0.  1.
         11    1    3    3    0    0 -0.72497900990E+01  0.10197784847E+02  0.86727916599E+01  0.15224046364E+02  0.51100000000E-03 0. -1.
        -11    1    3    3    0    0 -0.11443338158E+02  0.15950237308E+02 -0.11348722251E+02  0.22674954363E+02  0.51100000000E-03 0.  1.
         12    1    3    3    0    0 -0.11776628368E+02  0.71094338048E+00  0.45076633733E+01  0.12629863233E+02  0.00000000000E+00 0. -1.
</event>
<event>
 7    1  0.2584640E-011  0.5052886E+02  0.7816164E-02  0.1300439E+00
        -11   -1    0    0    0    0  0.00000000000E+00  0.00000000000E+00  0.45593999997E+02  0.45594000000E+02  0.51100000000E-03 0.  1.
         11   -1    0    0    0    0 -0.00000000000E+00 -0.00000000000E+00 -0.45593999997E+02  0.45594000000E+02  0.51100000000E-03 0. -1.
    9900012    2    1    2    0    0  0.25015403317E+02 -0.78555457348E+01 -0.31075483158E+02  0.50528860125E+02  0.30000000836E+02 0.  0.
        -12    1    1    2    0    0 -0.25015403317E+02  0.78555457348E+01  0.31075483158E+02  0.40659139875E+02  0.00000000000E+00 0.  1.
         11    1    3    3    0    0  0.10388895140E+02 -0.43229810849E+01 -0.15810733504E+02  0.19406097029E+02  0.51100000000E-03 0. -1.
        -11    1    3    3    0    0  0.16362270996E+01  0.46738517371E+01 -0.14955849853E+02  0.15754350964E+02  0.51100000000E-03 0.  1.
         12    1    3    3    0    0  0.12990281077E+02 -0.82064163870E+01 -0.30889979975E+00  0.15368412132E+02  0.00000000000E+00 0. -1.
</event>
<event>
 7    1  0.2584640E-011  0.5052886E+02  0.7816164E-02  0.1300439E+00
        -11   -1    0    0    0    0  0.00000000000E+00  0.00000000000E+00  0.45593999997E+02  0.45594000000E+02  0.51100000000E-03 0.  1.
         11   -1    0    0    0    0 -0.00000000000E+00 -0.00000000000E+00 -0.45593999997E+02  0.45594000000E+02  0.51100000000E-03 0. -1.
    9900012    2    1    2    0    0 -0.36110544465E+02 -0.11558941641E+02 -0.14682814045E+02  0.50528861032E+02  0.30000003592E+02 0.  0.
        -12    1    1    2    0    0  0.36110544465E+02  0.11558941641E+02  0.14682814045E+02  0.40659138968E+02  0.00000000000E+00 0.  1.
         11    1    3    3    0    0 -0.14462969201E+02  0.84753839156E+00  0.40097372329E+00  0.14493328797E+02  0.51100000000E-03 0. -1.
        -11    1    3    3    0    0  0.21068569782E+00  0.41857280509E+01  0.88738884066E+00  0.42839429262E+01  0.51100000000E-03 0.  1.
         12    1    3    3    0    0 -0.21858260961E+02 -0.16592208083E+02 -0.15971176609E+02  0.31751589308E+02  0.00000000000E+00 0. -1.
</event>
<event>
 7    1  0.2584640E-011  0.5052886E+02  0.7816164E-02  0.1300439E+00
        -11   -1    0    0    0    0  0.00000000000E+00  0.00000000000E+00  0.45593999997E+02  0.45594000000E+02  0.51100000000E-03 0.  1.
         11   -1    0    0    0    0 -0.00000000000E+00 -0.00000000000E+00 -0.45593999997E+02  0.45594000000E+02  0.51100000000E-03 0. -1.
    9900012    2    1    2    0    0 -0.33376602468E+02 -0.22189867140E+02 -0.68394346329E+01  0.50528860042E+02  0.30000000583E+02 0.  0.
        -12    1    1    2    0    0  0.33376602468E+02  0.22189867140E+02  0.68394346329E+01  0.40659139958E+02  0.00000000000E+00 0.  1.
         11    1    3    3    0    0 -0.43166422985E+01 -0.70191174207E+01  0.27718753995E+01  0.86939463761E+01  0.51100000000E-03 0. -1.
        -11    1    3    3    0    0 -0.13525004929E+02 -0.20070875963E+02 -0.35859582192E+01  0.24466812560E+02  0.51100000000E-03 0.  1.
         12    1    3    3    0    0 -0.15534955241E+02  0.49001262434E+01 -0.60253518132E+01  0.17368101105E+02  0.00000000000E+00 0. -1.
</event>
<event>
 7    1  0.2584640E-011  0.5052884E+02  0.7816164E-02  0.1300439E+00
        -11   -1    0    0    0    0  0.00000000000E+00  0.00000000000E+00  0.45593999997E+02  0.45594000000E+02  0.51100000000E-03 0. -1.
         11   -1    0    0    0    0 -0.00000000000E+00 -0.00000000000E+00 -0.45593999997E+02  0.45594000000E+02  0.51100000000E-03 0.  1.
    9900012    2    1    2    0    0  0.36222364651E+02 -0.89371621245E+01 -0.16162764161E+02  0.50528837280E+02  0.29999931396E+02 0.  0.
        -12    1    1    2    0    0 -0.36222364651E+02  0.89371621245E+01  0.16162764161E+02  0.40659162720E+02  0.00000000000E+00 0.  1.
         11    1    3    3    0    0  0.14576818692E+02 -0.51428910314E+01 -0.86504649842E+01  0.17713371109E+02  0.51100000000E-03 0. -1.
        -11    1    3    3    0    0  0.12690753592E+01 -0.89459730791E+01  0.27245852977E+01  0.94373911599E+01  0.51100000000E-03 0.  1.
         12    1    3    3    0    0  0.20376470600E+02  0.51517019860E+01 -0.10236884475E+02  0.23378075011E+02  0.00000000000E+00 0. -1.
</event>
<event>
 7    1  0.2584640E-011  0.5052887E+02  0.7816164E-02  0.1300439E+00
        -11   -1    0    0    0    0  0.00000000000E+00  0.00000000000E+00  0.45593999997E+02  0.45594000000E+02  0.51100000000E-03 0.  1.
         11   -1    0    0    0    0 -0.00000000000E+00 -0.00000000000E+00 -0.45593999997E+02  0.45594000000E+02  0.51100000000E-03 0. -1.
    9900012    2    1    2    0    0  0.28763884334E+02 -0.28346370031E+02  0.47209163142E+01  0.50528870807E+02  0.30000033304E+02 0.  0.
        -12    1    1    2    0    0 -0.28763884334E+02  0.28346370031E+02 -0.47209163142E+01  0.40659129193E+02  0.00000000000E+00 0.  1.
         11    1    3    3    0    0  0.69707352207E+00 -0.57072540842E+01  0.46731662711E+01  0.74092606875E+01  0.51100000000E-03 0. -1.
        -11    1    3    3    0    0  0.24928206342E+01 -0.14843235687E+02 -0.51020016487E+01  0.15892332159E+02  0.51100000000E-03 0.  1.
         12    1    3    3    0    0  0.25573990178E+02 -0.77958802601E+01  0.51497516918E+01  0.27227277960E+02  0.00000000000E+00 0. -1.
</event>
<event>
 7    1  0.2584640E-011  0.5052886E+02  0.7816164E-02  0.1300439E+00
        -11   -1    0    0    0    0  0.00000000000E+00  0.00000000000E+00  0.45593999997E+02  0.45594000000E+02  0.51100000000E-03 0.  1.
         11   -1    0    0    0    0 -0.00000000000E+00 -0.00000000000E+00 -0.45593999997E+02  0.45594000000E+02  0.51100000000E-03 0. -1.
    9900012    2    1    2    0    0 -0.72663477757E+01  0.25568011571E+02 -0.30767563969E+02  0.50528855663E+02  0.29999987272E+02 0.  0.
        -12    1    1    2    0    0  0.72663477757E+01 -0.25568011571E+02  0.30767563969E+02  0.40659144337E+02  0.00000000000E+00 0.  1.
         11    1    3    3    0    0  0.71458463063E+01  0.38428472229E+01 -0.76970732815E+01  0.11183717252E+02  0.51100000000E-03 0.  1.
        -11    1    3    3    0    0  0.37853291365E+00  0.15024269664E+02 -0.14916985203E+02  0.21175183917E+02  0.51100000000E-03 0. -1.
        -12    1    3    3    0    0 -0.14790726996E+02  0.67008946839E+01 -0.81535054844E+01  0.18169954494E+02  0.00000000000E+00 0.  1.
</event>
<event>
 7    1  0.2584640E-011  0.5052886E+02  0.7816164E-02  0.1300439E+00
        -11   -1    0    0    0    0  0.00000000000E+00  0.00000000000E+00  0.45593999997E+02  0.45594000000E+02  0.51100000000E-03 0. -1.
         11   -1    0    0    0    0 -0.00000000000E+00 -0.00000000000E+00 -0.45593999997E+02  0.45594000000E+02  0.51100000000E-03 0.  1.
    9900012    2    1    2    0    0  0.27112105817E+02 -0.30290701383E+02  0.75681640356E+00  0.50528860275E+02  0.30000001292E+02 0.  0.
        -12    1    1    2    0    0 -0.27112105817E+02  0.30290701383E+02 -0.75681640356E+00  0.40659139725E+02  0.00000000000E+00 0.  1.
         11    1    3    3    0    0 -0.35640020933E+01  0.24319084070E+01  0.20735344757E+01  0.47870486632E+01  0.51100000000E-03 0.  1.
        -11    1    3    3    0    0  0.15281372182E+02 -0.18601409518E+02  0.34365347567E+01  0.24317535715E+02  0.51100000000E-03 0. -1.
        -12    1    3    3    0    0  0.15394735728E+02 -0.14121200272E+02 -0.47532528288E+01  0.21424275897E+02  0.00000000000E+00 0.  1.
</event>
<event>
 7    1  0.2584640E-011  0.5052887E+02  0.7816164E-02  0.1300439E+00
        -11   -1    0    0    0    0  0.00000000000E+00  0.00000000000E+00  0.45593999997E+02  0.45594000000E+02  0.51100000000E-03 0. -1.
         11   -1    0    0    0    0 -0.00000000000E+00 -0.00000000000E+00 -0.45593999997E+02  0.45594000000E+02  0.51100000000E-03 0.  1.
    9900012    2    1    2    0    0  0.39924010048E+01  0.93158269930E+01  0.39375637586E+02  0.50528871460E+02  0.30000035290E+02 0.  0.
        -12    1    1    2    0    0 -0.39924010048E+01 -0.93158269930E+01 -0.39375637586E+02  0.40659128540E+02  0.00000000000E+00 0.  1.
         11    1    3    3    0    0 -0.29024268849E+01  0.10719648796E+02  0.32836429684E+02  0.34663613008E+02  0.51100000000E-03 0. -1.
        -11    1    3    3    0    0 -0.32814202195E+01 -0.10284036623E+01  0.41793309996E+01  0.54122214122E+01  0.51100000000E-03 0.  1.
         12    1    3    3    0    0  0.10176248109E+02 -0.37541814064E+00  0.23598769018E+01  0.10453037040E+02  0.00000000000E+00 0. -1.
</event>
<event>
 7    1  0.2584640E-011  0.5052886E+02  0.7816164E-02  0.1300439E+00
        -11   -1    0    0    0    0  0.00000000000E+00  0.00000000000E+00  0.45593999997E+02  0.45594000000E+02  0.51100000000E-03 0.  1.
         11   -1    0    0    0    0 -0.00000000000E+00 -0.00000000000E+00 -0.45593999997E+02  0.45594000000E+02  0.51100000000E-03 0. -1.
    9900012    2    1    2    0    0 -0.35461170333E+02  0.19803759706E+02  0.18659775024E+01  0.50528863611E+02  0.30000011431E+02 0.  0.
        -12    1    1    2    0    0  0.35461170333E+02 -0.19803759706E+02 -0.18659775024E+01  0.40659136389E+02  0.00000000000E+00 0.  1.
         11    1    3    3    0    0 -0.15211377421E+01 -0.10402941616E+01 -0.10909906298E+01  0.21415725037E+01  0.51100000000E-03 0.  1.
        -11    1    3    3    0    0 -0.38346299560E+02  0.21288923068E+02  0.29501142065E+01  0.43958618147E+02  0.51100000000E-03 0. -1.
         12    1    3    3    0    0  0.44062669690E+01 -0.44486920048E+00  0.68539256784E-02  0.44286729597E+01  0.00000000000E+00 0. -1.
</event>
<event>
 7    1  0.2584640E-011  0.5052889E+02  0.7816164E-02  0.1300439E+00
        -11   -1    0    0    0    0  0.00000000000E+00  0.00000000000E+00  0.45593999997E+02  0.45594000000E+02  0.51100000000E-03 0. -1.
         11   -1    0    0    0    0 -0.00000000000E+00 -0.00000000000E+00 -0.45593999997E+02  0.45594000000E+02  0.51100000000E-03 0.  1.
    9900012    2    1    2    0    0  0.38506923265E+02 -0.96468602663E+01  0.87930868544E+01  0.50528887506E+02  0.30000084063E+02 0.  0.
        -12    1    1    2    0    0 -0.38506923265E+02  0.96468602663E+01 -0.87930868544E+01  0.40659112494E+02  0.00000000000E+00 0.  1.
         11    1    3    3    0    0  0.86161117612E+00 -0.14477727090E+01 -0.18831577115E+01  0.25267969572E+01  0.51100000000E-03 0. -1.
        -11    1    3    3    0    0  0.51930737522E+01  0.71408795966E+01 -0.33779981611E+01  0.94536261956E+01  0.51100000000E-03 0.  1.
         12    1    3    3    0    0  0.32452238337E+02 -0.15339967154E+02  0.14054242727E+02  0.38548464353E+02  0.00000000000E+00 0. -1.
</event>
<event>
 7    1  0.2584640E-011  0.5052887E+02  0.7816164E-02  0.1300439E+00
        -11   -1    0    0    0    0  0.00000000000E+00  0.00000000000E+00  0.45593999997E+02  0.45594000000E+02  0.51100000000E-03 0.  1.
         11   -1    0    0    0    0 -0.00000000000E+00 -0.00000000000E+00 -0.45593999997E+02  0.45594000000E+02  0.51100000000E-03 0. -1.
    9900012    2    1    2    0    0 -0.26569992828E+02  0.26530089756E+02 -0.15599838130E+02  0.50528866573E+02  0.30000020436E+02 0.  0.
        -12    1    1    2    0    0  0.26569992828E+02 -0.26530089756E+02  0.15599838130E+02  0.40659133427E+02  0.00000000000E+00 0.  1.
         11    1    3    3    0    0  0.95008602445E+00 -0.38091179426E+01 -0.39058897698E+01  0.55378712616E+01  0.51100000000E-03 0.  1.
        -11    1    3    3    0    0 -0.11234989153E+02  0.22636462235E+02 -0.87133243897E+01  0.26731188263E+02  0.51100000000E-03 0. -1.
         12    1    3    3    0    0 -0.16285089700E+02  0.77027454640E+01 -0.29806239705E+01  0.18259807049E+02  0.00000000000E+00 0. -1.
</event>
<event>
 7    1  0.2584640E-011  0.5052886E+02  0.7816164E-02  0.1300439E+00
        -11   -1    0    0    0    0  0.00000000000E+00  0.00000000000E+00  0.45593999997E+02  0.45594000000E+02  0.51100000000E-03 0. -1.
         11   -1    0    0    0    0 -0.00000000000E+00 -0.00000000000E+00 -0.45593999997E+02  0.45594000000E+02  0.51100000000E-03 0.  1.
    9900012    2    1    2    0    0  0.31433945017E+02 -0.38368901071E+01  0.25501984801E+02  0.50528857685E+02  0.29999993418E+02 0.  0.
        -12    1    1    2    0    0 -0.31433945017E+02  0.38368901071E+01 -0.25501984801E+02  0.40659142315E+02  0.00000000000E+00 0.  1.
         11    1    3    3    0    0  0.15761816651E+02  0.35780713886E+01  0.92848990963E+01  0.18639925174E+02  0.51100000000E-03 0. -1.
        -11    1    3    3    0    0  0.12223855422E+02  0.59901252913E+01  0.82874376841E+01  0.15936934022E+02  0.51100000000E-03 0.  1.
         12    1    3    3    0    0  0.34482729444E+01 -0.13405086787E+02  0.79296480203E+01  0.15951998489E+02  0.00000000000E+00 0. -1.
</event>
<event>
 7    1  0.2584640E-011  0.5052887E+02  0.7816164E-02  0.1300439E+00
        -11   -1    0    0    0    0  0.00000000000E+00  0.00000000000E+00  0.45593999997E+02  0.45594000000E+02  0.51100000000E-03 0.  1.
         11   -1    0    0    0    0 -0.00000000000E+00 -0.00000000000E+00 -0.45593999997E+02  0.45594000000E+02  0.51100000000E-03 0. -1.
    9900012    2    1    2    0    0  0.37671032894E+02 -0.15298406508E+02 -0.13112748501E+00  0.50528866274E+02  0.30000019525E+02 0.  0.
        -12    1    1    2    0    0 -0.37671032894E+02  0.15298406508E+02  0.13112748501E+00  0.40659133726E+02  0.00000000000E+00 0.  1.
         11    1    3    3    0    0  0.34281861622E+02 -0.18248380660E+02 -0.19598035299E+00  0.38836681649E+02  0.51100000000E-03 0. -1.
        -11    1    3    3    0    0  0.35396118675E+01  0.40184490063E+00 -0.49303072487E+01  0.60826196104E+01  0.51100000000E-03 0.  1.
        -12    1    3    3    0    0 -0.15044059558E+00  0.25481292513E+01  0.49951601167E+01  0.56095650140E+01  0.00000000000E+00 0.  1.
</event>
<event>
 7    1  0.2584640E-011  0.5052885E+02  0.7816164E-02  0.1300439E+00
        -11   -1    0    0    0    0  0.00000000000E+00  0.00000000000E+00  0.45593999997E+02  0.45594000000E+02  0.51100000000E-03 0. -1.
         11   -1    0    0    0    0 -0.00000000000E+00 -0.00000000000E+00 -0.45593999997E+02  0.45594000000E+02  0.51100000000E-03 0.  1.
    9900012    2    1    2    0    0  0.22062402970E+02 -0.14832967942E+02  0.30763619419E+02  0.50528845526E+02  0.29999956461E+02 0.  0.
        -12    1    1    2    0    0 -0.22062402970E+02  0.14832967942E+02 -0.30763619419E+02  0.40659154474E+02  0.00000000000E+00 0.  1.
         11    1    3    3    0    0  0.80328752424E+01 -0.13046681581E+01 -0.26296853343E+01  0.85524551376E+01  0.51100000000E-03 0. -1.
        -11    1    3    3    0    0  0.66357007969E+01 -0.10133069665E+02  0.62299441242E+01  0.13620713269E+02  0.51100000000E-03 0.  1.
         12    1    3    3    0    0  0.73938269305E+01 -0.33952301182E+01  0.27163360629E+02  0.28355677119E+02  0.00000000000E+00 0. -1.
</event>
<event>
 7    1  0.2584640E-011  0.5052886E+02  0.7816164E-02  0.1300439E+00
        -11   -1    0    0    0    0  0.00000000000E+00  0.00000000000E+00  0.45593999997E+02  0.45594000000E+02  0.51100000000E-03 0.  1.
         11   -1    0    0    0    0 -0.00000000000E+00 -0.00000000000E+00 -0.45593999997E+02  0.45594000000E+02  0.51100000000E-03 0. -1.
    9900012    2    1    2    0    0 -0.23689879119E+02  0.23606499579E+02 -0.23123334003E+02  0.50528858710E+02  0.29999996534E+02 0.  0.
        -12    1    1    2    0    0  0.23689879119E+02 -0.23606499579E+02  0.23123334003E+02  0.40659141290E+02  0.00000000000E+00 0.  1.
         11    1    3    3    0    0 -0.28325053794E+01  0.10080570458E+02  0.17449061050E+01  0.10615351387E+02  0.51100000000E-03 0. -1.
        -11    1    3    3    0    0  0.34716947519E+01  0.57320511246E+00 -0.40987287322E+01  0.54019261409E+01  0.51100000000E-03 0.  1.
         12    1    3    3    0    0 -0.24329068491E+02  0.12952724009E+02 -0.20769511376E+02  0.34511581182E+02  0.00000000000E+00 0. -1.
</event>
<event>
 7    1  0.2584640E-011  0.5052885E+02  0.7816164E-02  0.1300439E+00
        -11   -1    0    0    0    0  0.00000000000E+00  0.00000000000E+00  0.45593999997E+02  0.45594000000E+02  0.51100000000E-03 0.  1.
         11   -1    0    0    0    0 -0.00000000000E+00 -0.00000000000E+00 -0.45593999997E+02  0.45594000000E+02  0.51100000000E-03 0. -1.
    9900012    2    1    2    0    0 -0.31998288115E+02 -0.16713576908E+02 -0.18706469618E+02  0.50528854646E+02  0.29999984182E+02 0.  0.
        -12    1    1    2    0    0  0.31998288115E+02  0.16713576908E+02  0.18706469618E+02  0.40659145354E+02  0.00000000000E+00 0.  1.
         11    1    3    3    0    0 -0.15175766619E+02 -0.40876992930E+01 -0.78656040239E+01  0.17575007964E+02  0.51100000000E-03 0. -1.
        -11    1    3    3    0    0 -0.97061823584E+01 -0.11665294991E+02  0.46565126198E+01  0.15873632011E+02  0.51100000000E-03 0.  1.
         12    1    3    3    0    0 -0.71163391370E+01 -0.96058262423E+00 -0.15497378214E+02  0.17080214671E+02  0.00000000000E+00 0. -1.
</event>
<event>
 7    1  0.2584640E-011  0.5052885E+02  0.7816164E-02  0.1300439E+00
        -11   -1    0    0    0    0  0.00000000000E+00  0.00000000000E+00  0.45593999997E+02  0.45594000000E+02  0.51100000000E-03 0.  1.
         11   -1    0    0    0    0 -0.00000000000E+00 -0.00000000000E+00 -0.45593999997E+02  0.45594000000E+02  0.51100000000E-03 0. -1.
    9900012    2    1    2    0    0  0.40574635683E+02 -0.23868893119E+01  0.10806938741E+01  0.50528853420E+02  0.29999980454E+02 0.  0.
        -12    1    1    2    0    0 -0.40574635683E+02  0.23868893119E+01 -0.10806938741E+01  0.40659146580E+02  0.00000000000E+00 0.  1.
         11    1    3    3    0    0 -0.13300896526E+01  0.20625367575E+01  0.14525850863E+01  0.28518765847E+01  0.51100000000E-03 0.  1.
        -11    1    3    3    0    0  0.79534333857E+01 -0.98255670124E+01 -0.36207563731E+01  0.13149477051E+02  0.51100000000E-03 0. -1.
         12    1    3    3    0    0  0.33951291950E+02  0.53761409429E+01  0.32488651609E+01  0.34527499784E+02  0.00000000000E+00 0. -1.
</event>
<event>
 7    1  0.2584640E-011  0.5052886E+02  0.7816164E-02  0.1300439E+00
        -11   -1    0    0    0    0  0.00000000000E+00  0.00000000000E+00  0.45593999997E+02  0.45594000000E+02  0.51100000000E-03 0.  1.
         11   -1    0    0    0    0 -0.00000000000E+00 -0.00000000000E+00 -0.45593999997E+02  0.45594000000E+02  0.51100000000E-03 0. -1.
    9900012    2    1    2    0    0  0.11428067703E+02 -0.29449979262E+02 -0.25598112806E+02  0.50528863398E+02  0.30000010784E+02 0.  0.
        -12    1    1    2    0    0 -0.11428067703E+02  0.29449979262E+02  0.25598112806E+02  0.40659136602E+02  0.00000000000E+00 0.  1.
         11    1    3    3    0    0  0.11541299054E+02 -0.44957867543E+01 -0.13332520376E+02  0.18198070838E+02  0.51100000000E-03 0. -1.
        -11    1    3    3    0    0 -0.50292422487E+01 -0.51502156368E+01 -0.92238378836E+01  0.11700307016E+02  0.51100000000E-03 0.  1.
        -12    1    3    3    0    0  0.49160108982E+01 -0.19803976871E+02 -0.30417545470E+01  0.20630485544E+02  0.00000000000E+00 0.  1.
</event>
<event>
 7    1  0.2584640E-011  0.5052886E+02  0.7816164E-02  0.1300439E+00
        -11   -1    0    0    0    0  0.00000000000E+00  0.00000000000E+00  0.45593999997E+02  0.45594000000E+02  0.51100000000E-03 0. -1.
         11   -1    0    0    0    0 -0.00000000000E+00 -0.00000000000E+00 -0.45593999997E+02  0.45594000000E+02  0.51100000000E-03 0.  1.
    9900012    2    1    2    0    0  0.19164002018E+02 -0.20740164410E+02  0.29253247382E+02  0.50528857418E+02  0.29999992608E+02 0.  0.
        -12    1    1    2    0    0 -0.19164002018E+02  0.20740164410E+02 -0.29253247382E+02  0.40659142582E+02  0.00000000000E+00 0.  1.
         11    1    3    3    0    0  0.35274653538E+01  0.30346704174E+01  0.10444858339E+02  0.11434478665E+02  0.51100000000E-03 0. -1.
        -11    1    3    3    0    0 -0.31650020572E+00  0.46744733357E+00 -0.28357477232E+01  0.28913914990E+01  0.51100000000E-03 0.  1.
         12    1    3    3    0    0  0.15953036870E+02 -0.24242282161E+02  0.21644136766E+02  0.36202987254E+02  0.00000000000E+00 0. -1.
</event>
<event>
 7    1  0.2584640E-011  0.5052886E+02  0.7816164E-02  0.1300439E+00
        -11   -1    0    0    0    0  0.00000000000E+00  0.00000000000E+00  0.45593999997E+02  0.45594000000E+02  0.51100000000E-03 0. -1.
         11   -1    0    0    0    0 -0.00000000000E+00 -0.00000000000E+00 -0.45593999997E+02  0.45594000000E+02  0.51100000000E-03 0.  1.
    9900012    2    1    2    0    0 -0.13520762979E+02  0.19453783705E+02  0.33043983573E+02  0.50528861023E+02  0.30000003566E+02 0.  0.
        -12    1    1    2    0    0  0.13520762979E+02 -0.19453783705E+02 -0.33043983573E+02  0.40659138977E+02  0.00000000000E+00 0.  1.
         11    1    3    3    0    0 -0.17479113743E+01  0.16667972780E+02  0.10238142222E+02  0.19639146295E+02  0.51100000000E-03 0. -1.
        -11    1    3    3    0    0  0.11406653958E+01  0.55617783750E+01  0.13746878757E+02  0.14873169536E+02  0.51100000000E-03 0.  1.
        -12    1    3    3    0    0 -0.12913517000E+02 -0.27759674500E+01  0.90589625941E+01  0.16016545192E+02  0.00000000000E+00 0.  1.
</event>
<event>
 7    1  0.2584640E-011  0.5052887E+02  0.7816164E-02  0.1300439E+00
        -11   -1    0    0    0    0  0.00000000000E+00  0.00000000000E+00  0.45593999997E+02  0.45594000000E+02  0.51100000000E-03 0. -1.
         11   -1    0    0    0    0 -0.00000000000E+00 -0.00000000000E+00 -0.45593999997E+02  0.45594000000E+02  0.51100000000E-03 0.  1.
    9900012    2    1    2    0    0 -0.38018186166E+02  0.11052040038E+02 -0.92539280861E+01  0.50528865069E+02  0.30000015863E+02 0.  0.
        -12    1    1    2    0    0  0.38018186166E+02 -0.11052040038E+02  0.92539280861E+01  0.40659134931E+02  0.00000000000E+00 0.  1.
         11    1    3    3    0    0  0.15973011514E+01  0.21274195399E+01 -0.22223774200E+01  0.34664458058E+01  0.51100000000E-03 0. -1.
        -11    1    3    3    0    0 -0.94125967789E+01  0.51692308596E+01 -0.12132640127E+02  0.16202434463E+02  0.51100000000E-03 0.  1.
         12    1    3    3    0    0 -0.30202890538E+02  0.37553896383E+01  0.51010894608E+01  0.30859984800E+02  0.00000000000E+00 0. -1.
</event>
<event>
 7    1  0.2584640E-011  0.5052885E+02  0.7816164E-02  0.1300439E+00
        -11   -1    0    0    0    0  0.00000000000E+00  0.00000000000E+00  0.45593999997E+02  0.45594000000E+02  0.51100000000E-03 0. -1.
         11   -1    0    0    0    0 -0.00000000000E+00 -0.00000000000E+00 -0.45593999997E+02  0.45594000000E+02  0.51100000000E-03 0.  1.
    9900012    2    1    2    0    0  0.30144124389E+02 -0.19829872376E+02 -0.18742305182E+02  0.50528854938E+02  0.29999985070E+02 0.  0.
        -12    1    1    2    0    0 -0.30144124389E+02  0.19829872376E+02  0.18742305182E+02  0.40659145062E+02  0.00000000000E+00 0.  1.
         11    1    3    3    0    0  0.11055857036E+02  0.33284077468E+01 -0.13432968151E+01  0.11623885732E+02  0.51100000000E-03 0. -1.
        -11    1    3    3    0    0  0.17118030312E+02 -0.76037706994E+01 -0.65686062668E+01  0.19849203489E+02  0.51100000000E-03 0.  1.
         12    1    3    3    0    0  0.19702370414E+01 -0.15554509423E+02 -0.10830402100E+02  0.19055765716E+02  0.00000000000E+00 0. -1.
</event>
<event>
 7    1  0.2641945E-011  0.5052889E+02  0.7816164E-02  0.1300439E+00
        -11   -1    0    0    0    0  0.00000000000E+00  0.00000000000E+00  0.45593999997E+02  0.45594000000E+02  0.51100000000E-03 0. -1.
         11   -1    0    0    0    0 -0.00000000000E+00 -0.00000000000E+00 -0.45593999997E+02  0.45594000000E+02  0.51100000000E-03 0.  1.
    9900012    2    1    2    0    0 -0.28479552431E+02  0.16584482478E+02  0.23812463160E+02  0.50528888260E+02  0.30000086356E+02 0.  0.
        -12    1    1    2    0    0  0.28479552431E+02 -0.16584482478E+02 -0.23812463160E+02  0.40659111740E+02  0.00000000000E+00 0.  1.
         11    1    3    3    0    0 -0.68188833268E+01  0.30757438825E+01  0.97087194919E+01  0.12256288373E+02  0.51100000000E-03 0. -1.
        -11    1    3    3    0    0 -0.73765534063E+01  0.18200678284E+02  0.12194858279E+02  0.23116937489E+02  0.51100000000E-03 0.  1.
        -12    1    3    3    0    0 -0.14284115698E+02 -0.46919396884E+01  0.19088853890E+01  0.15155662398E+02  0.00000000000E+00 0.  1.
</event>
<event>
 7    1  0.2584640E-011  0.5052885E+02  0.7816164E-02  0.1300439E+00
        -11   -1    0    0    0    0  0.00000000000E+00  0.00000000000E+00  0.45593999997E+02  0.45594000000E+02  0.51100000000E-03 0.  1.
         11   -1    0    0    0    0 -0.00000000000E+00 -0.00000000000E+00 -0.45593999997E+02  0.45594000000E+02  0.51100000000E-03 0. -1.
    9900012    2    1    2    0    0 -0.36200611542E+02  0.94548132932E+01 -0.15915049842E+02  0.50528848731E+02  0.29999966204E+02 0.  0.
        -12    1    1    2    0    0  0.36200611542E+02 -0.94548132932E+01  0.15915049842E+02  0.40659151269E+02  0.00000000000E+00 0.  1.
         11    1    3    3    0    0 -0.17871816719E+02  0.21267084976E+01 -0.62430846458E+00  0.18008733525E+02  0.51100000000E-03 0. -1.
        -11    1    3    3    0    0 -0.47800912783E+00 -0.75662077497E+00  0.45477705285E+01  0.46349956596E+01  0.51100000000E-03 0.  1.
        -12    1    3    3    0    0 -0.17850785695E+02  0.80847255706E+01 -0.19838511906E+02  0.27885119547E+02  0.00000000000E+00 0.  1.
</event>
<event>
 7    1  0.2584640E-011  0.5052885E+02  0.7816164E-02  0.1300439E+00
        -11   -1    0    0    0    0  0.00000000000E+00  0.00000000000E+00  0.45593999997E+02  0.45594000000E+02  0.51100000000E-03 0. -1.
         11   -1    0    0    0    0 -0.00000000000E+00 -0.00000000000E+00 -0.45593999997E+02  0.45594000000E+02  0.51100000000E-03 0.  1.
    9900012    2    1    2    0    0  0.18276195380E+01 -0.36287515523E+02 -0.18249452370E+02  0.50528849888E+02  0.29999969718E+02 0.  0.
        -12    1    1    2    0    0 -0.18276195380E+01  0.36287515523E+02  0.18249452370E+02  0.40659150112E+02  0.00000000000E+00 0.  1.
         11    1    3    3    0    0  0.34794046527E+01 -0.98203147047E+01 -0.14129971620E+02  0.17555652534E+02  0.51100000000E-03 0. -1.
        -11    1    3    3    0    0 -0.94836968675E+01 -0.15810591434E+02 -0.64735298564E+01  0.19540263479E+02  0.51100000000E-03 0.  1.
        -12    1    3    3    0    0  0.78319117528E+01 -0.10656609384E+02  0.23540491065E+01  0.13432933874E+02  0.00000000000E+00 0.  1.
</event>
<event>
 7    1  0.2584640E-011  0.5052881E+02  0.7816164E-02  0.1300439E+00
        -11   -1    0    0    0    0  0.00000000000E+00  0.00000000000E+00  0.45593999997E+02  0.45594000000E+02  0.51100000000E-03 0.  1.
         11   -1    0    0    0    0 -0.00000000000E+00 -0.00000000000E+00 -0.45593999997E+02  0.45594000000E+02  0.51100000000E-03 0. -1.
    9900012    2    1    2    0    0  0.39957199033E+02  0.39083858404E+01 -0.64277726134E+01  0.50528812905E+02  0.29999857305E+02 0.  0.
        -12    1    1    2    0    0 -0.39957199033E+02 -0.39083858404E+01  0.64277726134E+01  0.40659187095E+02  0.00000000000E+00 0.  1.
         11    1    3    3    0    0  0.81772959876E+01  0.15781434978E+01 -0.40270934642E+01  0.92507398946E+01  0.51100000000E-03 0. -1.
        -11    1    3    3    0    0 -0.86136891619E+00 -0.64107012975E+01 -0.37185575320E+01  0.74610131963E+01  0.51100000000E-03 0.  1.
         12    1    3    3    0    0  0.32641271962E+02  0.87409436401E+01  0.13178783828E+01  0.33817059814E+02  0.00000000000E+00 0. -1.
</event>
<event>
 7    1  0.2584640E-011  0.5052883E+02  0.7816164E-02  0.1300439E+00
        -11   -1    0    0    0    0  0.00000000000E+00  0.00000000000E+00  0.45593999997E+02  0.45594000000E+02  0.51100000000E-03 0.  1.
         11   -1    0    0    0    0 -0.00000000000E+00 -0.00000000000E+00 -0.45593999997E+02  0.45594000000E+02  0.51100000000E-03 0. -1.
    9900012    2    1    2    0    0  0.26079705685E+02 -0.16131678364E+02 -0.26698047584E+02  0.50528833256E+02  0.29999919166E+02 0.  0.
        -12    1    1    2    0    0 -0.26079705685E+02  0.16131678364E+02  0.26698047584E+02  0.40659166744E+02  0.00000000000E+00 0.  1.
         11    1    3    3    0    0  0.67754566782E+01 -0.55356685712E+01 -0.10506227845E+02  0.13672280846E+02  0.51100000000E-03 0. -1.
        -11    1    3    3    0    0  0.22647483356E+02 -0.11532357164E+02 -0.19520995581E+02  0.32046419970E+02  0.51100000000E-03 0.  1.
        -12    1    3    3    0    0 -0.33432343492E+01  0.93634737134E+00  0.33291758421E+01  0.48101324411E+01  0.00000000000E+00 0.  1.
</event>
<event>
 7    1  0.2584640E-011  0.5052886E+02  0.7816164E-02  0.1300439E+00
        -11   -1    0    0    0    0  0.00000000000E+00  0.00000000000E+00  0.45593999997E+02  0.45594000000E+02  0.51100000000E-03 0.  1.
         11   -1    0    0    0    0 -0.00000000000E+00 -0.00000000000E+00 -0.45593999997E+02  0.45594000000E+02  0.51100000000E-03 0. -1.
    9900012    2    1    2    0    0 -0.90408651746E+01 -0.11165564389E+02 -0.38036284502E+02  0.50528855765E+02  0.29999987582E+02 0.  0.
        -12    1    1    2    0    0  0.90408651746E+01  0.11165564389E+02  0.38036284502E+02  0.40659144235E+02  0.00000000000E+00 0.  1.
         11    1    3    3    0    0 -0.63182230876E+01 -0.34030924478E+01 -0.19200699190E+00  0.71789865677E+01  0.51100000000E-03 0. -1.
        -11    1    3    3    0    0 -0.89563777138E+01  0.20477053985E+01 -0.12974815468E+02  0.15898290344E+02  0.51100000000E-03 0.  1.
        -12    1    3    3    0    0  0.62337356268E+01 -0.98101773401E+01 -0.24869462042E+02  0.27451578853E+02  0.00000000000E+00 0.  1.
</event>
<event>
 7    1  0.2584640E-011  0.5052886E+02  0.7816164E-02  0.1300439E+00
        -11   -1    0    0    0    0  0.00000000000E+00  0.00000000000E+00  0.45593999997E+02  0.45594000000E+02  0.51100000000E-03 0. -1.
         11   -1    0    0    0    0 -0.00000000000E+00 -0.00000000000E+00 -0.45593999997E+02  0.45594000000E+02  0.51100000000E-03 0.  1.
    9900012    2    1    2    0    0 -0.17122002246E+02  0.27950117410E+02  0.24058131163E+02  0.50528859586E+02  0.29999999198E+02 0.  0.
        -12    1    1    2    0    0  0.17122002246E+02 -0.27950117410E+02 -0.24058131163E+02  0.40659140414E+02  0.00000000000E+00 0.  1.
         11    1    3    3    0    0 -0.47850747197E+01  0.10216655539E+02  0.21859407688E+01  0.11491532873E+02  0.51100000000E-03 0. -1.
        -11    1    3    3    0    0 -0.12057428666E+01  0.16732850901E+02  0.29101207646E+01  0.17026770635E+02  0.51100000000E-03 0.  1.
         12    1    3    3    0    0 -0.11131184659E+02  0.10006109707E+01  0.18962069629E+02  0.22010556078E+02  0.00000000000E+00 0. -1.
</event>
<event>
 7    1  0.2584640E-011  0.5052886E+02  0.7816164E-02  0.1300439E+00
        -11   -1    0    0    0    0  0.00000000000E+00  0.00000000000E+00  0.45593999997E+02  0.45594000000E+02  0.51100000000E-03 0. -1.
         11   -1    0    0    0    0 -0.00000000000E+00 -0.00000000000E+00 -0.45593999997E+02  0.45594000000E+02  0.51100000000E-03 0.  1.
    9900012    2    1    2    0    0 -0.20001838496E+02  0.12665707423E+02  0.33055592971E+02  0.50528856940E+02  0.29999991154E+02 0.  0.
        -12    1    1    2    0    0  0.20001838496E+02 -0.12665707423E+02 -0.33055592971E+02  0.40659143060E+02  0.00000000000E+00 0.  1.
         11    1    3    3    0    0 -0.31938066696E+01 -0.55453625000E+01  0.35214692222E+01  0.73042584869E+01  0.51100000000E-03 0. -1.
        -11    1    3    3    0    0 -0.14181976569E+02  0.11260617548E+01  0.12142086541E+02  0.18703655800E+02  0.51100000000E-03 0.  1.
        -12    1    3    3    0    0 -0.26260552577E+01  0.17085008168E+02  0.17392037208E+02  0.24520942652E+02  0.00000000000E+00 0.  1.
</event>
<event>
 7    1  0.2584640E-011  0.5052886E+02  0.7816164E-02  0.1300439E+00
        -11   -1    0    0    0    0  0.00000000000E+00  0.00000000000E+00  0.45593999997E+02  0.45594000000E+02  0.51100000000E-03 0. -1.
         11   -1    0    0    0    0 -0.00000000000E+00 -0.00000000000E+00 -0.45593999997E+02  0.45594000000E+02  0.51100000000E-03 0.  1.
    9900012    2    1    2    0    0  0.34451021269E+02 -0.18676372235E+02  0.10839091549E+02  0.50528860167E+02  0.30000000963E+02 0.  0.
        -12    1    1    2    0    0 -0.34451021269E+02  0.18676372235E+02 -0.10839091549E+02  0.40659139833E+02  0.00000000000E+00 0.  1.
         11    1    3    3    0    0  0.12974348561E+02 -0.13105880879E+02 -0.69020715165E+01  0.19691023988E+02  0.51100000000E-03 0.  1.
        -11    1    3    3    0    0  0.15829985497E+02 -0.89970111182E+01  0.10425248820E+02  0.20981431388E+02  0.51100000000E-03 0. -1.
        -12    1    3    3    0    0  0.56466872114E+01  0.34265197627E+01  0.73159142456E+01  0.98564047907E+01  0.00000000000E+00 0.  1.
</event>
<event>
 7    1  0.2584640E-011  0.5052896E+02  0.7816164E-02  0.1300438E+00
        -11   -1    0    0    0    0  0.00000000000E+00  0.00000000000E+00  0.45593999997E+02  0.45594000000E+02  0.51100000000E-03 0.  1.
         11   -1    0    0    0    0 -0.00000000000E+00 -0.00000000000E+00 -0.45593999997E+02  0.45594000000E+02  0.51100000000E-03 0. -1.
    9900012    2    1    2    0    0 -0.49994131355E+01 -0.15134567037E+02 -0.37404655145E+02  0.50528960690E+02  0.30000306513E+02 0.  0.
        -12    1    1    2    0    0  0.49994131355E+01  0.15134567037E+02  0.37404655145E+02  0.40659039310E+02  0.00000000000E+00 0.  1.
         11    1    3    3    0    0  0.22151202543E+01 -0.18398567971E+02 -0.27352467956E+02  0.33038940126E+02  0.51100000000E-03 0. -1.
        -11    1    3    3    0    0 -0.49682164925E+01 -0.36395614344E+01 -0.76971333714E+01  0.98577606458E+01  0.51100000000E-03 0.  1.
        -12    1    3    3    0    0 -0.22463168973E+01  0.69035623685E+01 -0.23550538173E+01  0.76322599183E+01  0.00000000000E+00 0.  1.
</event>
<event>
 7    1  0.2584640E-011  0.5052887E+02  0.7816164E-02  0.1300439E+00
        -11   -1    0    0    0    0  0.00000000000E+00  0.00000000000E+00  0.45593999997E+02  0.45594000000E+02  0.51100000000E-03 0.  1.
         11   -1    0    0    0    0 -0.00000000000E+00 -0.00000000000E+00 -0.45593999997E+02  0.45594000000E+02  0.51100000000E-03 0. -1.
    9900012    2    1    2    0    0  0.21877571803E+02 -0.33820036303E+02 -0.55445637124E+01  0.50528865844E+02  0.30000018221E+02 0.  0.
        -12    1    1    2    0    0 -0.21877571803E+02  0.33820036303E+02  0.55445637124E+01  0.40659134156E+02  0.00000000000E+00 0.  1.
         11    1    3    3    0    0  0.95272860536E+01 -0.35552758216E+01  0.10085449488E+01  0.10218920143E+02  0.51100000000E-03 0.  1.
        -11    1    3    3    0    0 -0.42103991569E+01 -0.93223688225E+01  0.47975677854E+01  0.11298259974E+02  0.51100000000E-03 0. -1.
         12    1    3    3    0    0  0.16560684906E+02 -0.20942391659E+02 -0.11350676447E+02  0.29011685727E+02  0.00000000000E+00 0. -1.
</event>
<event>
 7    1  0.2584640E-011  0.5052887E+02  0.7816164E-02  0.1300439E+00
        -11   -1    0    0    0    0  0.00000000000E+00  0.00000000000E+00  0.45593999997E+02  0.45594000000E+02  0.51100000000E-03 0.  1.
         11   -1    0    0    0    0 -0.00000000000E+00 -0.00000000000E+00 -0.45593999997E+02  0.45594000000E+02  0.51100000000E-03 0. -1.
    9900012    2    1    2    0    0  0.28686758330E+02  0.11158686913E+02 -0.26565366966E+02  0.50528866720E+02  0.30000020881E+02 0.  0.
        -12    1    1    2    0    0 -0.28686758330E+02 -0.11158686913E+02  0.26565366966E+02  0.40659133280E+02  0.00000000000E+00 0.  1.
         11    1    3    3    0    0 -0.32235031905E+01 -0.30133389532E+01 -0.85734288553E+01  0.96423475909E+01  0.51100000000E-03 0.  1.
        -11    1    3    3    0    0  0.47647846995E+01  0.90152584346E+00  0.13210368999E+01  0.50260382839E+01  0.51100000000E-03 0. -1.
        -12    1    3    3    0    0  0.27145476821E+02  0.13270500023E+02 -0.19312975011E+02  0.35860480845E+02  0.00000000000E+00 0.  1.
</event>
<event>
 7    1  0.2584640E-011  0.5052886E+02  0.7816164E-02  0.1300439E+00
        -11   -1    0    0    0    0  0.00000000000E+00  0.00000000000E+00  0.45593999997E+02  0.45594000000E+02  0.51100000000E-03 0. -1.
         11   -1    0    0    0    0 -0.00000000000E+00 -0.00000000000E+00 -0.45593999997E+02  0.45594000000E+02  0.51100000000E-03 0.  1.
    9900012    2    1    2    0    0 -0.26707734418E+02 -0.74293873882E+01  0.29743342137E+02  0.50528864788E+02  0.30000015009E+02 0.  0.
        -12    1    1    2    0    0  0.26707734418E+02  0.74293873882E+01 -0.29743342137E+02  0.40659135212E+02  0.00000000000E+00 0.  1.
         11    1    3    3    0    0 -0.14210263356E+02  0.54444399202E+01  0.10189563816E+02  0.18313948829E+02  0.51100000000E-03 0. -1.
        -11    1    3    3    0    0 -0.75855184227E+01 -0.64534300670E+00  0.17225348845E+02  0.18832663127E+02  0.51100000000E-03 0.  1.
        -12    1    3    3    0    0 -0.49119526397E+01 -0.12228484302E+02  0.23284294761E+01  0.13382252833E+02  0.00000000000E+00 0.  1.
</event>
<event>
 7    1  0.2584640E-011  0.5052888E+02  0.7816164E-02  0.1300439E+00
        -11   -1    0    0    0    0  0.00000000000E+00  0.00000000000E+00  0.45593999997E+02  0.45594000000E+02  0.51100000000E-03 0.  1.
         11   -1    0    0    0    0 -0.00000000000E+00 -0.00000000000E+00 -0.45593999997E+02  0.45594000000E+02  0.51100000000E-03 0. -1.
    9900012    2    1    2    0    0  0.28435432907E+02 -0.19080315019E+02 -0.21921043969E+02  0.50528875138E+02  0.30000046469E+02 0.  0.
        -12    1    1    2    0    0 -0.28435432907E+02  0.19080315019E+02  0.21921043969E+02  0.40659124862E+02  0.00000000000E+00 0.  1.
         11    1    3    3    0    0  0.14583641529E+02 -0.12508955748E+02 -0.19873601779E+02  0.27642659461E+02  0.51100000000E-03 0. -1.
        -11    1    3    3    0    0  0.16028763011E+02 -0.86958041464E+01 -0.47206145135E+01  0.18836731539E+02  0.51100000000E-03 0.  1.
         12    1    3    3    0    0 -0.21769716335E+01  0.21244448748E+01  0.26731723227E+01  0.40494841383E+01  0.00000000000E+00 0. -1.
</event>
<event>
 7    1  0.2584640E-011  0.5052886E+02  0.7816164E-02  0.1300439E+00
        -11   -1    0    0    0    0  0.00000000000E+00  0.00000000000E+00  0.45593999997E+02  0.45594000000E+02  0.51100000000E-03 0. -1.
         11   -1    0    0    0    0 -0.00000000000E+00 -0.00000000000E+00 -0.45593999997E+02  0.45594000000E+02  0.51100000000E-03 0.  1.
    9900012    2    1    2    0    0  0.34066153858E+01  0.30981819929E+02  0.26109142665E+02  0.50528861726E+02  0.30000005701E+02 0.  0.
        -12    1    1    2    0    0 -0.34066153858E+01 -0.30981819929E+02 -0.26109142665E+02  0.40659138274E+02  0.00000000000E+00 0.  1.
         11    1    3    3    0    0  0.84246555962E+01  0.32040302365E+02  0.22319556710E+02  0.39946444267E+02  0.51100000000E-03 0. -1.
        -11    1    3    3    0    0  0.22614465620E+01 -0.10369568613E+01  0.28785267963E+00  0.25044519383E+01  0.51100000000E-03 0.  1.
        -12    1    3    3    0    0 -0.72794867724E+01 -0.21525574317E-01  0.35017332753E+01  0.80779655206E+01  0.00000000000E+00 0.  1.
</event>
<event>
 7    1  0.2584640E-011  0.5052886E+02  0.7816164E-02  0.1300439E+00
        -11   -1    0    0    0    0  0.00000000000E+00  0.00000000000E+00  0.45593999997E+02  0.45594000000E+02  0.51100000000E-03 0.  1.
         11   -1    0    0    0    0 -0.00000000000E+00 -0.00000000000E+00 -0.45593999997E+02  0.45594000000E+02  0.51100000000E-03 0. -1.
    9900012    2    1    2    0    0  0.45341586386E+01 -0.58950328873E+00 -0.40401228071E+02  0.50528864023E+02  0.30000012685E+02 0.  0.
        -12    1    1    2    0    0 -0.45341586386E+01  0.58950328873E+00  0.40401228071E+02  0.40659135977E+02  0.00000000000E+00 0.  1.
         11    1    3    3    0    0  0.10091618260E+01  0.98753985347E+00 -0.88867420840E+01  0.89982124714E+01  0.51100000000E-03 0. -1.
        -11    1    3    3    0    0  0.79779429620E+01 -0.30908050295E+01 -0.34772249156E+02  0.35809355779E+02  0.51100000000E-03 0.  1.
        -12    1    3    3    0    0 -0.44529461494E+01  0.15137618873E+01  0.32577631688E+01  0.57212957732E+01  0.00000000000E+00 0.  1.
</event>
<event>
 7    1  0.2584640E-011  0.5052886E+02  0.7816164E-02  0.1300439E+00
        -11   -1    0    0    0    0  0.00000000000E+00  0.00000000000E+00  0.45593999997E+02  0.45594000000E+02  0.51100000000E-03 0.  1.
         11   -1    0    0    0    0 -0.00000000000E+00 -0.00000000000E+00 -0.45593999997E+02  0.45594000000E+02  0.51100000000E-03 0. -1.
    9900012    2    1    2    0    0  0.64444928155E+00 -0.39182819424E+02 -0.10837765896E+02  0.50528858070E+02  0.29999994590E+02 0.  0.
        -12    1    1    2    0    0 -0.64444928155E+00  0.39182819424E+02  0.10837765896E+02  0.40659141930E+02  0.00000000000E+00 0.  1.
         11    1    3    3    0    0  0.57572089039E+01 -0.41386509432E+01  0.40834674334E+01  0.81822119585E+01  0.51100000000E-03 0. -1.
        -11    1    3    3    0    0  0.59742613883E+01 -0.18803182308E+02 -0.51616149010E+01  0.20393472796E+02  0.51100000000E-03 0.  1.
         12    1    3    3    0    0 -0.11087021011E+02 -0.16240986172E+02 -0.97596184285E+01  0.21953173315E+02  0.00000000000E+00 0. -1.
</event>
<event>
 7    1  0.2584640E-011  0.5052886E+02  0.7816164E-02  0.1300439E+00
        -11   -1    0    0    0    0  0.00000000000E+00  0.00000000000E+00  0.45593999997E+02  0.45594000000E+02  0.51100000000E-03 0.  1.
         11   -1    0    0    0    0 -0.00000000000E+00 -0.00000000000E+00 -0.45593999997E+02  0.45594000000E+02  0.51100000000E-03 0. -1.
    9900012    2    1    2    0    0  0.32240967983E+02  0.49012190058E+01  0.24282991036E+02  0.50528860587E+02  0.30000002239E+02 0.  0.
        -12    1    1    2    0    0 -0.32240967983E+02 -0.49012190058E+01 -0.24282991036E+02  0.40659139413E+02  0.00000000000E+00 0.  1.
         11    1    3    3    0    0  0.28080722138E+02  0.21010414436E+01  0.16541215825E+02  0.32658125362E+02  0.51100000000E-03 0. -1.
        -11    1    3    3    0    0  0.58062543431E+01  0.64989060693E+01 -0.45708704104E+00  0.87268149068E+01  0.51100000000E-03 0.  1.
        -12    1    3    3    0    0 -0.16460084989E+01 -0.36987285071E+01  0.81988622521E+01  0.91439203177E+01  0.00000000000E+00 0.  1.
</event>
<event>
 7    1  0.2584640E-011  0.5052887E+02  0.7816164E-02  0.1300439E+00
        -11   -1    0    0    0    0  0.00000000000E+00  0.00000000000E+00  0.45593999997E+02  0.45594000000E+02  0.51100000000E-03 0.  1.
         11   -1    0    0    0    0 -0.00000000000E+00 -0.00000000000E+00 -0.45593999997E+02  0.45594000000E+02  0.51100000000E-03 0. -1.
    9900012    2    1    2    0    0  0.19953971096E+02 -0.19970184246E+02 -0.29260823640E+02  0.50528867921E+02  0.30000024534E+02 0.  0.
        -12    1    1    2    0    0 -0.19953971096E+02  0.19970184246E+02  0.29260823640E+02  0.40659132079E+02  0.00000000000E+00 0.  1.
         11    1    3    3    0    0 -0.17892980086E+01  0.14363218126E+01 -0.79379963578E+01  0.82629531132E+01  0.51100000000E-03 0.  1.
        -11    1    3    3    0    0 -0.38231582982E+01 -0.30478135492E+01 -0.17075031209E+01  0.51789259478E+01  0.51100000000E-03 0. -1.
         12    1    3    3    0    0  0.25566427403E+02 -0.18358692510E+02 -0.19615324161E+02  0.37086988860E+02  0.00000000000E+00 0. -1.
</event>
<event>
 7    1  0.2584640E-011  0.5052886E+02  0.7816164E-02  0.1300439E+00
        -11   -1    0    0    0    0  0.00000000000E+00  0.00000000000E+00  0.45593999997E+02  0.45594000000E+02  0.51100000000E-03 0.  1.
         11   -1    0    0    0    0 -0.00000000000E+00 -0.00000000000E+00 -0.45593999997E+02  0.45594000000E+02  0.51100000000E-03 0. -1.
    9900012    2    1    2    0    0 -0.78311948652E+01 -0.87382525698E+01 -0.38929178570E+02  0.50528860620E+02  0.30000002342E+02 0.  0.
        -12    1    1    2    0    0  0.78311948652E+01  0.87382525698E+01  0.38929178570E+02  0.40659139380E+02  0.00000000000E+00 0.  1.
         11    1    3    3    0    0  0.46384393591E+01 -0.56849587299E+01 -0.40709873115E+01  0.83908767957E+01  0.51100000000E-03 0. -1.
        -11    1    3    3    0    0 -0.15050934223E+02 -0.45030423163E+01 -0.13914923592E+02  0.20986498277E+02  0.51100000000E-03 0.  1.
         12    1    3    3    0    0  0.25812999992E+01  0.14497484764E+01 -0.20943267666E+02  0.21151485548E+02  0.00000000000E+00 0. -1.
</event>
<event>
 7    1  0.2945198E-011  0.5052888E+02  0.7816164E-02  0.1300439E+00
        -11   -1    0    0    0    0  0.00000000000E+00  0.00000000000E+00  0.45593999997E+02  0.45594000000E+02  0.51100000000E-03 0.  1.
         11   -1    0    0    0    0 -0.00000000000E+00 -0.00000000000E+00 -0.45593999997E+02  0.45594000000E+02  0.51100000000E-03 0. -1.
    9900012    2    1    2    0    0 -0.12038677962E+02 -0.38660243225E+02  0.36905348337E+01  0.50528877768E+02  0.30000054464E+02 0.  0.
        -12    1    1    2    0    0  0.12038677962E+02  0.38660243225E+02 -0.36905348337E+01  0.40659122232E+02  0.00000000000E+00 0.  1.
         11    1    3    3    0    0 -0.10742665133E+02 -0.23546487035E+02  0.97534252085E+01  0.27658112904E+02  0.51100000000E-03 0.  1.
        -11    1    3    3    0    0  0.31617580584E+01 -0.79747718594E+01  0.42382364688E+01  0.95685081834E+01  0.51100000000E-03 0. -1.
        -12    1    3    3    0    0 -0.44577708871E+01 -0.71389843310E+01 -0.10301126844E+02  0.13302256681E+02  0.00000000000E+00 0.  1.
</event>
<event>
 7    1  0.2584640E-011  0.5052885E+02  0.7816164E-02  0.1300439E+00
        -11   -1    0    0    0    0  0.00000000000E+00  0.00000000000E+00  0.45593999997E+02  0.45594000000E+02  0.51100000000E-03 0.  1.
         11   -1    0    0    0    0 -0.00000000000E+00 -0.00000000000E+00 -0.45593999997E+02  0.45594000000E+02  0.51100000000E-03 0. -1.
    9900012    2    1    2    0    0  0.65237327705E+00 -0.38215286670E+02 -0.13868405101E+02  0.50528851138E+02  0.29999973518E+02 0.  0.
        -12    1    1    2    0    0 -0.65237327705E+00  0.38215286670E+02  0.13868405101E+02  0.40659148862E+02  0.00000000000E+00 0.  1.
         11    1    3    3    0    0 -0.26969883248E+01 -0.12999879447E+02 -0.14058315374E+01  0.13350916607E+02  0.51100000000E-03 0. -1.
        -11    1    3    3    0    0 -0.65573923335E+01 -0.12578002128E+02 -0.15308587272E+02  0.20870035368E+02  0.51100000000E-03 0.  1.
        -12    1    3    3    0    0  0.99067539353E+01 -0.12637405095E+02  0.28460137083E+01  0.16307899162E+02  0.00000000000E+00 0.  1.
</event>
<event>
 7    1  0.2584640E-011  0.5052886E+02  0.7816164E-02  0.1300439E+00
        -11   -1    0    0    0    0  0.00000000000E+00  0.00000000000E+00  0.45593999997E+02  0.45594000000E+02  0.51100000000E-03 0.  1.
         11   -1    0    0    0    0 -0.00000000000E+00 -0.00000000000E+00 -0.45593999997E+02  0.45594000000E+02  0.51100000000E-03 0. -1.
    9900012    2    1    2    0    0 -0.18984304714E+02  0.34406092898E+02 -0.10439485756E+02  0.50528856910E+02  0.29999991063E+02 0.  0.
        -12    1    1    2    0    0  0.18984304714E+02 -0.34406092898E+02  0.10439485756E+02  0.40659143090E+02  0.00000000000E+00 0.  1.
         11    1    3    3    0    0 -0.11424301381E+02  0.26023083240E+02 -0.21492371863E+01  0.28501486700E+02  0.51100000000E-03 0. -1.
        -11    1    3    3    0    0 -0.76192848858E+01  0.53201063929E+01  0.34358701176E+01  0.99076858009E+01  0.51100000000E-03 0.  1.
         12    1    3    3    0    0  0.59281552592E-01  0.30629032654E+01 -0.11726118687E+02  0.12119684409E+02  0.00000000000E+00 0. -1.
</event>
<event>
 7    1  0.2584640E-011  0.5052886E+02  0.7816164E-02  0.1300439E+00
        -11   -1    0    0    0    0  0.00000000000E+00  0.00000000000E+00  0.45593999997E+02  0.45594000000E+02  0.51100000000E-03 0.  1.
         11   -1    0    0    0    0 -0.00000000000E+00 -0.00000000000E+00 -0.45593999997E+02  0.45594000000E+02  0.51100000000E-03 0. -1.
    9900012    2    1    2    0    0  0.21763162750E+02  0.67805602006E+01 -0.33668296496E+02  0.50528862792E+02  0.30000008943E+02 0.  0.
        -12    1    1    2    0    0 -0.21763162750E+02 -0.67805602006E+01  0.33668296496E+02  0.40659137208E+02  0.00000000000E+00 0.  1.
         11    1    3    3    0    0  0.73223607163E+01 -0.15913146888E+01  0.66878697055E+00  0.75230662081E+01  0.51100000000E-03 0. -1.
        -11    1    3    3    0    0  0.10298535731E+02 -0.51837249433E+01 -0.18010031166E+02  0.21384388356E+02  0.51100000000E-03 0.  1.
        -12    1    3    3    0    0  0.41422663027E+01  0.13555599833E+02 -0.16327052301E+02  0.21621408228E+02  0.00000000000E+00 0.  1.
</event>
<event>
 7    1  0.2584640E-011  0.5052886E+02  0.7816164E-02  0.1300439E+00
        -11   -1    0    0    0    0  0.00000000000E+00  0.00000000000E+00  0.45593999997E+02  0.45594000000E+02  0.51100000000E-03 0.  1.
         11   -1    0    0    0    0 -0.00000000000E+00 -0.00000000000E+00 -0.45593999997E+02  0.45594000000E+02  0.51100000000E-03 0. -1.
    9900012    2    1    2    0    0  0.25126996782E+02  0.11539527668E+02  0.29810045588E+02  0.50528862232E+02  0.30000007240E+02 0.  0.
        -12    1    1    2    0    0 -0.25126996782E+02 -0.11539527668E+02 -0.29810045588E+02  0.40659137768E+02  0.00000000000E+00 0.  1.
         11    1    3    3    0    0  0.39761966824E+01 -0.38728985005E+01  0.45715509533E+01  0.71908665147E+01  0.51100000000E-03 0. -1.
        -11    1    3    3    0    0 -0.39164561441E+01  0.32307837109E+01  0.10835408319E+02  0.11965895947E+02  0.51100000000E-03 0.  1.
         12    1    3    3    0    0  0.25067256243E+02  0.12181642458E+02  0.14403086316E+02  0.31372099770E+02  0.00000000000E+00 0. -1.
</event>
<event>
 7    1  0.2584640E-011  0.5052886E+02  0.7816164E-02  0.1300439E+00
        -11   -1    0    0    0    0  0.00000000000E+00  0.00000000000E+00  0.45593999997E+02  0.45594000000E+02  0.51100000000E-03 0.  1.
         11   -1    0    0    0    0 -0.00000000000E+00 -0.00000000000E+00 -0.45593999997E+02  0.45594000000E+02  0.51100000000E-03 0. -1.
    9900012    2    1    2    0    0 -0.23929365592E+02  0.20242573838E+02 -0.25899605218E+02  0.50528857317E+02  0.29999992302E+02 0.  0.
        -12    1    1    2    0    0  0.23929365592E+02 -0.20242573838E+02  0.25899605218E+02  0.40659142683E+02  0.00000000000E+00 0.  1.
         11    1    3    3    0    0 -0.84381591565E+01  0.16589609871E+02 -0.44301252546E+01  0.19132268440E+02  0.51100000000E-03 0. -1.
        -11    1    3    3    0    0  0.21020446601E+01 -0.21291553664E+01  0.67097176775E-01  0.29927239465E+01  0.51100000000E-03 0.  1.
        -12    1    3    3    0    0 -0.17593251095E+02  0.57821193338E+01 -0.21536577141E+02  0.28403864931E+02  0.00000000000E+00 0.  1.
</event>
<event>
 7    1  0.2584640E-011  0.5052875E+02  0.7816164E-02  0.1300439E+00
        -11   -1    0    0    0    0  0.00000000000E+00  0.00000000000E+00  0.45593999997E+02  0.45594000000E+02  0.51100000000E-03 0.  1.
         11   -1    0    0    0    0 -0.00000000000E+00 -0.00000000000E+00 -0.45593999997E+02  0.45594000000E+02  0.51100000000E-03 0. -1.
    9900012    2    1    2    0    0 -0.30245251088E+02  0.10205842494E+02 -0.25184121888E+02  0.50528752225E+02  0.29999672860E+02 0.  0.
        -12    1    1    2    0    0  0.30245251088E+02 -0.10205842494E+02  0.25184121888E+02  0.40659247775E+02  0.00000000000E+00 0.  1.
         11    1    3    3    0    0 -0.17616213101E+02  0.14854572974E+02 -0.10407691141E+02  0.25284567178E+02  0.51100000000E-03 0. -1.
        -11    1    3    3    0    0 -0.38548708877E+01  0.33835656698E+01 -0.11969171969E+02  0.13021890189E+02  0.51100000000E-03 0.  1.
        -12    1    3    3    0    0 -0.87741670992E+01 -0.80322961501E+01 -0.28072587777E+01  0.12222294857E+02  0.00000000000E+00 0.  1.
</event>
<event>
 7    1  0.2584640E-011  0.5052886E+02  0.7816164E-02  0.1300439E+00
        -11   -1    0    0    0    0  0.00000000000E+00  0.00000000000E+00  0.45593999997E+02  0.45594000000E+02  0.51100000000E-03 0.  1.
         11   -1    0    0    0    0 -0.00000000000E+00 -0.00000000000E+00 -0.45593999997E+02  0.45594000000E+02  0.51100000000E-03 0. -1.
    9900012    2    1    2    0    0  0.93575072229E+01 -0.18335559018E+01 -0.39525192867E+02  0.50528859086E+02  0.29999997679E+02 0.  0.
        -12    1    1    2    0    0 -0.93575072229E+01  0.18335559018E+01  0.39525192867E+02  0.40659140914E+02  0.00000000000E+00 0.  1.
         11    1    3    3    0    0  0.61684100448E+01 -0.19627248225E+00 -0.31600656874E+02  0.32197660171E+02  0.51100000000E-03 0. -1.
        -11    1    3    3    0    0  0.46862601838E+01  0.54492129313E+01 -0.84212762878E+01  0.11071262379E+02  0.51100000000E-03 0.  1.
         12    1    3    3    0    0 -0.14971630057E+01 -0.70864963509E+01  0.49674029452E+00  0.72599365367E+01  0.00000000000E+00 0. -1.
</event>
<event>
 7    1  0.2584640E-011  0.5052888E+02  0.7816164E-02  0.1300439E+00
        -11   -1    0    0    0    0  0.00000000000E+00  0.00000000000E+00  0.45593999997E+02  0.45594000000E+02  0.51100000000E-03 0.  1.
         11   -1    0    0    0    0 -0.00000000000E+00 -0.00000000000E+00 -0.45593999997E+02  0.45594000000E+02  0.51100000000E-03 0. -1.
    9900012    2    1    2    0    0  0.29011136402E+02 -0.74622916125E+01 -0.27492396447E+02  0.50528884247E+02  0.30000074157E+02 0.  0.
        -12    1    1    2    0    0 -0.29011136402E+02  0.74622916125E+01  0.27492396447E+02  0.40659115753E+02  0.00000000000E+00 0.  1.
         11    1    3    3    0    0  0.23822671118E+02 -0.56164917785E+01 -0.26963331280E+02  0.36415462006E+02  0.51100000000E-03 0. -1.
        -11    1    3    3    0    0  0.60428061377E+01  0.45472330915E+01  0.51275719732E+00  0.75799574544E+01  0.51100000000E-03 0.  1.
         12    1    3    3    0    0 -0.85434085397E+00 -0.63930329255E+01 -0.10418223638E+01  0.65334647867E+01  0.00000000000E+00 0. -1.
</event>
<event>
 7    1  0.2584640E-011  0.5052884E+02  0.7816164E-02  0.1300439E+00
        -11   -1    0    0    0    0  0.00000000000E+00  0.00000000000E+00  0.45593999997E+02  0.45594000000E+02  0.51100000000E-03 0. -1.
         11   -1    0    0    0    0 -0.00000000000E+00 -0.00000000000E+00 -0.45593999997E+02  0.45594000000E+02  0.51100000000E-03 0.  1.
    9900012    2    1    2    0    0 -0.56768749864E+01  0.34126708743E+02  0.21361377898E+02  0.50528835904E+02  0.29999927215E+02 0.  0.
        -12    1    1    2    0    0  0.56768749864E+01 -0.34126708743E+02 -0.21361377898E+02  0.40659164096E+02  0.00000000000E+00 0.  1.
         11    1    3    3    0    0 -0.12399288692E+02  0.15562360935E+02  0.13877650768E+02  0.24259402899E+02  0.51100000000E-03 0. -1.
        -11    1    3    3    0    0 -0.18973168441E+01 -0.17663597957E+01 -0.75517914321E+00  0.27000248025E+01  0.51100000000E-03 0.  1.
        -12    1    3    3    0    0  0.86197305498E+01  0.20330707604E+02  0.82389062739E+01  0.23569408203E+02  0.00000000000E+00 0.  1.
</event>
<event>
 7    1  0.2584640E-011  0.5052886E+02  0.7816164E-02  0.1300439E+00
        -11   -1    0    0    0    0  0.00000000000E+00  0.00000000000E+00  0.45593999997E+02  0.45594000000E+02  0.51100000000E-03 0.  1.
         11   -1    0    0    0    0 -0.00000000000E+00 -0.00000000000E+00 -0.45593999997E+02  0.45594000000E+02  0.51100000000E-03 0. -1.
    9900012    2    1    2    0    0 -0.12665056856E+02 -0.60190130454E+01 -0.38164556806E+02  0.50528861059E+02  0.30000003675E+02 0.  0.
        -12    1    1    2    0    0  0.12665056856E+02  0.60190130454E+01  0.38164556806E+02  0.40659138941E+02  0.00000000000E+00 0.  1.
         11    1    3    3    0    0 -0.22683864522E+00 -0.65470459134E+01  0.10011112940E-01  0.65509820978E+01  0.51100000000E-03 0. -1.
        -11    1    3    3    0    0 -0.92350090349E+01 -0.61086793520E+01 -0.10219587246E+02  0.15067890331E+02  0.51100000000E-03 0.  1.
         12    1    3    3    0    0 -0.32032091759E+01  0.66367122199E+01 -0.27954980674E+02  0.28909988630E+02  0.00000000000E+00 0. -1.
</event>
<event>
 7    1  0.2584640E-011  0.5052887E+02  0.7816164E-02  0.1300439E+00
        -11   -1    0    0    0    0  0.00000000000E+00  0.00000000000E+00  0.45593999997E+02  0.45594000000E+02  0.51100000000E-03 0.  1.
         11   -1    0    0    0    0 -0.00000000000E+00 -0.00000000000E+00 -0.45593999997E+02  0.45594000000E+02  0.51100000000E-03 0. -1.
    9900012    2    1    2    0    0 -0.35193742146E+01 -0.37078045575E+02  0.16309414935E+02  0.50528874652E+02  0.30000044993E+02 0.  0.
        -12    1    1    2    0    0  0.35193742146E+01  0.37078045575E+02 -0.16309414935E+02  0.40659125348E+02  0.00000000000E+00 0.  1.
         11    1    3    3    0    0 -0.39417358397E+01 -0.16503355509E+02 -0.40366311233E+00  0.16972358960E+02  0.51100000000E-03 0. -1.
        -11    1    3    3    0    0  0.55639309351E+01 -0.34277985374E+01 -0.27702845376E+01  0.70980002073E+01  0.51100000000E-03 0.  1.
         12    1    3    3    0    0 -0.51415693100E+01 -0.17146891528E+02  0.19483362585E+02  0.26458515485E+02  0.00000000000E+00 0. -1.
</event>
<event>
 7    1  0.2584640E-011  0.5052883E+02  0.7816164E-02  0.1300439E+00
        -11   -1    0    0    0    0  0.00000000000E+00  0.00000000000E+00  0.45593999997E+02  0.45594000000E+02  0.51100000000E-03 0. -1.
         11   -1    0    0    0    0 -0.00000000000E+00 -0.00000000000E+00 -0.45593999997E+02  0.45594000000E+02  0.51100000000E-03 0.  1.
    9900012    2    1    2    0    0 -0.39471240389E+02  0.96852553826E+01 -0.11768783934E+01  0.50528830894E+02  0.29999911984E+02 0.  0.
        -12    1    1    2    0    0  0.39471240389E+02 -0.96852553826E+01  0.11768783934E+01  0.40659169106E+02  0.00000000000E+00 0.  1.
         11    1    3    3    0    0 -0.32768784087E+02  0.11194658507E+01  0.56545227300E+00  0.32792775895E+02  0.51100000000E-03 0. -1.
        -11    1    3    3    0    0 -0.10080481961E+02  0.22182587341E+01  0.65399298792E-01  0.10321873168E+02  0.51100000000E-03 0.  1.
        -12    1    3    3    0    0  0.33780256595E+01  0.63475307978E+01 -0.18077299652E+01  0.74141818302E+01  0.00000000000E+00 0.  1.
</event>
<event>
 7    1  0.2584640E-011  0.5052887E+02  0.7816164E-02  0.1300439E+00
        -11   -1    0    0    0    0  0.00000000000E+00  0.00000000000E+00  0.45593999997E+02  0.45594000000E+02  0.51100000000E-03 0.  1.
         11   -1    0    0    0    0 -0.00000000000E+00 -0.00000000000E+00 -0.45593999997E+02  0.45594000000E+02  0.51100000000E-03 0. -1.
    9900012    2    1    2    0    0  0.10638978671E+02  0.28740142541E+02 -0.26720426067E+02  0.50528870279E+02  0.30000031700E+02 0.  0.
        -12    1    1    2    0    0 -0.10638978671E+02 -0.28740142541E+02  0.26720426067E+02  0.40659129721E+02  0.00000000000E+00 0.  1.
         11    1    3    3    0    0  0.54200815974E+01  0.22593729784E+02 -0.58566089405E+01  0.23961506184E+02  0.51100000000E-03 0. -1.
        -11    1    3    3    0    0  0.80054453596E+01  0.14560128798E+01 -0.44575492487E+01  0.92777623637E+01  0.51100000000E-03 0.  1.
        -12    1    3    3    0    0 -0.27865482856E+01  0.46903998779E+01 -0.16406267878E+02  0.17289601731E+02  0.00000000000E+00 0.  1.
</event>
<event>
 7    1  0.2584640E-011  0.5052886E+02  0.7816164E-02  0.1300439E+00
        -11   -1    0    0    0    0  0.00000000000E+00  0.00000000000E+00  0.45593999997E+02  0.45594000000E+02  0.51100000000E-03 0.  1.
         11   -1    0    0    0    0 -0.00000000000E+00 -0.00000000000E+00 -0.45593999997E+02  0.45594000000E+02  0.51100000000E-03 0. -1.
    9900012    2    1    2    0    0  0.17217891287E+02  0.10818406399E+02 -0.35208973395E+02  0.50528861975E+02  0.30000006460E+02 0.  0.
        -12    1    1    2    0    0 -0.17217891287E+02 -0.10818406399E+02  0.35208973395E+02  0.40659138025E+02  0.00000000000E+00 0.  1.
         11    1    3    3    0    0 -0.39076255972E+01  0.21014629261E+01 -0.24748351371E+02  0.25142923061E+02  0.51100000000E-03 0.  1.
        -11    1    3    3    0    0  0.12434887093E+02  0.34932246718E+01 -0.48451620059E+01  0.13795094445E+02  0.51100000000E-03 0. -1.
        -12    1    3    3    0    0  0.86906297915E+01  0.52237188012E+01 -0.56154600182E+01  0.11590844469E+02  0.00000000000E+00 0.  1.
</event>
<event>
 7    1  0.2584640E-011  0.5052886E+02  0.7816164E-02  0.1300439E+00
        -11   -1    0    0    0    0  0.00000000000E+00  0.00000000000E+00  0.45593999997E+02  0.45594000000E+02  0.51100000000E-03 0.  1.
         11   -1    0    0    0    0 -0.00000000000E+00 -0.00000000000E+00 -0.45593999997E+02  0.45594000000E+02  0.51100000000E-03 0. -1.
    9900012    2    1    2    0    0  0.17131138949E+02 -0.14017340426E+02 -0.34105773704E+02  0.50528861368E+02  0.30000004615E+02 0.  0.
        -12    1    1    2    0    0 -0.17131138949E+02  0.14017340426E+02  0.34105773704E+02  0.40659138632E+02  0.00000000000E+00 0.  1.
         11    1    3    3    0    0  0.12733888182E+02 -0.93780188759E+01 -0.12711562436E+02  0.20289972058E+02  0.51100000000E-03 0. -1.
        -11    1    3    3    0    0  0.33231075680E+01 -0.67840830085E+01 -0.24883344227E+02  0.26004761994E+02  0.51100000000E-03 0.  1.
        -12    1    3    3    0    0  0.10741431987E+01  0.21447614581E+01  0.34891329592E+01  0.42341273163E+01  0.00000000000E+00 0.  1.
</event>
<event>
 7    1  0.2584640E-011  0.5052886E+02  0.7816164E-02  0.1300439E+00
        -11   -1    0    0    0    0  0.00000000000E+00  0.00000000000E+00  0.45593999997E+02  0.45594000000E+02  0.51100000000E-03 0. -1.
         11   -1    0    0    0    0 -0.00000000000E+00 -0.00000000000E+00 -0.45593999997E+02  0.45594000000E+02  0.51100000000E-03 0.  1.
    9900012    2    1    2    0    0  0.33402197710E+02 -0.18420211733E+02  0.14076743026E+02  0.50528859498E+02  0.29999998930E+02 0.  0.
        -12    1    1    2    0    0 -0.33402197710E+02  0.18420211733E+02 -0.14076743026E+02  0.40659140502E+02  0.00000000000E+00 0.  1.
         11    1    3    3    0    0  0.27687054562E+01  0.14030463372E+01  0.10325207514E+02  0.10781659399E+02  0.51100000000E-03 0. -1.
        -11    1    3    3    0    0  0.16237541306E+02 -0.35059570305E+01  0.64510901622E+01  0.17820382906E+02  0.51100000000E-03 0.  1.
        -12    1    3    3    0    0  0.14395950947E+02 -0.16317301040E+02 -0.26995546502E+01  0.21926817193E+02  0.00000000000E+00 0.  1.
</event>
<event>
 7    1  0.2584640E-011  0.5052885E+02  0.7816164E-02  0.1300439E+00
        -11   -1    0    0    0    0  0.00000000000E+00  0.00000000000E+00  0.45593999997E+02  0.45594000000E+02  0.51100000000E-03 0.  1.
         11   -1    0    0    0    0 -0.00000000000E+00 -0.00000000000E+00 -0.45593999997E+02  0.45594000000E+02  0.51100000000E-03 0. -1.
    9900012    2    1    2    0    0 -0.56239911648E+01  0.15759963083E+02 -0.37056182925E+02  0.50528850894E+02  0.29999972778E+02 0.  0.
        -12    1    1    2    0    0  0.56239911648E+01 -0.15759963083E+02  0.37056182925E+02  0.40659149106E+02  0.00000000000E+00 0.  1.
         11    1    3    3    0    0  0.46667244794E+00 -0.52609296002E+01 -0.26445712967E+01  0.59066844368E+01  0.51100000000E-03 0. -1.
        -11    1    3    3    0    0 -0.94215617199E+01  0.27626889317E+01 -0.12885050272E+02  0.16199469008E+02  0.51100000000E-03 0.  1.
        -12    1    3    3    0    0  0.33308981072E+01  0.18258203752E+02 -0.21526561356E+02  0.28422697449E+02  0.00000000000E+00 0.  1.
</event>
<event>
 7    1  0.2584640E-011  0.5052886E+02  0.7816164E-02  0.1300439E+00
        -11   -1    0    0    0    0  0.00000000000E+00  0.00000000000E+00  0.45593999997E+02  0.45594000000E+02  0.51100000000E-03 0. -1.
         11   -1    0    0    0    0 -0.00000000000E+00 -0.00000000000E+00 -0.45593999997E+02  0.45594000000E+02  0.51100000000E-03 0.  1.
    9900012    2    1    2    0    0  0.24878985798E+02  0.69991331026E+01  0.31388115107E+02  0.50528861193E+02  0.30000004083E+02 0.  0.
        -12    1    1    2    0    0 -0.24878985798E+02 -0.69991331026E+01 -0.31388115107E+02  0.40659138807E+02  0.00000000000E+00 0.  1.
         11    1    3    3    0    0 -0.25730028730E+01  0.34952274699E+01  0.19586207230E+02  0.20061317822E+02  0.51100000000E-03 0. -1.
        -11    1    3    3    0    0  0.97516473273E-01  0.16498071329E+00 -0.31108632088E+00  0.36538070348E+00  0.51100000000E-03 0.  1.
         12    1    3    3    0    0  0.27354472198E+02  0.33389249194E+01  0.12112994198E+02  0.30102162668E+02  0.00000000000E+00 0. -1.
</event>
<event>
 7    1  0.2584640E-011  0.5052886E+02  0.7816164E-02  0.1300439E+00
        -11   -1    0    0    0    0  0.00000000000E+00  0.00000000000E+00  0.45593999997E+02  0.45594000000E+02  0.51100000000E-03 0. -1.
         11   -1    0    0    0    0 -0.00000000000E+00 -0.00000000000E+00 -0.45593999997E+02  0.45594000000E+02  0.51100000000E-03 0.  1.
    9900012    2    1    2    0    0  0.91860595103E+00 -0.25357742657E+02  0.31769582776E+02  0.50528864012E+02  0.30000012650E+02 0.  0.
        -12    1    1    2    0    0 -0.91860595103E+00  0.25357742657E+02 -0.31769582776E+02  0.40659135988E+02  0.00000000000E+00 0.  1.
         11    1    3    3    0    0  0.36575689464E+01  0.28591497934E+01  0.68304243129E+01  0.82587677467E+01  0.51100000000E-03 0. -1.
        -11    1    3    3    0    0 -0.88885020815E+01 -0.86430236804E+01  0.41818520464E+01  0.13084158910E+02  0.51100000000E-03 0.  1.
         12    1    3    3    0    0  0.61495390862E+01 -0.19573868770E+02  0.20757306417E+02  0.29185937355E+02  0.00000000000E+00 0. -1.
</event>
<event>
 7    1  0.2584640E-011  0.5052888E+02  0.7816164E-02  0.1300439E+00
        -11   -1    0    0    0    0  0.00000000000E+00  0.00000000000E+00  0.45593999997E+02  0.45594000000E+02  0.51100000000E-03 0. -1.
         11   -1    0    0    0    0 -0.00000000000E+00 -0.00000000000E+00 -0.45593999997E+02  0.45594000000E+02  0.51100000000E-03 0.  1.
    9900012    2    1    2    0    0  0.18694692813E+02 -0.34879362265E+02 -0.93328885730E+01  0.50528877279E+02  0.30000052976E+02 0.  0.
        -12    1    1    2    0    0 -0.18694692813E+02  0.34879362265E+02  0.93328885730E+01  0.40659122721E+02  0.00000000000E+00 0.  1.
         11    1    3    3    0    0  0.26746480392E+00  0.15753274403E+01 -0.33235967839E+01  0.36877486097E+01  0.51100000000E-03 0.  1.
        -11    1    3    3    0    0  0.71512517193E+01 -0.24905815974E+02  0.61511002096E+01  0.26632238069E+02  0.51100000000E-03 0. -1.
         12    1    3    3    0    0  0.11275976290E+02 -0.11548873731E+02 -0.12160391999E+02  0.20208890600E+02  0.00000000000E+00 0. -1.
</event>
<event>
 7    1  0.2584640E-011  0.5052893E+02  0.7816164E-02  0.1300439E+00
        -11   -1    0    0    0    0  0.00000000000E+00  0.00000000000E+00  0.45593999997E+02  0.45594000000E+02  0.51100000000E-03 0.  1.
         11   -1    0    0    0    0 -0.00000000000E+00 -0.00000000000E+00 -0.45593999997E+02  0.45594000000E+02  0.51100000000E-03 0. -1.
    9900012    2    1    2    0    0 -0.11618023936E+02 -0.16384773596E+02 -0.35351388181E+02  0.50528930504E+02  0.30000214760E+02 0.  0.
        -12    1    1    2    0    0  0.11618023936E+02  0.16384773596E+02  0.35351388181E+02  0.40659069496E+02  0.00000000000E+00 0.  1.
         11    1    3    3    0    0 -0.71021467707E+01 -0.12277288647E+02 -0.28601508221E+02  0.31925202866E+02  0.51100000000E-03 0. -1.
        -11    1    3    3    0    0 -0.39481226212E+01  0.26323828232E+01 -0.10023085056E+02  0.11089605307E+02  0.51100000000E-03 0.  1.
        -12    1    3    3    0    0 -0.56775454383E+00 -0.67398677725E+01  0.32732050960E+01  0.75141223315E+01  0.00000000000E+00 0.  1.
</event>
<event>
 7    1  0.2584640E-011  0.5052883E+02  0.7816164E-02  0.1300439E+00
        -11   -1    0    0    0    0  0.00000000000E+00  0.00000000000E+00  0.45593999997E+02  0.45594000000E+02  0.51100000000E-03 0.  1.
         11   -1    0    0    0    0 -0.00000000000E+00 -0.00000000000E+00 -0.45593999997E+02  0.45594000000E+02  0.51100000000E-03 0. -1.
    9900012    2    1    2    0    0 -0.12953284420E+02 -0.17145341264E+02 -0.34516914677E+02  0.50528834943E+02  0.29999924291E+02 0.  0.
        -12    1    1    2    0    0  0.12953284420E+02  0.17145341264E+02  0.34516914677E+02  0.40659165057E+02  0.00000000000E+00 0.  1.
         11    1    3    3    0    0 -0.27414496498E+01  0.28370963974E+01 -0.59783221818E+01  0.71627507650E+01  0.51100000000E-03 0. -1.
        -11    1    3    3    0    0 -0.13372151851E+02 -0.23840628485E+02 -0.21694291343E+02  0.34897453902E+02  0.51100000000E-03 0.  1.
         12    1    3    3    0    0  0.31603170810E+01  0.38581908236E+01 -0.68443011520E+01  0.84686302755E+01  0.00000000000E+00 0. -1.
</event>
<event>
 7    1  0.2584640E-011  0.5052886E+02  0.7816164E-02  0.1300439E+00
        -11   -1    0    0    0    0  0.00000000000E+00  0.00000000000E+00  0.45593999997E+02  0.45594000000E+02  0.51100000000E-03 0.  1.
         11   -1    0    0    0    0 -0.00000000000E+00 -0.00000000000E+00 -0.45593999997E+02  0.45594000000E+02  0.51100000000E-03 0. -1.
    9900012    2    1    2    0    0  0.10320875237E+02  0.67246364988E+01 -0.38748218683E+02  0.50528860156E+02  0.30000000931E+02 0.  0.
        -12    1    1    2    0    0 -0.10320875237E+02 -0.67246364988E+01  0.38748218683E+02  0.40659139844E+02  0.00000000000E+00 0.  1.
         11    1    3    3    0    0  0.46625569724E+01  0.26153885536E+01 -0.32876503626E+02  0.33308320067E+02  0.51100000000E-03 0. -1.
        -11    1    3    3    0    0 -0.20200232496E+01 -0.13955538350E+01 -0.72667940768E+01  0.76703559794E+01  0.51100000000E-03 0.  1.
        -12    1    3    3    0    0  0.76783415145E+01  0.55048017802E+01  0.13950790190E+01  0.95501841093E+01  0.00000000000E+00 0.  1.
</event>
<event>
 7    1  0.2584640E-011  0.5052886E+02  0.7816164E-02  0.1300439E+00
        -11   -1    0    0    0    0  0.00000000000E+00  0.00000000000E+00  0.45593999997E+02  0.45594000000E+02  0.51100000000E-03 0.  1.
         11   -1    0    0    0    0 -0.00000000000E+00 -0.00000000000E+00 -0.45593999997E+02  0.45594000000E+02  0.51100000000E-03 0. -1.
    9900012    2    1    2    0    0 -0.56208897457E+01 -0.32982011385E+02 -0.23103204232E+02  0.50528861761E+02  0.30000005810E+02 0.  0.
        -12    1    1    2    0    0  0.56208897457E+01  0.32982011385E+02  0.23103204232E+02  0.40659138239E+02  0.00000000000E+00 0.  1.
         11    1    3    3    0    0  0.22633084861E+01  0.52407032152E+01 -0.25233758965E+01  0.62413910044E+01  0.51100000000E-03 0.  1.
        -11    1    3    3    0    0 -0.65714831820E+00 -0.10859496237E+02 -0.48897744053E+01  0.11927715474E+02  0.51100000000E-03 0. -1.
        -12    1    3    3    0    0 -0.72270499136E+01 -0.27363218363E+02 -0.15690053930E+02  0.32359755283E+02  0.00000000000E+00 0.  1.
</event>
<event>
 7    1  0.2584640E-011  0.5052886E+02  0.7816164E-02  0.1300439E+00
        -11   -1    0    0    0    0  0.00000000000E+00  0.00000000000E+00  0.45593999997E+02  0.45594000000E+02  0.51100000000E-03 0. -1.
         11   -1    0    0    0    0 -0.00000000000E+00 -0.00000000000E+00 -0.45593999997E+02  0.45594000000E+02  0.51100000000E-03 0.  1.
    9900012    2    1    2    0    0 -0.31934472398E+02 -0.22218538557E+02  0.11819125932E+02  0.50528859321E+02  0.29999998393E+02 0.  0.
        -12    1    1    2    0    0  0.31934472398E+02  0.22218538557E+02 -0.11819125932E+02  0.40659140679E+02  0.00000000000E+00 0.  1.
         11    1    3    3    0    0 -0.18835344634E+02 -0.15365299480E+02  0.10019226158E+02  0.26291586651E+02  0.51100000000E-03 0. -1.
        -11    1    3    3    0    0 -0.13223482805E+02 -0.98456164530E+01 -0.46469973754E+01  0.17128667365E+02  0.51100000000E-03 0.  1.
        -12    1    3    3    0    0  0.12435504048E+00  0.29923773754E+01  0.64468971493E+01  0.71086053053E+01  0.00000000000E+00 0.  1.
</event>
<event>
 7    1  0.2584640E-011  0.5052888E+02  0.7816164E-02  0.1300439E+00
        -11   -1    0    0    0    0  0.00000000000E+00  0.00000000000E+00  0.45593999997E+02  0.45594000000E+02  0.51100000000E-03 0. -1.
         11   -1    0    0    0    0 -0.00000000000E+00 -0.00000000000E+00 -0.45593999997E+02  0.45594000000E+02  0.51100000000E-03 0.  1.
    9900012    2    1    2    0    0  0.19557335688E+02 -0.10912071901E+02  0.33935252011E+02  0.50528880218E+02  0.30000061910E+02 0.  0.
        -12    1    1    2    0    0 -0.19557335688E+02  0.10912071901E+02 -0.33935252011E+02  0.40659119782E+02  0.00000000000E+00 0.  1.
         11    1    3    3    0    0  0.14224290965E+01 -0.62910195907E+01  0.12657628044E+02  0.14206188088E+02  0.51100000000E-03 0. -1.
        -11    1    3    3    0    0  0.25480179575E+01 -0.44420981885E+01 -0.40864209982E+01  0.65516004658E+01  0.51100000000E-03 0.  1.
         12    1    3    3    0    0  0.15586888635E+02 -0.17895412160E+00  0.25364044965E+02  0.29771091664E+02  0.00000000000E+00 0. -1.
</event>
<event>
 7    1  0.2584640E-011  0.5052887E+02  0.7816164E-02  0.1300439E+00
        -11   -1    0    0    0    0  0.00000000000E+00  0.00000000000E+00  0.45593999997E+02  0.45594000000E+02  0.51100000000E-03 0.  1.
         11   -1    0    0    0    0 -0.00000000000E+00 -0.00000000000E+00 -0.45593999997E+02  0.45594000000E+02  0.51100000000E-03 0. -1.
    9900012    2    1    2    0    0  0.39282176783E+02  0.36153563611E+01 -0.98491017431E+01  0.50528867943E+02  0.30000024600E+02 0.  0.
        -12    1    1    2    0    0 -0.39282176783E+02 -0.36153563611E+01  0.98491017431E+01  0.40659132057E+02  0.00000000000E+00 0.  1.
         11    1    3    3    0    0  0.20007598692E+02  0.13438559613E+02 -0.32253947336E+01  0.24316703340E+02  0.51100000000E-03 0. -1.
        -11    1    3    3    0    0  0.18986090498E+02 -0.42878274972E+01 -0.32795561642E+01  0.19738606484E+02  0.51100000000E-03 0.  1.
         12    1    3    3    0    0  0.28848759381E+00 -0.55353757551E+01 -0.33441508454E+01  0.64735581188E+01  0.00000000000E+00 0. -1.
</event>
<event>
 7    1  0.2584640E-011  0.5052883E+02  0.7816164E-02  0.1300439E+00
        -11   -1    0    0    0    0  0.00000000000E+00  0.00000000000E+00  0.45593999997E+02  0.45594000000E+02  0.51100000000E-03 0.  1.
         11   -1    0    0    0    0 -0.00000000000E+00 -0.00000000000E+00 -0.45593999997E+02  0.45594000000E+02  0.51100000000E-03 0. -1.
    9900012    2    1    2    0    0 -0.30836267021E+02 -0.27905800555E+01 -0.26353470776E+02  0.50528829783E+02  0.29999908607E+02 0.  0.
        -12    1    1    2    0    0  0.30836267021E+02  0.27905800555E+01  0.26353470776E+02  0.40659170217E+02  0.00000000000E+00 0.  1.
         11    1    3    3    0    0 -0.24451825474E+02  0.22982876184E+01 -0.16408539614E+02  0.29536656336E+02  0.51100000000E-03 0. -1.
        -11    1    3    3    0    0 -0.46208655576E+01  0.25802906084E+01 -0.11777753586E+02  0.12912233654E+02  0.51100000000E-03 0.  1.
        -12    1    3    3    0    0 -0.17635759893E+01 -0.76691582823E+01  0.18328224237E+01  0.80799397934E+01  0.00000000000E+00 0.  1.
</event>
<event>
 7    1  0.2584640E-011  0.5052886E+02  0.7816164E-02  0.1300439E+00
        -11   -1    0    0    0    0  0.00000000000E+00  0.00000000000E+00  0.45593999997E+02  0.45594000000E+02  0.51100000000E-03 0. -1.
         11   -1    0    0    0    0 -0.00000000000E+00 -0.00000000000E+00 -0.45593999997E+02  0.45594000000E+02  0.51100000000E-03 0.  1.
    9900012    2    1    2    0    0 -0.13270581249E+02  0.36181627519E+02 -0.12959436336E+02  0.50528862199E+02  0.30000007140E+02 0.  0.
        -12    1    1    2    0    0  0.13270581249E+02 -0.36181627519E+02  0.12959436336E+02  0.40659137801E+02  0.00000000000E+00 0.  1.
         11    1    3    3    0    0 -0.18080854641E+02  0.29595207697E+02 -0.14582334736E+02  0.37622308672E+02  0.51100000000E-03 0. -1.
        -11    1    3    3    0    0  0.37924960439E+01  0.22595033969E+01 -0.38489000479E+01  0.58568262466E+01  0.51100000000E-03 0.  1.
        -12    1    3    3    0    0  0.10177773485E+01  0.43269164250E+01  0.54717984480E+01  0.70497272810E+01  0.00000000000E+00 0.  1.
</event>
<event>
 7    1  0.2584640E-011  0.5052886E+02  0.7816164E-02  0.1300439E+00
        -11   -1    0    0    0    0  0.00000000000E+00  0.00000000000E+00  0.45593999997E+02  0.45594000000E+02  0.51100000000E-03 0.  1.
         11   -1    0    0    0    0 -0.00000000000E+00 -0.00000000000E+00 -0.45593999997E+02  0.45594000000E+02  0.51100000000E-03 0. -1.
    9900012    2    1    2    0    0  0.60231454622E+01 -0.27296641435E+02 -0.29525932174E+02  0.50528860983E+02  0.30000003443E+02 0.  0.
        -12    1    1    2    0    0 -0.60231454622E+01  0.27296641435E+02  0.29525932174E+02  0.40659139017E+02  0.00000000000E+00 0.  1.
         11    1    3    3    0    0  0.35119164728E+01 -0.20729337685E+02 -0.23417354297E+02  0.31470803624E+02  0.51100000000E-03 0. -1.
        -11    1    3    3    0    0  0.39438702645E+00 -0.12907059576E+01 -0.11287258191E+02  0.11367658542E+02  0.51100000000E-03 0.  1.
         12    1    3    3    0    0  0.21168419629E+01 -0.52765977926E+01  0.51786803149E+01  0.76903988170E+01  0.00000000000E+00 0. -1.
</event>
<event>
 7    1  0.2584640E-011  0.5052886E+02  0.7816164E-02  0.1300439E+00
        -11   -1    0    0    0    0  0.00000000000E+00  0.00000000000E+00  0.45593999997E+02  0.45594000000E+02  0.51100000000E-03 0.  1.
         11   -1    0    0    0    0 -0.00000000000E+00 -0.00000000000E+00 -0.45593999997E+02  0.45594000000E+02  0.51100000000E-03 0. -1.
    9900012    2    1    2    0    0  0.70831212323E+01 -0.19794020940E+02 -0.34802183153E+02  0.50528858056E+02  0.29999994548E+02 0.  0.
        -12    1    1    2    0    0 -0.70831212323E+01  0.19794020940E+02  0.34802183153E+02  0.40659141944E+02  0.00000000000E+00 0.  1.
         11    1    3    3    0    0  0.33252672936E+01 -0.18192501345E+02 -0.25774498563E+02  0.31723008751E+02  0.51100000000E-03 0. -1.
        -11    1    3    3    0    0  0.72556953488E+01 -0.69596445590E+01 -0.61848214940E+01  0.11803973253E+02  0.51100000000E-03 0.  1.
        -12    1    3    3    0    0 -0.34978414101E+01  0.53581249646E+01 -0.28428630960E+01  0.70018760521E+01  0.00000000000E+00 0.  1.
</event>
<event>
 7    1  0.2584640E-011  0.5052888E+02  0.7816164E-02  0.1300439E+00
        -11   -1    0    0    0    0  0.00000000000E+00  0.00000000000E+00  0.45593999997E+02  0.45594000000E+02  0.51100000000E-03 0.  1.
         11   -1    0    0    0    0 -0.00000000000E+00 -0.00000000000E+00 -0.45593999997E+02  0.45594000000E+02  0.51100000000E-03 0. -1.
    9900012    2    1    2    0    0 -0.24340737650E+02  0.13416732372E+02 -0.29676320393E+02  0.50528877912E+02  0.30000054902E+02 0.  0.
        -12    1    1    2    0    0  0.24340737650E+02 -0.13416732372E+02  0.29676320393E+02  0.40659122088E+02  0.00000000000E+00 0.  1.
         11    1    3    3    0    0 -0.14055819994E+02 -0.35261016989E+01 -0.17270025315E+01  0.14593903073E+02  0.51100000000E-03 0. -1.
        -11    1    3    3    0    0 -0.32014398457E+01  0.20448964124E+00 -0.87408624704E+00  0.33249150557E+01  0.51100000000E-03 0.  1.
         12    1    3    3    0    0 -0.70834778103E+01  0.16738344429E+02 -0.27075231615E+02  0.32610059784E+02  0.00000000000E+00 0. -1.
</event>
<event>
 7    1  0.2584640E-011  0.5052886E+02  0.7816164E-02  0.1300439E+00
        -11   -1    0    0    0    0  0.00000000000E+00  0.00000000000E+00  0.45593999997E+02  0.45594000000E+02  0.51100000000E-03 0.  1.
         11   -1    0    0    0    0 -0.00000000000E+00 -0.00000000000E+00 -0.45593999997E+02  0.45594000000E+02  0.51100000000E-03 0. -1.
    9900012    2    1    2    0    0 -0.39247530667E+02  0.99675044219E+01 -0.36668469833E+01  0.50528861118E+02  0.30000003854E+02 0.  0.
        -12    1    1    2    0    0  0.39247530667E+02 -0.99675044219E+01  0.36668469833E+01  0.40659138882E+02  0.00000000000E+00 0.  1.
         11    1    3    3    0    0 -0.18847583766E+01  0.62761351123E+01 -0.67324786982E+01  0.93951293641E+01  0.51100000000E-03 0. -1.
        -11    1    3    3    0    0 -0.67723634762E+01 -0.51316922698E+01  0.37529826306E+01  0.92889209003E+01  0.51100000000E-03 0.  1.
         12    1    3    3    0    0 -0.30590408814E+02  0.88230615794E+01 -0.68735091567E+00  0.31844810854E+02  0.00000000000E+00 0. -1.
</event>
<event>
 7    1  0.2584640E-011  0.5052887E+02  0.7816164E-02  0.1300439E+00
        -11   -1    0    0    0    0  0.00000000000E+00  0.00000000000E+00  0.45593999997E+02  0.45594000000E+02  0.51100000000E-03 0.  1.
         11   -1    0    0    0    0 -0.00000000000E+00 -0.00000000000E+00 -0.45593999997E+02  0.45594000000E+02  0.51100000000E-03 0. -1.
    9900012    2    1    2    0    0  0.27630843255E+02  0.27200659054E+02 -0.12240338851E+02  0.50528865145E+02  0.30000016094E+02 0.  0.
        -12    1    1    2    0    0 -0.27630843255E+02 -0.27200659054E+02  0.12240338851E+02  0.40659134855E+02  0.00000000000E+00 0.  1.
         11    1    3    3    0    0  0.16836741190E+02  0.11875467302E+01 -0.35037274546E+01  0.17238393993E+02  0.51100000000E-03 0. -1.
        -11    1    3    3    0    0  0.10945545899E+02  0.10757747961E+02 -0.94402904839E+01  0.18018135334E+02  0.51100000000E-03 0.  1.
        -12    1    3    3    0    0 -0.15144383332E+00  0.15255364363E+02  0.70367908722E+00  0.15272335818E+02  0.00000000000E+00 0.  1.
</event>
<event>
 7    1  0.2584640E-011  0.5052886E+02  0.7816164E-02  0.1300439E+00
        -11   -1    0    0    0    0  0.00000000000E+00  0.00000000000E+00  0.45593999997E+02  0.45594000000E+02  0.51100000000E-03 0.  1.
         11   -1    0    0    0    0 -0.00000000000E+00 -0.00000000000E+00 -0.45593999997E+02  0.45594000000E+02  0.51100000000E-03 0. -1.
    9900012    2    1    2    0    0 -0.39158914201E+02 -0.68419658185E+01 -0.85400587912E+01  0.50528860046E+02  0.30000000596E+02 0.  0.
        -12    1    1    2    0    0  0.39158914201E+02  0.68419658185E+01  0.85400587912E+01  0.40659139954E+02  0.00000000000E+00 0.  1.
         11    1    3    3    0    0 -0.31354756717E+02 -0.75147768164E+01  0.27243349433E+01  0.32357605605E+02  0.51100000000E-03 0. -1.
        -11    1    3    3    0    0 -0.10494968035E+02  0.44379875165E+00 -0.56180631795E+01  0.11912344251E+02  0.51100000000E-03 0.  1.
        -12    1    3    3    0    0  0.26908105512E+01  0.22901224623E+00 -0.56463305550E+01  0.62589101901E+01  0.00000000000E+00 0.  1.
</event>
<event>
 7    1  0.2584640E-011  0.5052889E+02  0.7816164E-02  0.1300439E+00
        -11   -1    0    0    0    0  0.00000000000E+00  0.00000000000E+00  0.45593999997E+02  0.45594000000E+02  0.51100000000E-03 0. -1.
         11   -1    0    0    0    0 -0.00000000000E+00 -0.00000000000E+00 -0.45593999997E+02  0.45594000000E+02  0.51100000000E-03 0.  1.
    9900012    2    1    2    0    0  0.14782935247E+02  0.21912163368E+02  0.30894740901E+02  0.50528891631E+02  0.30000096602E+02 0.  0.
        -12    1    1    2    0    0 -0.14782935247E+02 -0.21912163368E+02 -0.30894740901E+02  0.40659108369E+02  0.00000000000E+00 0.  1.
         11    1    3    3    0    0 -0.16528403110E+01 -0.15114058434E+01  0.12206271644E+02  0.12410048204E+02  0.51100000000E-03 0. -1.
        -11    1    3    3    0    0  0.12090719082E+02  0.37452375558E+01  0.10182809372E+02  0.16245057687E+02  0.51100000000E-03 0.  1.
         12    1    3    3    0    0  0.43450564755E+01  0.19678331656E+02  0.85056598848E+01  0.21873785740E+02  0.00000000000E+00 0. -1.
</event>
<event>
 7    1  0.2584640E-011  0.5052886E+02  0.7816164E-02  0.1300439E+00
        -11   -1    0    0    0    0  0.00000000000E+00  0.00000000000E+00  0.45593999997E+02  0.45594000000E+02  0.51100000000E-03 0. -1.
         11   -1    0    0    0    0 -0.00000000000E+00 -0.00000000000E+00 -0.45593999997E+02  0.45594000000E+02  0.51100000000E-03 0.  1.
    9900012    2    1    2    0    0  0.36990298071E+02 -0.86003144247E+01  0.14523019551E+02  0.50528860112E+02  0.30000000796E+02 0.  0.
        -12    1    1    2    0    0 -0.36990298071E+02  0.86003144247E+01 -0.14523019551E+02  0.40659139888E+02  0.00000000000E+00 0.  1.
         11    1    3    3    0    0 -0.69233196269E+00  0.34276548154E+01  0.63414696136E+00  0.35539110442E+01  0.51100000000E-03 0. -1.
        -11    1    3    3    0    0  0.48321356845E+01 -0.87901869171E+01 -0.21753198591E+01  0.10263963078E+02  0.51100000000E-03 0.  1.
         12    1    3    3    0    0  0.32850494349E+02 -0.32377823230E+01  0.16064192449E+02  0.36710985990E+02  0.00000000000E+00 0. -1.
</event>
<event>
 7    1  0.2584640E-011  0.5052887E+02  0.7816164E-02  0.1300439E+00
        -11   -1    0    0    0    0  0.00000000000E+00  0.00000000000E+00  0.45593999997E+02  0.45594000000E+02  0.51100000000E-03 0.  1.
         11   -1    0    0    0    0 -0.00000000000E+00 -0.00000000000E+00 -0.45593999997E+02  0.45594000000E+02  0.51100000000E-03 0. -1.
    9900012    2    1    2    0    0 -0.23182062257E+02 -0.11181848626E+02 -0.31475754637E+02  0.50528869670E+02  0.30000029850E+02 0.  0.
        -12    1    1    2    0    0  0.23182062257E+02  0.11181848626E+02  0.31475754637E+02  0.40659130330E+02  0.00000000000E+00 0.  1.
         11    1    3    3    0    0 -0.14790574737E+02 -0.96317002768E+01 -0.32897868939E+00  0.17653299366E+02  0.51100000000E-03 0.  1.
        -11    1    3    3    0    0 -0.14324116242E+01  0.16623615099E+01 -0.30848816741E+01  0.37857289992E+01  0.51100000000E-03 0. -1.
        -12    1    3    3    0    0 -0.69590758963E+01 -0.32125098592E+01 -0.28061894274E+02  0.29089841305E+02  0.00000000000E+00 0.  1.
</event>
<event>
 7    1  0.2584640E-011  0.5052885E+02  0.7816164E-02  0.1300439E+00
        -11   -1    0    0    0    0  0.00000000000E+00  0.00000000000E+00  0.45593999997E+02  0.45594000000E+02  0.51100000000E-03 0.  1.
         11   -1    0    0    0    0 -0.00000000000E+00 -0.00000000000E+00 -0.45593999997E+02  0.45594000000E+02  0.51100000000E-03 0. -1.
    9900012    2    1    2    0    0  0.15604271031E+02  0.57434795954E+01 -0.37103711030E+02  0.50528853372E+02  0.29999980310E+02 0.  0.
        -12    1    1    2    0    0 -0.15604271031E+02 -0.57434795954E+01  0.37103711030E+02  0.40659146628E+02  0.00000000000E+00 0.  1.
         11    1    3    3    0    0  0.28956317378E+01 -0.25794741076E+01 -0.40277844317E+01  0.55911910647E+01  0.51100000000E-03 0. -1.
        -11    1    3    3    0    0 -0.49112135547E+00 -0.84044520326E+01 -0.14009640630E+02  0.16344602932E+02  0.51100000000E-03 0.  1.
         12    1    3    3    0    0  0.13199760649E+02  0.16727405736E+02 -0.19066285969E+02  0.28593059376E+02  0.00000000000E+00 0. -1.
</event>
<event>
 7    1  0.2584640E-011  0.5052886E+02  0.7816164E-02  0.1300439E+00
        -11   -1    0    0    0    0  0.00000000000E+00  0.00000000000E+00  0.45593999997E+02  0.45594000000E+02  0.51100000000E-03 0. -1.
         11   -1    0    0    0    0 -0.00000000000E+00 -0.00000000000E+00 -0.45593999997E+02  0.45594000000E+02  0.51100000000E-03 0.  1.
    9900012    2    1    2    0    0 -0.17947476237E+02 -0.14653491708E+02  0.33411513410E+02  0.50528856491E+02  0.29999989791E+02 0.  0.
        -12    1    1    2    0    0  0.17947476237E+02  0.14653491708E+02 -0.33411513410E+02  0.40659143509E+02  0.00000000000E+00 0.  1.
         11    1    3    3    0    0 -0.50282323344E+01 -0.63198059379E+01  0.44950823066E+01  0.92427719168E+01  0.51100000000E-03 0. -1.
        -11    1    3    3    0    0 -0.18331448983E+02 -0.60976777646E+01  0.29645738588E+02  0.35384933413E+02  0.51100000000E-03 0.  1.
        -12    1    3    3    0    0  0.54122050799E+01 -0.22360080057E+01 -0.72930748488E+00  0.59011511619E+01  0.00000000000E+00 0.  1.
</event>
<event>
 7    1  0.2584640E-011  0.5052888E+02  0.7816164E-02  0.1300439E+00
        -11   -1    0    0    0    0  0.00000000000E+00  0.00000000000E+00  0.45593999997E+02  0.45594000000E+02  0.51100000000E-03 0.  1.
         11   -1    0    0    0    0 -0.00000000000E+00 -0.00000000000E+00 -0.45593999997E+02  0.45594000000E+02  0.51100000000E-03 0. -1.
    9900012    2    1    2    0    0 -0.17275961233E+02  0.34275612493E+02 -0.13412206288E+02  0.50528883854E+02  0.30000072962E+02 0.  0.
        -12    1    1    2    0    0  0.17275961233E+02 -0.34275612493E+02  0.13412206288E+02  0.40659116146E+02  0.00000000000E+00 0.  1.
         11    1    3    3    0    0  0.49925626855E+01  0.41890000742E+01 -0.32323017080E+01  0.72746943841E+01  0.51100000000E-03 0. -1.
        -11    1    3    3    0    0  0.27583889291E+01  0.16032518684E-01 -0.16437691511E+01  0.32110658369E+01  0.51100000000E-03 0.  1.
         12    1    3    3    0    0 -0.25026912848E+02  0.30070579900E+02 -0.85361354289E+01  0.40043123633E+02  0.00000000000E+00 0. -1.
</event>
<event>
 7    1  0.2584640E-011  0.5052886E+02  0.7816164E-02  0.1300439E+00
        -11   -1    0    0    0    0  0.00000000000E+00  0.00000000000E+00  0.45593999997E+02  0.45594000000E+02  0.51100000000E-03 0.  1.
         11   -1    0    0    0    0 -0.00000000000E+00 -0.00000000000E+00 -0.45593999997E+02  0.45594000000E+02  0.51100000000E-03 0. -1.
    9900012    2    1    2    0    0 -0.17283218029E+02 -0.28416953256E+02 -0.23386586984E+02  0.50528864389E+02  0.30000013798E+02 0.  0.
        -12    1    1    2    0    0  0.17283218029E+02  0.28416953256E+02  0.23386586984E+02  0.40659135611E+02  0.00000000000E+00 0.  1.
         11    1    3    3    0    0 -0.65581453889E+01  0.25383698847E+01 -0.76837630159E+01  0.10415988045E+02  0.51100000000E-03 0. -1.
        -11    1    3    3    0    0 -0.11974715262E+02 -0.17438973992E+02 -0.16018907142E+02  0.26535203142E+02  0.51100000000E-03 0.  1.
        -12    1    3    3    0    0  0.12496426222E+01 -0.13516349149E+02  0.31608317362E+00  0.13577673202E+02  0.00000000000E+00 0.  1.
</event>
<event>
 7    1  0.2584640E-011  0.5052886E+02  0.7816164E-02  0.1300439E+00
        -11   -1    0    0    0    0  0.00000000000E+00  0.00000000000E+00  0.45593999997E+02  0.45594000000E+02  0.51100000000E-03 0. -1.
         11   -1    0    0    0    0 -0.00000000000E+00 -0.00000000000E+00 -0.45593999997E+02  0.45594000000E+02  0.51100000000E-03 0.  1.
    9900012    2    1    2    0    0  0.20310222358E+02  0.23127300592E+02  0.26566675554E+02  0.50528863083E+02  0.30000009827E+02 0.  0.
        -12    1    1    2    0    0 -0.20310222358E+02 -0.23127300592E+02 -0.26566675554E+02  0.40659136917E+02  0.00000000000E+00 0.  1.
         11    1    3    3    0    0  0.11591688232E+02  0.18721224057E+02  0.20443910692E+02  0.30046712814E+02  0.51100000000E-03 0. -1.
        -11    1    3    3    0    0  0.11432469042E+02  0.87493107683E+01  0.40303937113E+01  0.14949777959E+02  0.51100000000E-03 0.  1.
        -12    1    3    3    0    0 -0.27139349162E+01 -0.43432342340E+01  0.20923711504E+01  0.55323723096E+01  0.00000000000E+00 0.  1.
</event>
<event>
 7    1  0.2584640E-011  0.5052883E+02  0.7816164E-02  0.1300439E+00
        -11   -1    0    0    0    0  0.00000000000E+00  0.00000000000E+00  0.45593999997E+02  0.45594000000E+02  0.51100000000E-03 0.  1.
         11   -1    0    0    0    0 -0.00000000000E+00 -0.00000000000E+00 -0.45593999997E+02  0.45594000000E+02  0.51100000000E-03 0. -1.
    9900012    2    1    2    0    0  0.14243752860E+02  0.77580548490E+01 -0.37283988775E+02  0.50528834618E+02  0.29999923305E+02 0.  0.
        -12    1    1    2    0    0 -0.14243752860E+02 -0.77580548490E+01  0.37283988775E+02  0.40659165382E+02  0.00000000000E+00 0.  1.
         11    1    3    3    0    0 -0.44620702851E+01  0.60993607390E+01 -0.51034811871E+00  0.75744787356E+01  0.51100000000E-03 0. -1.
        -11    1    3    3    0    0  0.60382494096E+01 -0.40703507625E+01 -0.70293676200E+01  0.10121275644E+02  0.51100000000E-03 0.  1.
         12    1    3    3    0    0  0.12667573736E+02  0.57290448725E+01 -0.29744273036E+02  0.32833080239E+02  0.00000000000E+00 0. -1.
</event>
<event>
 7    1  0.2584640E-011  0.5052886E+02  0.7816164E-02  0.1300439E+00
        -11   -1    0    0    0    0  0.00000000000E+00  0.00000000000E+00  0.45593999997E+02  0.45594000000E+02  0.51100000000E-03 0.  1.
         11   -1    0    0    0    0 -0.00000000000E+00 -0.00000000000E+00 -0.45593999997E+02  0.45594000000E+02  0.51100000000E-03 0. -1.
    9900012    2    1    2    0    0 -0.63371198631E+01 -0.47167468537E+01 -0.39884323611E+02  0.50528855162E+02  0.29999985752E+02 0.  0.
        -12    1    1    2    0    0  0.63371198631E+01  0.47167468537E+01  0.39884323611E+02  0.40659144838E+02  0.00000000000E+00 0.  1.
         11    1    3    3    0    0 -0.12600831555E+01  0.51485137525E+01 -0.28242588194E+01  0.60059505125E+01  0.51100000000E-03 0. -1.
        -11    1    3    3    0    0 -0.90791851602E+01  0.21314762324E+01 -0.62727604580E+01  0.11239320181E+02  0.51100000000E-03 0.  1.
         12    1    3    3    0    0  0.40021484526E+01 -0.11996736839E+02 -0.30787304333E+02  0.33283584469E+02  0.00000000000E+00 0. -1.
</event>
<event>
 7    1  0.2584640E-011  0.5052887E+02  0.7816164E-02  0.1300439E+00
        -11   -1    0    0    0    0  0.00000000000E+00  0.00000000000E+00  0.45593999997E+02  0.45594000000E+02  0.51100000000E-03 0.  1.
         11   -1    0    0    0    0 -0.00000000000E+00 -0.00000000000E+00 -0.45593999997E+02  0.45594000000E+02  0.51100000000E-03 0. -1.
    9900012    2    1    2    0    0 -0.16764360864E+02  0.12041867936E+02 -0.35030196945E+02  0.50528867243E+02  0.30000022472E+02 0.  0.
        -12    1    1    2    0    0  0.16764360864E+02 -0.12041867936E+02  0.35030196945E+02  0.40659132757E+02  0.00000000000E+00 0.  1.
         11    1    3    3    0    0 -0.60823676270E+01  0.12863456043E+02 -0.18168601879E+02  0.23077300358E+02  0.51100000000E-03 0. -1.
        -11    1    3    3    0    0  0.73149387908E+00  0.63519177597E+01 -0.74010817657E+00  0.64365909374E+01  0.51100000000E-03 0.  1.
        -12    1    3    3    0    0 -0.11413487116E+02 -0.71735058664E+01 -0.16121486889E+02  0.21014975947E+02  0.00000000000E+00 0.  1.
</event>
<event>
 7    1  0.2584640E-011  0.5052887E+02  0.7816164E-02  0.1300439E+00
        -11   -1    0    0    0    0  0.00000000000E+00  0.00000000000E+00  0.45593999997E+02  0.45594000000E+02  0.51100000000E-03 0.  1.
         11   -1    0    0    0    0 -0.00000000000E+00 -0.00000000000E+00 -0.45593999997E+02  0.45594000000E+02  0.51100000000E-03 0. -1.
    9900012    2    1    2    0    0 -0.11934470265E+02  0.37104543842E+02 -0.11575251688E+02  0.50528865652E+02  0.30000017637E+02 0.  0.
        -12    1    1    2    0    0  0.11934470265E+02 -0.37104543842E+02  0.11575251688E+02  0.40659134348E+02  0.00000000000E+00 0.  1.
         11    1    3    3    0    0  0.18125918415E+00  0.79234942725E+01  0.59628763987E+01  0.99181909432E+01  0.51100000000E-03 0. -1.
        -11    1    3    3    0    0  0.41893008438E+01  0.30883791363E+01 -0.54975878080E+01  0.75704556810E+01  0.51100000000E-03 0.  1.
         12    1    3    3    0    0 -0.16305030293E+02  0.26092670434E+02 -0.12040540279E+02  0.33040219028E+02  0.00000000000E+00 0. -1.
</event>
<event>
 7    1  0.2584640E-011  0.5052886E+02  0.7816164E-02  0.1300439E+00
        -11   -1    0    0    0    0  0.00000000000E+00  0.00000000000E+00  0.45593999997E+02  0.45594000000E+02  0.51100000000E-03 0. -1.
         11   -1    0    0    0    0 -0.00000000000E+00 -0.00000000000E+00 -0.45593999997E+02  0.45594000000E+02  0.51100000000E-03 0.  1.
    9900012    2    1    2    0    0 -0.21385571996E+02 -0.26592901657E+02  0.22105211969E+02  0.50528861982E+02  0.30000006482E+02 0.  0.
        -12    1    1    2    0    0  0.21385571996E+02  0.26592901657E+02 -0.22105211969E+02  0.40659138018E+02  0.00000000000E+00 0.  1.
         11    1    3    3    0    0  0.33232195951E+01 -0.60016467347E+01  0.26051220844E+01  0.73382704598E+01  0.51100000000E-03 0. -1.
        -11    1    3    3    0    0 -0.53370168763E+01 -0.32564314389E+01  0.15725263582E+02  0.16922529652E+02  0.51100000000E-03 0.  1.
         12    1    3    3    0    0 -0.19371774715E+02 -0.17334823483E+02  0.37748263030E+01  0.26268061870E+02  0.00000000000E+00 0. -1.
</event>
<event>
 7    1  0.2584640E-011  0.5052886E+02  0.7816164E-02  0.1300439E+00
        -11   -1    0    0    0    0  0.00000000000E+00  0.00000000000E+00  0.45593999997E+02  0.45594000000E+02  0.51100000000E-03 0.  1.
         11   -1    0    0    0    0 -0.00000000000E+00 -0.00000000000E+00 -0.45593999997E+02  0.45594000000E+02  0.51100000000E-03 0. -1.
    9900012    2    1    2    0    0 -0.15946997799E+02 -0.33778154616E+02 -0.16059111180E+02  0.50528861790E+02  0.30000005897E+02 0.  0.
        -12    1    1    2    0    0  0.15946997799E+02  0.33778154616E+02  0.16059111180E+02  0.40659138210E+02  0.00000000000E+00 0.  1.
         11    1    3    3    0    0 -0.37015050485E+01 -0.20093724597E+02 -0.19400646473E+02  0.28175237206E+02  0.51100000000E-03 0. -1.
        -11    1    3    3    0    0  0.24211138615E+01 -0.99792078904E+00 -0.25374804697E+00  0.26309744514E+01  0.51100000000E-03 0.  1.
         12    1    3    3    0    0 -0.14666606612E+02 -0.12686509230E+02  0.35952833397E+01  0.19722650133E+02  0.00000000000E+00 0. -1.
</event>
<event>
 7    1  0.2584640E-011  0.5052886E+02  0.7816164E-02  0.1300439E+00
        -11   -1    0    0    0    0  0.00000000000E+00  0.00000000000E+00  0.45593999997E+02  0.45594000000E+02  0.51100000000E-03 0. -1.
         11   -1    0    0    0    0 -0.00000000000E+00 -0.00000000000E+00 -0.45593999997E+02  0.45594000000E+02  0.51100000000E-03 0.  1.
    9900012    2    1    2    0    0 -0.23617541298E+02  0.26476321254E+02  0.19859052135E+02  0.50528858398E+02  0.29999995586E+02 0.  0.
        -12    1    1    2    0    0  0.23617541298E+02 -0.26476321254E+02 -0.19859052135E+02  0.40659141602E+02  0.00000000000E+00 0.  1.
         11    1    3    3    0    0 -0.82069477072E+01  0.97537507277E+01  0.20192972478E+02  0.23879819549E+02  0.51100000000E-03 0. -1.
        -11    1    3    3    0    0 -0.15210823257E+02  0.72313023755E+01  0.17396742092E+01  0.16931844106E+02  0.51100000000E-03 0.  1.
        -12    1    3    3    0    0 -0.19977033368E+00  0.94912681511E+01 -0.20735945528E+01  0.97171947430E+01  0.00000000000E+00 0.  1.
</event>
<event>
 7    1  0.2584640E-011  0.5052887E+02  0.7816164E-02  0.1300439E+00
        -11   -1    0    0    0    0  0.00000000000E+00  0.00000000000E+00  0.45593999997E+02  0.45594000000E+02  0.51100000000E-03 0.  1.
         11   -1    0    0    0    0 -0.00000000000E+00 -0.00000000000E+00 -0.45593999997E+02  0.45594000000E+02  0.51100000000E-03 0. -1.
    9900012    2    1    2    0    0  0.28490852968E+02 -0.10409948022E+02 -0.27075256657E+02  0.50528865188E+02  0.30000016224E+02 0.  0.
        -12    1    1    2    0    0 -0.28490852968E+02  0.10409948022E+02  0.27075256657E+02  0.40659134812E+02  0.00000000000E+00 0.  1.
         11    1    3    3    0    0  0.21151992575E+01 -0.77147575903E+01 -0.10114792197E+02  0.12895757986E+02  0.51100000000E-03 0.  1.
        -11    1    3    3    0    0  0.21164220774E+02  0.56365603578E+01 -0.17128467201E+02  0.27804306187E+02  0.51100000000E-03 0. -1.
         12    1    3    3    0    0  0.52114329369E+01 -0.83317507895E+01  0.16800274114E+00  0.98288010151E+01  0.00000000000E+00 0. -1.
</event>
<event>
 7    1  0.2584640E-011  0.5052886E+02  0.7816164E-02  0.1300439E+00
        -11   -1    0    0    0    0  0.00000000000E+00  0.00000000000E+00  0.45593999997E+02  0.45594000000E+02  0.51100000000E-03 0.  1.
         11   -1    0    0    0    0 -0.00000000000E+00 -0.00000000000E+00 -0.45593999997E+02  0.45594000000E+02  0.51100000000E-03 0. -1.
    9900012    2    1    2    0    0  0.14077661037E+02 -0.37228464396E+02 -0.83082348199E+01  0.50528857518E+02  0.29999992911E+02 0.  0.
        -12    1    1    2    0    0 -0.14077661037E+02  0.37228464396E+02  0.83082348199E+01  0.40659142482E+02  0.00000000000E+00 0.  1.
         11    1    3    3    0    0 -0.28000814989E+01 -0.16535821596E+02 -0.35192966892E+01  0.17136490355E+02  0.51100000000E-03 0. -1.
        -11    1    3    3    0    0 -0.98398434391E-01 -0.60306486986E+01  0.59945208023E+01  0.85036866057E+01  0.51100000000E-03 0.  1.
         12    1    3    3    0    0  0.16976140970E+02 -0.14661994102E+02 -0.10783458933E+02  0.24888680557E+02  0.00000000000E+00 0. -1.
</event>
<event>
 7    1  0.2584640E-011  0.5052885E+02  0.7816164E-02  0.1300439E+00
        -11   -1    0    0    0    0  0.00000000000E+00  0.00000000000E+00  0.45593999997E+02  0.45594000000E+02  0.51100000000E-03 0. -1.
         11   -1    0    0    0    0 -0.00000000000E+00 -0.00000000000E+00 -0.45593999997E+02  0.45594000000E+02  0.51100000000E-03 0.  1.
    9900012    2    1    2    0    0  0.32678127365E+02  0.15398632286E+02 -0.18659804846E+02  0.50528853412E+02  0.29999980432E+02 0.  0.
        -12    1    1    2    0    0 -0.32678127365E+02 -0.15398632286E+02  0.18659804846E+02  0.40659146588E+02  0.00000000000E+00 0.  1.
         11    1    3    3    0    0  0.16480760405E+02  0.15560393692E+02 -0.16005464603E+01  0.22722303242E+02  0.51100000000E-03 0. -1.
        -11    1    3    3    0    0  0.13825419971E+02  0.62022017749E+01 -0.11312513490E+02  0.18909852087E+02  0.51100000000E-03 0.  1.
         12    1    3    3    0    0  0.23719469884E+01 -0.63639631809E+01 -0.57467448961E+01  0.88966980832E+01  0.00000000000E+00 0. -1.
</event>
<event>
 7    1  0.2584640E-011  0.5052887E+02  0.7816164E-02  0.1300439E+00
        -11   -1    0    0    0    0  0.00000000000E+00  0.00000000000E+00  0.45593999997E+02  0.45594000000E+02  0.51100000000E-03 0.  1.
         11   -1    0    0    0    0 -0.00000000000E+00 -0.00000000000E+00 -0.45593999997E+02  0.45594000000E+02  0.51100000000E-03 0. -1.
    9900012    2    1    2    0    0 -0.22600141949E+02 -0.27092305776E+02 -0.20209051740E+02  0.50528865472E+02  0.30000017089E+02 0.  0.
        -12    1    1    2    0    0  0.22600141949E+02  0.27092305776E+02  0.20209051740E+02  0.40659134528E+02  0.00000000000E+00 0.  1.
         11    1    3    3    0    0 -0.19939796236E+02 -0.86963558636E+01 -0.69791635425E+01  0.22845804938E+02  0.51100000000E-03 0. -1.
        -11    1    3    3    0    0  0.14208218825E+01 -0.75136703279E+00 -0.89242887140E+01  0.90678672549E+01  0.51100000000E-03 0.  1.
        -12    1    3    3    0    0 -0.40811675951E+01 -0.17644582879E+02 -0.43055994832E+01  0.18615193279E+02  0.00000000000E+00 0.  1.
</event>
<event>
 7    1  0.2584640E-011  0.5052886E+02  0.7816164E-02  0.1300439E+00
        -11   -1    0    0    0    0  0.00000000000E+00  0.00000000000E+00  0.45593999997E+02  0.45594000000E+02  0.51100000000E-03 0.  1.
         11   -1    0    0    0    0 -0.00000000000E+00 -0.00000000000E+00 -0.45593999997E+02  0.45594000000E+02  0.51100000000E-03 0. -1.
    9900012    2    1    2    0    0  0.15034327052E+02  0.53353050057E+00 -0.37773667886E+02  0.50528860434E+02  0.30000001775E+02 0.  0.
        -12    1    1    2    0    0 -0.15034327052E+02 -0.53353050057E+00  0.37773667886E+02  0.40659139566E+02  0.00000000000E+00 0.  1.
         11    1    3    3    0    0  0.87596288230E+01 -0.64243036899E+01 -0.23865629811E+02  0.26221576260E+02  0.51100000000E-03 0. -1.
        -11    1    3    3    0    0 -0.60372535514E+01  0.16510495459E+01 -0.63527007955E+01  0.89180268392E+01  0.51100000000E-03 0.  1.
         12    1    3    3    0    0  0.12311951781E+02  0.53067846446E+01 -0.75553372786E+01  0.15389257335E+02  0.00000000000E+00 0. -1.
</event>
<event>
 7    1  0.2584640E-011  0.5052886E+02  0.7816164E-02  0.1300439E+00
        -11   -1    0    0    0    0  0.00000000000E+00  0.00000000000E+00  0.45593999997E+02  0.45594000000E+02  0.51100000000E-03 0.  1.
         11   -1    0    0    0    0 -0.00000000000E+00 -0.00000000000E+00 -0.45593999997E+02  0.45594000000E+02  0.51100000000E-03 0. -1.
    9900012    2    1    2    0    0  0.22518469468E+02 -0.23822189969E+02 -0.24053849407E+02  0.50528857444E+02  0.29999992687E+02 0.  0.
        -12    1    1    2    0    0 -0.22518469468E+02  0.23822189969E+02  0.24053849407E+02  0.40659142556E+02  0.00000000000E+00 0.  1.
         11    1    3    3    0    0  0.10895196706E+02 -0.10843157193E+02 -0.16599236765E+02  0.22623307243E+02  0.51100000000E-03 0. -1.
        -11    1    3    3    0    0  0.11802070050E+02 -0.18142720020E+02 -0.68594254039E+01  0.22704600070E+02  0.51100000000E-03 0.  1.
        -12    1    3    3    0    0 -0.17879728847E+00  0.51636872436E+01 -0.59518723763E+00  0.52009501313E+01  0.00000000000E+00 0.  1.
</event>
<event>
 7    1  0.2584640E-011  0.5052895E+02  0.7816164E-02  0.1300438E+00
        -11   -1    0    0    0    0  0.00000000000E+00  0.00000000000E+00  0.45593999997E+02  0.45594000000E+02  0.51100000000E-03 0.  1.
         11   -1    0    0    0    0 -0.00000000000E+00 -0.00000000000E+00 -0.45593999997E+02  0.45594000000E+02  0.51100000000E-03 0. -1.
    9900012    2    1    2    0    0  0.29942737849E+00 -0.22548381731E+02 -0.33832521446E+02  0.50528945869E+02  0.30000261463E+02 0.  0.
        -12    1    1    2    0    0 -0.29942737849E+00  0.22548381731E+02  0.33832521446E+02  0.40659054131E+02  0.00000000000E+00 0.  1.
         11    1    3    3    0    0 -0.24968975816E+01 -0.12734790264E+02 -0.21843451174E+02  0.25407592174E+02  0.51100000000E-03 0. -1.
        -11    1    3    3    0    0 -0.74017324927E+01  0.19827643363E+00 -0.63623044414E+01  0.97623703835E+01  0.51100000000E-03 0.  1.
        -12    1    3    3    0    0  0.10198057453E+02 -0.10011867901E+02 -0.56267658300E+01  0.15358983312E+02  0.00000000000E+00 0.  1.
</event>
<event>
 7    1  0.2584640E-011  0.5052886E+02  0.7816164E-02  0.1300439E+00
        -11   -1    0    0    0    0  0.00000000000E+00  0.00000000000E+00  0.45593999997E+02  0.45594000000E+02  0.51100000000E-03 0.  1.
         11   -1    0    0    0    0 -0.00000000000E+00 -0.00000000000E+00 -0.45593999997E+02  0.45594000000E+02  0.51100000000E-03 0. -1.
    9900012    2    1    2    0    0 -0.14591316845E+02 -0.37858624170E+02  0.26426209512E+01  0.50528863305E+02  0.30000010502E+02 0.  0.
        -12    1    1    2    0    0  0.14591316845E+02  0.37858624170E+02 -0.26426209512E+01  0.40659136695E+02  0.00000000000E+00 0.  1.
         11    1    3    3    0    0 -0.54791253382E+01  0.11999384799E+00 -0.29328012673E+01  0.62158295126E+01  0.51100000000E-03 0. -1.
        -11    1    3    3    0    0 -0.13420140923E+02 -0.15229796480E+02  0.59630095427E+01  0.21156662457E+02  0.51100000000E-03 0.  1.
         12    1    3    3    0    0  0.43079494170E+01 -0.22748821537E+02 -0.38758732416E+00  0.23156371336E+02  0.00000000000E+00 0. -1.
</event>
<event>
 7    1  0.2584640E-011  0.5052886E+02  0.7816164E-02  0.1300439E+00
        -11   -1    0    0    0    0  0.00000000000E+00  0.00000000000E+00  0.45593999997E+02  0.45594000000E+02  0.51100000000E-03 0.  1.
         11   -1    0    0    0    0 -0.00000000000E+00 -0.00000000000E+00 -0.45593999997E+02  0.45594000000E+02  0.51100000000E-03 0. -1.
    9900012    2    1    2    0    0  0.38922498816E+02  0.26718220456E+01 -0.11448408899E+02  0.50528860641E+02  0.30000002405E+02 0.  0.
        -12    1    1    2    0    0 -0.38922498816E+02 -0.26718220456E+01  0.11448408899E+02  0.40659139359E+02  0.00000000000E+00 0.  1.
         11    1    3    3    0    0  0.15824527466E+02 -0.10629145516E+02 -0.75590869030E+01  0.20506930511E+02  0.51100000000E-03 0. -1.
        -11    1    3    3    0    0 -0.13360400100E+01  0.71080731981E+00 -0.19476233941E+01  0.24664726029E+01  0.51100000000E-03 0.  1.
         12    1    3    3    0    0  0.24434011360E+02  0.12590160242E+02 -0.19416986020E+01  0.27555457527E+02  0.00000000000E+00 0. -1.
</event>
<event>
 7    1  0.2584640E-011  0.5052886E+02  0.7816164E-02  0.1300439E+00
        -11   -1    0    0    0    0  0.00000000000E+00  0.00000000000E+00  0.45593999997E+02  0.45594000000E+02  0.51100000000E-03 0.  1.
         11   -1    0    0    0    0 -0.00000000000E+00 -0.00000000000E+00 -0.45593999997E+02  0.45594000000E+02  0.51100000000E-03 0. -1.
    9900012    2    1    2    0    0  0.14694531778E+01  0.31000148638E+02 -0.26267800852E+02  0.50528857488E+02  0.29999992821E+02 0.  0.
        -12    1    1    2    0    0 -0.14694531778E+01 -0.31000148638E+02  0.26267800852E+02  0.40659142512E+02  0.00000000000E+00 0.  1.
         11    1    3    3    0    0  0.43590202801E+01  0.10187362679E+01  0.12626700268E+01  0.46511522490E+01  0.51100000000E-03 0.  1.
        -11    1    3    3    0    0  0.85731660997E+00  0.26945944405E+02 -0.11807504200E+02  0.29431888614E+02  0.51100000000E-03 0. -1.
         12    1    3    3    0    0 -0.37468837122E+01  0.30354679652E+01 -0.15722966678E+02  0.16445816626E+02  0.00000000000E+00 0. -1.
</event>
<event>
 7    1  0.2584640E-011  0.5052886E+02  0.7816164E-02  0.1300439E+00
        -11   -1    0    0    0    0  0.00000000000E+00  0.00000000000E+00  0.45593999997E+02  0.45594000000E+02  0.51100000000E-03 0.  1.
         11   -1    0    0    0    0 -0.00000000000E+00 -0.00000000000E+00 -0.45593999997E+02  0.45594000000E+02  0.51100000000E-03 0. -1.
    9900012    2    1    2    0    0  0.39567666545E+02  0.15818192031E+01 -0.92229639925E+01  0.50528862619E+02  0.30000008415E+02 0.  0.
        -12    1    1    2    0    0 -0.39567666545E+02 -0.15818192031E+01  0.92229639925E+01  0.40659137381E+02  0.00000000000E+00 0.  1.
         11    1    3    3    0    0 -0.45505667804E+00 -0.78690525330E+00 -0.18581141840E+01  0.20685466008E+01  0.51100000000E-03 0.  1.
        -11    1    3    3    0    0  0.35074747044E+02 -0.60164294794E+01  0.10340909273E+01  0.35602031518E+02  0.51100000000E-03 0. -1.
         12    1    3    3    0    0  0.49479761785E+01  0.83851539358E+01 -0.83989407358E+01  0.12858284500E+02  0.00000000000E+00 0. -1.
</event>
<event>
 7    1  0.2584640E-011  0.5052886E+02  0.7816164E-02  0.1300439E+00
        -11   -1    0    0    0    0  0.00000000000E+00  0.00000000000E+00  0.45593999997E+02  0.45594000000E+02  0.51100000000E-03 0.  1.
         11   -1    0    0    0    0 -0.00000000000E+00 -0.00000000000E+00 -0.45593999997E+02  0.45594000000E+02  0.51100000000E-03 0. -1.
    9900012    2    1    2    0    0  0.29854200904E+02 -0.26306401356E+01 -0.27476754439E+02  0.50528860638E+02  0.30000002395E+02 0.  0.
        -12    1    1    2    0    0 -0.29854200904E+02  0.26306401356E+01  0.27476754439E+02  0.40659139362E+02  0.00000000000E+00 0.  1.
         11    1    3    3    0    0  0.13005636487E+02  0.82062316505E+01 -0.13332530080E+02  0.20353013952E+02  0.51100000000E-03 0. -1.
        -11    1    3    3    0    0 -0.24286803450E+01 -0.12968520427E+01 -0.69832484202E+01  0.75064020808E+01  0.51100000000E-03 0.  1.
        -12    1    3    3    0    0  0.19277244761E+02 -0.95400197433E+01 -0.71609759388E+01  0.22669444605E+02  0.00000000000E+00 0.  1.
</event>
<event>
 7    1  0.2584640E-011  0.5052876E+02  0.7816164E-02  0.1300439E+00
        -11   -1    0    0    0    0  0.00000000000E+00  0.00000000000E+00  0.45593999997E+02  0.45594000000E+02  0.51100000000E-03 0.  1.
         11   -1    0    0    0    0 -0.00000000000E+00 -0.00000000000E+00 -0.45593999997E+02  0.45594000000E+02  0.51100000000E-03 0. -1.
    9900012    2    1    2    0    0  0.26764564281E+02  0.12270435902E+02 -0.28040472319E+02  0.50528762596E+02  0.29999704386E+02 0.  0.
        -12    1    1    2    0    0 -0.26764564281E+02 -0.12270435902E+02  0.28040472319E+02  0.40659237404E+02  0.00000000000E+00 0.  1.
         11    1    3    3    0    0  0.79558909548E+01 -0.75491567308E+01 -0.14628417652E+02  0.18283231976E+02  0.51100000000E-03 0. -1.
        -11    1    3    3    0    0  0.10091986977E+02  0.80893429518E+01 -0.82890239132E+00  0.12960430162E+02  0.51100000000E-03 0.  1.
        -12    1    3    3    0    0  0.87166863487E+01  0.11730249681E+02 -0.12583152276E+02  0.19285100458E+02  0.00000000000E+00 0.  1.
</event>
<event>
 7    1  0.2584640E-011  0.5052886E+02  0.7816164E-02  0.1300439E+00
        -11   -1    0    0    0    0  0.00000000000E+00  0.00000000000E+00  0.45593999997E+02  0.45594000000E+02  0.51100000000E-03 0.  1.
         11   -1    0    0    0    0 -0.00000000000E+00 -0.00000000000E+00 -0.45593999997E+02  0.45594000000E+02  0.51100000000E-03 0. -1.
    9900012    2    1    2    0    0 -0.22607902775E+02  0.25414416290E+02 -0.22274563205E+02  0.50528856020E+02  0.29999988358E+02 0.  0.
        -12    1    1    2    0    0  0.22607902775E+02 -0.25414416290E+02  0.22274563205E+02  0.40659143980E+02  0.00000000000E+00 0.  1.
         11    1    3    3    0    0  0.27646116785E+00  0.34528157799E+01 -0.41831570416E+01  0.54311297796E+01  0.51100000000E-03 0. -1.
        -11    1    3    3    0    0 -0.41338692739E+01 -0.39165957847E+00  0.59752506676E+01  0.72763928701E+01  0.51100000000E-03 0.  1.
         12    1    3    3    0    0 -0.18750494669E+02  0.22353260089E+02 -0.24066656831E+02  0.37821333370E+02  0.00000000000E+00 0. -1.
</event>
<event>
 7    1  0.2584640E-011  0.5052886E+02  0.7816164E-02  0.1300439E+00
        -11   -1    0    0    0    0  0.00000000000E+00  0.00000000000E+00  0.45593999997E+02  0.45594000000E+02  0.51100000000E-03 0.  1.
         11   -1    0    0    0    0 -0.00000000000E+00 -0.00000000000E+00 -0.45593999997E+02  0.45594000000E+02  0.51100000000E-03 0. -1.
    9900012    2    1    2    0    0  0.20037985669E+02 -0.32692345333E+02 -0.13522405727E+02  0.50528858719E+02  0.29999996563E+02 0.  0.
        -12    1    1    2    0    0 -0.20037985669E+02  0.32692345333E+02  0.13522405727E+02  0.40659141281E+02  0.00000000000E+00 0.  1.
         11    1    3    3    0    0  0.16524888897E+02 -0.14061469806E+02 -0.11438332873E+02  0.24528194906E+02  0.51100000000E-03 0. -1.
        -11    1    3    3    0    0  0.36855797990E+01 -0.39508551417E+01 -0.84250987781E+01  0.10008748398E+02  0.51100000000E-03 0.  1.
        -12    1    3    3    0    0 -0.17248302701E+00 -0.14680020385E+02  0.63410259239E+01  0.15991915416E+02  0.00000000000E+00 0.  1.
</event>
<event>
 7    1  0.2584640E-011  0.5052886E+02  0.7816164E-02  0.1300439E+00
        -11   -1    0    0    0    0  0.00000000000E+00  0.00000000000E+00  0.45593999997E+02  0.45594000000E+02  0.51100000000E-03 0.  1.
         11   -1    0    0    0    0 -0.00000000000E+00 -0.00000000000E+00 -0.45593999997E+02  0.45594000000E+02  0.51100000000E-03 0. -1.
    9900012    2    1    2    0    0  0.10436973238E+02  0.14619699956E+02 -0.36476018704E+02  0.50528856161E+02  0.29999988788E+02 0.  0.
        -12    1    1    2    0    0 -0.10436973238E+02 -0.14619699956E+02  0.36476018704E+02  0.40659143839E+02  0.00000000000E+00 0.  1.
         11    1    3    3    0    0  0.52272930479E+01 -0.26372037380E+01 -0.65573982735E+01  0.87908423113E+01  0.51100000000E-03 0. -1.
        -11    1    3    3    0    0  0.48601185253E+01 -0.46140233282E+01 -0.10675291084E+02  0.12604435860E+02  0.51100000000E-03 0.  1.
        -12    1    3    3    0    0  0.34956166461E+00  0.21870927022E+02 -0.19243329347E+02  0.29133577990E+02  0.00000000000E+00 0.  1.
</event>
<event>
 7    1  0.2584640E-011  0.5052882E+02  0.7816164E-02  0.1300439E+00
        -11   -1    0    0    0    0  0.00000000000E+00  0.00000000000E+00  0.45593999997E+02  0.45594000000E+02  0.51100000000E-03 0.  1.
         11   -1    0    0    0    0 -0.00000000000E+00 -0.00000000000E+00 -0.45593999997E+02  0.45594000000E+02  0.51100000000E-03 0. -1.
    9900012    2    1    2    0    0  0.15698769682E+02  0.62586152299E+01 -0.36980366839E+02  0.50528816957E+02  0.29999869623E+02 0.  0.
        -12    1    1    2    0    0 -0.15698769682E+02 -0.62586152299E+01  0.36980366839E+02  0.40659183043E+02  0.00000000000E+00 0.  1.
         11    1    3    3    0    0 -0.27821984821E+01  0.94448055672E+00  0.15644047936E+01  0.33286685830E+01  0.51100000000E-03 0. -1.
        -11    1    3    3    0    0  0.14002061900E+02  0.12502504100E+02 -0.26784280516E+02  0.32707308499E+02  0.51100000000E-03 0.  1.
         12    1    3    3    0    0  0.44789062644E+01 -0.71883694271E+01 -0.11760491117E+02  0.14492839876E+02  0.00000000000E+00 0. -1.
</event>
<event>
 7    1  0.2584640E-011  0.5052886E+02  0.7816164E-02  0.1300439E+00
        -11   -1    0    0    0    0  0.00000000000E+00  0.00000000000E+00  0.45593999997E+02  0.45594000000E+02  0.51100000000E-03 0.  1.
         11   -1    0    0    0    0 -0.00000000000E+00 -0.00000000000E+00 -0.45593999997E+02  0.45594000000E+02  0.51100000000E-03 0. -1.
    9900012    2    1    2    0    0  0.32635301209E+01  0.40498265505E+02 -0.15509191429E+01  0.50528862184E+02  0.30000007095E+02 0.  0.
        -12    1    1    2    0    0 -0.32635301209E+01 -0.40498265505E+02  0.15509191429E+01  0.40659137816E+02  0.00000000000E+00 0.  1.
         11    1    3    3    0    0  0.10752446474E+02  0.17807822899E+02  0.14355971609E+01  0.20851728970E+02  0.51100000000E-03 0. -1.
        -11    1    3    3    0    0  0.12854321492E+01 -0.14997105308E+01 -0.34106391204E+01  0.39413103096E+01  0.51100000000E-03 0.  1.
        -12    1    3    3    0    0 -0.87743485020E+01  0.24190153137E+02  0.42412281659E+00  0.25735822905E+02  0.00000000000E+00 0.  1.
</event>
<event>
 7    1  0.2584640E-011  0.5052890E+02  0.7816164E-02  0.1300439E+00
        -11   -1    0    0    0    0  0.00000000000E+00  0.00000000000E+00  0.45593999997E+02  0.45594000000E+02  0.51100000000E-03 0.  1.
         11   -1    0    0    0    0 -0.00000000000E+00 -0.00000000000E+00 -0.45593999997E+02  0.45594000000E+02  0.51100000000E-03 0. -1.
    9900012    2    1    2    0    0  0.25640396895E+02 -0.28850665148E+02 -0.12781692691E+02  0.50528898922E+02  0.30000118764E+02 0.  0.
        -12    1    1    2    0    0 -0.25640396895E+02  0.28850665148E+02  0.12781692691E+02  0.40659101078E+02  0.00000000000E+00 0.  1.
         11    1    3    3    0    0 -0.36953326302E+00 -0.13111638248E+01 -0.71683816140E+01  0.72966705170E+01  0.51100000000E-03 0. -1.
        -11    1    3    3    0    0 -0.27856999652E+01 -0.80342050530E+00  0.15549280402E+01  0.32898951770E+01  0.51100000000E-03 0.  1.
         12    1    3    3    0    0  0.28795630123E+02 -0.26736080818E+02 -0.71682391173E+01  0.39942333228E+02  0.00000000000E+00 0. -1.
</event>
<event>
 7    1  0.2584640E-011  0.5052886E+02  0.7816164E-02  0.1300439E+00
        -11   -1    0    0    0    0  0.00000000000E+00  0.00000000000E+00  0.45593999997E+02  0.45594000000E+02  0.51100000000E-03 0.  1.
         11   -1    0    0    0    0 -0.00000000000E+00 -0.00000000000E+00 -0.45593999997E+02  0.45594000000E+02  0.51100000000E-03 0. -1.
    9900012    2    1    2    0    0 -0.11446990379E+02 -0.30183547624E+02 -0.24720150729E+02  0.50528856035E+02  0.29999988405E+02 0.  0.
        -12    1    1    2    0    0  0.11446990379E+02  0.30183547624E+02  0.24720150729E+02  0.40659143965E+02  0.00000000000E+00 0.  1.
         11    1    3    3    0    0 -0.37485968026E+01  0.19099246903E+01 -0.84076897315E+00  0.42903010429E+01  0.51100000000E-03 0. -1.
        -11    1    3    3    0    0  0.60531499222E+01 -0.20842933004E+02 -0.11306046300E+02  0.24472334653E+02  0.51100000000E-03 0.  1.
         12    1    3    3    0    0 -0.13751543499E+02 -0.11250539310E+02 -0.12573335456E+02  0.21766220339E+02  0.00000000000E+00 0. -1.
</event>
<event>
 7    1  0.2584640E-011  0.5052887E+02  0.7816164E-02  0.1300439E+00
        -11   -1    0    0    0    0  0.00000000000E+00  0.00000000000E+00  0.45593999997E+02  0.45594000000E+02  0.51100000000E-03 0.  1.
         11   -1    0    0    0    0 -0.00000000000E+00 -0.00000000000E+00 -0.45593999997E+02  0.45594000000E+02  0.51100000000E-03 0. -1.
    9900012    2    1    2    0    0 -0.17379476823E+02  0.18148976649E+02 -0.31964564892E+02  0.50528868470E+02  0.30000026200E+02 0.  0.
        -12    1    1    2    0    0  0.17379476823E+02 -0.18148976649E+02  0.31964564892E+02  0.40659131530E+02  0.00000000000E+00 0.  1.
         11    1    3    3    0    0 -0.45823834148E+01  0.93462826001E+01 -0.21694194418E+02  0.24062196656E+02  0.51100000000E-03 0. -1.
        -11    1    3    3    0    0 -0.15658862975E+02  0.37636583254E+01 -0.12365653857E+02  0.20304544054E+02  0.51100000000E-03 0.  1.
        -12    1    3    3    0    0  0.28617695669E+01  0.50390357233E+01  0.20952833828E+01  0.61621277598E+01  0.00000000000E+00 0.  1.
</event>
<event>
 7    1  0.2584640E-011  0.5052886E+02  0.7816164E-02  0.1300439E+00
        -11   -1    0    0    0    0  0.00000000000E+00  0.00000000000E+00  0.45593999997E+02  0.45594000000E+02  0.51100000000E-03 0.  1.
         11   -1    0    0    0    0 -0.00000000000E+00 -0.00000000000E+00 -0.45593999997E+02  0.45594000000E+02  0.51100000000E-03 0. -1.
    9900012    2    1    2    0    0  0.21204593454E+02 -0.31004942396E+02 -0.15563564939E+02  0.50528858467E+02  0.29999995797E+02 0.  0.
        -12    1    1    2    0    0 -0.21204593454E+02  0.31004942396E+02  0.15563564939E+02  0.40659141533E+02  0.00000000000E+00 0.  1.
         11    1    3    3    0    0  0.14206418065E+02 -0.14169771231E+02 -0.10619113285E+00  0.20065293614E+02  0.51100000000E-03 0. -1.
        -11    1    3    3    0    0  0.61620583285E+01  0.24552782498E+01 -0.20004503093E+01  0.69282866446E+01  0.51100000000E-03 0.  1.
        -12    1    3    3    0    0  0.83611706052E+00 -0.19290449416E+02 -0.13456923496E+02  0.23535278209E+02  0.00000000000E+00 0.  1.
</event>
<event>
 7    1  0.2584640E-011  0.5052886E+02  0.7816164E-02  0.1300439E+00
        -11   -1    0    0    0    0  0.00000000000E+00  0.00000000000E+00  0.45593999997E+02  0.45594000000E+02  0.51100000000E-03 0. -1.
         11   -1    0    0    0    0 -0.00000000000E+00 -0.00000000000E+00 -0.45593999997E+02  0.45594000000E+02  0.51100000000E-03 0.  1.
    9900012    2    1    2    0    0  0.24787085213E+02  0.32203597686E+02 -0.13015576604E+01  0.50528863885E+02  0.30000012265E+02 0.  0.
        -12    1    1    2    0    0 -0.24787085213E+02 -0.32203597686E+02  0.13015576604E+01  0.40659136115E+02  0.00000000000E+00 0.  1.
         11    1    3    3    0    0  0.16673600431E+02  0.21634180116E+02  0.57842396232E+01  0.27919601160E+02  0.51100000000E-03 0. -1.
        -11    1    3    3    0    0  0.46005838582E+01  0.14902382519E+02 -0.35193817401E+01  0.15988509144E+02  0.51100000000E-03 0.  1.
        -12    1    3    3    0    0  0.35129009236E+01 -0.43329649490E+01 -0.35664155436E+01  0.66207535808E+01  0.00000000000E+00 0.  1.
</event>
<event>
 7    1  0.3504294E-011  0.5052886E+02  0.7816164E-02  0.1300439E+00
        -11   -1    0    0    0    0  0.00000000000E+00  0.00000000000E+00  0.45593999997E+02  0.45594000000E+02  0.51100000000E-03 0.  1.
         11   -1    0    0    0    0 -0.00000000000E+00 -0.00000000000E+00 -0.45593999997E+02  0.45594000000E+02  0.51100000000E-03 0. -1.
    9900012    2    1    2    0    0 -0.82959806618E+01  0.21914685803E+02  0.33227833934E+02  0.50528859614E+02  0.29999999283E+02 0.  0.
        -12    1    1    2    0    0  0.82959806618E+01 -0.21914685803E+02 -0.33227833934E+02  0.40659140386E+02  0.00000000000E+00 0.  1.
         11    1    3    3    0    0 -0.13122560373E+02  0.14545745166E+02  0.14391429958E+02  0.24308302073E+02  0.51100000000E-03 0. -1.
        -11    1    3    3    0    0 -0.46500962535E+01 -0.14539979290E+01  0.28358789504E+01  0.56373499826E+01  0.51100000000E-03 0.  1.
        -12    1    3    3    0    0  0.94766759652E+01  0.88229385657E+01  0.16000525026E+02  0.20583207558E+02  0.00000000000E+00 0.  1.
</event>
<event>
 7    1  0.2584640E-011  0.5052885E+02  0.7816164E-02  0.1300439E+00
        -11   -1    0    0    0    0  0.00000000000E+00  0.00000000000E+00  0.45593999997E+02  0.45594000000E+02  0.51100000000E-03 0. -1.
         11   -1    0    0    0    0 -0.00000000000E+00 -0.00000000000E+00 -0.45593999997E+02  0.45594000000E+02  0.51100000000E-03 0.  1.
    9900012    2    1    2    0    0  0.25858305082E+02 -0.23182690195E+02  0.21144196996E+02  0.50528854251E+02  0.29999982983E+02 0.  0.
        -12    1    1    2    0    0 -0.25858305082E+02  0.23182690195E+02 -0.21144196996E+02  0.40659145749E+02  0.00000000000E+00 0.  1.
         11    1    3    3    0    0 -0.14303652464E+01  0.11262297130E+01  0.46888215903E+01  0.50298495277E+01  0.51100000000E-03 0.  1.
        -11    1    3    3    0    0  0.20362801870E+02 -0.42085347524E+01  0.51568407927E+01  0.21423082691E+02  0.51100000000E-03 0. -1.
        -12    1    3    3    0    0  0.69258684578E+01 -0.20100385156E+02  0.11298534613E+02  0.24075922032E+02  0.00000000000E+00 0.  1.
</event>
<event>
 7    1  0.2584640E-011  0.5052886E+02  0.7816164E-02  0.1300439E+00
        -11   -1    0    0    0    0  0.00000000000E+00  0.00000000000E+00  0.45593999997E+02  0.45594000000E+02  0.51100000000E-03 0. -1.
         11   -1    0    0    0    0 -0.00000000000E+00 -0.00000000000E+00 -0.45593999997E+02  0.45594000000E+02  0.51100000000E-03 0.  1.
    9900012    2    1    2    0    0 -0.31556132710E+02  0.25112209969E+02  0.51723110404E+01  0.50528863232E+02  0.30000010281E+02 0.  0.
        -12    1    1    2    0    0  0.31556132710E+02 -0.25112209969E+02 -0.51723110404E+01  0.40659136768E+02  0.00000000000E+00 0.  1.
         11    1    3    3    0    0  0.15195956852E+01  0.87114474414E+01 -0.20625927093E+01  0.90803511230E+01  0.51100000000E-03 0. -1.
        -11    1    3    3    0    0 -0.23323252035E+02  0.63356442315E+01 -0.26281183418E+01  0.24310933335E+02  0.51100000000E-03 0.  1.
         12    1    3    3    0    0 -0.97524763602E+01  0.10065118296E+02  0.98630220916E+01  0.17137578775E+02  0.00000000000E+00 0. -1.
</event>
<event>
 7    1  0.2584640E-011  0.5052887E+02  0.7816164E-02  0.1300439E+00
        -11   -1    0    0    0    0  0.00000000000E+00  0.00000000000E+00  0.45593999997E+02  0.45594000000E+02  0.51100000000E-03 0.  1.
         11   -1    0    0    0    0 -0.00000000000E+00 -0.00000000000E+00 -0.45593999997E+02  0.45594000000E+02  0.51100000000E-03 0. -1.
    9900012    2    1    2    0    0 -0.14207926868E+02 -0.15910816611E+02 -0.34614244747E+02  0.50528865596E+02  0.30000017465E+02 0.  0.
        -12    1    1    2    0    0  0.14207926868E+02  0.15910816611E+02  0.34614244747E+02  0.40659134404E+02  0.00000000000E+00 0.  1.
         11    1    3    3    0    0 -0.45292627546E+01  0.47216679515E+01 -0.47684989241E+01  0.80961071877E+01  0.51100000000E-03 0. -1.
        -11    1    3    3    0    0 -0.11796390708E+02 -0.96177282838E+01 -0.65350401979E+01  0.16563884862E+02  0.51100000000E-03 0.  1.
        -12    1    3    3    0    0  0.21177265953E+01 -0.11014756279E+02 -0.23310705625E+02  0.25868873546E+02  0.00000000000E+00 0.  1.
</event>
<event>
 7    1  0.2584640E-011  0.5052888E+02  0.7816164E-02  0.1300439E+00
        -11   -1    0    0    0    0  0.00000000000E+00  0.00000000000E+00  0.45593999997E+02  0.45594000000E+02  0.51100000000E-03 0. -1.
         11   -1    0    0    0    0 -0.00000000000E+00 -0.00000000000E+00 -0.45593999997E+02  0.45594000000E+02  0.51100000000E-03 0.  1.
    9900012    2    1    2    0    0 -0.21382806329E+02  0.19024946161E+02 -0.28878898168E+02  0.50528883650E+02  0.30000072344E+02 0.  0.
        -12    1    1    2    0    0  0.21382806329E+02 -0.19024946161E+02  0.28878898168E+02  0.40659116350E+02  0.00000000000E+00 0.  1.
         11    1    3    3    0    0 -0.57846800758E+01  0.32591092361E+01  0.18310977787E+01  0.68874694865E+01  0.51100000000E-03 0. -1.
        -11    1    3    3    0    0  0.13843631531E+01 -0.40206120218E+01 -0.15561904057E+01  0.45280803007E+01  0.51100000000E-03 0.  1.
         12    1    3    3    0    0 -0.16982489406E+02  0.19786448947E+02 -0.29153805541E+02  0.39113333863E+02  0.00000000000E+00 0. -1.
</event>
<event>
 7    1  0.2584640E-011  0.5052888E+02  0.7816164E-02  0.1300439E+00
        -11   -1    0    0    0    0  0.00000000000E+00  0.00000000000E+00  0.45593999997E+02  0.45594000000E+02  0.51100000000E-03 0.  1.
         11   -1    0    0    0    0 -0.00000000000E+00 -0.00000000000E+00 -0.45593999997E+02  0.45594000000E+02  0.51100000000E-03 0. -1.
    9900012    2    1    2    0    0 -0.56496450378E+01 -0.38394826626E+02  0.12127781891E+02  0.50528876862E+02  0.30000051711E+02 0.  0.
        -12    1    1    2    0    0  0.56496450378E+01  0.38394826626E+02 -0.12127781891E+02  0.40659123138E+02  0.00000000000E+00 0.  1.
         11    1    3    3    0    0  0.21261998212E+00 -0.96973116207E+00  0.75886560517E+01  0.76533186734E+01  0.51100000000E-03 0. -1.
        -11    1    3    3    0    0 -0.45917878380E+01 -0.48046873630E+01 -0.56014381158E+01  0.86916998011E+01  0.51100000000E-03 0.  1.
         12    1    3    3    0    0 -0.12704771819E+01 -0.32620408101E+02  0.10140563955E+02  0.34183858388E+02  0.00000000000E+00 0. -1.
</event>
<event>
 7    1  0.2584640E-011  0.5052886E+02  0.7816164E-02  0.1300439E+00
        -11   -1    0    0    0    0  0.00000000000E+00  0.00000000000E+00  0.45593999997E+02  0.45594000000E+02  0.51100000000E-03 0.  1.
         11   -1    0    0    0    0 -0.00000000000E+00 -0.00000000000E+00 -0.45593999997E+02  0.45594000000E+02  0.51100000000E-03 0. -1.
    9900012    2    1    2    0    0  0.26143000567E+02 -0.17106108949E+02 -0.26020949962E+02  0.50528864755E+02  0.30000014908E+02 0.  0.
        -12    1    1    2    0    0 -0.26143000567E+02  0.17106108949E+02  0.26020949962E+02  0.40659135245E+02  0.00000000000E+00 0.  1.
         11    1    3    3    0    0  0.12461599365E+02 -0.98638444876E+01 -0.15447772180E+02  0.22163495943E+02  0.51100000000E-03 0. -1.
        -11    1    3    3    0    0  0.54653494375E+01 -0.69304077805E+00 -0.15725898661E+02  0.16662960090E+02  0.51100000000E-03 0.  1.
        -12    1    3    3    0    0  0.82160517636E+01 -0.65492236834E+01  0.51527208793E+01  0.11702408722E+02  0.00000000000E+00 0.  1.
</event>
<event>
 7    1  0.2770194E-011  0.5052886E+02  0.7816164E-02  0.1300439E+00
        -11   -1    0    0    0    0  0.00000000000E+00  0.00000000000E+00  0.45593999997E+02  0.45594000000E+02  0.51100000000E-03 0. -1.
         11   -1    0    0    0    0 -0.00000000000E+00 -0.00000000000E+00 -0.45593999997E+02  0.45594000000E+02  0.51100000000E-03 0.  1.
    9900012    2    1    2    0    0 -0.12985021828E+02 -0.28873795766E+02  0.25511928300E+02  0.50528863765E+02  0.30000011901E+02 0.  0.
        -12    1    1    2    0    0  0.12985021828E+02  0.28873795766E+02 -0.25511928300E+02  0.40659136235E+02  0.00000000000E+00 0.  1.
         11    1    3    3    0    0 -0.37801460120E+01 -0.14568510163E+02  0.86868622062E+01  0.17377933350E+02  0.51100000000E-03 0. -1.
        -11    1    3    3    0    0 -0.14272429913E+02 -0.11095508426E+02  0.33291276080E+01  0.18381938248E+02  0.51100000000E-03 0.  1.
        -12    1    3    3    0    0  0.50675540970E+01 -0.32097771759E+01  0.13495938485E+02  0.14768992168E+02  0.00000000000E+00 0.  1.
</event>
<event>
 7    1  0.2584640E-011  0.5052887E+02  0.7816164E-02  0.1300439E+00
        -11   -1    0    0    0    0  0.00000000000E+00  0.00000000000E+00  0.45593999997E+02  0.45594000000E+02  0.51100000000E-03 0.  1.
         11   -1    0    0    0    0 -0.00000000000E+00 -0.00000000000E+00 -0.45593999997E+02  0.45594000000E+02  0.51100000000E-03 0. -1.
    9900012    2    1    2    0    0  0.30981947130E+02 -0.18536643581E+02 -0.18699651012E+02  0.50528866325E+02  0.30000019682E+02 0.  0.
        -12    1    1    2    0    0 -0.30981947130E+02  0.18536643581E+02  0.18699651012E+02  0.40659133675E+02  0.00000000000E+00 0.  1.
         11    1    3    3    0    0  0.13942271329E+02 -0.10320038284E+02 -0.20503066957E+02  0.26856393557E+02  0.51100000000E-03 0. -1.
        -11    1    3    3    0    0  0.48926151974E+00 -0.24031031578E+01 -0.44238878895E+01  0.50581682397E+01  0.51100000000E-03 0.  1.
         12    1    3    3    0    0  0.16550414282E+02 -0.58135021386E+01  0.62273038345E+01  0.18614304528E+02  0.00000000000E+00 0. -1.
</event>
<event>
 7    1  0.2584640E-011  0.5052886E+02  0.7816164E-02  0.1300439E+00
        -11   -1    0    0    0    0  0.00000000000E+00  0.00000000000E+00  0.45593999997E+02  0.45594000000E+02  0.51100000000E-03 0.  1.
         11   -1    0    0    0    0 -0.00000000000E+00 -0.00000000000E+00 -0.45593999997E+02  0.45594000000E+02  0.51100000000E-03 0. -1.
    9900012    2    1    2    0    0  0.33800893672E+02 -0.16984769177E+01 -0.22533976428E+02  0.50528864120E+02  0.30000012979E+02 0.  0.
        -12    1    1    2    0    0 -0.33800893672E+02  0.16984769177E+01  0.22533976428E+02  0.40659135880E+02  0.00000000000E+00 0.  1.
         11    1    3    3    0    0  0.63845286172E+01  0.46590051969E+01 -0.13770096833E+02  0.15877156613E+02  0.51100000000E-03 0. -1.
        -11    1    3    3    0    0  0.58063737881E+01  0.55239909166E+01  0.11036614330E+01  0.80899024118E+01  0.51100000000E-03 0.  1.
         12    1    3    3    0    0  0.21609991267E+02 -0.11881473031E+02 -0.98675410286E+01  0.26561805095E+02  0.00000000000E+00 0. -1.
</event>
<event>
 7    1  0.2584640E-011  0.5052887E+02  0.7816164E-02  0.1300439E+00
        -11   -1    0    0    0    0  0.00000000000E+00  0.00000000000E+00  0.45593999997E+02  0.45594000000E+02  0.51100000000E-03 0.  1.
         11   -1    0    0    0    0 -0.00000000000E+00 -0.00000000000E+00 -0.45593999997E+02  0.45594000000E+02  0.51100000000E-03 0. -1.
    9900012    2    1    2    0    0  0.19375935396E+02  0.26602223402E+02 -0.23875927796E+02  0.50528867072E+02  0.30000021951E+02 0.  0.
        -12    1    1    2    0    0 -0.19375935396E+02 -0.26602223402E+02  0.23875927796E+02  0.40659132928E+02  0.00000000000E+00 0.  1.
         11    1    3    3    0    0  0.46778658877E+01  0.20449343365E+01 -0.37349404373E+01  0.63256593360E+01  0.51100000000E-03 0. -1.
        -11    1    3    3    0    0 -0.77909203352E+00  0.22191459674E+02 -0.17615604589E+02  0.28343912788E+02  0.51100000000E-03 0.  1.
        -12    1    3    3    0    0  0.15477161542E+02  0.23658293915E+01 -0.25253827697E+01  0.15859294948E+02  0.00000000000E+00 0.  1.
</event>
<event>
 7    1  0.2584640E-011  0.5052888E+02  0.7816164E-02  0.1300439E+00
        -11   -1    0    0    0    0  0.00000000000E+00  0.00000000000E+00  0.45593999997E+02  0.45594000000E+02  0.51100000000E-03 0.  1.
         11   -1    0    0    0    0 -0.00000000000E+00 -0.00000000000E+00 -0.45593999997E+02  0.45594000000E+02  0.51100000000E-03 0. -1.
    9900012    2    1    2    0    0  0.18388225022E+02 -0.26818947171E+02 -0.24408637541E+02  0.50528876382E+02  0.30000050249E+02 0.  0.
        -12    1    1    2    0    0 -0.18388225022E+02  0.26818947171E+02  0.24408637541E+02  0.40659123618E+02  0.00000000000E+00 0.  1.
         11    1    3    3    0    0  0.91132000997E+01 -0.22123467551E+02 -0.14356782291E+02  0.27903681308E+02  0.51100000000E-03 0. -1.
        -11    1    3    3    0    0  0.47581383765E+01 -0.82767058663E+01  0.15484121854E+01  0.96716762438E+01  0.51100000000E-03 0.  1.
         12    1    3    3    0    0  0.45168865460E+01  0.35812262462E+01 -0.11600267436E+02  0.12953518830E+02  0.00000000000E+00 0. -1.
</event>
<event>
 7    1  0.2584640E-011  0.5052885E+02  0.7816164E-02  0.1300439E+00
        -11   -1    0    0    0    0  0.00000000000E+00  0.00000000000E+00  0.45593999997E+02  0.45594000000E+02  0.51100000000E-03 0.  1.
         11   -1    0    0    0    0 -0.00000000000E+00 -0.00000000000E+00 -0.45593999997E+02  0.45594000000E+02  0.51100000000E-03 0. -1.
    9900012    2    1    2    0    0 -0.18589755037E+02  0.35461240101E+02 -0.70772632400E+01  0.50528853467E+02  0.29999980597E+02 0.  0.
        -12    1    1    2    0    0  0.18589755037E+02 -0.35461240101E+02  0.70772632400E+01  0.40659146533E+02  0.00000000000E+00 0.  1.
         11    1    3    3    0    0  0.38681293222E+01  0.85585491884E+00 -0.19838572245E+01  0.44306435022E+01  0.51100000000E-03 0. -1.
        -11    1    3    3    0    0 -0.83948842038E+01  0.25001196585E+01  0.43757923388E+01  0.97914369709E+01  0.51100000000E-03 0.  1.
         12    1    3    3    0    0 -0.14063000155E+02  0.32105265524E+02 -0.94691983543E+01  0.36306772994E+02  0.00000000000E+00 0. -1.
</event>
<event>
 7    1  0.2584640E-011  0.5052887E+02  0.7816164E-02  0.1300439E+00
        -11   -1    0    0    0    0  0.00000000000E+00  0.00000000000E+00  0.45593999997E+02  0.45594000000E+02  0.51100000000E-03 0. -1.
         11   -1    0    0    0    0 -0.00000000000E+00 -0.00000000000E+00 -0.45593999997E+02  0.45594000000E+02  0.51100000000E-03 0.  1.
    9900012    2    1    2    0    0 -0.40059309567E+02  0.56107727827E+01  0.41152824138E+01  0.50528873060E+02  0.30000040152E+02 0.  0.
        -12    1    1    2    0    0  0.40059309567E+02 -0.56107727827E+01 -0.41152824138E+01  0.40659126940E+02  0.00000000000E+00 0.  1.
         11    1    3    3    0    0 -0.19213152011E+01 -0.41796319876E+00  0.62827933134E+01  0.65832846982E+01  0.51100000000E-03 0. -1.
        -11    1    3    3    0    0 -0.21154070563E+02 -0.72186862108E+01 -0.12386768726E+01  0.22386121876E+02  0.51100000000E-03 0.  1.
         12    1    3    3    0    0 -0.16983923803E+02  0.13247422192E+02 -0.92883402690E+00  0.21559466486E+02  0.00000000000E+00 0. -1.
</event>
<event>
 7    1  0.2584640E-011  0.5052885E+02  0.7816164E-02  0.1300439E+00
        -11   -1    0    0    0    0  0.00000000000E+00  0.00000000000E+00  0.45593999997E+02  0.45594000000E+02  0.51100000000E-03 0.  1.
         11   -1    0    0    0    0 -0.00000000000E+00 -0.00000000000E+00 -0.45593999997E+02  0.45594000000E+02  0.51100000000E-03 0. -1.
    9900012    2    1    2    0    0 -0.20910885834E+02 -0.33190675060E+02 -0.10690185149E+02  0.50528854463E+02  0.29999983625E+02 0.  0.
        -12    1    1    2    0    0  0.20910885834E+02  0.33190675060E+02  0.10690185149E+02  0.40659145537E+02  0.00000000000E+00 0.  1.
         11    1    3    3    0    0 -0.59706959695E+01 -0.17461584053E+02 -0.86218349741E+00  0.18474292643E+02  0.51100000000E-03 0. -1.
        -11    1    3    3    0    0 -0.21204564333E+01  0.74528187062E+00  0.56414809654E+01  0.60727331817E+01  0.51100000000E-03 0.  1.
         12    1    3    3    0    0 -0.12819733432E+02 -0.16474372877E+02 -0.15469482617E+02  0.25981828638E+02  0.00000000000E+00 0. -1.
</event>
<event>
 7    1  0.2584640E-011  0.5052886E+02  0.7816164E-02  0.1300439E+00
        -11   -1    0    0    0    0  0.00000000000E+00  0.00000000000E+00  0.45593999997E+02  0.45594000000E+02  0.51100000000E-03 0.  1.
         11   -1    0    0    0    0 -0.00000000000E+00 -0.00000000000E+00 -0.45593999997E+02  0.45594000000E+02  0.51100000000E-03 0. -1.
    9900012    2    1    2    0    0 -0.33554862510E+02 -0.15521506322E+02 -0.16920985187E+02  0.50528859622E+02  0.29999999308E+02 0.  0.
        -12    1    1    2    0    0  0.33554862510E+02  0.15521506322E+02  0.16920985187E+02  0.40659140378E+02  0.00000000000E+00 0.  1.
         11    1    3    3    0    0  0.29574051890E+01 -0.92597831299E+00 -0.44473031668E+01  0.54205338304E+01  0.51100000000E-03 0. -1.
        -11    1    3    3    0    0 -0.13872790288E+02 -0.13837004799E+02 -0.10851736886E+02  0.22398151841E+02  0.51100000000E-03 0.  1.
        -12    1    3    3    0    0 -0.22639477410E+02 -0.75852321010E+00 -0.16219451345E+01  0.22710173951E+02  0.00000000000E+00 0.  1.
</event>
<event>
 7    1  0.2584640E-011  0.5052886E+02  0.7816164E-02  0.1300439E+00
        -11   -1    0    0    0    0  0.00000000000E+00  0.00000000000E+00  0.45593999997E+02  0.45594000000E+02  0.51100000000E-03 0.  1.
         11   -1    0    0    0    0 -0.00000000000E+00 -0.00000000000E+00 -0.45593999997E+02  0.45594000000E+02  0.51100000000E-03 0. -1.
    9900012    2    1    2    0    0  0.36107567189E+01  0.76362020512E+01 -0.39772057827E+02  0.50528859212E+02  0.29999998061E+02 0.  0.
        -12    1    1    2    0    0 -0.36107567189E+01 -0.76362020512E+01  0.39772057827E+02  0.40659140788E+02  0.00000000000E+00 0.  1.
         11    1    3    3    0    0  0.61692236744E+01  0.10751289777E+02 -0.23368059994E+02  0.26452141327E+02  0.51100000000E-03 0. -1.
        -11    1    3    3    0    0  0.68448911968E+01  0.18310930330E+00 -0.32640344399E+01  0.75855115582E+01  0.51100000000E-03 0.  1.
        -12    1    3    3    0    0 -0.94033581523E+01 -0.32981970288E+01 -0.13139963392E+02  0.16491206327E+02  0.00000000000E+00 0.  1.
</event>
<event>
 7    1  0.2584640E-011  0.5052886E+02  0.7816164E-02  0.1300439E+00
        -11   -1    0    0    0    0  0.00000000000E+00  0.00000000000E+00  0.45593999997E+02  0.45594000000E+02  0.51100000000E-03 0. -1.
         11   -1    0    0    0    0 -0.00000000000E+00 -0.00000000000E+00 -0.45593999997E+02  0.45594000000E+02  0.51100000000E-03 0.  1.
    9900012    2    1    2    0    0 -0.86073726985E+01 -0.15197265488E+02  0.36716782534E+02  0.50528857575E+02  0.29999993086E+02 0.  0.
        -12    1    1    2    0    0  0.86073726985E+01  0.15197265488E+02 -0.36716782534E+02  0.40659142425E+02  0.00000000000E+00 0.  1.
         11    1    3    3    0    0  0.89280475469E+00 -0.66017777855E+01  0.48547403833E+01  0.82431228736E+01  0.51100000000E-03 0. -1.
        -11    1    3    3    0    0 -0.50476413973E+01 -0.17195610253E+02  0.18227628914E+02  0.25561966899E+02  0.51100000000E-03 0.  1.
         12    1    3    3    0    0 -0.44525360559E+01  0.86001225509E+01  0.13634413237E+02  0.16723767803E+02  0.00000000000E+00 0. -1.
</event>
<event>
 7    1  0.2584640E-011  0.5052886E+02  0.7816164E-02  0.1300439E+00
        -11   -1    0    0    0    0  0.00000000000E+00  0.00000000000E+00  0.45593999997E+02  0.45594000000E+02  0.51100000000E-03 0. -1.
         11   -1    0    0    0    0 -0.00000000000E+00 -0.00000000000E+00 -0.45593999997E+02  0.45594000000E+02  0.51100000000E-03 0.  1.
    9900012    2    1    2    0    0  0.39583332372E+01 -0.19805282527E+02  0.35288075772E+02  0.50528856997E+02  0.29999991329E+02 0.  0.
        -12    1    1    2    0    0 -0.39583332372E+01  0.19805282527E+02 -0.35288075772E+02  0.40659143003E+02  0.00000000000E+00 0.  1.
         11    1    3    3    0    0 -0.40101683977E+01 -0.72345780689E+01  0.20010285127E+02  0.21652530604E+02  0.51100000000E-03 0. -1.
        -11    1    3    3    0    0 -0.59280086836E+01 -0.44699446576E+01  0.12405344261E+01  0.75273247651E+01  0.51100000000E-03 0.  1.
         12    1    3    3    0    0  0.13896510318E+02 -0.81007598008E+01  0.14037256219E+02  0.21349001629E+02  0.00000000000E+00 0. -1.
</event>
<event>
 7    1  0.2584640E-011  0.5052886E+02  0.7816164E-02  0.1300439E+00
        -11   -1    0    0    0    0  0.00000000000E+00  0.00000000000E+00  0.45593999997E+02  0.45594000000E+02  0.51100000000E-03 0. -1.
         11   -1    0    0    0    0 -0.00000000000E+00 -0.00000000000E+00 -0.45593999997E+02  0.45594000000E+02  0.51100000000E-03 0.  1.
    9900012    2    1    2    0    0 -0.17555446179E+02  0.34397331381E+02  0.12719896114E+02  0.50528857685E+02  0.29999993419E+02 0.  0.
        -12    1    1    2    0    0  0.17555446179E+02 -0.34397331381E+02 -0.12719896114E+02  0.40659142315E+02  0.00000000000E+00 0.  1.
         11    1    3    3    0    0 -0.47602748738E+01  0.51612537397E+01  0.63375385903E+01  0.94584963226E+01  0.51100000000E-03 0. -1.
        -11    1    3    3    0    0 -0.16128269303E+02  0.28328063035E+02 -0.13247352683E+01  0.32624456314E+02  0.51100000000E-03 0.  1.
         12    1    3    3    0    0  0.33330979973E+01  0.90801460605E+00  0.77070927915E+01  0.84459050481E+01  0.00000000000E+00 0. -1.
</event>
<event>
 7    1  0.2584640E-011  0.5052885E+02  0.7816164E-02  0.1300439E+00
        -11   -1    0    0    0    0  0.00000000000E+00  0.00000000000E+00  0.45593999997E+02  0.45594000000E+02  0.51100000000E-03 0. -1.
         11   -1    0    0    0    0 -0.00000000000E+00 -0.00000000000E+00 -0.45593999997E+02  0.45594000000E+02  0.51100000000E-03 0.  1.
    9900012    2    1    2    0    0  0.25130607161E+02 -0.18014385879E+02 -0.26402662376E+02  0.50528854714E+02  0.29999984388E+02 0.  0.
        -12    1    1    2    0    0 -0.25130607161E+02  0.18014385879E+02  0.26402662376E+02  0.40659145286E+02  0.00000000000E+00 0.  1.
         11    1    3    3    0    0  0.85527626265E+00  0.25478265980E+01 -0.54992844391E+00  0.27432352093E+01  0.51100000000E-03 0.  1.
        -11    1    3    3    0    0  0.61661822106E+01 -0.10186121427E+02 -0.24050706974E+02  0.26836828780E+02  0.51100000000E-03 0. -1.
         12    1    3    3    0    0  0.18109148687E+02 -0.10376091050E+02 -0.18020269586E+01  0.20948790725E+02  0.00000000000E+00 0. -1.
</event>
<event>
 7    1  0.2584640E-011  0.5052886E+02  0.7816164E-02  0.1300439E+00
        -11   -1    0    0    0    0  0.00000000000E+00  0.00000000000E+00  0.45593999997E+02  0.45594000000E+02  0.51100000000E-03 0.  1.
         11   -1    0    0    0    0 -0.00000000000E+00 -0.00000000000E+00 -0.45593999997E+02  0.45594000000E+02  0.51100000000E-03 0. -1.
    9900012    2    1    2    0    0  0.32068647768E+02 -0.16669532064E+02 -0.18625095617E+02  0.50528860122E+02  0.30000000827E+02 0.  0.
        -12    1    1    2    0    0 -0.32068647768E+02  0.16669532064E+02  0.18625095617E+02  0.40659139878E+02  0.00000000000E+00 0.  1.
         11    1    3    3    0    0  0.19742555355E+02 -0.10947756269E+02 -0.10735772841E+02  0.24997573443E+02  0.51100000000E-03 0. -1.
        -11    1    3    3    0    0  0.14983992803E+02  0.13472954676E+01 -0.63267151944E+00  0.15057739502E+02  0.51100000000E-03 0.  1.
        -12    1    3    3    0    0 -0.26579003910E+01 -0.70690712628E+01 -0.72566512565E+01  0.10473547177E+02  0.00000000000E+00 0.  1.
</event>
<event>
 7    1  0.2584640E-011  0.5052886E+02  0.7816164E-02  0.1300439E+00
        -11   -1    0    0    0    0  0.00000000000E+00  0.00000000000E+00  0.45593999997E+02  0.45594000000E+02  0.51100000000E-03 0.  1.
         11   -1    0    0    0    0 -0.00000000000E+00 -0.00000000000E+00 -0.45593999997E+02  0.45594000000E+02  0.51100000000E-03 0. -1.
    9900012    2    1    2    0    0 -0.12421195003E+02 -0.27423472067E+02 -0.27328245715E+02  0.50528856879E+02  0.29999990969E+02 0.  0.
        -12    1    1    2    0    0  0.12421195003E+02  0.27423472067E+02  0.27328245715E+02  0.40659143121E+02  0.00000000000E+00 0.  1.
         11    1    3    3    0    0  0.15773031513E+01 -0.12563203889E+02 -0.14218254105E+02  0.19038926631E+02  0.51100000000E-03 0. -1.
        -11    1    3    3    0    0 -0.59355939668E+01  0.10417672105E+00  0.41668282823E+01  0.72529019518E+01  0.51100000000E-03 0.  1.
         12    1    3    3    0    0 -0.80629041877E+01 -0.14964444898E+02 -0.17276819892E+02  0.24237028296E+02  0.00000000000E+00 0. -1.
</event>
<event>
 7    1  0.2584640E-011  0.5052885E+02  0.7816164E-02  0.1300439E+00
        -11   -1    0    0    0    0  0.00000000000E+00  0.00000000000E+00  0.45593999997E+02  0.45594000000E+02  0.51100000000E-03 0.  1.
         11   -1    0    0    0    0 -0.00000000000E+00 -0.00000000000E+00 -0.45593999997E+02  0.45594000000E+02  0.51100000000E-03 0. -1.
    9900012    2    1    2    0    0  0.73135174976E+01  0.38325707612E+02 -0.11437610570E+02  0.50528851734E+02  0.29999975330E+02 0.  0.
        -12    1    1    2    0    0 -0.73135174976E+01 -0.38325707612E+02  0.11437610570E+02  0.40659148266E+02  0.00000000000E+00 0.  1.
         11    1    3    3    0    0  0.14447547560E+02  0.14062682034E+02 -0.16554289405E+01  0.20229461231E+02  0.51100000000E-03 0. -1.
        -11    1    3    3    0    0 -0.14081579150E+01 -0.11717065595E+01  0.99936478138E+00  0.20867523099E+01  0.51100000000E-03 0.  1.
         12    1    3    3    0    0 -0.57258721469E+01  0.25434732138E+02 -0.10781546411E+02  0.28212638193E+02  0.00000000000E+00 0. -1.
</event>
<event>
 7    1  0.2584640E-011  0.5052886E+02  0.7816164E-02  0.1300439E+00
        -11   -1    0    0    0    0  0.00000000000E+00  0.00000000000E+00  0.45593999997E+02  0.45594000000E+02  0.51100000000E-03 0.  1.
         11   -1    0    0    0    0 -0.00000000000E+00 -0.00000000000E+00 -0.45593999997E+02  0.45594000000E+02  0.51100000000E-03 0. -1.
    9900012    2    1    2    0    0 -0.20715827720E+02 -0.34488153141E+02  0.58811069633E+01  0.50528860261E+02  0.30000001250E+02 0.  0.
        -12    1    1    2    0    0  0.20715827720E+02  0.34488153141E+02 -0.58811069633E+01  0.40659139739E+02  0.00000000000E+00 0.  1.
         11    1    3    3    0    0 -0.13950402596E+02 -0.17904951421E+02  0.52550960396E+01  0.23298434553E+02  0.51100000000E-03 0. -1.
        -11    1    3    3    0    0 -0.50520052257E+01 -0.57897143821E+01  0.10152509360E+02  0.12732517269E+02  0.51100000000E-03 0.  1.
         12    1    3    3    0    0 -0.17134198978E+01 -0.10793487338E+02 -0.95264984364E+01  0.14497908440E+02  0.00000000000E+00 0. -1.
</event>
<event>
 7    1  0.2584640E-011  0.5052886E+02  0.7816164E-02  0.1300439E+00
        -11   -1    0    0    0    0  0.00000000000E+00  0.00000000000E+00  0.45593999997E+02  0.45594000000E+02  0.51100000000E-03 0. -1.
         11   -1    0    0    0    0 -0.00000000000E+00 -0.00000000000E+00 -0.45593999997E+02  0.45594000000E+02  0.51100000000E-03 0.  1.
    9900012    2    1    2    0    0 -0.22671585652E+02 -0.91505613889E+01  0.32487411634E+02  0.50528862227E+02  0.30000007227E+02 0.  0.
        -12    1    1    2    0    0  0.22671585652E+02  0.91505613889E+01 -0.32487411634E+02  0.40659137773E+02  0.00000000000E+00 0.  1.
         11    1    3    3    0    0 -0.29776953874E+01 -0.69418037666E+01 -0.15075514462E+01  0.77024684990E+01  0.51100000000E-03 0.  1.
        -11    1    3    3    0    0 -0.17666477147E+02 -0.81737724131E+01  0.22789389141E+02  0.29971173282E+02  0.51100000000E-03 0. -1.
         12    1    3    3    0    0 -0.20274131182E+01  0.59650147909E+01  0.11205573940E+02  0.12855220446E+02  0.00000000000E+00 0. -1.
</event>
<event>
 7    1  0.2584640E-011  0.5052886E+02  0.7816164E-02  0.1300439E+00
        -11   -1    0    0    0    0  0.00000000000E+00  0.00000000000E+00  0.45593999997E+02  0.45594000000E+02  0.51100000000E-03 0.  1.
         11   -1    0    0    0    0 -0.00000000000E+00 -0.00000000000E+00 -0.45593999997E+02  0.45594000000E+02  0.51100000000E-03 0. -1.
    9900012    2    1    2    0    0 -0.12443369600E+02 -0.37340488663E+02 -0.10198847997E+02  0.50528855382E+02  0.29999986420E+02 0.  0.
        -12    1    1    2    0    0  0.12443369600E+02  0.37340488663E+02  0.10198847997E+02  0.40659144618E+02  0.00000000000E+00 0.  1.
         11    1    3    3    0    0  0.24776862076E+01 -0.97454985223E+01 -0.53215964177E+01  0.11376865082E+02  0.51100000000E-03 0. -1.
        -11    1    3    3    0    0 -0.98930435964E+01 -0.29658878151E+02  0.82259083999E+00  0.31276157384E+02  0.51100000000E-03 0.  1.
        -12    1    3    3    0    0 -0.50280122117E+01  0.20638880107E+01 -0.56998424193E+01  0.78758329164E+01  0.00000000000E+00 0.  1.
</event>
<event>
 7    1  0.2584640E-011  0.5052886E+02  0.7816164E-02  0.1300439E+00
        -11   -1    0    0    0    0  0.00000000000E+00  0.00000000000E+00  0.45593999997E+02  0.45594000000E+02  0.51100000000E-03 0. -1.
         11   -1    0    0    0    0 -0.00000000000E+00 -0.00000000000E+00 -0.45593999997E+02  0.45594000000E+02  0.51100000000E-03 0.  1.
    9900012    2    1    2    0    0  0.25368117922E+02  0.12213611601E+02  0.29333455292E+02  0.50528864315E+02  0.30000013573E+02 0.  0.
        -12    1    1    2    0    0 -0.25368117922E+02 -0.12213611601E+02 -0.29333455292E+02  0.40659135685E+02  0.00000000000E+00 0.  1.
         11    1    3    3    0    0  0.39123957161E+01  0.10045132864E+02  0.21516172147E+00  0.10782292397E+02  0.51100000000E-03 0. -1.
        -11    1    3    3    0    0  0.15788361651E+02  0.72905815930E+01  0.12378086270E+02  0.21345771561E+02  0.51100000000E-03 0.  1.
         12    1    3    3    0    0  0.56673605553E+01 -0.51221028559E+01  0.16740207301E+02  0.18400800358E+02  0.00000000000E+00 0. -1.
</event>
<event>
 7    1  0.2584640E-011  0.5052886E+02  0.7816164E-02  0.1300439E+00
        -11   -1    0    0    0    0  0.00000000000E+00  0.00000000000E+00  0.45593999997E+02  0.45594000000E+02  0.51100000000E-03 0. -1.
         11   -1    0    0    0    0 -0.00000000000E+00 -0.00000000000E+00 -0.45593999997E+02  0.45594000000E+02  0.51100000000E-03 0.  1.
    9900012    2    1    2    0    0  0.40194064740E+02 -0.46761812099E+01  0.39669111366E+01  0.50528857179E+02  0.29999991880E+02 0.  0.
        -12    1    1    2    0    0 -0.40194064740E+02  0.46761812099E+01 -0.39669111366E+01  0.40659142821E+02  0.00000000000E+00 0.  1.
         11    1    3    3    0    0  0.21040368396E+02 -0.28978773060E+01  0.81727846579E+01  0.22757179185E+02  0.51100000000E-03 0. -1.
        -11    1    3    3    0    0  0.11164671666E+02  0.87799448905E+01 -0.25073320069E+01  0.14423038506E+02  0.51100000000E-03 0.  1.
        -12    1    3    3    0    0  0.79890246779E+01 -0.10558248794E+02 -0.16985415144E+01  0.13348639488E+02  0.00000000000E+00 0.  1.
</event>
<event>
 7    1  0.2584640E-011  0.5052886E+02  0.7816164E-02  0.1300439E+00
        -11   -1    0    0    0    0  0.00000000000E+00  0.00000000000E+00  0.45593999997E+02  0.45594000000E+02  0.51100000000E-03 0.  1.
         11   -1    0    0    0    0 -0.00000000000E+00 -0.00000000000E+00 -0.45593999997E+02  0.45594000000E+02  0.51100000000E-03 0. -1.
    9900012    2    1    2    0    0 -0.17256960413E+01  0.20776255294E+02 -0.34907517801E+02  0.50528860685E+02  0.30000002537E+02 0.  0.
        -12    1    1    2    0    0  0.17256960413E+01 -0.20776255294E+02  0.34907517801E+02  0.40659139315E+02  0.00000000000E+00 0.  1.
         11    1    3    3    0    0  0.50827652281E+01  0.89415584771E+01 -0.41836457179E+01  0.11103551779E+02  0.51100000000E-03 0. -1.
        -11    1    3    3    0    0  0.52686319191E+01  0.67870537632E+01 -0.22201067912E+02  0.23805671547E+02  0.51100000000E-03 0.  1.
        -12    1    3    3    0    0 -0.12077093188E+02  0.50476430538E+01 -0.85228041704E+01  0.15619637358E+02  0.00000000000E+00 0.  1.
</event>
<event>
 7    1  0.2584641E-011  0.5052886E+02  0.7816164E-02  0.1300439E+00
        -11   -1    0    0    0    0  0.00000000000E+00  0.00000000000E+00  0.45593999997E+02  0.45594000000E+02  0.51100000000E-03 0.  1.
         11   -1    0    0    0    0 -0.00000000000E+00 -0.00000000000E+00 -0.45593999997E+02  0.45594000000E+02  0.51100000000E-03 0. -1.
    9900012    2    1    2    0    0  0.22191866775E+01 -0.38801096792E+02 -0.11946366316E+02  0.50528861176E+02  0.30000004029E+02 0.  0.
        -12    1    1    2    0    0 -0.22191866775E+01  0.38801096792E+02  0.11946366316E+02  0.40659138824E+02  0.00000000000E+00 0.  1.
         11    1    3    3    0    0  0.52423497780E+01 -0.18678290897E+02 -0.16526219011E+01  0.19470283548E+02  0.51100000000E-03 0. -1.
        -11    1    3    3    0    0  0.70840319142E+01 -0.16766799204E+01  0.72101749653E+00  0.73153694512E+01  0.51100000000E-03 0.  1.
        -12    1    3    3    0    0 -0.10107195015E+02 -0.18446125975E+02 -0.11014761912E+02  0.23743208177E+02  0.00000000000E+00 0.  1.
</event>
<event>
 7    1  0.2584640E-011  0.5052886E+02  0.7816164E-02  0.1300439E+00
        -11   -1    0    0    0    0  0.00000000000E+00  0.00000000000E+00  0.45593999997E+02  0.45594000000E+02  0.51100000000E-03 0.  1.
         11   -1    0    0    0    0 -0.00000000000E+00 -0.00000000000E+00 -0.45593999997E+02  0.45594000000E+02  0.51100000000E-03 0. -1.
    9900012    2    1    2    0    0 -0.33301751575E+02  0.14548635172E+02 -0.18234476281E+02  0.50528861192E+02  0.30000004079E+02 0.  0.
        -12    1    1    2    0    0  0.33301751575E+02 -0.14548635172E+02  0.18234476281E+02  0.40659138808E+02  0.00000000000E+00 0.  1.
         11    1    3    3    0    0 -0.19647245376E+02  0.40254894239E+01 -0.12468365076E+02  0.23615226950E+02  0.51100000000E-03 0. -1.
        -11    1    3    3    0    0 -0.14792394738E+02  0.22743264795E+01  0.25079595325E+01  0.15174892563E+02  0.51100000000E-03 0.  1.
        -12    1    3    3    0    0  0.11378885380E+01  0.82488192687E+01 -0.82740707375E+01  0.11738741680E+02  0.00000000000E+00 0.  1.
</event>
<event>
 7    1  0.2584640E-011  0.5052873E+02  0.7816164E-02  0.1300439E+00
        -11   -1    0    0    0    0  0.00000000000E+00  0.00000000000E+00  0.45593999997E+02  0.45594000000E+02  0.51100000000E-03 0. -1.
         11   -1    0    0    0    0 -0.00000000000E+00 -0.00000000000E+00 -0.45593999997E+02  0.45594000000E+02  0.51100000000E-03 0.  1.
    9900012    2    1    2    0    0 -0.11953955591E+02  0.31407400103E+02  0.22887872629E+02  0.50528726163E+02  0.29999593642E+02 0.  0.
        -12    1    1    2    0    0  0.11953955591E+02 -0.31407400103E+02 -0.22887872629E+02  0.40659273837E+02  0.00000000000E+00 0.  1.
         11    1    3    3    0    0 -0.13191810755E+02  0.95315572903E+01  0.15963146166E+02  0.22796852659E+02  0.51100000000E-03 0. -1.
        -11    1    3    3    0    0 -0.56723347924E+01  0.13963177286E+02 -0.14006522372E+00  0.15072004526E+02  0.51100000000E-03 0.  1.
        -12    1    3    3    0    0  0.69101899558E+01  0.79126655270E+01  0.70647916869E+01  0.12659868978E+02  0.00000000000E+00 0.  1.
</event>
<event>
 7    1  0.2584640E-011  0.5052886E+02  0.7816164E-02  0.1300439E+00
        -11   -1    0    0    0    0  0.00000000000E+00  0.00000000000E+00  0.45593999997E+02  0.45594000000E+02  0.51100000000E-03 0. -1.
         11   -1    0    0    0    0 -0.00000000000E+00 -0.00000000000E+00 -0.45593999997E+02  0.45594000000E+02  0.51100000000E-03 0.  1.
    9900012    2    1    2    0    0  0.58099145679E+01  0.35075663321E+02  0.19725825871E+02  0.50528862393E+02  0.30000007728E+02 0.  0.
        -12    1    1    2    0    0 -0.58099145679E+01 -0.35075663321E+02 -0.19725825871E+02  0.40659137607E+02  0.00000000000E+00 0.  1.
         11    1    3    3    0    0 -0.60637614122E+01  0.82481990443E+01  0.77251951654E+00  0.10266390632E+02  0.51100000000E-03 0. -1.
        -11    1    3    3    0    0  0.11565636620E+02  0.41513734188E+01  0.33552767724E+01  0.12737964287E+02  0.51100000000E-03 0.  1.
         12    1    3    3    0    0  0.30803935989E+00  0.22676090858E+02  0.15598029582E+02  0.27524507474E+02  0.00000000000E+00 0. -1.
</event>
<event>
 7    1  0.2584640E-011  0.5052887E+02  0.7816164E-02  0.1300439E+00
        -11   -1    0    0    0    0  0.00000000000E+00  0.00000000000E+00  0.45593999997E+02  0.45594000000E+02  0.51100000000E-03 0.  1.
         11   -1    0    0    0    0 -0.00000000000E+00 -0.00000000000E+00 -0.45593999997E+02  0.45594000000E+02  0.51100000000E-03 0. -1.
    9900012    2    1    2    0    0  0.93573971489E+01 -0.45377030644E+01 -0.39306658483E+02  0.50528867796E+02  0.30000024151E+02 0.  0.
        -12    1    1    2    0    0 -0.93573971489E+01  0.45377030644E+01  0.39306658483E+02  0.40659132204E+02  0.00000000000E+00 0.  1.
         11    1    3    3    0    0  0.33018612055E+01 -0.13516546455E+02 -0.36575097728E+02  0.39132302380E+02  0.51100000000E-03 0. -1.
        -11    1    3    3    0    0  0.84081223206E+00  0.18960711200E+01 -0.13964214010E+01  0.25004087450E+01  0.51100000000E-03 0.  1.
         12    1    3    3    0    0  0.52147237114E+01  0.70827722702E+01 -0.13351393546E+01  0.88961566709E+01  0.00000000000E+00 0. -1.
</event>
<event>
 7    1  0.2584640E-011  0.5052886E+02  0.7816164E-02  0.1300439E+00
        -11   -1    0    0    0    0  0.00000000000E+00  0.00000000000E+00  0.45593999997E+02  0.45594000000E+02  0.51100000000E-03 0.  1.
         11   -1    0    0    0    0 -0.00000000000E+00 -0.00000000000E+00 -0.45593999997E+02  0.45594000000E+02  0.51100000000E-03 0. -1.
    9900012    2    1    2    0    0 -0.15091147329E+02  0.42257427435E+00 -0.37752412988E+02  0.50528856094E+02  0.29999988585E+02 0.  0.
        -12    1    1    2    0    0  0.15091147329E+02 -0.42257427435E+00  0.37752412988E+02  0.40659143906E+02  0.00000000000E+00 0.  1.
         11    1    3    3    0    0 -0.33283296114E+01 -0.44132080718E+01 -0.25197604648E+02  0.25796772352E+02  0.51100000000E-03 0. -1.
        -11    1    3    3    0    0  0.31944282739E+01 -0.19450671034E+01  0.47282273760E+00  0.37697771335E+01  0.51100000000E-03 0.  1.
        -12    1    3    3    0    0 -0.14957245991E+02  0.67808494496E+01 -0.13027631077E+02  0.20962306609E+02  0.00000000000E+00 0.  1.
</event>
<event>
 7    1  0.2584640E-011  0.5052887E+02  0.7816164E-02  0.1300439E+00
        -11   -1    0    0    0    0  0.00000000000E+00  0.00000000000E+00  0.45593999997E+02  0.45594000000E+02  0.51100000000E-03 0. -1.
         11   -1    0    0    0    0 -0.00000000000E+00 -0.00000000000E+00 -0.45593999997E+02  0.45594000000E+02  0.51100000000E-03 0.  1.
    9900012    2    1    2    0    0  0.34229443126E+01 -0.37858533498E+02 -0.14428446636E+02  0.50528865986E+02  0.30000018652E+02 0.  0.
        -12    1    1    2    0    0 -0.34229443126E+01  0.37858533498E+02  0.14428446636E+02  0.40659134014E+02  0.00000000000E+00 0.  1.
         11    1    3    3    0    0  0.28143201362E+01 -0.22612906826E+02 -0.14621651180E+02  0.27075018679E+02  0.51100000000E-03 0. -1.
        -11    1    3    3    0    0  0.76657337629E+01 -0.14296975920E+02  0.11796596859E+01  0.16265257201E+02  0.51100000000E-03 0.  1.
         12    1    3    3    0    0 -0.70571095866E+01 -0.94865075184E+00 -0.98645514219E+00  0.71885901061E+01  0.00000000000E+00 0. -1.
</event>
<event>
 7    1  0.2584640E-011  0.5052886E+02  0.7816164E-02  0.1300439E+00
        -11   -1    0    0    0    0  0.00000000000E+00  0.00000000000E+00  0.45593999997E+02  0.45594000000E+02  0.51100000000E-03 0.  1.
         11   -1    0    0    0    0 -0.00000000000E+00 -0.00000000000E+00 -0.45593999997E+02  0.45594000000E+02  0.51100000000E-03 0. -1.
    9900012    2    1    2    0    0 -0.22709694050E+02 -0.15731660097E+02 -0.29832035179E+02  0.50528860115E+02  0.30000000806E+02 0.  0.
        -12    1    1    2    0    0  0.22709694050E+02  0.15731660097E+02  0.29832035179E+02  0.40659139885E+02  0.00000000000E+00 0.  1.
         11    1    3    3    0    0 -0.17186229215E+02 -0.89378166332E+01 -0.10144834279E+02  0.21867068930E+02  0.51100000000E-03 0. -1.
        -11    1    3    3    0    0 -0.68392093078E+00  0.27031536002E+01  0.26907838776E+01  0.38749329495E+01  0.51100000000E-03 0.  1.
        -12    1    3    3    0    0 -0.48395439041E+01 -0.94969970638E+01 -0.22377984778E+02  0.24786858235E+02  0.00000000000E+00 0.  1.
</event>
<event>
 7    1  0.2948015E-011  0.5052886E+02  0.7816164E-02  0.1300439E+00
        -11   -1    0    0    0    0  0.00000000000E+00  0.00000000000E+00  0.45593999997E+02  0.45594000000E+02  0.51100000000E-03 0. -1.
         11   -1    0    0    0    0 -0.00000000000E+00 -0.00000000000E+00 -0.45593999997E+02  0.45594000000E+02  0.51100000000E-03 0.  1.
    9900012    2    1    2    0    0  0.32345727349E+01 -0.16980955698E+02  0.36801500644E+02  0.50528858754E+02  0.29999996669E+02 0.  0.
        -12    1    1    2    0    0 -0.32345727349E+01  0.16980955698E+02 -0.36801500644E+02  0.40659141246E+02  0.00000000000E+00 0.  1.
         11    1    3    3    0    0  0.11119779880E+02 -0.23037980509E+01  0.18395264563E+02  0.21618111589E+02  0.51100000000E-03 0.  1.
        -11    1    3    3    0    0 -0.23847779931E+01 -0.13556707868E+02  0.18780689473E+02  0.23284883329E+02  0.51100000000E-03 0. -1.
        -12    1    3    3    0    0 -0.55004291519E+01 -0.11204497797E+01 -0.37445339254E+00  0.56258638366E+01  0.00000000000E+00 0.  1.
</event>
<event>
 7    1  0.2584640E-011  0.5052886E+02  0.7816164E-02  0.1300439E+00
        -11   -1    0    0    0    0  0.00000000000E+00  0.00000000000E+00  0.45593999997E+02  0.45594000000E+02  0.51100000000E-03 0.  1.
         11   -1    0    0    0    0 -0.00000000000E+00 -0.00000000000E+00 -0.45593999997E+02  0.45594000000E+02  0.51100000000E-03 0. -1.
    9900012    2    1    2    0    0  0.38389498857E+02  0.25894537320E+01 -0.13141794872E+02  0.50528859999E+02  0.30000000453E+02 0.  0.
        -12    1    1    2    0    0 -0.38389498857E+02 -0.25894537320E+01  0.13141794872E+02  0.40659140001E+02  0.00000000000E+00 0.  1.
         11    1    3    3    0    0  0.52793580866E+01  0.44632140240E+01 -0.12888856681E+01  0.70322917855E+01  0.51100000000E-03 0. -1.
        -11    1    3    3    0    0  0.23644366365E+01 -0.12358359368E+01 -0.12455817358E+02  0.12738337308E+02  0.51100000000E-03 0.  1.
         12    1    3    3    0    0  0.30745704134E+02 -0.63792435517E+00  0.60290815344E+00  0.30758230905E+02  0.00000000000E+00 0. -1.
</event>
<event>
 7    1  0.2584640E-011  0.5052886E+02  0.7816164E-02  0.1300439E+00
        -11   -1    0    0    0    0  0.00000000000E+00  0.00000000000E+00  0.45593999997E+02  0.45594000000E+02  0.51100000000E-03 0.  1.
         11   -1    0    0    0    0 -0.00000000000E+00 -0.00000000000E+00 -0.45593999997E+02  0.45594000000E+02  0.51100000000E-03 0. -1.
    9900012    2    1    2    0    0  0.26164952522E+02 -0.23437991435E+02 -0.20474904221E+02  0.50528857291E+02  0.29999992222E+02 0.  0.
        -12    1    1    2    0    0 -0.26164952522E+02  0.23437991435E+02  0.20474904221E+02  0.40659142709E+02  0.00000000000E+00 0.  1.
         11    1    3    3    0    0  0.15531395921E+01 -0.95170888398E+00 -0.46624781529E+01  0.50056663073E+01  0.51100000000E-03 0. -1.
        -11    1    3    3    0    0 -0.41994037090E+01 -0.82696623810E+00 -0.73392435900E+01  0.84960791784E+01  0.51100000000E-03 0.  1.
         12    1    3    3    0    0  0.28811216639E+02 -0.21659316313E+02 -0.84731824780E+01  0.37027111805E+02  0.00000000000E+00 0. -1.
</event>
<event>
 7    1  0.2584640E-011  0.5052887E+02  0.7816164E-02  0.1300439E+00
        -11   -1    0    0    0    0  0.00000000000E+00  0.00000000000E+00  0.45593999997E+02  0.45594000000E+02  0.51100000000E-03 0.  1.
         11   -1    0    0    0    0 -0.00000000000E+00 -0.00000000000E+00 -0.45593999997E+02  0.45594000000E+02  0.51100000000E-03 0. -1.
    9900012    2    1    2    0    0  0.63153390839E+00  0.70353379439E+01 -0.40040853032E+02  0.50528871547E+02  0.30000035554E+02 0.  0.
        -12    1    1    2    0    0 -0.63153390839E+00 -0.70353379439E+01  0.40040853032E+02  0.40659128453E+02  0.00000000000E+00 0.  1.
         11    1    3    3    0    0 -0.35590246797E+01  0.17506048726E+01 -0.23410263931E+02  0.23743877772E+02  0.51100000000E-03 0. -1.
        -11    1    3    3    0    0  0.36715307546E+01  0.11038613001E+02 -0.17427040414E+02  0.20953110817E+02  0.51100000000E-03 0.  1.
        -12    1    3    3    0    0  0.51902783345E+00 -0.57538799295E+01  0.79645131350E+00  0.58318829575E+01  0.00000000000E+00 0.  1.
</event>
<event>
 7    1  0.2584640E-011  0.5052886E+02  0.7816164E-02  0.1300439E+00
        -11   -1    0    0    0    0  0.00000000000E+00  0.00000000000E+00  0.45593999997E+02  0.45594000000E+02  0.51100000000E-03 0.  1.
         11   -1    0    0    0    0 -0.00000000000E+00 -0.00000000000E+00 -0.45593999997E+02  0.45594000000E+02  0.51100000000E-03 0. -1.
    9900012    2    1    2    0    0  0.11915656233E+02 -0.35136075881E+02 -0.16632475741E+02  0.50528856612E+02  0.29999990158E+02 0.  0.
        -12    1    1    2    0    0 -0.11915656233E+02  0.35136075881E+02  0.16632475741E+02  0.40659143388E+02  0.00000000000E+00 0.  1.
         11    1    3    3    0    0  0.52699928834E+01 -0.46317793723E+01  0.32928156783E+00  0.70238615987E+01  0.51100000000E-03 0. -1.
        -11    1    3    3    0    0 -0.14962881589E+00 -0.26541247150E+02 -0.20193282158E+01  0.26618374777E+02  0.51100000000E-03 0.  1.
        -12    1    3    3    0    0  0.67952921652E+01 -0.39630493587E+01 -0.14942429093E+02  0.16886620237E+02  0.00000000000E+00 0.  1.
</event>
<event>
 7    1  0.2584640E-011  0.5052886E+02  0.7816164E-02  0.1300439E+00
        -11   -1    0    0    0    0  0.00000000000E+00  0.00000000000E+00  0.45593999997E+02  0.45594000000E+02  0.51100000000E-03 0. -1.
         11   -1    0    0    0    0 -0.00000000000E+00 -0.00000000000E+00 -0.45593999997E+02  0.45594000000E+02  0.51100000000E-03 0.  1.
    9900012    2    1    2    0    0  0.18888027913E+02  0.28085105077E+02  0.22530754011E+02  0.50528860782E+02  0.30000002833E+02 0.  0.
        -12    1    1    2    0    0 -0.18888027913E+02 -0.28085105077E+02 -0.22530754011E+02  0.40659139218E+02  0.00000000000E+00 0.  1.
         11    1    3    3    0    0  0.27516917162E+01  0.16075841663E+02  0.22412301784E+02  0.27718509411E+02  0.51100000000E-03 0.  1.
        -11    1    3    3    0    0  0.30156647368E+01  0.61337830901E+01  0.39999798882E+01  0.79194297881E+01  0.51100000000E-03 0. -1.
         12    1    3    3    0    0  0.13120671460E+02  0.58754803245E+01 -0.38815276611E+01  0.14890921583E+02  0.00000000000E+00 0. -1.
</event>
<event>
 7    1  0.2584640E-011  0.5052886E+02  0.7816164E-02  0.1300439E+00
        -11   -1    0    0    0    0  0.00000000000E+00  0.00000000000E+00  0.45593999997E+02  0.45594000000E+02  0.51100000000E-03 0.  1.
         11   -1    0    0    0    0 -0.00000000000E+00 -0.00000000000E+00 -0.45593999997E+02  0.45594000000E+02  0.51100000000E-03 0. -1.
    9900012    2    1    2    0    0 -0.52153325226E+01  0.37988203653E+02 -0.13522669892E+02  0.50528856981E+02  0.29999991278E+02 0.  0.
        -12    1    1    2    0    0  0.52153325226E+01 -0.37988203653E+02  0.13522669892E+02  0.40659143019E+02  0.00000000000E+00 0.  1.
         11    1    3    3    0    0 -0.72679762923E+00  0.49403332451E+01 -0.13286792645E+02  0.14194153248E+02  0.51100000000E-03 0. -1.
        -11    1    3    3    0    0  0.36711487652E+01  0.10991979872E+02 -0.45046745885E+01  0.12433545277E+02  0.51100000000E-03 0.  1.
        -12    1    3    3    0    0 -0.81596836586E+01  0.22055890536E+02  0.42687973424E+01  0.23901158455E+02  0.00000000000E+00 0.  1.
</event>
<event>
 7    1  0.2584640E-011  0.5052886E+02  0.7816164E-02  0.1300439E+00
        -11   -1    0    0    0    0  0.00000000000E+00  0.00000000000E+00  0.45593999997E+02  0.45594000000E+02  0.51100000000E-03 0.  1.
         11   -1    0    0    0    0 -0.00000000000E+00 -0.00000000000E+00 -0.45593999997E+02  0.45594000000E+02  0.51100000000E-03 0. -1.
    9900012    2    1    2    0    0 -0.21307896056E+02 -0.33426395300E+02 -0.90451657020E+01  0.50528863762E+02  0.30000011891E+02 0.  0.
        -12    1    1    2    0    0  0.21307896056E+02  0.33426395300E+02  0.90451657020E+01  0.40659136238E+02  0.00000000000E+00 0.  1.
         11    1    3    3    0    0  0.62614066289E+00  0.20247865694E+01 -0.46683872397E+01  0.51269535264E+01  0.51100000000E-03 0. -1.
        -11    1    3    3    0    0 -0.13245027114E+02 -0.70144529049E+01 -0.45621496154E+01  0.15666732339E+02  0.51100000000E-03 0.  1.
         12    1    3    3    0    0 -0.86890096053E+01 -0.28436728964E+02  0.18537115311E+00  0.29735177897E+02  0.00000000000E+00 0. -1.
</event>
<event>
 7    1  0.4052087E-011  0.5052886E+02  0.7816164E-02  0.1300439E+00
        -11   -1    0    0    0    0  0.00000000000E+00  0.00000000000E+00  0.45593999997E+02  0.45594000000E+02  0.51100000000E-03 0. -1.
         11   -1    0    0    0    0 -0.00000000000E+00 -0.00000000000E+00 -0.45593999997E+02  0.45594000000E+02  0.51100000000E-03 0.  1.
    9900012    2    1    2    0    0  0.63006708428E+01 -0.39270223261E+02  0.84449235266E+01  0.50528860542E+02  0.30000002105E+02 0.  0.
        -12    1    1    2    0    0 -0.63006708428E+01  0.39270223261E+02 -0.84449235266E+01  0.40659139458E+02  0.00000000000E+00 0.  1.
         11    1    3    3    0    0  0.22411300171E+01 -0.29215876340E+02  0.82640542838E+01  0.30444780958E+02  0.51100000000E-03 0. -1.
        -11    1    3    3    0    0  0.72579934350E+01 -0.95240216719E+01  0.60221085778E+01  0.13403404399E+02  0.51100000000E-03 0.  1.
        -12    1    3    3    0    0 -0.31984526094E+01 -0.53032524900E+00 -0.58412393350E+01  0.66806751854E+01  0.00000000000E+00 0.  1.
</event>
<event>
 7    1  0.2584640E-011  0.5052880E+02  0.7816164E-02  0.1300439E+00
        -11   -1    0    0    0    0  0.00000000000E+00  0.00000000000E+00  0.45593999997E+02  0.45594000000E+02  0.51100000000E-03 0.  1.
         11   -1    0    0    0    0 -0.00000000000E+00 -0.00000000000E+00 -0.45593999997E+02  0.45594000000E+02  0.51100000000E-03 0. -1.
    9900012    2    1    2    0    0 -0.16843034090E+02 -0.19514356136E+02 -0.31443159943E+02  0.50528804239E+02  0.29999830963E+02 0.  0.
        -12    1    1    2    0    0  0.16843034090E+02  0.19514356136E+02  0.31443159943E+02  0.40659195761E+02  0.00000000000E+00 0.  1.
         11    1    3    3    0    0 -0.28202295149E+01 -0.85757299756E+00  0.14638321292E+01  0.32911898648E+01  0.51100000000E-03 0. -1.
        -11    1    3    3    0    0 -0.15472424033E+02 -0.10980511631E+02 -0.70730066943E+01  0.20248332402E+02  0.51100000000E-03 0.  1.
         12    1    3    3    0    0  0.14496194574E+01 -0.76762715074E+01 -0.25833985378E+02  0.26989281972E+02  0.00000000000E+00 0. -1.
</event>
<event>
 7    1  0.2584640E-011  0.5052886E+02  0.7816164E-02  0.1300439E+00
        -11   -1    0    0    0    0  0.00000000000E+00  0.00000000000E+00  0.45593999997E+02  0.45594000000E+02  0.51100000000E-03 0.  1.
         11   -1    0    0    0    0 -0.00000000000E+00 -0.00000000000E+00 -0.45593999997E+02  0.45594000000E+02  0.51100000000E-03 0. -1.
    9900012    2    1    2    0    0 -0.28261924486E+02  0.11494279118E+01 -0.29208016672E+02  0.50528858370E+02  0.29999995502E+02 0.  0.
        -12    1    1    2    0    0  0.28261924486E+02 -0.11494279118E+01  0.29208016672E+02  0.40659141630E+02  0.00000000000E+00 0.  1.
         11    1    3    3    0    0  0.43067537600E+01 -0.22363669171E+01  0.19543845271E+00  0.48567130230E+01  0.51100000000E-03 0.  1.
        -11    1    3    3    0    0 -0.77744411364E+01 -0.44327420681E+01 -0.76914021268E+01  0.11800373052E+02  0.51100000000E-03 0. -1.
        -12    1    3    3    0    0 -0.24794237109E+02  0.78185368970E+01 -0.21712052998E+02  0.33871772295E+02  0.00000000000E+00 0.  1.
</event>
<event>
 7    1  0.2584640E-011  0.5052884E+02  0.7816164E-02  0.1300439E+00
        -11   -1    0    0    0    0  0.00000000000E+00  0.00000000000E+00  0.45593999997E+02  0.45594000000E+02  0.51100000000E-03 0.  1.
         11   -1    0    0    0    0 -0.00000000000E+00 -0.00000000000E+00 -0.45593999997E+02  0.45594000000E+02  0.51100000000E-03 0. -1.
    9900012    2    1    2    0    0  0.27754375723E+02  0.21594629766E+02 -0.20409157049E+02  0.50528842384E+02  0.29999946912E+02 0.  0.
        -12    1    1    2    0    0 -0.27754375723E+02 -0.21594629766E+02  0.20409157049E+02  0.40659157616E+02  0.00000000000E+00 0.  1.
         11    1    3    3    0    0  0.25328051849E+01  0.14041276820E+02 -0.88335717713E+01  0.16781077062E+02  0.51100000000E-03 0. -1.
        -11    1    3    3    0    0 -0.26270144050E+00 -0.19288495186E+01 -0.55712340033E+01  0.59015354861E+01  0.51100000000E-03 0.  1.
         12    1    3    3    0    0  0.25484271979E+02  0.94822024645E+01 -0.60043512748E+01  0.27846229837E+02  0.00000000000E+00 0. -1.
</event>
<event>
 7    1  0.2584640E-011  0.5052886E+02  0.7816164E-02  0.1300439E+00
        -11   -1    0    0    0    0  0.00000000000E+00  0.00000000000E+00  0.45593999997E+02  0.45594000000E+02  0.51100000000E-03 0.  1.
         11   -1    0    0    0    0 -0.00000000000E+00 -0.00000000000E+00 -0.45593999997E+02  0.45594000000E+02  0.51100000000E-03 0. -1.
    9900012    2    1    2    0    0  0.26076972562E+02  0.11013928840E+02 -0.29186481534E+02  0.50528857968E+02  0.29999994279E+02 0.  0.
        -12    1    1    2    0    0 -0.26076972562E+02 -0.11013928840E+02  0.29186481534E+02  0.40659142032E+02  0.00000000000E+00 0.  1.
         11    1    3    3    0    0  0.13888689834E+02  0.57937614696E+01 -0.23173505190E+02  0.27631046313E+02  0.51100000000E-03 0. -1.
        -11    1    3    3    0    0  0.63356864901E+01 -0.48420772324E+01 -0.77602260249E+01  0.11126892803E+02  0.51100000000E-03 0.  1.
         12    1    3    3    0    0  0.58525962375E+01  0.10062244603E+02  0.17472496817E+01  0.11770918852E+02  0.00000000000E+00 0. -1.
</event>
<event>
 7    1  0.2584640E-011  0.5052887E+02  0.7816164E-02  0.1300439E+00
        -11   -1    0    0    0    0  0.00000000000E+00  0.00000000000E+00  0.45593999997E+02  0.45594000000E+02  0.51100000000E-03 0. -1.
         11   -1    0    0    0    0 -0.00000000000E+00 -0.00000000000E+00 -0.45593999997E+02  0.45594000000E+02  0.51100000000E-03 0.  1.
    9900012    2    1    2    0    0 -0.22668539783E+02  0.28417179655E+01  0.33633719631E+02  0.50528866301E+02  0.30000019610E+02 0.  0.
        -12    1    1    2    0    0  0.22668539783E+02 -0.28417179655E+01 -0.33633719631E+02  0.40659133699E+02  0.00000000000E+00 0.  1.
         11    1    3    3    0    0 -0.10945024082E+02  0.90769872084E+00  0.94868384039E+01  0.14512669372E+02  0.51100000000E-03 0. -1.
        -11    1    3    3    0    0 -0.99527980584E+01  0.12438708035E+02  0.12645933107E+02  0.20339598599E+02  0.51100000000E-03 0.  1.
         12    1    3    3    0    0 -0.17707176427E+01 -0.10504688790E+02  0.11500948120E+02  0.15676598331E+02  0.00000000000E+00 0. -1.
</event>
<event>
 7    1  0.2584640E-011  0.5052888E+02  0.7816164E-02  0.1300439E+00
        -11   -1    0    0    0    0  0.00000000000E+00  0.00000000000E+00  0.45593999997E+02  0.45594000000E+02  0.51100000000E-03 0. -1.
         11   -1    0    0    0    0 -0.00000000000E+00 -0.00000000000E+00 -0.45593999997E+02  0.45594000000E+02  0.51100000000E-03 0.  1.
    9900012    2    1    2    0    0  0.19508357471E+02 -0.24639113016E+02  0.25797328165E+02  0.50528879967E+02  0.30000061148E+02 0.  0.
        -12    1    1    2    0    0 -0.19508357471E+02  0.24639113016E+02 -0.25797328165E+02  0.40659120033E+02  0.00000000000E+00 0.  1.
         11    1    3    3    0    0  0.66412617998E+01 -0.10170657255E+02  0.32719043536E+00  0.12151365402E+02  0.51100000000E-03 0. -1.
        -11    1    3    3    0    0 -0.53593782046E+01 -0.63382653112E+01  0.45544301067E+01  0.94678073361E+01  0.51100000000E-03 0.  1.
         12    1    3    3    0    0  0.18226473876E+02 -0.81301904492E+01  0.20915707623E+02  0.28909707228E+02  0.00000000000E+00 0. -1.
</event>
<event>
 7    1  0.2584640E-011  0.5052887E+02  0.7816164E-02  0.1300439E+00
        -11   -1    0    0    0    0  0.00000000000E+00  0.00000000000E+00  0.45593999997E+02  0.45594000000E+02  0.51100000000E-03 0.  1.
         11   -1    0    0    0    0 -0.00000000000E+00 -0.00000000000E+00 -0.45593999997E+02  0.45594000000E+02  0.51100000000E-03 0. -1.
    9900012    2    1    2    0    0 -0.10621861180E+02  0.27020619222E+02 -0.28464489603E+02  0.50528868598E+02  0.30000026590E+02 0.  0.
        -12    1    1    2    0    0  0.10621861180E+02 -0.27020619222E+02  0.28464489603E+02  0.40659131402E+02  0.00000000000E+00 0.  1.
         11    1    3    3    0    0  0.38912636667E+00  0.16920881263E+02 -0.74790272035E+01  0.18504147919E+02  0.51100000000E-03 0.  1.
        -11    1    3    3    0    0  0.34547206713E+01  0.20201572108E+01  0.13418924876E+01  0.42209958283E+01  0.51100000000E-03 0. -1.
        -12    1    3    3    0    0 -0.14465708218E+02  0.80795807480E+01 -0.22327354887E+02  0.27803724850E+02  0.00000000000E+00 0.  1.
</event>
<event>
 7    1  0.2584640E-011  0.5052885E+02  0.7816164E-02  0.1300439E+00
        -11   -1    0    0    0    0  0.00000000000E+00  0.00000000000E+00  0.45593999997E+02  0.45594000000E+02  0.51100000000E-03 0. -1.
         11   -1    0    0    0    0 -0.00000000000E+00 -0.00000000000E+00 -0.45593999997E+02  0.45594000000E+02  0.51100000000E-03 0.  1.
    9900012    2    1    2    0    0 -0.24485925100E+02 -0.24033298687E+02  0.21817565519E+02  0.50528854178E+02  0.29999982760E+02 0.  0.
        -12    1    1    2    0    0  0.24485925100E+02  0.24033298687E+02 -0.21817565519E+02  0.40659145822E+02  0.00000000000E+00 0.  1.
         11    1    3    3    0    0  0.43011155289E+01 -0.92472641561E+01  0.18531079221E+01  0.10365592043E+02  0.51100000000E-03 0. -1.
        -11    1    3    3    0    0 -0.13561563261E+02 -0.15261267556E+01  0.34424946149E+01  0.14074652053E+02  0.51100000000E-03 0.  1.
        -12    1    3    3    0    0 -0.15225477368E+02 -0.13259907775E+02  0.16521962982E+02  0.26088610083E+02  0.00000000000E+00 0.  1.
</event>
<event>
 7    1  0.2584640E-011  0.5052892E+02  0.7816164E-02  0.1300439E+00
        -11   -1    0    0    0    0  0.00000000000E+00  0.00000000000E+00  0.45593999997E+02  0.45594000000E+02  0.51100000000E-03 0. -1.
         11   -1    0    0    0    0 -0.00000000000E+00 -0.00000000000E+00 -0.45593999997E+02  0.45594000000E+02  0.51100000000E-03 0.  1.
    9900012    2    1    2    0    0  0.30739166448E+02  0.85016843425E+01  0.25218758440E+02  0.50528920229E+02  0.30000183527E+02 0.  0.
        -12    1    1    2    0    0 -0.30739166448E+02 -0.85016843425E+01 -0.25218758440E+02  0.40659079771E+02  0.00000000000E+00 0.  1.
         11    1    3    3    0    0  0.99283747191E+01  0.69235443241E+01  0.10319853659E+02  0.15906208548E+02  0.51100000000E-03 0. -1.
        -11    1    3    3    0    0  0.12887252533E+02  0.97414235769E+01  0.16549654266E+02  0.23127206224E+02  0.51100000000E-03 0.  1.
        -12    1    3    3    0    0  0.79235391959E+01 -0.81632835585E+01 -0.16507494848E+01  0.11495505457E+02  0.00000000000E+00 0.  1.
</event>
<event>
 7    1  0.3468571E-011  0.5052886E+02  0.7816164E-02  0.1300439E+00
        -11   -1    0    0    0    0  0.00000000000E+00  0.00000000000E+00  0.45593999997E+02  0.45594000000E+02  0.51100000000E-03 0. -1.
         11   -1    0    0    0    0 -0.00000000000E+00 -0.00000000000E+00 -0.45593999997E+02  0.45594000000E+02  0.51100000000E-03 0.  1.
    9900012    2    1    2    0    0  0.34839075534E+02  0.20692786849E+02  0.33485608438E+01  0.50528862388E+02  0.30000007713E+02 0.  0.
        -12    1    1    2    0    0 -0.34839075534E+02 -0.20692786849E+02 -0.33485608438E+01  0.40659137612E+02  0.00000000000E+00 0.  1.
         11    1    3    3    0    0  0.20154032915E+02  0.12368332913E+02  0.92696573773E+00  0.23664741020E+02  0.51100000000E-03 0. -1.
        -11    1    3    3    0    0  0.17064778258E+02  0.13057505886E+01  0.66153237818E+01  0.18348682530E+02  0.51100000000E-03 0.  1.
        -12    1    3    3    0    0 -0.23797356387E+01  0.70187033478E+01 -0.41937286758E+01  0.85154388378E+01  0.00000000000E+00 0.  1.
</event>
<event>
 7    1  0.2584640E-011  0.5052886E+02  0.7816164E-02  0.1300439E+00
        -11   -1    0    0    0    0  0.00000000000E+00  0.00000000000E+00  0.45593999997E+02  0.45594000000E+02  0.51100000000E-03 0.  1.
         11   -1    0    0    0    0 -0.00000000000E+00 -0.00000000000E+00 -0.45593999997E+02  0.45594000000E+02  0.51100000000E-03 0. -1.
    9900012    2    1    2    0    0 -0.32075647256E+02 -0.24942495709E+02 -0.14800237528E+01  0.50528859460E+02  0.29999998815E+02 0.  0.
        -12    1    1    2    0    0  0.32075647256E+02  0.24942495709E+02  0.14800237528E+01  0.40659140540E+02  0.00000000000E+00 0.  1.
         11    1    3    3    0    0 -0.12729036451E+02 -0.20126525004E+02 -0.22012269259E+01  0.23915492425E+02  0.51100000000E-03 0. -1.
        -11    1    3    3    0    0 -0.65720827647E+01 -0.52235411778E+01  0.82577753850E+01  0.11775759376E+02  0.51100000000E-03 0.  1.
        -12    1    3    3    0    0 -0.12774528041E+02  0.40757047192E+00 -0.75365722119E+01  0.14837607660E+02  0.00000000000E+00 0.  1.
</event>
<event>
 7    1  0.2584640E-011  0.5052886E+02  0.7816164E-02  0.1300439E+00
        -11   -1    0    0    0    0  0.00000000000E+00  0.00000000000E+00  0.45593999997E+02  0.45594000000E+02  0.51100000000E-03 0.  1.
         11   -1    0    0    0    0 -0.00000000000E+00 -0.00000000000E+00 -0.45593999997E+02  0.45594000000E+02  0.51100000000E-03 0. -1.
    9900012    2    1    2    0    0 -0.32423820327E+02 -0.22419053091E+02 -0.99622896105E+01  0.50528864737E+02  0.30000014854E+02 0.  0.
        -12    1    1    2    0    0  0.32423820327E+02  0.22419053091E+02  0.99622896105E+01  0.40659135263E+02  0.00000000000E+00 0.  1.
         11    1    3    3    0    0  0.85763459514E-01 -0.33519442322E+01  0.15793089065E+01  0.37063597222E+01  0.51100000000E-03 0. -1.
        -11    1    3    3    0    0 -0.30720180240E+01  0.45354312546E+01 -0.68950282837E+01  0.88061822999E+01  0.51100000000E-03 0.  1.
         12    1    3    3    0    0 -0.29437565763E+02 -0.23602540113E+02 -0.46465702334E+01  0.38016322715E+02  0.00000000000E+00 0. -1.
</event>
<event>
 7    1  0.2584640E-011  0.5052887E+02  0.7816164E-02  0.1300439E+00
        -11   -1    0    0    0    0  0.00000000000E+00  0.00000000000E+00  0.45593999997E+02  0.45594000000E+02  0.51100000000E-03 0.  1.
         11   -1    0    0    0    0 -0.00000000000E+00 -0.00000000000E+00 -0.45593999997E+02  0.45594000000E+02  0.51100000000E-03 0. -1.
    9900012    2    1    2    0    0 -0.43940192179E+01 -0.10946911061E+02 -0.38910444231E+02  0.50528868960E+02  0.30000027691E+02 0.  0.
        -12    1    1    2    0    0  0.43940192179E+01  0.10946911061E+02  0.38910444231E+02  0.40659131040E+02  0.00000000000E+00 0.  1.
         11    1    3    3    0    0  0.26240271454E+01 -0.41740228778E+01 -0.27692495219E+02  0.28127962549E+02  0.51100000000E-03 0. -1.
        -11    1    3    3    0    0 -0.62849184913E+01  0.17463646265E+00 -0.13629903553E+02  0.15010162207E+02  0.51100000000E-03 0.  1.
        -12    1    3    3    0    0 -0.73312787199E+00 -0.69475246460E+01  0.24119545413E+01  0.73907442042E+01  0.00000000000E+00 0.  1.
</event>
<event>
 7    1  0.2584640E-011  0.5052886E+02  0.7816164E-02  0.1300439E+00
        -11   -1    0    0    0    0  0.00000000000E+00  0.00000000000E+00  0.45593999997E+02  0.45594000000E+02  0.51100000000E-03 0.  1.
         11   -1    0    0    0    0 -0.00000000000E+00 -0.00000000000E+00 -0.45593999997E+02  0.45594000000E+02  0.51100000000E-03 0. -1.
    9900012    2    1    2    0    0  0.36696621120E+02  0.57272604744E+01 -0.16544539214E+02  0.50528864595E+02  0.30000014422E+02 0.  0.
        -12    1    1    2    0    0 -0.36696621120E+02 -0.57272604744E+01  0.16544539214E+02  0.40659135405E+02  0.00000000000E+00 0.  1.
         11    1    3    3    0    0  0.10919029015E+02 -0.13422575829E+01 -0.81193270088E+01  0.13672977780E+02  0.51100000000E-03 0. -1.
        -11    1    3    3    0    0  0.28477061553E+02  0.52295795763E+01 -0.12595389823E+01  0.28980648301E+02  0.51100000000E-03 0.  1.
         12    1    3    3    0    0 -0.26994694479E+01  0.18399384809E+01 -0.71656732225E+01  0.78752385135E+01  0.00000000000E+00 0. -1.
</event>
<event>
 7    1  0.2584640E-011  0.5052886E+02  0.7816164E-02  0.1300439E+00
        -11   -1    0    0    0    0  0.00000000000E+00  0.00000000000E+00  0.45593999997E+02  0.45594000000E+02  0.51100000000E-03 0. -1.
         11   -1    0    0    0    0 -0.00000000000E+00 -0.00000000000E+00 -0.45593999997E+02  0.45594000000E+02  0.51100000000E-03 0.  1.
    9900012    2    1    2    0    0 -0.43602505984E+01 -0.27883072428E+02  0.29269234853E+02  0.50528860533E+02  0.30000002076E+02 0.  0.
        -12    1    1    2    0    0  0.43602505984E+01  0.27883072428E+02 -0.29269234853E+02  0.40659139467E+02  0.00000000000E+00 0.  1.
         11    1    3    3    0    0  0.53915956516E+00 -0.75667692063E+01  0.50850281482E+01  0.91325900371E+01  0.51100000000E-03 0. -1.
        -11    1    3    3    0    0 -0.31191187555E+01 -0.98344840172E+01 -0.41594455376E+01  0.11124161323E+02  0.51100000000E-03 0.  1.
         12    1    3    3    0    0 -0.17802914080E+01 -0.10481819205E+02  0.28343652242E+02  0.30272109173E+02  0.00000000000E+00 0. -1.
</event>
<event>
 7    1  0.2584640E-011  0.5052886E+02  0.7816164E-02  0.1300439E+00
        -11   -1    0    0    0    0  0.00000000000E+00  0.00000000000E+00  0.45593999997E+02  0.45594000000E+02  0.51100000000E-03 0.  1.
         11   -1    0    0    0    0 -0.00000000000E+00 -0.00000000000E+00 -0.45593999997E+02  0.45594000000E+02  0.51100000000E-03 0. -1.
    9900012    2    1    2    0    0 -0.10996180902E+02  0.38064776500E+02 -0.91281264368E+01  0.50528857158E+02  0.29999991818E+02 0.  0.
        -12    1    1    2    0    0  0.10996180902E+02 -0.38064776500E+02  0.91281264368E+01  0.40659142842E+02  0.00000000000E+00 0.  1.
         11    1    3    3    0    0 -0.71027769287E+01  0.36297207648E+02 -0.23942916347E+01  0.37063045690E+02  0.51100000000E-03 0. -1.
        -11    1    3    3    0    0  0.14798888278E+00  0.12715906249E+01  0.28110013340E+01  0.30887816671E+01  0.51100000000E-03 0.  1.
         12    1    3    3    0    0 -0.40413928565E+01  0.49597822673E+00 -0.95448361360E+01  0.10377029801E+02  0.00000000000E+00 0. -1.
</event>
<event>
 7    1  0.2584640E-011  0.5052886E+02  0.7816164E-02  0.1300439E+00
        -11   -1    0    0    0    0  0.00000000000E+00  0.00000000000E+00  0.45593999997E+02  0.45594000000E+02  0.51100000000E-03 0.  1.
         11   -1    0    0    0    0 -0.00000000000E+00 -0.00000000000E+00 -0.45593999997E+02  0.45594000000E+02  0.51100000000E-03 0. -1.
    9900012    2    1    2    0    0 -0.22931445683E+02  0.21866258585E+02 -0.25479030237E+02  0.50528862682E+02  0.30000008609E+02 0.  0.
        -12    1    1    2    0    0  0.22931445683E+02 -0.21866258585E+02  0.25479030237E+02  0.40659137318E+02  0.00000000000E+00 0.  1.
         11    1    3    3    0    0 -0.62964151660E+01  0.14498217890E+02 -0.99119112771E+01  0.18657147460E+02  0.51100000000E-03 0. -1.
        -11    1    3    3    0    0 -0.18459534278E+02  0.10904034747E+02 -0.72162778896E+01  0.22621384714E+02  0.51100000000E-03 0.  1.
        -12    1    3    3    0    0  0.18245037612E+01 -0.35359940529E+01 -0.83508410704E+01  0.92503305076E+01  0.00000000000E+00 0.  1.
</event>
<event>
 7    1  0.2584640E-011  0.5052886E+02  0.7816164E-02  0.1300439E+00
        -11   -1    0    0    0    0  0.00000000000E+00  0.00000000000E+00  0.45593999997E+02  0.45594000000E+02  0.51100000000E-03 0.  1.
         11   -1    0    0    0    0 -0.00000000000E+00 -0.00000000000E+00 -0.45593999997E+02  0.45594000000E+02  0.51100000000E-03 0. -1.
    9900012    2    1    2    0    0  0.30275019337E+01  0.13324580887E+02 -0.38294324414E+02  0.50528861960E+02  0.30000006415E+02 0.  0.
        -12    1    1    2    0    0 -0.30275019337E+01 -0.13324580887E+02  0.38294324414E+02  0.40659138040E+02  0.00000000000E+00 0.  1.
         11    1    3    3    0    0 -0.22951732189E+01 -0.85531017955E+00  0.23827920702E+01  0.34171733815E+01  0.51100000000E-03 0. -1.
        -11    1    3    3    0    0  0.78370842838E+01  0.12337701715E+02 -0.13955141803E+02  0.20208531780E+02  0.51100000000E-03 0.  1.
         12    1    3    3    0    0 -0.25144091311E+01  0.18421893513E+01 -0.26721974682E+02  0.26903156799E+02  0.00000000000E+00 0. -1.
</event>
<event>
 7    1  0.2584640E-011  0.5052887E+02  0.7816164E-02  0.1300439E+00
        -11   -1    0    0    0    0  0.00000000000E+00  0.00000000000E+00  0.45593999997E+02  0.45594000000E+02  0.51100000000E-03 0. -1.
         11   -1    0    0    0    0 -0.00000000000E+00 -0.00000000000E+00 -0.45593999997E+02  0.45594000000E+02  0.51100000000E-03 0.  1.
    9900012    2    1    2    0    0  0.18128868455E+02 -0.73637778259E+01  0.35641043113E+02  0.50528867576E+02  0.30000023483E+02 0.  0.
        -12    1    1    2    0    0 -0.18128868455E+02  0.73637778259E+01 -0.35641043113E+02  0.40659132424E+02  0.00000000000E+00 0.  1.
         11    1    3    3    0    0  0.13866405060E+01  0.78576519498E+01  0.16513136691E+02  0.18339824145E+02  0.51100000000E-03 0. -1.
        -11    1    3    3    0    0  0.78051371016E+01  0.47100136282E+00  0.53501430041E+01  0.94744940701E+01  0.51100000000E-03 0.  1.
        -12    1    3    3    0    0  0.89370908472E+01 -0.15692431138E+02  0.13777763418E+02  0.22714549361E+02  0.00000000000E+00 0.  1.
</event>
<event>
 7    1  0.2584640E-011  0.5052884E+02  0.7816164E-02  0.1300439E+00
        -11   -1    0    0    0    0  0.00000000000E+00  0.00000000000E+00  0.45593999997E+02  0.45594000000E+02  0.51100000000E-03 0.  1.
         11   -1    0    0    0    0 -0.00000000000E+00 -0.00000000000E+00 -0.45593999997E+02  0.45594000000E+02  0.51100000000E-03 0. -1.
    9900012    2    1    2    0    0 -0.33322569229E+02  0.23030637900E+02 -0.35161552353E+01  0.50528840518E+02  0.29999941240E+02 0.  0.
        -12    1    1    2    0    0  0.33322569229E+02 -0.23030637900E+02  0.35161552353E+01  0.40659159482E+02  0.00000000000E+00 0.  1.
         11    1    3    3    0    0 -0.92457797328E+01  0.43043175185E+01 -0.12682140046E+02  0.16274159535E+02  0.51100000000E-03 0. -1.
        -11    1    3    3    0    0 -0.86924961525E+01  0.10241646782E+02 -0.17864912197E+01  0.13551471112E+02  0.51100000000E-03 0.  1.
        -12    1    3    3    0    0 -0.15384293344E+02  0.84846735995E+01  0.10952476030E+02  0.20703209871E+02  0.00000000000E+00 0.  1.
</event>
<event>
 7    1  0.2584640E-011  0.5052887E+02  0.7816164E-02  0.1300439E+00
        -11   -1    0    0    0    0  0.00000000000E+00  0.00000000000E+00  0.45593999997E+02  0.45594000000E+02  0.51100000000E-03 0. -1.
         11   -1    0    0    0    0 -0.00000000000E+00 -0.00000000000E+00 -0.45593999997E+02  0.45594000000E+02  0.51100000000E-03 0.  1.
    9900012    2    1    2    0    0  0.21080956931E+02  0.26534333884E+02  0.22465242570E+02  0.50528871339E+02  0.30000034921E+02 0.  0.
        -12    1    1    2    0    0 -0.21080956931E+02 -0.26534333884E+02 -0.22465242570E+02  0.40659128661E+02  0.00000000000E+00 0.  1.
         11    1    3    3    0    0  0.11689622204E+02  0.62922152561E+01  0.43799085830E+01  0.13979371930E+02  0.51100000000E-03 0. -1.
        -11    1    3    3    0    0  0.64364066804E+01  0.24078623745E+02  0.94623054535E+01  0.26659757635E+02  0.51100000000E-03 0.  1.
         12    1    3    3    0    0  0.29549280474E+01 -0.38365051170E+01  0.86230285331E+01  0.98897417742E+01  0.00000000000E+00 0. -1.
</event>
<event>
 7    1  0.2584640E-011  0.5052886E+02  0.7816164E-02  0.1300439E+00
        -11   -1    0    0    0    0  0.00000000000E+00  0.00000000000E+00  0.45593999997E+02  0.45594000000E+02  0.51100000000E-03 0. -1.
         11   -1    0    0    0    0 -0.00000000000E+00 -0.00000000000E+00 -0.45593999997E+02  0.45594000000E+02  0.51100000000E-03 0.  1.
    9900012    2    1    2    0    0  0.21391945693E+00  0.68617736160E+00  0.40652787876E+02  0.50528858801E+02  0.29999996812E+02 0.  0.
        -12    1    1    2    0    0 -0.21391945693E+00 -0.68617736160E+00 -0.40652787876E+02  0.40659141199E+02  0.00000000000E+00 0.  1.
         11    1    3    3    0    0 -0.70706895689E+01 -0.42387171505E+01  0.27745722832E+02  0.28944541969E+02  0.51100000000E-03 0. -1.
        -11    1    3    3    0    0  0.68214766125E+01 -0.40108119117E+01  0.84891299765E+01  0.11605364423E+02  0.51100000000E-03 0.  1.
         12    1    3    3    0    0  0.46313241333E+00  0.89357064239E+01  0.44179350677E+01  0.99789524094E+01  0.00000000000E+00 0. -1.
</event>
<event>
 7    1  0.2584640E-011  0.5052887E+02  0.7816164E-02  0.1300439E+00
        -11   -1    0    0    0    0  0.00000000000E+00  0.00000000000E+00  0.45593999997E+02  0.45594000000E+02  0.51100000000E-03 0.  1.
         11   -1    0    0    0    0 -0.00000000000E+00 -0.00000000000E+00 -0.45593999997E+02  0.45594000000E+02  0.51100000000E-03 0. -1.
    9900012    2    1    2    0    0 -0.34616713868E+02 -0.16037097152E+02 -0.14059155618E+02  0.50528865469E+02  0.30000017080E+02 0.  0.
        -12    1    1    2    0    0  0.34616713868E+02  0.16037097152E+02  0.14059155618E+02  0.40659134531E+02  0.00000000000E+00 0.  1.
         11    1    3    3    0    0 -0.17117198423E+02 -0.60996148244E+01 -0.18712856988E+01  0.18267607761E+02  0.51100000000E-03 0. -1.
        -11    1    3    3    0    0 -0.20279425272E+02 -0.10575568682E+02 -0.15696589149E+02  0.27739514298E+02  0.51100000000E-03 0.  1.
        -12    1    3    3    0    0  0.27799098268E+01  0.63808635387E+00  0.35087192297E+01  0.45217434108E+01  0.00000000000E+00 0.  1.
</event>
<event>
 7    1  0.2584640E-011  0.5052886E+02  0.7816164E-02  0.1300439E+00
        -11   -1    0    0    0    0  0.00000000000E+00  0.00000000000E+00  0.45593999997E+02  0.45594000000E+02  0.51100000000E-03 0.  1.
         11   -1    0    0    0    0 -0.00000000000E+00 -0.00000000000E+00 -0.45593999997E+02  0.45594000000E+02  0.51100000000E-03 0. -1.
    9900012    2    1    2    0    0  0.86480611735E+01 -0.14304605005E+02 -0.37064200573E+02  0.50528860185E+02  0.30000001018E+02 0.  0.
        -12    1    1    2    0    0 -0.86480611735E+01  0.14304605005E+02  0.37064200573E+02  0.40659139815E+02  0.00000000000E+00 0.  1.
         11    1    3    3    0    0  0.16103543326E+02 -0.11793997734E+02 -0.25291325518E+02  0.32219150158E+02  0.51100000000E-03 0. -1.
        -11    1    3    3    0    0  0.14414569818E+01  0.22054318929E+01 -0.63452112426E+01  0.68704755322E+01  0.51100000000E-03 0.  1.
        -12    1    3    3    0    0 -0.88969391345E+01 -0.47160391644E+01 -0.54276638122E+01  0.11439234494E+02  0.00000000000E+00 0.  1.
</event>
<event>
 7    1  0.2584640E-011  0.5052886E+02  0.7816164E-02  0.1300439E+00
        -11   -1    0    0    0    0  0.00000000000E+00  0.00000000000E+00  0.45593999997E+02  0.45594000000E+02  0.51100000000E-03 0. -1.
         11   -1    0    0    0    0 -0.00000000000E+00 -0.00000000000E+00 -0.45593999997E+02  0.45594000000E+02  0.51100000000E-03 0.  1.
    9900012    2    1    2    0    0 -0.25705707456E+02  0.13472058639E+02  0.28476054889E+02  0.50528862505E+02  0.30000008071E+02 0.  0.
        -12    1    1    2    0    0  0.25705707456E+02 -0.13472058639E+02 -0.28476054889E+02  0.40659137495E+02  0.00000000000E+00 0.  1.
         11    1    3    3    0    0 -0.16864640501E+02  0.23349968806E+01  0.21438355999E+02  0.27376475629E+02  0.51100000000E-03 0. -1.
        -11    1    3    3    0    0 -0.12474671000E+02  0.25846106442E+01  0.35251846725E+01  0.13218341650E+02  0.51100000000E-03 0.  1.
         12    1    3    3    0    0  0.36336040462E+01  0.85524511137E+01  0.35125142181E+01  0.99340452259E+01  0.00000000000E+00 0. -1.
</event>
<event>
 7    1  0.2584640E-011  0.5052884E+02  0.7816164E-02  0.1300439E+00
        -11   -1    0    0    0    0  0.00000000000E+00  0.00000000000E+00  0.45593999997E+02  0.45594000000E+02  0.51100000000E-03 0. -1.
         11   -1    0    0    0    0 -0.00000000000E+00 -0.00000000000E+00 -0.45593999997E+02  0.45594000000E+02  0.51100000000E-03 0.  1.
    9900012    2    1    2    0    0 -0.14501148981E+02  0.33896621555E+02 -0.17143595182E+02  0.50528841986E+02  0.29999945701E+02 0.  0.
        -12    1    1    2    0    0  0.14501148981E+02 -0.33896621555E+02  0.17143595182E+02  0.40659158014E+02  0.00000000000E+00 0.  1.
         11    1    3    3    0    0  0.51874701916E+01  0.13292009536E+02 -0.15404263964E+01  0.14351316255E+02  0.51100000000E-03 0. -1.
        -11    1    3    3    0    0  0.18540933912E+01  0.10148592040E+01  0.13268238119E+01  0.24956087827E+01  0.51100000000E-03 0.  1.
         12    1    3    3    0    0 -0.21542712564E+02  0.19589752815E+02 -0.16929992598E+02  0.33681916949E+02  0.00000000000E+00 0. -1.
</event>
<event>
 7    1  0.2584640E-011  0.5052887E+02  0.7816164E-02  0.1300439E+00
        -11   -1    0    0    0    0  0.00000000000E+00  0.00000000000E+00  0.45593999997E+02  0.45594000000E+02  0.51100000000E-03 0.  1.
         11   -1    0    0    0    0 -0.00000000000E+00 -0.00000000000E+00 -0.45593999997E+02  0.45594000000E+02  0.51100000000E-03 0. -1.
    9900012    2    1    2    0    0  0.22924317245E+02 -0.25860743566E+02 -0.21421079041E+02  0.50528868108E+02  0.30000025102E+02 0.  0.
        -12    1    1    2    0    0 -0.22924317245E+02  0.25860743566E+02  0.21421079041E+02  0.40659131892E+02  0.00000000000E+00 0.  1.
         11    1    3    3    0    0  0.55013202414E+01  0.34171302431E+01  0.16345911000E+01  0.66793107296E+01  0.51100000000E-03 0.  1.
        -11    1    3    3    0    0  0.35153582844E+01 -0.36399718587E+01 -0.11339161954E+02  0.12417074256E+02  0.51100000000E-03 0. -1.
         12    1    3    3    0    0  0.13907638719E+02 -0.25637901950E+02 -0.11716508187E+02  0.31432483122E+02  0.00000000000E+00 0. -1.
</event>
<event>
 7    1  0.2584640E-011  0.5052886E+02  0.7816164E-02  0.1300439E+00
        -11   -1    0    0    0    0  0.00000000000E+00  0.00000000000E+00  0.45593999997E+02  0.45594000000E+02  0.51100000000E-03 0. -1.
         11   -1    0    0    0    0 -0.00000000000E+00 -0.00000000000E+00 -0.45593999997E+02  0.45594000000E+02  0.51100000000E-03 0.  1.
    9900012    2    1    2    0    0 -0.35477724442E+02  0.19597805668E+02  0.32284285344E+01  0.50528859952E+02  0.30000000311E+02 0.  0.
        -12    1    1    2    0    0  0.35477724442E+02 -0.19597805668E+02 -0.32284285344E+01  0.40659140048E+02  0.00000000000E+00 0.  1.
         11    1    3    3    0    0 -0.12654781429E+02  0.12185663286E+02 -0.38519395098E+01  0.17985308476E+02  0.51100000000E-03 0. -1.
        -11    1    3    3    0    0 -0.20271404491E+02  0.38621054719E+01 -0.36503746812E+01  0.20956405567E+02  0.51100000000E-03 0.  1.
        -12    1    3    3    0    0 -0.25515385232E+01  0.35500369098E+01  0.10730742725E+02  0.11587145910E+02  0.00000000000E+00 0.  1.
</event>
<event>
 7    1  0.2584640E-011  0.5052886E+02  0.7816164E-02  0.1300439E+00
        -11   -1    0    0    0    0  0.00000000000E+00  0.00000000000E+00  0.45593999997E+02  0.45594000000E+02  0.51100000000E-03 0. -1.
         11   -1    0    0    0    0 -0.00000000000E+00 -0.00000000000E+00 -0.45593999997E+02  0.45594000000E+02  0.51100000000E-03 0.  1.
    9900012    2    1    2    0    0  0.31302684346E+02  0.25613909547E+02 -0.41514922003E+01  0.50528864531E+02  0.30000014229E+02 0.  0.
        -12    1    1    2    0    0 -0.31302684346E+02 -0.25613909547E+02  0.41514922003E+01  0.40659135469E+02  0.00000000000E+00 0.  1.
         11    1    3    3    0    0  0.15741539315E+02  0.14871915328E+02  0.31590316553E+01  0.21884912767E+02  0.51100000000E-03 0. -1.
        -11    1    3    3    0    0 -0.46898019058E+01  0.41176031823E+01 -0.43857332868E+00  0.62562964051E+01  0.51100000000E-03 0.  1.
         12    1    3    3    0    0  0.20250946937E+02  0.66243910364E+01 -0.68719505269E+01  0.22387655359E+02  0.00000000000E+00 0. -1.
</event>
<event>
 7    1  0.2584640E-011  0.5052886E+02  0.7816164E-02  0.1300439E+00
        -11   -1    0    0    0    0  0.00000000000E+00  0.00000000000E+00  0.45593999997E+02  0.45594000000E+02  0.51100000000E-03 0.  1.
         11   -1    0    0    0    0 -0.00000000000E+00 -0.00000000000E+00 -0.45593999997E+02  0.45594000000E+02  0.51100000000E-03 0. -1.
    9900012    2    1    2    0    0  0.22993623595E+01  0.23514116642E+02 -0.33090250654E+02  0.50528862810E+02  0.30000008997E+02 0.  0.
        -12    1    1    2    0    0 -0.22993623595E+01 -0.23514116642E+02  0.33090250654E+02  0.40659137190E+02  0.00000000000E+00 0.  1.
         11    1    3    3    0    0  0.11473356401E+00  0.14295214902E+02 -0.24129565732E+02  0.28046430710E+02  0.51100000000E-03 0. -1.
        -11    1    3    3    0    0  0.86006172706E+00  0.93626679632E+01 -0.14225411638E+02  0.17051732877E+02  0.51100000000E-03 0.  1.
        -12    1    3    3    0    0  0.13245670684E+01 -0.14376622333E+00  0.52647267168E+01  0.54306992228E+01  0.00000000000E+00 0.  1.
</event>
<event>
 7    1  0.2584640E-011  0.5052891E+02  0.7816164E-02  0.1300439E+00
        -11   -1    0    0    0    0  0.00000000000E+00  0.00000000000E+00  0.45593999997E+02  0.45594000000E+02  0.51100000000E-03 0. -1.
         11   -1    0    0    0    0 -0.00000000000E+00 -0.00000000000E+00 -0.45593999997E+02  0.45594000000E+02  0.51100000000E-03 0.  1.
    9900012    2    1    2    0    0  0.17658148498E+02 -0.79078120133E+01  0.35760566451E+02  0.50528907387E+02  0.30000144493E+02 0.  0.
        -12    1    1    2    0    0 -0.17658148498E+02  0.79078120133E+01 -0.35760566451E+02  0.40659092613E+02  0.00000000000E+00 0.  1.
         11    1    3    3    0    0  0.62711551170E+00 -0.10830327677E+02  0.40382648046E+01  0.11575701031E+02  0.51100000000E-03 0.  1.
        -11    1    3    3    0    0  0.29389057973E+01 -0.33753772307E+01  0.10215749018E+01  0.45906376765E+01  0.51100000000E-03 0. -1.
         12    1    3    3    0    0  0.14092127189E+02  0.62978928949E+01  0.30700726745E+02  0.34362568680E+02  0.00000000000E+00 0. -1.
</event>
<event>
 7    1  0.2584640E-011  0.5052886E+02  0.7816164E-02  0.1300439E+00
        -11   -1    0    0    0    0  0.00000000000E+00  0.00000000000E+00  0.45593999997E+02  0.45594000000E+02  0.51100000000E-03 0.  1.
         11   -1    0    0    0    0 -0.00000000000E+00 -0.00000000000E+00 -0.45593999997E+02  0.45594000000E+02  0.51100000000E-03 0. -1.
    9900012    2    1    2    0    0  0.20712920522E+02  0.28232228614E+02 -0.20665967171E+02  0.50528855786E+02  0.29999987648E+02 0.  0.
        -12    1    1    2    0    0 -0.20712920522E+02 -0.28232228614E+02  0.20665967171E+02  0.40659144214E+02  0.00000000000E+00 0.  1.
         11    1    3    3    0    0  0.52891534698E+01  0.12641905628E+02  0.28487500068E+01  0.13996724588E+02  0.51100000000E-03 0.  1.
        -11    1    3    3    0    0 -0.37815724023E+01  0.20266637560E+01 -0.23215160976E+01  0.48782264263E+01  0.51100000000E-03 0. -1.
         12    1    3    3    0    0  0.19205339455E+02  0.13563659230E+02 -0.21193201081E+02  0.31653904772E+02  0.00000000000E+00 0. -1.
</event>
<event>
 7    1  0.2584640E-011  0.5052885E+02  0.7816164E-02  0.1300439E+00
        -11   -1    0    0    0    0  0.00000000000E+00  0.00000000000E+00  0.45593999997E+02  0.45594000000E+02  0.51100000000E-03 0.  1.
         11   -1    0    0    0    0 -0.00000000000E+00 -0.00000000000E+00 -0.45593999997E+02  0.45594000000E+02  0.51100000000E-03 0. -1.
    9900012    2    1    2    0    0 -0.15504674731E+02  0.60117454001E+00 -0.37582042647E+02  0.50528852458E+02  0.29999977531E+02 0.  0.
        -12    1    1    2    0    0  0.15504674731E+02 -0.60117454001E+00  0.37582042647E+02  0.40659147542E+02  0.00000000000E+00 0.  1.
         11    1    3    3    0    0 -0.74181945311E+01  0.13843375363E+01 -0.37067537263E+01  0.84074980799E+01  0.51100000000E-03 0. -1.
        -11    1    3    3    0    0 -0.69434560474E+01  0.54888977779E+01 -0.13213970184E+01  0.89490597852E+01  0.51100000000E-03 0.  1.
         12    1    3    3    0    0 -0.11430241528E+01 -0.62720607741E+01 -0.32553891902E+02  0.33172294593E+02  0.00000000000E+00 0. -1.
</event>
<event>
 7    1  0.2584640E-011  0.5052886E+02  0.7816164E-02  0.1300439E+00
        -11   -1    0    0    0    0  0.00000000000E+00  0.00000000000E+00  0.45593999997E+02  0.45594000000E+02  0.51100000000E-03 0.  1.
         11   -1    0    0    0    0 -0.00000000000E+00 -0.00000000000E+00 -0.45593999997E+02  0.45594000000E+02  0.51100000000E-03 0. -1.
    9900012    2    1    2    0    0 -0.28308573231E+02 -0.31413706990E+01 -0.29015895982E+02  0.50528858987E+02  0.29999997377E+02 0.  0.
        -12    1    1    2    0    0  0.28308573231E+02  0.31413706990E+01  0.29015895982E+02  0.40659141013E+02  0.00000000000E+00 0.  1.
         11    1    3    3    0    0 -0.57836646949E+01  0.41736592925E+01 -0.15591710373E+02  0.17145601237E+02  0.51100000000E-03 0. -1.
        -11    1    3    3    0    0 -0.12596383383E+01  0.42867276779E+01  0.17504341179E+01  0.47986188420E+01  0.51100000000E-03 0.  1.
         12    1    3    3    0    0 -0.21265270198E+02 -0.11601757669E+02 -0.15174619728E+02  0.28584638908E+02  0.00000000000E+00 0. -1.
</event>
<event>
 7    1  0.2584640E-011  0.5052886E+02  0.7816164E-02  0.1300439E+00
        -11   -1    0    0    0    0  0.00000000000E+00  0.00000000000E+00  0.45593999997E+02  0.45594000000E+02  0.51100000000E-03 0. -1.
         11   -1    0    0    0    0 -0.00000000000E+00 -0.00000000000E+00 -0.45593999997E+02  0.45594000000E+02  0.51100000000E-03 0.  1.
    9900012    2    1    2    0    0 -0.29199538063E+02 -0.25770235410E+02 -0.11681077927E+02  0.50528860342E+02  0.30000001497E+02 0.  0.
        -12    1    1    2    0    0  0.29199538063E+02  0.25770235410E+02  0.11681077927E+02  0.40659139658E+02  0.00000000000E+00 0.  1.
         11    1    3    3    0    0 -0.98640196521E+01 -0.10195611232E+02 -0.66822835431E+01  0.15681271814E+02  0.51100000000E-03 0. -1.
        -11    1    3    3    0    0 -0.13021353907E+02 -0.19804662728E+00 -0.11129358769E+02  0.17130601476E+02  0.51100000000E-03 0.  1.
         12    1    3    3    0    0 -0.63141645034E+01 -0.15376577550E+02  0.61305643855E+01  0.17716987053E+02  0.00000000000E+00 0. -1.
</event>
<event>
 7    1  0.2584640E-011  0.5052886E+02  0.7816164E-02  0.1300439E+00
        -11   -1    0    0    0    0  0.00000000000E+00  0.00000000000E+00  0.45593999997E+02  0.45594000000E+02  0.51100000000E-03 0. -1.
         11   -1    0    0    0    0 -0.00000000000E+00 -0.00000000000E+00 -0.45593999997E+02  0.45594000000E+02  0.51100000000E-03 0.  1.
    9900012    2    1    2    0    0 -0.25412528119E+02  0.29312699168E+02 -0.12171050557E+02  0.50528863393E+02  0.30000010770E+02 0.  0.
        -12    1    1    2    0    0  0.25412528119E+02 -0.29312699168E+02  0.12171050557E+02  0.40659136607E+02  0.00000000000E+00 0.  1.
         11    1    3    3    0    0 -0.19647531582E+02  0.96421230946E+01  0.22053610538E+01  0.21996810057E+02  0.51100000000E-03 0. -1.
        -11    1    3    3    0    0 -0.88342328975E+01  0.63708192821E+01 -0.76903384660E+01  0.13333128485E+02  0.51100000000E-03 0.  1.
        -12    1    3    3    0    0  0.30692363603E+01  0.13299756792E+02 -0.66860731450E+01  0.15198924852E+02  0.00000000000E+00 0.  1.
</event>
<event>
 7    1  0.2584640E-011  0.5052885E+02  0.7816164E-02  0.1300439E+00
        -11   -1    0    0    0    0  0.00000000000E+00  0.00000000000E+00  0.45593999997E+02  0.45594000000E+02  0.51100000000E-03 0. -1.
         11   -1    0    0    0    0 -0.00000000000E+00 -0.00000000000E+00 -0.45593999997E+02  0.45594000000E+02  0.51100000000E-03 0.  1.
    9900012    2    1    2    0    0 -0.39380104750E+02 -0.10117534344E+02  0.96923847741E-01  0.50528849178E+02  0.29999967561E+02 0.  0.
        -12    1    1    2    0    0  0.39380104750E+02  0.10117534344E+02 -0.96923847741E-01  0.40659150822E+02  0.00000000000E+00 0.  1.
         11    1    3    3    0    0 -0.17046343742E+02 -0.10770026750E+01 -0.67333486418E+01  0.18359622925E+02  0.51100000000E-03 0. -1.
        -11    1    3    3    0    0 -0.11629579778E+02 -0.56331274018E+01 -0.67225582937E+01  0.14566126473E+02  0.51100000000E-03 0.  1.
        -12    1    3    3    0    0 -0.10704181230E+02 -0.34074042673E+01  0.13552830783E+02  0.17603099780E+02  0.00000000000E+00 0.  1.
</event>
<event>
 7    1  0.2584640E-011  0.5052883E+02  0.7816164E-02  0.1300439E+00
        -11   -1    0    0    0    0  0.00000000000E+00  0.00000000000E+00  0.45593999997E+02  0.45594000000E+02  0.51100000000E-03 0. -1.
         11   -1    0    0    0    0 -0.00000000000E+00 -0.00000000000E+00 -0.45593999997E+02  0.45594000000E+02  0.51100000000E-03 0.  1.
    9900012    2    1    2    0    0 -0.11687794192E+02  0.19297004403E+02  0.33825867168E+02  0.50528828813E+02  0.29999905659E+02 0.  0.
        -12    1    1    2    0    0  0.11687794192E+02 -0.19297004403E+02 -0.33825867168E+02  0.40659171187E+02  0.00000000000E+00 0.  1.
         11    1    3    3    0    0 -0.29944580777E+01  0.16907546159E+02  0.13701006137E+02  0.21967008575E+02  0.51100000000E-03 0. -1.
        -11    1    3    3    0    0  0.27808818088E+01  0.26557614038E+00  0.15912222654E+02  0.16155576881E+02  0.51100000000E-03 0.  1.
        -12    1    3    3    0    0 -0.11474217923E+02  0.21238821030E+01  0.42126383773E+01  0.12406243357E+02  0.00000000000E+00 0.  1.
</event>
<event>
 7    1  0.2584640E-011  0.5052888E+02  0.7816164E-02  0.1300439E+00
        -11   -1    0    0    0    0  0.00000000000E+00  0.00000000000E+00  0.45593999997E+02  0.45594000000E+02  0.51100000000E-03 0.  1.
         11   -1    0    0    0    0 -0.00000000000E+00 -0.00000000000E+00 -0.45593999997E+02  0.45594000000E+02  0.51100000000E-03 0. -1.
    9900012    2    1    2    0    0  0.23409158079E+02 -0.17689876104E+02 -0.28146826889E+02  0.50528877254E+02  0.30000052901E+02 0.  0.
        -12    1    1    2    0    0 -0.23409158079E+02  0.17689876104E+02  0.28146826889E+02  0.40659122746E+02  0.00000000000E+00 0.  1.
         11    1    3    3    0    0  0.68538205000E+01 -0.54405806413E+01 -0.17136037219E+02  0.19241064030E+02  0.51100000000E-03 0. -1.
        -11    1    3    3    0    0  0.19202510202E+02 -0.88052611541E+01 -0.14578100662E+02  0.25666905564E+02  0.51100000000E-03 0.  1.
        -12    1    3    3    0    0 -0.26471726235E+01 -0.34440343090E+01  0.35673109914E+01  0.56209076606E+01  0.00000000000E+00 0.  1.
</event>
<event>
 7    1  0.2584640E-011  0.5052886E+02  0.7816164E-02  0.1300439E+00
        -11   -1    0    0    0    0  0.00000000000E+00  0.00000000000E+00  0.45593999997E+02  0.45594000000E+02  0.51100000000E-03 0.  1.
         11   -1    0    0    0    0 -0.00000000000E+00 -0.00000000000E+00 -0.45593999997E+02  0.45594000000E+02  0.51100000000E-03 0. -1.
    9900012    2    1    2    0    0  0.39085323991E+02  0.83038552247E+01 -0.75199090524E+01  0.50528860865E+02  0.30000003084E+02 0.  0.
        -12    1    1    2    0    0 -0.39085323991E+02 -0.83038552247E+01  0.75199090524E+01  0.40659139135E+02  0.00000000000E+00 0.  1.
         11    1    3    3    0    0  0.24506960488E+02 -0.15424370750E+01  0.45881677036E+01  0.24980422487E+02  0.51100000000E-03 0. -1.
        -11    1    3    3    0    0  0.19082792127E+01  0.27296481884E+01  0.30740651808E+01  0.45323708788E+01  0.51100000000E-03 0.  1.
        -12    1    3    3    0    0  0.12670084291E+02  0.71166441112E+01 -0.15182141937E+02  0.21016067499E+02  0.00000000000E+00 0.  1.
</event>
<event>
 7    1  0.2584640E-011  0.5052886E+02  0.7816164E-02  0.1300439E+00
        -11   -1    0    0    0    0  0.00000000000E+00  0.00000000000E+00  0.45593999997E+02  0.45594000000E+02  0.51100000000E-03 0. -1.
         11   -1    0    0    0    0 -0.00000000000E+00 -0.00000000000E+00 -0.45593999997E+02  0.45594000000E+02  0.51100000000E-03 0.  1.
    9900012    2    1    2    0    0  0.30721010855E+02  0.14216859957E+02  0.22522569026E+02  0.50528859201E+02  0.29999998027E+02 0.  0.
        -12    1    1    2    0    0 -0.30721010855E+02 -0.14216859957E+02 -0.22522569026E+02  0.40659140799E+02  0.00000000000E+00 0.  1.
         11    1    3    3    0    0 -0.21362956451E+01  0.62061477062E+00 -0.17533612353E+01  0.28325249619E+01  0.51100000000E-03 0. -1.
        -11    1    3    3    0    0  0.27704275773E+02  0.13921361444E+02  0.10099270916E+02  0.32608687092E+02  0.51100000000E-03 0.  1.
         12    1    3    3    0    0  0.51530307273E+01 -0.32511625703E+00  0.14176659345E+02  0.15087647147E+02  0.00000000000E+00 0. -1.
</event>
<event>
 7    1  0.3233650E-011  0.5052877E+02  0.7816164E-02  0.1300439E+00
        -11   -1    0    0    0    0  0.00000000000E+00  0.00000000000E+00  0.45593999997E+02  0.45594000000E+02  0.51100000000E-03 0. -1.
         11   -1    0    0    0    0 -0.00000000000E+00 -0.00000000000E+00 -0.45593999997E+02  0.45594000000E+02  0.51100000000E-03 0.  1.
    9900012    2    1    2    0    0 -0.31112430187E+02 -0.26025550531E+02  0.28036630187E+01  0.50528768343E+02  0.29999721854E+02 0.  0.
        -12    1    1    2    0    0  0.31112430187E+02  0.26025550531E+02 -0.28036630187E+01  0.40659231657E+02  0.00000000000E+00 0.  1.
         11    1    3    3    0    0 -0.28968128586E+02 -0.18190660106E+02  0.39465602777E+00  0.34208308092E+02  0.51100000000E-03 0. -1.
        -11    1    3    3    0    0 -0.19061537195E+01  0.39077561070E+01  0.12174914299E+01  0.45151152186E+01  0.51100000000E-03 0.  1.
        -12    1    3    3    0    0 -0.23814788128E+00 -0.11742646532E+02  0.11915155611E+01  0.11805345032E+02  0.00000000000E+00 0.  1.
</event>
<event>
 7    1  0.2584640E-011  0.5052889E+02  0.7816164E-02  0.1300439E+00
        -11   -1    0    0    0    0  0.00000000000E+00  0.00000000000E+00  0.45593999997E+02  0.45594000000E+02  0.51100000000E-03 0.  1.
         11   -1    0    0    0    0 -0.00000000000E+00 -0.00000000000E+00 -0.45593999997E+02  0.45594000000E+02  0.51100000000E-03 0. -1.
    9900012    2    1    2    0    0  0.36122369690E+02  0.14932004639E+02 -0.11196986461E+02  0.50528894496E+02  0.30000105310E+02 0.  0.
        -12    1    1    2    0    0 -0.36122369690E+02 -0.14932004639E+02  0.11196986461E+02  0.40659105504E+02  0.00000000000E+00 0.  1.
         11    1    3    3    0    0  0.38169156441E+01  0.11851547840E+02 -0.28871528271E+01  0.12781380322E+02  0.51100000000E-03 0. -1.
        -11    1    3    3    0    0  0.13784060319E+01 -0.26470197985E+01  0.30867214967E+01  0.42935494479E+01  0.51100000000E-03 0.  1.
        -12    1    3    3    0    0  0.30927048014E+02  0.57274765983E+01 -0.11396555131E+02  0.33453964726E+02  0.00000000000E+00 0.  1.
</event>
<event>
 7    1  0.2584640E-011  0.5052885E+02  0.7816164E-02  0.1300439E+00
        -11   -1    0    0    0    0  0.00000000000E+00  0.00000000000E+00  0.45593999997E+02  0.45594000000E+02  0.51100000000E-03 0.  1.
         11   -1    0    0    0    0 -0.00000000000E+00 -0.00000000000E+00 -0.45593999997E+02  0.45594000000E+02  0.51100000000E-03 0. -1.
    9900012    2    1    2    0    0 -0.79597777357E+01 -0.35994314206E+02  0.17152776388E+02  0.50528850297E+02  0.29999970962E+02 0.  0.
        -12    1    1    2    0    0  0.79597777357E+01  0.35994314206E+02 -0.17152776388E+02  0.40659149703E+02  0.00000000000E+00 0.  1.
         11    1    3    3    0    0 -0.42132516149E+01 -0.35702672640E+02  0.10111527299E+02  0.37345351885E+02  0.51100000000E-03 0. -1.
        -11    1    3    3    0    0 -0.28380280941E+01 -0.43932617204E+01  0.72934083363E+01  0.89749070986E+01  0.51100000000E-03 0.  1.
        -12    1    3    3    0    0 -0.90849802672E+00  0.41016201544E+01 -0.25215924808E+00  0.42085913133E+01  0.00000000000E+00 0.  1.
</event>
<event>
 7    1  0.2584640E-011  0.5052886E+02  0.7816164E-02  0.1300439E+00
        -11   -1    0    0    0    0  0.00000000000E+00  0.00000000000E+00  0.45593999997E+02  0.45594000000E+02  0.51100000000E-03 0. -1.
         11   -1    0    0    0    0 -0.00000000000E+00 -0.00000000000E+00 -0.45593999997E+02  0.45594000000E+02  0.51100000000E-03 0.  1.
    9900012    2    1    2    0    0 -0.22569778735E+02 -0.22645035375E+02  0.25119183169E+02  0.50528857088E+02  0.29999991604E+02 0.  0.
        -12    1    1    2    0    0  0.22569778735E+02  0.22645035375E+02 -0.25119183169E+02  0.40659142912E+02  0.00000000000E+00 0.  1.
         11    1    3    3    0    0 -0.17668240833E+02 -0.11257235368E+02  0.69878424739E+01  0.22084429468E+02  0.51100000000E-03 0. -1.
        -11    1    3    3    0    0 -0.10399530945E+02 -0.11669823127E+02  0.97695989184E+01  0.18433124504E+02  0.51100000000E-03 0.  1.
         12    1    3    3    0    0  0.54979930424E+01  0.28202311923E+00  0.83617417766E+01  0.10011303116E+02  0.00000000000E+00 0. -1.
</event>
<event>
 7    1  0.2584640E-011  0.5052886E+02  0.7816164E-02  0.1300439E+00
        -11   -1    0    0    0    0  0.00000000000E+00  0.00000000000E+00  0.45593999997E+02  0.45594000000E+02  0.51100000000E-03 0.  1.
         11   -1    0    0    0    0 -0.00000000000E+00 -0.00000000000E+00 -0.45593999997E+02  0.45594000000E+02  0.51100000000E-03 0. -1.
    9900012    2    1    2    0    0  0.26818255472E+02 -0.19452530553E+02 -0.23570020332E+02  0.50528860438E+02  0.30000001788E+02 0.  0.
        -12    1    1    2    0    0 -0.26818255472E+02  0.19452530553E+02  0.23570020332E+02  0.40659139562E+02  0.00000000000E+00 0.  1.
         11    1    3    3    0    0  0.60060122943E+01 -0.13628229175E+01 -0.72591645916E+01  0.95197132737E+01  0.51100000000E-03 0. -1.
        -11    1    3    3    0    0 -0.36502652463E+01  0.33973089731E+01 -0.31010824629E+01  0.58722105999E+01  0.51100000000E-03 0.  1.
        -12    1    3    3    0    0  0.24462508424E+02 -0.21487016608E+02 -0.13209773277E+02  0.35136936565E+02  0.00000000000E+00 0.  1.
</event>
<event>
 7    1  0.2584640E-011  0.5052885E+02  0.7816164E-02  0.1300439E+00
        -11   -1    0    0    0    0  0.00000000000E+00  0.00000000000E+00  0.45593999997E+02  0.45594000000E+02  0.51100000000E-03 0.  1.
         11   -1    0    0    0    0 -0.00000000000E+00 -0.00000000000E+00 -0.45593999997E+02  0.45594000000E+02  0.51100000000E-03 0. -1.
    9900012    2    1    2    0    0 -0.79115750652E+01  0.34887209790E+02 -0.19325011282E+02  0.50528849886E+02  0.29999969714E+02 0.  0.
        -12    1    1    2    0    0  0.79115750652E+01 -0.34887209790E+02  0.19325011282E+02  0.40659150114E+02  0.00000000000E+00 0.  1.
         11    1    3    3    0    0 -0.19904010685E+01  0.10544027797E+02 -0.14772980879E+02  0.18258674183E+02  0.51100000000E-03 0. -1.
        -11    1    3    3    0    0 -0.16462542164E+01  0.11892273800E+02 -0.12141396028E+02  0.17074830214E+02  0.51100000000E-03 0.  1.
        -12    1    3    3    0    0 -0.42749197803E+01  0.12450908192E+02  0.75893656246E+01  0.15195345489E+02  0.00000000000E+00 0.  1.
</event>
<event>
 7    1  0.2592734E-011  0.5052886E+02  0.7816164E-02  0.1300439E+00
        -11   -1    0    0    0    0  0.00000000000E+00  0.00000000000E+00  0.45593999997E+02  0.45594000000E+02  0.51100000000E-03 0. -1.
         11   -1    0    0    0    0 -0.00000000000E+00 -0.00000000000E+00 -0.45593999997E+02  0.45594000000E+02  0.51100000000E-03 0.  1.
    9900012    2    1    2    0    0  0.18259036905E+02 -0.32824316027E+02  0.15567201876E+02  0.50528856802E+02  0.29999990737E+02 0.  0.
        -12    1    1    2    0    0 -0.18259036905E+02  0.32824316027E+02 -0.15567201876E+02  0.40659143198E+02  0.00000000000E+00 0.  1.
         11    1    3    3    0    0  0.12005624340E+02 -0.26529670957E+02  0.58989203306E+01  0.29711205263E+02  0.51100000000E-03 0. -1.
        -11    1    3    3    0    0  0.10011578900E+01 -0.10717851111E+02  0.87852900478E+01  0.13894458285E+02  0.51100000000E-03 0.  1.
        -12    1    3    3    0    0  0.52522546749E+01  0.44232060407E+01  0.88299149730E+00  0.69231932541E+01  0.00000000000E+00 0.  1.
</event>
<event>
 7    1  0.2584640E-011  0.5052887E+02  0.7816164E-02  0.1300439E+00
        -11   -1    0    0    0    0  0.00000000000E+00  0.00000000000E+00  0.45593999997E+02  0.45594000000E+02  0.51100000000E-03 0.  1.
         11   -1    0    0    0    0 -0.00000000000E+00 -0.00000000000E+00 -0.45593999997E+02  0.45594000000E+02  0.51100000000E-03 0. -1.
    9900012    2    1    2    0    0 -0.75537164997E+01  0.24952672575E+02 -0.31200491593E+02  0.50528866005E+02  0.30000018709E+02 0.  0.
        -12    1    1    2    0    0  0.75537164997E+01 -0.24952672575E+02  0.31200491593E+02  0.40659133995E+02  0.00000000000E+00 0.  1.
         11    1    3    3    0    0 -0.45812160154E+01  0.69458488106E+01 -0.42023060942E+01  0.93215735072E+01  0.51100000000E-03 0. -1.
        -11    1    3    3    0    0  0.29765360263E+01  0.22716009423E+02 -0.23607933401E+02  0.32896981176E+02  0.51100000000E-03 0.  1.
         12    1    3    3    0    0 -0.59490365106E+01 -0.47091856586E+01 -0.33902520978E+01  0.83103113214E+01  0.00000000000E+00 0. -1.
</event>
<event>
 7    1  0.2584640E-011  0.5052888E+02  0.7816164E-02  0.1300439E+00
        -11   -1    0    0    0    0  0.00000000000E+00  0.00000000000E+00  0.45593999997E+02  0.45594000000E+02  0.51100000000E-03 0.  1.
         11   -1    0    0    0    0 -0.00000000000E+00 -0.00000000000E+00 -0.45593999997E+02  0.45594000000E+02  0.51100000000E-03 0. -1.
    9900012    2    1    2    0    0 -0.37133962612E+02 -0.14081482838E+02 -0.87146086229E+01  0.50528883659E+02  0.30000072369E+02 0.  0.
        -12    1    1    2    0    0  0.37133962612E+02  0.14081482838E+02  0.87146086229E+01  0.40659116341E+02  0.00000000000E+00 0.  1.
         11    1    3    3    0    0 -0.12162232455E+02  0.26923478561E+00  0.65474558405E+01  0.13815265611E+02  0.51100000000E-03 0. -1.
        -11    1    3    3    0    0 -0.16649346629E+02 -0.10321198973E+02 -0.87139916422E+00  0.19608345880E+02  0.51100000000E-03 0.  1.
         12    1    3    3    0    0 -0.83223835284E+01 -0.40295186509E+01 -0.14390665299E+02  0.17105272167E+02  0.00000000000E+00 0. -1.
</event>
<event>
 7    1  0.2584640E-011  0.5052885E+02  0.7816164E-02  0.1300439E+00
        -11   -1    0    0    0    0  0.00000000000E+00  0.00000000000E+00  0.45593999997E+02  0.45594000000E+02  0.51100000000E-03 0.  1.
         11   -1    0    0    0    0 -0.00000000000E+00 -0.00000000000E+00 -0.45593999997E+02  0.45594000000E+02  0.51100000000E-03 0. -1.
    9900012    2    1    2    0    0 -0.20263154683E+02 -0.47816979052E+01 -0.34924291573E+02  0.50528853250E+02  0.29999979939E+02 0.  0.
        -12    1    1    2    0    0  0.20263154683E+02  0.47816979052E+01  0.34924291573E+02  0.40659146750E+02  0.00000000000E+00 0.  1.
         11    1    3    3    0    0 -0.36665496435E+01  0.62254908781E+00 -0.28108935050E+02  0.28353895386E+02  0.51100000000E-03 0. -1.
        -11    1    3    3    0    0 -0.62806340382E+01 -0.59004688950E+01 -0.80261982447E+01  0.11776321821E+02  0.51100000000E-03 0.  1.
        -12    1    3    3    0    0 -0.10315971002E+02  0.49622190197E+00  0.12108417219E+01  0.10398636043E+02  0.00000000000E+00 0.  1.
</event>
<event>
 7    1  0.2584640E-011  0.5052885E+02  0.7816164E-02  0.1300439E+00
        -11   -1    0    0    0    0  0.00000000000E+00  0.00000000000E+00  0.45593999997E+02  0.45594000000E+02  0.51100000000E-03 0. -1.
         11   -1    0    0    0    0 -0.00000000000E+00 -0.00000000000E+00 -0.45593999997E+02  0.45594000000E+02  0.51100000000E-03 0.  1.
    9900012    2    1    2    0    0 -0.26756378927E+02  0.11217589504E+02  0.28485577894E+02  0.50528852499E+02  0.29999977656E+02 0.  0.
        -12    1    1    2    0    0  0.26756378927E+02 -0.11217589504E+02 -0.28485577894E+02  0.40659147501E+02  0.00000000000E+00 0.  1.
         11    1    3    3    0    0  0.59404771218E+00 -0.23774957632E+01  0.90971740998E+01  0.94214625007E+01  0.51100000000E-03 0. -1.
        -11    1    3    3    0    0 -0.16044404541E+01  0.32230149218E+01 -0.35819416018E+01  0.50786179475E+01  0.51100000000E-03 0.  1.
         12    1    3    3    0    0 -0.25745986185E+02  0.10372070345E+02  0.22970345396E+02  0.36028772051E+02  0.00000000000E+00 0. -1.
</event>
<event>
 7    1  0.2584640E-011  0.5052887E+02  0.7816164E-02  0.1300439E+00
        -11   -1    0    0    0    0  0.00000000000E+00  0.00000000000E+00  0.45593999997E+02  0.45594000000E+02  0.51100000000E-03 0.  1.
         11   -1    0    0    0    0 -0.00000000000E+00 -0.00000000000E+00 -0.45593999997E+02  0.45594000000E+02  0.51100000000E-03 0. -1.
    9900012    2    1    2    0    0  0.36155928538E+02  0.18171391982E+02 -0.39641267481E+01  0.50528868727E+02  0.30000026982E+02 0.  0.
        -12    1    1    2    0    0 -0.36155928538E+02 -0.18171391982E+02  0.39641267481E+01  0.40659131273E+02  0.00000000000E+00 0.  1.
         11    1    3    3    0    0  0.11689770502E+02  0.26551914633E+01 -0.41247684223E+01  0.12677321913E+02  0.51100000000E-03 0. -1.
        -11    1    3    3    0    0  0.24620780495E+02  0.90410259606E+01  0.82439520795E+01  0.27493376088E+02  0.51100000000E-03 0.  1.
        -12    1    3    3    0    0 -0.15462245842E+00  0.64751745578E+01 -0.80833104053E+01  0.10358170725E+02  0.00000000000E+00 0.  1.
</event>
<event>
 7    1  0.2584640E-011  0.5052886E+02  0.7816164E-02  0.1300439E+00
        -11   -1    0    0    0    0  0.00000000000E+00  0.00000000000E+00  0.45593999997E+02  0.45594000000E+02  0.51100000000E-03 0.  1.
         11   -1    0    0    0    0 -0.00000000000E+00 -0.00000000000E+00 -0.45593999997E+02  0.45594000000E+02  0.51100000000E-03 0. -1.
    9900012    2    1    2    0    0  0.28547129212E+02 -0.43698689222E+01 -0.28620464848E+02  0.50528863895E+02  0.30000012296E+02 0.  0.
        -12    1    1    2    0    0 -0.28547129212E+02  0.43698689222E+01  0.28620464848E+02  0.40659136105E+02  0.00000000000E+00 0.  1.
         11    1    3    3    0    0  0.17803350136E+02  0.50659573243E+01 -0.14738382323E+02  0.23661004066E+02  0.51100000000E-03 0. -1.
        -11    1    3    3    0    0  0.12025429207E+02 -0.25314189559E+01 -0.11692942435E+01  0.12344483741E+02  0.51100000000E-03 0.  1.
        -12    1    3    3    0    0 -0.12816501308E+01 -0.69044072906E+01 -0.12712788282E+02  0.14523376088E+02  0.00000000000E+00 0.  1.
</event>
<event>
 7    1  0.2584640E-011  0.5052886E+02  0.7816164E-02  0.1300439E+00
        -11   -1    0    0    0    0  0.00000000000E+00  0.00000000000E+00  0.45593999997E+02  0.45594000000E+02  0.51100000000E-03 0.  1.
         11   -1    0    0    0    0 -0.00000000000E+00 -0.00000000000E+00 -0.45593999997E+02  0.45594000000E+02  0.51100000000E-03 0. -1.
    9900012    2    1    2    0    0  0.14618706205E+00  0.37561166306E+02 -0.15566091748E+02  0.50528858380E+02  0.29999995533E+02 0.  0.
        -12    1    1    2    0    0 -0.14618706205E+00 -0.37561166306E+02  0.15566091748E+02  0.40659141620E+02  0.00000000000E+00 0.  1.
         11    1    3    3    0    0  0.24898728821E+01  0.14996028478E+02 -0.19304914501E+02  0.24571529485E+02  0.51100000000E-03 0. -1.
        -11    1    3    3    0    0  0.96474317603E+00 -0.10596959332E+01  0.13734923584E+01  0.19849852358E+01  0.51100000000E-03 0.  1.
        -12    1    3    3    0    0 -0.33084289961E+01  0.23624833761E+02  0.23653303943E+01  0.23972343660E+02  0.00000000000E+00 0.  1.
</event>
<event>
 7    1  0.2584640E-011  0.5052886E+02  0.7816164E-02  0.1300439E+00
        -11   -1    0    0    0    0  0.00000000000E+00  0.00000000000E+00  0.45593999997E+02  0.45594000000E+02  0.51100000000E-03 0.  1.
         11   -1    0    0    0    0 -0.00000000000E+00 -0.00000000000E+00 -0.45593999997E+02  0.45594000000E+02  0.51100000000E-03 0. -1.
    9900012    2    1    2    0    0 -0.12108420799E+02  0.34941608747E+01 -0.38656724901E+02  0.50528863333E+02  0.30000010586E+02 0.  0.
        -12    1    1    2    0    0  0.12108420799E+02 -0.34941608747E+01  0.38656724901E+02  0.40659136667E+02  0.00000000000E+00 0.  1.
         11    1    3    3    0    0  0.69428136879E+00  0.29415775898E+01 -0.10567854338E+02  0.10991562715E+02  0.51100000000E-03 0. -1.
        -11    1    3    3    0    0 -0.15739018099E+02  0.53043767331E+01 -0.29429603782E+02  0.33792819981E+02  0.51100000000E-03 0.  1.
        -12    1    3    3    0    0  0.29363159309E+01 -0.47517934482E+01  0.13407332194E+01  0.57444806367E+01  0.00000000000E+00 0.  1.
</event>
<event>
 7    1  0.2584640E-011  0.5052886E+02  0.7816164E-02  0.1300439E+00
        -11   -1    0    0    0    0  0.00000000000E+00  0.00000000000E+00  0.45593999997E+02  0.45594000000E+02  0.51100000000E-03 0.  1.
         11   -1    0    0    0    0 -0.00000000000E+00 -0.00000000000E+00 -0.45593999997E+02  0.45594000000E+02  0.51100000000E-03 0. -1.
    9900012    2    1    2    0    0 -0.16366388903E+02 -0.29535854083E+02 -0.22648184701E+02  0.50528860407E+02  0.30000001694E+02 0.  0.
        -12    1    1    2    0    0  0.16366388903E+02  0.29535854083E+02  0.22648184701E+02  0.40659139593E+02  0.00000000000E+00 0.  1.
         11    1    3    3    0    0 -0.86174920403E+01 -0.11427225014E+02 -0.20389888930E+02  0.24911648108E+02  0.51100000000E-03 0. -1.
        -11    1    3    3    0    0 -0.16157394774E+01  0.28043592671E+01 -0.20334069463E+01  0.38222753731E+01  0.51100000000E-03 0.  1.
         12    1    3    3    0    0 -0.61331573855E+01 -0.20912988336E+02 -0.22488882490E+00  0.21794936927E+02  0.00000000000E+00 0. -1.
</event>
<event>
 7    1  0.2584640E-011  0.5052886E+02  0.7816164E-02  0.1300439E+00
        -11   -1    0    0    0    0  0.00000000000E+00  0.00000000000E+00  0.45593999997E+02  0.45594000000E+02  0.51100000000E-03 0.  1.
         11   -1    0    0    0    0 -0.00000000000E+00 -0.00000000000E+00 -0.45593999997E+02  0.45594000000E+02  0.51100000000E-03 0. -1.
    9900012    2    1    2    0    0 -0.19909847387E+02 -0.20720917873E+02 -0.28764687121E+02  0.50528859753E+02  0.29999999705E+02 0.  0.
        -12    1    1    2    0    0  0.19909847387E+02  0.20720917873E+02  0.28764687121E+02  0.40659140247E+02  0.00000000000E+00 0.  1.
         11    1    3    3    0    0 -0.61681369208E+01  0.53320779303E+01 -0.12024036675E+02  0.14527712358E+02  0.51100000000E-03 0. -1.
        -11    1    3    3    0    0 -0.12215422130E+01  0.10018231243E+01 -0.25138418773E+01  0.29690429764E+01  0.51100000000E-03 0.  1.
         12    1    3    3    0    0 -0.12520168253E+02 -0.27054818927E+02 -0.14226808569E+02  0.33032104419E+02  0.00000000000E+00 0. -1.
</event>
<event>
 7    1  0.2584640E-011  0.5052885E+02  0.7816164E-02  0.1300439E+00
        -11   -1    0    0    0    0  0.00000000000E+00  0.00000000000E+00  0.45593999997E+02  0.45594000000E+02  0.51100000000E-03 0. -1.
         11   -1    0    0    0    0 -0.00000000000E+00 -0.00000000000E+00 -0.45593999997E+02  0.45594000000E+02  0.51100000000E-03 0.  1.
    9900012    2    1    2    0    0 -0.40565234505E+02  0.24355355773E+01  0.13024607619E+01  0.50528849886E+02  0.29999969714E+02 0.  0.
        -12    1    1    2    0    0  0.40565234505E+02 -0.24355355773E+01 -0.13024607619E+01  0.40659150114E+02  0.00000000000E+00 0.  1.
         11    1    3    3    0    0 -0.27387629872E+00 -0.42604610832E+01  0.12361269968E+01  0.44446087659E+01  0.51100000000E-03 0. -1.
        -11    1    3    3    0    0 -0.78789589358E+01  0.10160007908E+02 -0.34123310675E+01  0.13302171183E+02  0.51100000000E-03 0.  1.
        -12    1    3    3    0    0 -0.32412399270E+02 -0.34640112473E+01  0.34786648326E+01  0.32782069937E+02  0.00000000000E+00 0.  1.
</event>
<event>
 7    1  0.2584640E-011  0.5052886E+02  0.7816164E-02  0.1300439E+00
        -11   -1    0    0    0    0  0.00000000000E+00  0.00000000000E+00  0.45593999997E+02  0.45594000000E+02  0.51100000000E-03 0.  1.
         11   -1    0    0    0    0 -0.00000000000E+00 -0.00000000000E+00 -0.45593999997E+02  0.45594000000E+02  0.51100000000E-03 0. -1.
    9900012    2    1    2    0    0 -0.14319855312E+02  0.34047130004E+02 -0.16997069290E+02  0.50528859796E+02  0.29999999835E+02 0.  0.
        -12    1    1    2    0    0  0.14319855312E+02 -0.34047130004E+02  0.16997069290E+02  0.40659140204E+02  0.00000000000E+00 0.  1.
         11    1    3    3    0    0 -0.18492280194E+01 -0.70275756732E-01 -0.23198832127E+01  0.29675648824E+01  0.51100000000E-03 0. -1.
        -11    1    3    3    0    0 -0.33395205796E+01  0.16412621539E+02  0.69714846040E+01  0.18141889133E+02  0.51100000000E-03 0.  1.
         12    1    3    3    0    0 -0.91311067134E+01  0.17704784222E+02 -0.21648670681E+02  0.29419405780E+02  0.00000000000E+00 0. -1.
</event>
<event>
 7    1  0.2584640E-011  0.5052886E+02  0.7816164E-02  0.1300439E+00
        -11   -1    0    0    0    0  0.00000000000E+00  0.00000000000E+00  0.45593999997E+02  0.45594000000E+02  0.51100000000E-03 0. -1.
         11   -1    0    0    0    0 -0.00000000000E+00 -0.00000000000E+00 -0.45593999997E+02  0.45594000000E+02  0.51100000000E-03 0.  1.
    9900012    2    1    2    0    0 -0.26571602896E+02 -0.10787950219E+02  0.28822485766E+02  0.50528860361E+02  0.30000001554E+02 0.  0.
        -12    1    1    2    0    0  0.26571602896E+02  0.10787950219E+02 -0.28822485766E+02  0.40659139639E+02  0.00000000000E+00 0.  1.
         11    1    3    3    0    0 -0.27694378254E+01 -0.40234045498E+01  0.38019524858E+01  0.61897021742E+01  0.51100000000E-03 0. -1.
        -11    1    3    3    0    0  0.10749343713E+01 -0.11270113179E+02  0.75234570741E+01  0.13593135826E+02  0.51100000000E-03 0.  1.
         12    1    3    3    0    0 -0.24877099442E+02  0.45055675096E+01  0.17497076207E+02  0.30746022361E+02  0.00000000000E+00 0. -1.
</event>
<event>
 7    1  0.2584640E-011  0.5052886E+02  0.7816164E-02  0.1300439E+00
        -11   -1    0    0    0    0  0.00000000000E+00  0.00000000000E+00  0.45593999997E+02  0.45594000000E+02  0.51100000000E-03 0.  1.
         11   -1    0    0    0    0 -0.00000000000E+00 -0.00000000000E+00 -0.45593999997E+02  0.45594000000E+02  0.51100000000E-03 0. -1.
    9900012    2    1    2    0    0  0.15845925003E+02  0.37365990863E+02  0.24197487427E+01  0.50528858391E+02  0.29999995566E+02 0.  0.
        -12    1    1    2    0    0 -0.15845925003E+02 -0.37365990863E+02 -0.24197487427E+01  0.40659141609E+02  0.00000000000E+00 0.  1.
         11    1    3    3    0    0  0.17416009595E+01  0.36064529049E+01  0.79334426899E+01  0.88870236656E+01  0.51100000000E-03 0.  1.
        -11    1    3    3    0    0 -0.14578408520E+01 -0.21800858114E+00 -0.39736817617E+01  0.42382749670E+01  0.51100000000E-03 0. -1.
         12    1    3    3    0    0  0.15562164896E+02  0.33977546540E+02 -0.15400121855E+01  0.37403559759E+02  0.00000000000E+00 0. -1.
</event>
<event>
 7    1  0.3298168E-011  0.5052890E+02  0.7816164E-02  0.1300439E+00
        -11   -1    0    0    0    0  0.00000000000E+00  0.00000000000E+00  0.45593999997E+02  0.45594000000E+02  0.51100000000E-03 0. -1.
         11   -1    0    0    0    0 -0.00000000000E+00 -0.00000000000E+00 -0.45593999997E+02  0.45594000000E+02  0.51100000000E-03 0.  1.
    9900012    2    1    2    0    0  0.30472852739E+02  0.24036402754E+02  0.12116902987E+02  0.50528895861E+02  0.30000109458E+02 0.  0.
        -12    1    1    2    0    0 -0.30472852739E+02 -0.24036402754E+02 -0.12116902987E+02  0.40659104139E+02  0.00000000000E+00 0.  1.
         11    1    3    3    0    0  0.12577122881E+02  0.11796412705E+02  0.47178360077E+01  0.17877285855E+02  0.51100000000E-03 0. -1.
        -11    1    3    3    0    0  0.19113295055E+02  0.58725009392E+01 -0.31778122338E+01  0.20246056554E+02  0.51100000000E-03 0.  1.
        -12    1    3    3    0    0 -0.12175651968E+01  0.63674891095E+01  0.10576879213E+02  0.12405553452E+02  0.00000000000E+00 0.  1.
</event>
<event>
 7    1  0.2584640E-011  0.5052886E+02  0.7816164E-02  0.1300439E+00
        -11   -1    0    0    0    0  0.00000000000E+00  0.00000000000E+00  0.45593999997E+02  0.45594000000E+02  0.51100000000E-03 0.  1.
         11   -1    0    0    0    0 -0.00000000000E+00 -0.00000000000E+00 -0.45593999997E+02  0.45594000000E+02  0.51100000000E-03 0. -1.
    9900012    2    1    2    0    0  0.35900509004E+02  0.12612057681E+01 -0.19045431430E+02  0.50528860252E+02  0.30000001221E+02 0.  0.
        -12    1    1    2    0    0 -0.35900509004E+02 -0.12612057681E+01  0.19045431430E+02  0.40659139748E+02  0.00000000000E+00 0.  1.
         11    1    3    3    0    0  0.15798647000E+01 -0.54645461102E+01  0.20588795846E+01  0.60494811402E+01  0.51100000000E-03 0.  1.
        -11    1    3    3    0    0  0.18888592553E+01 -0.78747667077E+00 -0.87246191154E+01  0.89614110364E+01  0.51100000000E-03 0. -1.
         12    1    3    3    0    0  0.32431785048E+02  0.75132285492E+01 -0.12379691900E+02  0.35517968075E+02  0.00000000000E+00 0. -1.
</event>
<event>
 7    1  0.2584640E-011  0.5052885E+02  0.7816164E-02  0.1300439E+00
        -11   -1    0    0    0    0  0.00000000000E+00  0.00000000000E+00  0.45593999997E+02  0.45594000000E+02  0.51100000000E-03 0.  1.
         11   -1    0    0    0    0 -0.00000000000E+00 -0.00000000000E+00 -0.45593999997E+02  0.45594000000E+02  0.51100000000E-03 0. -1.
    9900012    2    1    2    0    0 -0.29808494927E+02 -0.33679830302E+01 -0.27445881277E+02  0.50528854921E+02  0.29999985018E+02 0.  0.
        -12    1    1    2    0    0  0.29808494927E+02  0.33679830302E+01  0.27445881277E+02  0.40659145079E+02  0.00000000000E+00 0.  1.
         11    1    3    3    0    0 -0.14454189864E+02  0.82255383105E+01 -0.11660973111E+02  0.20311607009E+02  0.51100000000E-03 0. -1.
        -11    1    3    3    0    0 -0.12404500408E+01  0.12853770094E+01 -0.10137087559E+02  0.10293272308E+02  0.51100000000E-03 0.  1.
         12    1    3    3    0    0 -0.14113855021E+02 -0.12878898350E+02 -0.56478206068E+01  0.19923975604E+02  0.00000000000E+00 0. -1.
</event>
<event>
 7    1  0.2584640E-011  0.5052885E+02  0.7816164E-02  0.1300439E+00
        -11   -1    0    0    0    0  0.00000000000E+00  0.00000000000E+00  0.45593999997E+02  0.45594000000E+02  0.51100000000E-03 0. -1.
         11   -1    0    0    0    0 -0.00000000000E+00 -0.00000000000E+00 -0.45593999997E+02  0.45594000000E+02  0.51100000000E-03 0.  1.
    9900012    2    1    2    0    0 -0.22723592579E+02 -0.11464943634E+02  0.31707408842E+02  0.50528851365E+02  0.29999974210E+02 0.  0.
        -12    1    1    2    0    0  0.22723592579E+02  0.11464943634E+02 -0.31707408842E+02  0.40659148635E+02  0.00000000000E+00 0.  1.
         11    1    3    3    0    0 -0.29412062625E+01 -0.83542962505E+01  0.20071439159E+02  0.21938724445E+02  0.51100000000E-03 0. -1.
        -11    1    3    3    0    0 -0.11879247244E+02 -0.88084392644E+01  0.20642050725E+01  0.14932048092E+02  0.51100000000E-03 0.  1.
         12    1    3    3    0    0 -0.79031390726E+01  0.56977918811E+01  0.95717646103E+01  0.13658078828E+02  0.00000000000E+00 0. -1.
</event>
<event>
 7    1  0.2584640E-011  0.5052887E+02  0.7816164E-02  0.1300439E+00
        -11   -1    0    0    0    0  0.00000000000E+00  0.00000000000E+00  0.45593999997E+02  0.45594000000E+02  0.51100000000E-03 0. -1.
         11   -1    0    0    0    0 -0.00000000000E+00 -0.00000000000E+00 -0.45593999997E+02  0.45594000000E+02  0.51100000000E-03 0.  1.
    9900012    2    1    2    0    0  0.35085931291E+02  0.19898918261E+02  0.51162011390E+01  0.50528867734E+02  0.30000023964E+02 0.  0.
        -12    1    1    2    0    0 -0.35085931291E+02 -0.19898918261E+02 -0.51162011390E+01  0.40659132266E+02  0.00000000000E+00 0.  1.
         11    1    3    3    0    0  0.15850098036E+02  0.27407115989E+01 -0.12507113765E+01  0.16133858405E+02  0.51100000000E-03 0. -1.
        -11    1    3    3    0    0  0.22742238061E+02  0.18763563642E+02  0.37193730656E+01  0.29717241609E+02  0.51100000000E-03 0.  1.
        -12    1    3    3    0    0 -0.35064048067E+01 -0.16053569795E+01  0.26475394499E+01  0.46777677197E+01  0.00000000000E+00 0.  1.
</event>
<event>
 7    1  0.2584640E-011  0.5052886E+02  0.7816164E-02  0.1300439E+00
        -11   -1    0    0    0    0  0.00000000000E+00  0.00000000000E+00  0.45593999997E+02  0.45594000000E+02  0.51100000000E-03 0.  1.
         11   -1    0    0    0    0 -0.00000000000E+00 -0.00000000000E+00 -0.45593999997E+02  0.45594000000E+02  0.51100000000E-03 0. -1.
    9900012    2    1    2    0    0 -0.13971082878E+02 -0.10136624932E+02 -0.36813360598E+02  0.50528857851E+02  0.29999993924E+02 0.  0.
        -12    1    1    2    0    0  0.13971082878E+02  0.10136624932E+02  0.36813360598E+02  0.40659142149E+02  0.00000000000E+00 0.  1.
         11    1    3    3    0    0 -0.95583097831E+01  0.15413444965E+01 -0.62491395236E+01  0.11523401139E+02  0.51100000000E-03 0. -1.
        -11    1    3    3    0    0  0.32520254505E+01  0.46297298486E+01 -0.40916998970E+01  0.69822687079E+01  0.51100000000E-03 0.  1.
         12    1    3    3    0    0 -0.76647985454E+01 -0.16307699277E+02 -0.26472521177E+02  0.32023188004E+02  0.00000000000E+00 0. -1.
</event>
<event>
 7    1  0.2584640E-011  0.5052881E+02  0.7816164E-02  0.1300439E+00
        -11   -1    0    0    0    0  0.00000000000E+00  0.00000000000E+00  0.45593999997E+02  0.45594000000E+02  0.51100000000E-03 0. -1.
         11   -1    0    0    0    0 -0.00000000000E+00 -0.00000000000E+00 -0.45593999997E+02  0.45594000000E+02  0.51100000000E-03 0.  1.
    9900012    2    1    2    0    0 -0.67654509266E+01 -0.27471205578E+01  0.39998149657E+02  0.50528807023E+02  0.29999839426E+02 0.  0.
        -12    1    1    2    0    0  0.67654509266E+01  0.27471205578E+01 -0.39998149657E+02  0.40659192977E+02  0.00000000000E+00 0.  1.
         11    1    3    3    0    0 -0.22203617958E+01 -0.38508972978E+01 -0.14539086080E+01  0.46768864647E+01  0.51100000000E-03 0. -1.
        -11    1    3    3    0    0 -0.92599139985E+01 -0.47556761685E+01  0.14365488831E+02  0.17740623797E+02  0.51100000000E-03 0.  1.
        -12    1    3    3    0    0  0.47148248676E+01  0.58594529085E+01  0.27086569434E+02  0.28111296761E+02  0.00000000000E+00 0.  1.
</event>
<event>
 7    1  0.2584640E-011  0.5052886E+02  0.7816164E-02  0.1300439E+00
        -11   -1    0    0    0    0  0.00000000000E+00  0.00000000000E+00  0.45593999997E+02  0.45594000000E+02  0.51100000000E-03 0. -1.
         11   -1    0    0    0    0 -0.00000000000E+00 -0.00000000000E+00 -0.45593999997E+02  0.45594000000E+02  0.51100000000E-03 0.  1.
    9900012    2    1    2    0    0 -0.24970671683E+02 -0.23195391961E+02  0.22172164817E+02  0.50528861479E+02  0.30000004953E+02 0.  0.
        -12    1    1    2    0    0  0.24970671683E+02  0.23195391961E+02 -0.22172164817E+02  0.40659138521E+02  0.00000000000E+00 0.  1.
         11    1    3    3    0    0 -0.55021118878E+01 -0.71200667387E+00  0.27356465589E+01  0.61857862140E+01  0.51100000000E-03 0. -1.
        -11    1    3    3    0    0 -0.14736265996E+02  0.20379632987E+01  0.76299652630E+01  0.16719066962E+02  0.51100000000E-03 0.  1.
        -12    1    3    3    0    0 -0.47322937992E+01 -0.24521348586E+02  0.11806552995E+02  0.27624008303E+02  0.00000000000E+00 0.  1.
</event>
<event>
 7    1  0.2584640E-011  0.5052886E+02  0.7816164E-02  0.1300439E+00
        -11   -1    0    0    0    0  0.00000000000E+00  0.00000000000E+00  0.45593999997E+02  0.45594000000E+02  0.51100000000E-03 0. -1.
         11   -1    0    0    0    0 -0.00000000000E+00 -0.00000000000E+00 -0.45593999997E+02  0.45594000000E+02  0.51100000000E-03 0.  1.
    9900012    2    1    2    0    0  0.27770630353E+02 -0.28853306134E+02  0.70316637753E+01  0.50528862275E+02  0.30000007372E+02 0.  0.
        -12    1    1    2    0    0 -0.27770630353E+02  0.28853306134E+02 -0.70316637753E+01  0.40659137725E+02  0.00000000000E+00 0.  1.
         11    1    3    3    0    0  0.16689970284E+02 -0.12000524267E+02 -0.14418653341E+01  0.20606956754E+02  0.51100000000E-03 0. -1.
        -11    1    3    3    0    0  0.70657205180E+01 -0.19502618242E+02  0.66897326302E+00  0.20753892412E+02  0.51100000000E-03 0.  1.
        -12    1    3    3    0    0  0.40149395508E+01  0.26498363755E+01  0.78045558463E+01  0.91680131093E+01  0.00000000000E+00 0.  1.
</event>
<event>
 7    1  0.2584640E-011  0.5052884E+02  0.7816164E-02  0.1300439E+00
        -11   -1    0    0    0    0  0.00000000000E+00  0.00000000000E+00  0.45593999997E+02  0.45594000000E+02  0.51100000000E-03 0. -1.
         11   -1    0    0    0    0 -0.00000000000E+00 -0.00000000000E+00 -0.45593999997E+02  0.45594000000E+02  0.51100000000E-03 0.  1.
    9900012    2    1    2    0    0  0.35836879188E+02  0.18199500607E+02 -0.61370756936E+01  0.50528838297E+02  0.29999934488E+02 0.  0.
        -12    1    1    2    0    0 -0.35836879188E+02 -0.18199500607E+02  0.61370756936E+01  0.40659161703E+02  0.00000000000E+00 0.  1.
         11    1    3    3    0    0  0.15743460240E+02  0.78772764262E+01  0.53001125907E+01  0.18384755042E+02  0.51100000000E-03 0. -1.
        -11    1    3    3    0    0  0.11232538243E+01 -0.24892339994E+01  0.37750635330E+01  0.46593014495E+01  0.51100000000E-03 0.  1.
        -12    1    3    3    0    0  0.18970165124E+02  0.12811458181E+02 -0.15212251817E+02  0.27484781805E+02  0.00000000000E+00 0.  1.
</event>
<event>
 7    1  0.2584640E-011  0.5052886E+02  0.7816164E-02  0.1300439E+00
        -11   -1    0    0    0    0  0.00000000000E+00  0.00000000000E+00  0.45593999997E+02  0.45594000000E+02  0.51100000000E-03 0.  1.
         11   -1    0    0    0    0 -0.00000000000E+00 -0.00000000000E+00 -0.45593999997E+02  0.45594000000E+02  0.51100000000E-03 0. -1.
    9900012    2    1    2    0    0  0.36914120355E+02 -0.16385268517E+02 -0.46942501086E+01  0.50528864618E+02  0.30000014491E+02 0.  0.
        -12    1    1    2    0    0 -0.36914120355E+02  0.16385268517E+02  0.46942501086E+01  0.40659135382E+02  0.00000000000E+00 0.  1.
         11    1    3    3    0    0  0.16649143590E+02 -0.10555124355E+01  0.78395581724E+01  0.18432763260E+02  0.51100000000E-03 0. -1.
        -11    1    3    3    0    0 -0.24432771700E+01 -0.21247174638E+01 -0.85848610426E+00  0.33497800349E+01  0.51100000000E-03 0.  1.
         12    1    3    3    0    0  0.22708253935E+02 -0.13205038617E+02 -0.11675322177E+02  0.28746321323E+02  0.00000000000E+00 0. -1.
</event>
<event>
 7    1  0.2584640E-011  0.5052892E+02  0.7816164E-02  0.1300439E+00
        -11   -1    0    0    0    0  0.00000000000E+00  0.00000000000E+00  0.45593999997E+02  0.45594000000E+02  0.51100000000E-03 0. -1.
         11   -1    0    0    0    0 -0.00000000000E+00 -0.00000000000E+00 -0.45593999997E+02  0.45594000000E+02  0.51100000000E-03 0.  1.
    9900012    2    1    2    0    0  0.25094154833E+01  0.43382016574E+01  0.40349023151E+02  0.50528919478E+02  0.30000181245E+02 0.  0.
        -12    1    1    2    0    0 -0.25094154833E+01 -0.43382016574E+01 -0.40349023151E+02  0.40659080522E+02  0.00000000000E+00 0.  1.
         11    1    3    3    0    0 -0.47608271892E+01 -0.67370766614E+01  0.53610767753E+01  0.98384359488E+01  0.51100000000E-03 0. -1.
        -11    1    3    3    0    0  0.76893326696E+00 -0.27404602468E+01  0.16353360675E+02  0.16599210414E+02  0.51100000000E-03 0.  1.
        -12    1    3    3    0    0  0.65013094056E+01  0.13815738566E+02  0.18634585700E+02  0.24091273115E+02  0.00000000000E+00 0.  1.
</event>
<event>
 7    1  0.2584640E-011  0.5052884E+02  0.7816164E-02  0.1300439E+00
        -11   -1    0    0    0    0  0.00000000000E+00  0.00000000000E+00  0.45593999997E+02  0.45594000000E+02  0.51100000000E-03 0.  1.
         11   -1    0    0    0    0 -0.00000000000E+00 -0.00000000000E+00 -0.45593999997E+02  0.45594000000E+02  0.51100000000E-03 0. -1.
    9900012    2    1    2    0    0  0.39978103659E+02 -0.45126734264E+01 -0.58782683916E+01  0.50528843185E+02  0.29999949345E+02 0.  0.
        -12    1    1    2    0    0 -0.39978103659E+02  0.45126734264E+01  0.58782683916E+01  0.40659156815E+02  0.00000000000E+00 0.  1.
         11    1    3    3    0    0  0.22956045360E+02 -0.58827991471E+01 -0.11010150444E+01  0.23723397286E+02  0.51100000000E-03 0. -1.
        -11    1    3    3    0    0 -0.14989253566E+00 -0.71499681538E+01 -0.20748703607E+01  0.74464487944E+01  0.51100000000E-03 0.  1.
         12    1    3    3    0    0  0.17171950835E+02  0.85200938745E+01 -0.27023829865E+01  0.19358997105E+02  0.00000000000E+00 0. -1.
</event>
<event>
 7    1  0.2584640E-011  0.5052886E+02  0.7816164E-02  0.1300439E+00
        -11   -1    0    0    0    0  0.00000000000E+00  0.00000000000E+00  0.45593999997E+02  0.45594000000E+02  0.51100000000E-03 0.  1.
         11   -1    0    0    0    0 -0.00000000000E+00 -0.00000000000E+00 -0.45593999997E+02  0.45594000000E+02  0.51100000000E-03 0. -1.
    9900012    2    1    2    0    0 -0.89039800527E+01 -0.76809121727E+01 -0.38921564731E+02  0.50528862359E+02  0.30000007627E+02 0.  0.
        -12    1    1    2    0    0  0.89039800527E+01  0.76809121727E+01  0.38921564731E+02  0.40659137641E+02  0.00000000000E+00 0.  1.
         11    1    3    3    0    0  0.62196817851E+01  0.24659057856E+01 -0.33466712822E+01  0.74809987157E+01  0.51100000000E-03 0. -1.
        -11    1    3    3    0    0  0.90129020265E+00  0.25164707461E+01 -0.98201448151E+01  0.10177435507E+02  0.51100000000E-03 0.  1.
         12    1    3    3    0    0 -0.16024952040E+02 -0.12663288705E+02 -0.25754748634E+02  0.32870428137E+02  0.00000000000E+00 0. -1.
</event>
<event>
 7    1  0.2584640E-011  0.5052887E+02  0.7816164E-02  0.1300439E+00
        -11   -1    0    0    0    0  0.00000000000E+00  0.00000000000E+00  0.45593999997E+02  0.45594000000E+02  0.51100000000E-03 0. -1.
         11   -1    0    0    0    0 -0.00000000000E+00 -0.00000000000E+00 -0.45593999997E+02  0.45594000000E+02  0.51100000000E-03 0.  1.
    9900012    2    1    2    0    0  0.27776122868E+02  0.23443372098E+02  0.18222514180E+02  0.50528871629E+02  0.30000035802E+02 0.  0.
        -12    1    1    2    0    0 -0.27776122868E+02 -0.23443372098E+02 -0.18222514180E+02  0.40659128371E+02  0.00000000000E+00 0.  1.
         11    1    3    3    0    0  0.23052271990E+02  0.19707998595E+02  0.53002765651E+01  0.30788072114E+02  0.51100000000E-03 0. -1.
        -11    1    3    3    0    0 -0.21629853746E+01  0.47239835078E+01  0.15149015727E+00  0.51978337259E+01  0.51100000000E-03 0.  1.
        -12    1    3    3    0    0  0.68868362520E+01 -0.98861000542E+00  0.12770747458E+02  0.14542965789E+02  0.00000000000E+00 0.  1.
</event>
<event>
 7    1  0.2584640E-011  0.5052885E+02  0.7816164E-02  0.1300439E+00
        -11   -1    0    0    0    0  0.00000000000E+00  0.00000000000E+00  0.45593999997E+02  0.45594000000E+02  0.51100000000E-03 0.  1.
         11   -1    0    0    0    0 -0.00000000000E+00 -0.00000000000E+00 -0.45593999997E+02  0.45594000000E+02  0.51100000000E-03 0. -1.
    9900012    2    1    2    0    0 -0.32012752061E+02  0.74785155992E+00 -0.25055749212E+02  0.50528854103E+02  0.29999982532E+02 0.  0.
        -12    1    1    2    0    0  0.32012752061E+02 -0.74785155992E+00  0.25055749212E+02  0.40659145897E+02  0.00000000000E+00 0.  1.
         11    1    3    3    0    0 -0.11971848340E+02 -0.19547010067E+00 -0.87951937837E+01  0.14856607795E+02  0.51100000000E-03 0.  1.
        -11    1    3    3    0    0 -0.15398873387E+02  0.47890071243E+01 -0.22047658176E+02  0.27315913349E+02  0.51100000000E-03 0. -1.
        -12    1    3    3    0    0 -0.46420303339E+01 -0.38456854637E+01  0.57871027470E+01  0.83563329584E+01  0.00000000000E+00 0.  1.
</event>
<event>
 7    1  0.2584640E-011  0.5052885E+02  0.7816164E-02  0.1300439E+00
        -11   -1    0    0    0    0  0.00000000000E+00  0.00000000000E+00  0.45593999997E+02  0.45594000000E+02  0.51100000000E-03 0. -1.
         11   -1    0    0    0    0 -0.00000000000E+00 -0.00000000000E+00 -0.45593999997E+02  0.45594000000E+02  0.51100000000E-03 0.  1.
    9900012    2    1    2    0    0 -0.35536720734E+02  0.11621168746E+02  0.15976736238E+02  0.50528853620E+02  0.29999981062E+02 0.  0.
        -12    1    1    2    0    0  0.35536720734E+02 -0.11621168746E+02 -0.15976736238E+02  0.40659146380E+02  0.00000000000E+00 0.  1.
         11    1    3    3    0    0 -0.29660608180E+02  0.18511573722E+01  0.42977496127E+01  0.30027472641E+02  0.51100000000E-03 0. -1.
        -11    1    3    3    0    0 -0.12216858092E+00  0.19203037019E+01 -0.25916028711E+01  0.32278316518E+01  0.51100000000E-03 0.  1.
         12    1    3    3    0    0 -0.57539439738E+01  0.78497076717E+01  0.14270589496E+02  0.17273549327E+02  0.00000000000E+00 0. -1.
</event>
<event>
 7    1  0.2584640E-011  0.5052885E+02  0.7816164E-02  0.1300439E+00
        -11   -1    0    0    0    0  0.00000000000E+00  0.00000000000E+00  0.45593999997E+02  0.45594000000E+02  0.51100000000E-03 0. -1.
         11   -1    0    0    0    0 -0.00000000000E+00 -0.00000000000E+00 -0.45593999997E+02  0.45594000000E+02  0.51100000000E-03 0.  1.
    9900012    2    1    2    0    0 -0.35759874790E+02 -0.79390054637E+01 -0.17645670687E+02  0.50528854082E+02  0.29999982468E+02 0.  0.
        -12    1    1    2    0    0  0.35759874790E+02  0.79390054637E+01  0.17645670687E+02  0.40659145918E+02  0.00000000000E+00 0.  1.
         11    1    3    3    0    0 -0.41969799236E+01 -0.42744823150E-03  0.31166367467E+01  0.52276252289E+01  0.51100000000E-03 0. -1.
        -11    1    3    3    0    0 -0.72602766866E+01  0.22306567644E+01  0.44779248173E+01  0.88169869058E+01  0.51100000000E-03 0.  1.
         12    1    3    3    0    0 -0.24302618180E+02 -0.10169234780E+02 -0.25240232251E+02  0.36484241948E+02  0.00000000000E+00 0. -1.
</event>
<event>
 7    1  0.2584640E-011  0.5052888E+02  0.7816164E-02  0.1300439E+00
        -11   -1    0    0    0    0  0.00000000000E+00  0.00000000000E+00  0.45593999997E+02  0.45594000000E+02  0.51100000000E-03 0. -1.
         11   -1    0    0    0    0 -0.00000000000E+00 -0.00000000000E+00 -0.45593999997E+02  0.45594000000E+02  0.51100000000E-03 0.  1.
    9900012    2    1    2    0    0  0.32583368370E+02 -0.82624137498E+01  0.22874012254E+02  0.50528882795E+02  0.30000069743E+02 0.  0.
        -12    1    1    2    0    0 -0.32583368370E+02  0.82624137498E+01 -0.22874012254E+02  0.40659117205E+02  0.00000000000E+00 0.  1.
         11    1    3    3    0    0  0.82792313635E+01  0.12219209331E+01  0.96703680203E+01  0.12788853766E+02  0.51100000000E-03 0.  1.
        -11    1    3    3    0    0  0.13448917410E+02 -0.15467680711E+02  0.14745066023E+02  0.25249544518E+02  0.51100000000E-03 0. -1.
        -12    1    3    3    0    0  0.10855219597E+02  0.59833460281E+01 -0.15414217894E+01  0.12490484511E+02  0.00000000000E+00 0.  1.
</event>
<event>
 7    1  0.2584640E-011  0.5052886E+02  0.7816164E-02  0.1300439E+00
        -11   -1    0    0    0    0  0.00000000000E+00  0.00000000000E+00  0.45593999997E+02  0.45594000000E+02  0.51100000000E-03 0. -1.
         11   -1    0    0    0    0 -0.00000000000E+00 -0.00000000000E+00 -0.45593999997E+02  0.45594000000E+02  0.51100000000E-03 0.  1.
    9900012    2    1    2    0    0 -0.98809300073E+01  0.37217184595E+02  0.13054272568E+02  0.50528860323E+02  0.30000001438E+02 0.  0.
        -12    1    1    2    0    0  0.98809300073E+01 -0.37217184595E+02 -0.13054272568E+02  0.40659139677E+02  0.00000000000E+00 0.  1.
         11    1    3    3    0    0 -0.44080420482E+01  0.23176707205E+01  0.84718957770E+01  0.98272809355E+01  0.51100000000E-03 0. -1.
        -11    1    3    3    0    0  0.61600237297E+01  0.80138577039E+01  0.52698656823E+01  0.11399091728E+02  0.51100000000E-03 0.  1.
         12    1    3    3    0    0 -0.11632911689E+02  0.26885656170E+02 -0.68748889103E+00  0.29302487660E+02  0.00000000000E+00 0. -1.
</event>
<event>
 7    1  0.2584640E-011  0.5052888E+02  0.7816164E-02  0.1300439E+00
        -11   -1    0    0    0    0  0.00000000000E+00  0.00000000000E+00  0.45593999997E+02  0.45594000000E+02  0.51100000000E-03 0.  1.
         11   -1    0    0    0    0 -0.00000000000E+00 -0.00000000000E+00 -0.45593999997E+02  0.45594000000E+02  0.51100000000E-03 0. -1.
    9900012    2    1    2    0    0  0.25527482736E+02 -0.30043133440E+02 -0.99459637626E+01  0.50528875109E+02  0.30000046381E+02 0.  0.
        -12    1    1    2    0    0 -0.25527482736E+02  0.30043133440E+02  0.99459637626E+01  0.40659124891E+02  0.00000000000E+00 0.  1.
         11    1    3    3    0    0  0.16529896813E+02 -0.18272142089E+02  0.19081876765E+01  0.24713353590E+02  0.51100000000E-03 0. -1.
        -11    1    3    3    0    0  0.63508875057E+01  0.34297156421E+01 -0.19346360532E+01  0.74725857918E+01  0.51100000000E-03 0.  1.
        -12    1    3    3    0    0  0.26466984168E+01 -0.15200706993E+02 -0.99195153859E+01  0.18342935727E+02  0.00000000000E+00 0.  1.
</event>
<event>
 7    1  0.2584640E-011  0.5052889E+02  0.7816164E-02  0.1300439E+00
        -11   -1    0    0    0    0  0.00000000000E+00  0.00000000000E+00  0.45593999997E+02  0.45594000000E+02  0.51100000000E-03 0. -1.
         11   -1    0    0    0    0 -0.00000000000E+00 -0.00000000000E+00 -0.45593999997E+02  0.45594000000E+02  0.51100000000E-03 0.  1.
    9900012    2    1    2    0    0  0.20338654095E+02 -0.25955637540E+02  0.23786710214E+02  0.50528885975E+02  0.30000079409E+02 0.  0.
        -12    1    1    2    0    0 -0.20338654095E+02  0.25955637540E+02 -0.23786710214E+02  0.40659114025E+02  0.00000000000E+00 0.  1.
         11    1    3    3    0    0  0.43046943589E+01 -0.17710233286E+01 -0.72829117511E+00  0.47114037665E+01  0.51100000000E-03 0. -1.
        -11    1    3    3    0    0 -0.27202895238E+01  0.89057894875E+00  0.11596542348E+02  0.11944576202E+02  0.51100000000E-03 0.  1.
         12    1    3    3    0    0  0.18754249260E+02 -0.25075193160E+02  0.12918459042E+02  0.33872906006E+02  0.00000000000E+00 0. -1.
</event>
<event>
 7    1  0.2584640E-011  0.5052886E+02  0.7816164E-02  0.1300439E+00
        -11   -1    0    0    0    0  0.00000000000E+00  0.00000000000E+00  0.45593999997E+02  0.45594000000E+02  0.51100000000E-03 0. -1.
         11   -1    0    0    0    0 -0.00000000000E+00 -0.00000000000E+00 -0.45593999997E+02  0.45594000000E+02  0.51100000000E-03 0.  1.
    9900012    2    1    2    0    0 -0.17286484026E+01 -0.19174447592E+02  0.35812260320E+02  0.50528860129E+02  0.30000000849E+02 0.  0.
        -12    1    1    2    0    0  0.17286484026E+01  0.19174447592E+02 -0.35812260320E+02  0.40659139871E+02  0.00000000000E+00 0.  1.
         11    1    3    3    0    0 -0.91715504127E+01 -0.31010193068E+01  0.74171800836E+01  0.12196237878E+02  0.51100000000E-03 0. -1.
        -11    1    3    3    0    0  0.45400207657E+01 -0.20185887855E+02  0.23516884544E+02  0.31322926364E+02  0.51100000000E-03 0.  1.
         12    1    3    3    0    0  0.29028812444E+01  0.41124595696E+01  0.48781956924E+01  0.70096958882E+01  0.00000000000E+00 0. -1.
</event>
<event>
 7    1  0.2584640E-011  0.5052887E+02  0.7816164E-02  0.1300439E+00
        -11   -1    0    0    0    0  0.00000000000E+00  0.00000000000E+00  0.45593999997E+02  0.45594000000E+02  0.51100000000E-03 0. -1.
         11   -1    0    0    0    0 -0.00000000000E+00 -0.00000000000E+00 -0.45593999997E+02  0.45594000000E+02  0.51100000000E-03 0.  1.
    9900012    2    1    2    0    0  0.29016478728E+02 -0.12440310979E+02  0.25621230452E+02  0.50528870338E+02  0.30000031878E+02 0.  0.
        -12    1    1    2    0    0 -0.29016478728E+02  0.12440310979E+02 -0.25621230452E+02  0.40659129662E+02  0.00000000000E+00 0.  1.
         11    1    3    3    0    0  0.71575274725E+01  0.57529938949E+01  0.68803808957E+01  0.11474614582E+02  0.51100000000E-03 0. -1.
        -11    1    3    3    0    0  0.75885593556E+01 -0.62498603628E+01  0.17905324636E+02  0.20426640405E+02  0.51100000000E-03 0.  1.
         12    1    3    3    0    0  0.14270391900E+02 -0.11943444511E+02  0.83552492022E+00  0.18627615351E+02  0.00000000000E+00 0. -1.
</event>
<event>
 7    1  0.2584640E-011  0.5052879E+02  0.7816164E-02  0.1300439E+00
        -11   -1    0    0    0    0  0.00000000000E+00  0.00000000000E+00  0.45593999997E+02  0.45594000000E+02  0.51100000000E-03 0.  1.
         11   -1    0    0    0    0 -0.00000000000E+00 -0.00000000000E+00 -0.45593999997E+02  0.45594000000E+02  0.51100000000E-03 0. -1.
    9900012    2    1    2    0    0 -0.20802689678E+01  0.23154751710E+02 -0.33357175874E+02  0.50528791596E+02  0.29999792535E+02 0.  0.
        -12    1    1    2    0    0  0.20802689678E+01 -0.23154751710E+02  0.33357175874E+02  0.40659208404E+02  0.00000000000E+00 0.  1.
         11    1    3    3    0    0  0.11874069612E+02  0.20958815581E+01 -0.10029777745E+02  0.15683835326E+02  0.51100000000E-03 0.  1.
        -11    1    3    3    0    0 -0.35321699071E+01  0.22929744612E+01 -0.55919133411E+01  0.70002465105E+01  0.51100000000E-03 0. -1.
        -12    1    3    3    0    0 -0.10422168673E+02  0.18765895691E+02 -0.17735484788E+02  0.27844709759E+02  0.00000000000E+00 0.  1.
</event>
<event>
 7    1  0.2584640E-011  0.5052887E+02  0.7816164E-02  0.1300439E+00
        -11   -1    0    0    0    0  0.00000000000E+00  0.00000000000E+00  0.45593999997E+02  0.45594000000E+02  0.51100000000E-03 0.  1.
         11   -1    0    0    0    0 -0.00000000000E+00 -0.00000000000E+00 -0.45593999997E+02  0.45594000000E+02  0.51100000000E-03 0. -1.
    9900012    2    1    2    0    0 -0.12768418316E+00  0.31186581005E+01 -0.40539150379E+02  0.50528867630E+02  0.30000023650E+02 0.  0.
        -12    1    1    2    0    0  0.12768418316E+00 -0.31186581005E+01  0.40539150379E+02  0.40659132370E+02  0.00000000000E+00 0.  1.
         11    1    3    3    0    0 -0.16662061340E+01  0.12106530158E+02 -0.24312413713E+02  0.27210986313E+02  0.51100000000E-03 0. -1.
        -11    1    3    3    0    0  0.31902463329E+01  0.11498246616E+01  0.75248129444E+00  0.34736143679E+01  0.51100000000E-03 0.  1.
         12    1    3    3    0    0 -0.16517243820E+01 -0.10137696719E+02 -0.16979217961E+02  0.19844266949E+02  0.00000000000E+00 0. -1.
</event>
<event>
 7    1  0.2584640E-011  0.5052883E+02  0.7816164E-02  0.1300439E+00
        -11   -1    0    0    0    0  0.00000000000E+00  0.00000000000E+00  0.45593999997E+02  0.45594000000E+02  0.51100000000E-03 0. -1.
         11   -1    0    0    0    0 -0.00000000000E+00 -0.00000000000E+00 -0.45593999997E+02  0.45594000000E+02  0.51100000000E-03 0.  1.
    9900012    2    1    2    0    0 -0.40228863463E+02  0.43357287164E+01 -0.40009806011E+01  0.50528833201E+02  0.29999918997E+02 0.  0.
        -12    1    1    2    0    0  0.40228863463E+02 -0.43357287164E+01  0.40009806011E+01  0.40659166799E+02  0.00000000000E+00 0.  1.
         11    1    3    3    0    0 -0.30873338506E+02 -0.59197686894E+01 -0.79829187097E+01  0.32433527148E+02  0.51100000000E-03 0. -1.
        -11    1    3    3    0    0 -0.98754174853E+01  0.10090660655E+02  0.43249848952E-01  0.14119035866E+02  0.51100000000E-03 0.  1.
        -12    1    3    3    0    0  0.51989252816E+00  0.16483675044E+00  0.39386882597E+01  0.39762701873E+01  0.00000000000E+00 0.  1.
</event>
<event>
 7    1  0.2584640E-011  0.5052887E+02  0.7816164E-02  0.1300439E+00
        -11   -1    0    0    0    0  0.00000000000E+00  0.00000000000E+00  0.45593999997E+02  0.45594000000E+02  0.51100000000E-03 0. -1.
         11   -1    0    0    0    0 -0.00000000000E+00 -0.00000000000E+00 -0.45593999997E+02  0.45594000000E+02  0.51100000000E-03 0.  1.
    9900012    2    1    2    0    0  0.27975373098E+02  0.18561993691E+02  0.22934602443E+02  0.50528866967E+02  0.30000021633E+02 0.  0.
        -12    1    1    2    0    0 -0.27975373098E+02 -0.18561993691E+02 -0.22934602443E+02  0.40659133033E+02  0.00000000000E+00 0.  1.
         11    1    3    3    0    0 -0.21799712387E+01 -0.11562602594E+01  0.27528284483E+01  0.36969280648E+01  0.51100000000E-03 0.  1.
        -11    1    3    3    0    0  0.20819100279E+02  0.11230110922E+02  0.75480686228E+00  0.23666855757E+02  0.51100000000E-03 0. -1.
        -12    1    3    3    0    0  0.93362440576E+01  0.84881430285E+01  0.19426967132E+02  0.23165083146E+02  0.00000000000E+00 0.  1.
</event>
<event>
 7    1  0.2584640E-011  0.5052892E+02  0.7816164E-02  0.1300439E+00
        -11   -1    0    0    0    0  0.00000000000E+00  0.00000000000E+00  0.45593999997E+02  0.45594000000E+02  0.51100000000E-03 0.  1.
         11   -1    0    0    0    0 -0.00000000000E+00 -0.00000000000E+00 -0.45593999997E+02  0.45594000000E+02  0.51100000000E-03 0. -1.
    9900012    2    1    2    0    0 -0.24736068522E+02 -0.81521345903E+01 -0.31222274264E+02  0.50528919901E+02  0.30000182531E+02 0.  0.
        -12    1    1    2    0    0  0.24736068522E+02  0.81521345903E+01  0.31222274264E+02  0.40659080099E+02  0.00000000000E+00 0.  1.
         11    1    3    3    0    0 -0.61377866136E+01  0.99919159597E+01 -0.87232809835E+01  0.14615281059E+02  0.51100000000E-03 0. -1.
        -11    1    3    3    0    0 -0.17134660213E+01 -0.81667689816E+01 -0.75567200783E+01  0.11257712912E+02  0.51100000000E-03 0.  1.
        -12    1    3    3    0    0 -0.16884815887E+02 -0.99772815684E+01 -0.14942273202E+02  0.24655925930E+02  0.00000000000E+00 0.  1.
</event>
<event>
 7    1  0.2584640E-011  0.5052886E+02  0.7816164E-02  0.1300439E+00
        -11   -1    0    0    0    0  0.00000000000E+00  0.00000000000E+00  0.45593999997E+02  0.45594000000E+02  0.51100000000E-03 0. -1.
         11   -1    0    0    0    0 -0.00000000000E+00 -0.00000000000E+00 -0.45593999997E+02  0.45594000000E+02  0.51100000000E-03 0.  1.
    9900012    2    1    2    0    0 -0.45525245150E+01 -0.16848587475E+02  0.36722818004E+02  0.50528859066E+02  0.29999997618E+02 0.  0.
        -12    1    1    2    0    0  0.45525245150E+01  0.16848587475E+02 -0.36722818004E+02  0.40659140934E+02  0.00000000000E+00 0.  1.
         11    1    3    3    0    0  0.19242625299E+01 -0.11971552647E+02  0.17427442265E+02  0.21230558241E+02  0.51100000000E-03 0. -1.
        -11    1    3    3    0    0  0.49763612708E+01  0.38403671458E+01  0.15962081445E+01  0.64854045374E+01  0.51100000000E-03 0.  1.
         12    1    3    3    0    0 -0.11453148316E+02 -0.87174019734E+01  0.17699167594E+02  0.22812896287E+02  0.00000000000E+00 0. -1.
</event>
<event>
 7    1  0.2584640E-011  0.5052886E+02  0.7816164E-02  0.1300439E+00
        -11   -1    0    0    0    0  0.00000000000E+00  0.00000000000E+00  0.45593999997E+02  0.45594000000E+02  0.51100000000E-03 0.  1.
         11   -1    0    0    0    0 -0.00000000000E+00 -0.00000000000E+00 -0.45593999997E+02  0.45594000000E+02  0.51100000000E-03 0. -1.
    9900012    2    1    2    0    0 -0.22476862978E+02  0.31577664737E+02  0.12280369518E+02  0.50528858899E+02  0.29999997110E+02 0.  0.
        -12    1    1    2    0    0  0.22476862978E+02 -0.31577664737E+02 -0.12280369518E+02  0.40659141101E+02  0.00000000000E+00 0.  1.
         11    1    3    3    0    0 -0.36882376901E+01 -0.32290699766E+01  0.24779536403E+01  0.54927447307E+01  0.51100000000E-03 0. -1.
        -11    1    3    3    0    0 -0.98965945429E-01  0.79338554471E+01 -0.47133236830E+01  0.92288285777E+01  0.51100000000E-03 0.  1.
         12    1    3    3    0    0 -0.18689659342E+02  0.26872879267E+02  0.14515739561E+02  0.35807285591E+02  0.00000000000E+00 0. -1.
</event>
<event>
 7    1  0.2584640E-011  0.5052884E+02  0.7816164E-02  0.1300439E+00
        -11   -1    0    0    0    0  0.00000000000E+00  0.00000000000E+00  0.45593999997E+02  0.45594000000E+02  0.51100000000E-03 0.  1.
         11   -1    0    0    0    0 -0.00000000000E+00 -0.00000000000E+00 -0.45593999997E+02  0.45594000000E+02  0.51100000000E-03 0. -1.
    9900012    2    1    2    0    0 -0.16913808553E+02  0.32244527953E+02 -0.18093656224E+02  0.50528844841E+02  0.29999954379E+02 0.  0.
        -12    1    1    2    0    0  0.16913808553E+02 -0.32244527953E+02  0.18093656224E+02  0.40659155159E+02  0.00000000000E+00 0.  1.
         11    1    3    3    0    0 -0.28097252893E+01  0.18974994477E+00 -0.13527228847E+01  0.31241672022E+01  0.51100000000E-03 0. -1.
        -11    1    3    3    0    0 -0.12317392077E+02  0.98371295103E+00 -0.91341856309E+01  0.15366170185E+02  0.51100000000E-03 0.  1.
         12    1    3    3    0    0 -0.17866911867E+01  0.31071065057E+02 -0.76067477088E+01  0.32038507454E+02  0.00000000000E+00 0. -1.
</event>
<event>
 7    1  0.2584640E-011  0.5052886E+02  0.7816164E-02  0.1300439E+00
        -11   -1    0    0    0    0  0.00000000000E+00  0.00000000000E+00  0.45593999997E+02  0.45594000000E+02  0.51100000000E-03 0. -1.
         11   -1    0    0    0    0 -0.00000000000E+00 -0.00000000000E+00 -0.45593999997E+02  0.45594000000E+02  0.51100000000E-03 0.  1.
    9900012    2    1    2    0    0  0.22925724720E+02 -0.32401081630E+02 -0.88174134350E+01  0.50528859276E+02  0.29999998256E+02 0.  0.
        -12    1    1    2    0    0 -0.22925724720E+02  0.32401081630E+02  0.88174134350E+01  0.40659140724E+02  0.00000000000E+00 0.  1.
         11    1    3    3    0    0  0.33065081504E+01 -0.33972363871E+01  0.60785967200E+01  0.77086671717E+01  0.51100000000E-03 0.  1.
        -11    1    3    3    0    0  0.79022879646E+01 -0.24275452749E+02 -0.16013303279E+02  0.30135853122E+02  0.51100000000E-03 0. -1.
         12    1    3    3    0    0  0.11716928605E+02 -0.47283924945E+01  0.11172931235E+01  0.12684338983E+02  0.00000000000E+00 0. -1.
</event>
<event>
 7    1  0.2584640E-011  0.5052887E+02  0.7816164E-02  0.1300439E+00
        -11   -1    0    0    0    0  0.00000000000E+00  0.00000000000E+00  0.45593999997E+02  0.45594000000E+02  0.51100000000E-03 0.  1.
         11   -1    0    0    0    0 -0.00000000000E+00 -0.00000000000E+00 -0.45593999997E+02  0.45594000000E+02  0.51100000000E-03 0. -1.
    9900012    2    1    2    0    0 -0.28828858455E+02 -0.20659199669E+02 -0.19881137453E+02  0.50528865268E+02  0.30000016469E+02 0.  0.
        -12    1    1    2    0    0  0.28828858455E+02  0.20659199669E+02  0.19881137453E+02  0.40659134732E+02  0.00000000000E+00 0.  1.
         11    1    3    3    0    0 -0.35973492670E+01 -0.10456750615E+02 -0.13442873139E+01  0.11139643793E+02  0.51100000000E-03 0. -1.
        -11    1    3    3    0    0 -0.20321099597E+02 -0.16796691818E+02 -0.15736876029E+02  0.30703830580E+02  0.51100000000E-03 0.  1.
        -12    1    3    3    0    0 -0.49104095907E+01  0.65942427651E+01 -0.27999741097E+01  0.86853908956E+01  0.00000000000E+00 0.  1.
</event>
<event>
 7    1  0.2584640E-011  0.5052883E+02  0.7816164E-02  0.1300439E+00
        -11   -1    0    0    0    0  0.00000000000E+00  0.00000000000E+00  0.45593999997E+02  0.45594000000E+02  0.51100000000E-03 0.  1.
         11   -1    0    0    0    0 -0.00000000000E+00 -0.00000000000E+00 -0.45593999997E+02  0.45594000000E+02  0.51100000000E-03 0. -1.
    9900012    2    1    2    0    0 -0.22208539993E+02  0.34014063310E+02 -0.17298991818E+01  0.50528827571E+02  0.29999901883E+02 0.  0.
        -12    1    1    2    0    0  0.22208539993E+02 -0.34014063310E+02  0.17298991818E+01  0.40659172429E+02  0.00000000000E+00 0.  1.
         11    1    3    3    0    0 -0.22641653800E+01 -0.19300742401E+01 -0.54452975886E+00  0.30245899490E+01  0.51100000000E-03 0. -1.
        -11    1    3    3    0    0 -0.70741245517E+01  0.16435407082E+02 -0.12210697087E+02  0.21662570663E+02  0.51100000000E-03 0.  1.
         12    1    3    3    0    0 -0.12870250061E+02  0.19508730468E+02  0.11025327664E+02  0.25841666958E+02  0.00000000000E+00 0. -1.
</event>
<event>
 7    1  0.2584640E-011  0.5052886E+02  0.7816164E-02  0.1300439E+00
        -11   -1    0    0    0    0  0.00000000000E+00  0.00000000000E+00  0.45593999997E+02  0.45594000000E+02  0.51100000000E-03 0. -1.
         11   -1    0    0    0    0 -0.00000000000E+00 -0.00000000000E+00 -0.45593999997E+02  0.45594000000E+02  0.51100000000E-03 0.  1.
    9900012    2    1    2    0    0 -0.14058773296E+02 -0.37432968621E+02 -0.73681466944E+01  0.50528857952E+02  0.29999994231E+02 0.  0.
        -12    1    1    2    0    0  0.14058773296E+02  0.37432968621E+02  0.73681466944E+01  0.40659142048E+02  0.00000000000E+00 0.  1.
         11    1    3    3    0    0 -0.21412743436E+01  0.14147877025E+01  0.25407123614E+01  0.36113570333E+01  0.51100000000E-03 0. -1.
        -11    1    3    3    0    0 -0.16544505473E+01 -0.36644600704E+01 -0.94447665169E+01  0.10264944668E+02  0.51100000000E-03 0.  1.
         12    1    3    3    0    0 -0.10263048405E+02 -0.35183296253E+02 -0.46409253881E+00  0.36652556250E+02  0.00000000000E+00 0. -1.
</event>
<event>
 7    1  0.2584640E-011  0.5052885E+02  0.7816164E-02  0.1300439E+00
        -11   -1    0    0    0    0  0.00000000000E+00  0.00000000000E+00  0.45593999997E+02  0.45594000000E+02  0.51100000000E-03 0. -1.
         11   -1    0    0    0    0 -0.00000000000E+00 -0.00000000000E+00 -0.45593999997E+02  0.45594000000E+02  0.51100000000E-03 0.  1.
    9900012    2    1    2    0    0 -0.34461782783E+02  0.19896902573E+02  0.83465775968E+01  0.50528848974E+02  0.29999966941E+02 0.  0.
        -12    1    1    2    0    0  0.34461782783E+02 -0.19896902573E+02 -0.83465775968E+01  0.40659151026E+02  0.00000000000E+00 0.  1.
         11    1    3    3    0    0 -0.12741209880E+02  0.33700562131E+01  0.35434501710E+01  0.13647408086E+02  0.51100000000E-03 0. -1.
        -11    1    3    3    0    0 -0.68795145987E+01 -0.40559823987E+01 -0.52825740282E+01  0.95751920585E+01  0.51100000000E-03 0.  1.
        -12    1    3    3    0    0 -0.14841058304E+02  0.20582828759E+02  0.10085701454E+02  0.27306248829E+02  0.00000000000E+00 0.  1.
</event>
<event>
 7    1  0.2584640E-011  0.5052886E+02  0.7816164E-02  0.1300439E+00
        -11   -1    0    0    0    0  0.00000000000E+00  0.00000000000E+00  0.45593999997E+02  0.45594000000E+02  0.51100000000E-03 0.  1.
         11   -1    0    0    0    0 -0.00000000000E+00 -0.00000000000E+00 -0.45593999997E+02  0.45594000000E+02  0.51100000000E-03 0. -1.
    9900012    2    1    2    0    0  0.14338827379E+02 -0.10802614755E+02 -0.36481058290E+02  0.50528855025E+02  0.29999985333E+02 0.  0.
        -12    1    1    2    0    0 -0.14338827379E+02  0.10802614755E+02  0.36481058290E+02  0.40659144975E+02  0.00000000000E+00 0.  1.
         11    1    3    3    0    0  0.11477657452E+02 -0.76814683433E+01 -0.63379513271E+01  0.15195762691E+02  0.51100000000E-03 0. -1.
        -11    1    3    3    0    0 -0.38588873849E+01  0.46107694232E+01 -0.39133706929E+01  0.71738885525E+01  0.51100000000E-03 0.  1.
         12    1    3    3    0    0  0.67200573119E+01 -0.77319158353E+01 -0.26229736270E+02  0.28159203781E+02  0.00000000000E+00 0. -1.
</event>
<event>
 7    1  0.2584640E-011  0.5052886E+02  0.7816164E-02  0.1300439E+00
        -11   -1    0    0    0    0  0.00000000000E+00  0.00000000000E+00  0.45593999997E+02  0.45594000000E+02  0.51100000000E-03 0. -1.
         11   -1    0    0    0    0 -0.00000000000E+00 -0.00000000000E+00 -0.45593999997E+02  0.45594000000E+02  0.51100000000E-03 0.  1.
    9900012    2    1    2    0    0 -0.39622913274E+02 -0.30830349386E+01  0.85840085809E+01  0.50528861248E+02  0.30000004249E+02 0.  0.
        -12    1    1    2    0    0  0.39622913274E+02  0.30830349386E+01 -0.85840085809E+01  0.40659138752E+02  0.00000000000E+00 0.  1.
         11    1    3    3    0    0 -0.16437294222E+02  0.48474614588E+01 -0.63697537473E+01  0.18282677238E+02  0.51100000000E-03 0. -1.
        -11    1    3    3    0    0  0.10025102538E+01  0.20277992662E+01  0.21580623117E+01  0.31263764769E+01  0.51100000000E-03 0.  1.
         12    1    3    3    0    0 -0.24188129306E+02 -0.99582956636E+01  0.12795700017E+02  0.29119807533E+02  0.00000000000E+00 0. -1.
</event>
<event>
 7    1  0.2584640E-011  0.5052888E+02  0.7816164E-02  0.1300439E+00
        -11   -1    0    0    0    0  0.00000000000E+00  0.00000000000E+00  0.45593999997E+02  0.45594000000E+02  0.51100000000E-03 0.  1.
         11   -1    0    0    0    0 -0.00000000000E+00 -0.00000000000E+00 -0.45593999997E+02  0.45594000000E+02  0.51100000000E-03 0. -1.
    9900012    2    1    2    0    0 -0.20977866558E+02 -0.25373227849E+02 -0.23859853334E+02  0.50528878294E+02  0.30000056063E+02 0.  0.
        -12    1    1    2    0    0  0.20977866558E+02  0.25373227849E+02  0.23859853334E+02  0.40659121706E+02  0.00000000000E+00 0.  1.
         11    1    3    3    0    0 -0.20656196636E+01  0.13647810594E+01 -0.30533938721E+01  0.39309828712E+01  0.51100000000E-03 0. -1.
        -11    1    3    3    0    0 -0.40757171260E+01 -0.66428615113E+01  0.60905709639E+01  0.98911138947E+01  0.51100000000E-03 0.  1.
         12    1    3    3    0    0 -0.14836529768E+02 -0.20095147397E+02 -0.26897030425E+02  0.36706781528E+02  0.00000000000E+00 0. -1.
</event>
<event>
 7    1  0.2584640E-011  0.5052881E+02  0.7816164E-02  0.1300439E+00
        -11   -1    0    0    0    0  0.00000000000E+00  0.00000000000E+00  0.45593999997E+02  0.45594000000E+02  0.51100000000E-03 0.  1.
         11   -1    0    0    0    0 -0.00000000000E+00 -0.00000000000E+00 -0.45593999997E+02  0.45594000000E+02  0.51100000000E-03 0. -1.
    9900012    2    1    2    0    0  0.55385002846E+01 -0.29432896258E+02 -0.27499085406E+02  0.50528805889E+02  0.29999835981E+02 0.  0.
        -12    1    1    2    0    0 -0.55385002846E+01  0.29432896258E+02  0.27499085406E+02  0.40659194111E+02  0.00000000000E+00 0.  1.
         11    1    3    3    0    0  0.72234759498E+01 -0.90684212645E+01 -0.20338547525E+01  0.11770787333E+02  0.51100000000E-03 0. -1.
        -11    1    3    3    0    0 -0.88435760608E+00 -0.24741922392E+02 -0.21951932000E+02  0.33088247624E+02  0.51100000000E-03 0.  1.
        -12    1    3    3    0    0 -0.80061805912E+00  0.43774473981E+01 -0.35132986537E+01  0.56697709327E+01  0.00000000000E+00 0.  1.
</event>
<event>
 7    1  0.2584640E-011  0.5052886E+02  0.7816164E-02  0.1300439E+00
        -11   -1    0    0    0    0  0.00000000000E+00  0.00000000000E+00  0.45593999997E+02  0.45594000000E+02  0.51100000000E-03 0.  1.
         11   -1    0    0    0    0 -0.00000000000E+00 -0.00000000000E+00 -0.45593999997E+02  0.45594000000E+02  0.51100000000E-03 0. -1.
    9900012    2    1    2    0    0 -0.11319217469E+02  0.25662498602E+01 -0.38967360413E+02  0.50528862036E+02  0.30000006644E+02 0.  0.
        -12    1    1    2    0    0  0.11319217469E+02 -0.25662498602E+01  0.38967360413E+02  0.40659137964E+02  0.00000000000E+00 0.  1.
         11    1    3    3    0    0 -0.13286129447E+02 -0.38177281775E+01 -0.37563490796E+02  0.40026392858E+02  0.51100000000E-03 0. -1.
        -11    1    3    3    0    0 -0.34408250643E+00  0.34572088256E+01 -0.44792869928E+01  0.56687474684E+01  0.51100000000E-03 0.  1.
        -12    1    3    3    0    0  0.23109944844E+01  0.29267692121E+01  0.30754173764E+01  0.48337217097E+01  0.00000000000E+00 0.  1.
</event>
<event>
 7    1  0.2584640E-011  0.5052889E+02  0.7816164E-02  0.1300439E+00
        -11   -1    0    0    0    0  0.00000000000E+00  0.00000000000E+00  0.45593999997E+02  0.45594000000E+02  0.51100000000E-03 0.  1.
         11   -1    0    0    0    0 -0.00000000000E+00 -0.00000000000E+00 -0.45593999997E+02  0.45594000000E+02  0.51100000000E-03 0. -1.
    9900012    2    1    2    0    0 -0.31494641231E+02 -0.30753686924E+01 -0.25530234458E+02  0.50528890438E+02  0.30000092976E+02 0.  0.
        -12    1    1    2    0    0  0.31494641231E+02  0.30753686924E+01  0.25530234458E+02  0.40659109562E+02  0.00000000000E+00 0.  1.
         11    1    3    3    0    0 -0.20287729948E+01  0.55489254281E+00 -0.17526609177E+02  0.17652361177E+02  0.51100000000E-03 0. -1.
        -11    1    3    3    0    0 -0.18549301662E+02 -0.26403067323E+01 -0.10716410767E+02  0.21584468299E+02  0.51100000000E-03 0.  1.
        -12    1    3    3    0    0 -0.10916566574E+02 -0.98995450296E+00  0.27127854855E+01  0.11292060963E+02  0.00000000000E+00 0.  1.
</event>
<event>
 7    1  0.2584640E-011  0.5052886E+02  0.7816164E-02  0.1300439E+00
        -11   -1    0    0    0    0  0.00000000000E+00  0.00000000000E+00  0.45593999997E+02  0.45594000000E+02  0.51100000000E-03 0.  1.
         11   -1    0    0    0    0 -0.00000000000E+00 -0.00000000000E+00 -0.45593999997E+02  0.45594000000E+02  0.51100000000E-03 0. -1.
    9900012    2    1    2    0    0  0.37286860068E+01  0.20603341018E+02 -0.34853482030E+02  0.50528856255E+02  0.29999989073E+02 0.  0.
        -12    1    1    2    0    0 -0.37286860068E+01 -0.20603341018E+02  0.34853482030E+02  0.40659143745E+02  0.00000000000E+00 0.  1.
         11    1    3    3    0    0  0.68675298348E+01  0.54589433266E+01 -0.73288348312E+00  0.88034167649E+01  0.51100000000E-03 0.  1.
        -11    1    3    3    0    0  0.72516904927E+01  0.10080492607E+02 -0.18871051096E+02  0.22590261529E+02  0.51100000000E-03 0. -1.
        -12    1    3    3    0    0 -0.10390534321E+02  0.50639050851E+01 -0.15249547450E+02  0.19135177961E+02  0.00000000000E+00 0.  1.
</event>
<event>
 7    1  0.2584640E-011  0.5052886E+02  0.7816164E-02  0.1300439E+00
        -11   -1    0    0    0    0  0.00000000000E+00  0.00000000000E+00  0.45593999997E+02  0.45594000000E+02  0.51100000000E-03 0.  1.
         11   -1    0    0    0    0 -0.00000000000E+00 -0.00000000000E+00 -0.45593999997E+02  0.45594000000E+02  0.51100000000E-03 0. -1.
    9900012    2    1    2    0    0 -0.22045594322E+01 -0.40597484863E+02 -0.38731515715E+00  0.50528857454E+02  0.29999992718E+02 0.  0.
        -12    1    1    2    0    0  0.22045594322E+01  0.40597484863E+02  0.38731515715E+00  0.40659142546E+02  0.00000000000E+00 0.  1.
         11    1    3    3    0    0  0.10415380282E+02 -0.62358590076E+01 -0.13630382938E+01  0.12215725833E+02  0.51100000000E-03 0. -1.
        -11    1    3    3    0    0 -0.22569457454E+01 -0.30962782404E+01  0.36173547277E+01  0.52693451706E+01  0.51100000000E-03 0.  1.
         12    1    3    3    0    0 -0.10362993969E+02 -0.31265347615E+02 -0.26416315911E+01  0.33043786450E+02  0.00000000000E+00 0. -1.
</event>
<event>
 7    1  0.2584640E-011  0.5052891E+02  0.7816164E-02  0.1300439E+00
        -11   -1    0    0    0    0  0.00000000000E+00  0.00000000000E+00  0.45593999997E+02  0.45594000000E+02  0.51100000000E-03 0. -1.
         11   -1    0    0    0    0 -0.00000000000E+00 -0.00000000000E+00 -0.45593999997E+02  0.45594000000E+02  0.51100000000E-03 0.  1.
    9900012    2    1    2    0    0  0.20113380297E+02 -0.22919343252E+02  0.26894561822E+02  0.50528907318E+02  0.30000144284E+02 0.  0.
        -12    1    1    2    0    0 -0.20113380297E+02  0.22919343252E+02 -0.26894561822E+02  0.40659092682E+02  0.00000000000E+00 0.  1.
         11    1    3    3    0    0  0.19375883638E+02 -0.87230813738E+01  0.10989536917E+02  0.23922519460E+02  0.51100000000E-03 0. -1.
        -11    1    3    3    0    0  0.26382606253E+01  0.29470768003E+01  0.41511171206E+01  0.57338865008E+01  0.51100000000E-03 0.  1.
         12    1    3    3    0    0 -0.19007639655E+01 -0.17143338679E+02  0.11753907785E+02  0.20872501358E+02  0.00000000000E+00 0. -1.
</event>
<event>
 7    1  0.2584640E-011  0.5052886E+02  0.7816164E-02  0.1300439E+00
        -11   -1    0    0    0    0  0.00000000000E+00  0.00000000000E+00  0.45593999997E+02  0.45594000000E+02  0.51100000000E-03 0. -1.
         11   -1    0    0    0    0 -0.00000000000E+00 -0.00000000000E+00 -0.45593999997E+02  0.45594000000E+02  0.51100000000E-03 0.  1.
    9900012    2    1    2    0    0 -0.18631824688E+02  0.91797928626E+01  0.34953570040E+02  0.50528861461E+02  0.30000004897E+02 0.  0.
        -12    1    1    2    0    0  0.18631824688E+02 -0.91797928626E+01 -0.34953570040E+02  0.40659138539E+02  0.00000000000E+00 0.  1.
         11    1    3    3    0    0 -0.10860124581E+02 -0.89583729447E+01  0.11352257986E+02  0.18085035620E+02  0.51100000000E-03 0. -1.
        -11    1    3    3    0    0 -0.91525903660E+01  0.86284012169E+01  0.12063044813E+02  0.17428031110E+02  0.51100000000E-03 0.  1.
        -12    1    3    3    0    0  0.13808902596E+01  0.95097645903E+01  0.11538267241E+02  0.15015794731E+02  0.00000000000E+00 0.  1.
</event>
<event>
 7    1  0.2584640E-011  0.5052885E+02  0.7816164E-02  0.1300439E+00
        -11   -1    0    0    0    0  0.00000000000E+00  0.00000000000E+00  0.45593999997E+02  0.45594000000E+02  0.51100000000E-03 0.  1.
         11   -1    0    0    0    0 -0.00000000000E+00 -0.00000000000E+00 -0.45593999997E+02  0.45594000000E+02  0.51100000000E-03 0. -1.
    9900012    2    1    2    0    0 -0.35211376215E+02  0.10048558015E+02 -0.17673474939E+02  0.50528852818E+02  0.29999978627E+02 0.  0.
        -12    1    1    2    0    0  0.35211376215E+02 -0.10048558015E+02  0.17673474939E+02  0.40659147182E+02  0.00000000000E+00 0.  1.
         11    1    3    3    0    0 -0.90370629261E+01  0.52805990388E+01 -0.15130931341E+02  0.18398323729E+02  0.51100000000E-03 0. -1.
        -11    1    3    3    0    0 -0.14619941738E+01 -0.38083969595E+01  0.33945468970E+01  0.53070013437E+01  0.51100000000E-03 0.  1.
        -12    1    3    3    0    0 -0.24712319115E+02  0.85763559359E+01 -0.59370904950E+01  0.26823527745E+02  0.00000000000E+00 0.  1.
</event>
<event>
 7    1  0.2584640E-011  0.5052886E+02  0.7816164E-02  0.1300439E+00
        -11   -1    0    0    0    0  0.00000000000E+00  0.00000000000E+00  0.45593999997E+02  0.45594000000E+02  0.51100000000E-03 0.  1.
         11   -1    0    0    0    0 -0.00000000000E+00 -0.00000000000E+00 -0.45593999997E+02  0.45594000000E+02  0.51100000000E-03 0. -1.
    9900012    2    1    2    0    0 -0.40593228609E+02  0.16323852640E+01 -0.16404432835E+01  0.50528856566E+02  0.29999990019E+02 0.  0.
        -12    1    1    2    0    0  0.40593228609E+02 -0.16323852640E+01  0.16404432835E+01  0.40659143434E+02  0.00000000000E+00 0.  1.
         11    1    3    3    0    0 -0.19654014191E+02 -0.70377932264E+01  0.48012960861E+01  0.21421093616E+02  0.51100000000E-03 0. -1.
        -11    1    3    3    0    0 -0.22334472915E+01 -0.45071153353E+01  0.83160276996E+00  0.50984251370E+01  0.51100000000E-03 0.  1.
         12    1    3    3    0    0 -0.18705767127E+02  0.13177293826E+02 -0.72733421396E+01  0.24009337813E+02  0.00000000000E+00 0. -1.
</event>
<event>
 7    1  0.3806781E-011  0.5052885E+02  0.7816164E-02  0.1300439E+00
        -11   -1    0    0    0    0  0.00000000000E+00  0.00000000000E+00  0.45593999997E+02  0.45594000000E+02  0.51100000000E-03 0. -1.
         11   -1    0    0    0    0 -0.00000000000E+00 -0.00000000000E+00 -0.45593999997E+02  0.45594000000E+02  0.51100000000E-03 0.  1.
    9900012    2    1    2    0    0 -0.29987162551E+02  0.14567758462E+02  0.23274805790E+02  0.50528854792E+02  0.29999984627E+02 0.  0.
        -12    1    1    2    0    0  0.29987162551E+02 -0.14567758462E+02 -0.23274805790E+02  0.40659145208E+02  0.00000000000E+00 0.  1.
         11    1    3    3    0    0 -0.22113777139E+02  0.14435037130E+02  0.21231226670E+02  0.33884427433E+02  0.51100000000E-03 0. -1.
        -11    1    3    3    0    0 -0.80020287700E+01  0.40116520550E+01 -0.37219980501E+01  0.96942811179E+01  0.51100000000E-03 0.  1.
        -12    1    3    3    0    0  0.12864335783E+00 -0.38789307237E+01  0.57655771700E+01  0.69501462414E+01  0.00000000000E+00 0.  1.
</event>
<event>
 7    1  0.2584640E-011  0.5052890E+02  0.7816164E-02  0.1300439E+00
        -11   -1    0    0    0    0  0.00000000000E+00  0.00000000000E+00  0.45593999997E+02  0.45594000000E+02  0.51100000000E-03 0.  1.
         11   -1    0    0    0    0 -0.00000000000E+00 -0.00000000000E+00 -0.45593999997E+02  0.45594000000E+02  0.51100000000E-03 0. -1.
    9900012    2    1    2    0    0  0.20095654184E+02  0.16183721888E+02 -0.31423151647E+02  0.50528897321E+02  0.30000113897E+02 0.  0.
        -12    1    1    2    0    0 -0.20095654184E+02 -0.16183721888E+02  0.31423151647E+02  0.40659102679E+02  0.00000000000E+00 0.  1.
         11    1    3    3    0    0  0.14288505352E+02  0.20713519394E+02 -0.27333899542E+02  0.37153106671E+02  0.51100000000E-03 0. -1.
        -11    1    3    3    0    0  0.82532244509E+01 -0.83015033161E+00 -0.28486173053E+01  0.87703753753E+01  0.51100000000E-03 0.  1.
        -12    1    3    3    0    0 -0.24460756191E+01 -0.36996471745E+01 -0.12406347998E+01  0.46054152751E+01  0.00000000000E+00 0.  1.
</event>
<event>
 7    1  0.2584640E-011  0.5052887E+02  0.7816164E-02  0.1300439E+00
        -11   -1    0    0    0    0  0.00000000000E+00  0.00000000000E+00  0.45593999997E+02  0.45594000000E+02  0.51100000000E-03 0.  1.
         11   -1    0    0    0    0 -0.00000000000E+00 -0.00000000000E+00 -0.45593999997E+02  0.45594000000E+02  0.51100000000E-03 0. -1.
    9900012    2    1    2    0    0 -0.26914935918E+02  0.23381837826E+02 -0.19545862222E+02  0.50528870084E+02  0.30000031106E+02 0.  0.
        -12    1    1    2    0    0  0.26914935918E+02 -0.23381837826E+02  0.19545862222E+02  0.40659129916E+02  0.00000000000E+00 0.  1.
         11    1    3    3    0    0 -0.39187347536E+01 -0.16151158053E+00 -0.24709792766E+01  0.46355481775E+01  0.51100000000E-03 0. -1.
        -11    1    3    3    0    0  0.36120647923E+01  0.60479844528E+01  0.36146420936E+01  0.79177500422E+01  0.51100000000E-03 0.  1.
        -12    1    3    3    0    0 -0.26608265956E+02  0.17495364954E+02 -0.20689525039E+02  0.37975571864E+02  0.00000000000E+00 0.  1.
</event>
<event>
 7    1  0.2584640E-011  0.5052886E+02  0.7816164E-02  0.1300439E+00
        -11   -1    0    0    0    0  0.00000000000E+00  0.00000000000E+00  0.45593999997E+02  0.45594000000E+02  0.51100000000E-03 0.  1.
         11   -1    0    0    0    0 -0.00000000000E+00 -0.00000000000E+00 -0.45593999997E+02  0.45594000000E+02  0.51100000000E-03 0. -1.
    9900012    2    1    2    0    0 -0.34502495903E+02 -0.18753549910E+02  0.10537931101E+02  0.50528857736E+02  0.29999993573E+02 0.  0.
        -12    1    1    2    0    0  0.34502495903E+02  0.18753549910E+02 -0.10537931101E+02  0.40659142264E+02  0.00000000000E+00 0.  1.
         11    1    3    3    0    0  0.99129153624E+00  0.26593142345E+01  0.44820520971E+01  0.53050355672E+01  0.51100000000E-03 0. -1.
        -11    1    3    3    0    0 -0.15523431009E+02 -0.14284794538E+02  0.10491291992E+02  0.23560549086E+02  0.51100000000E-03 0.  1.
         12    1    3    3    0    0 -0.19970356430E+02 -0.71280696070E+01 -0.44354129889E+01  0.21663273083E+02  0.00000000000E+00 0. -1.
</event>
<event>
 7    1  0.2584640E-011  0.5052885E+02  0.7816164E-02  0.1300439E+00
        -11   -1    0    0    0    0  0.00000000000E+00  0.00000000000E+00  0.45593999997E+02  0.45594000000E+02  0.51100000000E-03 0. -1.
         11   -1    0    0    0    0 -0.00000000000E+00 -0.00000000000E+00 -0.45593999997E+02  0.45594000000E+02  0.51100000000E-03 0.  1.
    9900012    2    1    2    0    0 -0.39024926191E+02 -0.47283966410E+01  0.10385743507E+02  0.50528852601E+02  0.29999977967E+02 0.  0.
        -12    1    1    2    0    0  0.39024926191E+02  0.47283966410E+01 -0.10385743507E+02  0.40659147399E+02  0.00000000000E+00 0.  1.
         11    1    3    3    0    0  0.10795888950E+01  0.79110175201E+00 -0.21124903163E+01  0.25007938263E+01  0.51100000000E-03 0. -1.
        -11    1    3    3    0    0 -0.17688143795E+02  0.66275765512E+01 -0.14885098277E+01  0.18947581999E+02  0.51100000000E-03 0.  1.
         12    1    3    3    0    0 -0.22416371291E+02 -0.12147074944E+02  0.13986743651E+02  0.29080476776E+02  0.00000000000E+00 0. -1.
</event>
<event>
 7    1  0.2584640E-011  0.5052885E+02  0.7816164E-02  0.1300439E+00
        -11   -1    0    0    0    0  0.00000000000E+00  0.00000000000E+00  0.45593999997E+02  0.45594000000E+02  0.51100000000E-03 0.  1.
         11   -1    0    0    0    0 -0.00000000000E+00 -0.00000000000E+00 -0.45593999997E+02  0.45594000000E+02  0.51100000000E-03 0. -1.
    9900012    2    1    2    0    0  0.19531008560E+02 -0.12779641423E+01 -0.35638078118E+02  0.50528854661E+02  0.29999984229E+02 0.  0.
        -12    1    1    2    0    0 -0.19531008560E+02  0.12779641423E+01  0.35638078118E+02  0.40659145339E+02  0.00000000000E+00 0.  1.
         11    1    3    3    0    0  0.32176056461E+01 -0.64446628769E+01 -0.16869466944E+02  0.18342998145E+02  0.51100000000E-03 0. -1.
        -11    1    3    3    0    0  0.15235079805E+02  0.95233319841E+00 -0.26532497693E+01  0.15493686772E+02  0.51100000000E-03 0.  1.
         12    1    3    3    0    0  0.10783231091E+01  0.42143655362E+01 -0.16115361404E+02  0.16692169745E+02  0.00000000000E+00 0. -1.
</event>
<event>
 7    1  0.2584640E-011  0.5052886E+02  0.7816164E-02  0.1300439E+00
        -11   -1    0    0    0    0  0.00000000000E+00  0.00000000000E+00  0.45593999997E+02  0.45594000000E+02  0.51100000000E-03 0.  1.
         11   -1    0    0    0    0 -0.00000000000E+00 -0.00000000000E+00 -0.45593999997E+02  0.45594000000E+02  0.51100000000E-03 0. -1.
    9900012    2    1    2    0    0  0.16381586773E+02  0.15610118478E+02 -0.33780665130E+02  0.50528861780E+02  0.30000005868E+02 0.  0.
        -12    1    1    2    0    0 -0.16381586773E+02 -0.15610118478E+02  0.33780665130E+02  0.40659138220E+02  0.00000000000E+00 0.  1.
         11    1    3    3    0    0  0.14793271382E+01  0.15516501973E+02 -0.22164920289E+02  0.27096751354E+02  0.51100000000E-03 0. -1.
        -11    1    3    3    0    0  0.13958515647E+02  0.21063041056E+01 -0.14200274989E+02  0.20023098813E+02  0.51100000000E-03 0.  1.
        -12    1    3    3    0    0  0.94374398850E+00 -0.20126876010E+01  0.25845301479E+01  0.34090116134E+01  0.00000000000E+00 0.  1.
</event>
<event>
 7    1  0.2584640E-011  0.5052886E+02  0.7816164E-02  0.1300439E+00
        -11   -1    0    0    0    0  0.00000000000E+00  0.00000000000E+00  0.45593999997E+02  0.45594000000E+02  0.51100000000E-03 0. -1.
         11   -1    0    0    0    0 -0.00000000000E+00 -0.00000000000E+00 -0.45593999997E+02  0.45594000000E+02  0.51100000000E-03 0.  1.
    9900012    2    1    2    0    0 -0.32432093623E+02 -0.51000003143E+01  0.23985728772E+02  0.50528857305E+02  0.29999992263E+02 0.  0.
        -12    1    1    2    0    0  0.32432093623E+02  0.51000003143E+01 -0.23985728772E+02  0.40659142695E+02  0.00000000000E+00 0.  1.
         11    1    3    3    0    0 -0.25820396009E+01 -0.58308955332E+01  0.42699134514E+01  0.76745314101E+01  0.51100000000E-03 0. -1.
        -11    1    3    3    0    0  0.24906321575E+01  0.47438446005E+01  0.39229085871E+01  0.66405212282E+01  0.51100000000E-03 0.  1.
         12    1    3    3    0    0 -0.32340686180E+02 -0.40129493816E+01  0.15792906733E+02  0.36213804666E+02  0.00000000000E+00 0. -1.
</event>
<event>
 7    1  0.2584640E-011  0.5052886E+02  0.7816164E-02  0.1300439E+00
        -11   -1    0    0    0    0  0.00000000000E+00  0.00000000000E+00  0.45593999997E+02  0.45594000000E+02  0.51100000000E-03 0. -1.
         11   -1    0    0    0    0 -0.00000000000E+00 -0.00000000000E+00 -0.45593999997E+02  0.45594000000E+02  0.51100000000E-03 0.  1.
    9900012    2    1    2    0    0 -0.32738461454E+02 -0.23756184898E+02  0.41233753413E+01  0.50528863223E+02  0.30000010251E+02 0.  0.
        -12    1    1    2    0    0  0.32738461454E+02  0.23756184898E+02 -0.41233753413E+01  0.40659136777E+02  0.00000000000E+00 0.  1.
         11    1    3    3    0    0 -0.14638398530E+02 -0.77357828432E+01  0.77687289319E+01  0.18288745096E+02  0.51100000000E-03 0. -1.
        -11    1    3    3    0    0 -0.83887558774E+01 -0.18800862797E+02  0.19721539547E+01  0.20681708309E+02  0.51100000000E-03 0.  1.
        -12    1    3    3    0    0 -0.97113070470E+01  0.27804607421E+01 -0.56175075453E+01  0.11558409818E+02  0.00000000000E+00 0.  1.
</event>
<event>
 7    1  0.2584640E-011  0.5052885E+02  0.7816164E-02  0.1300439E+00
        -11   -1    0    0    0    0  0.00000000000E+00  0.00000000000E+00  0.45593999997E+02  0.45594000000E+02  0.51100000000E-03 0.  1.
         11   -1    0    0    0    0 -0.00000000000E+00 -0.00000000000E+00 -0.45593999997E+02  0.45594000000E+02  0.51100000000E-03 0. -1.
    9900012    2    1    2    0    0 -0.11223378353E+02  0.27985301512E+02 -0.27276819222E+02  0.50528853559E+02  0.29999980879E+02 0.  0.
        -12    1    1    2    0    0  0.11223378353E+02 -0.27985301512E+02  0.27276819222E+02  0.40659146441E+02  0.00000000000E+00 0.  1.
         11    1    3    3    0    0  0.78012407782E+01  0.12649174777E+02 -0.53293769776E+01  0.15788072696E+02  0.51100000000E-03 0. -1.
        -11    1    3    3    0    0 -0.16313740775E+01 -0.18572214070E+01 -0.19159410794E+01  0.31275362854E+01  0.51100000000E-03 0.  1.
         12    1    3    3    0    0 -0.17393245053E+02  0.17193348142E+02 -0.20031501165E+02  0.31613244578E+02  0.00000000000E+00 0. -1.
</event>
<event>
 7    1  0.2937954E-011  0.5052886E+02  0.7816164E-02  0.1300439E+00
        -11   -1    0    0    0    0  0.00000000000E+00  0.00000000000E+00  0.45593999997E+02  0.45594000000E+02  0.51100000000E-03 0.  1.
         11   -1    0    0    0    0 -0.00000000000E+00 -0.00000000000E+00 -0.45593999997E+02  0.45594000000E+02  0.51100000000E-03 0. -1.
    9900012    2    1    2    0    0 -0.23164454700E+02 -0.41359545683E+00 -0.33412611023E+02  0.50528860829E+02  0.30000002975E+02 0.  0.
        -12    1    1    2    0    0  0.23164454700E+02  0.41359545683E+00  0.33412611023E+02  0.40659139171E+02  0.00000000000E+00 0.  1.
         11    1    3    3    0    0 -0.16258783376E+02 -0.38982421157E+01 -0.27053439384E+02  0.31803033051E+02  0.51100000000E-03 0. -1.
        -11    1    3    3    0    0  0.20079275595E+01 -0.48096921131E+01 -0.33096019441E+01  0.61740081468E+01  0.51100000000E-03 0.  1.
        -12    1    3    3    0    0 -0.89135988840E+01  0.82943387720E+01 -0.30495696947E+01  0.12551819631E+02  0.00000000000E+00 0.  1.
</event>
<event>
 7    1  0.2584640E-011  0.5052886E+02  0.7816164E-02  0.1300439E+00
        -11   -1    0    0    0    0  0.00000000000E+00  0.00000000000E+00  0.45593999997E+02  0.45594000000E+02  0.51100000000E-03 0.  1.
         11   -1    0    0    0    0 -0.00000000000E+00 -0.00000000000E+00 -0.45593999997E+02  0.45594000000E+02  0.51100000000E-03 0. -1.
    9900012    2    1    2    0    0 -0.29468352435E+01  0.95571858079E+00 -0.40540946840E+02  0.50528860725E+02  0.30000002658E+02 0.  0.
        -12    1    1    2    0    0  0.29468352435E+01 -0.95571858079E+00  0.40540946840E+02  0.40659139275E+02  0.00000000000E+00 0.  1.
         11    1    3    3    0    0 -0.38188171703E+01 -0.88124671845E+00  0.41530732927E+00  0.39411217689E+01  0.51100000000E-03 0. -1.
        -11    1    3    3    0    0 -0.24770831851E+01 -0.83373552693E+01 -0.75876183525E+01  0.11542070287E+02  0.51100000000E-03 0.  1.
        -12    1    3    3    0    0  0.33490651118E+01  0.10174320569E+02 -0.33368635817E+02  0.35045668668E+02  0.00000000000E+00 0.  1.
</event>
<event>
 7    1  0.2584640E-011  0.5052886E+02  0.7816164E-02  0.1300439E+00
        -11   -1    0    0    0    0  0.00000000000E+00  0.00000000000E+00  0.45593999997E+02  0.45594000000E+02  0.51100000000E-03 0.  1.
         11   -1    0    0    0    0 -0.00000000000E+00 -0.00000000000E+00 -0.45593999997E+02  0.45594000000E+02  0.51100000000E-03 0. -1.
    9900012    2    1    2    0    0 -0.30793862021E+02 -0.26237688463E+02 -0.40605068458E+01  0.50528856503E+02  0.29999989827E+02 0.  0.
        -12    1    1    2    0    0  0.30793862021E+02  0.26237688463E+02  0.40605068458E+01  0.40659143497E+02  0.00000000000E+00 0.  1.
         11    1    3    3    0    0 -0.36652570474E+01 -0.15407478655E+02 -0.63905220514E+01  0.17078152127E+02  0.51100000000E-03 0. -1.
        -11    1    3    3    0    0 -0.12475607908E+02 -0.13433083606E+02 -0.31333578861E+00  0.18335394935E+02  0.51100000000E-03 0.  1.
        -12    1    3    3    0    0 -0.14652997066E+02  0.26028737980E+01  0.26433509942E+01  0.15115309441E+02  0.00000000000E+00 0.  1.
</event>
<event>
 7    1  0.2584640E-011  0.5052886E+02  0.7816164E-02  0.1300439E+00
        -11   -1    0    0    0    0  0.00000000000E+00  0.00000000000E+00  0.45593999997E+02  0.45594000000E+02  0.51100000000E-03 0. -1.
         11   -1    0    0    0    0 -0.00000000000E+00 -0.00000000000E+00 -0.45593999997E+02  0.45594000000E+02  0.51100000000E-03 0.  1.
    9900012    2    1    2    0    0 -0.24146405080E+01  0.26475953533E+02  0.30762945824E+02  0.50528862773E+02  0.30000008885E+02 0.  0.
        -12    1    1    2    0    0  0.24146405080E+01 -0.26475953533E+02 -0.30762945824E+02  0.40659137227E+02  0.00000000000E+00 0.  1.
         11    1    3    3    0    0  0.37311141064E+01 -0.31939468540E+00  0.59222628038E+01  0.70068839308E+01  0.51100000000E-03 0. -1.
        -11    1    3    3    0    0  0.27149754206E+01 -0.32359608118E+01  0.15545824889E+01  0.45010288697E+01  0.51100000000E-03 0.  1.
         12    1    3    3    0    0 -0.88607300349E+01  0.30031309030E+02  0.23286100531E+02  0.39020949973E+02  0.00000000000E+00 0. -1.
</event>
<event>
 7    1  0.2584640E-011  0.5052886E+02  0.7816164E-02  0.1300439E+00
        -11   -1    0    0    0    0  0.00000000000E+00  0.00000000000E+00  0.45593999997E+02  0.45594000000E+02  0.51100000000E-03 0. -1.
         11   -1    0    0    0    0 -0.00000000000E+00 -0.00000000000E+00 -0.45593999997E+02  0.45594000000E+02  0.51100000000E-03 0.  1.
    9900012    2    1    2    0    0 -0.36785480105E+02  0.12369164072E+02 -0.12124259440E+02  0.50528862855E+02  0.30000009135E+02 0.  0.
        -12    1    1    2    0    0  0.36785480105E+02 -0.12369164072E+02  0.12124259440E+02  0.40659137145E+02  0.00000000000E+00 0.  1.
         11    1    3    3    0    0 -0.33175718250E+02  0.11239561614E+02 -0.36840501314E+01  0.35221133604E+02  0.51100000000E-03 0. -1.
        -11    1    3    3    0    0 -0.46862994606E+01  0.45053828567E+01 -0.39024738636E+00  0.65124627142E+01  0.51100000000E-03 0.  1.
         12    1    3    3    0    0  0.10765376062E+01 -0.33757803988E+01 -0.80499619222E+01  0.87952665376E+01  0.00000000000E+00 0. -1.
</event>
<event>
 7    1  0.2584640E-011  0.5052886E+02  0.7816164E-02  0.1300439E+00
        -11   -1    0    0    0    0  0.00000000000E+00  0.00000000000E+00  0.45593999997E+02  0.45594000000E+02  0.51100000000E-03 0.  1.
         11   -1    0    0    0    0 -0.00000000000E+00 -0.00000000000E+00 -0.45593999997E+02  0.45594000000E+02  0.51100000000E-03 0. -1.
    9900012    2    1    2    0    0 -0.34086940290E+02 -0.96091664062E+01 -0.19972725251E+02  0.50528864110E+02  0.30000012949E+02 0.  0.
        -12    1    1    2    0    0  0.34086940290E+02  0.96091664062E+01  0.19972725251E+02  0.40659135890E+02  0.00000000000E+00 0.  1.
         11    1    3    3    0    0 -0.99998950271E+01 -0.13408790278E+02 -0.91339452772E+01  0.19058397463E+02  0.51100000000E-03 0. -1.
        -11    1    3    3    0    0 -0.10717712657E+02 -0.23501520827E+01 -0.12532923500E+02  0.16657333254E+02  0.51100000000E-03 0.  1.
        -12    1    3    3    0    0 -0.13369332606E+02  0.61497759548E+01  0.16941435263E+01  0.14813133392E+02  0.00000000000E+00 0.  1.
</event>
<event>
 7    1  0.2584640E-011  0.5052886E+02  0.7816164E-02  0.1300439E+00
        -11   -1    0    0    0    0  0.00000000000E+00  0.00000000000E+00  0.45593999997E+02  0.45594000000E+02  0.51100000000E-03 0. -1.
         11   -1    0    0    0    0 -0.00000000000E+00 -0.00000000000E+00 -0.45593999997E+02  0.45594000000E+02  0.51100000000E-03 0.  1.
    9900012    2    1    2    0    0 -0.11186646867E+01 -0.36867003562E+02 -0.17109594855E+02  0.50528860825E+02  0.30000002965E+02 0.  0.
        -12    1    1    2    0    0  0.11186646867E+01  0.36867003562E+02  0.17109594855E+02  0.40659139175E+02  0.00000000000E+00 0.  1.
         11    1    3    3    0    0  0.68014804207E+01 -0.35344319549E+01  0.21655386735E+00  0.76680663140E+01  0.51100000000E-03 0. -1.
        -11    1    3    3    0    0 -0.25304681423E+01 -0.37908590707E+01  0.39717534125E+01  0.60455526583E+01  0.51100000000E-03 0.  1.
        -12    1    3    3    0    0 -0.53896769650E+01 -0.29541712536E+02 -0.21297902135E+02  0.36815241853E+02  0.00000000000E+00 0.  1.
</event>
<event>
 7    1  0.2584640E-011  0.5052887E+02  0.7816164E-02  0.1300439E+00
        -11   -1    0    0    0    0  0.00000000000E+00  0.00000000000E+00  0.45593999997E+02  0.45594000000E+02  0.51100000000E-03 0.  1.
         11   -1    0    0    0    0 -0.00000000000E+00 -0.00000000000E+00 -0.45593999997E+02  0.45594000000E+02  0.51100000000E-03 0. -1.
    9900012    2    1    2    0    0 -0.26143872601E+02 -0.24789361638E+02 -0.18845437425E+02  0.50528867732E+02  0.30000023959E+02 0.  0.
        -12    1    1    2    0    0  0.26143872601E+02  0.24789361638E+02  0.18845437425E+02  0.40659132268E+02  0.00000000000E+00 0.  1.
         11    1    3    3    0    0 -0.17776900375E+02 -0.15736219623E+02 -0.17311590730E+02  0.29382613377E+02  0.51100000000E-03 0. -1.
        -11    1    3    3    0    0 -0.26753526138E+01 -0.13482783682E+02 -0.21288264712E+01  0.13909524429E+02  0.51100000000E-03 0.  1.
         12    1    3    3    0    0 -0.56916196120E+01  0.44296416668E+01  0.59497977602E+00  0.72367299271E+01  0.00000000000E+00 0. -1.
</event>
<event>
 7    1  0.2584640E-011  0.5052886E+02  0.7816164E-02  0.1300439E+00
        -11   -1    0    0    0    0  0.00000000000E+00  0.00000000000E+00  0.45593999997E+02  0.45594000000E+02  0.51100000000E-03 0.  1.
         11   -1    0    0    0    0 -0.00000000000E+00 -0.00000000000E+00 -0.45593999997E+02  0.45594000000E+02  0.51100000000E-03 0. -1.
    9900012    2    1    2    0    0 -0.17481955028E+02  0.25243986308E+02 -0.26651228707E+02  0.50528860955E+02  0.30000003357E+02 0.  0.
        -12    1    1    2    0    0  0.17481955028E+02 -0.25243986308E+02  0.26651228707E+02  0.40659139045E+02  0.00000000000E+00 0.  1.
         11    1    3    3    0    0  0.10201570248E+01  0.23074709702E+01 -0.12362980216E+02  0.12617782004E+02  0.51100000000E-03 0. -1.
        -11    1    3    3    0    0 -0.94002081444E+01 -0.96266740401E+00 -0.26517798277E+01  0.98144066659E+01  0.51100000000E-03 0.  1.
         12    1    3    3    0    0 -0.91019039084E+01  0.23899182742E+02 -0.11636468663E+02  0.28096672284E+02  0.00000000000E+00 0. -1.
</event>
<event>
 7    1  0.2584640E-011  0.5052887E+02  0.7816164E-02  0.1300439E+00
        -11   -1    0    0    0    0  0.00000000000E+00  0.00000000000E+00  0.45593999997E+02  0.45594000000E+02  0.51100000000E-03 0.  1.
         11   -1    0    0    0    0 -0.00000000000E+00 -0.00000000000E+00 -0.45593999997E+02  0.45594000000E+02  0.51100000000E-03 0. -1.
    9900012    2    1    2    0    0 -0.38875439070E+02  0.34082668487E+01  0.11412676031E+02  0.50528865479E+02  0.30000017111E+02 0.  0.
        -12    1    1    2    0    0  0.38875439070E+02 -0.34082668487E+01 -0.11412676031E+02  0.40659134521E+02  0.00000000000E+00 0.  1.
         11    1    3    3    0    0 -0.99247979715E+00  0.31039606025E+01 -0.36165693103E+01  0.48681784485E+01  0.51100000000E-03 0. -1.
        -11    1    3    3    0    0 -0.66327351138E+01 -0.14831098545E+01  0.12536462830E+02  0.14260283675E+02  0.51100000000E-03 0.  1.
        -12    1    3    3    0    0 -0.31250224159E+02  0.17874161008E+01  0.24927825114E+01  0.31400403356E+02  0.00000000000E+00 0.  1.
</event>
<event>
 7    1  0.2584640E-011  0.5052888E+02  0.7816164E-02  0.1300439E+00
        -11   -1    0    0    0    0  0.00000000000E+00  0.00000000000E+00  0.45593999997E+02  0.45594000000E+02  0.51100000000E-03 0.  1.
         11   -1    0    0    0    0 -0.00000000000E+00 -0.00000000000E+00 -0.45593999997E+02  0.45594000000E+02  0.51100000000E-03 0. -1.
    9900012    2    1    2    0    0  0.22757996420E+02 -0.29108023210E+02 -0.16969407359E+02  0.50528877993E+02  0.30000055147E+02 0.  0.
        -12    1    1    2    0    0 -0.22757996420E+02  0.29108023210E+02  0.16969407359E+02  0.40659122007E+02  0.00000000000E+00 0.  1.
         11    1    3    3    0    0  0.45663849062E+01  0.22556361740E+01  0.26005396476E+01  0.57186162995E+01  0.51100000000E-03 0. -1.
        -11    1    3    3    0    0  0.16998184080E+02 -0.20428564338E+02 -0.58266379845E+01  0.27206878053E+02  0.51100000000E-03 0.  1.
         12    1    3    3    0    0  0.11934274343E+01 -0.10935095046E+02 -0.13743309023E+02  0.17603383640E+02  0.00000000000E+00 0. -1.
</event>
<event>
 7    1  0.2584640E-011  0.5052885E+02  0.7816164E-02  0.1300439E+00
        -11   -1    0    0    0    0  0.00000000000E+00  0.00000000000E+00  0.45593999997E+02  0.45594000000E+02  0.51100000000E-03 0.  1.
         11   -1    0    0    0    0 -0.00000000000E+00 -0.00000000000E+00 -0.45593999997E+02  0.45594000000E+02  0.51100000000E-03 0. -1.
    9900012    2    1    2    0    0 -0.86734876488E+01  0.21716552537E+02 -0.33261518969E+02  0.50528847449E+02  0.29999962305E+02 0.  0.
        -12    1    1    2    0    0  0.86734876488E+01 -0.21716552537E+02  0.33261518969E+02  0.40659152551E+02  0.00000000000E+00 0.  1.
         11    1    3    3    0    0 -0.36598676401E+01 -0.39654938055E+01 -0.91434756210E+01  0.10617105018E+02  0.51100000000E-03 0. -1.
        -11    1    3    3    0    0 -0.15608985269E+01  0.39418980421E+01  0.28438564026E+01  0.51051428859E+01  0.51100000000E-03 0.  1.
        -12    1    3    3    0    0 -0.34527214818E+01  0.21740148300E+02 -0.26961899750E+02  0.34806599545E+02  0.00000000000E+00 0.  1.
</event>
<event>
 7    1  0.2584640E-011  0.5052885E+02  0.7816164E-02  0.1300439E+00
        -11   -1    0    0    0    0  0.00000000000E+00  0.00000000000E+00  0.45593999997E+02  0.45594000000E+02  0.51100000000E-03 0. -1.
         11   -1    0    0    0    0 -0.00000000000E+00 -0.00000000000E+00 -0.45593999997E+02  0.45594000000E+02  0.51100000000E-03 0.  1.
    9900012    2    1    2    0    0 -0.10254689492E+00  0.15585972731E+02  0.37553072021E+02  0.50528852443E+02  0.29999977487E+02 0.  0.
        -12    1    1    2    0    0  0.10254689492E+00 -0.15585972731E+02 -0.37553072021E+02  0.40659147557E+02  0.00000000000E+00 0.  1.
         11    1    3    3    0    0 -0.69421391158E+01  0.60321326939E+01  0.27959144355E+01  0.96123388482E+01  0.51100000000E-03 0.  1.
        -11    1    3    3    0    0 -0.34034649310E+01  0.59164460806E+01  0.26223338794E+02  0.27097073745E+02  0.51100000000E-03 0. -1.
         12    1    3    3    0    0  0.10243057152E+02  0.36373939562E+01  0.85338187911E+01  0.13819439850E+02  0.00000000000E+00 0. -1.
</event>
<event>
 7    1  0.2584640E-011  0.5052886E+02  0.7816164E-02  0.1300439E+00
        -11   -1    0    0    0    0  0.00000000000E+00  0.00000000000E+00  0.45593999997E+02  0.45594000000E+02  0.51100000000E-03 0.  1.
         11   -1    0    0    0    0 -0.00000000000E+00 -0.00000000000E+00 -0.45593999997E+02  0.45594000000E+02  0.51100000000E-03 0. -1.
    9900012    2    1    2    0    0  0.24506701175E+02 -0.25025826113E+02 -0.20646920999E+02  0.50528859308E+02  0.29999998351E+02 0.  0.
        -12    1    1    2    0    0 -0.24506701175E+02  0.25025826113E+02  0.20646920999E+02  0.40659140692E+02  0.00000000000E+00 0.  1.
         11    1    3    3    0    0  0.26219504707E+02 -0.83966830956E+01 -0.18870186185E+02  0.33377397157E+02  0.51100000000E-03 0. -1.
        -11    1    3    3    0    0  0.74074929439E+00 -0.33934141595E+01  0.46683928798E+00  0.35045553723E+01  0.51100000000E-03 0.  1.
         12    1    3    3    0    0 -0.24535528263E+01 -0.13235728858E+02 -0.22435741026E+01  0.13646906778E+02  0.00000000000E+00 0. -1.
</event>
<event>
 7    1  0.2584640E-011  0.5052886E+02  0.7816164E-02  0.1300439E+00
        -11   -1    0    0    0    0  0.00000000000E+00  0.00000000000E+00  0.45593999997E+02  0.45594000000E+02  0.51100000000E-03 0.  1.
         11   -1    0    0    0    0 -0.00000000000E+00 -0.00000000000E+00 -0.45593999997E+02  0.45594000000E+02  0.51100000000E-03 0. -1.
    9900012    2    1    2    0    0  0.32963098629E+02 -0.13259879828E+02 -0.19768039110E+02  0.50528860135E+02  0.30000000868E+02 0.  0.
        -12    1    1    2    0    0 -0.32963098629E+02  0.13259879828E+02  0.19768039110E+02  0.40659139865E+02  0.00000000000E+00 0.  1.
         11    1    3    3    0    0 -0.27157655397E+01 -0.11789071662E+01  0.15531725275E+01  0.33432842737E+01  0.51100000000E-03 0. -1.
        -11    1    3    3    0    0  0.47651848246E+01  0.24063739564E+01 -0.97898254735E+01  0.11150708726E+02  0.51100000000E-03 0.  1.
         12    1    3    3    0    0  0.30913679344E+02 -0.14487346618E+02 -0.11531386164E+02  0.36034867136E+02  0.00000000000E+00 0. -1.
</event>
<event>
 7    1  0.2584640E-011  0.5052887E+02  0.7816164E-02  0.1300439E+00
        -11   -1    0    0    0    0  0.00000000000E+00  0.00000000000E+00  0.45593999997E+02  0.45594000000E+02  0.51100000000E-03 0. -1.
         11   -1    0    0    0    0 -0.00000000000E+00 -0.00000000000E+00 -0.45593999997E+02  0.45594000000E+02  0.51100000000E-03 0.  1.
    9900012    2    1    2    0    0  0.28973030645E+02  0.97407572730E+01  0.26811300849E+02  0.50528871748E+02  0.30000036164E+02 0.  0.
        -12    1    1    2    0    0 -0.28973030645E+02 -0.97407572730E+01 -0.26811300849E+02  0.40659128252E+02  0.00000000000E+00 0.  1.
         11    1    3    3    0    0  0.33281554962E+01  0.27601656908E+01  0.11450644489E+02  0.12239787299E+02  0.51100000000E-03 0. -1.
        -11    1    3    3    0    0  0.10532629417E+02 -0.83990442585E+01  0.67949333042E+01  0.15088119358E+02  0.51100000000E-03 0.  1.
         12    1    3    3    0    0  0.15112245733E+02  0.15379635841E+02  0.85657230551E+01  0.23200965091E+02  0.00000000000E+00 0. -1.
</event>
<event>
 7    1  0.2584640E-011  0.5052881E+02  0.7816164E-02  0.1300439E+00
        -11   -1    0    0    0    0  0.00000000000E+00  0.00000000000E+00  0.45593999997E+02  0.45594000000E+02  0.51100000000E-03 0.  1.
         11   -1    0    0    0    0 -0.00000000000E+00 -0.00000000000E+00 -0.45593999997E+02  0.45594000000E+02  0.51100000000E-03 0. -1.
    9900012    2    1    2    0    0 -0.27178330817E+02  0.27669172470E+02  0.12203486159E+02  0.50528808596E+02  0.29999844208E+02 0.  0.
        -12    1    1    2    0    0  0.27178330817E+02 -0.27669172470E+02 -0.12203486159E+02  0.40659191404E+02  0.00000000000E+00 0.  1.
         11    1    3    3    0    0 -0.54986930755E+01  0.72459840311E+01 -0.20685353269E+01  0.93283840389E+01  0.51100000000E-03 0. -1.
        -11    1    3    3    0    0 -0.22985076776E+02  0.69577494112E+01  0.13725799530E+02  0.27660831590E+02  0.51100000000E-03 0.  1.
         12    1    3    3    0    0  0.13054390343E+01  0.13465439028E+02  0.54622195567E+00  0.13539592967E+02  0.00000000000E+00 0. -1.
</event>
<event>
 7    1  0.2584640E-011  0.5052886E+02  0.7816164E-02  0.1300439E+00
        -11   -1    0    0    0    0  0.00000000000E+00  0.00000000000E+00  0.45593999997E+02  0.45594000000E+02  0.51100000000E-03 0.  1.
         11   -1    0    0    0    0 -0.00000000000E+00 -0.00000000000E+00 -0.45593999997E+02  0.45594000000E+02  0.51100000000E-03 0. -1.
    9900012    2    1    2    0    0 -0.29382250582E+02 -0.28057362115E+02 -0.16228745649E+01  0.50528856625E+02  0.29999990198E+02 0.  0.
        -12    1    1    2    0    0  0.29382250582E+02  0.28057362115E+02  0.16228745649E+01  0.40659143375E+02  0.00000000000E+00 0.  1.
         11    1    3    3    0    0 -0.13202342412E+02 -0.17935373516E+02  0.43161446724E+01  0.22684985638E+02  0.51100000000E-03 0. -1.
        -11    1    3    3    0    0 -0.18355517008E+02 -0.44488744978E+01  0.62771115830E+00  0.18897394278E+02  0.51100000000E-03 0.  1.
         12    1    3    3    0    0  0.21756088376E+01 -0.56731141011E+01 -0.65667303957E+01  0.89464767092E+01  0.00000000000E+00 0. -1.
</event>
<event>
 7    1  0.2584640E-011  0.5052886E+02  0.7816164E-02  0.1300439E+00
        -11   -1    0    0    0    0  0.00000000000E+00  0.00000000000E+00  0.45593999997E+02  0.45594000000E+02  0.51100000000E-03 0. -1.
         11   -1    0    0    0    0 -0.00000000000E+00 -0.00000000000E+00 -0.45593999997E+02  0.45594000000E+02  0.51100000000E-03 0.  1.
    9900012    2    1    2    0    0  0.19258203615E+02  0.35692099239E+02 -0.28915372034E+01  0.50528863980E+02  0.30000012553E+02 0.  0.
        -12    1    1    2    0    0 -0.19258203615E+02 -0.35692099239E+02  0.28915372034E+01  0.40659136020E+02  0.00000000000E+00 0.  1.
         11    1    3    3    0    0  0.14831442896E+02  0.25695535085E+02 -0.48528353089E+01  0.30062971119E+02  0.51100000000E-03 0.  1.
        -11    1    3    3    0    0 -0.23734867254E+01 -0.10918173301E+01 -0.50524354638E+01  0.56879353631E+01  0.51100000000E-03 0. -1.
         12    1    3    3    0    0  0.68002474442E+01  0.11088381484E+02  0.70137335693E+01  0.14777957498E+02  0.00000000000E+00 0. -1.
</event>
<event>
 7    1  0.2584640E-011  0.5052883E+02  0.7816164E-02  0.1300439E+00
        -11   -1    0    0    0    0  0.00000000000E+00  0.00000000000E+00  0.45593999997E+02  0.45594000000E+02  0.51100000000E-03 0.  1.
         11   -1    0    0    0    0 -0.00000000000E+00 -0.00000000000E+00 -0.45593999997E+02  0.45594000000E+02  0.51100000000E-03 0. -1.
    9900012    2    1    2    0    0  0.39612892116E+02 -0.84151971267E+01  0.36292204322E+01  0.50528831226E+02  0.29999912995E+02 0.  0.
        -12    1    1    2    0    0 -0.39612892116E+02  0.84151971267E+01 -0.36292204322E+01  0.40659168774E+02  0.00000000000E+00 0.  1.
         11    1    3    3    0    0  0.19091017110E+02 -0.15285481905E+01 -0.87607558766E+01  0.21060727377E+02  0.51100000000E-03 0. -1.
        -11    1    3    3    0    0  0.14200621510E+02 -0.83262015217E+01  0.11616087610E+01  0.16502503393E+02  0.51100000000E-03 0.  1.
        -12    1    3    3    0    0  0.63212534953E+01  0.14395525854E+01  0.11228367548E+02  0.12965600456E+02  0.00000000000E+00 0.  1.
</event>
<event>
 7    1  0.2584640E-011  0.5052886E+02  0.7816164E-02  0.1300439E+00
        -11   -1    0    0    0    0  0.00000000000E+00  0.00000000000E+00  0.45593999997E+02  0.45594000000E+02  0.51100000000E-03 0.  1.
         11   -1    0    0    0    0 -0.00000000000E+00 -0.00000000000E+00 -0.45593999997E+02  0.45594000000E+02  0.51100000000E-03 0. -1.
    9900012    2    1    2    0    0 -0.25126177198E+02  0.14178568769E+02 -0.28649769004E+02  0.50528857647E+02  0.29999993303E+02 0.  0.
        -12    1    1    2    0    0  0.25126177198E+02 -0.14178568769E+02  0.28649769004E+02  0.40659142353E+02  0.00000000000E+00 0.  1.
         11    1    3    3    0    0  0.21101597965E+01 -0.61670687559E+00 -0.25560385059E+01  0.33714143682E+01  0.51100000000E-03 0. -1.
        -11    1    3    3    0    0 -0.12613583788E+02  0.13570064954E+01 -0.24052336722E+02  0.27192992933E+02  0.51100000000E-03 0.  1.
        -12    1    3    3    0    0 -0.14622753206E+02  0.13438269149E+02 -0.20413937766E+01  0.19964450346E+02  0.00000000000E+00 0.  1.
</event>
<event>
 7    1  0.2584640E-011  0.5052887E+02  0.7816164E-02  0.1300439E+00
        -11   -1    0    0    0    0  0.00000000000E+00  0.00000000000E+00  0.45593999997E+02  0.45594000000E+02  0.51100000000E-03 0.  1.
         11   -1    0    0    0    0 -0.00000000000E+00 -0.00000000000E+00 -0.45593999997E+02  0.45594000000E+02  0.51100000000E-03 0. -1.
    9900012    2    1    2    0    0 -0.34436337717E+01  0.36281179465E+02  0.18027265144E+02  0.50528869593E+02  0.30000029615E+02 0.  0.
        -12    1    1    2    0    0  0.34436337717E+01 -0.36281179465E+02 -0.18027265144E+02  0.40659130407E+02  0.00000000000E+00 0.  1.
         11    1    3    3    0    0  0.13094581951E+01  0.25874615530E+02  0.65069237607E+01  0.26712365427E+02  0.51100000000E-03 0. -1.
        -11    1    3    3    0    0  0.63199726272E+01  0.52658750330E+01  0.69895713493E+01  0.10794702487E+02  0.51100000000E-03 0.  1.
        -12    1    3    3    0    0 -0.11073064594E+02  0.51406889016E+01  0.45307700336E+01  0.13021801680E+02  0.00000000000E+00 0.  1.
</event>
<event>
 7    1  0.2584640E-011  0.5052886E+02  0.7816164E-02  0.1300439E+00
        -11   -1    0    0    0    0  0.00000000000E+00  0.00000000000E+00  0.45593999997E+02  0.45594000000E+02  0.51100000000E-03 0.  1.
         11   -1    0    0    0    0 -0.00000000000E+00 -0.00000000000E+00 -0.45593999997E+02  0.45594000000E+02  0.51100000000E-03 0. -1.
    9900012    2    1    2    0    0 -0.86926746562E+01 -0.27397318578E+02 -0.28757429780E+02  0.50528862952E+02  0.30000009428E+02 0.  0.
        -12    1    1    2    0    0  0.86926746562E+01  0.27397318578E+02  0.28757429780E+02  0.40659137048E+02  0.00000000000E+00 0.  1.
         11    1    3    3    0    0  0.18379905800E+01 -0.20389129027E+02 -0.18133185347E+02  0.27347892112E+02  0.51100000000E-03 0. -1.
        -11    1    3    3    0    0 -0.40614525899E+01 -0.11544044215E+02 -0.40129038138E+01  0.12878810165E+02  0.51100000000E-03 0.  1.
         12    1    3    3    0    0 -0.64692126462E+01  0.45358546640E+01 -0.66113406193E+01  0.10302160675E+02  0.00000000000E+00 0. -1.
</event>
<event>
 7    1  0.2584640E-011  0.5052884E+02  0.7816164E-02  0.1300439E+00
        -11   -1    0    0    0    0  0.00000000000E+00  0.00000000000E+00  0.45593999997E+02  0.45594000000E+02  0.51100000000E-03 0.  1.
         11   -1    0    0    0    0 -0.00000000000E+00 -0.00000000000E+00 -0.45593999997E+02  0.45594000000E+02  0.51100000000E-03 0. -1.
    9900012    2    1    2    0    0 -0.18466063775E+02  0.25405761881E+02  0.25820905189E+02  0.50528838759E+02  0.29999935892E+02 0.  0.
        -12    1    1    2    0    0  0.18466063775E+02 -0.25405761881E+02 -0.25820905189E+02  0.40659161241E+02  0.00000000000E+00 0.  1.
         11    1    3    3    0    0  0.10064497162E+01  0.83905977416E+01  0.29609433307E+01  0.89544545988E+01  0.51100000000E-03 0. -1.
        -11    1    3    3    0    0 -0.16501708302E+02  0.22822224526E+02  0.17770480560E+02  0.33300905224E+02  0.51100000000E-03 0.  1.
        -12    1    3    3    0    0 -0.29708051893E+01 -0.58070603872E+01  0.50894812984E+01  0.82734789357E+01  0.00000000000E+00 0.  1.
</event>
<event>
 7    1  0.2584640E-011  0.5052886E+02  0.7816164E-02  0.1300439E+00
        -11   -1    0    0    0    0  0.00000000000E+00  0.00000000000E+00  0.45593999997E+02  0.45594000000E+02  0.51100000000E-03 0. -1.
         11   -1    0    0    0    0 -0.00000000000E+00 -0.00000000000E+00 -0.45593999997E+02  0.45594000000E+02  0.51100000000E-03 0.  1.
    9900012    2    1    2    0    0 -0.38150744569E+02  0.40256751567E+01  0.13471461293E+02  0.50528860302E+02  0.30000001373E+02 0.  0.
        -12    1    1    2    0    0  0.38150744569E+02 -0.40256751567E+01 -0.13471461293E+02  0.40659139698E+02  0.00000000000E+00 0.  1.
         11    1    3    3    0    0 -0.12886850315E+02 -0.60829787228E+01  0.11980994168E+02  0.18617673396E+02  0.51100000000E-03 0. -1.
        -11    1    3    3    0    0  0.94675888083E+00  0.14166116888E+01  0.38360610631E+01  0.41974403862E+01  0.51100000000E-03 0.  1.
        -12    1    3    3    0    0 -0.26210653135E+02  0.86920421907E+01 -0.23455939379E+01  0.27713746519E+02  0.00000000000E+00 0.  1.
</event>
<event>
 7    1  0.2584640E-011  0.5052888E+02  0.7816164E-02  0.1300439E+00
        -11   -1    0    0    0    0  0.00000000000E+00  0.00000000000E+00  0.45593999997E+02  0.45594000000E+02  0.51100000000E-03 0.  1.
         11   -1    0    0    0    0 -0.00000000000E+00 -0.00000000000E+00 -0.45593999997E+02  0.45594000000E+02  0.51100000000E-03 0. -1.
    9900012    2    1    2    0    0 -0.75839524082E+01  0.74383722383E+01 -0.39246886629E+02  0.50528882624E+02  0.30000069225E+02 0.  0.
        -12    1    1    2    0    0  0.75839524082E+01 -0.74383722383E+01  0.39246886629E+02  0.40659117376E+02  0.00000000000E+00 0.  1.
         11    1    3    3    0    0  0.51271317598E+01 -0.44023675690E+00 -0.13708261295E+02  0.14642326198E+02  0.51100000000E-03 0. -1.
        -11    1    3    3    0    0 -0.12975620778E+02  0.36071894182E+01 -0.27913179486E+02  0.30992323878E+02  0.51100000000E-03 0.  1.
         12    1    3    3    0    0  0.26453660995E+00  0.42714195770E+01  0.23745541519E+01  0.48942325487E+01  0.00000000000E+00 0. -1.
</event>
<event>
 7    1  0.2584640E-011  0.5052887E+02  0.7816164E-02  0.1300439E+00
        -11   -1    0    0    0    0  0.00000000000E+00  0.00000000000E+00  0.45593999997E+02  0.45594000000E+02  0.51100000000E-03 0. -1.
         11   -1    0    0    0    0 -0.00000000000E+00 -0.00000000000E+00 -0.45593999997E+02  0.45594000000E+02  0.51100000000E-03 0.  1.
    9900012    2    1    2    0    0  0.13795138024E+02  0.24651704353E+02  0.29242987616E+02  0.50528872054E+02  0.30000037097E+02 0.  0.
        -12    1    1    2    0    0 -0.13795138024E+02 -0.24651704353E+02 -0.29242987616E+02  0.40659127946E+02  0.00000000000E+00 0.  1.
         11    1    3    3    0    0  0.30682727581E+01  0.55250610550E+01  0.98676044147E+00  0.63964282072E+01  0.51100000000E-03 0. -1.
        -11    1    3    3    0    0 -0.72674714160E+01  0.79760213777E+01  0.17056775828E+02  0.20183326279E+02  0.51100000000E-03 0.  1.
         12    1    3    3    0    0  0.17994336682E+02  0.11150621920E+02  0.11199451347E+02  0.23949117568E+02  0.00000000000E+00 0. -1.
</event>
<event>
 7    1  0.2584640E-011  0.5052886E+02  0.7816164E-02  0.1300439E+00
        -11   -1    0    0    0    0  0.00000000000E+00  0.00000000000E+00  0.45593999997E+02  0.45594000000E+02  0.51100000000E-03 0.  1.
         11   -1    0    0    0    0 -0.00000000000E+00 -0.00000000000E+00 -0.45593999997E+02  0.45594000000E+02  0.51100000000E-03 0. -1.
    9900012    2    1    2    0    0  0.14751716783E+02  0.30381875691E+02 -0.22638334051E+02  0.50528859735E+02  0.29999999650E+02 0.  0.
        -12    1    1    2    0    0 -0.14751716783E+02 -0.30381875691E+02  0.22638334051E+02  0.40659140265E+02  0.00000000000E+00 0.  1.
         11    1    3    3    0    0  0.15607785198E+02  0.82713745208E+01 -0.40263951992E+01  0.18117131500E+02  0.51100000000E-03 0. -1.
        -11    1    3    3    0    0  0.40117977905E+01  0.31735504319E+01 -0.96096023741E+01  0.10886248293E+02  0.51100000000E-03 0.  1.
        -12    1    3    3    0    0 -0.48678662054E+01  0.18936950738E+02 -0.90023364773E+01  0.21525479941E+02  0.00000000000E+00 0.  1.
</event>
<event>
 7    1  0.2584640E-011  0.5052886E+02  0.7816164E-02  0.1300439E+00
        -11   -1    0    0    0    0  0.00000000000E+00  0.00000000000E+00  0.45593999997E+02  0.45594000000E+02  0.51100000000E-03 0.  1.
         11   -1    0    0    0    0 -0.00000000000E+00 -0.00000000000E+00 -0.45593999997E+02  0.45594000000E+02  0.51100000000E-03 0. -1.
    9900012    2    1    2    0    0 -0.16283522461E+02 -0.27935399656E+02 -0.24650071925E+02  0.50528859533E+02  0.29999999035E+02 0.  0.
        -12    1    1    2    0    0  0.16283522461E+02  0.27935399656E+02  0.24650071925E+02  0.40659140467E+02  0.00000000000E+00 0.  1.
         11    1    3    3    0    0 -0.12384140208E+02 -0.24993896312E+02 -0.49491151680E+01  0.28329410915E+02  0.51100000000E-03 0. -1.
        -11    1    3    3    0    0 -0.53269584008E+01 -0.22659732368E+01 -0.57496030837E+01  0.81589862357E+01  0.51100000000E-03 0.  1.
        -12    1    3    3    0    0  0.14275761485E+01 -0.67553010643E+00 -0.13951353673E+02  0.14040462382E+02  0.00000000000E+00 0.  1.
</event>
<event>
 7    1  0.2584640E-011  0.5052886E+02  0.7816164E-02  0.1300439E+00
        -11   -1    0    0    0    0  0.00000000000E+00  0.00000000000E+00  0.45593999997E+02  0.45594000000E+02  0.51100000000E-03 0.  1.
         11   -1    0    0    0    0 -0.00000000000E+00 -0.00000000000E+00 -0.45593999997E+02  0.45594000000E+02  0.51100000000E-03 0. -1.
    9900012    2    1    2    0    0  0.37965447208E+02  0.12375559178E+02  0.76574224588E+01  0.50528858772E+02  0.29999996724E+02 0.  0.
        -12    1    1    2    0    0 -0.37965447208E+02 -0.12375559178E+02 -0.76574224588E+01  0.40659141228E+02  0.00000000000E+00 0.  1.
         11    1    3    3    0    0  0.99180507070E+01  0.46991684063E+01 -0.14737076751E+01  0.11073469561E+02  0.51100000000E-03 0. -1.
        -11    1    3    3    0    0  0.20071291271E+02  0.15530393247E+02  0.11739094570E+02  0.27961691459E+02  0.51100000000E-03 0.  1.
        -12    1    3    3    0    0  0.79761052301E+01 -0.78540024752E+01 -0.26079644356E+01  0.11493697752E+02  0.00000000000E+00 0.  1.
</event>
<event>
 7    1  0.2678626E-011  0.5052886E+02  0.7816164E-02  0.1300439E+00
        -11   -1    0    0    0    0  0.00000000000E+00  0.00000000000E+00  0.45593999997E+02  0.45594000000E+02  0.51100000000E-03 0.  1.
         11   -1    0    0    0    0 -0.00000000000E+00 -0.00000000000E+00 -0.45593999997E+02  0.45594000000E+02  0.51100000000E-03 0. -1.
    9900012    2    1    2    0    0  0.10991689814E+02 -0.31393671613E+02 -0.23383452810E+02  0.50528859236E+02  0.29999998135E+02 0.  0.
        -12    1    1    2    0    0 -0.10991689814E+02  0.31393671613E+02  0.23383452810E+02  0.40659140764E+02  0.00000000000E+00 0.  1.
         11    1    3    3    0    0  0.15176821831E+02 -0.19268086831E+02 -0.13389759183E+02  0.27944243454E+02  0.51100000000E-03 0. -1.
        -11    1    3    3    0    0  0.22543534638E+01 -0.31756270320E+01  0.34465073072E+01  0.52004931945E+01  0.51100000000E-03 0.  1.
        -12    1    3    3    0    0 -0.64394854807E+01 -0.89499577506E+01 -0.13440200934E+02  0.17384122588E+02  0.00000000000E+00 0.  1.
</event>
<event>
 7    1  0.2584640E-011  0.5052893E+02  0.7816164E-02  0.1300439E+00
        -11   -1    0    0    0    0  0.00000000000E+00  0.00000000000E+00  0.45593999997E+02  0.45594000000E+02  0.51100000000E-03 0.  1.
         11   -1    0    0    0    0 -0.00000000000E+00 -0.00000000000E+00 -0.45593999997E+02  0.45594000000E+02  0.51100000000E-03 0. -1.
    9900012    2    1    2    0    0 -0.23431882699E+02 -0.86248763977E+01 -0.32089229313E+02  0.50528926504E+02  0.30000202600E+02 0.  0.
        -12    1    1    2    0    0  0.23431882699E+02  0.86248763977E+01  0.32089229313E+02  0.40659073496E+02  0.00000000000E+00 0.  1.
         11    1    3    3    0    0  0.40345589745E+01 -0.17811897169E+01  0.87243207341E+00  0.44957136152E+01  0.51100000000E-03 0. -1.
        -11    1    3    3    0    0 -0.61342432909E+01  0.28593073048E+01 -0.17277994139E+01  0.69849745949E+01  0.51100000000E-03 0.  1.
        -12    1    3    3    0    0 -0.21332198383E+02 -0.97029939857E+01 -0.31233861972E+02  0.39048238293E+02  0.00000000000E+00 0.  1.
</event>
<event>
 7    1  0.2584640E-011  0.5052887E+02  0.7816164E-02  0.1300439E+00
        -11   -1    0    0    0    0  0.00000000000E+00  0.00000000000E+00  0.45593999997E+02  0.45594000000E+02  0.51100000000E-03 0. -1.
         11   -1    0    0    0    0 -0.00000000000E+00 -0.00000000000E+00 -0.45593999997E+02  0.45594000000E+02  0.51100000000E-03 0.  1.
    9900012    2    1    2    0    0  0.37515519447E+02  0.14888207801E+02 -0.49083365294E+01  0.50528871894E+02  0.30000036608E+02 0.  0.
        -12    1    1    2    0    0 -0.37515519447E+02 -0.14888207801E+02  0.49083365294E+01  0.40659128106E+02  0.00000000000E+00 0.  1.
         11    1    3    3    0    0  0.31937927163E+01  0.54466213083E+01  0.62470036100E+01  0.88820633839E+01  0.51100000000E-03 0. -1.
        -11    1    3    3    0    0  0.17426986362E+02 -0.19013207545E+01  0.16433435226E+01  0.17607255677E+02  0.51100000000E-03 0.  1.
        -12    1    3    3    0    0  0.16894740368E+02  0.11342907247E+02 -0.12798683662E+02  0.24039552833E+02  0.00000000000E+00 0.  1.
</event>
<event>
 7    1  0.2584640E-011  0.5052886E+02  0.7816164E-02  0.1300439E+00
        -11   -1    0    0    0    0  0.00000000000E+00  0.00000000000E+00  0.45593999997E+02  0.45594000000E+02  0.51100000000E-03 0.  1.
         11   -1    0    0    0    0 -0.00000000000E+00 -0.00000000000E+00 -0.45593999997E+02  0.45594000000E+02  0.51100000000E-03 0. -1.
    9900012    2    1    2    0    0  0.14121659465E+02 -0.89577819399E+01 -0.37060796779E+02  0.50528858577E+02  0.29999996132E+02 0.  0.
        -12    1    1    2    0    0 -0.14121659465E+02  0.89577819399E+01  0.37060796779E+02  0.40659141423E+02  0.00000000000E+00 0.  1.
         11    1    3    3    0    0  0.15634328334E+02 -0.68591226128E+01 -0.24327936727E+02  0.29720839340E+02  0.51100000000E-03 0. -1.
        -11    1    3    3    0    0  0.73212032719E+01  0.21784260352E+00 -0.55893073135E+01  0.92134591362E+01  0.51100000000E-03 0.  1.
        -12    1    3    3    0    0 -0.88338721408E+01 -0.23165019306E+01 -0.71435527391E+01  0.11594560101E+02  0.00000000000E+00 0.  1.
</event>
<event>
 7    1  0.2584640E-011  0.5052886E+02  0.7816164E-02  0.1300439E+00
        -11   -1    0    0    0    0  0.00000000000E+00  0.00000000000E+00  0.45593999997E+02  0.45594000000E+02  0.51100000000E-03 0.  1.
         11   -1    0    0    0    0 -0.00000000000E+00 -0.00000000000E+00 -0.45593999997E+02  0.45594000000E+02  0.51100000000E-03 0. -1.
    9900012    2    1    2    0    0  0.62847631740E+01  0.26409772354E+02 -0.30268654289E+02  0.50528858883E+02  0.29999997059E+02 0.  0.
        -12    1    1    2    0    0 -0.62847631740E+01 -0.26409772354E+02  0.30268654289E+02  0.40659141117E+02  0.00000000000E+00 0.  1.
         11    1    3    3    0    0  0.74601606258E+01  0.15932090914E+01 -0.20218840479E+02  0.21610039850E+02  0.51100000000E-03 0.  1.
        -11    1    3    3    0    0  0.23606246756E+01  0.35785825062E+00 -0.11705409278E+01  0.26590934002E+01  0.51100000000E-03 0. -1.
        -12    1    3    3    0    0 -0.35360221274E+01  0.24458705012E+02 -0.88792728828E+01  0.26259725632E+02  0.00000000000E+00 0.  1.
</event>
<event>
 7    1  0.2584640E-011  0.5052886E+02  0.7816164E-02  0.1300439E+00
        -11   -1    0    0    0    0  0.00000000000E+00  0.00000000000E+00  0.45593999997E+02  0.45594000000E+02  0.51100000000E-03 0.  1.
         11   -1    0    0    0    0 -0.00000000000E+00 -0.00000000000E+00 -0.45593999997E+02  0.45594000000E+02  0.51100000000E-03 0. -1.
    9900012    2    1    2    0    0 -0.22796281015E+02  0.43333551680E+01 -0.33387379858E+02  0.50528861680E+02  0.30000005564E+02 0.  0.
        -12    1    1    2    0    0  0.22796281015E+02 -0.43333551680E+01  0.33387379858E+02  0.40659138320E+02  0.00000000000E+00 0.  1.
         11    1    3    3    0    0 -0.50757237677E+01  0.93974918393E+01 -0.54042023014E+01  0.11970013676E+02  0.51100000000E-03 0. -1.
        -11    1    3    3    0    0 -0.10127180493E+02  0.12634799256E+01 -0.26709493343E+02  0.28592887248E+02  0.51100000000E-03 0.  1.
        -12    1    3    3    0    0 -0.75933767540E+01 -0.63276165969E+01 -0.12736842136E+01  0.99659607566E+01  0.00000000000E+00 0.  1.
</event>
<event>
 7    1  0.2584640E-011  0.5052885E+02  0.7816164E-02  0.1300439E+00
        -11   -1    0    0    0    0  0.00000000000E+00  0.00000000000E+00  0.45593999997E+02  0.45594000000E+02  0.51100000000E-03 0.  1.
         11   -1    0    0    0    0 -0.00000000000E+00 -0.00000000000E+00 -0.45593999997E+02  0.45594000000E+02  0.51100000000E-03 0. -1.
    9900012    2    1    2    0    0  0.35003342631E+02 -0.20027772467E+02  0.51788694310E+01  0.50528851534E+02  0.29999974724E+02 0.  0.
        -12    1    1    2    0    0 -0.35003342631E+02  0.20027772467E+02 -0.51788694310E+01  0.40659148466E+02  0.00000000000E+00 0.  1.
         11    1    3    3    0    0  0.10235937256E+02 -0.50133256483E+00  0.63626725711E+01  0.12062725577E+02  0.51100000000E-03 0. -1.
        -11    1    3    3    0    0  0.46828870600E+01  0.16657444632E+01 -0.71082321868E+01  0.86735863929E+01  0.51100000000E-03 0.  1.
         12    1    3    3    0    0  0.20084518316E+02 -0.21192184365E+02  0.59244290467E+01  0.29792539564E+02  0.00000000000E+00 0. -1.
</event>
<event>
 7    1  0.2584640E-011  0.5052888E+02  0.7816164E-02  0.1300439E+00
        -11   -1    0    0    0    0  0.00000000000E+00  0.00000000000E+00  0.45593999997E+02  0.45594000000E+02  0.51100000000E-03 0.  1.
         11   -1    0    0    0    0 -0.00000000000E+00 -0.00000000000E+00 -0.45593999997E+02  0.45594000000E+02  0.51100000000E-03 0. -1.
    9900012    2    1    2    0    0 -0.43919806870E+01 -0.35315991516E+02 -0.19663558065E+02  0.50528877199E+02  0.30000052735E+02 0.  0.
        -12    1    1    2    0    0  0.43919806870E+01  0.35315991516E+02  0.19663558065E+02  0.40659122801E+02  0.00000000000E+00 0.  1.
         11    1    3    3    0    0 -0.12587739158E+01 -0.24556561148E+01  0.19584262499E+01  0.33838132872E+01  0.51100000000E-03 0.  1.
        -11    1    3    3    0    0 -0.29890311312E+01 -0.16602376408E+02  0.34926452899E+01  0.17227065359E+02  0.51100000000E-03 0. -1.
         12    1    3    3    0    0 -0.14417563993E+00 -0.16257958993E+02 -0.25114629605E+02  0.29917998553E+02  0.00000000000E+00 0. -1.
</event>
<event>
 7    1  0.2584640E-011  0.5052885E+02  0.7816164E-02  0.1300439E+00
        -11   -1    0    0    0    0  0.00000000000E+00  0.00000000000E+00  0.45593999997E+02  0.45594000000E+02  0.51100000000E-03 0.  1.
         11   -1    0    0    0    0 -0.00000000000E+00 -0.00000000000E+00 -0.45593999997E+02  0.45594000000E+02  0.51100000000E-03 0. -1.
    9900012    2    1    2    0    0 -0.15087762294E+02 -0.21653003147E+02 -0.30930141501E+02  0.50528846424E+02  0.29999959189E+02 0.  0.
        -12    1    1    2    0    0  0.15087762294E+02  0.21653003147E+02  0.30930141501E+02  0.40659153576E+02  0.00000000000E+00 0.  1.
         11    1    3    3    0    0 -0.10424281349E+02 -0.99301305296E+01 -0.10824854120E+02  0.18012512344E+02  0.51100000000E-03 0. -1.
        -11    1    3    3    0    0 -0.40209287056E+01 -0.15045823591E+02 -0.40275171541E+01  0.16086191901E+02  0.51100000000E-03 0.  1.
        -12    1    3    3    0    0 -0.64255223933E+00  0.33229509736E+01 -0.16077770226E+02  0.16430142178E+02  0.00000000000E+00 0.  1.
</event>
<event>
 7    1  0.2584640E-011  0.5052885E+02  0.7816164E-02  0.1300439E+00
        -11   -1    0    0    0    0  0.00000000000E+00  0.00000000000E+00  0.45593999997E+02  0.45594000000E+02  0.51100000000E-03 0.  1.
         11   -1    0    0    0    0 -0.00000000000E+00 -0.00000000000E+00 -0.45593999997E+02  0.45594000000E+02  0.51100000000E-03 0. -1.
    9900012    2    1    2    0    0 -0.49957766729E+01 -0.40306084169E+02  0.19047005060E+01  0.50528854785E+02  0.29999984603E+02 0.  0.
        -12    1    1    2    0    0  0.49957766729E+01  0.40306084169E+02 -0.19047005060E+01  0.40659145215E+02  0.00000000000E+00 0.  1.
         11    1    3    3    0    0 -0.61664779943E+01  0.68013232647E-02  0.33803627572E+01  0.70322364681E+01  0.51100000000E-03 0. -1.
        -11    1    3    3    0    0 -0.72990239053E+01 -0.13687417216E+02  0.96606763888E-01  0.15512268472E+02  0.51100000000E-03 0.  1.
        -12    1    3    3    0    0  0.84697252267E+01 -0.26625468276E+02 -0.15722690151E+01  0.27984349844E+02  0.00000000000E+00 0.  1.
</event>
<event>
 7    1  0.2584640E-011  0.5052886E+02  0.7816164E-02  0.1300439E+00
        -11   -1    0    0    0    0  0.00000000000E+00  0.00000000000E+00  0.45593999997E+02  0.45594000000E+02  0.51100000000E-03 0.  1.
         11   -1    0    0    0    0 -0.00000000000E+00 -0.00000000000E+00 -0.45593999997E+02  0.45594000000E+02  0.51100000000E-03 0. -1.
    9900012    2    1    2    0    0  0.69184757627E+01  0.13034224161E+02 -0.37886799555E+02  0.50528857278E+02  0.29999992183E+02 0.  0.
        -12    1    1    2    0    0 -0.69184757627E+01 -0.13034224161E+02  0.37886799555E+02  0.40659142722E+02  0.00000000000E+00 0.  1.
         11    1    3    3    0    0  0.15560804761E+02  0.67604389895E+01 -0.21948885810E+02  0.27741589152E+02  0.51100000000E-03 0. -1.
        -11    1    3    3    0    0  0.14299564664E+01 -0.41028324577E+00  0.11328227483E+01  0.18698650961E+01  0.51100000000E-03 0.  1.
        -12    1    3    3    0    0 -0.10072285465E+02  0.66840684170E+01 -0.17070736493E+02  0.20917403030E+02  0.00000000000E+00 0.  1.
</event>
<event>
 7    1  0.2584640E-011  0.5052886E+02  0.7816164E-02  0.1300439E+00
        -11   -1    0    0    0    0  0.00000000000E+00  0.00000000000E+00  0.45593999997E+02  0.45594000000E+02  0.51100000000E-03 0.  1.
         11   -1    0    0    0    0 -0.00000000000E+00 -0.00000000000E+00 -0.45593999997E+02  0.45594000000E+02  0.51100000000E-03 0. -1.
    9900012    2    1    2    0    0 -0.34449044582E+02  0.20549622074E+02  0.66439513346E+01  0.50528859216E+02  0.29999998072E+02 0.  0.
        -12    1    1    2    0    0  0.34449044582E+02 -0.20549622074E+02 -0.66439513346E+01  0.40659140784E+02  0.00000000000E+00 0.  1.
         11    1    3    3    0    0 -0.16540166171E+02  0.82429382059E+01  0.35861785777E+01  0.18825084443E+02  0.51100000000E-03 0. -1.
        -11    1    3    3    0    0 -0.12296978769E+02  0.92406081855E+01 -0.91677470223E+01  0.17906761634E+02  0.51100000000E-03 0.  1.
        -12    1    3    3    0    0 -0.56118996417E+01  0.30660756827E+01  0.12225519779E+02  0.13797013139E+02  0.00000000000E+00 0.  1.
</event>
<event>
 7    1  0.2584640E-011  0.5052886E+02  0.7816164E-02  0.1300439E+00
        -11   -1    0    0    0    0  0.00000000000E+00  0.00000000000E+00  0.45593999997E+02  0.45594000000E+02  0.51100000000E-03 0.  1.
         11   -1    0    0    0    0 -0.00000000000E+00 -0.00000000000E+00 -0.45593999997E+02  0.45594000000E+02  0.51100000000E-03 0. -1.
    9900012    2    1    2    0    0 -0.21858476308E+02 -0.17426509369E+02 -0.29524385106E+02  0.50528861653E+02  0.30000005480E+02 0.  0.
        -12    1    1    2    0    0  0.21858476308E+02  0.17426509369E+02  0.29524385106E+02  0.40659138347E+02  0.00000000000E+00 0.  1.
         11    1    3    3    0    0 -0.21341902388E+02 -0.12293829708E+02 -0.34092486713E+02  0.42058443824E+02  0.51100000000E-03 0. -1.
        -11    1    3    3    0    0 -0.11063288572E+01  0.15476171986E+00 -0.40455523187E+00  0.11880992917E+01  0.51100000000E-03 0.  1.
         12    1    3    3    0    0  0.58975493731E+00 -0.52874413801E+01  0.49726568386E+01  0.72823185366E+01  0.00000000000E+00 0. -1.
</event>
<event>
 7    1  0.2584640E-011  0.5052886E+02  0.7816164E-02  0.1300439E+00
        -11   -1    0    0    0    0  0.00000000000E+00  0.00000000000E+00  0.45593999997E+02  0.45594000000E+02  0.51100000000E-03 0. -1.
         11   -1    0    0    0    0 -0.00000000000E+00 -0.00000000000E+00 -0.45593999997E+02  0.45594000000E+02  0.51100000000E-03 0.  1.
    9900012    2    1    2    0    0 -0.20422207302E+02  0.15934611799E+02  0.31339862782E+02  0.50528863223E+02  0.30000010254E+02 0.  0.
        -12    1    1    2    0    0  0.20422207302E+02 -0.15934611799E+02 -0.31339862782E+02  0.40659136777E+02  0.00000000000E+00 0.  1.
         11    1    3    3    0    0 -0.38737852235E+01 -0.25213440973E+01  0.58957956125E+00  0.46595055891E+01  0.51100000000E-03 0. -1.
        -11    1    3    3    0    0  0.48387774776E+01 -0.38033185826E+00  0.81943413300E+01  0.95239513803E+01  0.51100000000E-03 0.  1.
         12    1    3    3    0    0 -0.21387199556E+02  0.18836287754E+02  0.22555941890E+02  0.36345406254E+02  0.00000000000E+00 0. -1.
</event>
<event>
 7    1  0.2584640E-011  0.5052886E+02  0.7816164E-02  0.1300439E+00
        -11   -1    0    0    0    0  0.00000000000E+00  0.00000000000E+00  0.45593999997E+02  0.45594000000E+02  0.51100000000E-03 0.  1.
         11   -1    0    0    0    0 -0.00000000000E+00 -0.00000000000E+00 -0.45593999997E+02  0.45594000000E+02  0.51100000000E-03 0. -1.
    9900012    2    1    2    0    0 -0.15997578966E+02  0.21111057230E+02 -0.30847473857E+02  0.50528856951E+02  0.29999991188E+02 0.  0.
        -12    1    1    2    0    0  0.15997578966E+02 -0.21111057230E+02  0.30847473857E+02  0.40659143049E+02  0.00000000000E+00 0.  1.
         11    1    3    3    0    0 -0.51315318745E+01  0.13817467309E+02 -0.69267033868E+01  0.16286013701E+02  0.51100000000E-03 0. -1.
        -11    1    3    3    0    0 -0.14305195255E+02  0.55401591159E+01 -0.69551536551E+01  0.16843578507E+02  0.51100000000E-03 0.  1.
        -12    1    3    3    0    0  0.34391481634E+01  0.17534308055E+01 -0.16965616815E+02  0.17399264742E+02  0.00000000000E+00 0.  1.
</event>
<event>
 7    1  0.2584640E-011  0.5052885E+02  0.7816164E-02  0.1300439E+00
        -11   -1    0    0    0    0  0.00000000000E+00  0.00000000000E+00  0.45593999997E+02  0.45594000000E+02  0.51100000000E-03 0. -1.
         11   -1    0    0    0    0 -0.00000000000E+00 -0.00000000000E+00 -0.45593999997E+02  0.45594000000E+02  0.51100000000E-03 0.  1.
    9900012    2    1    2    0    0 -0.21000558665E+02  0.34737560395E+02  0.23333835604E+01  0.50528852871E+02  0.29999978787E+02 0.  0.
        -12    1    1    2    0    0  0.21000558665E+02 -0.34737560395E+02 -0.23333835604E+01  0.40659147129E+02  0.00000000000E+00 0.  1.
         11    1    3    3    0    0 -0.70106160736E+01  0.15655850055E+02  0.12608544634E+02  0.21289193896E+02  0.51100000000E-03 0. -1.
        -11    1    3    3    0    0  0.14446309250E+01  0.78525990081E+01 -0.10933197571E+01  0.80588844169E+01  0.51100000000E-03 0.  1.
        -12    1    3    3    0    0 -0.15434573516E+02  0.11229111332E+02 -0.91818413169E+01  0.21180774559E+02  0.00000000000E+00 0.  1.
</event>
<event>
 7    1  0.2584640E-011  0.5052886E+02  0.7816164E-02  0.1300439E+00
        -11   -1    0    0    0    0  0.00000000000E+00  0.00000000000E+00  0.45593999997E+02  0.45594000000E+02  0.51100000000E-03 0.  1.
         11   -1    0    0    0    0 -0.00000000000E+00 -0.00000000000E+00 -0.45593999997E+02  0.45594000000E+02  0.51100000000E-03 0. -1.
    9900012    2    1    2    0    0 -0.33687848280E+00 -0.14399036856E+02 -0.38022624365E+02  0.50528859415E+02  0.29999998678E+02 0.  0.
        -12    1    1    2    0    0  0.33687848280E+00  0.14399036856E+02  0.38022624365E+02  0.40659140585E+02  0.00000000000E+00 0.  1.
         11    1    3    3    0    0 -0.11099057985E+02  0.11517866745E+01 -0.96347441699E+01  0.14742591230E+02  0.51100000000E-03 0. -1.
        -11    1    3    3    0    0  0.69732784739E+01 -0.44440638144E+01 -0.51179516691E+01  0.97246977028E+01  0.51100000000E-03 0.  1.
        -12    1    3    3    0    0  0.37889010281E+01 -0.11106759716E+02 -0.23269928526E+02  0.26061570482E+02  0.00000000000E+00 0.  1.
</event>
<event>
 7    1  0.2584640E-011  0.5052886E+02  0.7816164E-02  0.1300439E+00
        -11   -1    0    0    0    0  0.00000000000E+00  0.00000000000E+00  0.45593999997E+02  0.45594000000E+02  0.51100000000E-03 0.  1.
         11   -1    0    0    0    0 -0.00000000000E+00 -0.00000000000E+00 -0.45593999997E+02  0.45594000000E+02  0.51100000000E-03 0. -1.
    9900012    2    1    2    0    0  0.30924183033E+02 -0.18130690729E+01 -0.26335774427E+02  0.50528864121E+02  0.30000012982E+02 0.  0.
        -12    1    1    2    0    0 -0.30924183033E+02  0.18130690729E+01  0.26335774427E+02  0.40659135879E+02  0.00000000000E+00 0.  1.
         11    1    3    3    0    0  0.36665541479E+01  0.28063874602E+01  0.39442065449E+01  0.60725773297E+01  0.51100000000E-03 0. -1.
        -11    1    3    3    0    0  0.14782163231E+01 -0.14805241102E+00  0.22584040374E+01  0.27032262338E+01  0.51100000000E-03 0.  1.
         12    1    3    3    0    0  0.25779412562E+02 -0.44714041221E+01 -0.32538385009E+02  0.41753060557E+02  0.00000000000E+00 0. -1.
</event>
<event>
 7    1  0.2584640E-011  0.5052886E+02  0.7816164E-02  0.1300439E+00
        -11   -1    0    0    0    0  0.00000000000E+00  0.00000000000E+00  0.45593999997E+02  0.45594000000E+02  0.51100000000E-03 0. -1.
         11   -1    0    0    0    0 -0.00000000000E+00 -0.00000000000E+00 -0.45593999997E+02  0.45594000000E+02  0.51100000000E-03 0.  1.
    9900012    2    1    2    0    0  0.25333595351E+02 -0.63723216910E+01  0.31157155686E+02  0.50528857269E+02  0.29999992156E+02 0.  0.
        -12    1    1    2    0    0 -0.25333595351E+02  0.63723216910E+01 -0.31157155686E+02  0.40659142731E+02  0.00000000000E+00 0.  1.
         11    1    3    3    0    0  0.55878630667E+01 -0.42264038850E+01  0.53507576685E+01  0.88157422455E+01  0.51100000000E-03 0. -1.
        -11    1    3    3    0    0 -0.31464489316E+01 -0.34635940316E+01 -0.24833273089E+01  0.52975031174E+01  0.51100000000E-03 0.  1.
        -12    1    3    3    0    0  0.22892181216E+02  0.13176762256E+01  0.28289725326E+02  0.36415611906E+02  0.00000000000E+00 0.  1.
</event>
<event>
 7    1  0.2584640E-011  0.5052888E+02  0.7816164E-02  0.1300439E+00
        -11   -1    0    0    0    0  0.00000000000E+00  0.00000000000E+00  0.45593999997E+02  0.45594000000E+02  0.51100000000E-03 0.  1.
         11   -1    0    0    0    0 -0.00000000000E+00 -0.00000000000E+00 -0.45593999997E+02  0.45594000000E+02  0.51100000000E-03 0. -1.
    9900012    2    1    2    0    0 -0.10254006750E+02  0.38315080445E+02 -0.89428318017E+01  0.50528876983E+02  0.30000052076E+02 0.  0.
        -12    1    1    2    0    0  0.10254006750E+02 -0.38315080445E+02  0.89428318017E+01  0.40659123017E+02  0.00000000000E+00 0.  1.
         11    1    3    3    0    0 -0.46309929996E+00  0.18071980217E+02 -0.47307892984E+01  0.18686660953E+02  0.51100000000E-03 0. -1.
        -11    1    3    3    0    0 -0.88083302246E+01  0.21953407666E+02  0.34729221015E+01  0.23908157137E+02  0.51100000000E-03 0.  1.
         12    1    3    3    0    0 -0.98257722561E+00 -0.17103074384E+01 -0.76849646048E+01  0.79340588928E+01  0.00000000000E+00 0. -1.
</event>
<event>
 7    1  0.2584640E-011  0.5052885E+02  0.7816164E-02  0.1300439E+00
        -11   -1    0    0    0    0  0.00000000000E+00  0.00000000000E+00  0.45593999997E+02  0.45594000000E+02  0.51100000000E-03 0. -1.
         11   -1    0    0    0    0 -0.00000000000E+00 -0.00000000000E+00 -0.45593999997E+02  0.45594000000E+02  0.51100000000E-03 0.  1.
    9900012    2    1    2    0    0  0.37274877686E+02  0.14582654329E+02  0.71481589140E+01  0.50528849866E+02  0.29999969651E+02 0.  0.
        -12    1    1    2    0    0 -0.37274877686E+02 -0.14582654329E+02 -0.71481589140E+01  0.40659150134E+02  0.00000000000E+00 0.  1.
         11    1    3    3    0    0  0.18981944697E+02  0.11542491617E+02  0.47857358485E+01  0.22725461603E+02  0.51100000000E-03 0. -1.
        -11    1    3    3    0    0 -0.74162658049E+00  0.35530705809E+01  0.72821915432E+01  0.81366230385E+01  0.51100000000E-03 0.  1.
         12    1    3    3    0    0  0.19034559570E+02 -0.51290786906E+00 -0.49197684777E+01  0.19666765224E+02  0.00000000000E+00 0. -1.
</event>
<event>
 7    1  0.2584640E-011  0.5052886E+02  0.7816164E-02  0.1300439E+00
        -11   -1    0    0    0    0  0.00000000000E+00  0.00000000000E+00  0.45593999997E+02  0.45594000000E+02  0.51100000000E-03 0.  1.
         11   -1    0    0    0    0 -0.00000000000E+00 -0.00000000000E+00 -0.45593999997E+02  0.45594000000E+02  0.51100000000E-03 0. -1.
    9900012    2    1    2    0    0  0.10330645299E+02  0.59841443515E+01 -0.38866872812E+02  0.50528855664E+02  0.29999987277E+02 0.  0.
        -12    1    1    2    0    0 -0.10330645299E+02 -0.59841443515E+01  0.38866872812E+02  0.40659144336E+02  0.00000000000E+00 0.  1.
         11    1    3    3    0    0  0.95762077942E+01  0.63888746571E+01 -0.18186996735E+02  0.21524133563E+02  0.51100000000E-03 0. -1.
        -11    1    3    3    0    0  0.35228951659E+01 -0.43488817456E+01 -0.22989554818E+02  0.23661005764E+02  0.51100000000E-03 0.  1.
        -12    1    3    3    0    0 -0.27684576613E+01  0.39441514400E+01  0.23096787413E+01  0.53437163372E+01  0.00000000000E+00 0.  1.
</event>
<event>
 7    1  0.2584640E-011  0.5052885E+02  0.7816164E-02  0.1300439E+00
        -11   -1    0    0    0    0  0.00000000000E+00  0.00000000000E+00  0.45593999997E+02  0.45594000000E+02  0.51100000000E-03 0.  1.
         11   -1    0    0    0    0 -0.00000000000E+00 -0.00000000000E+00 -0.45593999997E+02  0.45594000000E+02  0.51100000000E-03 0. -1.
    9900012    2    1    2    0    0  0.64202332184E+01  0.30045110095E+02 -0.26631523927E+02  0.50528854634E+02  0.29999984146E+02 0.  0.
        -12    1    1    2    0    0 -0.64202332184E+01 -0.30045110095E+02  0.26631523927E+02  0.40659145366E+02  0.00000000000E+00 0.  1.
         11    1    3    3    0    0  0.46786673710E+01  0.56019846011E+01  0.18655346819E+01  0.75334175346E+01  0.51100000000E-03 0.  1.
        -11    1    3    3    0    0 -0.12488432691E+01  0.26379092524E+02 -0.29193170038E+02  0.39365686950E+02  0.51100000000E-03 0. -1.
         12    1    3    3    0    0  0.29904091165E+01 -0.19359670308E+01  0.69611142848E+00  0.36297501498E+01  0.00000000000E+00 0. -1.
</event>
<event>
 7    1  0.2584640E-011  0.5052884E+02  0.7816164E-02  0.1300439E+00
        -11   -1    0    0    0    0  0.00000000000E+00  0.00000000000E+00  0.45593999997E+02  0.45594000000E+02  0.51100000000E-03 0.  1.
         11   -1    0    0    0    0 -0.00000000000E+00 -0.00000000000E+00 -0.45593999997E+02  0.45594000000E+02  0.51100000000E-03 0. -1.
    9900012    2    1    2    0    0 -0.12901401000E+02  0.91961276575E+01 -0.37445323286E+02  0.50528841774E+02  0.29999945057E+02 0.  0.
        -12    1    1    2    0    0  0.12901401000E+02 -0.91961276575E+01  0.37445323286E+02  0.40659158226E+02  0.00000000000E+00 0.  1.
         11    1    3    3    0    0  0.29204367658E+01  0.20064482936E+01 -0.32090928265E+01  0.47804877040E+01  0.51100000000E-03 0. -1.
        -11    1    3    3    0    0 -0.86784134505E+01  0.39392411772E+01  0.10606889256E+01  0.95894495321E+01  0.51100000000E-03 0.  1.
         12    1    3    3    0    0 -0.71434243149E+01  0.32504381868E+01 -0.35296919385E+02  0.36158904538E+02  0.00000000000E+00 0. -1.
</event>
<event>
 7    1  0.2584640E-011  0.5052886E+02  0.7816164E-02  0.1300439E+00
        -11   -1    0    0    0    0  0.00000000000E+00  0.00000000000E+00  0.45593999997E+02  0.45594000000E+02  0.51100000000E-03 0.  1.
         11   -1    0    0    0    0 -0.00000000000E+00 -0.00000000000E+00 -0.45593999997E+02  0.45594000000E+02  0.51100000000E-03 0. -1.
    9900012    2    1    2    0    0 -0.34911225308E+02 -0.12544605566E+02 -0.16643468958E+02  0.50528857851E+02  0.29999993925E+02 0.  0.
        -12    1    1    2    0    0  0.34911225308E+02  0.12544605566E+02  0.16643468958E+02  0.40659142149E+02  0.00000000000E+00 0.  1.
         11    1    3    3    0    0 -0.77764809195E+01  0.20655556478E+01 -0.12482329547E+02  0.14850883031E+02  0.51100000000E-03 0. -1.
        -11    1    3    3    0    0 -0.15132680633E+01  0.26275132604E+01  0.26824385778E+01  0.40483679613E+01  0.51100000000E-03 0.  1.
        -12    1    3    3    0    0 -0.25621476325E+02 -0.17237674474E+02 -0.68435779886E+01  0.31629606859E+02  0.00000000000E+00 0.  1.
</event>
<event>
 7    1  0.2584640E-011  0.5052886E+02  0.7816164E-02  0.1300439E+00
        -11   -1    0    0    0    0  0.00000000000E+00  0.00000000000E+00  0.45593999997E+02  0.45594000000E+02  0.51100000000E-03 0. -1.
         11   -1    0    0    0    0 -0.00000000000E+00 -0.00000000000E+00 -0.45593999997E+02  0.45594000000E+02  0.51100000000E-03 0.  1.
    9900012    2    1    2    0    0  0.10429946247E+02  0.29779906771E+02  0.25642525421E+02  0.50528859134E+02  0.29999997824E+02 0.  0.
        -12    1    1    2    0    0 -0.10429946247E+02 -0.29779906771E+02 -0.25642525421E+02  0.40659140866E+02  0.00000000000E+00 0.  1.
         11    1    3    3    0    0 -0.47392540433E+01  0.20990689375E+01  0.18126894514E+01  0.54911258044E+01  0.51100000000E-03 0.  1.
        -11    1    3    3    0    0  0.98870687298E+01  0.37341877579E+00  0.31664008884E+01  0.10388438983E+02  0.51100000000E-03 0. -1.
         12    1    3    3    0    0  0.52821315608E+01  0.27307419058E+02  0.20663435081E+02  0.34649294347E+02  0.00000000000E+00 0. -1.
</event>
<event>
 7    1  0.2584640E-011  0.5052886E+02  0.7816164E-02  0.1300439E+00
        -11   -1    0    0    0    0  0.00000000000E+00  0.00000000000E+00  0.45593999997E+02  0.45594000000E+02  0.51100000000E-03 0. -1.
         11   -1    0    0    0    0 -0.00000000000E+00 -0.00000000000E+00 -0.45593999997E+02  0.45594000000E+02  0.51100000000E-03 0.  1.
    9900012    2    1    2    0    0 -0.22608052917E+02  0.13213322589E+02  0.31103855803E+02  0.50528858391E+02  0.29999995566E+02 0.  0.
        -12    1    1    2    0    0  0.22608052917E+02 -0.13213322589E+02 -0.31103855803E+02  0.40659141609E+02  0.00000000000E+00 0.  1.
         11    1    3    3    0    0 -0.90731916046E+01 -0.65845275115E+01  0.53532044390E+01  0.12423188257E+02  0.51100000000E-03 0.  1.
        -11    1    3    3    0    0 -0.47805232895E+00  0.30878743590E+01  0.12980461712E+02  0.13351250451E+02  0.51100000000E-03 0. -1.
        -12    1    3    3    0    0 -0.13056808984E+02  0.16709975741E+02  0.12770189652E+02  0.24754419683E+02  0.00000000000E+00 0.  1.
</event>
<event>
 7    1  0.2584640E-011  0.5052886E+02  0.7816164E-02  0.1300439E+00
        -11   -1    0    0    0    0  0.00000000000E+00  0.00000000000E+00  0.45593999997E+02  0.45594000000E+02  0.51100000000E-03 0.  1.
         11   -1    0    0    0    0 -0.00000000000E+00 -0.00000000000E+00 -0.45593999997E+02  0.45594000000E+02  0.51100000000E-03 0. -1.
    9900012    2    1    2    0    0 -0.18424106508E+01 -0.36336204970E+02 -0.18150792828E+02  0.50528861434E+02  0.30000004815E+02 0.  0.
        -12    1    1    2    0    0  0.18424106508E+01  0.36336204970E+02  0.18150792828E+02  0.40659138566E+02  0.00000000000E+00 0.  1.
         11    1    3    3    0    0 -0.71123599073E+01 -0.15871299491E+01 -0.45827551093E+01  0.86085010065E+01  0.51100000000E-03 0. -1.
        -11    1    3    3    0    0  0.54163460530E+01 -0.94839740285E+01  0.34550149240E+01  0.11455116600E+02  0.51100000000E-03 0.  1.
        -12    1    3    3    0    0 -0.14639679658E+00 -0.25265100993E+02 -0.17023052642E+02  0.30465243827E+02  0.00000000000E+00 0.  1.
</event>
<event>
 7    1  0.2584640E-011  0.5052886E+02  0.7816164E-02  0.1300439E+00
        -11   -1    0    0    0    0  0.00000000000E+00  0.00000000000E+00  0.45593999997E+02  0.45594000000E+02  0.51100000000E-03 0.  1.
         11   -1    0    0    0    0 -0.00000000000E+00 -0.00000000000E+00 -0.45593999997E+02  0.45594000000E+02  0.51100000000E-03 0. -1.
    9900012    2    1    2    0    0  0.23151246748E+02 -0.28693108848E+02 -0.17143241733E+02  0.50528862546E+02  0.30000008196E+02 0.  0.
        -12    1    1    2    0    0 -0.23151246748E+02  0.28693108848E+02  0.17143241733E+02  0.40659137454E+02  0.00000000000E+00 0.  1.
         11    1    3    3    0    0 -0.23688657498E+01 -0.48498151893E+01  0.44562576284E-01  0.53976122865E+01  0.51100000000E-03 0. -1.
        -11    1    3    3    0    0  0.25615530822E+01 -0.86101637853E+01  0.45185011625E+01  0.10055512300E+02  0.51100000000E-03 0.  1.
         12    1    3    3    0    0  0.22958559415E+02 -0.15233129874E+02 -0.21706305472E+02  0.35075737960E+02  0.00000000000E+00 0. -1.
</event>
<event>
 7    1  0.2584640E-011  0.5052886E+02  0.7816164E-02  0.1300439E+00
        -11   -1    0    0    0    0  0.00000000000E+00  0.00000000000E+00  0.45593999997E+02  0.45594000000E+02  0.51100000000E-03 0. -1.
         11   -1    0    0    0    0 -0.00000000000E+00 -0.00000000000E+00 -0.45593999997E+02  0.45594000000E+02  0.51100000000E-03 0.  1.
    9900012    2    1    2    0    0 -0.21531718116E+02 -0.60671359202E+01  0.33952030087E+02  0.50528863630E+02  0.30000011491E+02 0.  0.
        -12    1    1    2    0    0  0.21531718116E+02  0.60671359202E+01 -0.33952030087E+02  0.40659136370E+02  0.00000000000E+00 0.  1.
         11    1    3    3    0    0 -0.18490371646E+02 -0.88031962311E+01  0.27321472170E+02  0.34144588873E+02  0.51100000000E-03 0. -1.
        -11    1    3    3    0    0 -0.79627187536E+01  0.45568694634E+01  0.62944890677E+01  0.11126119815E+02  0.51100000000E-03 0.  1.
         12    1    3    3    0    0  0.49213722835E+01 -0.18208091525E+01  0.33606884878E+00  0.52581549420E+01  0.00000000000E+00 0. -1.
</event>
<event>
 7    1  0.2584640E-011  0.5052886E+02  0.7816164E-02  0.1300439E+00
        -11   -1    0    0    0    0  0.00000000000E+00  0.00000000000E+00  0.45593999997E+02  0.45594000000E+02  0.51100000000E-03 0.  1.
         11   -1    0    0    0    0 -0.00000000000E+00 -0.00000000000E+00 -0.45593999997E+02  0.45594000000E+02  0.51100000000E-03 0. -1.
    9900012    2    1    2    0    0 -0.22470381412E+02  0.28663987293E+02 -0.18072728730E+02  0.50528859182E+02  0.29999997970E+02 0.  0.
        -12    1    1    2    0    0  0.22470381412E+02 -0.28663987293E+02  0.18072728730E+02  0.40659140818E+02  0.00000000000E+00 0.  1.
         11    1    3    3    0    0 -0.13360956643E+02  0.24594314023E+02 -0.17251994551E+02  0.32878971409E+02  0.51100000000E-03 0. -1.
        -11    1    3    3    0    0 -0.11063214359E+02  0.68710037187E+01 -0.32935870093E+01  0.13433284025E+02  0.51100000000E-03 0.  1.
         12    1    3    3    0    0  0.19537895899E+01 -0.28013304488E+01  0.24728528306E+01  0.42166037479E+01  0.00000000000E+00 0. -1.
</event>
<event>
 7    1  0.3504795E-011  0.5052886E+02  0.7816164E-02  0.1300439E+00
        -11   -1    0    0    0    0  0.00000000000E+00  0.00000000000E+00  0.45593999997E+02  0.45594000000E+02  0.51100000000E-03 0.  1.
         11   -1    0    0    0    0 -0.00000000000E+00 -0.00000000000E+00 -0.45593999997E+02  0.45594000000E+02  0.51100000000E-03 0. -1.
    9900012    2    1    2    0    0  0.91404714617E+01 -0.27396794084E+02 -0.28618748550E+02  0.50528864333E+02  0.30000013626E+02 0.  0.
        -12    1    1    2    0    0 -0.91404714617E+01  0.27396794084E+02  0.28618748550E+02  0.40659135667E+02  0.00000000000E+00 0.  1.
         11    1    3    3    0    0  0.73305665459E+00 -0.18910936614E+02 -0.15411749663E+02  0.24406616390E+02  0.51100000000E-03 0. -1.
        -11    1    3    3    0    0  0.10832081023E+02 -0.76141186048E+01 -0.16993213127E+02  0.21542471401E+02  0.51100000000E-03 0.  1.
        -12    1    3    3    0    0 -0.24246662163E+01 -0.87173886563E+00  0.37862142396E+01  0.45797765424E+01  0.00000000000E+00 0.  1.
</event>
<event>
 7    1  0.2584640E-011  0.5052885E+02  0.7816164E-02  0.1300439E+00
        -11   -1    0    0    0    0  0.00000000000E+00  0.00000000000E+00  0.45593999997E+02  0.45594000000E+02  0.51100000000E-03 0.  1.
         11   -1    0    0    0    0 -0.00000000000E+00 -0.00000000000E+00 -0.45593999997E+02  0.45594000000E+02  0.51100000000E-03 0. -1.
    9900012    2    1    2    0    0 -0.60045639182E+01  0.40109419456E+02 -0.28889568662E+01  0.50528851107E+02  0.29999973424E+02 0.  0.
        -12    1    1    2    0    0  0.60045639182E+01 -0.40109419456E+02  0.28889568662E+01  0.40659148893E+02  0.00000000000E+00 0.  1.
         11    1    3    3    0    0 -0.12589980775E+02  0.87926357445E+01  0.21645141137E+00  0.15357894085E+02  0.51100000000E-03 0. -1.
        -11    1    3    3    0    0  0.21221813876E+01  0.70675933178E+00 -0.35942224412E+01  0.42333908174E+01  0.51100000000E-03 0.  1.
         12    1    3    3    0    0  0.44632354688E+01  0.30610024380E+02  0.48881416361E+00  0.30937566205E+02  0.00000000000E+00 0. -1.
</event>
<event>
 7    1  0.2584640E-011  0.5052886E+02  0.7816164E-02  0.1300439E+00
        -11   -1    0    0    0    0  0.00000000000E+00  0.00000000000E+00  0.45593999997E+02  0.45594000000E+02  0.51100000000E-03 0.  1.
         11   -1    0    0    0    0 -0.00000000000E+00 -0.00000000000E+00 -0.45593999997E+02  0.45594000000E+02  0.51100000000E-03 0. -1.
    9900012    2    1    2    0    0 -0.34465265067E+02  0.21423206225E+02 -0.25213972685E+01  0.50528859511E+02  0.29999998970E+02 0.  0.
        -12    1    1    2    0    0  0.34465265067E+02 -0.21423206225E+02  0.25213972685E+01  0.40659140489E+02  0.00000000000E+00 0.  1.
         11    1    3    3    0    0 -0.10970866900E+01 -0.15296704158E+01 -0.39066263925E+01  0.43364986819E+01  0.51100000000E-03 0. -1.
        -11    1    3    3    0    0 -0.27124319421E+02  0.25531625376E+02 -0.41203561155E+01  0.37477592414E+02  0.51100000000E-03 0.  1.
         12    1    3    3    0    0 -0.62438589562E+01 -0.25787487350E+01  0.55055852394E+01  0.87147684153E+01  0.00000000000E+00 0. -1.
</event>
<event>
 7    1  0.2584640E-011  0.5052886E+02  0.7816164E-02  0.1300439E+00
        -11   -1    0    0    0    0  0.00000000000E+00  0.00000000000E+00  0.45593999997E+02  0.45594000000E+02  0.51100000000E-03 0.  1.
         11   -1    0    0    0    0 -0.00000000000E+00 -0.00000000000E+00 -0.45593999997E+02  0.45594000000E+02  0.51100000000E-03 0. -1.
    9900012    2    1    2    0    0  0.80767474501E+01  0.29903016814E+02 -0.26338967294E+02  0.50528862502E+02  0.30000008062E+02 0.  0.
        -12    1    1    2    0    0 -0.80767474501E+01 -0.29903016814E+02  0.26338967294E+02  0.40659137498E+02  0.00000000000E+00 0.  1.
         11    1    3    3    0    0 -0.43669049581E+01  0.17092466491E+02 -0.98775697753E+01  0.20218522562E+02  0.51100000000E-03 0. -1.
        -11    1    3    3    0    0  0.20867163986E+01  0.71111599264E+01  0.26227594970E+01  0.78614151695E+01  0.51100000000E-03 0.  1.
        -12    1    3    3    0    0  0.10356936009E+02  0.56993903967E+01 -0.19084157015E+02  0.22448924771E+02  0.00000000000E+00 0.  1.
</event>
<event>
 7    1  0.2584640E-011  0.5052885E+02  0.7816164E-02  0.1300439E+00
        -11   -1    0    0    0    0  0.00000000000E+00  0.00000000000E+00  0.45593999997E+02  0.45594000000E+02  0.51100000000E-03 0.  1.
         11   -1    0    0    0    0 -0.00000000000E+00 -0.00000000000E+00 -0.45593999997E+02  0.45594000000E+02  0.51100000000E-03 0. -1.
    9900012    2    1    2    0    0 -0.93109027632E+00  0.29929312029E+02 -0.27505190927E+02  0.50528853728E+02  0.29999981392E+02 0.  0.
        -12    1    1    2    0    0  0.93109027632E+00 -0.29929312029E+02  0.27505190927E+02  0.40659146272E+02  0.00000000000E+00 0.  1.
         11    1    3    3    0    0  0.32532716918E+01  0.14591610683E+02 -0.24870941913E+01  0.15155346146E+02  0.51100000000E-03 0. -1.
        -11    1    3    3    0    0 -0.17262657261E+01 -0.77756913663E+00  0.26519662824E+01  0.32584555457E+01  0.51100000000E-03 0.  1.
        -12    1    3    3    0    0 -0.24580962420E+01  0.16115270482E+02 -0.27670063018E+02  0.32115052036E+02  0.00000000000E+00 0.  1.
</event>
<event>
 7    1  0.2584640E-011  0.5052887E+02  0.7816164E-02  0.1300439E+00
        -11   -1    0    0    0    0  0.00000000000E+00  0.00000000000E+00  0.45593999997E+02  0.45594000000E+02  0.51100000000E-03 0.  1.
         11   -1    0    0    0    0 -0.00000000000E+00 -0.00000000000E+00 -0.45593999997E+02  0.45594000000E+02  0.51100000000E-03 0. -1.
    9900012    2    1    2    0    0 -0.78303212264E+01 -0.74869953688E+01 -0.39189234484E+02  0.50528866591E+02  0.30000020490E+02 0.  0.
        -12    1    1    2    0    0  0.78303212264E+01  0.74869953688E+01  0.39189234484E+02  0.40659133409E+02  0.00000000000E+00 0.  1.
         11    1    3    3    0    0 -0.73547565977E+01 -0.99696554629E+01 -0.11771152570E+02  0.17089368266E+02  0.51100000000E-03 0.  1.
        -11    1    3    3    0    0 -0.10902742713E+01 -0.22403755598E+01 -0.28455980773E+02  0.28564852925E+02  0.51100000000E-03 0. -1.
        -12    1    3    3    0    0  0.61470964259E+00  0.47230356540E+01  0.10378988587E+01  0.48746453998E+01  0.00000000000E+00 0.  1.
</event>
<event>
 7    1  0.2584640E-011  0.5052887E+02  0.7816164E-02  0.1300439E+00
        -11   -1    0    0    0    0  0.00000000000E+00  0.00000000000E+00  0.45593999997E+02  0.45594000000E+02  0.51100000000E-03 0. -1.
         11   -1    0    0    0    0 -0.00000000000E+00 -0.00000000000E+00 -0.45593999997E+02  0.45594000000E+02  0.51100000000E-03 0.  1.
    9900012    2    1    2    0    0 -0.11458601760E+02 -0.23846599602E+02  0.30874021839E+02  0.50528867061E+02  0.30000021918E+02 0.  0.
        -12    1    1    2    0    0  0.11458601760E+02  0.23846599602E+02 -0.30874021839E+02  0.40659132939E+02  0.00000000000E+00 0.  1.
         11    1    3    3    0    0 -0.72491331947E+01 -0.17093648221E+02  0.17868717543E+02  0.25768853456E+02  0.51100000000E-03 0. -1.
        -11    1    3    3    0    0 -0.93235311762E+01 -0.55840663685E+01  0.14270657757E+00  0.10868780807E+02  0.51100000000E-03 0.  1.
         12    1    3    3    0    0  0.51140626110E+01 -0.11688850122E+01  0.12862597719E+02  0.13891232797E+02  0.00000000000E+00 0. -1.
</event>
<event>
 7    1  0.2584640E-011  0.5052886E+02  0.7816164E-02  0.1300439E+00
        -11   -1    0    0    0    0  0.00000000000E+00  0.00000000000E+00  0.45593999997E+02  0.45594000000E+02  0.51100000000E-03 0.  1.
         11   -1    0    0    0    0 -0.00000000000E+00 -0.00000000000E+00 -0.45593999997E+02  0.45594000000E+02  0.51100000000E-03 0. -1.
    9900012    2    1    2    0    0 -0.34724070238E+02  0.15879185786E+02 -0.13973407395E+02  0.50528859461E+02  0.29999998818E+02 0.  0.
        -12    1    1    2    0    0  0.34724070238E+02 -0.15879185786E+02  0.13973407395E+02  0.40659140539E+02  0.00000000000E+00 0.  1.
         11    1    3    3    0    0 -0.10266115035E+02  0.82073645276E+01 -0.14735775103E+02  0.19745810152E+02  0.51100000000E-03 0. -1.
        -11    1    3    3    0    0  0.26510889063E+01  0.32255701746E+00  0.34091451103E+00  0.26923109746E+01  0.51100000000E-03 0.  1.
         12    1    3    3    0    0 -0.27109044109E+02  0.73492642407E+01  0.42145319720E+00  0.28090738335E+02  0.00000000000E+00 0. -1.
</event>
<event>
 7    1  0.2584640E-011  0.5052887E+02  0.7816164E-02  0.1300439E+00
        -11   -1    0    0    0    0  0.00000000000E+00  0.00000000000E+00  0.45593999997E+02  0.45594000000E+02  0.51100000000E-03 0.  1.
         11   -1    0    0    0    0 -0.00000000000E+00 -0.00000000000E+00 -0.45593999997E+02  0.45594000000E+02  0.51100000000E-03 0. -1.
    9900012    2    1    2    0    0  0.11564852705E+02 -0.38541844342E+02 -0.58262533430E+01  0.50528870504E+02  0.30000032383E+02 0.  0.
        -12    1    1    2    0    0 -0.11564852705E+02  0.38541844342E+02  0.58262533430E+01  0.40659129496E+02  0.00000000000E+00 0.  1.
         11    1    3    3    0    0  0.12273865725E+02 -0.10693139487E+02 -0.10969106383E+02  0.19629373577E+02  0.51100000000E-03 0. -1.
        -11    1    3    3    0    0 -0.30172600210E+01 -0.48349314196E+01 -0.29219445806E+01  0.64045437199E+01  0.51100000000E-03 0.  1.
        -12    1    3    3    0    0  0.23082470004E+01 -0.23013773435E+02  0.80647976204E+01  0.24494953207E+02  0.00000000000E+00 0.  1.
</event>
<event>
 7    1  0.2584640E-011  0.5052883E+02  0.7816164E-02  0.1300439E+00
        -11   -1    0    0    0    0  0.00000000000E+00  0.00000000000E+00  0.45593999997E+02  0.45594000000E+02  0.51100000000E-03 0.  1.
         11   -1    0    0    0    0 -0.00000000000E+00 -0.00000000000E+00 -0.45593999997E+02  0.45594000000E+02  0.51100000000E-03 0. -1.
    9900012    2    1    2    0    0 -0.27026912140E+02 -0.17810480223E+02 -0.24606929099E+02  0.50528829506E+02  0.29999907766E+02 0.  0.
        -12    1    1    2    0    0  0.27026912140E+02  0.17810480223E+02  0.24606929099E+02  0.40659170494E+02  0.00000000000E+00 0.  1.
         11    1    3    3    0    0 -0.57385914499E+01 -0.12293212346E+01 -0.13548772720E+01  0.60231516011E+01  0.51100000000E-03 0.  1.
        -11    1    3    3    0    0  0.63964590063E+01 -0.32105340687E+01 -0.35394890847E+01  0.79843722401E+01  0.51100000000E-03 0. -1.
         12    1    3    3    0    0 -0.27684779696E+02 -0.13370624920E+02 -0.19712562742E+02  0.36521305665E+02  0.00000000000E+00 0. -1.
</event>
<event>
 7    1  0.2845957E-011  0.5052886E+02  0.7816164E-02  0.1300439E+00
        -11   -1    0    0    0    0  0.00000000000E+00  0.00000000000E+00  0.45593999997E+02  0.45594000000E+02  0.51100000000E-03 0. -1.
         11   -1    0    0    0    0 -0.00000000000E+00 -0.00000000000E+00 -0.45593999997E+02  0.45594000000E+02  0.51100000000E-03 0.  1.
    9900012    2    1    2    0    0  0.34859159900E+00 -0.37820531003E+02  0.14921522029E+02  0.50528857103E+02  0.29999991650E+02 0.  0.
        -12    1    1    2    0    0 -0.34859159900E+00  0.37820531003E+02 -0.14921522029E+02  0.40659142897E+02  0.00000000000E+00 0.  1.
         11    1    3    3    0    0  0.82195716686E+01 -0.19584772762E+02  0.11299017415E+02  0.24058106271E+02  0.51100000000E-03 0. -1.
        -11    1    3    3    0    0 -0.26470819481E+01 -0.12432750100E+01  0.76957875000E+01  0.82327347277E+01  0.51100000000E-03 0.  1.
        -12    1    3    3    0    0 -0.52238981215E+01 -0.16992483231E+02 -0.40732828855E+01  0.18238016104E+02  0.00000000000E+00 0.  1.
</event>
<event>
 7    1  0.2584640E-011  0.5052886E+02  0.7816164E-02  0.1300439E+00
        -11   -1    0    0    0    0  0.00000000000E+00  0.00000000000E+00  0.45593999997E+02  0.45594000000E+02  0.51100000000E-03 0.  1.
         11   -1    0    0    0    0 -0.00000000000E+00 -0.00000000000E+00 -0.45593999997E+02  0.45594000000E+02  0.51100000000E-03 0. -1.
    9900012    2    1    2    0    0  0.34324116430E+02 -0.16332893112E+01 -0.21733680880E+02  0.50528862192E+02  0.30000007120E+02 0.  0.
        -12    1    1    2    0    0 -0.34324116430E+02  0.16332893112E+01  0.21733680880E+02  0.40659137808E+02  0.00000000000E+00 0.  1.
         11    1    3    3    0    0  0.12571197279E-01  0.34739613496E+01 -0.11194347745E+02  0.11721006236E+02  0.51100000000E-03 0. -1.
        -11    1    3    3    0    0  0.21109682828E+01 -0.25495489622E+00 -0.54478590694E+01  0.58481071973E+01  0.51100000000E-03 0.  1.
         12    1    3    3    0    0  0.32200576950E+02 -0.48522957646E+01 -0.50914740658E+01  0.32959748759E+02  0.00000000000E+00 0. -1.
</event>
<event>
 7    1  0.2584640E-011  0.5052887E+02  0.7816164E-02  0.1300439E+00
        -11   -1    0    0    0    0  0.00000000000E+00  0.00000000000E+00  0.45593999997E+02  0.45594000000E+02  0.51100000000E-03 0. -1.
         11   -1    0    0    0    0 -0.00000000000E+00 -0.00000000000E+00 -0.45593999997E+02  0.45594000000E+02  0.51100000000E-03 0.  1.
    9900012    2    1    2    0    0  0.18950999182E+02  0.15999388352E+02  0.32218687687E+02  0.50528872686E+02  0.30000039017E+02 0.  0.
        -12    1    1    2    0    0 -0.18950999182E+02 -0.15999388352E+02 -0.32218687687E+02  0.40659127314E+02  0.00000000000E+00 0.  1.
         11    1    3    3    0    0  0.22713694626E+01  0.11386476512E+02  0.18880845781E+02  0.22165227368E+02  0.51100000000E-03 0. -1.
        -11    1    3    3    0    0  0.10599975927E+02 -0.14628007189E+01  0.16103526660E+02  0.19334498875E+02  0.51100000000E-03 0.  1.
         12    1    3    3    0    0  0.60796537924E+01  0.60757125588E+01 -0.27656847539E+01  0.90291464431E+01  0.00000000000E+00 0. -1.
</event>
<event>
 7    1  0.2846040E-011  0.5052886E+02  0.7816164E-02  0.1300439E+00
        -11   -1    0    0    0    0  0.00000000000E+00  0.00000000000E+00  0.45593999997E+02  0.45594000000E+02  0.51100000000E-03 0.  1.
         11   -1    0    0    0    0 -0.00000000000E+00 -0.00000000000E+00 -0.45593999997E+02  0.45594000000E+02  0.51100000000E-03 0. -1.
    9900012    2    1    2    0    0 -0.31571063478E+01 -0.32083640471E+02 -0.24775768602E+02  0.50528855688E+02  0.29999987349E+02 0.  0.
        -12    1    1    2    0    0  0.31571063478E+01  0.32083640471E+02  0.24775768602E+02  0.40659144312E+02  0.00000000000E+00 0.  1.
         11    1    3    3    0    0 -0.83585167543E+01 -0.21938611617E+02 -0.13263020977E+02  0.26964332139E+02  0.51100000000E-03 0. -1.
        -11    1    3    3    0    0  0.35319594494E+01 -0.66351819267E+01 -0.15970107375E+02  0.17650629071E+02  0.51100000000E-03 0.  1.
        -12    1    3    3    0    0  0.16694509571E+01 -0.35098469273E+01  0.44573597502E+01  0.59138944777E+01  0.00000000000E+00 0.  1.
</event>
<event>
 7    1  0.2584640E-011  0.5052886E+02  0.7816164E-02  0.1300439E+00
        -11   -1    0    0    0    0  0.00000000000E+00  0.00000000000E+00  0.45593999997E+02  0.45594000000E+02  0.51100000000E-03 0. -1.
         11   -1    0    0    0    0 -0.00000000000E+00 -0.00000000000E+00 -0.45593999997E+02  0.45594000000E+02  0.51100000000E-03 0.  1.
    9900012    2    1    2    0    0 -0.54712102845E+01  0.39122993137E+02  0.96240749304E+01  0.50528861393E+02  0.30000004690E+02 0.  0.
        -12    1    1    2    0    0  0.54712102845E+01 -0.39122993137E+02 -0.96240749304E+01  0.40659138607E+02  0.00000000000E+00 0.  1.
         11    1    3    3    0    0 -0.47602875456E+01  0.40153463123E-01 -0.16569773294E+01  0.50405876591E+01  0.51100000000E-03 0. -1.
        -11    1    3    3    0    0  0.14281102566E+01  0.17650717106E+02 -0.50999832582E+01  0.18428161676E+02  0.51100000000E-03 0.  1.
         12    1    3    3    0    0 -0.21390329954E+01  0.21432122568E+02  0.16381035518E+02  0.27060112057E+02  0.00000000000E+00 0. -1.
</event>
<event>
 7    1  0.2584640E-011  0.5052888E+02  0.7816164E-02  0.1300439E+00
        -11   -1    0    0    0    0  0.00000000000E+00  0.00000000000E+00  0.45593999997E+02  0.45594000000E+02  0.51100000000E-03 0. -1.
         11   -1    0    0    0    0 -0.00000000000E+00 -0.00000000000E+00 -0.45593999997E+02  0.45594000000E+02  0.51100000000E-03 0.  1.
    9900012    2    1    2    0    0 -0.22825405325E+02 -0.33249272995E+02 -0.51624672778E+01  0.50528876161E+02  0.30000049579E+02 0.  0.
        -12    1    1    2    0    0  0.22825405325E+02  0.33249272995E+02  0.51624672778E+01  0.40659123839E+02  0.00000000000E+00 0.  1.
         11    1    3    3    0    0 -0.35985471805E+01 -0.18399483948E+01 -0.89179616632E+01  0.97910669691E+01  0.51100000000E-03 0. -1.
        -11    1    3    3    0    0  0.18790342425E+01 -0.63357011289E+01  0.44313612213E+01  0.79566853032E+01  0.51100000000E-03 0.  1.
        -12    1    3    3    0    0 -0.21105892387E+02 -0.25073623471E+02 -0.67586683590E+00  0.32781123889E+02  0.00000000000E+00 0.  1.
</event>
<event>
 7    1  0.2584640E-011  0.5052886E+02  0.7816164E-02  0.1300439E+00
        -11   -1    0    0    0    0  0.00000000000E+00  0.00000000000E+00  0.45593999997E+02  0.45594000000E+02  0.51100000000E-03 0.  1.
         11   -1    0    0    0    0 -0.00000000000E+00 -0.00000000000E+00 -0.45593999997E+02  0.45594000000E+02  0.51100000000E-03 0. -1.
    9900012    2    1    2    0    0  0.32206984660E+02 -0.24310634614E+02 -0.49868311444E+01  0.50528864482E+02  0.30000014080E+02 0.  0.
        -12    1    1    2    0    0 -0.32206984660E+02  0.24310634614E+02  0.49868311444E+01  0.40659135518E+02  0.00000000000E+00 0.  1.
         11    1    3    3    0    0  0.13838048414E+02 -0.51110378219E+00 -0.24625854241E+01  0.14064748068E+02  0.51100000000E-03 0. -1.
        -11    1    3    3    0    0  0.20851762151E+02 -0.15794312970E+02  0.31431323737E+01  0.26346453051E+02  0.51100000000E-03 0.  1.
         12    1    3    3    0    0 -0.24828259042E+01 -0.80052178616E+01 -0.56673780940E+01  0.10117663364E+02  0.00000000000E+00 0. -1.
</event>
<event>
 7    1  0.2584640E-011  0.5052887E+02  0.7816164E-02  0.1300439E+00
        -11   -1    0    0    0    0  0.00000000000E+00  0.00000000000E+00  0.45593999997E+02  0.45594000000E+02  0.51100000000E-03 0.  1.
         11   -1    0    0    0    0 -0.00000000000E+00 -0.00000000000E+00 -0.45593999997E+02  0.45594000000E+02  0.51100000000E-03 0. -1.
    9900012    2    1    2    0    0 -0.22665938650E+02  0.30817884198E+02 -0.13772375051E+02  0.50528867252E+02  0.30000022499E+02 0.  0.
        -12    1    1    2    0    0  0.22665938650E+02 -0.30817884198E+02  0.13772375051E+02  0.40659132748E+02  0.00000000000E+00 0.  1.
         11    1    3    3    0    0 -0.60240311564E+01  0.64474069220E+01  0.32364666830E+01  0.93985490498E+01  0.51100000000E-03 0. -1.
        -11    1    3    3    0    0  0.27982803934E+01 -0.26831468316E+01 -0.37607661306E+00  0.38950075686E+01  0.51100000000E-03 0.  1.
         12    1    3    3    0    0 -0.19440187887E+02  0.27053624107E+02 -0.16632765121E+02  0.37235310633E+02  0.00000000000E+00 0. -1.
</event>
<event>
 7    1  0.2584640E-011  0.5052886E+02  0.7816164E-02  0.1300439E+00
        -11   -1    0    0    0    0  0.00000000000E+00  0.00000000000E+00  0.45593999997E+02  0.45594000000E+02  0.51100000000E-03 0. -1.
         11   -1    0    0    0    0 -0.00000000000E+00 -0.00000000000E+00 -0.45593999997E+02  0.45594000000E+02  0.51100000000E-03 0.  1.
    9900012    2    1    2    0    0 -0.24256744130E+01  0.33409944126E+02  0.23044679592E+02  0.50528861785E+02  0.30000005882E+02 0.  0.
        -12    1    1    2    0    0  0.24256744130E+01 -0.33409944126E+02 -0.23044679592E+02  0.40659138215E+02  0.00000000000E+00 0.  1.
         11    1    3    3    0    0  0.50326444301E+01  0.11042495235E+02  0.12346427006E+01  0.12197891368E+02  0.51100000000E-03 0. -1.
        -11    1    3    3    0    0  0.28780615262E+00  0.21838903264E+02  0.95910516610E+01  0.23853905348E+02  0.51100000000E-03 0.  1.
         12    1    3    3    0    0 -0.77461249957E+01  0.52854562714E+00  0.12218985230E+02  0.14477065068E+02  0.00000000000E+00 0. -1.
</event>
<event>
 7    1  0.2584640E-011  0.5052885E+02  0.7816164E-02  0.1300439E+00
        -11   -1    0    0    0    0  0.00000000000E+00  0.00000000000E+00  0.45593999997E+02  0.45594000000E+02  0.51100000000E-03 0. -1.
         11   -1    0    0    0    0 -0.00000000000E+00 -0.00000000000E+00 -0.45593999997E+02  0.45594000000E+02  0.51100000000E-03 0.  1.
    9900012    2    1    2    0    0  0.40053308013E+02  0.69098251986E+01  0.10737800059E+01  0.50528853789E+02  0.29999981577E+02 0.  0.
        -12    1    1    2    0    0 -0.40053308013E+02 -0.69098251986E+01 -0.10737800059E+01  0.40659146211E+02  0.00000000000E+00 0.  1.
         11    1    3    3    0    0  0.68855262005E+01  0.99517579207E+00  0.11072783623E+02  0.13076979137E+02  0.51100000000E-03 0. -1.
        -11    1    3    3    0    0  0.39109974685E+01 -0.35687215185E+01 -0.21210447752E+01  0.57035520227E+01  0.51100000000E-03 0.  1.
         12    1    3    3    0    0  0.29256784344E+02  0.94833709251E+01 -0.78779588422E+01  0.31748322630E+02  0.00000000000E+00 0. -1.
</event>
<event>
 7    1  0.2584640E-011  0.5052886E+02  0.7816164E-02  0.1300439E+00
        -11   -1    0    0    0    0  0.00000000000E+00  0.00000000000E+00  0.45593999997E+02  0.45594000000E+02  0.51100000000E-03 0.  1.
         11   -1    0    0    0    0 -0.00000000000E+00 -0.00000000000E+00 -0.45593999997E+02  0.45594000000E+02  0.51100000000E-03 0. -1.
    9900012    2    1    2    0    0 -0.71854410539E+01  0.36830013892E+02 -0.15655201245E+02  0.50528858193E+02  0.29999994964E+02 0.  0.
        -12    1    1    2    0    0  0.71854410539E+01 -0.36830013892E+02  0.15655201245E+02  0.40659141807E+02  0.00000000000E+00 0.  1.
         11    1    3    3    0    0  0.66436880521E+01  0.42230340175E+01 -0.76916155413E+00  0.79097545476E+01  0.51100000000E-03 0.  1.
        -11    1    3    3    0    0 -0.10320891437E+02  0.39789208112E+01 -0.33758372732E+01  0.11564985448E+02  0.51100000000E-03 0. -1.
        -12    1    3    3    0    0 -0.35082376694E+01  0.28628059064E+02 -0.11510202418E+02  0.31054118197E+02  0.00000000000E+00 0.  1.
</event>
<event>
 7    1  0.2584640E-011  0.5052886E+02  0.7816164E-02  0.1300439E+00
        -11   -1    0    0    0    0  0.00000000000E+00  0.00000000000E+00  0.45593999997E+02  0.45594000000E+02  0.51100000000E-03 0.  1.
         11   -1    0    0    0    0 -0.00000000000E+00 -0.00000000000E+00 -0.45593999997E+02  0.45594000000E+02  0.51100000000E-03 0. -1.
    9900012    2    1    2    0    0 -0.26116164952E+02 -0.23967293340E+02 -0.19916839713E+02  0.50528859256E+02  0.29999998195E+02 0.  0.
        -12    1    1    2    0    0  0.26116164952E+02  0.23967293340E+02  0.19916839713E+02  0.40659140744E+02  0.00000000000E+00 0.  1.
         11    1    3    3    0    0 -0.13815110421E+02  0.15517637233E+01 -0.13525492134E+02  0.19395983717E+02  0.51100000000E-03 0. -1.
        -11    1    3    3    0    0 -0.30946301370E+01 -0.13736675825E+02 -0.78293063505E+01  0.16111208415E+02  0.51100000000E-03 0.  1.
        -12    1    3    3    0    0 -0.92064243941E+01 -0.11782381238E+02  0.14379587714E+01  0.15021667125E+02  0.00000000000E+00 0.  1.
</event>
<event>
 7    1  0.2584640E-011  0.5052886E+02  0.7816164E-02  0.1300439E+00
        -11   -1    0    0    0    0  0.00000000000E+00  0.00000000000E+00  0.45593999997E+02  0.45594000000E+02  0.51100000000E-03 0.  1.
         11   -1    0    0    0    0 -0.00000000000E+00 -0.00000000000E+00 -0.45593999997E+02  0.45594000000E+02  0.51100000000E-03 0. -1.
    9900012    2    1    2    0    0  0.91515099989E+01  0.38188274635E+02 -0.10539028015E+02  0.50528861219E+02  0.30000004162E+02 0.  0.
        -12    1    1    2    0    0 -0.91515099989E+01 -0.38188274635E+02  0.10539028015E+02  0.40659138781E+02  0.00000000000E+00 0.  1.
         11    1    3    3    0    0  0.32406580080E+01  0.18635027588E+02  0.35011326228E+01  0.19236009135E+02  0.51100000000E-03 0.  1.
        -11    1    3    3    0    0  0.10251807918E+02  0.72626372388E+01 -0.61174103097E+00  0.12578540957E+02  0.51100000000E-03 0. -1.
        -12    1    3    3    0    0 -0.43409559275E+01  0.12290609809E+02 -0.13428419607E+02  0.18714311127E+02  0.00000000000E+00 0.  1.
</event>
<event>
 7    1  0.2584640E-011  0.5052886E+02  0.7816164E-02  0.1300439E+00
        -11   -1    0    0    0    0  0.00000000000E+00  0.00000000000E+00  0.45593999997E+02  0.45594000000E+02  0.51100000000E-03 0.  1.
         11   -1    0    0    0    0 -0.00000000000E+00 -0.00000000000E+00 -0.45593999997E+02  0.45594000000E+02  0.51100000000E-03 0. -1.
    9900012    2    1    2    0    0  0.51696713979E+01 -0.15399932886E+02 -0.37273081658E+02  0.50528855253E+02  0.29999986027E+02 0.  0.
        -12    1    1    2    0    0 -0.51696713979E+01  0.15399932886E+02  0.37273081658E+02  0.40659144747E+02  0.00000000000E+00 0.  1.
         11    1    3    3    0    0  0.75165001380E+01 -0.15342654194E+02 -0.34757987525E+02  0.38729994954E+02  0.51100000000E-03 0. -1.
        -11    1    3    3    0    0 -0.47699377927E+01  0.57723483338E+00 -0.58867289422E+01  0.75986238556E+01  0.51100000000E-03 0.  1.
        -12    1    3    3    0    0  0.24231090526E+01 -0.63451352546E+00  0.33716348094E+01  0.42002364437E+01  0.00000000000E+00 0.  1.
</event>
<event>
 7    1  0.2584640E-011  0.5052884E+02  0.7816164E-02  0.1300439E+00
        -11   -1    0    0    0    0  0.00000000000E+00  0.00000000000E+00  0.45593999997E+02  0.45594000000E+02  0.51100000000E-03 0.  1.
         11   -1    0    0    0    0 -0.00000000000E+00 -0.00000000000E+00 -0.45593999997E+02  0.45594000000E+02  0.51100000000E-03 0. -1.
    9900012    2    1    2    0    0 -0.16775572737E+02 -0.86300204790E+01 -0.36017638121E+02  0.50528839286E+02  0.29999937494E+02 0.  0.
        -12    1    1    2    0    0  0.16775572737E+02  0.86300204790E+01  0.36017638121E+02  0.40659160714E+02  0.00000000000E+00 0.  1.
         11    1    3    3    0    0 -0.16254255135E+02 -0.14982323431E+02 -0.22124611711E+02  0.31275697739E+02  0.51100000000E-03 0. -1.
        -11    1    3    3    0    0 -0.57805504453E+01  0.54837583482E+01 -0.89598066952E+01  0.11990183708E+02  0.51100000000E-03 0.  1.
        -12    1    3    3    0    0  0.52592328433E+01  0.86854460409E+00 -0.49332197145E+01  0.72629578397E+01  0.00000000000E+00 0.  1.
</event>
<event>
 7    1  0.2584640E-011  0.5052887E+02  0.7816164E-02  0.1300439E+00
        -11   -1    0    0    0    0  0.00000000000E+00  0.00000000000E+00  0.45593999997E+02  0.45594000000E+02  0.51100000000E-03 0. -1.
         11   -1    0    0    0    0 -0.00000000000E+00 -0.00000000000E+00 -0.45593999997E+02  0.45594000000E+02  0.51100000000E-03 0.  1.
    9900012    2    1    2    0    0  0.33173664568E+02 -0.15127056979E+02  0.17995699058E+02  0.50528867468E+02  0.30000023155E+02 0.  0.
        -12    1    1    2    0    0 -0.33173664568E+02  0.15127056979E+02 -0.17995699058E+02  0.40659132532E+02  0.00000000000E+00 0.  1.
         11    1    3    3    0    0  0.38150175922E+01 -0.38998780683E+01  0.11626833655E+01  0.55781037142E+01  0.51100000000E-03 0. -1.
        -11    1    3    3    0    0  0.54040497766E+01  0.65157795496E+01  0.12100323636E+02  0.14767429346E+02  0.51100000000E-03 0.  1.
        -12    1    3    3    0    0  0.23954597199E+02 -0.17742958460E+02  0.47326920566E+01  0.30183334408E+02  0.00000000000E+00 0.  1.
</event>
<event>
 7    1  0.2584640E-011  0.5052886E+02  0.7816164E-02  0.1300439E+00
        -11   -1    0    0    0    0  0.00000000000E+00  0.00000000000E+00  0.45593999997E+02  0.45594000000E+02  0.51100000000E-03 0.  1.
         11   -1    0    0    0    0 -0.00000000000E+00 -0.00000000000E+00 -0.45593999997E+02  0.45594000000E+02  0.51100000000E-03 0. -1.
    9900012    2    1    2    0    0  0.17403340240E+02  0.26311375515E+02 -0.25651524808E+02  0.50528862552E+02  0.30000008214E+02 0.  0.
        -12    1    1    2    0    0 -0.17403340240E+02 -0.26311375515E+02  0.25651524808E+02  0.40659137448E+02  0.00000000000E+00 0.  1.
         11    1    3    3    0    0  0.21633657644E+02  0.25401854384E+02 -0.19741945989E+02  0.38768721682E+02  0.51100000000E-03 0. -1.
        -11    1    3    3    0    0  0.58887857717E+00 -0.35427074421E+01 -0.17861621284E+01  0.40109761167E+01  0.51100000000E-03 0.  1.
        -12    1    3    3    0    0 -0.48191959804E+01  0.44522285732E+01 -0.41234166905E+01  0.77491647530E+01  0.00000000000E+00 0.  1.
</event>
<event>
 7    1  0.2584640E-011  0.5052886E+02  0.7816164E-02  0.1300439E+00
        -11   -1    0    0    0    0  0.00000000000E+00  0.00000000000E+00  0.45593999997E+02  0.45594000000E+02  0.51100000000E-03 0.  1.
         11   -1    0    0    0    0 -0.00000000000E+00 -0.00000000000E+00 -0.45593999997E+02  0.45594000000E+02  0.51100000000E-03 0. -1.
    9900012    2    1    2    0    0 -0.20332897416E+02 -0.28952681476E+02  0.20036988905E+02  0.50528863187E+02  0.30000010143E+02 0.  0.
        -12    1    1    2    0    0  0.20332897416E+02  0.28952681476E+02 -0.20036988905E+02  0.40659136813E+02  0.00000000000E+00 0.  1.
         11    1    3    3    0    0 -0.13186971704E+02 -0.29508363519E+01  0.72602531245E+01  0.15339978279E+02  0.51100000000E-03 0. -1.
        -11    1    3    3    0    0  0.18569315062E+00  0.33879633612E-02  0.76936979741E+01  0.76959393320E+01  0.51100000000E-03 0.  1.
         12    1    3    3    0    0 -0.73316188629E+01 -0.26005233088E+02  0.50830378059E+01  0.27492945576E+02  0.00000000000E+00 0. -1.
</event>
<event>
 7    1  0.2584640E-011  0.5052886E+02  0.7816164E-02  0.1300439E+00
        -11   -1    0    0    0    0  0.00000000000E+00  0.00000000000E+00  0.45593999997E+02  0.45594000000E+02  0.51100000000E-03 0. -1.
         11   -1    0    0    0    0 -0.00000000000E+00 -0.00000000000E+00 -0.45593999997E+02  0.45594000000E+02  0.51100000000E-03 0.  1.
    9900012    2    1    2    0    0 -0.38074333332E+02 -0.99706410989E+01  0.10202817891E+02  0.50528855450E+02  0.29999986626E+02 0.  0.
        -12    1    1    2    0    0  0.38074333332E+02  0.99706410989E+01 -0.10202817891E+02  0.40659144550E+02  0.00000000000E+00 0.  1.
         11    1    3    3    0    0 -0.32062373407E+00 -0.67980755274E+01  0.53583539654E+01  0.86619044057E+01  0.51100000000E-03 0. -1.
        -11    1    3    3    0    0 -0.18774402990E+01 -0.55648262401E+00 -0.43228321132E+01  0.47456646244E+01  0.51100000000E-03 0.  1.
         12    1    3    3    0    0 -0.35876269299E+02 -0.26160829475E+01  0.91672960387E+01  0.37121286420E+02  0.00000000000E+00 0. -1.
</event>
<event>
 7    1  0.2584640E-011  0.5052886E+02  0.7816164E-02  0.1300439E+00
        -11   -1    0    0    0    0  0.00000000000E+00  0.00000000000E+00  0.45593999997E+02  0.45594000000E+02  0.51100000000E-03 0.  1.
         11   -1    0    0    0    0 -0.00000000000E+00 -0.00000000000E+00 -0.45593999997E+02  0.45594000000E+02  0.51100000000E-03 0. -1.
    9900012    2    1    2    0    0  0.19174859433E+02  0.95449892935E+01 -0.34559859498E+02  0.50528856583E+02  0.29999990069E+02 0.  0.
        -12    1    1    2    0    0 -0.19174859433E+02 -0.95449892935E+01  0.34559859498E+02  0.40659143417E+02  0.00000000000E+00 0.  1.
         11    1    3    3    0    0  0.13810753721E+02  0.20713763720E+01 -0.16157158953E+02  0.21356060126E+02  0.51100000000E-03 0. -1.
        -11    1    3    3    0    0  0.93413384608E+01  0.98059331653E+00 -0.14812050186E+00  0.93938334792E+01  0.51100000000E-03 0.  1.
        -12    1    3    3    0    0 -0.39772327481E+01  0.64930196049E+01 -0.18254580043E+02  0.19778962978E+02  0.00000000000E+00 0.  1.
</event>
<event>
 7    1  0.2584640E-011  0.5052887E+02  0.7816164E-02  0.1300439E+00
        -11   -1    0    0    0    0  0.00000000000E+00  0.00000000000E+00  0.45593999997E+02  0.45594000000E+02  0.51100000000E-03 0.  1.
         11   -1    0    0    0    0 -0.00000000000E+00 -0.00000000000E+00 -0.45593999997E+02  0.45594000000E+02  0.51100000000E-03 0. -1.
    9900012    2    1    2    0    0  0.81887391763E+01 -0.37314413351E+02 -0.13919207789E+02  0.50528865252E+02  0.30000016419E+02 0.  0.
        -12    1    1    2    0    0 -0.81887391763E+01  0.37314413351E+02  0.13919207789E+02  0.40659134748E+02  0.00000000000E+00 0.  1.
         11    1    3    3    0    0 -0.64299202426E+01 -0.60281472203E+01 -0.11179438362E+02  0.14235950112E+02  0.51100000000E-03 0. -1.
        -11    1    3    3    0    0  0.44221145327E+01 -0.11636458944E+02 -0.61655100725E+01  0.13891572568E+02  0.51100000000E-03 0.  1.
        -12    1    3    3    0    0  0.10196544886E+02 -0.19649807186E+02  0.34257406452E+01  0.22401342572E+02  0.00000000000E+00 0.  1.
</event>
<event>
 7    1  0.2584640E-011  0.5052890E+02  0.7816164E-02  0.1300439E+00
        -11   -1    0    0    0    0  0.00000000000E+00  0.00000000000E+00  0.45593999997E+02  0.45594000000E+02  0.51100000000E-03 0. -1.
         11   -1    0    0    0    0 -0.00000000000E+00 -0.00000000000E+00 -0.45593999997E+02  0.45594000000E+02  0.51100000000E-03 0.  1.
    9900012    2    1    2    0    0 -0.25212204731E+02  0.31571272848E+02  0.45564797548E+01  0.50528904530E+02  0.30000135810E+02 0.  0.
        -12    1    1    2    0    0  0.25212204731E+02 -0.31571272848E+02 -0.45564797548E+01  0.40659095470E+02  0.00000000000E+00 0.  1.
         11    1    3    3    0    0 -0.15087222076E+02  0.69335167929E+01 -0.10530502972E+01  0.16637513043E+02  0.51100000000E-03 0. -1.
        -11    1    3    3    0    0 -0.10024130944E+02  0.19837763187E+02 -0.45201691174E+01  0.22681533867E+02  0.51100000000E-03 0.  1.
        -12    1    3    3    0    0 -0.10085171114E+00  0.47999928687E+01  0.10129699169E+02  0.11209857620E+02  0.00000000000E+00 0.  1.
</event>
<event>
 7    1  0.2584640E-011  0.5052886E+02  0.7816164E-02  0.1300439E+00
        -11   -1    0    0    0    0  0.00000000000E+00  0.00000000000E+00  0.45593999997E+02  0.45594000000E+02  0.51100000000E-03 0.  1.
         11   -1    0    0    0    0 -0.00000000000E+00 -0.00000000000E+00 -0.45593999997E+02  0.45594000000E+02  0.51100000000E-03 0. -1.
    9900012    2    1    2    0    0  0.19982292774E+02  0.23051411532E+02 -0.26879467507E+02  0.50528863615E+02  0.30000011444E+02 0.  0.
        -12    1    1    2    0    0 -0.19982292774E+02 -0.23051411532E+02  0.26879467507E+02  0.40659136385E+02  0.00000000000E+00 0.  1.
         11    1    3    3    0    0  0.86104862829E+01  0.19157633116E+02 -0.42326474096E+01  0.21425934868E+02  0.51100000000E-03 0. -1.
        -11    1    3    3    0    0  0.71969046294E+01  0.86418457091E+01 -0.10387994367E+02  0.15309714587E+02  0.51100000000E-03 0.  1.
        -12    1    3    3    0    0  0.41749018613E+01 -0.47480672926E+01 -0.12258825730E+02  0.13793214160E+02  0.00000000000E+00 0.  1.
</event>
<event>
 7    1  0.2864113E-011  0.5052883E+02  0.7816164E-02  0.1300439E+00
        -11   -1    0    0    0    0  0.00000000000E+00  0.00000000000E+00  0.45593999997E+02  0.45594000000E+02  0.51100000000E-03 0. -1.
         11   -1    0    0    0    0 -0.00000000000E+00 -0.00000000000E+00 -0.45593999997E+02  0.45594000000E+02  0.51100000000E-03 0.  1.
    9900012    2    1    2    0    0 -0.11097984848E+02 -0.22458537119E+02  0.32025257825E+02  0.50528827653E+02  0.29999902133E+02 0.  0.
        -12    1    1    2    0    0  0.11097984848E+02  0.22458537119E+02 -0.32025257825E+02  0.40659172347E+02  0.00000000000E+00 0.  1.
         11    1    3    3    0    0 -0.13945645654E+02 -0.10288183136E+02  0.17976263335E+02  0.24969457117E+02  0.51100000000E-03 0. -1.
        -11    1    3    3    0    0 -0.90248999933E+00 -0.14067308105E+02  0.15649711604E+02  0.21062220184E+02  0.51100000000E-03 0.  1.
        -12    1    3    3    0    0  0.37501508060E+01  0.18969541217E+01 -0.16007171147E+01  0.44971503520E+01  0.00000000000E+00 0.  1.
</event>
<event>
 7    1  0.2584640E-011  0.5052886E+02  0.7816164E-02  0.1300439E+00
        -11   -1    0    0    0    0  0.00000000000E+00  0.00000000000E+00  0.45593999997E+02  0.45594000000E+02  0.51100000000E-03 0.  1.
         11   -1    0    0    0    0 -0.00000000000E+00 -0.00000000000E+00 -0.45593999997E+02  0.45594000000E+02  0.51100000000E-03 0. -1.
    9900012    2    1    2    0    0 -0.34928323709E+02  0.16907247259E+02  0.12137674158E+02  0.50528856613E+02  0.29999990161E+02 0.  0.
        -12    1    1    2    0    0  0.34928323709E+02 -0.16907247259E+02 -0.12137674158E+02  0.40659143387E+02  0.00000000000E+00 0.  1.
         11    1    3    3    0    0 -0.33216202616E+02  0.13514811003E+02  0.13784698556E+02  0.38418539108E+02  0.51100000000E-03 0. -1.
        -11    1    3    3    0    0 -0.49865906918E+01 -0.22161721890E+01 -0.12826518433E+01  0.56055955894E+01  0.51100000000E-03 0.  1.
        -12    1    3    3    0    0  0.32744695985E+01  0.56086084447E+01 -0.36437255524E+00  0.65047219153E+01  0.00000000000E+00 0.  1.
</event>
<event>
 7    1  0.2584640E-011  0.5052889E+02  0.7816164E-02  0.1300439E+00
        -11   -1    0    0    0    0  0.00000000000E+00  0.00000000000E+00  0.45593999997E+02  0.45594000000E+02  0.51100000000E-03 0.  1.
         11   -1    0    0    0    0 -0.00000000000E+00 -0.00000000000E+00 -0.45593999997E+02  0.45594000000E+02  0.51100000000E-03 0. -1.
    9900012    2    1    2    0    0 -0.26954481990E+02  0.26189640366E+02 -0.15515223541E+02  0.50528886343E+02  0.30000080527E+02 0.  0.
        -12    1    1    2    0    0  0.26954481990E+02 -0.26189640366E+02  0.15515223541E+02  0.40659113657E+02  0.00000000000E+00 0.  1.
         11    1    3    3    0    0  0.35689365134E+01  0.65264647366E+00 -0.47928339600E+01  0.60111989558E+01  0.51100000000E-03 0.  1.
        -11    1    3    3    0    0 -0.22402112685E+02  0.11779206653E+02 -0.12876144059E+02  0.28397173243E+02  0.51100000000E-03 0. -1.
         12    1    3    3    0    0 -0.81213058187E+01  0.13757787239E+02  0.21537544772E+01  0.16120514144E+02  0.00000000000E+00 0. -1.
</event>
<event>
 7    1  0.2584640E-011  0.5052899E+02  0.7816164E-02  0.1300438E+00
        -11   -1    0    0    0    0  0.00000000000E+00  0.00000000000E+00  0.45593999997E+02  0.45594000000E+02  0.51100000000E-03 0. -1.
         11   -1    0    0    0    0 -0.00000000000E+00 -0.00000000000E+00 -0.45593999997E+02  0.45594000000E+02  0.51100000000E-03 0.  1.
    9900012    2    1    2    0    0 -0.36791653788E+02  0.17106710597E+02  0.26247798333E+01  0.50528993556E+02  0.30000406409E+02 0.  0.
        -12    1    1    2    0    0  0.36791653788E+02 -0.17106710597E+02 -0.26247798333E+01  0.40659006444E+02  0.00000000000E+00 0.  1.
         11    1    3    3    0    0 -0.71265367472E+01 -0.25361538813E+01 -0.44071932967E+01  0.87545962519E+01  0.51100000000E-03 0. -1.
        -11    1    3    3    0    0 -0.21020286535E+02  0.23360036694E+02  0.31066780222E+01  0.31578397821E+02  0.51100000000E-03 0.  1.
         12    1    3    3    0    0 -0.86448305060E+01 -0.37171722165E+01  0.39252951077E+01  0.10195999482E+02  0.00000000000E+00 0. -1.
</event>
<event>
 7    1  0.2584640E-011  0.5052886E+02  0.7816164E-02  0.1300439E+00
        -11   -1    0    0    0    0  0.00000000000E+00  0.00000000000E+00  0.45593999997E+02  0.45594000000E+02  0.51100000000E-03 0.  1.
         11   -1    0    0    0    0 -0.00000000000E+00 -0.00000000000E+00 -0.45593999997E+02  0.45594000000E+02  0.51100000000E-03 0. -1.
    9900012    2    1    2    0    0  0.18797985381E+01 -0.27674079290E+02 -0.29728393262E+02  0.50528859908E+02  0.30000000175E+02 0.  0.
        -12    1    1    2    0    0 -0.18797985381E+01  0.27674079290E+02  0.29728393262E+02  0.40659140092E+02  0.00000000000E+00 0.  1.
         11    1    3    3    0    0 -0.86441858984E+01 -0.32998718916E+01 -0.15456359237E+02  0.18014165134E+02  0.51100000000E-03 0. -1.
        -11    1    3    3    0    0  0.66124141243E+01 -0.26485416338E+01 -0.30114512037E+01  0.77335394194E+01  0.51100000000E-03 0.  1.
         12    1    3    3    0    0  0.39115703122E+01 -0.21725665764E+02 -0.11260582822E+02  0.24781155355E+02  0.00000000000E+00 0. -1.
</event>
<event>
 7    1  0.2584640E-011  0.5052886E+02  0.7816164E-02  0.1300439E+00
        -11   -1    0    0    0    0  0.00000000000E+00  0.00000000000E+00  0.45593999997E+02  0.45594000000E+02  0.51100000000E-03 0. -1.
         11   -1    0    0    0    0 -0.00000000000E+00 -0.00000000000E+00 -0.45593999997E+02  0.45594000000E+02  0.51100000000E-03 0.  1.
    9900012    2    1    2    0    0 -0.38625116499E+02  0.92735607236E+01  0.86756546391E+01  0.50528861588E+02  0.30000005282E+02 0.  0.
        -12    1    1    2    0    0  0.38625116499E+02 -0.92735607236E+01 -0.86756546391E+01  0.40659138412E+02  0.00000000000E+00 0.  1.
         11    1    3    3    0    0 -0.26407859371E+02  0.14500890663E+02 -0.10011620475E+01  0.30143874872E+02  0.51100000000E-03 0.  1.
        -11    1    3    3    0    0  0.40454274628E-01  0.29801031488E+01  0.28735913980E+01  0.41400699402E+01  0.51100000000E-03 0. -1.
        -12    1    3    3    0    0 -0.12257711402E+02 -0.82074330883E+01  0.68032252886E+01  0.16244916775E+02  0.00000000000E+00 0.  1.
</event>
<event>
 7    1  0.2584640E-011  0.5052886E+02  0.7816164E-02  0.1300439E+00
        -11   -1    0    0    0    0  0.00000000000E+00  0.00000000000E+00  0.45593999997E+02  0.45594000000E+02  0.51100000000E-03 0. -1.
         11   -1    0    0    0    0 -0.00000000000E+00 -0.00000000000E+00 -0.45593999997E+02  0.45594000000E+02  0.51100000000E-03 0.  1.
    9900012    2    1    2    0    0  0.20209347878E+02  0.30088738697E+02  0.18423234704E+02  0.50528861852E+02  0.30000006084E+02 0.  0.
        -12    1    1    2    0    0 -0.20209347878E+02 -0.30088738697E+02 -0.18423234704E+02  0.40659138148E+02  0.00000000000E+00 0.  1.
         11    1    3    3    0    0  0.65162057735E+01  0.20936873882E+02  0.15812444957E+02  0.27034182833E+02  0.51100000000E-03 0. -1.
        -11    1    3    3    0    0  0.32885222176E+01  0.60936280121E+01  0.86512761463E+01  0.11081121782E+02  0.51100000000E-03 0.  1.
        -12    1    3    3    0    0  0.10404619887E+02  0.30582368022E+01 -0.60404863995E+01  0.12413557237E+02  0.00000000000E+00 0.  1.
</event>
<event>
 7    1  0.2584640E-011  0.5052886E+02  0.7816164E-02  0.1300439E+00
        -11   -1    0    0    0    0  0.00000000000E+00  0.00000000000E+00  0.45593999997E+02  0.45594000000E+02  0.51100000000E-03 0. -1.
         11   -1    0    0    0    0 -0.00000000000E+00 -0.00000000000E+00 -0.45593999997E+02  0.45594000000E+02  0.51100000000E-03 0.  1.
    9900012    2    1    2    0    0  0.23041198324E+02 -0.39809387588E+01  0.33262906554E+02  0.50528860240E+02  0.30000001187E+02 0.  0.
        -12    1    1    2    0    0 -0.23041198324E+02  0.39809387588E+01 -0.33262906554E+02  0.40659139760E+02  0.00000000000E+00 0.  1.
         11    1    3    3    0    0  0.17831480055E+02 -0.63691539774E+00  0.19678949692E+02  0.26563666979E+02  0.51100000000E-03 0. -1.
        -11    1    3    3    0    0  0.55914658079E+00  0.36210658634E+01  0.15026616602E+02  0.15466866834E+02  0.51100000000E-03 0.  1.
        -12    1    3    3    0    0  0.46505716885E+01 -0.69650892245E+01 -0.14426597404E+01  0.84983264271E+01  0.00000000000E+00 0.  1.
</event>
<event>
 7    1  0.2584640E-011  0.5052886E+02  0.7816164E-02  0.1300439E+00
        -11   -1    0    0    0    0  0.00000000000E+00  0.00000000000E+00  0.45593999997E+02  0.45594000000E+02  0.51100000000E-03 0.  1.
         11   -1    0    0    0    0 -0.00000000000E+00 -0.00000000000E+00 -0.45593999997E+02  0.45594000000E+02  0.51100000000E-03 0. -1.
    9900012    2    1    2    0    0  0.20925986443E+02 -0.11675189390E+02 -0.32847507385E+02  0.50528859610E+02  0.29999999269E+02 0.  0.
        -12    1    1    2    0    0 -0.20925986443E+02  0.11675189390E+02  0.32847507385E+02  0.40659140390E+02  0.00000000000E+00 0.  1.
         11    1    3    3    0    0  0.46882933174E+01 -0.13471645541E+02 -0.25551825438E+02  0.29263648291E+02  0.51100000000E-03 0. -1.
        -11    1    3    3    0    0  0.10546397212E+02 -0.40224473885E+01 -0.66487697036E+01  0.13100103663E+02  0.51100000000E-03 0.  1.
        -12    1    3    3    0    0  0.56912959134E+01  0.58189035403E+01 -0.64691224346E+00  0.81651076561E+01  0.00000000000E+00 0.  1.
</event>
<event>
 7    1  0.2584640E-011  0.5052886E+02  0.7816164E-02  0.1300439E+00
        -11   -1    0    0    0    0  0.00000000000E+00  0.00000000000E+00  0.45593999997E+02  0.45594000000E+02  0.51100000000E-03 0. -1.
         11   -1    0    0    0    0 -0.00000000000E+00 -0.00000000000E+00 -0.45593999997E+02  0.45594000000E+02  0.51100000000E-03 0.  1.
    9900012    2    1    2    0    0 -0.24721590452E+02  0.23406148527E+02  0.22229724718E+02  0.50528862228E+02  0.30000007227E+02 0.  0.
        -12    1    1    2    0    0  0.24721590452E+02 -0.23406148527E+02 -0.22229724718E+02  0.40659137772E+02  0.00000000000E+00 0.  1.
         11    1    3    3    0    0 -0.16898326008E+02  0.30871031723E+01  0.31301688058E+01  0.17460858653E+02  0.51100000000E-03 0. -1.
        -11    1    3    3    0    0 -0.12462197029E+02  0.17554768411E+02  0.14316017818E+02  0.25853909089E+02  0.51100000000E-03 0.  1.
        -12    1    3    3    0    0  0.46389325850E+01  0.27642769439E+01  0.47835380947E+01  0.72140944861E+01  0.00000000000E+00 0.  1.
</event>
<event>
 7    1  0.2584640E-011  0.5052886E+02  0.7816164E-02  0.1300439E+00
        -11   -1    0    0    0    0  0.00000000000E+00  0.00000000000E+00  0.45593999997E+02  0.45594000000E+02  0.51100000000E-03 0.  1.
         11   -1    0    0    0    0 -0.00000000000E+00 -0.00000000000E+00 -0.45593999997E+02  0.45594000000E+02  0.51100000000E-03 0. -1.
    9900012    2    1    2    0    0 -0.39338521306E+02  0.92071569323E+01 -0.45689223152E+01  0.50528855291E+02  0.29999986143E+02 0.  0.
        -12    1    1    2    0    0  0.39338521306E+02 -0.92071569323E+01  0.45689223152E+01  0.40659144709E+02  0.00000000000E+00 0.  1.
         11    1    3    3    0    0 -0.10956204653E+02 -0.54183915015E+01 -0.29452512931E-01  0.12222857872E+02  0.51100000000E-03 0. -1.
        -11    1    3    3    0    0 -0.17440002161E+02  0.12119202668E+02  0.68494378478E+01  0.22314648726E+02  0.51100000000E-03 0.  1.
         12    1    3    3    0    0 -0.10942314493E+02  0.25063457661E+01 -0.11388907650E+02  0.15991348693E+02  0.00000000000E+00 0. -1.
</event>
<event>
 7    1  0.2584640E-011  0.5052886E+02  0.7816164E-02  0.1300439E+00
        -11   -1    0    0    0    0  0.00000000000E+00  0.00000000000E+00  0.45593999997E+02  0.45594000000E+02  0.51100000000E-03 0. -1.
         11   -1    0    0    0    0 -0.00000000000E+00 -0.00000000000E+00 -0.45593999997E+02  0.45594000000E+02  0.51100000000E-03 0.  1.
    9900012    2    1    2    0    0 -0.23256825283E+02 -0.30673418557E+02  0.13093014144E+02  0.50528861450E+02  0.30000004865E+02 0.  0.
        -12    1    1    2    0    0  0.23256825283E+02  0.30673418557E+02 -0.13093014144E+02  0.40659138550E+02  0.00000000000E+00 0.  1.
         11    1    3    3    0    0 -0.13167017803E+02 -0.23225317618E+02  0.14209677896E+02  0.30244018954E+02  0.51100000000E-03 0. -1.
        -11    1    3    3    0    0 -0.36224446755E+01 -0.11542670380E+02  0.15111995644E+01  0.12191762355E+02  0.51100000000E-03 0.  1.
        -12    1    3    3    0    0 -0.64673628050E+01  0.40945694419E+01 -0.26278633169E+01  0.80930801416E+01  0.00000000000E+00 0.  1.
</event>
<event>
 7    1  0.2584640E-011  0.5052888E+02  0.7816164E-02  0.1300439E+00
        -11   -1    0    0    0    0  0.00000000000E+00  0.00000000000E+00  0.45593999997E+02  0.45594000000E+02  0.51100000000E-03 0. -1.
         11   -1    0    0    0    0 -0.00000000000E+00 -0.00000000000E+00 -0.45593999997E+02  0.45594000000E+02  0.51100000000E-03 0.  1.
    9900012    2    1    2    0    0  0.13727621666E+01 -0.33628895088E+02  0.22811773999E+02  0.50528879328E+02  0.30000059205E+02 0.  0.
        -12    1    1    2    0    0 -0.13727621666E+01  0.33628895088E+02 -0.22811773999E+02  0.40659120672E+02  0.00000000000E+00 0.  1.
         11    1    3    3    0    0 -0.27714672187E+01  0.20858241099E+01  0.93267917109E+01  0.99509163719E+01  0.51100000000E-03 0.  1.
        -11    1    3    3    0    0 -0.34944955443E+01 -0.16729493698E+02  0.10052494844E+02  0.19827761128E+02  0.51100000000E-03 0. -1.
        -12    1    3    3    0    0  0.76387249295E+01 -0.18985225500E+02  0.34324874440E+01  0.20750201828E+02  0.00000000000E+00 0.  1.
</event>
<event>
 7    1  0.2584640E-011  0.5052887E+02  0.7816164E-02  0.1300439E+00
        -11   -1    0    0    0    0  0.00000000000E+00  0.00000000000E+00  0.45593999997E+02  0.45594000000E+02  0.51100000000E-03 0.  1.
         11   -1    0    0    0    0 -0.00000000000E+00 -0.00000000000E+00 -0.45593999997E+02  0.45594000000E+02  0.51100000000E-03 0. -1.
    9900012    2    1    2    0    0  0.21464155709E+02 -0.32263068732E+02  0.12310527487E+02  0.50528872226E+02  0.30000037618E+02 0.  0.
        -12    1    1    2    0    0 -0.21464155709E+02  0.32263068732E+02 -0.12310527487E+02  0.40659127774E+02  0.00000000000E+00 0.  1.
         11    1    3    3    0    0  0.58075422481E+01 -0.35448600919E-01 -0.21819822324E+01  0.62040188822E+01  0.51100000000E-03 0. -1.
        -11    1    3    3    0    0  0.89387966813E+01 -0.18580547048E+00  0.49717866858E+01  0.10230115976E+02  0.51100000000E-03 0.  1.
         12    1    3    3    0    0  0.67178167801E+01 -0.32041814661E+02  0.95207230335E+01  0.34094737367E+02  0.00000000000E+00 0. -1.
</event>
<event>
 7    1  0.2584640E-011  0.5052890E+02  0.7816164E-02  0.1300439E+00
        -11   -1    0    0    0    0  0.00000000000E+00  0.00000000000E+00  0.45593999997E+02  0.45594000000E+02  0.51100000000E-03 0. -1.
         11   -1    0    0    0    0 -0.00000000000E+00 -0.00000000000E+00 -0.45593999997E+02  0.45594000000E+02  0.51100000000E-03 0.  1.
    9900012    2    1    2    0    0  0.19913886781E+02 -0.26806208261E+01  0.35347045451E+02  0.50528902164E+02  0.30000128616E+02 0.  0.
        -12    1    1    2    0    0 -0.19913886781E+02  0.26806208261E+01 -0.35347045451E+02  0.40659097836E+02  0.00000000000E+00 0.  1.
         11    1    3    3    0    0  0.11369411740E+01 -0.67499807103E+01  0.22922954665E+01  0.72186905730E+01  0.51100000000E-03 0. -1.
        -11    1    3    3    0    0 -0.20447241324E+01  0.43268920635E+01  0.70412504471E+00  0.48372186271E+01  0.51100000000E-03 0.  1.
         12    1    3    3    0    0  0.20821669739E+02 -0.25753217934E+00  0.32350624940E+02  0.38472992963E+02  0.00000000000E+00 0. -1.
</event>
<event>
 7    1  0.2584640E-011  0.5052884E+02  0.7816164E-02  0.1300439E+00
        -11   -1    0    0    0    0  0.00000000000E+00  0.00000000000E+00  0.45593999997E+02  0.45594000000E+02  0.51100000000E-03 0.  1.
         11   -1    0    0    0    0 -0.00000000000E+00 -0.00000000000E+00 -0.45593999997E+02  0.45594000000E+02  0.51100000000E-03 0. -1.
    9900012    2    1    2    0    0 -0.20135888667E+02  0.26034013610E+02 -0.23873481443E+02  0.50528843672E+02  0.29999950826E+02 0.  0.
        -12    1    1    2    0    0  0.20135888667E+02 -0.26034013610E+02  0.23873481443E+02  0.40659156328E+02  0.00000000000E+00 0.  1.
         11    1    3    3    0    0 -0.18972810099E+01 -0.10798107767E+01  0.22902045621E+01  0.31639696176E+01  0.51100000000E-03 0.  1.
        -11    1    3    3    0    0 -0.12128137925E+02  0.29836723631E+02 -0.18310197260E+02  0.37048416033E+02  0.51100000000E-03 0. -1.
         12    1    3    3    0    0 -0.61104697327E+01 -0.27228992445E+01 -0.78534887452E+01  0.10316458022E+02  0.00000000000E+00 0. -1.
</event>
<event>
 7    1  0.2584640E-011  0.5052886E+02  0.7816164E-02  0.1300439E+00
        -11   -1    0    0    0    0  0.00000000000E+00  0.00000000000E+00  0.45593999997E+02  0.45594000000E+02  0.51100000000E-03 0.  1.
         11   -1    0    0    0    0 -0.00000000000E+00 -0.00000000000E+00 -0.45593999997E+02  0.45594000000E+02  0.51100000000E-03 0. -1.
    9900012    2    1    2    0    0 -0.99528199670E+01 -0.38713809439E+02 -0.74396358285E+01  0.50528857759E+02  0.29999993643E+02 0.  0.
        -12    1    1    2    0    0  0.99528199670E+01  0.38713809439E+02  0.74396358285E+01  0.40659142241E+02  0.00000000000E+00 0.  1.
         11    1    3    3    0    0 -0.47653984013E+01 -0.31959838396E+02 -0.69271383113E+01  0.33047322701E+02  0.51100000000E-03 0. -1.
        -11    1    3    3    0    0 -0.48794140137E+01 -0.45528989691E+01 -0.75645108953E+01  0.10087586207E+02  0.51100000000E-03 0.  1.
        -12    1    3    3    0    0 -0.30800755201E+00 -0.22010720732E+01  0.70520133782E+01  0.73939488509E+01  0.00000000000E+00 0.  1.
</event>
<event>
 7    1  0.2584640E-011  0.5052885E+02  0.7816164E-02  0.1300439E+00
        -11   -1    0    0    0    0  0.00000000000E+00  0.00000000000E+00  0.45593999997E+02  0.45594000000E+02  0.51100000000E-03 0.  1.
         11   -1    0    0    0    0 -0.00000000000E+00 -0.00000000000E+00 -0.45593999997E+02  0.45594000000E+02  0.51100000000E-03 0. -1.
    9900012    2    1    2    0    0  0.38055807592E+02  0.84649568760E+01 -0.11544109245E+02  0.50528850419E+02  0.29999971333E+02 0.  0.
        -12    1    1    2    0    0 -0.38055807592E+02 -0.84649568760E+01  0.11544109245E+02  0.40659149581E+02  0.00000000000E+00 0.  1.
         11    1    3    3    0    0  0.34138155946E+01 -0.58833153474E+01 -0.58820994016E+01  0.89925875043E+01  0.51100000000E-03 0. -1.
        -11    1    3    3    0    0  0.10010159338E+02  0.99089678925E+01 -0.83329404275E+01  0.16365476806E+02  0.51100000000E-03 0.  1.
        -12    1    3    3    0    0  0.24631832660E+02  0.44393043309E+01  0.26709305838E+01  0.25170786108E+02  0.00000000000E+00 0.  1.
</event>
<event>
 7    1  0.2584640E-011  0.5052873E+02  0.7816164E-02  0.1300439E+00
        -11   -1    0    0    0    0  0.00000000000E+00  0.00000000000E+00  0.45593999997E+02  0.45594000000E+02  0.51100000000E-03 0.  1.
         11   -1    0    0    0    0 -0.00000000000E+00 -0.00000000000E+00 -0.45593999997E+02  0.45594000000E+02  0.51100000000E-03 0. -1.
    9900012    2    1    2    0    0  0.30543603733E+02 -0.89141466582E+00 -0.26822929066E+02  0.50528734478E+02  0.29999618916E+02 0.  0.
        -12    1    1    2    0    0 -0.30543603733E+02  0.89141466582E+00  0.26822929066E+02  0.40659265522E+02  0.00000000000E+00 0.  1.
         11    1    3    3    0    0  0.12920741018E+02  0.43699708856E+01 -0.67474718161E+00  0.13656407947E+02  0.51100000000E-03 0. -1.
        -11    1    3    3    0    0  0.60041610985E+01 -0.75869878264E+01 -0.18664638657E+01  0.98537313946E+01  0.51100000000E-03 0.  1.
        -12    1    3    3    0    0  0.11618701617E+02  0.23256022749E+01 -0.24281718019E+02  0.27018595136E+02  0.00000000000E+00 0.  1.
</event>
<event>
 7    1  0.2584640E-011  0.5052886E+02  0.7816164E-02  0.1300439E+00
        -11   -1    0    0    0    0  0.00000000000E+00  0.00000000000E+00  0.45593999997E+02  0.45594000000E+02  0.51100000000E-03 0.  1.
         11   -1    0    0    0    0 -0.00000000000E+00 -0.00000000000E+00 -0.45593999997E+02  0.45594000000E+02  0.51100000000E-03 0. -1.
    9900012    2    1    2    0    0  0.81216944538E+01  0.54170736758E+01 -0.39469722773E+02  0.50528860514E+02  0.30000002017E+02 0.  0.
        -12    1    1    2    0    0 -0.81216944538E+01 -0.54170736758E+01  0.39469722773E+02  0.40659139486E+02  0.00000000000E+00 0.  1.
         11    1    3    3    0    0  0.76737907002E+01 -0.51109281437E+01 -0.21118439141E+02  0.23043374800E+02  0.51100000000E-03 0. -1.
        -11    1    3    3    0    0 -0.51044015422E-01 -0.24369265007E+01  0.21323071513E+01  0.32385105079E+01  0.51100000000E-03 0.  1.
         12    1    3    3    0    0  0.49894776907E+00  0.12964928320E+02 -0.20483590783E+02  0.24246975205E+02  0.00000000000E+00 0. -1.
</event>
<event>
 7    1  0.2584640E-011  0.5052885E+02  0.7816164E-02  0.1300439E+00
        -11   -1    0    0    0    0  0.00000000000E+00  0.00000000000E+00  0.45593999997E+02  0.45594000000E+02  0.51100000000E-03 0.  1.
         11   -1    0    0    0    0 -0.00000000000E+00 -0.00000000000E+00 -0.45593999997E+02  0.45594000000E+02  0.51100000000E-03 0. -1.
    9900012    2    1    2    0    0  0.26146726914E+02 -0.90548742655E+01 -0.29791344279E+02  0.50528852564E+02  0.29999977855E+02 0.  0.
        -12    1    1    2    0    0 -0.26146726914E+02  0.90548742655E+01  0.29791344279E+02  0.40659147436E+02  0.00000000000E+00 0.  1.
         11    1    3    3    0    0  0.20063709382E+02  0.25160384608E+01 -0.92664658300E+01  0.22242982555E+02  0.51100000000E-03 0. -1.
        -11    1    3    3    0    0  0.85035523253E+01 -0.10747763391E+01 -0.75483682756E+01  0.11421182523E+02  0.51100000000E-03 0.  1.
        -12    1    3    3    0    0 -0.24205347939E+01 -0.10496136387E+02 -0.12976510173E+02  0.16864687487E+02  0.00000000000E+00 0.  1.
</event>
<event>
 7    1  0.2584640E-011  0.5052878E+02  0.7816164E-02  0.1300439E+00
        -11   -1    0    0    0    0  0.00000000000E+00  0.00000000000E+00  0.45593999997E+02  0.45594000000E+02  0.51100000000E-03 0.  1.
         11   -1    0    0    0    0 -0.00000000000E+00 -0.00000000000E+00 -0.45593999997E+02  0.45594000000E+02  0.51100000000E-03 0. -1.
    9900012    2    1    2    0    0 -0.16142208440E+02  0.28615250854E+02 -0.23953476082E+02  0.50528776063E+02  0.29999745319E+02 0.  0.
        -12    1    1    2    0    0  0.16142208440E+02 -0.28615250854E+02  0.23953476082E+02  0.40659223937E+02  0.00000000000E+00 0.  1.
         11    1    3    3    0    0  0.42022258031E+00  0.69808492391E+01 -0.13134243522E+02  0.14880093960E+02  0.51100000000E-03 0. -1.
        -11    1    3    3    0    0  0.90800854125E+00  0.23892674916E+01  0.47186098770E+01  0.53664101679E+01  0.51100000000E-03 0.  1.
         12    1    3    3    0    0 -0.17470439562E+02  0.19245134124E+02 -0.15537842437E+02  0.30282271935E+02  0.00000000000E+00 0. -1.
</event>
<event>
 7    1  0.2584640E-011  0.5052886E+02  0.7816164E-02  0.1300439E+00
        -11   -1    0    0    0    0  0.00000000000E+00  0.00000000000E+00  0.45593999997E+02  0.45594000000E+02  0.51100000000E-03 0.  1.
         11   -1    0    0    0    0 -0.00000000000E+00 -0.00000000000E+00 -0.45593999997E+02  0.45594000000E+02  0.51100000000E-03 0. -1.
    9900012    2    1    2    0    0  0.22266419077E+02 -0.41834657094E+01 -0.33761971086E+02  0.50528862092E+02  0.30000006813E+02 0.  0.
        -12    1    1    2    0    0 -0.22266419077E+02  0.41834657094E+01  0.33761971086E+02  0.40659137908E+02  0.00000000000E+00 0.  1.
         11    1    3    3    0    0  0.99251643421E+01  0.75832868935E+01 -0.18056778784E+01  0.12620443740E+02  0.51100000000E-03 0.  1.
        -11    1    3    3    0    0  0.77496108397E+01 -0.31275017181E+01 -0.63470261942E+01  0.10493925716E+02  0.51100000000E-03 0. -1.
        -12    1    3    3    0    0  0.45916438952E+01 -0.86392508848E+01 -0.25609267013E+02  0.27414492636E+02  0.00000000000E+00 0.  1.
</event>
<event>
 7    1  0.2584640E-011  0.5052886E+02  0.7816164E-02  0.1300439E+00
        -11   -1    0    0    0    0  0.00000000000E+00  0.00000000000E+00  0.45593999997E+02  0.45594000000E+02  0.51100000000E-03 0.  1.
         11   -1    0    0    0    0 -0.00000000000E+00 -0.00000000000E+00 -0.45593999997E+02  0.45594000000E+02  0.51100000000E-03 0. -1.
    9900012    2    1    2    0    0  0.31007004879E+02  0.25128934421E+02  0.77632238566E+01  0.50528863987E+02  0.30000012575E+02 0.  0.
        -12    1    1    2    0    0 -0.31007004879E+02 -0.25128934421E+02 -0.77632238566E+01  0.40659136013E+02  0.00000000000E+00 0.  1.
         11    1    3    3    0    0  0.18006072917E+01 -0.26186578842E+01  0.58809894714E+01  0.66847283533E+01  0.51100000000E-03 0. -1.
        -11    1    3    3    0    0 -0.80785834248E-01 -0.19977011521E+01 -0.39727214023E+00  0.20384213644E+01  0.51100000000E-03 0.  1.
         12    1    3    3    0    0  0.29287183421E+02  0.29745293457E+02  0.22795065254E+01  0.41805714270E+02  0.00000000000E+00 0. -1.
</event>
<event>
 7    1  0.2584640E-011  0.5052885E+02  0.7816164E-02  0.1300439E+00
        -11   -1    0    0    0    0  0.00000000000E+00  0.00000000000E+00  0.45593999997E+02  0.45594000000E+02  0.51100000000E-03 0.  1.
         11   -1    0    0    0    0 -0.00000000000E+00 -0.00000000000E+00 -0.45593999997E+02  0.45594000000E+02  0.51100000000E-03 0. -1.
    9900012    2    1    2    0    0 -0.35630996792E+02 -0.12688614488E+02 -0.14919694717E+02  0.50528853913E+02  0.29999981955E+02 0.  0.
        -12    1    1    2    0    0  0.35630996792E+02  0.12688614488E+02  0.14919694717E+02  0.40659146087E+02  0.00000000000E+00 0.  1.
         11    1    3    3    0    0 -0.97621374336E+01  0.18332842239E+00 -0.60010336715E+01  0.11460599547E+02  0.51100000000E-03 0. -1.
        -11    1    3    3    0    0 -0.29315194255E+02 -0.15161161263E+02 -0.50196885486E+01  0.33383209828E+02  0.51100000000E-03 0.  1.
        -12    1    3    3    0    0  0.34463348958E+01  0.22892183524E+01 -0.38989724965E+01  0.56850445388E+01  0.00000000000E+00 0.  1.
</event>
<event>
 7    1  0.2584640E-011  0.5052887E+02  0.7816164E-02  0.1300439E+00
        -11   -1    0    0    0    0  0.00000000000E+00  0.00000000000E+00  0.45593999997E+02  0.45594000000E+02  0.51100000000E-03 0.  1.
         11   -1    0    0    0    0 -0.00000000000E+00 -0.00000000000E+00 -0.45593999997E+02  0.45594000000E+02  0.51100000000E-03 0. -1.
    9900012    2    1    2    0    0  0.19475866108E+02  0.27866801541E+02 -0.22300161532E+02  0.50528865810E+02  0.30000018115E+02 0.  0.
        -12    1    1    2    0    0 -0.19475866108E+02 -0.27866801541E+02  0.22300161532E+02  0.40659134190E+02  0.00000000000E+00 0.  1.
         11    1    3    3    0    0  0.20748916719E+02  0.19849112330E+02 -0.12301043026E+02  0.31238125186E+02  0.51100000000E-03 0. -1.
        -11    1    3    3    0    0  0.13570671557E+01 -0.34674435681E+01  0.16908199658E+00  0.37273831498E+01  0.51100000000E-03 0.  1.
        -12    1    3    3    0    0 -0.26301177668E+01  0.11485132778E+02 -0.10168200503E+02  0.15563357474E+02  0.00000000000E+00 0.  1.
</event>
<event>
 7    1  0.2584640E-011  0.5052886E+02  0.7816164E-02  0.1300439E+00
        -11   -1    0    0    0    0  0.00000000000E+00  0.00000000000E+00  0.45593999997E+02  0.45594000000E+02  0.51100000000E-03 0.  1.
         11   -1    0    0    0    0 -0.00000000000E+00 -0.00000000000E+00 -0.45593999997E+02  0.45594000000E+02  0.51100000000E-03 0. -1.
    9900012    2    1    2    0    0  0.27747704305E+01 -0.24650972089E+02 -0.32214838342E+02  0.50528860987E+02  0.30000003457E+02 0.  0.
        -12    1    1    2    0    0 -0.27747704305E+01  0.24650972089E+02  0.32214838342E+02  0.40659139013E+02  0.00000000000E+00 0.  1.
         11    1    3    3    0    0 -0.10116895322E+01 -0.72310286244E+00 -0.55052964532E+01  0.56439952833E+01  0.51100000000E-03 0. -1.
        -11    1    3    3    0    0  0.10859940609E+01 -0.28348337892E+02 -0.15022180024E+02  0.32100989662E+02  0.51100000000E-03 0.  1.
        -12    1    3    3    0    0  0.27004659019E+01  0.44204686654E+01 -0.11687361864E+02  0.12783876042E+02  0.00000000000E+00 0.  1.
</event>
<event>
 7    1  0.2584640E-011  0.5052886E+02  0.7816164E-02  0.1300439E+00
        -11   -1    0    0    0    0  0.00000000000E+00  0.00000000000E+00  0.45593999997E+02  0.45594000000E+02  0.51100000000E-03 0.  1.
         11   -1    0    0    0    0 -0.00000000000E+00 -0.00000000000E+00 -0.45593999997E+02  0.45594000000E+02  0.51100000000E-03 0. -1.
    9900012    2    1    2    0    0  0.33422719465E+02 -0.22804295301E+02 -0.40064524477E+01  0.50528859308E+02  0.29999998352E+02 0.  0.
        -12    1    1    2    0    0 -0.33422719465E+02  0.22804295301E+02  0.40064524477E+01  0.40659140692E+02  0.00000000000E+00 0.  1.
         11    1    3    3    0    0  0.10769472664E+02  0.25473043842E+01  0.53637571045E+01  0.12297975103E+02  0.51100000000E-03 0. -1.
        -11    1    3    3    0    0 -0.13234548084E+01 -0.27150995652E+01 -0.36941384754E+01  0.47717876750E+01  0.51100000000E-03 0.  1.
         12    1    3    3    0    0  0.23976701609E+02 -0.22636500120E+02 -0.56760710768E+01  0.33459096530E+02  0.00000000000E+00 0. -1.
</event>
<event>
 7    1  0.2584640E-011  0.5052886E+02  0.7816164E-02  0.1300439E+00
        -11   -1    0    0    0    0  0.00000000000E+00  0.00000000000E+00  0.45593999997E+02  0.45594000000E+02  0.51100000000E-03 0.  1.
         11   -1    0    0    0    0 -0.00000000000E+00 -0.00000000000E+00 -0.45593999997E+02  0.45594000000E+02  0.51100000000E-03 0. -1.
    9900012    2    1    2    0    0 -0.27709766293E+02  0.21170658491E+02 -0.20907841219E+02  0.50528858920E+02  0.29999997173E+02 0.  0.
        -12    1    1    2    0    0  0.27709766293E+02 -0.21170658491E+02  0.20907841219E+02  0.40659141080E+02  0.00000000000E+00 0.  1.
         11    1    3    3    0    0 -0.76829626662E+01  0.13147863206E+02 -0.21533800728E+02  0.26374207026E+02  0.51100000000E-03 0. -1.
        -11    1    3    3    0    0 -0.35604143792E+01  0.44610846522E+01 -0.36478541754E+01  0.67738221982E+01  0.51100000000E-03 0.  1.
        -12    1    3    3    0    0 -0.16466389248E+02  0.35617106322E+01  0.42738136846E+01  0.17380829695E+02  0.00000000000E+00 0.  1.
</event>
<event>
 7    1  0.2584640E-011  0.5052886E+02  0.7816164E-02  0.1300439E+00
        -11   -1    0    0    0    0  0.00000000000E+00  0.00000000000E+00  0.45593999997E+02  0.45594000000E+02  0.51100000000E-03 0. -1.
         11   -1    0    0    0    0 -0.00000000000E+00 -0.00000000000E+00 -0.45593999997E+02  0.45594000000E+02  0.51100000000E-03 0.  1.
    9900012    2    1    2    0    0 -0.28356799615E+02  0.19996265011E+02 -0.21194504311E+02  0.50528859431E+02  0.29999998727E+02 0.  0.
        -12    1    1    2    0    0  0.28356799615E+02 -0.19996265011E+02  0.21194504311E+02  0.40659140569E+02  0.00000000000E+00 0.  1.
         11    1    3    3    0    0 -0.16290047662E+02  0.10334339461E+02 -0.12132712175E+01  0.19329672843E+02  0.51100000000E-03 0. -1.
        -11    1    3    3    0    0 -0.36902372436E+01  0.13617887010E+02 -0.15326388309E+02  0.20831775642E+02  0.51100000000E-03 0.  1.
         12    1    3    3    0    0 -0.83765147096E+01 -0.39559614602E+01 -0.46548447844E+01  0.10367410946E+02  0.00000000000E+00 0. -1.
</event>
<event>
 7    1  0.2584640E-011  0.5052889E+02  0.7816164E-02  0.1300439E+00
        -11   -1    0    0    0    0  0.00000000000E+00  0.00000000000E+00  0.45593999997E+02  0.45594000000E+02  0.51100000000E-03 0. -1.
         11   -1    0    0    0    0 -0.00000000000E+00 -0.00000000000E+00 -0.45593999997E+02  0.45594000000E+02  0.51100000000E-03 0.  1.
    9900012    2    1    2    0    0 -0.10351399016E+02  0.59786400657E+01  0.38862159732E+02  0.50528892070E+02  0.30000097934E+02 0.  0.
        -12    1    1    2    0    0  0.10351399016E+02 -0.59786400657E+01 -0.38862159732E+02  0.40659107930E+02  0.00000000000E+00 0.  1.
         11    1    3    3    0    0 -0.23395749892E+01 -0.49823965632E+01  0.22956852994E+02  0.23607519698E+02  0.51100000000E-03 0. -1.
        -11    1    3    3    0    0  0.48517308435E+01  0.49057125812E-01  0.35086684888E+01  0.59876918428E+01  0.51100000000E-03 0.  1.
        -12    1    3    3    0    0 -0.12863554871E+02  0.10911979503E+02  0.12396638249E+02  0.20933680529E+02  0.00000000000E+00 0.  1.
</event>
<event>
 7    1  0.2584640E-011  0.5052884E+02  0.7816164E-02  0.1300439E+00
        -11   -1    0    0    0    0  0.00000000000E+00  0.00000000000E+00  0.45593999997E+02  0.45594000000E+02  0.51100000000E-03 0. -1.
         11   -1    0    0    0    0 -0.00000000000E+00 -0.00000000000E+00 -0.45593999997E+02  0.45594000000E+02  0.51100000000E-03 0.  1.
    9900012    2    1    2    0    0  0.10971446403E+02  0.51697362095E+01  0.38808095557E+02  0.50528842490E+02  0.29999947234E+02 0.  0.
        -12    1    1    2    0    0 -0.10971446403E+02 -0.51697362095E+01 -0.38808095557E+02  0.40659157510E+02  0.00000000000E+00 0.  1.
         11    1    3    3    0    0 -0.31974360259E+01  0.67352258743E+01  0.22753405753E+02  0.23943774522E+02  0.51100000000E-03 0. -1.
        -11    1    3    3    0    0  0.77136563655E+01 -0.70256121890E+01  0.14694076765E+02  0.18021531938E+02  0.51100000000E-03 0.  1.
         12    1    3    3    0    0  0.64552260637E+01  0.54601225242E+01  0.13606130388E+01  0.85635360310E+01  0.00000000000E+00 0. -1.
</event>
<event>
 7    1  0.2584640E-011  0.5052887E+02  0.7816164E-02  0.1300439E+00
        -11   -1    0    0    0    0  0.00000000000E+00  0.00000000000E+00  0.45593999997E+02  0.45594000000E+02  0.51100000000E-03 0. -1.
         11   -1    0    0    0    0 -0.00000000000E+00 -0.00000000000E+00 -0.45593999997E+02  0.45594000000E+02  0.51100000000E-03 0.  1.
    9900012    2    1    2    0    0 -0.26791392071E+02  0.10733844795E+02  0.28638629360E+02  0.50528865666E+02  0.30000017677E+02 0.  0.
        -12    1    1    2    0    0  0.26791392071E+02 -0.10733844795E+02 -0.28638629360E+02  0.40659134334E+02  0.00000000000E+00 0.  1.
         11    1    3    3    0    0 -0.19763618178E+02  0.18336494482E+00  0.12096028315E+02  0.23172141192E+02  0.51100000000E-03 0. -1.
        -11    1    3    3    0    0 -0.12484347280E+02  0.86093761717E+01  0.15072913826E+02  0.21381604630E+02  0.51100000000E-03 0.  1.
        -12    1    3    3    0    0  0.54565733874E+01  0.19411036785E+01  0.14696872199E+01  0.59751198437E+01  0.00000000000E+00 0.  1.
</event>
<event>
 7    1  0.2584640E-011  0.5052887E+02  0.7816164E-02  0.1300439E+00
        -11   -1    0    0    0    0  0.00000000000E+00  0.00000000000E+00  0.45593999997E+02  0.45594000000E+02  0.51100000000E-03 0.  1.
         11   -1    0    0    0    0 -0.00000000000E+00 -0.00000000000E+00 -0.45593999997E+02  0.45594000000E+02  0.51100000000E-03 0. -1.
    9900012    2    1    2    0    0  0.70546481772E+01  0.15490215319E+01 -0.40012466865E+02  0.50528867775E+02  0.30000024090E+02 0.  0.
        -12    1    1    2    0    0 -0.70546481772E+01 -0.15490215319E+01  0.40012466865E+02  0.40659132225E+02  0.00000000000E+00 0.  1.
         11    1    3    3    0    0  0.40483627026E+01  0.43448222862E+01 -0.19619859607E+02  0.20498917350E+02  0.51100000000E-03 0. -1.
        -11    1    3    3    0    0  0.10316359789E+02  0.48701625003E+01 -0.96333819055E+01  0.14931436946E+02  0.51100000000E-03 0.  1.
        -12    1    3    3    0    0 -0.73100743142E+01 -0.76659632546E+01 -0.10759225353E+02  0.15098513480E+02  0.00000000000E+00 0.  1.
</event>
<event>
 7    1  0.2584640E-011  0.5052886E+02  0.7816164E-02  0.1300439E+00
        -11   -1    0    0    0    0  0.00000000000E+00  0.00000000000E+00  0.45593999997E+02  0.45594000000E+02  0.51100000000E-03 0.  1.
         11   -1    0    0    0    0 -0.00000000000E+00 -0.00000000000E+00 -0.45593999997E+02  0.45594000000E+02  0.51100000000E-03 0. -1.
    9900012    2    1    2    0    0  0.24401386005E+02  0.88051942140E+01 -0.31308257025E+02  0.50528855370E+02  0.29999986381E+02 0.  0.
        -12    1    1    2    0    0 -0.24401386005E+02 -0.88051942140E+01  0.31308257025E+02  0.40659144630E+02  0.00000000000E+00 0.  1.
         11    1    3    3    0    0  0.14129650271E+02 -0.36495016466E+01 -0.25297644267E+02  0.29205079776E+02  0.51100000000E-03 0. -1.
        -11    1    3    3    0    0  0.96284391798E+01  0.22016245099E+01 -0.11024266308E+01  0.99382763224E+01  0.51100000000E-03 0.  1.
        -12    1    3    3    0    0  0.64329655439E+00  0.10253071351E+02 -0.49081861280E+01  0.11385499271E+02  0.00000000000E+00 0.  1.
</event>
<event>
 7    1  0.2584640E-011  0.5052894E+02  0.7816164E-02  0.1300439E+00
        -11   -1    0    0    0    0  0.00000000000E+00  0.00000000000E+00  0.45593999997E+02  0.45594000000E+02  0.51100000000E-03 0. -1.
         11   -1    0    0    0    0 -0.00000000000E+00 -0.00000000000E+00 -0.45593999997E+02  0.45594000000E+02  0.51100000000E-03 0.  1.
    9900012    2    1    2    0    0 -0.29982119132E+02  0.82113486036E+01  0.26206973219E+02  0.50528940015E+02  0.30000243668E+02 0.  0.
        -12    1    1    2    0    0  0.29982119132E+02 -0.82113486036E+01 -0.26206973219E+02  0.40659059985E+02  0.00000000000E+00 0.  1.
         11    1    3    3    0    0 -0.84349651956E+01  0.47566470914E+01  0.30748569092E+01  0.10160170996E+02  0.51100000000E-03 0. -1.
        -11    1    3    3    0    0  0.13188581256E+01 -0.38959661347E+00 -0.42624049338E+01  0.44787574569E+01  0.51100000000E-03 0.  1.
         12    1    3    3    0    0 -0.22866012062E+02  0.38442981257E+01  0.27394521244E+02  0.35890011562E+02  0.00000000000E+00 0. -1.
</event>
<event>
 7    1  0.2584640E-011  0.5052887E+02  0.7816164E-02  0.1300439E+00
        -11   -1    0    0    0    0  0.00000000000E+00  0.00000000000E+00  0.45593999997E+02  0.45594000000E+02  0.51100000000E-03 0.  1.
         11   -1    0    0    0    0 -0.00000000000E+00 -0.00000000000E+00 -0.45593999997E+02  0.45594000000E+02  0.51100000000E-03 0. -1.
    9900012    2    1    2    0    0 -0.22274902190E+02 -0.96500549606E+01 -0.32617024386E+02  0.50528866855E+02  0.30000021291E+02 0.  0.
        -12    1    1    2    0    0  0.22274902190E+02  0.96500549606E+01  0.32617024386E+02  0.40659133145E+02  0.00000000000E+00 0.  1.
         11    1    3    3    0    0 -0.15293380306E+01  0.60697994198E+01 -0.20948917236E+02  0.21864090959E+02  0.51100000000E-03 0.  1.
        -11    1    3    3    0    0 -0.51251337529E+01 -0.27829435531E+01 -0.34867645350E+01  0.67947993340E+01  0.51100000000E-03 0. -1.
        -12    1    3    3    0    0 -0.15620430407E+02 -0.12936910827E+02 -0.81813426146E+01  0.21869976562E+02  0.00000000000E+00 0.  1.
</event>
<event>
 7    1  0.2584640E-011  0.5052886E+02  0.7816164E-02  0.1300439E+00
        -11   -1    0    0    0    0  0.00000000000E+00  0.00000000000E+00  0.45593999997E+02  0.45594000000E+02  0.51100000000E-03 0.  1.
         11   -1    0    0    0    0 -0.00000000000E+00 -0.00000000000E+00 -0.45593999997E+02  0.45594000000E+02  0.51100000000E-03 0. -1.
    9900012    2    1    2    0    0  0.38744841690E+02 -0.29655298658E+01 -0.11966968219E+02  0.50528862610E+02  0.30000008388E+02 0.  0.
        -12    1    1    2    0    0 -0.38744841690E+02  0.29655298658E+01  0.11966968219E+02  0.40659137390E+02  0.00000000000E+00 0.  1.
         11    1    3    3    0    0  0.13532506427E+02 -0.84954310065E+01 -0.55876481253E+01  0.16926987033E+02  0.51100000000E-03 0. -1.
        -11    1    3    3    0    0  0.26325921471E+02  0.20201879746E+01 -0.10191328270E+02  0.28301916418E+02  0.51100000000E-03 0.  1.
        -12    1    3    3    0    0 -0.11135862076E+01  0.35097131660E+01  0.38120081766E+01  0.52999591591E+01  0.00000000000E+00 0.  1.
</event>
<event>
 7    1  0.2584640E-011  0.5052885E+02  0.7816164E-02  0.1300439E+00
        -11   -1    0    0    0    0  0.00000000000E+00  0.00000000000E+00  0.45593999997E+02  0.45594000000E+02  0.51100000000E-03 0.  1.
         11   -1    0    0    0    0 -0.00000000000E+00 -0.00000000000E+00 -0.45593999997E+02  0.45594000000E+02  0.51100000000E-03 0. -1.
    9900012    2    1    2    0    0  0.34756440974E+02  0.10980095537E+02 -0.18016489833E+02  0.50528848593E+02  0.29999965784E+02 0.  0.
        -12    1    1    2    0    0 -0.34756440974E+02 -0.10980095537E+02  0.18016489833E+02  0.40659151407E+02  0.00000000000E+00 0.  1.
         11    1    3    3    0    0  0.76185286847E+01  0.34755035915E+01 -0.66667125568E+01  0.10703558339E+02  0.51100000000E-03 0. -1.
        -11    1    3    3    0    0  0.27329472385E+02  0.10103274313E+02 -0.10019434968E+01  0.29154418254E+02  0.51100000000E-03 0.  1.
        -12    1    3    3    0    0 -0.19156009543E+00 -0.25986823676E+01 -0.10347833780E+02  0.10670872000E+02  0.00000000000E+00 0.  1.
</event>
<event>
 7    1  0.2584640E-011  0.5052885E+02  0.7816164E-02  0.1300439E+00
        -11   -1    0    0    0    0  0.00000000000E+00  0.00000000000E+00  0.45593999997E+02  0.45594000000E+02  0.51100000000E-03 0.  1.
         11   -1    0    0    0    0 -0.00000000000E+00 -0.00000000000E+00 -0.45593999997E+02  0.45594000000E+02  0.51100000000E-03 0. -1.
    9900012    2    1    2    0    0  0.20602738163E+02 -0.19224827498E+02 -0.29310397361E+02  0.50528853359E+02  0.29999980270E+02 0.  0.
        -12    1    1    2    0    0 -0.20602738163E+02  0.19224827498E+02  0.29310397361E+02  0.40659146641E+02  0.00000000000E+00 0.  1.
         11    1    3    3    0    0  0.95834452799E+00 -0.16416205918E+02 -0.14649545084E+02  0.22023156277E+02  0.51100000000E-03 0. -1.
        -11    1    3    3    0    0  0.32198071926E+01 -0.17130821080E+01 -0.11072957087E+02  0.11658138255E+02  0.51100000000E-03 0.  1.
        -12    1    3    3    0    0  0.16424586442E+02 -0.10955394723E+01 -0.35878951896E+01  0.16847558827E+02  0.00000000000E+00 0.  1.
</event>
<event>
 7    1  0.2584640E-011  0.5052886E+02  0.7816164E-02  0.1300439E+00
        -11   -1    0    0    0    0  0.00000000000E+00  0.00000000000E+00  0.45593999997E+02  0.45594000000E+02  0.51100000000E-03 0. -1.
         11   -1    0    0    0    0 -0.00000000000E+00 -0.00000000000E+00 -0.45593999997E+02  0.45594000000E+02  0.51100000000E-03 0.  1.
    9900012    2    1    2    0    0  0.45897733197E+01  0.39556993042E+02  0.82063404617E+01  0.50528859066E+02  0.29999997618E+02 0.  0.
        -12    1    1    2    0    0 -0.45897733197E+01 -0.39556993042E+02 -0.82063404617E+01  0.40659140934E+02  0.00000000000E+00 0.  1.
         11    1    3    3    0    0  0.53427707706E+01  0.96506606805E+01 -0.59647059503E+00  0.11047000883E+02  0.51100000000E-03 0. -1.
        -11    1    3    3    0    0  0.11020217875E+02  0.15753249445E+02  0.86248502832E+01  0.21071262723E+02  0.51100000000E-03 0.  1.
        -12    1    3    3    0    0 -0.11773215326E+02  0.14153082917E+02  0.17796077356E+00  0.18410595460E+02  0.00000000000E+00 0.  1.
</event>
<event>
 7    1  0.2584640E-011  0.5052887E+02  0.7816164E-02  0.1300439E+00
        -11   -1    0    0    0    0  0.00000000000E+00  0.00000000000E+00  0.45593999997E+02  0.45594000000E+02  0.51100000000E-03 0. -1.
         11   -1    0    0    0    0 -0.00000000000E+00 -0.00000000000E+00 -0.45593999997E+02  0.45594000000E+02  0.51100000000E-03 0.  1.
    9900012    2    1    2    0    0 -0.40542408767E+02  0.29246415264E+01 -0.96144826856E+00  0.50528870404E+02  0.30000032081E+02 0.  0.
        -12    1    1    2    0    0  0.40542408767E+02 -0.29246415264E+01  0.96144826856E+00  0.40659129596E+02  0.00000000000E+00 0.  1.
         11    1    3    3    0    0 -0.10589600723E+02  0.92383289706E+00 -0.92848353295E+01  0.14113868288E+02  0.51100000000E-03 0. -1.
        -11    1    3    3    0    0 -0.52733891042E+01 -0.43168546139E+01  0.85563870930E+01  0.10938721440E+02  0.51100000000E-03 0.  1.
         12    1    3    3    0    0 -0.24679418940E+02  0.63176632432E+01 -0.23300003210E+00  0.25476280676E+02  0.00000000000E+00 0. -1.
</event>
<event>
 7    1  0.2584640E-011  0.5052886E+02  0.7816164E-02  0.1300439E+00
        -11   -1    0    0    0    0  0.00000000000E+00  0.00000000000E+00  0.45593999997E+02  0.45594000000E+02  0.51100000000E-03 0. -1.
         11   -1    0    0    0    0 -0.00000000000E+00 -0.00000000000E+00 -0.45593999997E+02  0.45594000000E+02  0.51100000000E-03 0.  1.
    9900012    2    1    2    0    0  0.29408053526E+02 -0.25316563582E+02  0.12141003982E+02  0.50528856115E+02  0.29999988646E+02 0.  0.
        -12    1    1    2    0    0 -0.29408053526E+02  0.25316563582E+02 -0.12141003982E+02  0.40659143885E+02  0.00000000000E+00 0.  1.
         11    1    3    3    0    0  0.15181338341E+02 -0.16457004554E+02  0.13358346115E+02  0.26072043339E+02  0.51100000000E-03 0. -1.
        -11    1    3    3    0    0  0.15557735253E+02 -0.19460425386E+00 -0.18440655234E+01  0.15667851637E+02  0.51100000000E-03 0.  1.
        -12    1    3    3    0    0 -0.13310200682E+01 -0.86649547750E+01  0.62672339026E+00  0.87889611378E+01  0.00000000000E+00 0.  1.
</event>
<event>
 7    1  0.2584640E-011  0.5052885E+02  0.7816164E-02  0.1300439E+00
        -11   -1    0    0    0    0  0.00000000000E+00  0.00000000000E+00  0.45593999997E+02  0.45594000000E+02  0.51100000000E-03 0.  1.
         11   -1    0    0    0    0 -0.00000000000E+00 -0.00000000000E+00 -0.45593999997E+02  0.45594000000E+02  0.51100000000E-03 0. -1.
    9900012    2    1    2    0    0 -0.31587744027E+02 -0.60455707368E+01 -0.24876335191E+02  0.50528849113E+02  0.29999967365E+02 0.  0.
        -12    1    1    2    0    0  0.31587744027E+02  0.60455707368E+01  0.24876335191E+02  0.40659150887E+02  0.00000000000E+00 0.  1.
         11    1    3    3    0    0 -0.89402086856E+01 -0.64065565857E+01 -0.17281946239E+02  0.20485042463E+02  0.51100000000E-03 0. -1.
        -11    1    3    3    0    0 -0.12994937812E+02  0.87401255911E+01 -0.72488916712E+01  0.17257016973E+02  0.51100000000E-03 0.  1.
         12    1    3    3    0    0 -0.96525975303E+01 -0.83791397421E+01 -0.34549728087E+00  0.12786789678E+02  0.00000000000E+00 0. -1.
</event>
<event>
 7    1  0.2584640E-011  0.5052886E+02  0.7816164E-02  0.1300439E+00
        -11   -1    0    0    0    0  0.00000000000E+00  0.00000000000E+00  0.45593999997E+02  0.45594000000E+02  0.51100000000E-03 0.  1.
         11   -1    0    0    0    0 -0.00000000000E+00 -0.00000000000E+00 -0.45593999997E+02  0.45594000000E+02  0.51100000000E-03 0. -1.
    9900012    2    1    2    0    0 -0.31163036060E+01  0.36900896105E+02 -0.16786250164E+02  0.50528859870E+02  0.30000000062E+02 0.  0.
        -12    1    1    2    0    0  0.31163036060E+01 -0.36900896105E+02  0.16786250164E+02  0.40659140130E+02  0.00000000000E+00 0.  1.
         11    1    3    3    0    0 -0.12507090448E+01  0.28909967079E+02 -0.18395559972E+02  0.34289168794E+02  0.51100000000E-03 0. -1.
        -11    1    3    3    0    0  0.49320779707E+00 -0.17041160815E+01 -0.42941743579E+01  0.46462026675E+01  0.51100000000E-03 0.  1.
        -12    1    3    3    0    0 -0.23588023582E+01  0.96950451073E+01  0.59034841654E+01  0.11593488409E+02  0.00000000000E+00 0.  1.
</event>
<event>
 7    1  0.2584640E-011  0.5052886E+02  0.7816164E-02  0.1300439E+00
        -11   -1    0    0    0    0  0.00000000000E+00  0.00000000000E+00  0.45593999997E+02  0.45594000000E+02  0.51100000000E-03 0. -1.
         11   -1    0    0    0    0 -0.00000000000E+00 -0.00000000000E+00 -0.45593999997E+02  0.45594000000E+02  0.51100000000E-03 0.  1.
    9900012    2    1    2    0    0 -0.30892021480E+02 -0.11048011280E+02  0.24016451968E+02  0.50528861919E+02  0.30000006289E+02 0.  0.
        -12    1    1    2    0    0  0.30892021480E+02  0.11048011280E+02 -0.24016451968E+02  0.40659138081E+02  0.00000000000E+00 0.  1.
         11    1    3    3    0    0 -0.11890037887E+01  0.49776415672E+01  0.56364892171E+01  0.76131896427E+01  0.51100000000E-03 0. -1.
        -11    1    3    3    0    0 -0.22142458568E+02 -0.45607582426E+01  0.38683224158E+01  0.22935843254E+02  0.51100000000E-03 0.  1.
        -12    1    3    3    0    0 -0.75605591225E+01 -0.11464894604E+02  0.14511640336E+02  0.19979829022E+02  0.00000000000E+00 0.  1.
</event>
<event>
 7    1  0.2584640E-011  0.5052887E+02  0.7816164E-02  0.1300439E+00
        -11   -1    0    0    0    0  0.00000000000E+00  0.00000000000E+00  0.45593999997E+02  0.45594000000E+02  0.51100000000E-03 0. -1.
         11   -1    0    0    0    0 -0.00000000000E+00 -0.00000000000E+00 -0.45593999997E+02  0.45594000000E+02  0.51100000000E-03 0.  1.
    9900012    2    1    2    0    0  0.48349566357E+01 -0.38565654191E+02 -0.11936447031E+02  0.50528865029E+02  0.30000015743E+02 0.  0.
        -12    1    1    2    0    0 -0.48349566357E+01  0.38565654191E+02  0.11936447031E+02  0.40659134971E+02  0.00000000000E+00 0.  1.
         11    1    3    3    0    0  0.87574953981E+00  0.46901393769E+00  0.11872663886E+00  0.10005036762E+01  0.51100000000E-03 0.  1.
        -11    1    3    3    0    0 -0.68038002180E+01 -0.32049762202E+02 -0.13061726590E+01  0.32790014363E+02  0.51100000000E-03 0. -1.
         12    1    3    3    0    0  0.10763007314E+02 -0.69849059261E+01 -0.10749001011E+02  0.16738346990E+02  0.00000000000E+00 0. -1.
</event>
<event>
 7    1  0.2584640E-011  0.5052887E+02  0.7816164E-02  0.1300439E+00
        -11   -1    0    0    0    0  0.00000000000E+00  0.00000000000E+00  0.45593999997E+02  0.45594000000E+02  0.51100000000E-03 0.  1.
         11   -1    0    0    0    0 -0.00000000000E+00 -0.00000000000E+00 -0.45593999997E+02  0.45594000000E+02  0.51100000000E-03 0. -1.
    9900012    2    1    2    0    0 -0.53135012674E+01  0.11294516535E+02 -0.38695808037E+02  0.50528868687E+02  0.30000026860E+02 0.  0.
        -12    1    1    2    0    0  0.53135012674E+01 -0.11294516535E+02  0.38695808037E+02  0.40659131313E+02  0.00000000000E+00 0.  1.
         11    1    3    3    0    0 -0.49428024797E+01  0.61709629698E+00  0.26042515526E+01  0.56208745408E+01  0.51100000000E-03 0.  1.
        -11    1    3    3    0    0 -0.49908313049E+01  0.11853640212E+02 -0.29554913455E+02  0.32232128273E+02  0.51100000000E-03 0. -1.
        -12    1    3    3    0    0  0.46201325172E+01 -0.11762199739E+01 -0.11745146135E+02  0.12675865873E+02  0.00000000000E+00 0.  1.
</event>
<event>
 7    1  0.2584640E-011  0.5052885E+02  0.7816164E-02  0.1300439E+00
        -11   -1    0    0    0    0  0.00000000000E+00  0.00000000000E+00  0.45593999997E+02  0.45594000000E+02  0.51100000000E-03 0.  1.
         11   -1    0    0    0    0 -0.00000000000E+00 -0.00000000000E+00 -0.45593999997E+02  0.45594000000E+02  0.51100000000E-03 0. -1.
    9900012    2    1    2    0    0 -0.84421219438E+01  0.19132690041E+02 -0.34868854038E+02  0.50528853021E+02  0.29999979242E+02 0.  0.
        -12    1    1    2    0    0  0.84421219438E+01 -0.19132690041E+02  0.34868854038E+02  0.40659146979E+02  0.00000000000E+00 0.  1.
         11    1    3    3    0    0 -0.74850057319E+01  0.10853084848E+02 -0.77990795934E+01  0.15317976508E+02  0.51100000000E-03 0. -1.
        -11    1    3    3    0    0  0.33758600558E+01 -0.49778232608E+01 -0.16840167748E+01  0.62458841080E+01  0.51100000000E-03 0.  1.
         12    1    3    3    0    0 -0.43329762677E+01  0.13257428453E+02 -0.25385757670E+02  0.28964992405E+02  0.00000000000E+00 0. -1.
</event>
<event>
 7    1  0.2584640E-011  0.5052887E+02  0.7816164E-02  0.1300439E+00
        -11   -1    0    0    0    0  0.00000000000E+00  0.00000000000E+00  0.45593999997E+02  0.45594000000E+02  0.51100000000E-03 0.  1.
         11   -1    0    0    0    0 -0.00000000000E+00 -0.00000000000E+00 -0.45593999997E+02  0.45594000000E+02  0.51100000000E-03 0. -1.
    9900012    2    1    2    0    0  0.29682141657E+02 -0.16439183963E+02 -0.22402874363E+02  0.50528867170E+02  0.30000022251E+02 0.  0.
        -12    1    1    2    0    0 -0.29682141657E+02  0.16439183963E+02  0.22402874363E+02  0.40659132830E+02  0.00000000000E+00 0.  1.
         11    1    3    3    0    0  0.15601342080E+02 -0.17160009533E+02 -0.23849306669E+02  0.33266458043E+02  0.51100000000E-03 0. -1.
        -11    1    3    3    0    0  0.62554886910E+01  0.74343202065E+00 -0.42362124534E+01  0.75913981679E+01  0.51100000000E-03 0.  1.
         12    1    3    3    0    0  0.78253108858E+01 -0.22606450797E-01  0.56826447594E+01  0.96710109592E+01  0.00000000000E+00 0. -1.
</event>
<event>
 7    1  0.2584640E-011  0.5052887E+02  0.7816164E-02  0.1300439E+00
        -11   -1    0    0    0    0  0.00000000000E+00  0.00000000000E+00  0.45593999997E+02  0.45594000000E+02  0.51100000000E-03 0. -1.
         11   -1    0    0    0    0 -0.00000000000E+00 -0.00000000000E+00 -0.45593999997E+02  0.45594000000E+02  0.51100000000E-03 0.  1.
    9900012    2    1    2    0    0 -0.17151519801E+02  0.23936943749E+01  0.36786690292E+02  0.50528868346E+02  0.30000025824E+02 0.  0.
        -12    1    1    2    0    0  0.17151519801E+02 -0.23936943749E+01 -0.36786690292E+02  0.40659131654E+02  0.00000000000E+00 0.  1.
         11    1    3    3    0    0  0.45094193331E+01 -0.68206668397E+01  0.10872763400E+02  0.13604166386E+02  0.51100000000E-03 0.  1.
        -11    1    3    3    0    0 -0.10272203077E+02  0.68241537356E+01  0.20870787341E+02  0.24242050135E+02  0.51100000000E-03 0. -1.
        -12    1    3    3    0    0 -0.11388736057E+02  0.23902074789E+01  0.50431395512E+01  0.12682651824E+02  0.00000000000E+00 0.  1.
</event>
<event>
 7    1  0.2858018E-011  0.5052886E+02  0.7816164E-02  0.1300439E+00
        -11   -1    0    0    0    0  0.00000000000E+00  0.00000000000E+00  0.45593999997E+02  0.45594000000E+02  0.51100000000E-03 0. -1.
         11   -1    0    0    0    0 -0.00000000000E+00 -0.00000000000E+00 -0.45593999997E+02  0.45594000000E+02  0.51100000000E-03 0.  1.
    9900012    2    1    2    0    0  0.24604392920E+02  0.31149689123E+02  0.88026423610E+01  0.50528858396E+02  0.29999995582E+02 0.  0.
        -12    1    1    2    0    0 -0.24604392920E+02 -0.31149689123E+02 -0.88026423610E+01  0.40659141604E+02  0.00000000000E+00 0.  1.
         11    1    3    3    0    0  0.10497136838E+02  0.16550371232E+02  0.13485559926E+02  0.23790018842E+02  0.51100000000E-03 0. -1.
        -11    1    3    3    0    0  0.13178050016E+02  0.24684165647E+01  0.72025406013E+00  0.13426572486E+02  0.51100000000E-03 0.  1.
        -12    1    3    3    0    0  0.92920606608E+00  0.12130901326E+02 -0.54031716251E+01  0.13312267068E+02  0.00000000000E+00 0.  1.
</event>
<event>
 7    1  0.2584640E-011  0.5052886E+02  0.7816164E-02  0.1300439E+00
        -11   -1    0    0    0    0  0.00000000000E+00  0.00000000000E+00  0.45593999997E+02  0.45594000000E+02  0.51100000000E-03 0.  1.
         11   -1    0    0    0    0 -0.00000000000E+00 -0.00000000000E+00 -0.45593999997E+02  0.45594000000E+02  0.51100000000E-03 0. -1.
    9900012    2    1    2    0    0 -0.25503169016E+02  0.71580404740E+01 -0.30846661167E+02  0.50528859842E+02  0.29999999976E+02 0.  0.
        -12    1    1    2    0    0  0.25503169016E+02 -0.71580404740E+01  0.30846661167E+02  0.40659140158E+02  0.00000000000E+00 0.  1.
         11    1    3    3    0    0 -0.12399200981E+02  0.82536643920E+01 -0.78409789009E+00  0.14915695446E+02  0.51100000000E-03 0. -1.
        -11    1    3    3    0    0 -0.12415767571E+02  0.46649037371E+01 -0.20006032558E+02  0.24003207082E+02  0.51100000000E-03 0.  1.
        -12    1    3    3    0    0 -0.68820046340E+00 -0.57605276551E+01 -0.10056530719E+02  0.11609957314E+02  0.00000000000E+00 0.  1.
</event>
<event>
 7    1  0.2584640E-011  0.5052885E+02  0.7816164E-02  0.1300439E+00
        -11   -1    0    0    0    0  0.00000000000E+00  0.00000000000E+00  0.45593999997E+02  0.45594000000E+02  0.51100000000E-03 0. -1.
         11   -1    0    0    0    0 -0.00000000000E+00 -0.00000000000E+00 -0.45593999997E+02  0.45594000000E+02  0.51100000000E-03 0.  1.
    9900012    2    1    2    0    0 -0.25795008373E+02  0.72478691168E+01  0.30581892765E+02  0.50528853074E+02  0.29999979402E+02 0.  0.
        -12    1    1    2    0    0  0.25795008373E+02 -0.72478691168E+01 -0.30581892765E+02  0.40659146926E+02  0.00000000000E+00 0.  1.
         11    1    3    3    0    0 -0.79447879833E+01 -0.39671465716E+01  0.91640718653E+01  0.12760804106E+02  0.51100000000E-03 0. -1.
        -11    1    3    3    0    0 -0.22885000915E+02  0.97999360121E+01  0.13615405409E+02  0.28375011497E+02  0.51100000000E-03 0.  1.
        -12    1    3    3    0    0  0.50347805256E+01  0.14150796763E+01  0.78024154909E+01  0.93930374706E+01  0.00000000000E+00 0.  1.
</event>
<event>
 7    1  0.2584640E-011  0.5052888E+02  0.7816164E-02  0.1300439E+00
        -11   -1    0    0    0    0  0.00000000000E+00  0.00000000000E+00  0.45593999997E+02  0.45594000000E+02  0.51100000000E-03 0.  1.
         11   -1    0    0    0    0 -0.00000000000E+00 -0.00000000000E+00 -0.45593999997E+02  0.45594000000E+02  0.51100000000E-03 0. -1.
    9900012    2    1    2    0    0 -0.18611761947E+02  0.21787515587E+02 -0.28845634396E+02  0.50528878736E+02  0.30000057406E+02 0.  0.
        -12    1    1    2    0    0  0.18611761947E+02 -0.21787515587E+02  0.28845634396E+02  0.40659121264E+02  0.00000000000E+00 0.  1.
         11    1    3    3    0    0 -0.18716707672E+02  0.13831920968E+02 -0.91761529031E+01  0.25016773695E+02  0.51100000000E-03 0. -1.
        -11    1    3    3    0    0  0.29844158757E+01  0.35916031656E+01  0.48094938152E+00  0.46944290374E+01  0.51100000000E-03 0.  1.
         12    1    3    3    0    0 -0.28794701504E+01  0.43639914538E+01 -0.20150430875E+02  0.20817676004E+02  0.00000000000E+00 0. -1.
</event>
<event>
 7    1  0.2584640E-011  0.5052886E+02  0.7816164E-02  0.1300439E+00
        -11   -1    0    0    0    0  0.00000000000E+00  0.00000000000E+00  0.45593999997E+02  0.45594000000E+02  0.51100000000E-03 0.  1.
         11   -1    0    0    0    0 -0.00000000000E+00 -0.00000000000E+00 -0.45593999997E+02  0.45594000000E+02  0.51100000000E-03 0. -1.
    9900012    2    1    2    0    0 -0.16433840846E+02  0.44698306317E+00 -0.37187296031E+02  0.50528857056E+02  0.29999991509E+02 0.  0.
        -12    1    1    2    0    0  0.16433840846E+02 -0.44698306317E+00  0.37187296031E+02  0.40659142944E+02  0.00000000000E+00 0.  1.
         11    1    3    3    0    0 -0.91122697973E+01  0.38527318291E+01 -0.20101776419E+02  0.22404428555E+02  0.51100000000E-03 0. -1.
        -11    1    3    3    0    0 -0.97460037865E+01  0.49166860135E+01 -0.25649668027E+01  0.11213270982E+02  0.51100000000E-03 0.  1.
        -12    1    3    3    0    0  0.24244327378E+01 -0.83224347794E+01 -0.14520552809E+02  0.16911157519E+02  0.00000000000E+00 0.  1.
</event>
<event>
 7    1  0.2584640E-011  0.5052887E+02  0.7816164E-02  0.1300439E+00
        -11   -1    0    0    0    0  0.00000000000E+00  0.00000000000E+00  0.45593999997E+02  0.45594000000E+02  0.51100000000E-03 0. -1.
         11   -1    0    0    0    0 -0.00000000000E+00 -0.00000000000E+00 -0.45593999997E+02  0.45594000000E+02  0.51100000000E-03 0.  1.
    9900012    2    1    2    0    0  0.69246130310E+01 -0.13071580765E+02  0.37872793655E+02  0.50528868325E+02  0.30000025761E+02 0.  0.
        -12    1    1    2    0    0 -0.69246130310E+01  0.13071580765E+02 -0.37872793655E+02  0.40659131675E+02  0.00000000000E+00 0.  1.
         11    1    3    3    0    0  0.50418075580E+01 -0.37115499240E+01  0.31695440488E+02  0.32307837660E+02  0.51100000000E-03 0. -1.
        -11    1    3    3    0    0 -0.11642727868E+01 -0.91105548122E+01  0.98330926408E+01  0.13455387443E+02  0.51100000000E-03 0.  1.
        -12    1    3    3    0    0  0.30470782599E+01 -0.24947602870E+00 -0.36557394739E+01  0.47656432212E+01  0.00000000000E+00 0.  1.
</event>
<event>
 7    1  0.2584640E-011  0.5052886E+02  0.7816164E-02  0.1300439E+00
        -11   -1    0    0    0    0  0.00000000000E+00  0.00000000000E+00  0.45593999997E+02  0.45594000000E+02  0.51100000000E-03 0.  1.
         11   -1    0    0    0    0 -0.00000000000E+00 -0.00000000000E+00 -0.45593999997E+02  0.45594000000E+02  0.51100000000E-03 0. -1.
    9900012    2    1    2    0    0  0.17814970432E+02 -0.32975155208E+02  0.15761707678E+02  0.50528862510E+02  0.30000008086E+02 0.  0.
        -12    1    1    2    0    0 -0.17814970432E+02  0.32975155208E+02 -0.15761707678E+02  0.40659137490E+02  0.00000000000E+00 0.  1.
         11    1    3    3    0    0  0.23566223555E+01 -0.32211388069E+01 -0.58600499849E+01  0.70901050928E+01  0.51100000000E-03 0. -1.
        -11    1    3    3    0    0  0.53445791223E+01 -0.15840544289E+01  0.97674990175E+01  0.11246234559E+02  0.51100000000E-03 0.  1.
        -12    1    3    3    0    0  0.10113768955E+02 -0.28169961972E+02  0.11854258645E+02  0.32192522859E+02  0.00000000000E+00 0.  1.
</event>
<event>
 7    1  0.2787184E-011  0.5052887E+02  0.7816164E-02  0.1300439E+00
        -11   -1    0    0    0    0  0.00000000000E+00  0.00000000000E+00  0.45593999997E+02  0.45594000000E+02  0.51100000000E-03 0.  1.
         11   -1    0    0    0    0 -0.00000000000E+00 -0.00000000000E+00 -0.45593999997E+02  0.45594000000E+02  0.51100000000E-03 0. -1.
    9900012    2    1    2    0    0 -0.40152115160E+02 -0.59169930937E+01 -0.24417042511E+01  0.50528867216E+02  0.30000022390E+02 0.  0.
        -12    1    1    2    0    0  0.40152115160E+02  0.59169930937E+01  0.24417042511E+01  0.40659132784E+02  0.00000000000E+00 0.  1.
         11    1    3    3    0    0 -0.25662651338E+02 -0.41497608465E+00  0.88092597768E+00  0.25681119712E+02  0.51100000000E-03 0. -1.
        -11    1    3    3    0    0 -0.33657658117E+00  0.57326073911E+01 -0.35965421180E+01  0.67757794211E+01  0.51100000000E-03 0.  1.
         12    1    3    3    0    0 -0.14152887241E+02 -0.11234624400E+02  0.27391188913E+00  0.18071968083E+02  0.00000000000E+00 0. -1.
</event>
<event>
 7    1  0.2584640E-011  0.5052886E+02  0.7816164E-02  0.1300439E+00
        -11   -1    0    0    0    0  0.00000000000E+00  0.00000000000E+00  0.45593999997E+02  0.45594000000E+02  0.51100000000E-03 0.  1.
         11   -1    0    0    0    0 -0.00000000000E+00 -0.00000000000E+00 -0.45593999997E+02  0.45594000000E+02  0.51100000000E-03 0. -1.
    9900012    2    1    2    0    0 -0.26090416322E+02  0.59269015981E+01 -0.30615807473E+02  0.50528860146E+02  0.30000000900E+02 0.  0.
        -12    1    1    2    0    0  0.26090416322E+02 -0.59269015981E+01  0.30615807473E+02  0.40659139854E+02  0.00000000000E+00 0.  1.
         11    1    3    3    0    0 -0.18205814113E+02  0.82733154869E+01 -0.19688915899E+02  0.28063371611E+02  0.51100000000E-03 0. -1.
        -11    1    3    3    0    0 -0.75674339246E+01 -0.65282903508E+01 -0.14046081145E+02  0.17238823246E+02  0.51100000000E-03 0.  1.
        -12    1    3    3    0    0 -0.31716828422E+00  0.41818764620E+01  0.31191895705E+01  0.52266652888E+01  0.00000000000E+00 0.  1.
</event>
<event>
 7    1  0.2584640E-011  0.5052886E+02  0.7816164E-02  0.1300439E+00
        -11   -1    0    0    0    0  0.00000000000E+00  0.00000000000E+00  0.45593999997E+02  0.45594000000E+02  0.51100000000E-03 0.  1.
         11   -1    0    0    0    0 -0.00000000000E+00 -0.00000000000E+00 -0.45593999997E+02  0.45594000000E+02  0.51100000000E-03 0. -1.
    9900012    2    1    2    0    0 -0.33350431501E+02 -0.23071173501E+02  0.29386062478E+01  0.50528859149E+02  0.29999997871E+02 0.  0.
        -12    1    1    2    0    0  0.33350431501E+02  0.23071173501E+02 -0.29386062478E+01  0.40659140851E+02  0.00000000000E+00 0.  1.
         11    1    3    3    0    0 -0.12357951881E+02 -0.47331950897E+01  0.78294920787E+00  0.13256512369E+02  0.51100000000E-03 0. -1.
        -11    1    3    3    0    0 -0.19644016821E+02 -0.75024793172E+01  0.10524835672E+02  0.23514819986E+02  0.51100000000E-03 0.  1.
         12    1    3    3    0    0 -0.13484627988E+01 -0.10835499094E+02 -0.83691786323E+01  0.13757526795E+02  0.00000000000E+00 0. -1.
</event>
<event>
 7    1  0.2584640E-011  0.5052885E+02  0.7816164E-02  0.1300439E+00
        -11   -1    0    0    0    0  0.00000000000E+00  0.00000000000E+00  0.45593999997E+02  0.45594000000E+02  0.51100000000E-03 0.  1.
         11   -1    0    0    0    0 -0.00000000000E+00 -0.00000000000E+00 -0.45593999997E+02  0.45594000000E+02  0.51100000000E-03 0. -1.
    9900012    2    1    2    0    0  0.37744470031E+02  0.10579458443E+02 -0.10797968533E+02  0.50528854863E+02  0.29999984841E+02 0.  0.
        -12    1    1    2    0    0 -0.37744470031E+02 -0.10579458443E+02  0.10797968533E+02  0.40659145137E+02  0.00000000000E+00 0.  1.
         11    1    3    3    0    0  0.63013735301E+01  0.39470454122E+01  0.44379821510E+01  0.86592240810E+01  0.51100000000E-03 0. -1.
        -11    1    3    3    0    0  0.10220330397E+02  0.12869756819E+01  0.55373081462E+01  0.11695009261E+02  0.51100000000E-03 0.  1.
         12    1    3    3    0    0  0.21222766103E+02  0.53454373493E+01 -0.20773258830E+02  0.30174621521E+02  0.00000000000E+00 0. -1.
</event>
<event>
 7    1  0.2584640E-011  0.5052886E+02  0.7816164E-02  0.1300439E+00
        -11   -1    0    0    0    0  0.00000000000E+00  0.00000000000E+00  0.45593999997E+02  0.45594000000E+02  0.51100000000E-03 0.  1.
         11   -1    0    0    0    0 -0.00000000000E+00 -0.00000000000E+00 -0.45593999997E+02  0.45594000000E+02  0.51100000000E-03 0. -1.
    9900012    2    1    2    0    0 -0.32467215541E+02 -0.19126009493E+02 -0.15272238616E+02  0.50528860850E+02  0.30000003039E+02 0.  0.
        -12    1    1    2    0    0  0.32467215541E+02  0.19126009493E+02  0.15272238616E+02  0.40659139150E+02  0.00000000000E+00 0.  1.
         11    1    3    3    0    0 -0.13383441523E+02 -0.69776501607E+01  0.28295335437E+01  0.15356118296E+02  0.51100000000E-03 0. -1.
        -11    1    3    3    0    0  0.38231741113E+00  0.35380700410E+01  0.10159534611E+01  0.37008469185E+01  0.51100000000E-03 0.  1.
         12    1    3    3    0    0 -0.19466091428E+02 -0.15686429373E+02 -0.19117725621E+02  0.31471895636E+02  0.00000000000E+00 0. -1.
</event>
<event>
 7    1  0.2584640E-011  0.5052886E+02  0.7816164E-02  0.1300439E+00
        -11   -1    0    0    0    0  0.00000000000E+00  0.00000000000E+00  0.45593999997E+02  0.45594000000E+02  0.51100000000E-03 0.  1.
         11   -1    0    0    0    0 -0.00000000000E+00 -0.00000000000E+00 -0.45593999997E+02  0.45594000000E+02  0.51100000000E-03 0. -1.
    9900012    2    1    2    0    0  0.21118031601E+02 -0.20327513202E+02 -0.28177770026E+02  0.50528858650E+02  0.29999996352E+02 0.  0.
        -12    1    1    2    0    0 -0.21118031601E+02  0.20327513202E+02  0.28177770026E+02  0.40659141350E+02  0.00000000000E+00 0.  1.
         11    1    3    3    0    0  0.12278485081E+02 -0.37569437313E+01 -0.91283776378E+01  0.15754462880E+02  0.51100000000E-03 0. -1.
        -11    1    3    3    0    0  0.75210921678E+01 -0.79532798462E+01 -0.22794376746E+02  0.25286460789E+02  0.51100000000E-03 0.  1.
        -12    1    3    3    0    0  0.13184543520E+01 -0.86172896250E+01  0.37449843579E+01  0.94879349808E+01  0.00000000000E+00 0.  1.
</event>
<event>
 7    1  0.2584640E-011  0.5052885E+02  0.7816164E-02  0.1300439E+00
        -11   -1    0    0    0    0  0.00000000000E+00  0.00000000000E+00  0.45593999997E+02  0.45594000000E+02  0.51100000000E-03 0. -1.
         11   -1    0    0    0    0 -0.00000000000E+00 -0.00000000000E+00 -0.45593999997E+02  0.45594000000E+02  0.51100000000E-03 0.  1.
    9900012    2    1    2    0    0  0.11844370096E+02  0.26426243307E+02  0.28539988449E+02  0.50528851227E+02  0.29999973788E+02 0.  0.
        -12    1    1    2    0    0 -0.11844370096E+02 -0.26426243307E+02 -0.28539988449E+02  0.40659148773E+02  0.00000000000E+00 0.  1.
         11    1    3    3    0    0  0.42493287443E+01  0.68139999351E+01  0.74469231831E+01  0.10951897326E+02  0.51100000000E-03 0. -1.
        -11    1    3    3    0    0 -0.92610036405E+01  0.61083141604E+01  0.11387700391E+02  0.15898346165E+02  0.51100000000E-03 0.  1.
        -12    1    3    3    0    0  0.16856044992E+02  0.13503929211E+02  0.97053648749E+01  0.23678607735E+02  0.00000000000E+00 0.  1.
</event>
<event>
 7    1  0.2584640E-011  0.5052886E+02  0.7816164E-02  0.1300439E+00
        -11   -1    0    0    0    0  0.00000000000E+00  0.00000000000E+00  0.45593999997E+02  0.45594000000E+02  0.51100000000E-03 0.  1.
         11   -1    0    0    0    0 -0.00000000000E+00 -0.00000000000E+00 -0.45593999997E+02  0.45594000000E+02  0.51100000000E-03 0. -1.
    9900012    2    1    2    0    0  0.14624507300E+01  0.10655919670E+02 -0.39210692568E+02  0.50528858373E+02  0.29999995511E+02 0.  0.
        -12    1    1    2    0    0 -0.14624507300E+01 -0.10655919670E+02  0.39210692568E+02  0.40659141627E+02  0.00000000000E+00 0.  1.
         11    1    3    3    0    0  0.83730905070E+01 -0.35978993187E+00 -0.70932707428E+01  0.10979644053E+02  0.51100000000E-03 0. -1.
        -11    1    3    3    0    0 -0.25204200428E+01  0.82933688017E+01 -0.18744835318E+01  0.88682677026E+01  0.51100000000E-03 0.  1.
         12    1    3    3    0    0 -0.43902197342E+01  0.27223408001E+01 -0.30242938293E+02  0.30680946618E+02  0.00000000000E+00 0. -1.
</event>
<event>
 7    1  0.2584640E-011  0.5052889E+02  0.7816164E-02  0.1300439E+00
        -11   -1    0    0    0    0  0.00000000000E+00  0.00000000000E+00  0.45593999997E+02  0.45594000000E+02  0.51100000000E-03 0. -1.
         11   -1    0    0    0    0 -0.00000000000E+00 -0.00000000000E+00 -0.45593999997E+02  0.45594000000E+02  0.51100000000E-03 0.  1.
    9900012    2    1    2    0    0  0.26638230544E+02  0.20551456909E+02 -0.22829918062E+02  0.50528894423E+02  0.30000105088E+02 0.  0.
        -12    1    1    2    0    0 -0.26638230544E+02 -0.20551456909E+02  0.22829918062E+02  0.40659105577E+02  0.00000000000E+00 0.  1.
         11    1    3    3    0    0  0.86697662117E+01  0.86537355406E+01 -0.14457064838E+01  0.12334587649E+02  0.51100000000E-03 0. -1.
        -11    1    3    3    0    0  0.83777328511E+01  0.15295714993E+02 -0.37548748695E+01  0.17839405551E+02  0.51100000000E-03 0.  1.
        -12    1    3    3    0    0  0.95907314808E+01 -0.33979936241E+01 -0.17629336709E+02  0.20354901223E+02  0.00000000000E+00 0.  1.
</event>
<event>
 7    1  0.2584640E-011  0.5052888E+02  0.7816164E-02  0.1300439E+00
        -11   -1    0    0    0    0  0.00000000000E+00  0.00000000000E+00  0.45593999997E+02  0.45594000000E+02  0.51100000000E-03 0. -1.
         11   -1    0    0    0    0 -0.00000000000E+00 -0.00000000000E+00 -0.45593999997E+02  0.45594000000E+02  0.51100000000E-03 0.  1.
    9900012    2    1    2    0    0  0.36306157990E+02 -0.68581625740E+01 -0.16970354190E+02  0.50528875277E+02  0.30000046893E+02 0.  0.
        -12    1    1    2    0    0 -0.36306157990E+02  0.68581625740E+01  0.16970354190E+02  0.40659124723E+02  0.00000000000E+00 0.  1.
         11    1    3    3    0    0  0.19366637339E+01  0.50174477640E+01 -0.15510516614E+01  0.55974288740E+01  0.51100000000E-03 0. -1.
        -11    1    3    3    0    0 -0.27300747419E+01  0.80227914408E+00 -0.12604231595E+00  0.28483059611E+01  0.51100000000E-03 0.  1.
         12    1    3    3    0    0  0.37099568998E+02 -0.12677889482E+02 -0.15293260212E+02  0.42083140442E+02  0.00000000000E+00 0. -1.
</event>
<event>
 7    1  0.2584640E-011  0.5052888E+02  0.7816164E-02  0.1300439E+00
        -11   -1    0    0    0    0  0.00000000000E+00  0.00000000000E+00  0.45593999997E+02  0.45594000000E+02  0.51100000000E-03 0.  1.
         11   -1    0    0    0    0 -0.00000000000E+00 -0.00000000000E+00 -0.45593999997E+02  0.45594000000E+02  0.51100000000E-03 0. -1.
    9900012    2    1    2    0    0  0.26482270838E+01  0.31000172024E+02 -0.26175191615E+02  0.50528875215E+02  0.30000046704E+02 0.  0.
        -12    1    1    2    0    0 -0.26482270838E+01 -0.31000172024E+02  0.26175191615E+02  0.40659124785E+02  0.00000000000E+00 0.  1.
         11    1    3    3    0    0  0.69253139369E+00  0.24756292250E+02 -0.59749956691E+01  0.25476541744E+02  0.51100000000E-03 0. -1.
        -11    1    3    3    0    0 -0.14408399369E+01 -0.34923718668E+01 -0.23841004876E+01  0.44672828851E+01  0.51100000000E-03 0.  1.
        -12    1    3    3    0    0  0.33965356270E+01  0.97362516402E+01 -0.17816095458E+02  0.20585050586E+02  0.00000000000E+00 0.  1.
</event>
<event>
 7    1  0.2584640E-011  0.5052885E+02  0.7816164E-02  0.1300439E+00
        -11   -1    0    0    0    0  0.00000000000E+00  0.00000000000E+00  0.45593999997E+02  0.45594000000E+02  0.51100000000E-03 0.  1.
         11   -1    0    0    0    0 -0.00000000000E+00 -0.00000000000E+00 -0.45593999997E+02  0.45594000000E+02  0.51100000000E-03 0. -1.
    9900012    2    1    2    0    0  0.10822162265E+02  0.18103197584E+02 -0.34760915773E+02  0.50528853129E+02  0.29999979572E+02 0.  0.
        -12    1    1    2    0    0 -0.10822162265E+02 -0.18103197584E+02  0.34760915773E+02  0.40659146871E+02  0.00000000000E+00 0.  1.
         11    1    3    3    0    0 -0.21780505007E+01  0.11973455069E+02 -0.75985013621E+01  0.14347290806E+02  0.51100000000E-03 0. -1.
        -11    1    3    3    0    0  0.76586913854E+01 -0.19542370321E+01 -0.62286247627E+00  0.79285909240E+01  0.51100000000E-03 0.  1.
         12    1    3    3    0    0  0.53415213801E+01  0.80839795472E+01 -0.26539551935E+02  0.28252971399E+02  0.00000000000E+00 0. -1.
</event>
<event>
 7    1  0.2584640E-011  0.5052886E+02  0.7816164E-02  0.1300439E+00
        -11   -1    0    0    0    0  0.00000000000E+00  0.00000000000E+00  0.45593999997E+02  0.45594000000E+02  0.51100000000E-03 0.  1.
         11   -1    0    0    0    0 -0.00000000000E+00 -0.00000000000E+00 -0.45593999997E+02  0.45594000000E+02  0.51100000000E-03 0. -1.
    9900012    2    1    2    0    0  0.35348864442E+02 -0.20082382619E+02  0.56720523562E+00  0.50528855508E+02  0.29999986803E+02 0.  0.
        -12    1    1    2    0    0 -0.35348864442E+02  0.20082382619E+02 -0.56720523562E+00  0.40659144492E+02  0.00000000000E+00 0.  1.
         11    1    3    3    0    0  0.85154531915E+01 -0.74404715079E+01 -0.49661821238E+01  0.12350567779E+02  0.51100000000E-03 0. -1.
        -11    1    3    3    0    0  0.10625438906E+02 -0.17659679884E+02  0.49770617928E+01  0.21202249642E+02  0.51100000000E-03 0.  1.
         12    1    3    3    0    0  0.16207972345E+02  0.50177687728E+01  0.55632556667E+00  0.16976038087E+02  0.00000000000E+00 0. -1.
</event>
<event>
 7    1  0.2584640E-011  0.5052884E+02  0.7816164E-02  0.1300439E+00
        -11   -1    0    0    0    0  0.00000000000E+00  0.00000000000E+00  0.45593999997E+02  0.45594000000E+02  0.51100000000E-03 0.  1.
         11   -1    0    0    0    0 -0.00000000000E+00 -0.00000000000E+00 -0.45593999997E+02  0.45594000000E+02  0.51100000000E-03 0. -1.
    9900012    2    1    2    0    0  0.62681641561E+01  0.34717341195E+02 -0.20213449319E+02  0.50528841193E+02  0.29999943290E+02 0.  0.
        -12    1    1    2    0    0 -0.62681641561E+01 -0.34717341195E+02  0.20213449319E+02  0.40659158807E+02  0.00000000000E+00 0.  1.
         11    1    3    3    0    0  0.10670774496E+02  0.24465894099E+02 -0.14059811120E+02  0.30168256353E+02  0.51100000000E-03 0. -1.
        -11    1    3    3    0    0  0.43070115326E+01 -0.54168374715E+00  0.14087197049E+01  0.45637989758E+01  0.51100000000E-03 0.  1.
         12    1    3    3    0    0 -0.87096218724E+01  0.10793130843E+02 -0.75623579040E+01  0.15796785864E+02  0.00000000000E+00 0. -1.
</event>
<event>
 7    1  0.2584640E-011  0.5052888E+02  0.7816164E-02  0.1300439E+00
        -11   -1    0    0    0    0  0.00000000000E+00  0.00000000000E+00  0.45593999997E+02  0.45594000000E+02  0.51100000000E-03 0. -1.
         11   -1    0    0    0    0 -0.00000000000E+00 -0.00000000000E+00 -0.45593999997E+02  0.45594000000E+02  0.51100000000E-03 0.  1.
    9900012    2    1    2    0    0 -0.24559813995E+02  0.29255178374E+02 -0.13932476478E+02  0.50528882622E+02  0.30000069217E+02 0.  0.
        -12    1    1    2    0    0  0.24559813995E+02 -0.29255178374E+02  0.13932476478E+02  0.40659117378E+02  0.00000000000E+00 0.  1.
         11    1    3    3    0    0  0.44750937407E+01  0.12769469181E+02  0.14168373797E+01  0.13604897485E+02  0.51100000000E-03 0. -1.
        -11    1    3    3    0    0 -0.39941756002E+01  0.35938065895E+01 -0.31742790053E+01  0.62405874718E+01  0.51100000000E-03 0.  1.
         12    1    3    3    0    0 -0.25040732135E+02  0.12891902604E+02 -0.12175034852E+02  0.30683397665E+02  0.00000000000E+00 0. -1.
</event>
<event>
 7    1  0.2584640E-011  0.5052888E+02  0.7816164E-02  0.1300439E+00
        -11   -1    0    0    0    0  0.00000000000E+00  0.00000000000E+00  0.45593999997E+02  0.45594000000E+02  0.51100000000E-03 0.  1.
         11   -1    0    0    0    0 -0.00000000000E+00 -0.00000000000E+00 -0.45593999997E+02  0.45594000000E+02  0.51100000000E-03 0. -1.
    9900012    2    1    2    0    0  0.35166454191E+01  0.32962522596E+01 -0.40372420277E+02  0.50528875650E+02  0.30000048024E+02 0.  0.
        -12    1    1    2    0    0 -0.35166454191E+01 -0.32962522596E+01  0.40372420277E+02  0.40659124350E+02  0.00000000000E+00 0.  1.
         11    1    3    3    0    0  0.76818230092E+01  0.45153492605E+01 -0.21780053868E+02  0.23532308226E+02  0.51100000000E-03 0. -1.
        -11    1    3    3    0    0 -0.34759216803E+01  0.73540253511E+00 -0.22390053792E+02  0.22670186534E+02  0.51100000000E-03 0.  1.
        -12    1    3    3    0    0 -0.68925590977E+00 -0.19544995360E+01  0.37976873830E+01  0.43263808899E+01  0.00000000000E+00 0.  1.
</event>
<event>
 7    1  0.2584640E-011  0.5052885E+02  0.7816164E-02  0.1300439E+00
        -11   -1    0    0    0    0  0.00000000000E+00  0.00000000000E+00  0.45593999997E+02  0.45594000000E+02  0.51100000000E-03 0.  1.
         11   -1    0    0    0    0 -0.00000000000E+00 -0.00000000000E+00 -0.45593999997E+02  0.45594000000E+02  0.51100000000E-03 0. -1.
    9900012    2    1    2    0    0  0.10078795079E+02  0.24419785315E+02 -0.30907253129E+02  0.50528851939E+02  0.29999975953E+02 0.  0.
        -12    1    1    2    0    0 -0.10078795079E+02 -0.24419785315E+02  0.30907253129E+02  0.40659148061E+02  0.00000000000E+00 0.  1.
         11    1    3    3    0    0 -0.30451411691E+01 -0.17647560326E+01 -0.13921019392E+02  0.14359040002E+02  0.51100000000E-03 0. -1.
        -11    1    3    3    0    0 -0.19597585161E+01  0.55417054792E+01 -0.85552882417E+00  0.59399564720E+01  0.51100000000E-03 0.  1.
         12    1    3    3    0    0  0.15083694765E+02  0.20642835868E+02 -0.16130704913E+02  0.30229855465E+02  0.00000000000E+00 0. -1.
</event>
<event>
 7    1  0.2584640E-011  0.5052886E+02  0.7816164E-02  0.1300439E+00
        -11   -1    0    0    0    0  0.00000000000E+00  0.00000000000E+00  0.45593999997E+02  0.45594000000E+02  0.51100000000E-03 0.  1.
         11   -1    0    0    0    0 -0.00000000000E+00 -0.00000000000E+00 -0.45593999997E+02  0.45594000000E+02  0.51100000000E-03 0. -1.
    9900012    2    1    2    0    0 -0.18054246724E+02 -0.35655102932E+02  0.74782205115E+01  0.50528856233E+02  0.29999989004E+02 0.  0.
        -12    1    1    2    0    0  0.18054246724E+02  0.35655102932E+02 -0.74782205115E+01  0.40659143767E+02  0.00000000000E+00 0.  1.
         11    1    3    3    0    0 -0.14528403824E+01 -0.54204096270E+00 -0.26990050795E+01  0.31127451329E+01  0.51100000000E-03 0. -1.
        -11    1    3    3    0    0  0.38788373352E+01  0.78194234752E+00  0.40069411320E+01  0.56313755339E+01  0.51100000000E-03 0.  1.
         12    1    3    3    0    0 -0.20480243677E+02 -0.35895004317E+02  0.61702844590E+01  0.41784735566E+02  0.00000000000E+00 0. -1.
</event>
<event>
 7    1  0.2584640E-011  0.5052886E+02  0.7816164E-02  0.1300439E+00
        -11   -1    0    0    0    0  0.00000000000E+00  0.00000000000E+00  0.45593999997E+02  0.45594000000E+02  0.51100000000E-03 0.  1.
         11   -1    0    0    0    0 -0.00000000000E+00 -0.00000000000E+00 -0.45593999997E+02  0.45594000000E+02  0.51100000000E-03 0. -1.
    9900012    2    1    2    0    0  0.76298637007E+01  0.39750086916E+02  0.38576759560E+01  0.50528857195E+02  0.29999991929E+02 0.  0.
        -12    1    1    2    0    0 -0.76298637007E+01 -0.39750086916E+02 -0.38576759560E+01  0.40659142805E+02  0.00000000000E+00 0.  1.
         11    1    3    3    0    0  0.47607104176E+01  0.22524565911E+02  0.11128776255E+02  0.25570883722E+02  0.51100000000E-03 0. -1.
        -11    1    3    3    0    0 -0.50992931811E+01  0.12201580126E+01  0.86576419529E+00  0.53142378969E+01  0.51100000000E-03 0.  1.
        -12    1    3    3    0    0  0.79684464642E+01  0.16005362992E+02 -0.81368644939E+01  0.19643735575E+02  0.00000000000E+00 0.  1.
</event>
<event>
 7    1  0.2584640E-011  0.5052886E+02  0.7816164E-02  0.1300439E+00
        -11   -1    0    0    0    0  0.00000000000E+00  0.00000000000E+00  0.45593999997E+02  0.45594000000E+02  0.51100000000E-03 0.  1.
         11   -1    0    0    0    0 -0.00000000000E+00 -0.00000000000E+00 -0.45593999997E+02  0.45594000000E+02  0.51100000000E-03 0. -1.
    9900012    2    1    2    0    0  0.35680177124E+02 -0.88136797679E+01 -0.17389938478E+02  0.50528856491E+02  0.29999989791E+02 0.  0.
        -12    1    1    2    0    0 -0.35680177124E+02  0.88136797679E+01  0.17389938478E+02  0.40659143509E+02  0.00000000000E+00 0.  1.
         11    1    3    3    0    0  0.20719041047E+02  0.70653151977E+01 -0.53132703767E+01  0.22526166631E+02  0.51100000000E-03 0. -1.
        -11    1    3    3    0    0 -0.20092816823E+01 -0.18011661700E+01  0.30339917068E+00  0.27154122650E+01  0.51100000000E-03 0.  1.
        -12    1    3    3    0    0  0.16970417759E+02 -0.14077828796E+02 -0.12380067272E+02  0.25287277595E+02  0.00000000000E+00 0.  1.
</event>
<event>
 7    1  0.2584640E-011  0.5052886E+02  0.7816164E-02  0.1300439E+00
        -11   -1    0    0    0    0  0.00000000000E+00  0.00000000000E+00  0.45593999997E+02  0.45594000000E+02  0.51100000000E-03 0.  1.
         11   -1    0    0    0    0 -0.00000000000E+00 -0.00000000000E+00 -0.45593999997E+02  0.45594000000E+02  0.51100000000E-03 0. -1.
    9900012    2    1    2    0    0  0.28984836165E+01 -0.77209285546E+01 -0.39813968447E+02  0.50528855536E+02  0.29999986888E+02 0.  0.
        -12    1    1    2    0    0 -0.28984836165E+01  0.77209285546E+01  0.39813968447E+02  0.40659144464E+02  0.00000000000E+00 0.  1.
         11    1    3    3    0    0 -0.13175060124E+01 -0.57854526885E+01 -0.69915894756E+01  0.91700386346E+01  0.51100000000E-03 0.  1.
        -11    1    3    3    0    0  0.91758691658E+01 -0.50893610752E+01 -0.29301699194E+01  0.10894221731E+02  0.51100000000E-03 0. -1.
         12    1    3    3    0    0 -0.49598795369E+01  0.31538852090E+01 -0.29892209052E+02  0.30464595171E+02  0.00000000000E+00 0. -1.
</event>
<event>
 7    1  0.2584640E-011  0.5052886E+02  0.7816164E-02  0.1300439E+00
        -11   -1    0    0    0    0  0.00000000000E+00  0.00000000000E+00  0.45593999997E+02  0.45594000000E+02  0.51100000000E-03 0.  1.
         11   -1    0    0    0    0 -0.00000000000E+00 -0.00000000000E+00 -0.45593999997E+02  0.45594000000E+02  0.51100000000E-03 0. -1.
    9900012    2    1    2    0    0 -0.44139531431E+01 -0.38958610585E+02 -0.10766120967E+02  0.50528859801E+02  0.29999999851E+02 0.  0.
        -12    1    1    2    0    0  0.44139531431E+01  0.38958610585E+02  0.10766120967E+02  0.40659140199E+02  0.00000000000E+00 0.  1.
         11    1    3    3    0    0 -0.19282363649E+01 -0.19102063889E+02 -0.46290257740E+01  0.19749299233E+02  0.51100000000E-03 0. -1.
        -11    1    3    3    0    0  0.98367514417E+01 -0.12127114057E+02 -0.32630103756E+01  0.15952297992E+02  0.51100000000E-03 0.  1.
        -12    1    3    3    0    0 -0.12322468220E+02 -0.77294326391E+01 -0.28740848170E+01  0.14827262576E+02  0.00000000000E+00 0.  1.
</event>
<event>
 7    1  0.2584640E-011  0.5052886E+02  0.7816164E-02  0.1300439E+00
        -11   -1    0    0    0    0  0.00000000000E+00  0.00000000000E+00  0.45593999997E+02  0.45594000000E+02  0.51100000000E-03 0. -1.
         11   -1    0    0    0    0 -0.00000000000E+00 -0.00000000000E+00 -0.45593999997E+02  0.45594000000E+02  0.51100000000E-03 0.  1.
    9900012    2    1    2    0    0 -0.13822391761E+02  0.36552250890E+02 -0.11226747332E+02  0.50528863084E+02  0.30000009830E+02 0.  0.
        -12    1    1    2    0    0  0.13822391761E+02 -0.36552250890E+02  0.11226747332E+02  0.40659136916E+02  0.00000000000E+00 0.  1.
         11    1    3    3    0    0  0.22777085751E+01  0.72781616492E+01  0.26818571541E+01  0.80840553808E+01  0.51100000000E-03 0. -1.
        -11    1    3    3    0    0 -0.12889555309E+02  0.55638345635E+01  0.12912728518E+01  0.14098378522E+02  0.51100000000E-03 0.  1.
         12    1    3    3    0    0 -0.32105450266E+01  0.23710254677E+02 -0.15199877338E+02  0.28346429181E+02  0.00000000000E+00 0. -1.
</event>
<event>
 7    1  0.2584640E-011  0.5052887E+02  0.7816164E-02  0.1300439E+00
        -11   -1    0    0    0    0  0.00000000000E+00  0.00000000000E+00  0.45593999997E+02  0.45594000000E+02  0.51100000000E-03 0.  1.
         11   -1    0    0    0    0 -0.00000000000E+00 -0.00000000000E+00 -0.45593999997E+02  0.45594000000E+02  0.51100000000E-03 0. -1.
    9900012    2    1    2    0    0  0.80417450915E+01 -0.30067205668E+02 -0.26162162182E+02  0.50528865100E+02  0.30000015957E+02 0.  0.
        -12    1    1    2    0    0 -0.80417450915E+01  0.30067205668E+02  0.26162162182E+02  0.40659134900E+02  0.00000000000E+00 0.  1.
         11    1    3    3    0    0 -0.33991496105E+01 -0.34314007097E+01 -0.97472622032E+01  0.10878320166E+02  0.51100000000E-03 0. -1.
        -11    1    3    3    0    0 -0.61286691154E+01 -0.95434917371E+01 -0.31105228550E+01  0.11760704586E+02  0.51100000000E-03 0.  1.
         12    1    3    3    0    0  0.17569563817E+02 -0.17092313221E+02 -0.13304377124E+02  0.27889840348E+02  0.00000000000E+00 0. -1.
</event>
<event>
 7    1  0.3334582E-011  0.5052886E+02  0.7816164E-02  0.1300439E+00
        -11   -1    0    0    0    0  0.00000000000E+00  0.00000000000E+00  0.45593999997E+02  0.45594000000E+02  0.51100000000E-03 0.  1.
         11   -1    0    0    0    0 -0.00000000000E+00 -0.00000000000E+00 -0.45593999997E+02  0.45594000000E+02  0.51100000000E-03 0. -1.
    9900012    2    1    2    0    0  0.10186793868E+02 -0.27478055080E+02 -0.28184239131E+02  0.50528860613E+02  0.30000002318E+02 0.  0.
        -12    1    1    2    0    0 -0.10186793868E+02  0.27478055080E+02  0.28184239131E+02  0.40659139387E+02  0.00000000000E+00 0.  1.
         11    1    3    3    0    0  0.14431861284E+01 -0.73091722499E+01 -0.18679896097E+02  0.20110825534E+02  0.51100000000E-03 0. -1.
        -11    1    3    3    0    0  0.36845404776E+01  0.29432252532E+01 -0.38616217306E+01  0.60951239589E+01  0.51100000000E-03 0.  1.
        -12    1    3    3    0    0  0.50590672622E+01 -0.23112108084E+02 -0.56427213031E+01  0.24322911120E+02  0.00000000000E+00 0.  1.
</event>
<event>
 7    1  0.2584640E-011  0.5052887E+02  0.7816164E-02  0.1300439E+00
        -11   -1    0    0    0    0  0.00000000000E+00  0.00000000000E+00  0.45593999997E+02  0.45594000000E+02  0.51100000000E-03 0.  1.
         11   -1    0    0    0    0 -0.00000000000E+00 -0.00000000000E+00 -0.45593999997E+02  0.45594000000E+02  0.51100000000E-03 0. -1.
    9900012    2    1    2    0    0 -0.13063847647E+01  0.25945023539E+02 -0.31278015671E+02  0.50528866316E+02  0.30000019655E+02 0.  0.
        -12    1    1    2    0    0  0.13063847647E+01 -0.25945023539E+02  0.31278015671E+02  0.40659133684E+02  0.00000000000E+00 0.  1.
         11    1    3    3    0    0  0.75689393454E+01 -0.20056288520E+01 -0.79884063867E+01  0.11185974556E+02  0.51100000000E-03 0.  1.
        -11    1    3    3    0    0 -0.96317897986E+00  0.18591904308E+02 -0.18317981090E+02  0.26117715272E+02  0.51100000000E-03 0. -1.
        -12    1    3    3    0    0 -0.79121451302E+01  0.93587480830E+01 -0.49716281934E+01  0.13225176488E+02  0.00000000000E+00 0.  1.
</event>
<event>
 7    1  0.2584640E-011  0.5052886E+02  0.7816164E-02  0.1300439E+00
        -11   -1    0    0    0    0  0.00000000000E+00  0.00000000000E+00  0.45593999997E+02  0.45594000000E+02  0.51100000000E-03 0.  1.
         11   -1    0    0    0    0 -0.00000000000E+00 -0.00000000000E+00 -0.45593999997E+02  0.45594000000E+02  0.51100000000E-03 0. -1.
    9900012    2    1    2    0    0 -0.24635571363E+02  0.25497835582E+02 -0.19902622861E+02  0.50528863358E+02  0.30000010663E+02 0.  0.
        -12    1    1    2    0    0  0.24635571363E+02 -0.25497835582E+02  0.19902622861E+02  0.40659136642E+02  0.00000000000E+00 0.  1.
         11    1    3    3    0    0 -0.18075288668E+02  0.81679357268E+01 -0.63164158468E+01  0.20816540152E+02  0.51100000000E-03 0. -1.
        -11    1    3    3    0    0 -0.64414835248E+01  0.84619678664E+01  0.28728488782E+01  0.11015937142E+02  0.51100000000E-03 0.  1.
         12    1    3    3    0    0 -0.11879916961E+00  0.88679319888E+01 -0.16459055892E+02  0.18696386064E+02  0.00000000000E+00 0. -1.
</event>
<event>
 7    1  0.2584640E-011  0.5052885E+02  0.7816164E-02  0.1300439E+00
        -11   -1    0    0    0    0  0.00000000000E+00  0.00000000000E+00  0.45593999997E+02  0.45594000000E+02  0.51100000000E-03 0.  1.
         11   -1    0    0    0    0 -0.00000000000E+00 -0.00000000000E+00 -0.45593999997E+02  0.45594000000E+02  0.51100000000E-03 0. -1.
    9900012    2    1    2    0    0  0.57204776191E+01 -0.30717652683E+02 -0.26016693687E+02  0.50528850956E+02  0.29999972966E+02 0.  0.
        -12    1    1    2    0    0 -0.57204776191E+01  0.30717652683E+02  0.26016693687E+02  0.40659149044E+02  0.00000000000E+00 0.  1.
         11    1    3    3    0    0 -0.21804288770E+01 -0.62824221804E+01 -0.27022348537E+01  0.71781036497E+01  0.51100000000E-03 0. -1.
        -11    1    3    3    0    0  0.98178588746E+01 -0.98749700342E+01  0.20167494458E+01  0.14070275926E+02  0.51100000000E-03 0.  1.
        -12    1    3    3    0    0 -0.19169523785E+01 -0.14560260469E+02 -0.25331208279E+02  0.29280471380E+02  0.00000000000E+00 0.  1.
</event>
<event>
 7    1  0.2584640E-011  0.5052886E+02  0.7816164E-02  0.1300439E+00
        -11   -1    0    0    0    0  0.00000000000E+00  0.00000000000E+00  0.45593999997E+02  0.45594000000E+02  0.51100000000E-03 0.  1.
         11   -1    0    0    0    0 -0.00000000000E+00 -0.00000000000E+00 -0.45593999997E+02  0.45594000000E+02  0.51100000000E-03 0. -1.
    9900012    2    1    2    0    0  0.24174652575E+02 -0.30854459177E+02 -0.10805298510E+02  0.50528856452E+02  0.29999989671E+02 0.  0.
        -12    1    1    2    0    0 -0.24174652575E+02  0.30854459177E+02  0.10805298510E+02  0.40659143548E+02  0.00000000000E+00 0.  1.
         11    1    3    3    0    0  0.41678080403E+01 -0.12949713389E+02 -0.69656667332E+01  0.15283527538E+02  0.51100000000E-03 0. -1.
        -11    1    3    3    0    0 -0.42697839936E+01  0.71187627393E+00  0.45403614801E+00  0.43524673768E+01  0.51100000000E-03 0.  1.
        -12    1    3    3    0    0  0.24276628528E+02 -0.18616622062E+02 -0.42936679248E+01  0.30892861537E+02  0.00000000000E+00 0.  1.
</event>
<event>
 7    1  0.2620080E-011  0.5052887E+02  0.7816164E-02  0.1300439E+00
        -11   -1    0    0    0    0  0.00000000000E+00  0.00000000000E+00  0.45593999997E+02  0.45594000000E+02  0.51100000000E-03 0.  1.
         11   -1    0    0    0    0 -0.00000000000E+00 -0.00000000000E+00 -0.45593999997E+02  0.45594000000E+02  0.51100000000E-03 0. -1.
    9900012    2    1    2    0    0  0.93101350259E+01 -0.38466640179E+02 -0.93168709974E+01  0.50528866880E+02  0.30000021370E+02 0.  0.
        -12    1    1    2    0    0 -0.93101350259E+01  0.38466640179E+02  0.93168709974E+01  0.40659133120E+02  0.00000000000E+00 0.  1.
         11    1    3    3    0    0  0.30126647075E+01 -0.19294524268E+02 -0.10374697180E+02  0.22113099222E+02  0.51100000000E-03 0.  1.
        -11    1    3    3    0    0  0.10343384008E+02 -0.21294999270E+02 -0.20664750963E+00  0.23674992927E+02  0.51100000000E-03 0. -1.
        -12    1    3    3    0    0 -0.40459136899E+01  0.21228833584E+01  0.12644736922E+01  0.47407747318E+01  0.00000000000E+00 0.  1.
</event>
<event>
 7    1  0.2584640E-011  0.5052886E+02  0.7816164E-02  0.1300439E+00
        -11   -1    0    0    0    0  0.00000000000E+00  0.00000000000E+00  0.45593999997E+02  0.45594000000E+02  0.51100000000E-03 0.  1.
         11   -1    0    0    0    0 -0.00000000000E+00 -0.00000000000E+00 -0.45593999997E+02  0.45594000000E+02  0.51100000000E-03 0. -1.
    9900012    2    1    2    0    0  0.23476079524E+02 -0.17326518702E+02 -0.28316629250E+02  0.50528855245E+02  0.29999986002E+02 0.  0.
        -12    1    1    2    0    0 -0.23476079524E+02  0.17326518702E+02  0.28316629250E+02  0.40659144755E+02  0.00000000000E+00 0.  1.
         11    1    3    3    0    0  0.13381954104E+02 -0.79885069402E+01 -0.51549964988E+01  0.16415447844E+02  0.51100000000E-03 0. -1.
        -11    1    3    3    0    0 -0.16924126760E+00  0.60617541586E+00  0.36645582823E+01  0.37182090994E+01  0.51100000000E-03 0.  1.
         12    1    3    3    0    0  0.10263366688E+02 -0.99441871781E+01 -0.26826191033E+02  0.30395198301E+02  0.00000000000E+00 0. -1.
</event>
<event>
 7    1  0.2584640E-011  0.5052886E+02  0.7816164E-02  0.1300439E+00
        -11   -1    0    0    0    0  0.00000000000E+00  0.00000000000E+00  0.45593999997E+02  0.45594000000E+02  0.51100000000E-03 0.  1.
         11   -1    0    0    0    0 -0.00000000000E+00 -0.00000000000E+00 -0.45593999997E+02  0.45594000000E+02  0.51100000000E-03 0. -1.
    9900012    2    1    2    0    0 -0.22287374225E+02  0.25932527423E+02 -0.21998691427E+02  0.50528862615E+02  0.30000008404E+02 0.  0.
        -12    1    1    2    0    0  0.22287374225E+02 -0.25932527423E+02  0.21998691427E+02  0.40659137385E+02  0.00000000000E+00 0.  1.
         11    1    3    3    0    0  0.44256896979E+01  0.24990551279E+01 -0.62878271627E+00  0.51212668159E+01  0.51100000000E-03 0.  1.
        -11    1    3    3    0    0 -0.13050200947E+02  0.99006591366E+01  0.36726494067E+00  0.16384922334E+02  0.51100000000E-03 0. -1.
        -12    1    3    3    0    0 -0.13662862976E+02  0.13532813159E+02 -0.21737173651E+02  0.29022673465E+02  0.00000000000E+00 0.  1.
</event>
<event>
 7    1  0.2584640E-011  0.5052885E+02  0.7816164E-02  0.1300439E+00
        -11   -1    0    0    0    0  0.00000000000E+00  0.00000000000E+00  0.45593999997E+02  0.45594000000E+02  0.51100000000E-03 0.  1.
         11   -1    0    0    0    0 -0.00000000000E+00 -0.00000000000E+00 -0.45593999997E+02  0.45594000000E+02  0.51100000000E-03 0. -1.
    9900012    2    1    2    0    0  0.61238385810E+01 -0.22218719540E+02 -0.33496173822E+02  0.50528849029E+02  0.29999967108E+02 0.  0.
        -12    1    1    2    0    0 -0.61238385810E+01  0.22218719540E+02  0.33496173822E+02  0.40659150971E+02  0.00000000000E+00 0.  1.
         11    1    3    3    0    0 -0.79053876504E+01 -0.98672246656E+01 -0.87296648528E+01  0.15364384960E+02  0.51100000000E-03 0. -1.
        -11    1    3    3    0    0 -0.13091130315E+01 -0.82667399969E+00 -0.12045700826E+02  0.12144796231E+02  0.51100000000E-03 0.  1.
        -12    1    3    3    0    0  0.15338339263E+02 -0.11524820875E+02 -0.12720808143E+02  0.23019667838E+02  0.00000000000E+00 0.  1.
</event>
<event>
 7    1  0.2584640E-011  0.5052886E+02  0.7816164E-02  0.1300439E+00
        -11   -1    0    0    0    0  0.00000000000E+00  0.00000000000E+00  0.45593999997E+02  0.45594000000E+02  0.51100000000E-03 0.  1.
         11   -1    0    0    0    0 -0.00000000000E+00 -0.00000000000E+00 -0.45593999997E+02  0.45594000000E+02  0.51100000000E-03 0. -1.
    9900012    2    1    2    0    0  0.43563713397E+01  0.40325455567E+02  0.28364507926E+01  0.50528858457E+02  0.29999995765E+02 0.  0.
        -12    1    1    2    0    0 -0.43563713397E+01 -0.40325455567E+02 -0.28364507926E+01  0.40659141543E+02  0.00000000000E+00 0.  1.
         11    1    3    3    0    0 -0.51519140856E+01  0.13822777238E+02 -0.84571510185E+01  0.17003964036E+02  0.51100000000E-03 0. -1.
        -11    1    3    3    0    0  0.22511027590E+01  0.16681340925E+02 -0.86281779864E-01  0.16832766959E+02  0.51100000000E-03 0.  1.
         12    1    3    3    0    0  0.72571826663E+01  0.98213374037E+01  0.11379883591E+02  0.16692127462E+02  0.00000000000E+00 0. -1.
</event>
<event>
 7    1  0.2584640E-011  0.5052884E+02  0.7816164E-02  0.1300439E+00
        -11   -1    0    0    0    0  0.00000000000E+00  0.00000000000E+00  0.45593999997E+02  0.45594000000E+02  0.51100000000E-03 0.  1.
         11   -1    0    0    0    0 -0.00000000000E+00 -0.00000000000E+00 -0.45593999997E+02  0.45594000000E+02  0.51100000000E-03 0. -1.
    9900012    2    1    2    0    0 -0.15671845231E+02  0.28369628115E+01 -0.37410055070E+02  0.50528839762E+02  0.29999938941E+02 0.  0.
        -12    1    1    2    0    0  0.15671845231E+02 -0.28369628115E+01  0.37410055070E+02  0.40659160238E+02  0.00000000000E+00 0.  1.
         11    1    3    3    0    0 -0.50942505394E+01  0.57601167568E+01 -0.25305702347E+01  0.80953146686E+01  0.51100000000E-03 0.  1.
        -11    1    3    3    0    0 -0.17204930006E+02 -0.23334495860E+01 -0.22999170731E+02  0.28816947410E+02  0.51100000000E-03 0. -1.
         12    1    3    3    0    0  0.66273353143E+01 -0.58970435930E+00 -0.11880314104E+02  0.13616577683E+02  0.00000000000E+00 0. -1.
</event>
<event>
 7    1  0.2584640E-011  0.5052886E+02  0.7816164E-02  0.1300439E+00
        -11   -1    0    0    0    0  0.00000000000E+00  0.00000000000E+00  0.45593999997E+02  0.45594000000E+02  0.51100000000E-03 0.  1.
         11   -1    0    0    0    0 -0.00000000000E+00 -0.00000000000E+00 -0.45593999997E+02  0.45594000000E+02  0.51100000000E-03 0. -1.
    9900012    2    1    2    0    0 -0.21795811075E+02  0.14320619505E+02 -0.31193397439E+02  0.50528861209E+02  0.30000004131E+02 0.  0.
        -12    1    1    2    0    0  0.21795811075E+02 -0.14320619505E+02  0.31193397439E+02  0.40659138791E+02  0.00000000000E+00 0.  1.
         11    1    3    3    0    0 -0.27153012846E+02  0.11759737515E+02 -0.18143580389E+02  0.34709754287E+02  0.51100000000E-03 0. -1.
        -11    1    3    3    0    0 -0.78075339020E+00 -0.13597873878E+01 -0.32570606589E+01  0.36148363716E+01  0.51100000000E-03 0.  1.
         12    1    3    3    0    0  0.61379551614E+01  0.39206693775E+01 -0.97927563911E+01  0.12204270550E+02  0.00000000000E+00 0. -1.
</event>
<event>
 7    1  0.2584640E-011  0.5052886E+02  0.7816164E-02  0.1300439E+00
        -11   -1    0    0    0    0  0.00000000000E+00  0.00000000000E+00  0.45593999997E+02  0.45594000000E+02  0.51100000000E-03 0.  1.
         11   -1    0    0    0    0 -0.00000000000E+00 -0.00000000000E+00 -0.45593999997E+02  0.45594000000E+02  0.51100000000E-03 0. -1.
    9900012    2    1    2    0    0 -0.16025272244E+00  0.45489500582E+01 -0.40403553941E+02  0.50528858363E+02  0.29999995481E+02 0.  0.
        -12    1    1    2    0    0  0.16025272244E+00 -0.45489500582E+01  0.40403553941E+02  0.40659141637E+02  0.00000000000E+00 0.  1.
         11    1    3    3    0    0 -0.26069059331E+01 -0.98449130168E+01 -0.24779368091E+02  0.26790583311E+02  0.51100000000E-03 0. -1.
        -11    1    3    3    0    0  0.12577647405E+01 -0.75755583473E+00 -0.49582119982E+01  0.51710472310E+01  0.51100000000E-03 0.  1.
        -12    1    3    3    0    0  0.11888884702E+01  0.15151418910E+02 -0.10665973852E+02  0.18567227822E+02  0.00000000000E+00 0.  1.
</event>
<event>
 7    1  0.2584640E-011  0.5052888E+02  0.7816164E-02  0.1300439E+00
        -11   -1    0    0    0    0  0.00000000000E+00  0.00000000000E+00  0.45593999997E+02  0.45594000000E+02  0.51100000000E-03 0. -1.
         11   -1    0    0    0    0 -0.00000000000E+00 -0.00000000000E+00 -0.45593999997E+02  0.45594000000E+02  0.51100000000E-03 0.  1.
    9900012    2    1    2    0    0  0.26083502612E+02  0.15746129981E+02  0.26923497601E+02  0.50528875059E+02  0.30000046229E+02 0.  0.
        -12    1    1    2    0    0 -0.26083502612E+02 -0.15746129981E+02 -0.26923497601E+02  0.40659124941E+02  0.00000000000E+00 0.  1.
         11    1    3    3    0    0  0.66360153992E+01  0.67013020085E+00  0.94387388165E+01  0.11557489588E+02  0.51100000000E-03 0. -1.
        -11    1    3    3    0    0  0.10850449643E+02 -0.20685949684E+01 -0.24436801492E+01  0.11312953440E+02  0.51100000000E-03 0.  1.
         12    1    3    3    0    0  0.85970375696E+01  0.17144594749E+02  0.19928438934E+02  0.27658432031E+02  0.00000000000E+00 0. -1.
</event>
<event>
 7    1  0.2584640E-011  0.5052884E+02  0.7816164E-02  0.1300439E+00
        -11   -1    0    0    0    0  0.00000000000E+00  0.00000000000E+00  0.45593999997E+02  0.45594000000E+02  0.51100000000E-03 0. -1.
         11   -1    0    0    0    0 -0.00000000000E+00 -0.00000000000E+00 -0.45593999997E+02  0.45594000000E+02  0.51100000000E-03 0.  1.
    9900012    2    1    2    0    0  0.34100155149E+02 -0.45521818090E+01  0.21670822117E+02  0.50528837790E+02  0.29999932947E+02 0.  0.
        -12    1    1    2    0    0 -0.34100155149E+02  0.45521818090E+01 -0.21670822117E+02  0.40659162210E+02  0.00000000000E+00 0.  1.
         11    1    3    3    0    0  0.29879808072E+02  0.90943647238E+01  0.14797226629E+02  0.34561080949E+02  0.51100000000E-03 0. -1.
        -11    1    3    3    0    0  0.10899373706E+01 -0.22987219044E+01  0.54127258210E+00  0.26009733053E+01  0.51100000000E-03 0.  1.
         12    1    3    3    0    0  0.31304097061E+01 -0.11347824628E+02  0.63323229053E+01  0.13366783536E+02  0.00000000000E+00 0. -1.
</event>
<event>
 7    1  0.2584640E-011  0.5052887E+02  0.7816164E-02  0.1300439E+00
        -11   -1    0    0    0    0  0.00000000000E+00  0.00000000000E+00  0.45593999997E+02  0.45594000000E+02  0.51100000000E-03 0.  1.
         11   -1    0    0    0    0 -0.00000000000E+00 -0.00000000000E+00 -0.45593999997E+02  0.45594000000E+02  0.51100000000E-03 0. -1.
    9900012    2    1    2    0    0 -0.17305439961E+02  0.27306787323E+02 -0.24658187196E+02  0.50528867176E+02  0.30000022269E+02 0.  0.
        -12    1    1    2    0    0  0.17305439961E+02 -0.27306787323E+02  0.24658187196E+02  0.40659132824E+02  0.00000000000E+00 0.  1.
         11    1    3    3    0    0  0.19486127353E+01  0.67693595384E+01 -0.95993074760E+00  0.71093450791E+01  0.51100000000E-03 0. -1.
        -11    1    3    3    0    0 -0.10241049484E+02  0.11777033060E+02  0.10710513550E+01  0.15643680945E+02  0.51100000000E-03 0.  1.
         12    1    3    3    0    0 -0.90130032121E+01  0.87603947247E+01 -0.24769307804E+02  0.27775841152E+02  0.00000000000E+00 0. -1.
</event>
<event>
 7    1  0.2584640E-011  0.5052888E+02  0.7816164E-02  0.1300439E+00
        -11   -1    0    0    0    0  0.00000000000E+00  0.00000000000E+00  0.45593999997E+02  0.45594000000E+02  0.51100000000E-03 0.  1.
         11   -1    0    0    0    0 -0.00000000000E+00 -0.00000000000E+00 -0.45593999997E+02  0.45594000000E+02  0.51100000000E-03 0. -1.
    9900012    2    1    2    0    0 -0.24340301297E+02  0.32282191740E+02 -0.43097738179E+01  0.50528876533E+02  0.30000050709E+02 0.  0.
        -12    1    1    2    0    0  0.24340301297E+02 -0.32282191740E+02  0.43097738179E+01  0.40659123467E+02  0.00000000000E+00 0.  1.
         11    1    3    3    0    0 -0.10766647915E+01  0.13247250988E+02  0.68677005054E+01  0.14960420325E+02  0.51100000000E-03 0. -1.
        -11    1    3    3    0    0  0.72921521877E+00  0.26903571471E+00 -0.42632148492E+01  0.43334900672E+01  0.51100000000E-03 0.  1.
        -12    1    3    3    0    0 -0.23992851724E+02  0.18765905037E+02 -0.69142594741E+01  0.31234966141E+02  0.00000000000E+00 0.  1.
</event>
<event>
 7    1  0.2584640E-011  0.5052886E+02  0.7816164E-02  0.1300439E+00
        -11   -1    0    0    0    0  0.00000000000E+00  0.00000000000E+00  0.45593999997E+02  0.45594000000E+02  0.51100000000E-03 0.  1.
         11   -1    0    0    0    0 -0.00000000000E+00 -0.00000000000E+00 -0.45593999997E+02  0.45594000000E+02  0.51100000000E-03 0. -1.
    9900012    2    1    2    0    0  0.10432562640E+01 -0.21356170383E+02 -0.34583102780E+02  0.50528863327E+02  0.30000010570E+02 0.  0.
        -12    1    1    2    0    0 -0.10432562640E+01  0.21356170383E+02  0.34583102780E+02  0.40659136673E+02  0.00000000000E+00 0.  1.
         11    1    3    3    0    0  0.59958180070E+01 -0.18827774357E+02 -0.28459186481E+02  0.34646215035E+02  0.51100000000E-03 0. -1.
        -11    1    3    3    0    0 -0.71224904388E+01 -0.54000560114E+01 -0.78453612165E+01  0.11892862055E+02  0.51100000000E-03 0.  1.
         12    1    3    3    0    0  0.21699286957E+01  0.28716599859E+01  0.17214449172E+01  0.39897862377E+01  0.00000000000E+00 0. -1.
</event>
<event>
 7    1  0.2584640E-011  0.5052887E+02  0.7816164E-02  0.1300439E+00
        -11   -1    0    0    0    0  0.00000000000E+00  0.00000000000E+00  0.45593999997E+02  0.45594000000E+02  0.51100000000E-03 0. -1.
         11   -1    0    0    0    0 -0.00000000000E+00 -0.00000000000E+00 -0.45593999997E+02  0.45594000000E+02  0.51100000000E-03 0.  1.
    9900012    2    1    2    0    0 -0.35935720932E+02  0.18769831227E+02  0.30793428856E+01  0.50528868727E+02  0.30000026984E+02 0.  0.
        -12    1    1    2    0    0  0.35935720932E+02 -0.18769831227E+02 -0.30793428856E+01  0.40659131273E+02  0.00000000000E+00 0.  1.
         11    1    3    3    0    0 -0.52530935743E+01  0.81173658019E+01  0.53256333090E+01  0.11038523002E+02  0.51100000000E-03 0. -1.
        -11    1    3    3    0    0 -0.10256199976E+02 -0.29688182560E+01 -0.90684550034E+01  0.14008582947E+02  0.51100000000E-03 0.  1.
         12    1    3    3    0    0 -0.20426427382E+02  0.13621283681E+02  0.68221645800E+01  0.25481762778E+02  0.00000000000E+00 0. -1.
</event>
<event>
 7    1  0.2584640E-011  0.5052886E+02  0.7816164E-02  0.1300439E+00
        -11   -1    0    0    0    0  0.00000000000E+00  0.00000000000E+00  0.45593999997E+02  0.45594000000E+02  0.51100000000E-03 0. -1.
         11   -1    0    0    0    0 -0.00000000000E+00 -0.00000000000E+00 -0.45593999997E+02  0.45594000000E+02  0.51100000000E-03 0.  1.
    9900012    2    1    2    0    0  0.16257087513E+01  0.37443849140E+02  0.15763278937E+02  0.50528859205E+02  0.29999998039E+02 0.  0.
        -12    1    1    2    0    0 -0.16257087513E+01 -0.37443849140E+02 -0.15763278937E+02  0.40659140795E+02  0.00000000000E+00 0.  1.
         11    1    3    3    0    0  0.44652620918E+00  0.20434951676E+02  0.26873880514E+00  0.20441596231E+02  0.51100000000E-03 0. -1.
        -11    1    3    3    0    0 -0.33384869534E+01  0.25358140292E+01 -0.37243829114E+01  0.56077514443E+01  0.51100000000E-03 0.  1.
         12    1    3    3    0    0  0.45176694955E+01  0.14473083434E+02  0.19218923044E+02  0.24479511530E+02  0.00000000000E+00 0. -1.
</event>
<event>
 7    1  0.2584640E-011  0.5052887E+02  0.7816164E-02  0.1300439E+00
        -11   -1    0    0    0    0  0.00000000000E+00  0.00000000000E+00  0.45593999997E+02  0.45594000000E+02  0.51100000000E-03 0. -1.
         11   -1    0    0    0    0 -0.00000000000E+00 -0.00000000000E+00 -0.45593999997E+02  0.45594000000E+02  0.51100000000E-03 0.  1.
    9900012    2    1    2    0    0 -0.27531043243E+02 -0.26624916215E+02 -0.13649926635E+02  0.50528868152E+02  0.30000025234E+02 0.  0.
        -12    1    1    2    0    0  0.27531043243E+02  0.26624916215E+02  0.13649926635E+02  0.40659131848E+02  0.00000000000E+00 0.  1.
         11    1    3    3    0    0 -0.15242337097E+02 -0.17855373164E+02 -0.13584863664E+02  0.27123637515E+02  0.51100000000E-03 0. -1.
        -11    1    3    3    0    0 -0.73307668326E+01 -0.77867685581E+00 -0.81600940200E+01  0.10996982071E+02  0.51100000000E-03 0.  1.
        -12    1    3    3    0    0 -0.49579393143E+01 -0.79908661947E+01  0.80950310488E+01  0.12408248566E+02  0.00000000000E+00 0.  1.
</event>
<event>
 7    1  0.2736837E-011  0.5052890E+02  0.7816164E-02  0.1300439E+00
        -11   -1    0    0    0    0  0.00000000000E+00  0.00000000000E+00  0.45593999997E+02  0.45594000000E+02  0.51100000000E-03 0.  1.
         11   -1    0    0    0    0 -0.00000000000E+00 -0.00000000000E+00 -0.45593999997E+02  0.45594000000E+02  0.51100000000E-03 0. -1.
    9900012    2    1    2    0    0 -0.22941505485E+02  0.85785204311E+01 -0.32453953078E+02  0.50528895766E+02  0.30000109170E+02 0.  0.
        -12    1    1    2    0    0  0.22941505485E+02 -0.85785204311E+01  0.32453953078E+02  0.40659104234E+02  0.00000000000E+00 0.  1.
         11    1    3    3    0    0 -0.18007151536E+02  0.34993050001E-01 -0.20965051381E+02  0.27636789080E+02  0.51100000000E-03 0. -1.
        -11    1    3    3    0    0 -0.78074179797E+01  0.11699220125E+02 -0.12134172259E+02  0.18575943145E+02  0.51100000000E-03 0.  1.
        -12    1    3    3    0    0  0.28730640304E+01 -0.31556927442E+01  0.64527056195E+00  0.43161635415E+01  0.00000000000E+00 0.  1.
</event>
<event>
 7    1  0.2584640E-011  0.5052886E+02  0.7816164E-02  0.1300439E+00
        -11   -1    0    0    0    0  0.00000000000E+00  0.00000000000E+00  0.45593999997E+02  0.45594000000E+02  0.51100000000E-03 0. -1.
         11   -1    0    0    0    0 -0.00000000000E+00 -0.00000000000E+00 -0.45593999997E+02  0.45594000000E+02  0.51100000000E-03 0.  1.
    9900012    2    1    2    0    0 -0.99991517609E+00  0.40015288460E+02 -0.71374055441E+01  0.50528859591E+02  0.29999999211E+02 0.  0.
        -12    1    1    2    0    0  0.99991517609E+00 -0.40015288460E+02  0.71374055441E+01  0.40659140409E+02  0.00000000000E+00 0.  1.
         11    1    3    3    0    0  0.14458001271E+01  0.50080345841E+01 -0.63250637758E+01  0.81961686435E+01  0.51100000000E-03 0.  1.
        -11    1    3    3    0    0  0.10264135777E+02  0.10929246143E+02  0.11365217734E+01  0.15036375445E+02  0.51100000000E-03 0. -1.
         12    1    3    3    0    0 -0.12709851081E+02  0.24078007733E+02 -0.19488635417E+01  0.27296315502E+02  0.00000000000E+00 0. -1.
</event>
<event>
 7    1  0.2584640E-011  0.5052888E+02  0.7816164E-02  0.1300439E+00
        -11   -1    0    0    0    0  0.00000000000E+00  0.00000000000E+00  0.45593999997E+02  0.45594000000E+02  0.51100000000E-03 0.  1.
         11   -1    0    0    0    0 -0.00000000000E+00 -0.00000000000E+00 -0.45593999997E+02  0.45594000000E+02  0.51100000000E-03 0. -1.
    9900012    2    1    2    0    0 -0.98930976533E+00 -0.12134403788E+02 -0.38793581234E+02  0.50528875144E+02  0.30000046489E+02 0.  0.
        -12    1    1    2    0    0  0.98930976533E+00  0.12134403788E+02  0.38793581234E+02  0.40659124856E+02  0.00000000000E+00 0.  1.
         11    1    3    3    0    0 -0.30160039903E+01 -0.56051394294E+01  0.27978987795E+01  0.69528487640E+01  0.51100000000E-03 0.  1.
        -11    1    3    3    0    0 -0.22690606867E+01 -0.57037840014E+01 -0.10378285059E+02  0.12057802012E+02  0.51100000000E-03 0. -1.
        -12    1    3    3    0    0  0.42957549117E+01 -0.82548035683E+00 -0.31213194954E+02  0.31518224368E+02  0.00000000000E+00 0.  1.
</event>
<event>
 7    1  0.2584640E-011  0.5052886E+02  0.7816164E-02  0.1300439E+00
        -11   -1    0    0    0    0  0.00000000000E+00  0.00000000000E+00  0.45593999997E+02  0.45594000000E+02  0.51100000000E-03 0.  1.
         11   -1    0    0    0    0 -0.00000000000E+00 -0.00000000000E+00 -0.45593999997E+02  0.45594000000E+02  0.51100000000E-03 0. -1.
    9900012    2    1    2    0    0  0.15044493619E+02 -0.30340594606E+02 -0.22500607729E+02  0.50528858131E+02  0.29999994776E+02 0.  0.
        -12    1    1    2    0    0 -0.15044493619E+02  0.30340594606E+02  0.22500607729E+02  0.40659141869E+02  0.00000000000E+00 0.  1.
         11    1    3    3    0    0  0.57944423187E+01 -0.12461295105E+02 -0.56945113770E+01  0.14875715027E+02  0.51100000000E-03 0. -1.
        -11    1    3    3    0    0  0.12056258251E+02 -0.11534750902E+01 -0.49298112490E+00  0.12121340621E+02  0.51100000000E-03 0.  1.
        -12    1    3    3    0    0 -0.28062069510E+01 -0.16725824411E+02 -0.16313115228E+02  0.23531802483E+02  0.00000000000E+00 0.  1.
</event>
<event>
 7    1  0.2886548E-011  0.5052886E+02  0.7816164E-02  0.1300439E+00
        -11   -1    0    0    0    0  0.00000000000E+00  0.00000000000E+00  0.45593999997E+02  0.45594000000E+02  0.51100000000E-03 0.  1.
         11   -1    0    0    0    0 -0.00000000000E+00 -0.00000000000E+00 -0.45593999997E+02  0.45594000000E+02  0.51100000000E-03 0. -1.
    9900012    2    1    2    0    0 -0.92203782079E+01 -0.35221814008E+02 -0.18099005193E+02  0.50528861479E+02  0.30000004952E+02 0.  0.
        -12    1    1    2    0    0  0.92203782079E+01  0.35221814008E+02  0.18099005193E+02  0.40659138521E+02  0.00000000000E+00 0.  1.
         11    1    3    3    0    0  0.26508079464E+01 -0.12523044683E+02 -0.66445452015E+01  0.14422323394E+02  0.51100000000E-03 0. -1.
        -11    1    3    3    0    0 -0.36763398952E+01 -0.10137366341E+02 -0.16986890626E+02  0.20120539872E+02  0.51100000000E-03 0.  1.
        -12    1    3    3    0    0 -0.81948462590E+01 -0.12561402984E+02  0.55324306341E+01  0.15985998212E+02  0.00000000000E+00 0.  1.
</event>
<event>
 7    1  0.2584640E-011  0.5052886E+02  0.7816164E-02  0.1300439E+00
        -11   -1    0    0    0    0  0.00000000000E+00  0.00000000000E+00  0.45593999997E+02  0.45594000000E+02  0.51100000000E-03 0.  1.
         11   -1    0    0    0    0 -0.00000000000E+00 -0.00000000000E+00 -0.45593999997E+02  0.45594000000E+02  0.51100000000E-03 0. -1.
    9900012    2    1    2    0    0  0.30244024359E+02  0.27172394426E+02 -0.35452652448E+00  0.50528859363E+02  0.29999998519E+02 0.  0.
        -12    1    1    2    0    0 -0.30244024359E+02 -0.27172394426E+02  0.35452652448E+00  0.40659140637E+02  0.00000000000E+00 0.  1.
         11    1    3    3    0    0  0.18996958074E+02  0.87238156542E+01  0.40633618879E+01  0.21295546148E+02  0.51100000000E-03 0. -1.
        -11    1    3    3    0    0  0.33378353684E+01  0.80255267881E+01  0.75410466308E+01  0.11507285072E+02  0.51100000000E-03 0.  1.
         12    1    3    3    0    0  0.79092309166E+01  0.10423051984E+02 -0.11958935043E+02  0.17726028143E+02  0.00000000000E+00 0. -1.
</event>
<event>
 7    1  0.2584640E-011  0.5052886E+02  0.7816164E-02  0.1300439E+00
        -11   -1    0    0    0    0  0.00000000000E+00  0.00000000000E+00  0.45593999997E+02  0.45594000000E+02  0.51100000000E-03 0. -1.
         11   -1    0    0    0    0 -0.00000000000E+00 -0.00000000000E+00 -0.45593999997E+02  0.45594000000E+02  0.51100000000E-03 0.  1.
    9900012    2    1    2    0    0 -0.36112155330E+02 -0.14217022294E+02 -0.12122476150E+02  0.50528856950E+02  0.29999991186E+02 0.  0.
        -12    1    1    2    0    0  0.36112155330E+02  0.14217022294E+02  0.12122476150E+02  0.40659143050E+02  0.00000000000E+00 0.  1.
         11    1    3    3    0    0 -0.24165512920E+02 -0.14227348700E+02 -0.34708540856E+01  0.28256615050E+02  0.51100000000E-03 0.  1.
        -11    1    3    3    0    0 -0.14102506569E+02 -0.38830465189E+01 -0.98848266221E+01  0.17654136609E+02  0.51100000000E-03 0. -1.
        -12    1    3    3    0    0  0.21558641587E+01  0.38933729247E+01  0.12332045576E+01  0.46181052914E+01  0.00000000000E+00 0.  1.
</event>
<event>
 7    1  0.3091709E-011  0.5052885E+02  0.7816164E-02  0.1300439E+00
        -11   -1    0    0    0    0  0.00000000000E+00  0.00000000000E+00  0.45593999997E+02  0.45594000000E+02  0.51100000000E-03 0. -1.
         11   -1    0    0    0    0 -0.00000000000E+00 -0.00000000000E+00 -0.45593999997E+02  0.45594000000E+02  0.51100000000E-03 0.  1.
    9900012    2    1    2    0    0 -0.20944222313E+02 -0.29426538719E+01  0.34725304564E+02  0.50528850511E+02  0.29999971613E+02 0.  0.
        -12    1    1    2    0    0  0.20944222313E+02  0.29426538719E+01 -0.34725304564E+02  0.40659149489E+02  0.00000000000E+00 0.  1.
         11    1    3    3    0    0 -0.13982595381E+02  0.78046168935E+01  0.18901676065E+02  0.24772936377E+02  0.51100000000E-03 0. -1.
        -11    1    3    3    0    0 -0.11203769701E+02 -0.37172078159E+01  0.70957326209E+01  0.13772854140E+02  0.51100000000E-03 0.  1.
        -12    1    3    3    0    0  0.42421427689E+01 -0.70300629495E+01  0.87278958786E+01  0.11983059994E+02  0.00000000000E+00 0.  1.
</event>
<event>
 7    1  0.2584640E-011  0.5052885E+02  0.7816164E-02  0.1300439E+00
        -11   -1    0    0    0    0  0.00000000000E+00  0.00000000000E+00  0.45593999997E+02  0.45594000000E+02  0.51100000000E-03 0.  1.
         11   -1    0    0    0    0 -0.00000000000E+00 -0.00000000000E+00 -0.45593999997E+02  0.45594000000E+02  0.51100000000E-03 0. -1.
    9900012    2    1    2    0    0 -0.24899039830E+02 -0.25565593569E+02 -0.19483437832E+02  0.50528854550E+02  0.29999983889E+02 0.  0.
        -12    1    1    2    0    0  0.24899039830E+02  0.25565593569E+02  0.19483437832E+02  0.40659145450E+02  0.00000000000E+00 0.  1.
         11    1    3    3    0    0 -0.13875228517E+02 -0.88068631825E+01 -0.20077455154E+02  0.25945847669E+02  0.51100000000E-03 0. -1.
        -11    1    3    3    0    0 -0.57106534518E+01 -0.10588837586E+02 -0.65963339021E+01  0.13720301216E+02  0.51100000000E-03 0.  1.
        -12    1    3    3    0    0 -0.53131578617E+01 -0.61698928004E+01  0.71903512240E+01  0.10862705665E+02  0.00000000000E+00 0.  1.
</event>
<event>
 7    1  0.2584640E-011  0.5052886E+02  0.7816164E-02  0.1300439E+00
        -11   -1    0    0    0    0  0.00000000000E+00  0.00000000000E+00  0.45593999997E+02  0.45594000000E+02  0.51100000000E-03 0. -1.
         11   -1    0    0    0    0 -0.00000000000E+00 -0.00000000000E+00 -0.45593999997E+02  0.45594000000E+02  0.51100000000E-03 0.  1.
    9900012    2    1    2    0    0  0.24221623899E+02  0.32588247480E+02 -0.21177152587E+01  0.50528860117E+02  0.30000000811E+02 0.  0.
        -12    1    1    2    0    0 -0.24221623899E+02 -0.32588247480E+02  0.21177152587E+01  0.40659139883E+02  0.00000000000E+00 0.  1.
         11    1    3    3    0    0  0.67938378943E+01  0.76741690663E+01 -0.41226859064E+01  0.11047427010E+02  0.51100000000E-03 0. -1.
        -11    1    3    3    0    0  0.70964187190E+01  0.23126591063E+02  0.10120632883E+02  0.26222615870E+02  0.51100000000E-03 0.  1.
         12    1    3    3    0    0  0.10331367285E+02  0.17874873506E+01 -0.81156622353E+01  0.13258817237E+02  0.00000000000E+00 0. -1.
</event>
<event>
 7    1  0.2584640E-011  0.5052888E+02  0.7816164E-02  0.1300439E+00
        -11   -1    0    0    0    0  0.00000000000E+00  0.00000000000E+00  0.45593999997E+02  0.45594000000E+02  0.51100000000E-03 0. -1.
         11   -1    0    0    0    0 -0.00000000000E+00 -0.00000000000E+00 -0.45593999997E+02  0.45594000000E+02  0.51100000000E-03 0.  1.
    9900012    2    1    2    0    0  0.33671835460E+02 -0.21673587702E+02 -0.70446593690E+01  0.50528878849E+02  0.30000057749E+02 0.  0.
        -12    1    1    2    0    0 -0.33671835460E+02  0.21673587702E+02  0.70446593690E+01  0.40659121151E+02  0.00000000000E+00 0.  1.
         11    1    3    3    0    0  0.52608353794E+01 -0.87566098215E+00  0.89360031173E+01  0.10406503881E+02  0.51100000000E-03 0. -1.
        -11    1    3    3    0    0  0.17939656338E+01 -0.10564869905E+01 -0.46586268579E+01  0.51026739969E+01  0.51100000000E-03 0.  1.
        -12    1    3    3    0    0  0.26617034447E+02 -0.19741439729E+02 -0.11322035628E+02  0.35019700971E+02  0.00000000000E+00 0.  1.
</event>
<event>
 7    1  0.2584640E-011  0.5052886E+02  0.7816164E-02  0.1300439E+00
        -11   -1    0    0    0    0  0.00000000000E+00  0.00000000000E+00  0.45593999997E+02  0.45594000000E+02  0.51100000000E-03 0.  1.
         11   -1    0    0    0    0 -0.00000000000E+00 -0.00000000000E+00 -0.45593999997E+02  0.45594000000E+02  0.51100000000E-03 0. -1.
    9900012    2    1    2    0    0  0.15326604934E+02 -0.27247391092E+02 -0.25996930030E+02  0.50528861899E+02  0.30000006228E+02 0.  0.
        -12    1    1    2    0    0 -0.15326604934E+02  0.27247391092E+02  0.25996930030E+02  0.40659138101E+02  0.00000000000E+00 0.  1.
         11    1    3    3    0    0  0.67199979682E+01 -0.38958495520E+01 -0.10243933997E+02  0.12855901385E+02  0.51100000000E-03 0. -1.
        -11    1    3    3    0    0  0.48326387448E+01 -0.23278391579E+02 -0.20649567149E+02  0.31490356229E+02  0.51100000000E-03 0.  1.
        -12    1    3    3    0    0  0.37739682212E+01 -0.73149960916E-01  0.48965711158E+01  0.61826042849E+01  0.00000000000E+00 0.  1.
</event>
<event>
 7    1  0.2584640E-011  0.5052886E+02  0.7816164E-02  0.1300439E+00
        -11   -1    0    0    0    0  0.00000000000E+00  0.00000000000E+00  0.45593999997E+02  0.45594000000E+02  0.51100000000E-03 0.  1.
         11   -1    0    0    0    0 -0.00000000000E+00 -0.00000000000E+00 -0.45593999997E+02  0.45594000000E+02  0.51100000000E-03 0. -1.
    9900012    2    1    2    0    0 -0.14668918303E+02  0.36195952187E+02 -0.11306715494E+02  0.50528856697E+02  0.29999990416E+02 0.  0.
        -12    1    1    2    0    0  0.14668918303E+02 -0.36195952187E+02  0.11306715494E+02  0.40659143303E+02  0.00000000000E+00 0.  1.
         11    1    3    3    0    0 -0.42278094535E+01 -0.30621848404E+01 -0.28511918625E+01  0.59481630836E+01  0.51100000000E-03 0. -1.
        -11    1    3    3    0    0 -0.14216369284E+01  0.13353237285E+02 -0.10540508036E+02  0.17071388563E+02  0.51100000000E-03 0.  1.
         12    1    3    3    0    0 -0.90194719211E+01  0.25904899742E+02  0.20849844047E+01  0.27509305051E+02  0.00000000000E+00 0. -1.
</event>
<event>
 7    1  0.2584640E-011  0.5052886E+02  0.7816164E-02  0.1300439E+00
        -11   -1    0    0    0    0  0.00000000000E+00  0.00000000000E+00  0.45593999997E+02  0.45594000000E+02  0.51100000000E-03 0. -1.
         11   -1    0    0    0    0 -0.00000000000E+00 -0.00000000000E+00 -0.45593999997E+02  0.45594000000E+02  0.51100000000E-03 0.  1.
    9900012    2    1    2    0    0  0.77108305739E+01  0.85212450403E+01  0.39001249027E+02  0.50528856492E+02  0.29999989793E+02 0.  0.
        -12    1    1    2    0    0 -0.77108305739E+01 -0.85212450403E+01 -0.39001249027E+02  0.40659143508E+02  0.00000000000E+00 0.  1.
         11    1    3    3    0    0  0.77106108070E+01 -0.24325104715E+01  0.18894091714E+01  0.83030412193E+01  0.51100000000E-03 0.  1.
        -11    1    3    3    0    0  0.57358912054E+01  0.51362874442E+00  0.39337246854E+01  0.69741273697E+01  0.51100000000E-03 0. -1.
        -12    1    3    3    0    0 -0.57356714385E+01  0.10440126767E+02  0.33178115170E+02  0.35251687903E+02  0.00000000000E+00 0.  1.
</event>
<event>
 7    1  0.2584640E-011  0.5052885E+02  0.7816164E-02  0.1300439E+00
        -11   -1    0    0    0    0  0.00000000000E+00  0.00000000000E+00  0.45593999997E+02  0.45594000000E+02  0.51100000000E-03 0. -1.
         11   -1    0    0    0    0 -0.00000000000E+00 -0.00000000000E+00 -0.45593999997E+02  0.45594000000E+02  0.51100000000E-03 0.  1.
    9900012    2    1    2    0    0  0.26361025394E+02  0.17327822513E+02  0.25651700702E+02  0.50528845536E+02  0.29999956491E+02 0.  0.
        -12    1    1    2    0    0 -0.26361025394E+02 -0.17327822513E+02 -0.25651700702E+02  0.40659154464E+02  0.00000000000E+00 0.  1.
         11    1    3    3    0    0  0.14916802050E+02 -0.47271912358E+01  0.71143074890E+01  0.17189260941E+02  0.51100000000E-03 0.  1.
        -11    1    3    3    0    0  0.25798428633E+01 -0.11734503541E+01  0.15796121817E+01  0.32446494169E+01  0.51100000000E-03 0. -1.
        -12    1    3    3    0    0  0.88643804798E+01  0.23228464103E+02  0.16957781031E+02  0.30094935178E+02  0.00000000000E+00 0.  1.
</event>
<event>
 7    1  0.2584640E-011  0.5052890E+02  0.7816164E-02  0.1300439E+00
        -11   -1    0    0    0    0  0.00000000000E+00  0.00000000000E+00  0.45593999997E+02  0.45594000000E+02  0.51100000000E-03 0.  1.
         11   -1    0    0    0    0 -0.00000000000E+00 -0.00000000000E+00 -0.45593999997E+02  0.45594000000E+02  0.51100000000E-03 0. -1.
    9900012    2    1    2    0    0 -0.91769295366E+01 -0.23139823168E+01 -0.39542276510E+02  0.50528902845E+02  0.30000130687E+02 0.  0.
        -12    1    1    2    0    0  0.91769295366E+01  0.23139823168E+01  0.39542276510E+02  0.40659097155E+02  0.00000000000E+00 0.  1.
         11    1    3    3    0    0 -0.65267227222E+01 -0.46438805691E+01 -0.55646661968E+01  0.97534222904E+01  0.51100000000E-03 0.  1.
        -11    1    3    3    0    0  0.35819784312E+01 -0.21099363626E+01  0.15472905525E+01  0.44358211473E+01  0.51100000000E-03 0. -1.
         12    1    3    3    0    0 -0.62321852456E+01  0.44398346148E+01 -0.35524900865E+02  0.36339659407E+02  0.00000000000E+00 0. -1.
</event>
<event>
 7    1  0.2584640E-011  0.5052887E+02  0.7816164E-02  0.1300439E+00
        -11   -1    0    0    0    0  0.00000000000E+00  0.00000000000E+00  0.45593999997E+02  0.45594000000E+02  0.51100000000E-03 0. -1.
         11   -1    0    0    0    0 -0.00000000000E+00 -0.00000000000E+00 -0.45593999997E+02  0.45594000000E+02  0.51100000000E-03 0.  1.
    9900012    2    1    2    0    0 -0.31627126784E+01 -0.37666354060E+02 -0.14980262077E+02  0.50528865337E+02  0.30000016679E+02 0.  0.
        -12    1    1    2    0    0  0.31627126784E+01  0.37666354060E+02  0.14980262077E+02  0.40659134663E+02  0.00000000000E+00 0.  1.
         11    1    3    3    0    0  0.41285121022E+00  0.53346543494E+00  0.40136103207E+01  0.40699016646E+01  0.51100000000E-03 0. -1.
        -11    1    3    3    0    0 -0.74515119880E+01 -0.15453466218E+02 -0.97707948422E+00  0.17183984801E+02  0.51100000000E-03 0.  1.
        -12    1    3    3    0    0  0.38759480995E+01 -0.22746353277E+02 -0.18016792913E+02  0.29274978872E+02  0.00000000000E+00 0.  1.
</event>
<event>
 7    1  0.2584640E-011  0.5052886E+02  0.7816164E-02  0.1300439E+00
        -11   -1    0    0    0    0  0.00000000000E+00  0.00000000000E+00  0.45593999997E+02  0.45594000000E+02  0.51100000000E-03 0.  1.
         11   -1    0    0    0    0 -0.00000000000E+00 -0.00000000000E+00 -0.45593999997E+02  0.45594000000E+02  0.51100000000E-03 0. -1.
    9900012    2    1    2    0    0  0.50389513951E+00  0.39155781566E+02 -0.10942423785E+02  0.50528858609E+02  0.29999996227E+02 0.  0.
        -12    1    1    2    0    0 -0.50389513951E+00 -0.39155781566E+02  0.10942423785E+02  0.40659141391E+02  0.00000000000E+00 0.  1.
         11    1    3    3    0    0 -0.67506113132E-01  0.20900378211E+02 -0.11225478781E+02  0.23724285881E+02  0.51100000000E-03 0. -1.
        -11    1    3    3    0    0 -0.75681238584E+01  0.16742054828E+02 -0.11210887080E+01  0.18407328398E+02  0.51100000000E-03 0.  1.
        -12    1    3    3    0    0  0.81395251111E+01  0.15133485282E+01  0.14041437037E+01  0.83972443303E+01  0.00000000000E+00 0.  1.
</event>
<event>
 7    1  0.2584640E-011  0.5052885E+02  0.7816164E-02  0.1300439E+00
        -11   -1    0    0    0    0  0.00000000000E+00  0.00000000000E+00  0.45593999997E+02  0.45594000000E+02  0.51100000000E-03 0.  1.
         11   -1    0    0    0    0 -0.00000000000E+00 -0.00000000000E+00 -0.45593999997E+02  0.45594000000E+02  0.51100000000E-03 0. -1.
    9900012    2    1    2    0    0 -0.68589015155E+00 -0.39797338983E+02  0.82986412143E+01  0.50528854885E+02  0.29999984910E+02 0.  0.
        -12    1    1    2    0    0  0.68589015155E+00  0.39797338983E+02 -0.82986412143E+01  0.40659145115E+02  0.00000000000E+00 0.  1.
         11    1    3    3    0    0  0.22176355057E+00 -0.12690592274E+02 -0.63281427472E+01  0.14182584469E+02  0.51100000000E-03 0. -1.
        -11    1    3    3    0    0  0.41863752474E+01  0.13204771026E+01  0.21099191263E+01  0.48704369898E+01  0.51100000000E-03 0.  1.
        -12    1    3    3    0    0 -0.50940289495E+01 -0.28427223812E+02  0.12516864835E+02  0.31475833427E+02  0.00000000000E+00 0.  1.
</event>
<event>
 7    1  0.2584640E-011  0.5052886E+02  0.7816164E-02  0.1300439E+00
        -11   -1    0    0    0    0  0.00000000000E+00  0.00000000000E+00  0.45593999997E+02  0.45594000000E+02  0.51100000000E-03 0. -1.
         11   -1    0    0    0    0 -0.00000000000E+00 -0.00000000000E+00 -0.45593999997E+02  0.45594000000E+02  0.51100000000E-03 0.  1.
    9900012    2    1    2    0    0  0.47720772959E+01  0.28217679844E+02  0.28881753360E+02  0.50528857674E+02  0.29999993387E+02 0.  0.
        -12    1    1    2    0    0 -0.47720772959E+01 -0.28217679844E+02 -0.28881753360E+02  0.40659142326E+02  0.00000000000E+00 0.  1.
         11    1    3    3    0    0  0.21370097491E+01  0.80374927030E+01  0.16234215533E+02  0.18240555196E+02  0.51100000000E-03 0. -1.
        -11    1    3    3    0    0  0.87199184195E+01  0.12216237969E+00  0.43442791851E+01  0.97429288609E+01  0.51100000000E-03 0.  1.
        -12    1    3    3    0    0 -0.60848508727E+01  0.20058024762E+02  0.83032586418E+01  0.22545373618E+02  0.00000000000E+00 0.  1.
</event>
<event>
 7    1  0.2584640E-011  0.5052885E+02  0.7816164E-02  0.1300439E+00
        -11   -1    0    0    0    0  0.00000000000E+00  0.00000000000E+00  0.45593999997E+02  0.45594000000E+02  0.51100000000E-03 0.  1.
         11   -1    0    0    0    0 -0.00000000000E+00 -0.00000000000E+00 -0.45593999997E+02  0.45594000000E+02  0.51100000000E-03 0. -1.
    9900012    2    1    2    0    0  0.33193103601E+01 -0.39759998451E+01 -0.40327903441E+02  0.50528853526E+02  0.29999980778E+02 0.  0.
        -12    1    1    2    0    0 -0.33193103601E+01  0.39759998451E+01  0.40327903441E+02  0.40659146474E+02  0.00000000000E+00 0.  1.
         11    1    3    3    0    0  0.56035995749E+01 -0.36825905847E+01 -0.39297027975E+02  0.39864999806E+02  0.51100000000E-03 0. -1.
        -11    1    3    3    0    0  0.10886130395E+01  0.39162528170E+01 -0.28576111984E+01  0.49687077293E+01  0.51100000000E-03 0.  1.
        -12    1    3    3    0    0 -0.33729022543E+01 -0.42096620774E+01  0.18267357324E+01  0.56951459910E+01  0.00000000000E+00 0.  1.
</event>
<event>
 7    1  0.2584640E-011  0.5052887E+02  0.7816164E-02  0.1300439E+00
        -11   -1    0    0    0    0  0.00000000000E+00  0.00000000000E+00  0.45593999997E+02  0.45594000000E+02  0.51100000000E-03 0. -1.
         11   -1    0    0    0    0 -0.00000000000E+00 -0.00000000000E+00 -0.45593999997E+02  0.45594000000E+02  0.51100000000E-03 0.  1.
    9900012    2    1    2    0    0 -0.34605295973E+02 -0.27146913740E+01  0.21172352757E+02  0.50528873350E+02  0.30000041036E+02 0.  0.
        -12    1    1    2    0    0  0.34605295973E+02  0.27146913740E+01 -0.21172352757E+02  0.40659126650E+02  0.00000000000E+00 0.  1.
         11    1    3    3    0    0 -0.79909241386E+01  0.35635840578E+01  0.48932255970E+01  0.10024851965E+02  0.51100000000E-03 0. -1.
        -11    1    3    3    0    0 -0.24931472502E+02 -0.89230262199E+01  0.21704157089E+02  0.34238416337E+02  0.51100000000E-03 0.  1.
        -12    1    3    3    0    0 -0.16828993319E+01  0.26447507881E+01 -0.54250299285E+01  0.62656050480E+01  0.00000000000E+00 0.  1.
</event>
<event>
 7    1  0.2584640E-011  0.5052889E+02  0.7816164E-02  0.1300439E+00
        -11   -1    0    0    0    0  0.00000000000E+00  0.00000000000E+00  0.45593999997E+02  0.45594000000E+02  0.51100000000E-03 0. -1.
         11   -1    0    0    0    0 -0.00000000000E+00 -0.00000000000E+00 -0.45593999997E+02  0.45594000000E+02  0.51100000000E-03 0.  1.
    9900012    2    1    2    0    0 -0.32297835284E+02  0.21723786418E+02 -0.11751183029E+02  0.50528888316E+02  0.30000086525E+02 0.  0.
        -12    1    1    2    0    0  0.32297835284E+02 -0.21723786418E+02  0.11751183029E+02  0.40659111684E+02  0.00000000000E+00 0.  1.
         11    1    3    3    0    0  0.15812908400E+01 -0.54499754215E+00 -0.26771322932E+00  0.16938635352E+01  0.51100000000E-03 0. -1.
        -11    1    3    3    0    0 -0.20656350431E+02 -0.12042381144E-01 -0.41430762327E+00  0.20660508445E+02  0.51100000000E-03 0.  1.
         12    1    3    3    0    0 -0.13222775693E+02  0.22280826342E+02 -0.11069162176E+02  0.28174516336E+02  0.00000000000E+00 0. -1.
</event>
<event>
 7    1  0.2584640E-011  0.5052886E+02  0.7816164E-02  0.1300439E+00
        -11   -1    0    0    0    0  0.00000000000E+00  0.00000000000E+00  0.45593999997E+02  0.45594000000E+02  0.51100000000E-03 0.  1.
         11   -1    0    0    0    0 -0.00000000000E+00 -0.00000000000E+00 -0.45593999997E+02  0.45594000000E+02  0.51100000000E-03 0. -1.
    9900012    2    1    2    0    0 -0.64821076101E+01  0.35511533208E+02 -0.18710395956E+02  0.50528860478E+02  0.30000001909E+02 0.  0.
        -12    1    1    2    0    0  0.64821076101E+01 -0.35511533208E+02  0.18710395956E+02  0.40659139522E+02  0.00000000000E+00 0.  1.
         11    1    3    3    0    0 -0.11733246789E+01  0.15846117687E+02 -0.11797192215E+02  0.19790146057E+02  0.51100000000E-03 0. -1.
        -11    1    3    3    0    0  0.83623405908E+01  0.10764366561E+02 -0.28177716214E+01  0.13919057611E+02  0.51100000000E-03 0.  1.
        -12    1    3    3    0    0 -0.13671123522E+02  0.89010489604E+01 -0.40954321196E+01  0.16819656810E+02  0.00000000000E+00 0.  1.
</event>
<event>
 7    1  0.2584640E-011  0.5052885E+02  0.7816164E-02  0.1300439E+00
        -11   -1    0    0    0    0  0.00000000000E+00  0.00000000000E+00  0.45593999997E+02  0.45594000000E+02  0.51100000000E-03 0. -1.
         11   -1    0    0    0    0 -0.00000000000E+00 -0.00000000000E+00 -0.45593999997E+02  0.45594000000E+02  0.51100000000E-03 0.  1.
    9900012    2    1    2    0    0  0.24784292359E+02  0.28881844957E+02  0.14308888807E+02  0.50528850787E+02  0.29999972451E+02 0.  0.
        -12    1    1    2    0    0 -0.24784292359E+02 -0.28881844957E+02 -0.14308888807E+02  0.40659149213E+02  0.00000000000E+00 0.  1.
         11    1    3    3    0    0  0.12548373497E+02  0.14352465696E+02  0.12642029677E+02  0.22875223793E+02  0.51100000000E-03 0. -1.
        -11    1    3    3    0    0 -0.10553499655E+01  0.78312156999E+01  0.82102013880E+01  0.11395135365E+02  0.51100000000E-03 0.  1.
         12    1    3    3    0    0  0.13291268827E+02  0.66981635611E+01 -0.65433422578E+01  0.16258491629E+02  0.00000000000E+00 0. -1.
</event>
<event>
 7    1  0.2584640E-011  0.5052894E+02  0.7816164E-02  0.1300439E+00
        -11   -1    0    0    0    0  0.00000000000E+00  0.00000000000E+00  0.45593999997E+02  0.45594000000E+02  0.51100000000E-03 0. -1.
         11   -1    0    0    0    0 -0.00000000000E+00 -0.00000000000E+00 -0.45593999997E+02  0.45594000000E+02  0.51100000000E-03 0.  1.
    9900012    2    1    2    0    0 -0.30883930075E+02 -0.17108330222E+02  0.20165491841E+02  0.50528939988E+02  0.30000243586E+02 0.  0.
        -12    1    1    2    0    0  0.30883930075E+02  0.17108330222E+02 -0.20165491841E+02  0.40659060012E+02  0.00000000000E+00 0.  1.
         11    1    3    3    0    0 -0.19388139403E+01  0.20180871973E+01  0.72699939892E+01  0.77900249226E+01  0.51100000000E-03 0. -1.
        -11    1    3    3    0    0  0.35597116812E+00 -0.86374672358E+01 -0.90972673759E+00  0.86925346545E+01  0.51100000000E-03 0.  1.
        -12    1    3    3    0    0 -0.29301087303E+02 -0.10488950184E+02  0.13805224589E+02  0.34046380411E+02  0.00000000000E+00 0.  1.
</event>
<event>
 7    1  0.2584640E-011  0.5052887E+02  0.7816164E-02  0.1300439E+00
        -11   -1    0    0    0    0  0.00000000000E+00  0.00000000000E+00  0.45593999997E+02  0.45594000000E+02  0.51100000000E-03 0.  1.
         11   -1    0    0    0    0 -0.00000000000E+00 -0.00000000000E+00 -0.45593999997E+02  0.45594000000E+02  0.51100000000E-03 0. -1.
    9900012    2    1    2    0    0 -0.33564285690E+02  0.11016862263E+02  0.20130385038E+02  0.50528869048E+02  0.30000027957E+02 0.  0.
        -12    1    1    2    0    0  0.33564285690E+02 -0.11016862263E+02 -0.20130385038E+02  0.40659130952E+02  0.00000000000E+00 0.  1.
         11    1    3    3    0    0  0.37084216800E+01  0.47732046661E+01  0.44391167195E+01  0.74994420894E+01  0.51100000000E-03 0. -1.
        -11    1    3    3    0    0  0.51122334436E+00 -0.25263043731E+00  0.23778416016E+01  0.24452612108E+01  0.51100000000E-03 0.  1.
         12    1    3    3    0    0 -0.37783930715E+02  0.64962880340E+01  0.13313426717E+02  0.40584165748E+02  0.00000000000E+00 0. -1.
</event>
<event>
 7    1  0.2584640E-011  0.5052886E+02  0.7816164E-02  0.1300439E+00
        -11   -1    0    0    0    0  0.00000000000E+00  0.00000000000E+00  0.45593999997E+02  0.45594000000E+02  0.51100000000E-03 0.  1.
         11   -1    0    0    0    0 -0.00000000000E+00 -0.00000000000E+00 -0.45593999997E+02  0.45594000000E+02  0.51100000000E-03 0. -1.
    9900012    2    1    2    0    0  0.33470939999E+02 -0.17441277545E+02 -0.15121642567E+02  0.50528855140E+02  0.29999985684E+02 0.  0.
        -12    1    1    2    0    0 -0.33470939999E+02  0.17441277545E+02  0.15121642567E+02  0.40659144860E+02  0.00000000000E+00 0.  1.
         11    1    3    3    0    0  0.58495270535E+01 -0.15799586073E+01 -0.62966759819E+01  0.87384989920E+01  0.51100000000E-03 0. -1.
        -11    1    3    3    0    0  0.28511500505E+02 -0.20974145876E+02 -0.92480187741E+01  0.36583415748E+02  0.51100000000E-03 0.  1.
        -12    1    3    3    0    0 -0.89008755977E+00  0.51128269390E+01  0.42305218891E+00  0.52069403997E+01  0.00000000000E+00 0.  1.
</event>
<event>
 7    1  0.2584640E-011  0.5052888E+02  0.7816164E-02  0.1300439E+00
        -11   -1    0    0    0    0  0.00000000000E+00  0.00000000000E+00  0.45593999997E+02  0.45594000000E+02  0.51100000000E-03 0.  1.
         11   -1    0    0    0    0 -0.00000000000E+00 -0.00000000000E+00 -0.45593999997E+02  0.45594000000E+02  0.51100000000E-03 0. -1.
    9900012    2    1    2    0    0 -0.15021647924E+02 -0.40418317860E+01 -0.37565648419E+02  0.50528877386E+02  0.30000053304E+02 0.  0.
        -12    1    1    2    0    0  0.15021647924E+02  0.40418317860E+01  0.37565648419E+02  0.40659122614E+02  0.00000000000E+00 0.  1.
         11    1    3    3    0    0  0.29266621925E+00  0.33248767817E+00 -0.10264619439E+02  0.10274172184E+02  0.51100000000E-03 0. -1.
        -11    1    3    3    0    0  0.25276010132E+01 -0.10225431021E+02 -0.72663163361E+01  0.12796388546E+02  0.51100000000E-03 0.  1.
         12    1    3    3    0    0 -0.17841915156E+02  0.58511115571E+01 -0.20034712644E+02  0.27458316657E+02  0.00000000000E+00 0. -1.
</event>
<event>
 7    1  0.2584640E-011  0.5052886E+02  0.7816164E-02  0.1300439E+00
        -11   -1    0    0    0    0  0.00000000000E+00  0.00000000000E+00  0.45593999997E+02  0.45594000000E+02  0.51100000000E-03 0. -1.
         11   -1    0    0    0    0 -0.00000000000E+00 -0.00000000000E+00 -0.45593999997E+02  0.45594000000E+02  0.51100000000E-03 0.  1.
    9900012    2    1    2    0    0  0.50891722310E+01 -0.34669405891E+02  0.20622755487E+02  0.50528862986E+02  0.30000009533E+02 0.  0.
        -12    1    1    2    0    0 -0.50891722310E+01  0.34669405891E+02 -0.20622755487E+02  0.40659137014E+02  0.00000000000E+00 0.  1.
         11    1    3    3    0    0 -0.66736345119E+01 -0.19625050709E+02  0.20623540721E+02  0.29240561641E+02  0.51100000000E-03 0. -1.
        -11    1    3    3    0    0  0.46025158408E+01 -0.38360814825E+01  0.42267485527E+01  0.73323991158E+01  0.51100000000E-03 0.  1.
        -12    1    3    3    0    0  0.71602909021E+01 -0.11208273699E+02 -0.42275337872E+01  0.13955902229E+02  0.00000000000E+00 0.  1.
</event>
<event>
 7    1  0.2584640E-011  0.5052886E+02  0.7816164E-02  0.1300439E+00
        -11   -1    0    0    0    0  0.00000000000E+00  0.00000000000E+00  0.45593999997E+02  0.45594000000E+02  0.51100000000E-03 0.  1.
         11   -1    0    0    0    0 -0.00000000000E+00 -0.00000000000E+00 -0.45593999997E+02  0.45594000000E+02  0.51100000000E-03 0. -1.
    9900012    2    1    2    0    0  0.91545065430E+01 -0.23754204049E+02 -0.31703285785E+02  0.50528861671E+02  0.30000005535E+02 0.  0.
        -12    1    1    2    0    0 -0.91545065430E+01  0.23754204049E+02  0.31703285785E+02  0.40659138329E+02  0.00000000000E+00 0.  1.
         11    1    3    3    0    0  0.79819122128E+01 -0.20680184268E+02 -0.27473252675E+02  0.35300999373E+02  0.51100000000E-03 0. -1.
        -11    1    3    3    0    0  0.51914000756E+01  0.83479340372E+00 -0.71748528091E+01  0.88952812134E+01  0.51100000000E-03 0.  1.
         12    1    3    3    0    0 -0.40188057454E+01 -0.39088131846E+01  0.29448196988E+01  0.63325810843E+01  0.00000000000E+00 0. -1.
</event>
<event>
 7    1  0.2584640E-011  0.5052886E+02  0.7816164E-02  0.1300439E+00
        -11   -1    0    0    0    0  0.00000000000E+00  0.00000000000E+00  0.45593999997E+02  0.45594000000E+02  0.51100000000E-03 0.  1.
         11   -1    0    0    0    0 -0.00000000000E+00 -0.00000000000E+00 -0.45593999997E+02  0.45594000000E+02  0.51100000000E-03 0. -1.
    9900012    2    1    2    0    0 -0.21713067858E+02  0.19484765918E+00 -0.34375434704E+02  0.50528858439E+02  0.29999995711E+02 0.  0.
        -12    1    1    2    0    0  0.21713067858E+02 -0.19484765918E+00  0.34375434704E+02  0.40659141561E+02  0.00000000000E+00 0.  1.
         11    1    3    3    0    0 -0.19970143923E+02 -0.56903426730E+01 -0.27869118103E+02  0.34754487367E+02  0.51100000000E-03 0. -1.
        -11    1    3    3    0    0 -0.53720960381E+01  0.16775704281E+01  0.16863389637E+01  0.58751508700E+01  0.51100000000E-03 0.  1.
        -12    1    3    3    0    0  0.36291721030E+01  0.42076199041E+01 -0.81926555646E+01  0.98992202022E+01  0.00000000000E+00 0.  1.
</event>
<event>
 7    1  0.2584640E-011  0.5052887E+02  0.7816164E-02  0.1300439E+00
        -11   -1    0    0    0    0  0.00000000000E+00  0.00000000000E+00  0.45593999997E+02  0.45594000000E+02  0.51100000000E-03 0.  1.
         11   -1    0    0    0    0 -0.00000000000E+00 -0.00000000000E+00 -0.45593999997E+02  0.45594000000E+02  0.51100000000E-03 0. -1.
    9900012    2    1    2    0    0  0.40531700649E+02  0.28884376950E+01 -0.14152076361E+01  0.50528872581E+02  0.30000038698E+02 0.  0.
        -12    1    1    2    0    0 -0.40531700649E+02 -0.28884376950E+01  0.14152076361E+01  0.40659127419E+02  0.00000000000E+00 0.  1.
         11    1    3    3    0    0  0.16062316190E+02 -0.86297751310E+01 -0.87765976024E+00  0.18254898167E+02  0.51100000000E-03 0. -1.
        -11    1    3    3    0    0  0.34043325925E+01 -0.16334455290E+00  0.63625481070E+01  0.72179069347E+01  0.51100000000E-03 0.  1.
         12    1    3    3    0    0  0.21065051867E+02  0.11681557379E+02 -0.69000959828E+01  0.25056067479E+02  0.00000000000E+00 0. -1.
</event>
<event>
 7    1  0.2584640E-011  0.5052885E+02  0.7816164E-02  0.1300439E+00
        -11   -1    0    0    0    0  0.00000000000E+00  0.00000000000E+00  0.45593999997E+02  0.45594000000E+02  0.51100000000E-03 0.  1.
         11   -1    0    0    0    0 -0.00000000000E+00 -0.00000000000E+00 -0.45593999997E+02  0.45594000000E+02  0.51100000000E-03 0. -1.
    9900012    2    1    2    0    0  0.12258368028E+02 -0.79990409735E+01 -0.37933023929E+02  0.50528849153E+02  0.29999967486E+02 0.  0.
        -12    1    1    2    0    0 -0.12258368028E+02  0.79990409735E+01  0.37933023929E+02  0.40659150847E+02  0.00000000000E+00 0.  1.
         11    1    3    3    0    0  0.17622725442E+01  0.16024434429E+01 -0.55637004226E+01  0.60521229467E+01  0.51100000000E-03 0. -1.
        -11    1    3    3    0    0  0.16644926633E+02 -0.11144633882E+02 -0.12478777956E+02  0.23600346322E+02  0.51100000000E-03 0.  1.
        -12    1    3    3    0    0 -0.61488311495E+01  0.15431494653E+01 -0.19890545551E+02  0.20876379884E+02  0.00000000000E+00 0.  1.
</event>
<event>
 7    1  0.2584640E-011  0.5052886E+02  0.7816164E-02  0.1300439E+00
        -11   -1    0    0    0    0  0.00000000000E+00  0.00000000000E+00  0.45593999997E+02  0.45594000000E+02  0.51100000000E-03 0.  1.
         11   -1    0    0    0    0 -0.00000000000E+00 -0.00000000000E+00 -0.45593999997E+02  0.45594000000E+02  0.51100000000E-03 0. -1.
    9900012    2    1    2    0    0 -0.38040690969E+02  0.86450300428E+01 -0.11460151289E+02  0.50528858575E+02  0.29999996126E+02 0.  0.
        -12    1    1    2    0    0  0.38040690969E+02 -0.86450300428E+01  0.11460151289E+02  0.40659141425E+02  0.00000000000E+00 0.  1.
         11    1    3    3    0    0 -0.83517832725E+01  0.24063903727E+01  0.83930632469E+01  0.12082487715E+02  0.51100000000E-03 0. -1.
        -11    1    3    3    0    0  0.94609412780E+00  0.10341749339E+01 -0.24717961315E+01  0.28415468093E+01  0.51100000000E-03 0.  1.
         12    1    3    3    0    0 -0.30635001824E+02  0.52044647361E+01 -0.17381418405E+02  0.35604824051E+02  0.00000000000E+00 0. -1.
</event>
<event>
 7    1  0.2584640E-011  0.5052886E+02  0.7816164E-02  0.1300439E+00
        -11   -1    0    0    0    0  0.00000000000E+00  0.00000000000E+00  0.45593999997E+02  0.45594000000E+02  0.51100000000E-03 0.  1.
         11   -1    0    0    0    0 -0.00000000000E+00 -0.00000000000E+00 -0.45593999997E+02  0.45594000000E+02  0.51100000000E-03 0. -1.
    9900012    2    1    2    0    0 -0.26438243087E+02  0.26906736737E+02 -0.15172758273E+02  0.50528858679E+02  0.29999996441E+02 0.  0.
        -12    1    1    2    0    0  0.26438243087E+02 -0.26906736737E+02  0.15172758273E+02  0.40659141321E+02  0.00000000000E+00 0.  1.
         11    1    3    3    0    0  0.19517997235E+00  0.17178338121E+02 -0.70997772222E+00  0.17194111331E+02  0.51100000000E-03 0. -1.
        -11    1    3    3    0    0 -0.14998072332E+02  0.10194441589E+02 -0.66669571893E+01  0.19321416392E+02  0.51100000000E-03 0.  1.
        -12    1    3    3    0    0 -0.11635350728E+02 -0.46604297307E+00 -0.77958233611E+01  0.14013330956E+02  0.00000000000E+00 0.  1.
</event>
<event>
 7    1  0.2584640E-011  0.5052887E+02  0.7816164E-02  0.1300439E+00
        -11   -1    0    0    0    0  0.00000000000E+00  0.00000000000E+00  0.45593999997E+02  0.45594000000E+02  0.51100000000E-03 0.  1.
         11   -1    0    0    0    0 -0.00000000000E+00 -0.00000000000E+00 -0.45593999997E+02  0.45594000000E+02  0.51100000000E-03 0. -1.
    9900012    2    1    2    0    0 -0.29936794547E+02 -0.27191512675E+02 -0.41922573285E+01  0.50528867559E+02  0.30000023432E+02 0.  0.
        -12    1    1    2    0    0  0.29936794547E+02  0.27191512675E+02  0.41922573285E+01  0.40659132441E+02  0.00000000000E+00 0.  1.
         11    1    3    3    0    0 -0.11929497583E+02 -0.18448564154E+01  0.12099308343E+01  0.12131790496E+02  0.51100000000E-03 0. -1.
        -11    1    3    3    0    0  0.32340413639E+00 -0.30687706133E+01  0.64946583488E+01  0.71904471795E+01  0.51100000000E-03 0.  1.
         12    1    3    3    0    0 -0.18330701101E+02 -0.22277885647E+02 -0.11896846512E+02  0.31206629883E+02  0.00000000000E+00 0. -1.
</event>
<event>
 7    1  0.2584640E-011  0.5052883E+02  0.7816164E-02  0.1300439E+00
        -11   -1    0    0    0    0  0.00000000000E+00  0.00000000000E+00  0.45593999997E+02  0.45594000000E+02  0.51100000000E-03 0.  1.
         11   -1    0    0    0    0 -0.00000000000E+00 -0.00000000000E+00 -0.45593999997E+02  0.45594000000E+02  0.51100000000E-03 0. -1.
    9900012    2    1    2    0    0 -0.36332813149E+02  0.17232025434E+02  0.60126286578E+01  0.50528834794E+02  0.29999923840E+02 0.  0.
        -12    1    1    2    0    0  0.36332813149E+02 -0.17232025434E+02 -0.60126286578E+01  0.40659165206E+02  0.00000000000E+00 0.  1.
         11    1    3    3    0    0  0.55669426131E+00  0.42778116342E+01 -0.22322702289E+01  0.48572226132E+01  0.51100000000E-03 0. -1.
        -11    1    3    3    0    0 -0.23872676540E+02  0.10661100204E+01  0.13279346319E+02  0.27338293924E+02  0.51100000000E-03 0.  1.
         12    1    3    3    0    0 -0.13016830870E+02  0.11888103779E+02 -0.50344474319E+01  0.18333318257E+02  0.00000000000E+00 0. -1.
</event>
<event>
 7    1  0.2584640E-011  0.5052887E+02  0.7816164E-02  0.1300439E+00
        -11   -1    0    0    0    0  0.00000000000E+00  0.00000000000E+00  0.45593999997E+02  0.45594000000E+02  0.51100000000E-03 0. -1.
         11   -1    0    0    0    0 -0.00000000000E+00 -0.00000000000E+00 -0.45593999997E+02  0.45594000000E+02  0.51100000000E-03 0.  1.
    9900012    2    1    2    0    0  0.70260645534E+01  0.36504424797E+02  0.16468945448E+02  0.50528870926E+02  0.30000033667E+02 0.  0.
        -12    1    1    2    0    0 -0.70260645534E+01 -0.36504424797E+02 -0.16468945448E+02  0.40659129074E+02  0.00000000000E+00 0.  1.
         11    1    3    3    0    0  0.30761860644E+01  0.41101708198E+01  0.80729437203E+01  0.95670708915E+01  0.51100000000E-03 0. -1.
        -11    1    3    3    0    0 -0.16851372782E+01 -0.99371086254E+00 -0.43598435306E+01  0.47786383832E+01  0.51100000000E-03 0.  1.
         12    1    3    3    0    0  0.56350157673E+01  0.33387964840E+02  0.12755845259E+02  0.36183161651E+02  0.00000000000E+00 0. -1.
</event>
<event>
 7    1  0.2584640E-011  0.5052887E+02  0.7816164E-02  0.1300439E+00
        -11   -1    0    0    0    0  0.00000000000E+00  0.00000000000E+00  0.45593999997E+02  0.45594000000E+02  0.51100000000E-03 0. -1.
         11   -1    0    0    0    0 -0.00000000000E+00 -0.00000000000E+00 -0.45593999997E+02  0.45594000000E+02  0.51100000000E-03 0.  1.
    9900012    2    1    2    0    0  0.36937331128E+02  0.15185287575E+02  0.76292588270E+01  0.50528868432E+02  0.30000026085E+02 0.  0.
        -12    1    1    2    0    0 -0.36937331128E+02 -0.15185287575E+02 -0.76292588270E+01  0.40659131568E+02  0.00000000000E+00 0.  1.
         11    1    3    3    0    0  0.25440014024E+02  0.22990944559E+01  0.11029841532E+02  0.27823327503E+02  0.51100000000E-03 0. -1.
        -11    1    3    3    0    0  0.13684269827E+02  0.72717177845E+01  0.54041735092E+00  0.15505778646E+02  0.51100000000E-03 0.  1.
         12    1    3    3    0    0 -0.21869527227E+01  0.56144753348E+01 -0.39410000556E+01  0.71997622832E+01  0.00000000000E+00 0. -1.
</event>
<event>
 7    1  0.2584640E-011  0.5052887E+02  0.7816164E-02  0.1300439E+00
        -11   -1    0    0    0    0  0.00000000000E+00  0.00000000000E+00  0.45593999997E+02  0.45594000000E+02  0.51100000000E-03 0.  1.
         11   -1    0    0    0    0 -0.00000000000E+00 -0.00000000000E+00 -0.45593999997E+02  0.45594000000E+02  0.51100000000E-03 0. -1.
    9900012    2    1    2    0    0 -0.12684846924E+02 -0.44484941427E+01 -0.38372779215E+02  0.50528872780E+02  0.30000039303E+02 0.  0.
        -12    1    1    2    0    0  0.12684846924E+02  0.44484941427E+01  0.38372779215E+02  0.40659127220E+02  0.00000000000E+00 0.  1.
         11    1    3    3    0    0  0.21418303614E+01 -0.12984138224E+01 -0.15128138483E+02  0.15334076104E+02  0.51100000000E-03 0. -1.
        -11    1    3    3    0    0 -0.95428010620E+01 -0.10304208579E+02 -0.22159200575E+02  0.26234937335E+02  0.51100000000E-03 0.  1.
         12    1    3    3    0    0 -0.52838762232E+01  0.71541282586E+01 -0.10854401563E+01  0.89598593413E+01  0.00000000000E+00 0. -1.
</event>
<event>
 7    1  0.2584640E-011  0.5052886E+02  0.7816164E-02  0.1300439E+00
        -11   -1    0    0    0    0  0.00000000000E+00  0.00000000000E+00  0.45593999997E+02  0.45594000000E+02  0.51100000000E-03 0. -1.
         11   -1    0    0    0    0 -0.00000000000E+00 -0.00000000000E+00 -0.45593999997E+02  0.45594000000E+02  0.51100000000E-03 0.  1.
    9900012    2    1    2    0    0 -0.79168677074E+01 -0.38374044480E+02  0.10859170000E+02  0.50528860103E+02  0.30000000769E+02 0.  0.
        -12    1    1    2    0    0  0.79168677074E+01  0.38374044480E+02 -0.10859170000E+02  0.40659139897E+02  0.00000000000E+00 0.  1.
         11    1    3    3    0    0  0.42292002389E+01 -0.27931289096E+02 -0.11189926449E+01  0.28271809104E+02  0.51100000000E-03 0. -1.
        -11    1    3    3    0    0  0.13196274724E+01 -0.13415313253E+01  0.33834854491E+01  0.38715755201E+01  0.51100000000E-03 0.  1.
         12    1    3    3    0    0 -0.13465695419E+02 -0.91012240595E+01  0.85946771961E+01  0.18385475479E+02  0.00000000000E+00 0. -1.
</event>
<event>
 7    1  0.2584640E-011  0.5052885E+02  0.7816164E-02  0.1300439E+00
        -11   -1    0    0    0    0  0.00000000000E+00  0.00000000000E+00  0.45593999997E+02  0.45594000000E+02  0.51100000000E-03 0.  1.
         11   -1    0    0    0    0 -0.00000000000E+00 -0.00000000000E+00 -0.45593999997E+02  0.45594000000E+02  0.51100000000E-03 0. -1.
    9900012    2    1    2    0    0 -0.28787213816E+02 -0.75697756363E+01 -0.27697678283E+02  0.50528848942E+02  0.29999966844E+02 0.  0.
        -12    1    1    2    0    0  0.28787213816E+02  0.75697756363E+01  0.27697678283E+02  0.40659151058E+02  0.00000000000E+00 0.  1.
         11    1    3    3    0    0 -0.11896079722E+02  0.77516809535E+01 -0.72839517290E+01  0.15958108391E+02  0.51100000000E-03 0. -1.
        -11    1    3    3    0    0  0.12839195461E+01  0.12103990518E-02  0.16816922976E+01  0.21157835690E+01  0.51100000000E-03 0.  1.
         12    1    3    3    0    0 -0.18175053640E+02 -0.15322666989E+02 -0.22095418852E+02  0.32454956982E+02  0.00000000000E+00 0. -1.
</event>
<event>
 7    1  0.2584640E-011  0.5052886E+02  0.7816164E-02  0.1300439E+00
        -11   -1    0    0    0    0  0.00000000000E+00  0.00000000000E+00  0.45593999997E+02  0.45594000000E+02  0.51100000000E-03 0.  1.
         11   -1    0    0    0    0 -0.00000000000E+00 -0.00000000000E+00 -0.45593999997E+02  0.45594000000E+02  0.51100000000E-03 0. -1.
    9900012    2    1    2    0    0 -0.11807057049E+02 -0.11324617778E+02 -0.37222471272E+02  0.50528856729E+02  0.29999990514E+02 0.  0.
        -12    1    1    2    0    0  0.11807057049E+02  0.11324617778E+02  0.37222471272E+02  0.40659143271E+02  0.00000000000E+00 0.  1.
         11    1    3    3    0    0 -0.15643774051E+01 -0.17615396417E+01 -0.57029021983E+01  0.61703640346E+01  0.51100000000E-03 0. -1.
        -11    1    3    3    0    0 -0.11722352652E+02 -0.29052988794E+01 -0.34766803580E+02  0.36804686450E+02  0.51100000000E-03 0.  1.
        -12    1    3    3    0    0  0.14796730080E+01 -0.66577792565E+01  0.32472345065E+01  0.75538062444E+01  0.00000000000E+00 0.  1.
</event>
<event>
 7    1  0.2584640E-011  0.5052886E+02  0.7816164E-02  0.1300439E+00
        -11   -1    0    0    0    0  0.00000000000E+00  0.00000000000E+00  0.45593999997E+02  0.45594000000E+02  0.51100000000E-03 0.  1.
         11   -1    0    0    0    0 -0.00000000000E+00 -0.00000000000E+00 -0.45593999997E+02  0.45594000000E+02  0.51100000000E-03 0. -1.
    9900012    2    1    2    0    0 -0.21003423363E+02 -0.34000465058E+02 -0.74826590128E+01  0.50528860769E+02  0.30000002793E+02 0.  0.
        -12    1    1    2    0    0  0.21003423363E+02  0.34000465058E+02  0.74826590128E+01  0.40659139231E+02  0.00000000000E+00 0.  1.
         11    1    3    3    0    0 -0.90306763314E+01 -0.82767107913E+01  0.15445822952E+01  0.12346772503E+02  0.51100000000E-03 0. -1.
        -11    1    3    3    0    0 -0.13741723553E+02 -0.29201567628E+02 -0.10608285959E+02  0.33972080439E+02  0.51100000000E-03 0.  1.
        -12    1    3    3    0    0  0.17689765214E+01  0.34778133607E+01  0.15810446514E+01  0.42100078260E+01  0.00000000000E+00 0.  1.
</event>
<event>
 7    1  0.2584640E-011  0.5052885E+02  0.7816164E-02  0.1300439E+00
        -11   -1    0    0    0    0  0.00000000000E+00  0.00000000000E+00  0.45593999997E+02  0.45594000000E+02  0.51100000000E-03 0.  1.
         11   -1    0    0    0    0 -0.00000000000E+00 -0.00000000000E+00 -0.45593999997E+02  0.45594000000E+02  0.51100000000E-03 0. -1.
    9900012    2    1    2    0    0  0.25686042638E+02  0.16671771889E+02 -0.26747811039E+02  0.50528853923E+02  0.29999981985E+02 0.  0.
        -12    1    1    2    0    0 -0.25686042638E+02 -0.16671771889E+02  0.26747811039E+02  0.40659146077E+02  0.00000000000E+00 0.  1.
         11    1    3    3    0    0  0.16635417161E+02  0.12250567898E+02 -0.60803082464E+01  0.21535637129E+02  0.51100000000E-03 0. -1.
        -11    1    3    3    0    0 -0.10532231151E+01 -0.59200776987E+00  0.27484660524E+01  0.30023021221E+01  0.51100000000E-03 0.  1.
        -12    1    3    3    0    0  0.10103848592E+02  0.50132117606E+01 -0.23415968845E+02  0.25990914672E+02  0.00000000000E+00 0.  1.
</event>
<event>
 7    1  0.2584640E-011  0.5052886E+02  0.7816164E-02  0.1300439E+00
        -11   -1    0    0    0    0  0.00000000000E+00  0.00000000000E+00  0.45593999997E+02  0.45594000000E+02  0.51100000000E-03 0. -1.
         11   -1    0    0    0    0 -0.00000000000E+00 -0.00000000000E+00 -0.45593999997E+02  0.45594000000E+02  0.51100000000E-03 0.  1.
    9900012    2    1    2    0    0 -0.48195041343E+01  0.20591551618E+02  0.34726445049E+02  0.50528860758E+02  0.30000002761E+02 0.  0.
        -12    1    1    2    0    0  0.48195041343E+01 -0.20591551618E+02 -0.34726445049E+02  0.40659139242E+02  0.00000000000E+00 0.  1.
         11    1    3    3    0    0 -0.11692380679E+01  0.17970708001E+01  0.10262605850E+02  0.10484162351E+02  0.51100000000E-03 0. -1.
        -11    1    3    3    0    0 -0.27271938914E+01 -0.43359112599E+01 -0.14239769205E+01  0.53165236299E+01  0.51100000000E-03 0.  1.
        -12    1    3    3    0    0 -0.92307217500E+00  0.23130392077E+02  0.25887816120E+02  0.34728174777E+02  0.00000000000E+00 0.  1.
</event>
<event>
 7    1  0.2584640E-011  0.5052886E+02  0.7816164E-02  0.1300439E+00
        -11   -1    0    0    0    0  0.00000000000E+00  0.00000000000E+00  0.45593999997E+02  0.45594000000E+02  0.51100000000E-03 0.  1.
         11   -1    0    0    0    0 -0.00000000000E+00 -0.00000000000E+00 -0.45593999997E+02  0.45594000000E+02  0.51100000000E-03 0. -1.
    9900012    2    1    2    0    0 -0.35561320866E+02 -0.71673431360E+01 -0.18362663471E+02  0.50528858850E+02  0.29999996959E+02 0.  0.
        -12    1    1    2    0    0  0.35561320866E+02  0.71673431360E+01  0.18362663471E+02  0.40659141150E+02  0.00000000000E+00 0.  1.
         11    1    3    3    0    0 -0.24435485953E+02 -0.79894444903E+01 -0.18571358170E+02  0.31714658150E+02  0.51100000000E-03 0. -1.
        -11    1    3    3    0    0 -0.10857094545E+01 -0.44943697965E+00 -0.65434803745E+01  0.66481496893E+01  0.51100000000E-03 0.  1.
         12    1    3    3    0    0 -0.10040125459E+02  0.12715383339E+01  0.67521750742E+01  0.12166051011E+02  0.00000000000E+00 0. -1.
</event>
<event>
 7    1  0.2584640E-011  0.5052886E+02  0.7816164E-02  0.1300439E+00
        -11   -1    0    0    0    0  0.00000000000E+00  0.00000000000E+00  0.45593999997E+02  0.45594000000E+02  0.51100000000E-03 0. -1.
         11   -1    0    0    0    0 -0.00000000000E+00 -0.00000000000E+00 -0.45593999997E+02  0.45594000000E+02  0.51100000000E-03 0.  1.
    9900012    2    1    2    0    0  0.35239791092E+02 -0.96408832702E+01  0.17843094033E+02  0.50528861899E+02  0.30000006229E+02 0.  0.
        -12    1    1    2    0    0 -0.35239791092E+02  0.96408832702E+01 -0.17843094033E+02  0.40659138101E+02  0.00000000000E+00 0.  1.
         11    1    3    3    0    0  0.20200502762E+02 -0.10917130964E+01  0.62155384103E+01  0.21163295285E+02  0.51100000000E-03 0. -1.
        -11    1    3    3    0    0  0.84992979977E+01  0.21359015674E+01 -0.37489513569E+01  0.95317773000E+01  0.51100000000E-03 0.  1.
        -12    1    3    3    0    0  0.65399903316E+01 -0.10685071741E+02  0.15376506980E+02  0.19833789314E+02  0.00000000000E+00 0.  1.
</event>
<event>
 7    1  0.2652898E-011  0.5052887E+02  0.7816164E-02  0.1300439E+00
        -11   -1    0    0    0    0  0.00000000000E+00  0.00000000000E+00  0.45593999997E+02  0.45594000000E+02  0.51100000000E-03 0.  1.
         11   -1    0    0    0    0 -0.00000000000E+00 -0.00000000000E+00 -0.45593999997E+02  0.45594000000E+02  0.51100000000E-03 0. -1.
    9900012    2    1    2    0    0 -0.12521240629E+02  0.37576312994E+02 -0.91871780018E+01  0.50528868126E+02  0.30000025155E+02 0.  0.
        -12    1    1    2    0    0  0.12521240629E+02 -0.37576312994E+02  0.91871780018E+01  0.40659131874E+02  0.00000000000E+00 0.  1.
         11    1    3    3    0    0  0.14119016931E+01  0.16026697954E+02 -0.12589019401E+02  0.20428703421E+02  0.51100000000E-03 0. -1.
        -11    1    3    3    0    0  0.11808562234E+01  0.68277567939E+01  0.55697097614E+01  0.88901266214E+01  0.51100000000E-03 0.  1.
        -12    1    3    3    0    0 -0.15113998546E+02  0.14721858246E+02 -0.21678683619E+01  0.21210038084E+02  0.00000000000E+00 0.  1.
</event>
<event>
 7    1  0.2584640E-011  0.5052886E+02  0.7816164E-02  0.1300439E+00
        -11   -1    0    0    0    0  0.00000000000E+00  0.00000000000E+00  0.45593999997E+02  0.45594000000E+02  0.51100000000E-03 0.  1.
         11   -1    0    0    0    0 -0.00000000000E+00 -0.00000000000E+00 -0.45593999997E+02  0.45594000000E+02  0.51100000000E-03 0. -1.
    9900012    2    1    2    0    0  0.11819368208E+02 -0.15942650954E+02 -0.35486612838E+02  0.50528864803E+02  0.30000015054E+02 0.  0.
        -12    1    1    2    0    0 -0.11819368208E+02  0.15942650954E+02  0.35486612838E+02  0.40659135197E+02  0.00000000000E+00 0.  1.
         11    1    3    3    0    0 -0.41612438013E+01 -0.25371199741E+01 -0.11397759751E+02  0.12396041922E+02  0.51100000000E-03 0. -1.
        -11    1    3    3    0    0  0.50289372026E+01  0.34219329552E+01 -0.14818831127E+02  0.16018663826E+02  0.51100000000E-03 0.  1.
        -12    1    3    3    0    0  0.10951674806E+02 -0.16827463935E+02 -0.92700219600E+01  0.22114159054E+02  0.00000000000E+00 0.  1.
</event>
<event>
 7    1  0.2584640E-011  0.5052884E+02  0.7816164E-02  0.1300439E+00
        -11   -1    0    0    0    0  0.00000000000E+00  0.00000000000E+00  0.45593999997E+02  0.45594000000E+02  0.51100000000E-03 0. -1.
         11   -1    0    0    0    0 -0.00000000000E+00 -0.00000000000E+00 -0.45593999997E+02  0.45594000000E+02  0.51100000000E-03 0.  1.
    9900012    2    1    2    0    0  0.26698124684E+02 -0.30188940026E+02 -0.53856526344E+01  0.50528840935E+02  0.29999942507E+02 0.  0.
        -12    1    1    2    0    0 -0.26698124684E+02  0.30188940026E+02  0.53856526344E+01  0.40659159065E+02  0.00000000000E+00 0.  1.
         11    1    3    3    0    0  0.18081563054E+02 -0.10867369568E+02  0.65551981333E+00  0.21106215916E+02  0.51100000000E-03 0. -1.
        -11    1    3    3    0    0  0.12717979391E+02 -0.18573198192E+02 -0.90706284350E+01  0.24269054192E+02  0.51100000000E-03 0.  1.
        -12    1    3    3    0    0 -0.41014177613E+01 -0.74837226596E+00  0.30294559872E+01  0.51535708280E+01  0.00000000000E+00 0.  1.
</event>
<event>
 7    1  0.2584640E-011  0.5052887E+02  0.7816164E-02  0.1300439E+00
        -11   -1    0    0    0    0  0.00000000000E+00  0.00000000000E+00  0.45593999997E+02  0.45594000000E+02  0.51100000000E-03 0.  1.
         11   -1    0    0    0    0 -0.00000000000E+00 -0.00000000000E+00 -0.45593999997E+02  0.45594000000E+02  0.51100000000E-03 0. -1.
    9900012    2    1    2    0    0  0.23711683665E+01 -0.88012333569E+01 -0.39624241804E+02  0.50528872039E+02  0.30000037051E+02 0.  0.
        -12    1    1    2    0    0 -0.23711683665E+01  0.88012333569E+01  0.39624241804E+02  0.40659127961E+02  0.00000000000E+00 0.  1.
         11    1    3    3    0    0 -0.12909961257E+02 -0.65360168374E+01 -0.22879341306E+02  0.27071218565E+02  0.51100000000E-03 0. -1.
        -11    1    3    3    0    0  0.18816012964E+01 -0.22437977852E+01 -0.20732830158E+01  0.35879736153E+01  0.51100000000E-03 0.  1.
        -12    1    3    3    0    0  0.13399528327E+02 -0.21418734240E-01 -0.14671617482E+02  0.19869679859E+02  0.00000000000E+00 0.  1.
</event>
<event>
 7    1  0.2584640E-011  0.5052886E+02  0.7816164E-02  0.1300439E+00
        -11   -1    0    0    0    0  0.00000000000E+00  0.00000000000E+00  0.45593999997E+02  0.45594000000E+02  0.51100000000E-03 0.  1.
         11   -1    0    0    0    0 -0.00000000000E+00 -0.00000000000E+00 -0.45593999997E+02  0.45594000000E+02  0.51100000000E-03 0. -1.
    9900012    2    1    2    0    0 -0.27383615195E+02 -0.29831306168E+02 -0.36601243707E+01  0.50528859339E+02  0.29999998448E+02 0.  0.
        -12    1    1    2    0    0  0.27383615195E+02  0.29831306168E+02  0.36601243707E+01  0.40659140661E+02  0.00000000000E+00 0.  1.
         11    1    3    3    0    0 -0.13040124503E+02 -0.16640247796E+02 -0.14571791154E+02  0.25676444292E+02  0.51100000000E-03 0. -1.
        -11    1    3    3    0    0  0.60795814827E+00 -0.31349293620E+00  0.38252058638E+01  0.38858835665E+01  0.51100000000E-03 0.  1.
        -12    1    3    3    0    0 -0.14951448840E+02 -0.12877565436E+02  0.70864609198E+01  0.20966531481E+02  0.00000000000E+00 0.  1.
</event>
<event>
 7    1  0.2584640E-011  0.5052886E+02  0.7816164E-02  0.1300439E+00
        -11   -1    0    0    0    0  0.00000000000E+00  0.00000000000E+00  0.45593999997E+02  0.45594000000E+02  0.51100000000E-03 0. -1.
         11   -1    0    0    0    0 -0.00000000000E+00 -0.00000000000E+00 -0.45593999997E+02  0.45594000000E+02  0.51100000000E-03 0.  1.
    9900012    2    1    2    0    0 -0.73939580313E+01 -0.88574638752E+00  0.39971368548E+02  0.50528862458E+02  0.30000007928E+02 0.  0.
        -12    1    1    2    0    0  0.73939580313E+01  0.88574638752E+00 -0.39971368548E+02  0.40659137542E+02  0.00000000000E+00 0.  1.
         11    1    3    3    0    0 -0.29519172650E+01 -0.31533918261E+01  0.26695434770E+02  0.27042631776E+02  0.51100000000E-03 0. -1.
        -11    1    3    3    0    0  0.51705707386E+01  0.12190080394E+01  0.12738326463E+02  0.13801657281E+02  0.51100000000E-03 0.  1.
         12    1    3    3    0    0 -0.96126115050E+01  0.10486373991E+01  0.53760731496E+00  0.96845734013E+01  0.00000000000E+00 0. -1.
</event>
<event>
 7    1  0.2584640E-011  0.5052886E+02  0.7816164E-02  0.1300439E+00
        -11   -1    0    0    0    0  0.00000000000E+00  0.00000000000E+00  0.45593999997E+02  0.45594000000E+02  0.51100000000E-03 0.  1.
         11   -1    0    0    0    0 -0.00000000000E+00 -0.00000000000E+00 -0.45593999997E+02  0.45594000000E+02  0.51100000000E-03 0. -1.
    9900012    2    1    2    0    0  0.43924435540E+01  0.32569411238E+02 -0.23939621194E+02  0.50528861154E+02  0.30000003964E+02 0.  0.
        -12    1    1    2    0    0 -0.43924435540E+01 -0.32569411238E+02  0.23939621194E+02  0.40659138846E+02  0.00000000000E+00 0.  1.
         11    1    3    3    0    0  0.53099667495E+01  0.48173147200E+01 -0.34943766249E+01  0.79757718279E+01  0.51100000000E-03 0.  1.
        -11    1    3    3    0    0  0.94569427565E+01  0.14438165565E+02 -0.17225517682E+01  0.17345361802E+02  0.51100000000E-03 0. -1.
         12    1    3    3    0    0 -0.10374465952E+02  0.13313930953E+02 -0.18722692801E+02  0.25207727524E+02  0.00000000000E+00 0. -1.
</event>
<event>
 7    1  0.2584640E-011  0.5052886E+02  0.7816164E-02  0.1300439E+00
        -11   -1    0    0    0    0  0.00000000000E+00  0.00000000000E+00  0.45593999997E+02  0.45594000000E+02  0.51100000000E-03 0.  1.
         11   -1    0    0    0    0 -0.00000000000E+00 -0.00000000000E+00 -0.45593999997E+02  0.45594000000E+02  0.51100000000E-03 0. -1.
    9900012    2    1    2    0    0 -0.91811481759E+01  0.32601398102E+02 -0.22494915791E+02  0.50528857406E+02  0.29999992571E+02 0.  0.
        -12    1    1    2    0    0  0.91811481759E+01 -0.32601398102E+02  0.22494915791E+02  0.40659142594E+02  0.00000000000E+00 0.  1.
         11    1    3    3    0    0 -0.11227443055E+02  0.20314076724E+02 -0.59256097124E+01  0.23954749872E+02  0.51100000000E-03 0. -1.
        -11    1    3    3    0    0  0.33294493682E+01  0.14288841958E+02 -0.18428769166E+02  0.23555801214E+02  0.51100000000E-03 0.  1.
        -12    1    3    3    0    0 -0.12831544892E+01 -0.20015205796E+01  0.18594630868E+01  0.30183063206E+01  0.00000000000E+00 0.  1.
</event>
<event>
 7    1  0.2584640E-011  0.5052886E+02  0.7816164E-02  0.1300439E+00
        -11   -1    0    0    0    0  0.00000000000E+00  0.00000000000E+00  0.45593999997E+02  0.45594000000E+02  0.51100000000E-03 0.  1.
         11   -1    0    0    0    0 -0.00000000000E+00 -0.00000000000E+00 -0.45593999997E+02  0.45594000000E+02  0.51100000000E-03 0. -1.
    9900012    2    1    2    0    0 -0.29904343813E+02  0.19971383129E+02  0.18974714117E+02  0.50528859591E+02  0.29999999214E+02 0.  0.
        -12    1    1    2    0    0  0.29904343813E+02 -0.19971383129E+02 -0.18974714117E+02  0.40659140409E+02  0.00000000000E+00 0.  1.
         11    1    3    3    0    0 -0.13559038093E+02  0.13423217296E+02 -0.24559603327E+01  0.19236996075E+02  0.51100000000E-03 0. -1.
        -11    1    3    3    0    0 -0.32732534354E+01 -0.27250044829E+01 -0.32336201241E+00  0.42713464781E+01  0.51100000000E-03 0.  1.
         12    1    3    3    0    0 -0.13072052284E+02  0.92731703156E+01  0.21754036462E+02  0.27020517038E+02  0.00000000000E+00 0. -1.
</event>
<event>
 7    1  0.2584640E-011  0.5052886E+02  0.7816164E-02  0.1300439E+00
        -11   -1    0    0    0    0  0.00000000000E+00  0.00000000000E+00  0.45593999997E+02  0.45594000000E+02  0.51100000000E-03 0. -1.
         11   -1    0    0    0    0 -0.00000000000E+00 -0.00000000000E+00 -0.45593999997E+02  0.45594000000E+02  0.51100000000E-03 0.  1.
    9900012    2    1    2    0    0 -0.21492466876E+02 -0.68647703234E+01  0.33824761563E+02  0.50528859591E+02  0.29999999213E+02 0.  0.
        -12    1    1    2    0    0  0.21492466876E+02  0.68647703234E+01 -0.33824761563E+02  0.40659140409E+02  0.00000000000E+00 0.  1.
         11    1    3    3    0    0 -0.88162092750E+01 -0.12506564126E+02  0.10227849858E+02  0.18405124428E+02  0.51100000000E-03 0. -1.
        -11    1    3    3    0    0 -0.19629202034E+01  0.99776107411E+00  0.19687237813E+02  0.19809995353E+02  0.51100000000E-03 0.  1.
        -12    1    3    3    0    0 -0.10713337397E+02  0.46440327289E+01  0.39096738918E+01  0.12313739810E+02  0.00000000000E+00 0.  1.
</event>
<event>
 7    1  0.2584640E-011  0.5052887E+02  0.7816164E-02  0.1300439E+00
        -11   -1    0    0    0    0  0.00000000000E+00  0.00000000000E+00  0.45593999997E+02  0.45594000000E+02  0.51100000000E-03 0. -1.
         11   -1    0    0    0    0 -0.00000000000E+00 -0.00000000000E+00 -0.45593999997E+02  0.45594000000E+02  0.51100000000E-03 0.  1.
    9900012    2    1    2    0    0 -0.40606855981E+02 -0.18159443858E+00 -0.20530961250E+01  0.50528869009E+02  0.30000027840E+02 0.  0.
        -12    1    1    2    0    0  0.40606855981E+02  0.18159443858E+00  0.20530961250E+01  0.40659130991E+02  0.00000000000E+00 0.  1.
         11    1    3    3    0    0 -0.98009799750E+00 -0.42226219139E+00 -0.69508004457E+01  0.70322488963E+01  0.51100000000E-03 0. -1.
        -11    1    3    3    0    0 -0.21134267011E+02 -0.44773488671E+01 -0.47386436219E+01  0.22116931040E+02  0.51100000000E-03 0.  1.
         12    1    3    3    0    0 -0.18492490973E+02  0.47180166199E+01  0.96363479426E+01  0.21379689073E+02  0.00000000000E+00 0. -1.
</event>
<event>
 7    1  0.2584640E-011  0.5052886E+02  0.7816164E-02  0.1300439E+00
        -11   -1    0    0    0    0  0.00000000000E+00  0.00000000000E+00  0.45593999997E+02  0.45594000000E+02  0.51100000000E-03 0.  1.
         11   -1    0    0    0    0 -0.00000000000E+00 -0.00000000000E+00 -0.45593999997E+02  0.45594000000E+02  0.51100000000E-03 0. -1.
    9900012    2    1    2    0    0 -0.21730526124E+02 -0.19827064354E+02 -0.28068435347E+02  0.50528864381E+02  0.30000013771E+02 0.  0.
        -12    1    1    2    0    0  0.21730526124E+02  0.19827064354E+02  0.28068435347E+02  0.40659135619E+02  0.00000000000E+00 0.  1.
         11    1    3    3    0    0 -0.60134700110E+01 -0.33955786535E+00 -0.11414141109E+02  0.12905802518E+02  0.51100000000E-03 0. -1.
        -11    1    3    3    0    0  0.34172168199E+01  0.86806773704E+00  0.19781245311E+01  0.40427576370E+01  0.51100000000E-03 0.  1.
        -12    1    3    3    0    0 -0.19134272933E+02 -0.20355574225E+02 -0.18632418769E+02  0.33580304226E+02  0.00000000000E+00 0.  1.
</event>
<event>
 7    1  0.2584640E-011  0.5052886E+02  0.7816164E-02  0.1300439E+00
        -11   -1    0    0    0    0  0.00000000000E+00  0.00000000000E+00  0.45593999997E+02  0.45594000000E+02  0.51100000000E-03 0.  1.
         11   -1    0    0    0    0 -0.00000000000E+00 -0.00000000000E+00 -0.45593999997E+02  0.45594000000E+02  0.51100000000E-03 0. -1.
    9900012    2    1    2    0    0 -0.26643508020E+02 -0.45611875694E+01 -0.30372432803E+02  0.50528860486E+02  0.30000001932E+02 0.  0.
        -12    1    1    2    0    0  0.26643508020E+02  0.45611875694E+01  0.30372432803E+02  0.40659139514E+02  0.00000000000E+00 0.  1.
         11    1    3    3    0    0 -0.11404407253E+02 -0.71702326696E+01 -0.31206810886E-01  0.13471218039E+02  0.51100000000E-03 0. -1.
        -11    1    3    3    0    0 -0.12945771644E+02 -0.32403822496E+01 -0.13070979219E+02  0.18680031547E+02  0.51100000000E-03 0.  1.
        -12    1    3    3    0    0 -0.22933291232E+01  0.58494273498E+01 -0.17270246773E+02  0.18377610900E+02  0.00000000000E+00 0.  1.
</event>
<event>
 7    1  0.2584640E-011  0.5052886E+02  0.7816164E-02  0.1300439E+00
        -11   -1    0    0    0    0  0.00000000000E+00  0.00000000000E+00  0.45593999997E+02  0.45594000000E+02  0.51100000000E-03 0. -1.
         11   -1    0    0    0    0 -0.00000000000E+00 -0.00000000000E+00 -0.45593999997E+02  0.45594000000E+02  0.51100000000E-03 0.  1.
    9900012    2    1    2    0    0  0.34005601601E+02 -0.18457384636E+02  0.12494389931E+02  0.50528858745E+02  0.29999996641E+02 0.  0.
        -12    1    1    2    0    0 -0.34005601601E+02  0.18457384636E+02 -0.12494389931E+02  0.40659141255E+02  0.00000000000E+00 0.  1.
         11    1    3    3    0    0  0.28386356208E+02 -0.10040834774E+02  0.28539122750E+01  0.30244807774E+02  0.51100000000E-03 0. -1.
        -11    1    3    3    0    0  0.27235444251E+01  0.41215914876E+01  0.20883134491E+01  0.53634190540E+01  0.51100000000E-03 0.  1.
        -12    1    3    3    0    0  0.28957009677E+01 -0.12538141350E+02  0.75521642072E+01  0.14920631917E+02  0.00000000000E+00 0.  1.
</event>
<event>
 7    1  0.2584640E-011  0.5052885E+02  0.7816164E-02  0.1300439E+00
        -11   -1    0    0    0    0  0.00000000000E+00  0.00000000000E+00  0.45593999997E+02  0.45594000000E+02  0.51100000000E-03 0.  1.
         11   -1    0    0    0    0 -0.00000000000E+00 -0.00000000000E+00 -0.45593999997E+02  0.45594000000E+02  0.51100000000E-03 0. -1.
    9900012    2    1    2    0    0 -0.28476797562E+02 -0.19524499169E+02 -0.21471666603E+02  0.50528849321E+02  0.29999967997E+02 0.  0.
        -12    1    1    2    0    0  0.28476797562E+02  0.19524499169E+02  0.21471666603E+02  0.40659150679E+02  0.00000000000E+00 0.  1.
         11    1    3    3    0    0 -0.17140691161E+01  0.24729100018E+00 -0.11903564532E+02  0.12028883348E+02  0.51100000000E-03 0. -1.
        -11    1    3    3    0    0 -0.18180520974E+00 -0.28326320083E+01  0.33894154719E+01  0.44209721477E+01  0.51100000000E-03 0.  1.
         12    1    3    3    0    0 -0.26580923236E+02 -0.16939158161E+02 -0.12957517544E+02  0.34078993826E+02  0.00000000000E+00 0. -1.
</event>
<event>
 7    1  0.2584640E-011  0.5052886E+02  0.7816164E-02  0.1300439E+00
        -11   -1    0    0    0    0  0.00000000000E+00  0.00000000000E+00  0.45593999997E+02  0.45594000000E+02  0.51100000000E-03 0.  1.
         11   -1    0    0    0    0 -0.00000000000E+00 -0.00000000000E+00 -0.45593999997E+02  0.45594000000E+02  0.51100000000E-03 0. -1.
    9900012    2    1    2    0    0 -0.33087940817E+02  0.20584800961E+02 -0.11602585854E+02  0.50528857650E+02  0.29999993314E+02 0.  0.
        -12    1    1    2    0    0  0.33087940817E+02 -0.20584800961E+02  0.11602585854E+02  0.40659142350E+02  0.00000000000E+00 0.  1.
         11    1    3    3    0    0 -0.82273604207E+01 -0.36376736821E+01 -0.28965580690E+01  0.94505120612E+01  0.51100000000E-03 0. -1.
        -11    1    3    3    0    0 -0.22644339722E+01  0.98907722824E+01 -0.10057128808E+02  0.14286387845E+02  0.51100000000E-03 0.  1.
        -12    1    3    3    0    0 -0.22596146424E+02  0.14331702360E+02  0.13511010221E+01  0.26791957744E+02  0.00000000000E+00 0.  1.
</event>
<event>
 7    1  0.2584640E-011  0.5052886E+02  0.7816164E-02  0.1300439E+00
        -11   -1    0    0    0    0  0.00000000000E+00  0.00000000000E+00  0.45593999997E+02  0.45594000000E+02  0.51100000000E-03 0.  1.
         11   -1    0    0    0    0 -0.00000000000E+00 -0.00000000000E+00 -0.45593999997E+02  0.45594000000E+02  0.51100000000E-03 0. -1.
    9900012    2    1    2    0    0 -0.15528252887E+02 -0.24933915177E+02 -0.28112972782E+02  0.50528855857E+02  0.29999987862E+02 0.  0.
        -12    1    1    2    0    0  0.15528252887E+02  0.24933915177E+02  0.28112972782E+02  0.40659144143E+02  0.00000000000E+00 0.  1.
         11    1    3    3    0    0 -0.54650997403E+01 -0.40733760029E+01 -0.19299277825E+02  0.20467580024E+02  0.51100000000E-03 0. -1.
        -11    1    3    3    0    0 -0.41582026642E+01 -0.22557983242E+01 -0.94106689847E+01  0.10532804303E+02  0.51100000000E-03 0.  1.
        -12    1    3    3    0    0 -0.59049504824E+01 -0.18604740850E+02  0.59697402704E+00  0.19528471530E+02  0.00000000000E+00 0.  1.
</event>
<event>
 7    1  0.2584640E-011  0.5052885E+02  0.7816164E-02  0.1300439E+00
        -11   -1    0    0    0    0  0.00000000000E+00  0.00000000000E+00  0.45593999997E+02  0.45594000000E+02  0.51100000000E-03 0.  1.
         11   -1    0    0    0    0 -0.00000000000E+00 -0.00000000000E+00 -0.45593999997E+02  0.45594000000E+02  0.51100000000E-03 0. -1.
    9900012    2    1    2    0    0  0.28205384062E+02 -0.30459609231E+01 -0.29126354173E+02  0.50528854960E+02  0.29999985135E+02 0.  0.
        -12    1    1    2    0    0 -0.28205384062E+02  0.30459609231E+01  0.29126354173E+02  0.40659145040E+02  0.00000000000E+00 0.  1.
         11    1    3    3    0    0  0.27987395424E+02  0.25151194308E+01 -0.21399563590E+02  0.35320835926E+02  0.51100000000E-03 0. -1.
        -11    1    3    3    0    0 -0.16108435011E+01  0.29853552564E+01 -0.50197498638E+01  0.60584694229E+01  0.51100000000E-03 0.  1.
        -12    1    3    3    0    0  0.18288321387E+01 -0.85464356102E+01 -0.27070407189E+01  0.91495496110E+01  0.00000000000E+00 0.  1.
</event>
<event>
 7    1  0.2687530E-011  0.5052888E+02  0.7816164E-02  0.1300439E+00
        -11   -1    0    0    0    0  0.00000000000E+00  0.00000000000E+00  0.45593999997E+02  0.45594000000E+02  0.51100000000E-03 0.  1.
         11   -1    0    0    0    0 -0.00000000000E+00 -0.00000000000E+00 -0.45593999997E+02  0.45594000000E+02  0.51100000000E-03 0. -1.
    9900012    2    1    2    0    0 -0.33795090132E+02 -0.22101729498E+02  0.47507287530E+01  0.50528880636E+02  0.30000063180E+02 0.  0.
        -12    1    1    2    0    0  0.33795090132E+02  0.22101729498E+02 -0.47507287530E+01  0.40659119364E+02  0.00000000000E+00 0.  1.
         11    1    3    3    0    0 -0.18527080700E+02 -0.14672050871E+02  0.61303400053E+00  0.23641015354E+02  0.51100000000E-03 0. -1.
        -11    1    3    3    0    0 -0.16585365934E+02  0.22074759979E+01  0.37865920536E+01  0.17154754241E+02  0.51100000000E-03 0.  1.
        -12    1    3    3    0    0  0.13173565024E+01 -0.96371546249E+01  0.35110269883E+00  0.97331110404E+01  0.00000000000E+00 0.  1.
</event>
<event>
 7    1  0.2584640E-011  0.5052885E+02  0.7816164E-02  0.1300439E+00
        -11   -1    0    0    0    0  0.00000000000E+00  0.00000000000E+00  0.45593999997E+02  0.45594000000E+02  0.51100000000E-03 0.  1.
         11   -1    0    0    0    0 -0.00000000000E+00 -0.00000000000E+00 -0.45593999997E+02  0.45594000000E+02  0.51100000000E-03 0. -1.
    9900012    2    1    2    0    0 -0.18940054000E+02 -0.40385403365E+01 -0.35750958980E+02  0.50528849473E+02  0.29999968459E+02 0.  0.
        -12    1    1    2    0    0  0.18940054000E+02  0.40385403365E+01  0.35750958980E+02  0.40659150527E+02  0.00000000000E+00 0.  1.
         11    1    3    3    0    0 -0.10257573367E+02 -0.51399946863E+01 -0.13209069387E+02  0.17496195903E+02  0.51100000000E-03 0. -1.
        -11    1    3    3    0    0 -0.15644159110E+01 -0.46802583208E+01 -0.23313367013E+02  0.23829924399E+02  0.51100000000E-03 0.  1.
        -12    1    3    3    0    0 -0.71180647221E+01  0.57817126706E+01  0.77147741990E+00  0.92027291714E+01  0.00000000000E+00 0.  1.
</event>
<event>
 7    1  0.2584640E-011  0.5052886E+02  0.7816164E-02  0.1300439E+00
        -11   -1    0    0    0    0  0.00000000000E+00  0.00000000000E+00  0.45593999997E+02  0.45594000000E+02  0.51100000000E-03 0. -1.
         11   -1    0    0    0    0 -0.00000000000E+00 -0.00000000000E+00 -0.45593999997E+02  0.45594000000E+02  0.51100000000E-03 0.  1.
    9900012    2    1    2    0    0 -0.15914534610E+02 -0.33485692560E+02  0.16691364667E+02  0.50528859914E+02  0.30000000196E+02 0.  0.
        -12    1    1    2    0    0  0.15914534610E+02  0.33485692560E+02 -0.16691364667E+02  0.40659140086E+02  0.00000000000E+00 0.  1.
         11    1    3    3    0    0 -0.26147212317E+01 -0.92863315915E+01  0.90398549222E+01  0.13220881167E+02  0.51100000000E-03 0. -1.
        -11    1    3    3    0    0 -0.15949985453E+02 -0.47525917460E+01  0.13633977262E+01  0.16698743003E+02  0.51100000000E-03 0.  1.
         12    1    3    3    0    0  0.26501720755E+01 -0.19446769222E+02  0.62881120183E+01  0.20609235745E+02  0.00000000000E+00 0. -1.
</event>
<event>
 7    1  0.2584640E-011  0.5052886E+02  0.7816164E-02  0.1300439E+00
        -11   -1    0    0    0    0  0.00000000000E+00  0.00000000000E+00  0.45593999997E+02  0.45594000000E+02  0.51100000000E-03 0. -1.
         11   -1    0    0    0    0 -0.00000000000E+00 -0.00000000000E+00 -0.45593999997E+02  0.45594000000E+02  0.51100000000E-03 0.  1.
    9900012    2    1    2    0    0 -0.90804961621E+01  0.17083083260E+02  0.35761409869E+02  0.50528861051E+02  0.30000003651E+02 0.  0.
        -12    1    1    2    0    0  0.90804961621E+01 -0.17083083260E+02 -0.35761409869E+02  0.40659138949E+02  0.00000000000E+00 0.  1.
         11    1    3    3    0    0  0.33926116838E+01  0.59797469481E+01  0.26199023522E+02  0.27086085383E+02  0.51100000000E-03 0.  1.
        -11    1    3    3    0    0 -0.31040436034E+01 -0.44645354629E+00  0.78736462970E+01  0.84751822241E+01  0.51100000000E-03 0. -1.
        -12    1    3    3    0    0 -0.93690642425E+01  0.11549789858E+02  0.16887400504E+01  0.14967593444E+02  0.00000000000E+00 0.  1.
</event>
<event>
 7    1  0.2584640E-011  0.5052886E+02  0.7816164E-02  0.1300439E+00
        -11   -1    0    0    0    0  0.00000000000E+00  0.00000000000E+00  0.45593999997E+02  0.45594000000E+02  0.51100000000E-03 0.  1.
         11   -1    0    0    0    0 -0.00000000000E+00 -0.00000000000E+00 -0.45593999997E+02  0.45594000000E+02  0.51100000000E-03 0. -1.
    9900012    2    1    2    0    0 -0.33044952428E+02  0.15115911381E+02 -0.18240241403E+02  0.50528855097E+02  0.29999985553E+02 0.  0.
        -12    1    1    2    0    0  0.33044952428E+02 -0.15115911381E+02  0.18240241403E+02  0.40659144903E+02  0.00000000000E+00 0.  1.
         11    1    3    3    0    0 -0.14854913764E+02  0.86603008241E+01 -0.85671643532E+01  0.19211079579E+02  0.51100000000E-03 0. -1.
        -11    1    3    3    0    0 -0.85147494179E+01 -0.65195277028E+01  0.25649577941E+01  0.11026522927E+02  0.51100000000E-03 0.  1.
         12    1    3    3    0    0 -0.96752892460E+01  0.12975138260E+02 -0.12238034843E+02  0.20291252590E+02  0.00000000000E+00 0. -1.
</event>
<event>
 7    1  0.2584640E-011  0.5052885E+02  0.7816164E-02  0.1300439E+00
        -11   -1    0    0    0    0  0.00000000000E+00  0.00000000000E+00  0.45593999997E+02  0.45594000000E+02  0.51100000000E-03 0.  1.
         11   -1    0    0    0    0 -0.00000000000E+00 -0.00000000000E+00 -0.45593999997E+02  0.45594000000E+02  0.51100000000E-03 0. -1.
    9900012    2    1    2    0    0  0.82324569606E+01 -0.42692421347E+01 -0.39587452883E+02  0.50528853405E+02  0.29999980411E+02 0.  0.
        -12    1    1    2    0    0 -0.82324569606E+01  0.42692421347E+01  0.39587452883E+02  0.40659146595E+02  0.00000000000E+00 0.  1.
         11    1    3    3    0    0  0.79224858898E+01 -0.83652032795E+01 -0.28958598456E+02  0.31166373439E+02  0.51100000000E-03 0. -1.
        -11    1    3    3    0    0 -0.63150679095E+01 -0.24992597624E+01 -0.37684610881E+01  0.77670896284E+01  0.51100000000E-03 0.  1.
        -12    1    3    3    0    0  0.66250389803E+01  0.65952209072E+01 -0.68603933398E+01  0.11595390338E+02  0.00000000000E+00 0.  1.
</event>
<event>
 7    1  0.2584640E-011  0.5052887E+02  0.7816164E-02  0.1300439E+00
        -11   -1    0    0    0    0  0.00000000000E+00  0.00000000000E+00  0.45593999997E+02  0.45594000000E+02  0.51100000000E-03 0.  1.
         11   -1    0    0    0    0 -0.00000000000E+00 -0.00000000000E+00 -0.45593999997E+02  0.45594000000E+02  0.51100000000E-03 0. -1.
    9900012    2    1    2    0    0 -0.10951004418E+02 -0.21816738015E+02 -0.32515698168E+02  0.50528865937E+02  0.30000018502E+02 0.  0.
        -12    1    1    2    0    0  0.10951004418E+02  0.21816738015E+02  0.32515698168E+02  0.40659134063E+02  0.00000000000E+00 0.  1.
         11    1    3    3    0    0 -0.84239651345E+01 -0.19849729856E+02 -0.19525320755E+02  0.29089742432E+02  0.51100000000E-03 0. -1.
        -11    1    3    3    0    0 -0.85509830748E+01 -0.38678367657E+01 -0.34540863253E+01  0.10000509257E+02  0.51100000000E-03 0.  1.
        -12    1    3    3    0    0  0.60239437913E+01  0.19008286062E+01 -0.95362910880E+01  0.11438614248E+02  0.00000000000E+00 0.  1.
</event>
<event>
 7    1  0.2584640E-011  0.5052887E+02  0.7816164E-02  0.1300439E+00
        -11   -1    0    0    0    0  0.00000000000E+00  0.00000000000E+00  0.45593999997E+02  0.45594000000E+02  0.51100000000E-03 0.  1.
         11   -1    0    0    0    0 -0.00000000000E+00 -0.00000000000E+00 -0.45593999997E+02  0.45594000000E+02  0.51100000000E-03 0. -1.
    9900012    2    1    2    0    0  0.40481309352E+02 -0.11638765187E+01 -0.36157992833E+01  0.50528867940E+02  0.30000024590E+02 0.  0.
        -12    1    1    2    0    0 -0.40481309352E+02  0.11638765187E+01  0.36157992833E+01  0.40659132060E+02  0.00000000000E+00 0.  1.
         11    1    3    3    0    0  0.25591802057E+02  0.25158366281E+01 -0.98772152126E+01  0.27546853669E+02  0.51100000000E-03 0. -1.
        -11    1    3    3    0    0  0.17447735413E+02 -0.62046463400E+01  0.52224464646E+01  0.19240453596E+02  0.51100000000E-03 0.  1.
        -12    1    3    3    0    0 -0.25582281177E+01  0.25249331932E+01  0.10389694647E+01  0.37415606745E+01  0.00000000000E+00 0.  1.
</event>
<event>
 7    1  0.2584640E-011  0.5052886E+02  0.7816164E-02  0.1300439E+00
        -11   -1    0    0    0    0  0.00000000000E+00  0.00000000000E+00  0.45593999997E+02  0.45594000000E+02  0.51100000000E-03 0.  1.
         11   -1    0    0    0    0 -0.00000000000E+00 -0.00000000000E+00 -0.45593999997E+02  0.45594000000E+02  0.51100000000E-03 0. -1.
    9900012    2    1    2    0    0  0.12712531350E+02  0.15327088375E+02 -0.35449080452E+02  0.50528863312E+02  0.30000010522E+02 0.  0.
        -12    1    1    2    0    0 -0.12712531350E+02 -0.15327088375E+02  0.35449080452E+02  0.40659136688E+02  0.00000000000E+00 0.  1.
         11    1    3    3    0    0 -0.24894546085E+01  0.97161900707E+01 -0.14238105703E+02  0.17416239204E+02  0.51100000000E-03 0. -1.
        -11    1    3    3    0    0  0.87379221531E+01  0.10414640343E+02 -0.40974057947E+01  0.14198758802E+02  0.51100000000E-03 0.  1.
        -12    1    3    3    0    0  0.64640638055E+01 -0.48037420381E+01 -0.17113568954E+02  0.18913865305E+02  0.00000000000E+00 0.  1.
</event>
<event>
 7    1  0.2584640E-011  0.5052887E+02  0.7816164E-02  0.1300439E+00
        -11   -1    0    0    0    0  0.00000000000E+00  0.00000000000E+00  0.45593999997E+02  0.45594000000E+02  0.51100000000E-03 0.  1.
         11   -1    0    0    0    0 -0.00000000000E+00 -0.00000000000E+00 -0.45593999997E+02  0.45594000000E+02  0.51100000000E-03 0. -1.
    9900012    2    1    2    0    0 -0.73951190440E-01  0.30484269410E+02 -0.26904812468E+02  0.50528867149E+02  0.30000022186E+02 0.  0.
        -12    1    1    2    0    0  0.73951190440E-01 -0.30484269410E+02  0.26904812468E+02  0.40659132851E+02  0.00000000000E+00 0.  1.
         11    1    3    3    0    0  0.68946768873E+01  0.24028586478E+02 -0.84795018110E+01  0.26397187137E+02  0.51100000000E-03 0. -1.
        -11    1    3    3    0    0  0.28151630184E+01 -0.66798415517E+00 -0.13257696491E+01  0.31826107326E+01  0.51100000000E-03 0.  1.
        -12    1    3    3    0    0 -0.97837910962E+01  0.71236670872E+01 -0.17099541008E+02  0.20949069279E+02  0.00000000000E+00 0.  1.
</event>
<event>
 7    1  0.2584640E-011  0.5052887E+02  0.7816164E-02  0.1300439E+00
        -11   -1    0    0    0    0  0.00000000000E+00  0.00000000000E+00  0.45593999997E+02  0.45594000000E+02  0.51100000000E-03 0.  1.
         11   -1    0    0    0    0 -0.00000000000E+00 -0.00000000000E+00 -0.45593999997E+02  0.45594000000E+02  0.51100000000E-03 0. -1.
    9900012    2    1    2    0    0 -0.17328993650E+02  0.26878127224E+02 -0.25108505140E+02  0.50528870959E+02  0.30000033767E+02 0.  0.
        -12    1    1    2    0    0  0.17328993650E+02 -0.26878127224E+02  0.25108505140E+02  0.40659129041E+02  0.00000000000E+00 0.  1.
         11    1    3    3    0    0 -0.12321213871E+02  0.97221084619E+01 -0.17368150420E+02  0.23409065626E+02  0.51100000000E-03 0. -1.
        -11    1    3    3    0    0 -0.11965808875E+02  0.77178058746E+01 -0.36278374476E+01  0.14693750861E+02  0.51100000000E-03 0.  1.
        -12    1    3    3    0    0  0.69580290966E+01  0.94382128877E+01 -0.41125172726E+01  0.12426054472E+02  0.00000000000E+00 0.  1.
</event>
<event>
 7    1  0.2584640E-011  0.5052885E+02  0.7816164E-02  0.1300439E+00
        -11   -1    0    0    0    0  0.00000000000E+00  0.00000000000E+00  0.45593999997E+02  0.45594000000E+02  0.51100000000E-03 0. -1.
         11   -1    0    0    0    0 -0.00000000000E+00 -0.00000000000E+00 -0.45593999997E+02  0.45594000000E+02  0.51100000000E-03 0.  1.
    9900012    2    1    2    0    0 -0.35306571557E+01 -0.27287983920E+02  0.29934373546E+02  0.50528851878E+02  0.29999975769E+02 0.  0.
        -12    1    1    2    0    0  0.35306571557E+01  0.27287983920E+02 -0.29934373546E+02  0.40659148122E+02  0.00000000000E+00 0.  1.
         11    1    3    3    0    0 -0.68710342082E+01 -0.18891031586E+02  0.21752555827E+02  0.29618505546E+02  0.51100000000E-03 0. -1.
        -11    1    3    3    0    0  0.35471670855E+01  0.22938026413E+01  0.92455140017E+01  0.10164814524E+02  0.51100000000E-03 0.  1.
        -12    1    3    3    0    0 -0.20679003293E+00 -0.10690754975E+02 -0.10636962827E+01  0.10745531808E+02  0.00000000000E+00 0.  1.
</event>
<event>
 7    1  0.2584640E-011  0.5052885E+02  0.7816164E-02  0.1300439E+00
        -11   -1    0    0    0    0  0.00000000000E+00  0.00000000000E+00  0.45593999997E+02  0.45594000000E+02  0.51100000000E-03 0. -1.
         11   -1    0    0    0    0 -0.00000000000E+00 -0.00000000000E+00 -0.45593999997E+02  0.45594000000E+02  0.51100000000E-03 0.  1.
    9900012    2    1    2    0    0 -0.35458810249E+02  0.19894316339E+02 -0.23585970999E+00  0.50528847566E+02  0.29999962661E+02 0.  0.
        -12    1    1    2    0    0  0.35458810249E+02 -0.19894316339E+02  0.23585970999E+00  0.40659152434E+02  0.00000000000E+00 0.  1.
         11    1    3    3    0    0 -0.65361670329E+01 -0.22308007246E+01 -0.20138073577E+01  0.71939816298E+01  0.51100000000E-03 0. -1.
        -11    1    3    3    0    0 -0.42252617203E+01  0.73277630513E+01  0.10281966816E+02  0.13314195049E+02  0.51100000000E-03 0.  1.
        -12    1    3    3    0    0 -0.24697381495E+02  0.14797354013E+02 -0.85040191681E+01  0.30020670887E+02  0.00000000000E+00 0.  1.
</event>
<event>
 7    1  0.2584640E-011  0.5052886E+02  0.7816164E-02  0.1300439E+00
        -11   -1    0    0    0    0  0.00000000000E+00  0.00000000000E+00  0.45593999997E+02  0.45594000000E+02  0.51100000000E-03 0.  1.
         11   -1    0    0    0    0 -0.00000000000E+00 -0.00000000000E+00 -0.45593999997E+02  0.45594000000E+02  0.51100000000E-03 0. -1.
    9900012    2    1    2    0    0 -0.88272088721E+01  0.15949328763E+02 -0.36343701858E+02  0.50528863644E+02  0.30000011534E+02 0.  0.
        -12    1    1    2    0    0  0.88272088721E+01 -0.15949328763E+02  0.36343701858E+02  0.40659136356E+02  0.00000000000E+00 0.  1.
         11    1    3    3    0    0 -0.98184701126E+01  0.18846351961E+02 -0.31905399245E+02  0.38334603674E+02  0.51100000000E-03 0. -1.
        -11    1    3    3    0    0  0.39749681953E+01  0.27129553148E+01 -0.81912148137E+00  0.48817475310E+01  0.51100000000E-03 0.  1.
        -12    1    3    3    0    0 -0.29837069549E+01 -0.56099785135E+01 -0.36191811313E+01  0.73125124393E+01  0.00000000000E+00 0.  1.
</event>
<event>
 7    1  0.2584640E-011  0.5052886E+02  0.7816164E-02  0.1300439E+00
        -11   -1    0    0    0    0  0.00000000000E+00  0.00000000000E+00  0.45593999997E+02  0.45594000000E+02  0.51100000000E-03 0.  1.
         11   -1    0    0    0    0 -0.00000000000E+00 -0.00000000000E+00 -0.45593999997E+02  0.45594000000E+02  0.51100000000E-03 0. -1.
    9900012    2    1    2    0    0  0.44721427126E+01 -0.29528670663E+02 -0.27590270565E+02  0.50528862264E+02  0.30000007339E+02 0.  0.
        -12    1    1    2    0    0 -0.44721427126E+01  0.29528670663E+02  0.27590270565E+02  0.40659137736E+02  0.00000000000E+00 0.  1.
         11    1    3    3    0    0  0.40901034641E+01 -0.75559748787E+01 -0.16254705734E+02  0.18385786942E+02  0.51100000000E-03 0. -1.
        -11    1    3    3    0    0  0.12074588376E+01 -0.24473925746E+02 -0.14143966141E+02  0.28292804327E+02  0.51100000000E-03 0.  1.
         12    1    3    3    0    0 -0.82541958915E+00  0.25012299615E+01  0.28084013099E+01  0.38502709951E+01  0.00000000000E+00 0. -1.
</event>
<event>
 7    1  0.2584640E-011  0.5052886E+02  0.7816164E-02  0.1300439E+00
        -11   -1    0    0    0    0  0.00000000000E+00  0.00000000000E+00  0.45593999997E+02  0.45594000000E+02  0.51100000000E-03 0.  1.
         11   -1    0    0    0    0 -0.00000000000E+00 -0.00000000000E+00 -0.45593999997E+02  0.45594000000E+02  0.51100000000E-03 0. -1.
    9900012    2    1    2    0    0 -0.44246682954E+01 -0.40250008851E+02  0.36775533136E+01  0.50528864490E+02  0.30000014105E+02 0.  0.
        -12    1    1    2    0    0  0.44246682954E+01  0.40250008851E+02 -0.36775533136E+01  0.40659135510E+02  0.00000000000E+00 0.  1.
         11    1    3    3    0    0  0.78110651121E+01 -0.96247966276E+01  0.70323402905E+01  0.14251430052E+02  0.51100000000E-03 0. -1.
        -11    1    3    3    0    0 -0.40574926242E+01 -0.19425496381E+01  0.34693023726E+01  0.56809158333E+01  0.51100000000E-03 0.  1.
         12    1    3    3    0    0 -0.81782407833E+01 -0.28682662585E+02 -0.68240893495E+01  0.30596518605E+02  0.00000000000E+00 0. -1.
</event>
<event>
 7    1  0.2584640E-011  0.5052883E+02  0.7816164E-02  0.1300439E+00
        -11   -1    0    0    0    0  0.00000000000E+00  0.00000000000E+00  0.45593999997E+02  0.45594000000E+02  0.51100000000E-03 0.  1.
         11   -1    0    0    0    0 -0.00000000000E+00 -0.00000000000E+00 -0.45593999997E+02  0.45594000000E+02  0.51100000000E-03 0. -1.
    9900012    2    1    2    0    0  0.13257502924E+02  0.15397980556E+02 -0.35218016034E+02  0.50528833231E+02  0.29999919088E+02 0.  0.
        -12    1    1    2    0    0 -0.13257502924E+02 -0.15397980556E+02  0.35218016034E+02  0.40659166769E+02  0.00000000000E+00 0.  1.
         11    1    3    3    0    0  0.24164834021E+01 -0.26300061653E+01 -0.24900786753E+02  0.25155625725E+02  0.51100000000E-03 0.  1.
        -11    1    3    3    0    0  0.53156116181E+01  0.11372264732E+02 -0.11006910784E+02  0.16695395092E+02  0.51100000000E-03 0. -1.
        -12    1    3    3    0    0  0.55254079039E+01  0.66557219895E+01  0.68968150275E+00  0.86778124133E+01  0.00000000000E+00 0.  1.
</event>
<event>
 7    1  0.3306468E-011  0.5052886E+02  0.7816164E-02  0.1300439E+00
        -11   -1    0    0    0    0  0.00000000000E+00  0.00000000000E+00  0.45593999997E+02  0.45594000000E+02  0.51100000000E-03 0. -1.
         11   -1    0    0    0    0 -0.00000000000E+00 -0.00000000000E+00 -0.45593999997E+02  0.45594000000E+02  0.51100000000E-03 0.  1.
    9900012    2    1    2    0    0 -0.17495973627E+02 -0.25194949737E+02  0.26688412608E+02  0.50528856466E+02  0.29999989713E+02 0.  0.
        -12    1    1    2    0    0  0.17495973627E+02  0.25194949737E+02 -0.26688412608E+02  0.40659143534E+02  0.00000000000E+00 0.  1.
         11    1    3    3    0    0 -0.10246441292E+02 -0.21588339339E+02  0.27243926438E+02  0.36239170556E+02  0.51100000000E-03 0. -1.
        -11    1    3    3    0    0  0.17625403046E+01  0.24025209106E+00  0.33086515310E+01  0.37565202791E+01  0.51100000000E-03 0.  1.
        -12    1    3    3    0    0 -0.90120726394E+01 -0.38468624891E+01 -0.38641653606E+01  0.10533165631E+02  0.00000000000E+00 0.  1.
</event>
<event>
 7    1  0.2584640E-011  0.5052885E+02  0.7816164E-02  0.1300439E+00
        -11   -1    0    0    0    0  0.00000000000E+00  0.00000000000E+00  0.45593999997E+02  0.45594000000E+02  0.51100000000E-03 0. -1.
         11   -1    0    0    0    0 -0.00000000000E+00 -0.00000000000E+00 -0.45593999997E+02  0.45594000000E+02  0.51100000000E-03 0.  1.
    9900012    2    1    2    0    0 -0.29355910152E+02  0.27812177777E+02  0.42284466149E+01  0.50528850300E+02  0.29999970972E+02 0.  0.
        -12    1    1    2    0    0  0.29355910152E+02 -0.27812177777E+02 -0.42284466149E+01  0.40659149700E+02  0.00000000000E+00 0.  1.
         11    1    3    3    0    0 -0.53846536791E+01  0.15517906009E+02  0.35149491279E+01  0.16797463195E+02  0.51100000000E-03 0. -1.
        -11    1    3    3    0    0 -0.18624488853E+02  0.17390922148E+02 -0.26419385229E+01  0.25618266874E+02  0.51100000000E-03 0.  1.
         12    1    3    3    0    0 -0.53467676193E+01 -0.50966503800E+01  0.33554360098E+01  0.81131202313E+01  0.00000000000E+00 0. -1.
</event>
<event>
 7    1  0.2584640E-011  0.5052886E+02  0.7816164E-02  0.1300439E+00
        -11   -1    0    0    0    0  0.00000000000E+00  0.00000000000E+00  0.45593999997E+02  0.45594000000E+02  0.51100000000E-03 0.  1.
         11   -1    0    0    0    0 -0.00000000000E+00 -0.00000000000E+00 -0.45593999997E+02  0.45594000000E+02  0.51100000000E-03 0. -1.
    9900012    2    1    2    0    0 -0.37467406959E+02 -0.11574157682E+02 -0.10742327063E+02  0.50528864483E+02  0.30000014083E+02 0.  0.
        -12    1    1    2    0    0  0.37467406959E+02  0.11574157682E+02  0.10742327063E+02  0.40659135517E+02  0.00000000000E+00 0.  1.
         11    1    3    3    0    0 -0.11495189021E+02 -0.66704572975E+01 -0.97012421485E+01  0.16454436200E+02  0.51100000000E-03 0. -1.
        -11    1    3    3    0    0  0.23638021749E+01 -0.48969576292E+01 -0.18012922805E+01  0.57282116655E+01  0.51100000000E-03 0.  1.
        -12    1    3    3    0    0 -0.28336020112E+02 -0.67427550749E-02  0.76020736605E+00  0.28346216617E+02  0.00000000000E+00 0.  1.
</event>
<event>
 7    1  0.2584640E-011  0.5052884E+02  0.7816164E-02  0.1300439E+00
        -11   -1    0    0    0    0  0.00000000000E+00  0.00000000000E+00  0.45593999997E+02  0.45594000000E+02  0.51100000000E-03 0. -1.
         11   -1    0    0    0    0 -0.00000000000E+00 -0.00000000000E+00 -0.45593999997E+02  0.45594000000E+02  0.51100000000E-03 0.  1.
    9900012    2    1    2    0    0 -0.23669964347E+02  0.51182640088E+01  0.32660432187E+02  0.50528835359E+02  0.29999925556E+02 0.  0.
        -12    1    1    2    0    0  0.23669964347E+02 -0.51182640088E+01 -0.32660432187E+02  0.40659164641E+02  0.00000000000E+00 0.  1.
         11    1    3    3    0    0  0.11318989420E+00  0.68686959271E+01  0.24751228889E+01  0.73019195605E+01  0.51100000000E-03 0. -1.
        -11    1    3    3    0    0 -0.12047268460E+02 -0.98327465653E+01  0.98916229791E+01  0.18429969826E+02  0.51100000000E-03 0.  1.
         12    1    3    3    0    0 -0.11735885781E+02  0.80823146470E+01  0.20293686319E+02  0.24796945972E+02  0.00000000000E+00 0. -1.
</event>
<event>
 7    1  0.3804133E-011  0.5052885E+02  0.7816164E-02  0.1300439E+00
        -11   -1    0    0    0    0  0.00000000000E+00  0.00000000000E+00  0.45593999997E+02  0.45594000000E+02  0.51100000000E-03 0. -1.
         11   -1    0    0    0    0 -0.00000000000E+00 -0.00000000000E+00 -0.45593999997E+02  0.45594000000E+02  0.51100000000E-03 0.  1.
    9900012    2    1    2    0    0 -0.87996879411E+01  0.28848503993E+02  0.27267113552E+02  0.50528853773E+02  0.29999981528E+02 0.  0.
        -12    1    1    2    0    0  0.87996879411E+01 -0.28848503993E+02 -0.27267113552E+02  0.40659146227E+02  0.00000000000E+00 0.  1.
         11    1    3    3    0    0 -0.11163726306E+02  0.80025423961E+01  0.19214195667E+02  0.23618949707E+02  0.51100000000E-03 0. -1.
        -11    1    3    3    0    0  0.79320686999E+00  0.15301273712E+02  0.12384101599E+02  0.19700866149E+02  0.51100000000E-03 0.  1.
        -12    1    3    3    0    0  0.15708314953E+01  0.55446878848E+01 -0.43311837142E+01  0.72090379173E+01  0.00000000000E+00 0.  1.
</event>
<event>
 7    1  0.2584640E-011  0.5052885E+02  0.7816164E-02  0.1300439E+00
        -11   -1    0    0    0    0  0.00000000000E+00  0.00000000000E+00  0.45593999997E+02  0.45594000000E+02  0.51100000000E-03 0.  1.
         11   -1    0    0    0    0 -0.00000000000E+00 -0.00000000000E+00 -0.45593999997E+02  0.45594000000E+02  0.51100000000E-03 0. -1.
    9900012    2    1    2    0    0 -0.18348194169E+02  0.11558607281E+02 -0.34393441372E+02  0.50528850464E+02  0.29999971472E+02 0.  0.
        -12    1    1    2    0    0  0.18348194169E+02 -0.11558607281E+02  0.34393441372E+02  0.40659149536E+02  0.00000000000E+00 0.  1.
         11    1    3    3    0    0 -0.43074634008E+01  0.52434471104E+01  0.21462430880E+01  0.71171861155E+01  0.51100000000E-03 0. -1.
        -11    1    3    3    0    0 -0.86195883965E+01  0.12442766076E+02 -0.25771801483E+02  0.29888216469E+02  0.51100000000E-03 0.  1.
         12    1    3    3    0    0 -0.54211423716E+01 -0.61276059059E+01 -0.10767882977E+02  0.13523447880E+02  0.00000000000E+00 0. -1.
</event>
<event>
 7    1  0.2584640E-011  0.5052884E+02  0.7816164E-02  0.1300439E+00
        -11   -1    0    0    0    0  0.00000000000E+00  0.00000000000E+00  0.45593999997E+02  0.45594000000E+02  0.51100000000E-03 0.  1.
         11   -1    0    0    0    0 -0.00000000000E+00 -0.00000000000E+00 -0.45593999997E+02  0.45594000000E+02  0.51100000000E-03 0. -1.
    9900012    2    1    2    0    0  0.15652912459E+02  0.47599396000E+01 -0.37222258710E+02  0.50528840676E+02  0.29999941720E+02 0.  0.
        -12    1    1    2    0    0 -0.15652912459E+02 -0.47599396000E+01  0.37222258710E+02  0.40659159324E+02  0.00000000000E+00 0.  1.
         11    1    3    3    0    0 -0.19700648067E+01 -0.25597103673E+01 -0.10570725754E+02  0.11053212914E+02  0.51100000000E-03 0. -1.
        -11    1    3    3    0    0 -0.27645356072E+01  0.79591167797E+01 -0.10469500153E+02  0.13438773410E+02  0.51100000000E-03 0.  1.
         12    1    3    3    0    0  0.20387512873E+02 -0.63946681248E+00 -0.16182032803E+02  0.26036854353E+02  0.00000000000E+00 0. -1.
</event>
<event>
 7    1  0.2584640E-011  0.5052886E+02  0.7816164E-02  0.1300439E+00
        -11   -1    0    0    0    0  0.00000000000E+00  0.00000000000E+00  0.45593999997E+02  0.45594000000E+02  0.51100000000E-03 0.  1.
         11   -1    0    0    0    0 -0.00000000000E+00 -0.00000000000E+00 -0.45593999997E+02  0.45594000000E+02  0.51100000000E-03 0. -1.
    9900012    2    1    2    0    0  0.21204956009E+02  0.70830040767E+01 -0.33960954536E+02  0.50528861555E+02  0.30000005181E+02 0.  0.
        -12    1    1    2    0    0 -0.21204956009E+02 -0.70830040767E+01  0.33960954536E+02  0.40659138445E+02  0.00000000000E+00 0.  1.
         11    1    3    3    0    0 -0.76613309631E+00  0.46928267654E+01 -0.38854814524E+01  0.61405658819E+01  0.51100000000E-03 0. -1.
        -11    1    3    3    0    0  0.62184280484E+01  0.24853203347E+01 -0.27650390437E+02  0.28449776030E+02  0.51100000000E-03 0.  1.
        -12    1    3    3    0    0  0.15752661057E+02 -0.95143023416E-01 -0.24250826470E+01  0.15938519643E+02  0.00000000000E+00 0.  1.
</event>
<event>
 7    1  0.2584640E-011  0.5052884E+02  0.7816164E-02  0.1300439E+00
        -11   -1    0    0    0    0  0.00000000000E+00  0.00000000000E+00  0.45593999997E+02  0.45594000000E+02  0.51100000000E-03 0.  1.
         11   -1    0    0    0    0 -0.00000000000E+00 -0.00000000000E+00 -0.45593999997E+02  0.45594000000E+02  0.51100000000E-03 0. -1.
    9900012    2    1    2    0    0  0.20826162571E+02  0.23215812231E+02 -0.26085712533E+02  0.50528838876E+02  0.29999936246E+02 0.  0.
        -12    1    1    2    0    0 -0.20826162571E+02 -0.23215812231E+02  0.26085712533E+02  0.40659161124E+02  0.00000000000E+00 0.  1.
         11    1    3    3    0    0  0.16724451304E+01 -0.18682574222E+01  0.25924807036E+01  0.36067180330E+01  0.51100000000E-03 0. -1.
        -11    1    3    3    0    0  0.18071097406E+01  0.92370466188E+01 -0.19583565736E+02  0.21727970983E+02  0.51100000000E-03 0.  1.
         12    1    3    3    0    0  0.17346607700E+02  0.15847023035E+02 -0.90946275004E+01  0.25194149859E+02  0.00000000000E+00 0. -1.
</event>
<event>
 7    1  0.2584640E-011  0.5052886E+02  0.7816164E-02  0.1300439E+00
        -11   -1    0    0    0    0  0.00000000000E+00  0.00000000000E+00  0.45593999997E+02  0.45594000000E+02  0.51100000000E-03 0.  1.
         11   -1    0    0    0    0 -0.00000000000E+00 -0.00000000000E+00 -0.45593999997E+02  0.45594000000E+02  0.51100000000E-03 0. -1.
    9900012    2    1    2    0    0 -0.39319909596E+02 -0.59825556124E+01  0.84450610372E+01  0.50528864271E+02  0.30000013439E+02 0.  0.
        -12    1    1    2    0    0  0.39319909596E+02  0.59825556124E+01 -0.84450610372E+01  0.40659135729E+02  0.00000000000E+00 0.  1.
         11    1    3    3    0    0 -0.40605587787E+01 -0.59279766577E+00  0.99429996557E+01  0.10756523095E+02  0.51100000000E-03 0. -1.
        -11    1    3    3    0    0 -0.16368155186E+02 -0.11367784480E+02 -0.90459097317E+00  0.19948967724E+02  0.51100000000E-03 0.  1.
         12    1    3    3    0    0 -0.18891195631E+02  0.59780265333E+01 -0.59334764534E+00  0.19823373453E+02  0.00000000000E+00 0. -1.
</event>
<event>
 7    1  0.2584640E-011  0.5052884E+02  0.7816164E-02  0.1300439E+00
        -11   -1    0    0    0    0  0.00000000000E+00  0.00000000000E+00  0.45593999997E+02  0.45594000000E+02  0.51100000000E-03 0. -1.
         11   -1    0    0    0    0 -0.00000000000E+00 -0.00000000000E+00 -0.45593999997E+02  0.45594000000E+02  0.51100000000E-03 0.  1.
    9900012    2    1    2    0    0 -0.24143782828E+01  0.34051343103E+02  0.22087202277E+02  0.50528835055E+02  0.29999924634E+02 0.  0.
        -12    1    1    2    0    0  0.24143782828E+01 -0.34051343103E+02 -0.22087202277E+02  0.40659164945E+02  0.00000000000E+00 0.  1.
         11    1    3    3    0    0 -0.56967793762E+00  0.19733929855E+01  0.11061300223E+02  0.11250385581E+02  0.51100000000E-03 0. -1.
        -11    1    3    3    0    0 -0.22197612786E+01  0.22913327254E+02 -0.22628699913E+01  0.23131547438E+02  0.51100000000E-03 0.  1.
         12    1    3    3    0    0  0.37506093343E+00  0.91646228626E+01  0.13288772045E+02  0.16146902037E+02  0.00000000000E+00 0. -1.
</event>
<event>
 7    1  0.2584640E-011  0.5052886E+02  0.7816164E-02  0.1300439E+00
        -11   -1    0    0    0    0  0.00000000000E+00  0.00000000000E+00  0.45593999997E+02  0.45594000000E+02  0.51100000000E-03 0.  1.
         11   -1    0    0    0    0 -0.00000000000E+00 -0.00000000000E+00 -0.45593999997E+02  0.45594000000E+02  0.51100000000E-03 0. -1.
    9900012    2    1    2    0    0  0.35694157464E+02 -0.12374408737E+02 -0.15032187551E+02  0.50528861652E+02  0.30000005478E+02 0.  0.
        -12    1    1    2    0    0 -0.35694157464E+02  0.12374408737E+02  0.15032187551E+02  0.40659138348E+02  0.00000000000E+00 0.  1.
         11    1    3    3    0    0  0.11633429835E+02 -0.91676157114E+01 -0.37691297025E+01  0.15283592724E+02  0.51100000000E-03 0. -1.
        -11    1    3    3    0    0  0.14646900728E+02 -0.98572115416E+01  0.18910123460E+01  0.17755907419E+02  0.51100000000E-03 0.  1.
        -12    1    3    3    0    0  0.94138268998E+01  0.66504185162E+01 -0.13154070194E+02  0.17489361510E+02  0.00000000000E+00 0.  1.
</event>
<event>
 7    1  0.2584640E-011  0.5052885E+02  0.7816164E-02  0.1300439E+00
        -11   -1    0    0    0    0  0.00000000000E+00  0.00000000000E+00  0.45593999997E+02  0.45594000000E+02  0.51100000000E-03 0.  1.
         11   -1    0    0    0    0 -0.00000000000E+00 -0.00000000000E+00 -0.45593999997E+02  0.45594000000E+02  0.51100000000E-03 0. -1.
    9900012    2    1    2    0    0 -0.15663934863E+02  0.35017441401E+02 -0.13475387007E+02  0.50528854501E+02  0.29999983742E+02 0.  0.
        -12    1    1    2    0    0  0.15663934863E+02 -0.35017441401E+02  0.13475387007E+02  0.40659145499E+02  0.00000000000E+00 0.  1.
         11    1    3    3    0    0 -0.18436194297E+02  0.22740695509E+02 -0.12461300000E+02  0.31816921447E+02  0.51100000000E-03 0. -1.
        -11    1    3    3    0    0 -0.18367216572E+01  0.13727710358E+02 -0.88354748362E+00  0.13878192769E+02  0.51100000000E-03 0.  1.
        -12    1    3    3    0    0  0.46089810910E+01 -0.14509644662E+01 -0.13053952334E+00  0.48337402853E+01  0.00000000000E+00 0.  1.
</event>
<event>
 7    1  0.2584640E-011  0.5052879E+02  0.7816164E-02  0.1300439E+00
        -11   -1    0    0    0    0  0.00000000000E+00  0.00000000000E+00  0.45593999997E+02  0.45594000000E+02  0.51100000000E-03 0.  1.
         11   -1    0    0    0    0 -0.00000000000E+00 -0.00000000000E+00 -0.45593999997E+02  0.45594000000E+02  0.51100000000E-03 0. -1.
    9900012    2    1    2    0    0 -0.27415705092E+02  0.29080422782E+02 -0.74752445890E+01  0.50528792475E+02  0.29999795208E+02 0.  0.
        -12    1    1    2    0    0  0.27415705092E+02 -0.29080422782E+02  0.74752445890E+01  0.40659207525E+02  0.00000000000E+00 0.  1.
         11    1    3    3    0    0 -0.18836452663E+02  0.12894260435E+02  0.41348273893E+01  0.23198506393E+02  0.51100000000E-03 0. -1.
        -11    1    3    3    0    0  0.41963037880E+01  0.28849407316E+00 -0.92820811625E+00  0.43074081394E+01  0.51100000000E-03 0.  1.
         12    1    3    3    0    0 -0.12775556218E+02  0.15897668274E+02 -0.10681863862E+02  0.23022877943E+02  0.00000000000E+00 0. -1.
</event>
<event>
 7    1  0.2584640E-011  0.5052889E+02  0.7816164E-02  0.1300439E+00
        -11   -1    0    0    0    0  0.00000000000E+00  0.00000000000E+00  0.45593999997E+02  0.45594000000E+02  0.51100000000E-03 0.  1.
         11   -1    0    0    0    0 -0.00000000000E+00 -0.00000000000E+00 -0.45593999997E+02  0.45594000000E+02  0.51100000000E-03 0. -1.
    9900012    2    1    2    0    0 -0.31409293833E+02 -0.13266223962E+02 -0.22150099283E+02  0.50528888652E+02  0.30000087548E+02 0.  0.
        -12    1    1    2    0    0  0.31409293833E+02  0.13266223962E+02  0.22150099283E+02  0.40659111348E+02  0.00000000000E+00 0.  1.
         11    1    3    3    0    0 -0.16801639198E+02  0.87704538827E+00 -0.64239734463E+01  0.18009212183E+02  0.51100000000E-03 0. -1.
        -11    1    3    3    0    0  0.32842298509E+01  0.24169853590E+01 -0.25100545757E+01  0.47883565211E+01  0.51100000000E-03 0.  1.
        -12    1    3    3    0    0 -0.17891884486E+02 -0.16560254709E+02 -0.13216071261E+02  0.27731319949E+02  0.00000000000E+00 0.  1.
</event>
<event>
 7    1  0.2584640E-011  0.5052886E+02  0.7816164E-02  0.1300439E+00
        -11   -1    0    0    0    0  0.00000000000E+00  0.00000000000E+00  0.45593999997E+02  0.45594000000E+02  0.51100000000E-03 0.  1.
         11   -1    0    0    0    0 -0.00000000000E+00 -0.00000000000E+00 -0.45593999997E+02  0.45594000000E+02  0.51100000000E-03 0. -1.
    9900012    2    1    2    0    0 -0.16631386007E+02  0.23620303432E+02 -0.28611958880E+02  0.50528856801E+02  0.29999990732E+02 0.  0.
        -12    1    1    2    0    0  0.16631386007E+02 -0.23620303432E+02  0.28611958880E+02  0.40659143199E+02  0.00000000000E+00 0.  1.
         11    1    3    3    0    0 -0.17361175633E+02  0.19584500304E+02 -0.32356808726E+02  0.41616416745E+02  0.51100000000E-03 0. -1.
        -11    1    3    3    0    0 -0.25948116306E+01  0.36515869879E+01  0.10140774143E+01  0.45929824942E+01  0.51100000000E-03 0.  1.
        -12    1    3    3    0    0  0.33246012571E+01  0.38421614020E+00  0.27307724310E+01  0.43194575621E+01  0.00000000000E+00 0.  1.
</event>
<event>
 7    1  0.2584640E-011  0.5052886E+02  0.7816164E-02  0.1300439E+00
        -11   -1    0    0    0    0  0.00000000000E+00  0.00000000000E+00  0.45593999997E+02  0.45594000000E+02  0.51100000000E-03 0.  1.
         11   -1    0    0    0    0 -0.00000000000E+00 -0.00000000000E+00 -0.45593999997E+02  0.45594000000E+02  0.51100000000E-03 0. -1.
    9900012    2    1    2    0    0 -0.40209118573E+02 -0.21384294836E+01  0.56408966237E+01  0.50528858201E+02  0.29999994989E+02 0.  0.
        -12    1    1    2    0    0  0.40209118573E+02  0.21384294836E+01 -0.56408966237E+01  0.40659141799E+02  0.00000000000E+00 0.  1.
         11    1    3    3    0    0 -0.25712530406E+01 -0.86144647008E+01  0.75963191145E+01  0.11769639274E+02  0.51100000000E-03 0. -1.
        -11    1    3    3    0    0 -0.89675044059E+01 -0.94888373120E+00  0.56987251399E+00  0.90355559070E+01  0.51100000000E-03 0.  1.
        -12    1    3    3    0    0 -0.28670361127E+02  0.74249189485E+01 -0.25252950048E+01  0.29723663021E+02  0.00000000000E+00 0.  1.
</event>
<event>
 7    1  0.2584640E-011  0.5052885E+02  0.7816164E-02  0.1300439E+00
        -11   -1    0    0    0    0  0.00000000000E+00  0.00000000000E+00  0.45593999997E+02  0.45594000000E+02  0.51100000000E-03 0.  1.
         11   -1    0    0    0    0 -0.00000000000E+00 -0.00000000000E+00 -0.45593999997E+02  0.45594000000E+02  0.51100000000E-03 0. -1.
    9900012    2    1    2    0    0 -0.30203302896E+02  0.17789915228E+02 -0.20602075923E+02  0.50528854387E+02  0.29999983395E+02 0.  0.
        -12    1    1    2    0    0  0.30203302896E+02 -0.17789915228E+02  0.20602075923E+02  0.40659145613E+02  0.00000000000E+00 0.  1.
         11    1    3    3    0    0 -0.14533329704E+01 -0.14565452672E+01  0.75859229340E+00  0.21929804757E+01  0.51100000000E-03 0. -1.
        -11    1    3    3    0    0 -0.60801745814E+01  0.14471316813E+02 -0.19587376103E+02  0.25100853294E+02  0.51100000000E-03 0.  1.
         12    1    3    3    0    0 -0.22669795345E+02  0.47751436816E+01 -0.17732921133E+01  0.23235020617E+02  0.00000000000E+00 0. -1.
</event>
<event>
 7    1  0.2584640E-011  0.5052898E+02  0.7816164E-02  0.1300438E+00
        -11   -1    0    0    0    0  0.00000000000E+00  0.00000000000E+00  0.45593999997E+02  0.45594000000E+02  0.51100000000E-03 0. -1.
         11   -1    0    0    0    0 -0.00000000000E+00 -0.00000000000E+00 -0.45593999997E+02  0.45594000000E+02  0.51100000000E-03 0.  1.
    9900012    2    1    2    0    0  0.10179948240E+02  0.33748429646E+02  0.20262487875E+02  0.50528975607E+02  0.30000351852E+02 0.  0.
        -12    1    1    2    0    0 -0.10179948240E+02 -0.33748429646E+02 -0.20262487875E+02  0.40659024393E+02  0.00000000000E+00 0.  1.
         11    1    3    3    0    0 -0.42245715027E+01  0.12951368586E+02  0.44390205800E+01  0.14327939720E+02  0.51100000000E-03 0.  1.
        -11    1    3    3    0    0  0.90456451159E+01  0.17065202707E+02  0.25235459844E+00  0.19316017242E+02  0.51100000000E-03 0. -1.
         12    1    3    3    0    0  0.53588746264E+01  0.37318583528E+01  0.15571112697E+02  0.16885018645E+02  0.00000000000E+00 0. -1.
</event>
<event>
 7    1  0.2584640E-011  0.5052886E+02  0.7816164E-02  0.1300439E+00
        -11   -1    0    0    0    0  0.00000000000E+00  0.00000000000E+00  0.45593999997E+02  0.45594000000E+02  0.51100000000E-03 0.  1.
         11   -1    0    0    0    0 -0.00000000000E+00 -0.00000000000E+00 -0.45593999997E+02  0.45594000000E+02  0.51100000000E-03 0. -1.
    9900012    2    1    2    0    0  0.26548131827E+02 -0.29795560329E+02 -0.77837614229E+01  0.50528860059E+02  0.30000000635E+02 0.  0.
        -12    1    1    2    0    0 -0.26548131827E+02  0.29795560329E+02  0.77837614229E+01  0.40659139941E+02  0.00000000000E+00 0.  1.
         11    1    3    3    0    0  0.95004828206E+01 -0.11356070343E+02 -0.10923580090E+02  0.18399568194E+02  0.51100000000E-03 0. -1.
        -11    1    3    3    0    0  0.88728181098E+01  0.15942801036E+01  0.51777929737E+01  0.10396065150E+02  0.51100000000E-03 0.  1.
         12    1    3    3    0    0  0.81748308969E+01 -0.20033770089E+02 -0.20379743063E+01  0.21733226715E+02  0.00000000000E+00 0. -1.
</event>
<event>
 7    1  0.2584640E-011  0.5052886E+02  0.7816164E-02  0.1300439E+00
        -11   -1    0    0    0    0  0.00000000000E+00  0.00000000000E+00  0.45593999997E+02  0.45594000000E+02  0.51100000000E-03 0. -1.
         11   -1    0    0    0    0 -0.00000000000E+00 -0.00000000000E+00 -0.45593999997E+02  0.45594000000E+02  0.51100000000E-03 0.  1.
    9900012    2    1    2    0    0  0.34393090323E+02  0.19229844173E+01  0.21600528611E+02  0.50528863667E+02  0.30000011604E+02 0.  0.
        -12    1    1    2    0    0 -0.34393090323E+02 -0.19229844173E+01 -0.21600528611E+02  0.40659136333E+02  0.00000000000E+00 0.  1.
         11    1    3    3    0    0  0.23988270617E+01 -0.45705111368E+01  0.79641939534E+01  0.94906442833E+01  0.51100000000E-03 0. -1.
        -11    1    3    3    0    0  0.63716898107E+01  0.73991982699E+01  0.11825358208E+02  0.15335764184E+02  0.51100000000E-03 0.  1.
        -12    1    3    3    0    0  0.25622573450E+02 -0.90570271576E+00  0.18109764495E+01  0.25702455200E+02  0.00000000000E+00 0.  1.
</event>
<event>
 7    1  0.2584640E-011  0.5052885E+02  0.7816164E-02  0.1300439E+00
        -11   -1    0    0    0    0  0.00000000000E+00  0.00000000000E+00  0.45593999997E+02  0.45594000000E+02  0.51100000000E-03 0. -1.
         11   -1    0    0    0    0 -0.00000000000E+00 -0.00000000000E+00 -0.45593999997E+02  0.45594000000E+02  0.51100000000E-03 0.  1.
    9900012    2    1    2    0    0 -0.94676617863E+01 -0.11633140324E+02  0.37791529430E+02  0.50528852565E+02  0.29999977858E+02 0.  0.
        -12    1    1    2    0    0  0.94676617863E+01  0.11633140324E+02 -0.37791529430E+02  0.40659147435E+02  0.00000000000E+00 0.  1.
         11    1    3    3    0    0 -0.80066497273E+01  0.11828858403E-01  0.37287808541E+01  0.88323488776E+01  0.51100000000E-03 0. -1.
        -11    1    3    3    0    0  0.53192627414E+01  0.20882558399E+01  0.18138458148E+01  0.59954487293E+01  0.51100000000E-03 0.  1.
         12    1    3    3    0    0 -0.67802748004E+01 -0.13733225022E+02  0.32248902761E+02  0.35701054958E+02  0.00000000000E+00 0. -1.
</event>
<event>
 7    1  0.2584640E-011  0.5052887E+02  0.7816164E-02  0.1300439E+00
        -11   -1    0    0    0    0  0.00000000000E+00  0.00000000000E+00  0.45593999997E+02  0.45594000000E+02  0.51100000000E-03 0.  1.
         11   -1    0    0    0    0 -0.00000000000E+00 -0.00000000000E+00 -0.45593999997E+02  0.45594000000E+02  0.51100000000E-03 0. -1.
    9900012    2    1    2    0    0 -0.33984955864E+02  0.22308236583E+02  0.72805617072E+00  0.50528871747E+02  0.30000036162E+02 0.  0.
        -12    1    1    2    0    0  0.33984955864E+02 -0.22308236583E+02 -0.72805617072E+00  0.40659128253E+02  0.00000000000E+00 0.  1.
         11    1    3    3    0    0  0.30492756618E+01  0.57405784911E+01  0.37083204157E+01  0.74835796275E+01  0.51100000000E-03 0. -1.
        -11    1    3    3    0    0 -0.88279487913E+01  0.32931324079E+01 -0.68263036794E+01  0.11635111650E+02  0.51100000000E-03 0.  1.
        -12    1    3    3    0    0 -0.28206282734E+02  0.13274525684E+02  0.38460394344E+01  0.31410180470E+02  0.00000000000E+00 0.  1.
</event>
<event>
 7    1  0.2584640E-011  0.5052887E+02  0.7816164E-02  0.1300439E+00
        -11   -1    0    0    0    0  0.00000000000E+00  0.00000000000E+00  0.45593999997E+02  0.45594000000E+02  0.51100000000E-03 0.  1.
         11   -1    0    0    0    0 -0.00000000000E+00 -0.00000000000E+00 -0.45593999997E+02  0.45594000000E+02  0.51100000000E-03 0. -1.
    9900012    2    1    2    0    0  0.77499084953E+01 -0.23923238892E+02 -0.31949683518E+02  0.50528871656E+02  0.30000035885E+02 0.  0.
        -12    1    1    2    0    0 -0.77499084953E+01  0.23923238892E+02  0.31949683518E+02  0.40659128344E+02  0.00000000000E+00 0.  1.
         11    1    3    3    0    0  0.28367944810E+01 -0.71858640957E+01 -0.11617708380E+02  0.13951888546E+02  0.51100000000E-03 0. -1.
        -11    1    3    3    0    0  0.29078487031E+01 -0.21015097560E+02 -0.68540496259E+01  0.22295019760E+02  0.51100000000E-03 0.  1.
        -12    1    3    3    0    0  0.20052653112E+01  0.42777227640E+01 -0.13477925513E+02  0.14281963350E+02  0.00000000000E+00 0.  1.
</event>
<event>
 7    1  0.2584640E-011  0.5052886E+02  0.7816164E-02  0.1300439E+00
        -11   -1    0    0    0    0  0.00000000000E+00  0.00000000000E+00  0.45593999997E+02  0.45594000000E+02  0.51100000000E-03 0.  1.
         11   -1    0    0    0    0 -0.00000000000E+00 -0.00000000000E+00 -0.45593999997E+02  0.45594000000E+02  0.51100000000E-03 0. -1.
    9900012    2    1    2    0    0  0.32867057639E+02  0.23771447561E+02  0.28000523467E+01  0.50528862157E+02  0.30000007012E+02 0.  0.
        -12    1    1    2    0    0 -0.32867057639E+02 -0.23771447561E+02 -0.28000523467E+01  0.40659137843E+02  0.00000000000E+00 0.  1.
         11    1    3    3    0    0  0.24844875335E+02  0.60005556572E+01 -0.58467751795E+00  0.25565921588E+02  0.51100000000E-03 0.  1.
        -11    1    3    3    0    0  0.91245117929E+01  0.98268960161E+01 -0.40693514641E+01  0.14013715509E+02  0.51100000000E-03 0. -1.
        -12    1    3    3    0    0 -0.11023294881E+01  0.79439958872E+01  0.74540813287E+01  0.10949225060E+02  0.00000000000E+00 0.  1.
</event>
<event>
 7    1  0.2584640E-011  0.5052886E+02  0.7816164E-02  0.1300439E+00
        -11   -1    0    0    0    0  0.00000000000E+00  0.00000000000E+00  0.45593999997E+02  0.45594000000E+02  0.51100000000E-03 0.  1.
         11   -1    0    0    0    0 -0.00000000000E+00 -0.00000000000E+00 -0.45593999997E+02  0.45594000000E+02  0.51100000000E-03 0. -1.
    9900012    2    1    2    0    0 -0.32932695858E+02 -0.21858894962E+02  0.95284794046E+01  0.50528860004E+02  0.30000000469E+02 0.  0.
        -12    1    1    2    0    0  0.32932695858E+02  0.21858894962E+02 -0.95284794046E+01  0.40659139996E+02  0.00000000000E+00 0.  1.
         11    1    3    3    0    0 -0.16617353332E+02 -0.19120975252E+02  0.19281650810E+01  0.25406021868E+02  0.51100000000E-03 0. -1.
        -11    1    3    3    0    0 -0.81326002066E+01 -0.82012200164E+01  0.96760014687E+01  0.15067322276E+02  0.51100000000E-03 0.  1.
         12    1    3    3    0    0 -0.81827423189E+01  0.54633003057E+01 -0.20756871451E+01  0.10055515860E+02  0.00000000000E+00 0. -1.
</event>
<event>
 7    1  0.2584640E-011  0.5052887E+02  0.7816164E-02  0.1300439E+00
        -11   -1    0    0    0    0  0.00000000000E+00  0.00000000000E+00  0.45593999997E+02  0.45594000000E+02  0.51100000000E-03 0.  1.
         11   -1    0    0    0    0 -0.00000000000E+00 -0.00000000000E+00 -0.45593999997E+02  0.45594000000E+02  0.51100000000E-03 0. -1.
    9900012    2    1    2    0    0  0.90051380339E+01 -0.43414559248E+01 -0.39410966275E+02  0.50528868021E+02  0.30000024837E+02 0.  0.
        -12    1    1    2    0    0 -0.90051380339E+01  0.43414559248E+01  0.39410966275E+02  0.40659131979E+02  0.00000000000E+00 0.  1.
         11    1    3    3    0    0  0.83362939929E+01  0.13640479657E+01 -0.20590712006E+02  0.22256051886E+02  0.51100000000E-03 0. -1.
        -11    1    3    3    0    0  0.12763217621E+01  0.68826742830E+01 -0.20482866901E+01  0.72935369439E+01  0.51100000000E-03 0.  1.
        -12    1    3    3    0    0 -0.60747772109E+00 -0.12588178174E+02 -0.16771967579E+02  0.20979279191E+02  0.00000000000E+00 0.  1.
</event>
<event>
 7    1  0.2584640E-011  0.5052886E+02  0.7816164E-02  0.1300439E+00
        -11   -1    0    0    0    0  0.00000000000E+00  0.00000000000E+00  0.45593999997E+02  0.45594000000E+02  0.51100000000E-03 0.  1.
         11   -1    0    0    0    0 -0.00000000000E+00 -0.00000000000E+00 -0.45593999997E+02  0.45594000000E+02  0.51100000000E-03 0. -1.
    9900012    2    1    2    0    0  0.99693384531E+01 -0.33493474367E+02  0.20783763506E+02  0.50528863759E+02  0.30000011883E+02 0.  0.
        -12    1    1    2    0    0 -0.99693384531E+01  0.33493474367E+02 -0.20783763506E+02  0.40659136241E+02  0.00000000000E+00 0.  1.
         11    1    3    3    0    0  0.34748423530E+01 -0.39549179715E+00 -0.30549994027E+01  0.46437016217E+01  0.51100000000E-03 0. -1.
        -11    1    3    3    0    0 -0.24541887395E+01 -0.26117366713E+01 -0.27000206810E+01  0.44871285638E+01  0.51100000000E-03 0.  1.
        -12    1    3    3    0    0  0.89486848397E+01 -0.30486245898E+02  0.26538783590E+02  0.41398033574E+02  0.00000000000E+00 0.  1.
</event>
<event>
 7    1  0.2584640E-011  0.5052887E+02  0.7816164E-02  0.1300439E+00
        -11   -1    0    0    0    0  0.00000000000E+00  0.00000000000E+00  0.45593999997E+02  0.45594000000E+02  0.51100000000E-03 0.  1.
         11   -1    0    0    0    0 -0.00000000000E+00 -0.00000000000E+00 -0.45593999997E+02  0.45594000000E+02  0.51100000000E-03 0. -1.
    9900012    2    1    2    0    0  0.18348895273E+02 -0.35851385107E+02 -0.55822412453E+01  0.50528865858E+02  0.30000018262E+02 0.  0.
        -12    1    1    2    0    0 -0.18348895273E+02  0.35851385107E+02  0.55822412453E+01  0.40659134142E+02  0.00000000000E+00 0.  1.
         11    1    3    3    0    0  0.11080663165E+02 -0.12469113010E+02  0.34921269371E+01  0.17042735292E+02  0.51100000000E-03 0. -1.
        -11    1    3    3    0    0 -0.26761719187E+01 -0.16257423947E+01  0.48754144363E+01  0.57943593830E+01  0.51100000000E-03 0.  1.
         12    1    3    3    0    0  0.99444040265E+01 -0.21756529703E+02 -0.13949782619E+02  0.27691771183E+02  0.00000000000E+00 0. -1.
</event>
<event>
 7    1  0.2584640E-011  0.5052886E+02  0.7816164E-02  0.1300439E+00
        -11   -1    0    0    0    0  0.00000000000E+00  0.00000000000E+00  0.45593999997E+02  0.45594000000E+02  0.51100000000E-03 0.  1.
         11   -1    0    0    0    0 -0.00000000000E+00 -0.00000000000E+00 -0.45593999997E+02  0.45594000000E+02  0.51100000000E-03 0. -1.
    9900012    2    1    2    0    0  0.69269319013E+00  0.29322985947E+02 -0.28157562409E+02  0.50528860197E+02  0.30000001055E+02 0.  0.
        -12    1    1    2    0    0 -0.69269319013E+00 -0.29322985947E+02  0.28157562409E+02  0.40659139803E+02  0.00000000000E+00 0.  1.
         11    1    3    3    0    0  0.53803038730E+01 -0.28942080642E+01 -0.64346652827E+00  0.61431392235E+01  0.51100000000E-03 0. -1.
        -11    1    3    3    0    0 -0.42174674782E+01  0.55118710860E+01 -0.14984628889E+01  0.71002215521E+01  0.51100000000E-03 0.  1.
         12    1    3    3    0    0 -0.47014320467E+00  0.26705322925E+02 -0.26015632992E+02  0.37285499422E+02  0.00000000000E+00 0. -1.
</event>
<event>
 7    1  0.2584640E-011  0.5052885E+02  0.7816164E-02  0.1300439E+00
        -11   -1    0    0    0    0  0.00000000000E+00  0.00000000000E+00  0.45593999997E+02  0.45594000000E+02  0.51100000000E-03 0.  1.
         11   -1    0    0    0    0 -0.00000000000E+00 -0.00000000000E+00 -0.45593999997E+02  0.45594000000E+02  0.51100000000E-03 0. -1.
    9900012    2    1    2    0    0  0.14590346286E+02  0.33264953086E+02  0.18268309730E+02  0.50528850367E+02  0.29999971175E+02 0.  0.
        -12    1    1    2    0    0 -0.14590346286E+02 -0.33264953086E+02 -0.18268309730E+02  0.40659149633E+02  0.00000000000E+00 0.  1.
         11    1    3    3    0    0  0.14069546888E+02  0.12619322903E+02  0.10585040234E+02  0.21662006767E+02  0.51100000000E-03 0. -1.
        -11    1    3    3    0    0  0.32457337874E+01  0.22536007766E+02  0.99521321836E+01  0.24848568754E+02  0.51100000000E-03 0.  1.
        -12    1    3    3    0    0 -0.27249343896E+01 -0.18903775838E+01 -0.22688626881E+01  0.40182748456E+01  0.00000000000E+00 0.  1.
</event>
<event>
 7    1  0.2584640E-011  0.5052887E+02  0.7816164E-02  0.1300439E+00
        -11   -1    0    0    0    0  0.00000000000E+00  0.00000000000E+00  0.45593999997E+02  0.45594000000E+02  0.51100000000E-03 0.  1.
         11   -1    0    0    0    0 -0.00000000000E+00 -0.00000000000E+00 -0.45593999997E+02  0.45594000000E+02  0.51100000000E-03 0. -1.
    9900012    2    1    2    0    0  0.70763555189E+01 -0.14487399338E+02 -0.37325669845E+02  0.50528866015E+02  0.30000018740E+02 0.  0.
        -12    1    1    2    0    0 -0.70763555189E+01  0.14487399338E+02  0.37325669845E+02  0.40659133985E+02  0.00000000000E+00 0.  1.
         11    1    3    3    0    0  0.24466379865E+01 -0.59447261484E+01 -0.11225995138E+02  0.12936335398E+02  0.51100000000E-03 0. -1.
        -11    1    3    3    0    0  0.86777915822E+01  0.35825337358E+01 -0.22395330298E+02  0.24283521864E+02  0.51100000000E-03 0.  1.
        -12    1    3    3    0    0 -0.40480740498E+01 -0.12125206926E+02 -0.37043444086E+01  0.13309008754E+02  0.00000000000E+00 0.  1.
</event>
<event>
 7    1  0.2584640E-011  0.5052886E+02  0.7816164E-02  0.1300439E+00
        -11   -1    0    0    0    0  0.00000000000E+00  0.00000000000E+00  0.45593999997E+02  0.45594000000E+02  0.51100000000E-03 0.  1.
         11   -1    0    0    0    0 -0.00000000000E+00 -0.00000000000E+00 -0.45593999997E+02  0.45594000000E+02  0.51100000000E-03 0. -1.
    9900012    2    1    2    0    0  0.28778406747E+02 -0.27014259324E+02 -0.97569852059E+01  0.50528860043E+02  0.30000000588E+02 0.  0.
        -12    1    1    2    0    0 -0.28778406747E+02  0.27014259324E+02  0.97569852059E+01  0.40659139957E+02  0.00000000000E+00 0.  1.
         11    1    3    3    0    0 -0.21275100648E+01 -0.11131165998E+02 -0.46501508445E+01  0.12249614634E+02  0.51100000000E-03 0. -1.
        -11    1    3    3    0    0  0.51851479980E+01  0.29353034454E+00 -0.59306712824E+01  0.78831961757E+01  0.51100000000E-03 0.  1.
        -12    1    3    3    0    0  0.25720768813E+02 -0.16176623670E+02  0.82383692097E+00  0.30396049233E+02  0.00000000000E+00 0.  1.
</event>
<event>
 7    1  0.2584640E-011  0.5052886E+02  0.7816164E-02  0.1300439E+00
        -11   -1    0    0    0    0  0.00000000000E+00  0.00000000000E+00  0.45593999997E+02  0.45594000000E+02  0.51100000000E-03 0.  1.
         11   -1    0    0    0    0 -0.00000000000E+00 -0.00000000000E+00 -0.45593999997E+02  0.45594000000E+02  0.51100000000E-03 0. -1.
    9900012    2    1    2    0    0 -0.22005607224E+02  0.22903725462E+02 -0.25383821699E+02  0.50528858427E+02  0.29999995676E+02 0.  0.
        -12    1    1    2    0    0  0.22005607224E+02 -0.22903725462E+02  0.25383821699E+02  0.40659141573E+02  0.00000000000E+00 0.  1.
         11    1    3    3    0    0 -0.19806733889E+01  0.13474019454E+02 -0.24664659391E+02  0.28174770460E+02  0.51100000000E-03 0. -1.
        -11    1    3    3    0    0 -0.34534910476E+01  0.27428820918E+01 -0.81091424480E+00  0.44841481643E+01  0.51100000000E-03 0.  1.
         12    1    3    3    0    0 -0.16571442788E+02  0.66868239168E+01  0.91751936383E-01  0.17869939803E+02  0.00000000000E+00 0. -1.
</event>
<event>
 7    1  0.2584640E-011  0.5052886E+02  0.7816164E-02  0.1300439E+00
        -11   -1    0    0    0    0  0.00000000000E+00  0.00000000000E+00  0.45593999997E+02  0.45594000000E+02  0.51100000000E-03 0.  1.
         11   -1    0    0    0    0 -0.00000000000E+00 -0.00000000000E+00 -0.45593999997E+02  0.45594000000E+02  0.51100000000E-03 0. -1.
    9900012    2    1    2    0    0  0.20504602082E+02 -0.35066656578E+02 -0.17482188731E+01  0.50528863520E+02  0.30000011155E+02 0.  0.
        -12    1    1    2    0    0 -0.20504602082E+02  0.35066656578E+02  0.17482188731E+01  0.40659136480E+02  0.00000000000E+00 0.  1.
         11    1    3    3    0    0  0.58158360652E+01 -0.12405667989E+02  0.45950726344E+01  0.14451271230E+02  0.51100000000E-03 0. -1.
        -11    1    3    3    0    0  0.27723865437E+01  0.27581261976E+01  0.45186139948E+01  0.59758898889E+01  0.51100000000E-03 0.  1.
         12    1    3    3    0    0  0.11916379473E+02 -0.25419114786E+02 -0.10861905502E+02  0.30101702400E+02  0.00000000000E+00 0. -1.
</event>
<event>
 7    1  0.2584640E-011  0.5052887E+02  0.7816164E-02  0.1300439E+00
        -11   -1    0    0    0    0  0.00000000000E+00  0.00000000000E+00  0.45593999997E+02  0.45594000000E+02  0.51100000000E-03 0.  1.
         11   -1    0    0    0    0 -0.00000000000E+00 -0.00000000000E+00 -0.45593999997E+02  0.45594000000E+02  0.51100000000E-03 0. -1.
    9900012    2    1    2    0    0 -0.76746539397E+01 -0.16853946443E+01 -0.39892659758E+02  0.50528866084E+02  0.30000018949E+02 0.  0.
        -12    1    1    2    0    0  0.76746539397E+01  0.16853946443E+01  0.39892659758E+02  0.40659133916E+02  0.00000000000E+00 0.  1.
         11    1    3    3    0    0 -0.43867717236E+01 -0.85816677311E+01 -0.20826163252E+02  0.22948155988E+02  0.51100000000E-03 0. -1.
        -11    1    3    3    0    0  0.62413717065E+01 -0.15296448281E+01 -0.30096335359E+01  0.70959445009E+01  0.51100000000E-03 0.  1.
        -12    1    3    3    0    0 -0.95292539226E+01  0.84259179149E+01 -0.16056862970E+02  0.20484765595E+02  0.00000000000E+00 0.  1.
</event>
<event>
 7    1  0.2584640E-011  0.5052889E+02  0.7816164E-02  0.1300439E+00
        -11   -1    0    0    0    0  0.00000000000E+00  0.00000000000E+00  0.45593999997E+02  0.45594000000E+02  0.51100000000E-03 0.  1.
         11   -1    0    0    0    0 -0.00000000000E+00 -0.00000000000E+00 -0.45593999997E+02  0.45594000000E+02  0.51100000000E-03 0. -1.
    9900012    2    1    2    0    0  0.32687871984E+02  0.16201661322E+01 -0.24125532802E+02  0.50528889752E+02  0.30000090891E+02 0.  0.
        -12    1    1    2    0    0 -0.32687871984E+02 -0.16201661322E+01  0.24125532802E+02  0.40659110248E+02  0.00000000000E+00 0.  1.
         11    1    3    3    0    0 -0.18354624730E+01 -0.35356962225E+01  0.12247854445E+01  0.41677535813E+01  0.51100000000E-03 0. -1.
        -11    1    3    3    0    0 -0.16087160165E+01  0.40745933031E+00 -0.34906397023E+01  0.38650428355E+01  0.51100000000E-03 0.  1.
         12    1    3    3    0    0  0.36132050474E+02  0.47484030245E+01 -0.21859678544E+02  0.42496093336E+02  0.00000000000E+00 0. -1.
</event>
<event>
 7    1  0.2584640E-011  0.5052886E+02  0.7816164E-02  0.1300439E+00
        -11   -1    0    0    0    0  0.00000000000E+00  0.00000000000E+00  0.45593999997E+02  0.45594000000E+02  0.51100000000E-03 0. -1.
         11   -1    0    0    0    0 -0.00000000000E+00 -0.00000000000E+00 -0.45593999997E+02  0.45594000000E+02  0.51100000000E-03 0.  1.
    9900012    2    1    2    0    0 -0.36472873413E+02  0.17809110763E+02 -0.23938473231E+01  0.50528862944E+02  0.30000009405E+02 0.  0.
        -12    1    1    2    0    0  0.36472873413E+02 -0.17809110763E+02  0.23938473231E+01  0.40659137056E+02  0.00000000000E+00 0.  1.
         11    1    3    3    0    0 -0.24642490020E+02  0.58439224917E+01 -0.91546536349E+01  0.26929749867E+02  0.51100000000E-03 0. -1.
        -11    1    3    3    0    0 -0.15468503189E+01 -0.30090582404E+01 -0.14292265155E+01  0.36728553057E+01  0.51100000000E-03 0.  1.
         12    1    3    3    0    0 -0.10283533074E+02  0.14974246511E+02  0.81900328272E+01  0.19926257771E+02  0.00000000000E+00 0. -1.
</event>
<event>
 7    1  0.2584640E-011  0.5052886E+02  0.7816164E-02  0.1300439E+00
        -11   -1    0    0    0    0  0.00000000000E+00  0.00000000000E+00  0.45593999997E+02  0.45594000000E+02  0.51100000000E-03 0.  1.
         11   -1    0    0    0    0 -0.00000000000E+00 -0.00000000000E+00 -0.45593999997E+02  0.45594000000E+02  0.51100000000E-03 0. -1.
    9900012    2    1    2    0    0 -0.44141020058E+01 -0.16360584541E+02 -0.36959612253E+02  0.50528856368E+02  0.29999989415E+02 0.  0.
        -12    1    1    2    0    0  0.44141020058E+01  0.16360584541E+02  0.36959612253E+02  0.40659143632E+02  0.00000000000E+00 0.  1.
         11    1    3    3    0    0  0.83458632476E+01 -0.10927273109E+02 -0.15319038744E+02  0.20584743847E+02  0.51100000000E-03 0. -1.
        -11    1    3    3    0    0 -0.67627179276E+01 -0.10131215969E+02 -0.88494113208E+01  0.15056160592E+02  0.51100000000E-03 0.  1.
         12    1    3    3    0    0 -0.59972473258E+01  0.46979045366E+01 -0.12791162188E+02  0.14887951929E+02  0.00000000000E+00 0. -1.
</event>
<event>
 7    1  0.2584640E-011  0.5052886E+02  0.7816164E-02  0.1300439E+00
        -11   -1    0    0    0    0  0.00000000000E+00  0.00000000000E+00  0.45593999997E+02  0.45594000000E+02  0.51100000000E-03 0.  1.
         11   -1    0    0    0    0 -0.00000000000E+00 -0.00000000000E+00 -0.45593999997E+02  0.45594000000E+02  0.51100000000E-03 0. -1.
    9900012    2    1    2    0    0  0.27050348937E+02  0.67141863021E+00 -0.30347874915E+02  0.50528859670E+02  0.29999999452E+02 0.  0.
        -12    1    1    2    0    0 -0.27050348937E+02 -0.67141863021E+00  0.30347874915E+02  0.40659140330E+02  0.00000000000E+00 0.  1.
         11    1    3    3    0    0  0.28429769659E+02 -0.43447238983E+00 -0.20470156536E+02  0.35035237662E+02  0.51100000000E-03 0. -1.
        -11    1    3    3    0    0  0.84408546877E+00  0.45833481007E+01  0.13619046632E+00  0.46624144169E+01  0.51100000000E-03 0.  1.
        -12    1    3    3    0    0 -0.22235061914E+01 -0.34774570806E+01 -0.10013908845E+02  0.10831207591E+02  0.00000000000E+00 0.  1.
</event>
<event>
 7    1  0.2584640E-011  0.5052886E+02  0.7816164E-02  0.1300439E+00
        -11   -1    0    0    0    0  0.00000000000E+00  0.00000000000E+00  0.45593999997E+02  0.45594000000E+02  0.51100000000E-03 0. -1.
         11   -1    0    0    0    0 -0.00000000000E+00 -0.00000000000E+00 -0.45593999997E+02  0.45594000000E+02  0.51100000000E-03 0.  1.
    9900012    2    1    2    0    0 -0.26379614978E+01  0.38408150219E+02  0.13077491747E+02  0.50528860382E+02  0.30000001616E+02 0.  0.
        -12    1    1    2    0    0  0.26379614978E+01 -0.38408150219E+02 -0.13077491747E+02  0.40659139618E+02  0.00000000000E+00 0.  1.
         11    1    3    3    0    0 -0.10761633133E+02  0.16273319663E+02 -0.16313393179E+01  0.19577919929E+02  0.51100000000E-03 0. -1.
        -11    1    3    3    0    0 -0.27422747938E+01  0.12176097046E+02  0.62829927815E+01  0.13973310591E+02  0.51100000000E-03 0.  1.
        -12    1    3    3    0    0  0.10865946429E+02  0.99587335100E+01  0.84258382834E+01  0.16977629861E+02  0.00000000000E+00 0.  1.
</event>
<event>
 7    1  0.2584640E-011  0.5052885E+02  0.7816164E-02  0.1300439E+00
        -11   -1    0    0    0    0  0.00000000000E+00  0.00000000000E+00  0.45593999997E+02  0.45594000000E+02  0.51100000000E-03 0.  1.
         11   -1    0    0    0    0 -0.00000000000E+00 -0.00000000000E+00 -0.45593999997E+02  0.45594000000E+02  0.51100000000E-03 0. -1.
    9900012    2    1    2    0    0 -0.18244943280E+02 -0.35995720650E+02 -0.49595011699E+01  0.50528849588E+02  0.29999968808E+02 0.  0.
        -12    1    1    2    0    0  0.18244943280E+02  0.35995720650E+02  0.49595011699E+01  0.40659150412E+02  0.00000000000E+00 0.  1.
         11    1    3    3    0    0  0.48980089782E+00 -0.53982453807E+01 -0.41118168505E+01  0.68035282158E+01  0.51100000000E-03 0. -1.
        -11    1    3    3    0    0 -0.11778849666E+02 -0.23273422710E+02 -0.11971044485E+02  0.28700163944E+02  0.51100000000E-03 0.  1.
         12    1    3    3    0    0 -0.69558945121E+01 -0.73240525587E+01  0.11123360166E+02  0.15025157428E+02  0.00000000000E+00 0. -1.
</event>
<event>
 7    1  0.2584640E-011  0.5052885E+02  0.7816164E-02  0.1300439E+00
        -11   -1    0    0    0    0  0.00000000000E+00  0.00000000000E+00  0.45593999997E+02  0.45594000000E+02  0.51100000000E-03 0.  1.
         11   -1    0    0    0    0 -0.00000000000E+00 -0.00000000000E+00 -0.45593999997E+02  0.45594000000E+02  0.51100000000E-03 0. -1.
    9900012    2    1    2    0    0  0.22879539053E+02 -0.18178627810E+02 -0.28270674596E+02  0.50528845331E+02  0.29999955867E+02 0.  0.
        -12    1    1    2    0    0 -0.22879539053E+02  0.18178627810E+02  0.28270674596E+02  0.40659154669E+02  0.00000000000E+00 0.  1.
         11    1    3    3    0    0  0.67608538009E+01 -0.12774117976E+02 -0.24405911031E+02  0.28364339013E+02  0.51100000000E-03 0. -1.
        -11    1    3    3    0    0  0.11437995580E+02 -0.16878339522E+01 -0.87058650871E+01  0.14473030558E+02  0.51100000000E-03 0.  1.
        -12    1    3    3    0    0  0.46806896714E+01 -0.37166758824E+01  0.48411015220E+01  0.76914757596E+01  0.00000000000E+00 0.  1.
</event>
<event>
 7    1  0.2584640E-011  0.5052887E+02  0.7816164E-02  0.1300439E+00
        -11   -1    0    0    0    0  0.00000000000E+00  0.00000000000E+00  0.45593999997E+02  0.45594000000E+02  0.51100000000E-03 0.  1.
         11   -1    0    0    0    0 -0.00000000000E+00 -0.00000000000E+00 -0.45593999997E+02  0.45594000000E+02  0.51100000000E-03 0. -1.
    9900012    2    1    2    0    0  0.16432422997E+02 -0.80893446888E+01 -0.36300181222E+02  0.50528865973E+02  0.30000018613E+02 0.  0.
        -12    1    1    2    0    0 -0.16432422997E+02  0.80893446888E+01  0.36300181222E+02  0.40659134027E+02  0.00000000000E+00 0.  1.
         11    1    3    3    0    0  0.31279604803E+01 -0.31807738741E+01 -0.84175309679E+01  0.95266094211E+01  0.51100000000E-03 0. -1.
        -11    1    3    3    0    0  0.18119897811E+02  0.42506155401E+01 -0.12343605316E+02  0.22333002969E+02  0.51100000000E-03 0.  1.
        -12    1    3    3    0    0 -0.48154352952E+01 -0.91591863548E+01 -0.15539044938E+02  0.18669253583E+02  0.00000000000E+00 0.  1.
</event>
<event>
 7    1  0.2584640E-011  0.5052887E+02  0.7816164E-02  0.1300439E+00
        -11   -1    0    0    0    0  0.00000000000E+00  0.00000000000E+00  0.45593999997E+02  0.45594000000E+02  0.51100000000E-03 0.  1.
         11   -1    0    0    0    0 -0.00000000000E+00 -0.00000000000E+00 -0.45593999997E+02  0.45594000000E+02  0.51100000000E-03 0. -1.
    9900012    2    1    2    0    0  0.39465524744E+02  0.87427865567E+01 -0.43818995163E+01  0.50528868142E+02  0.30000025205E+02 0.  0.
        -12    1    1    2    0    0 -0.39465524744E+02 -0.87427865567E+01  0.43818995163E+01  0.40659131858E+02  0.00000000000E+00 0.  1.
         11    1    3    3    0    0  0.23263985417E+01  0.49537727034E+01 -0.95677234964E+01  0.11022401160E+02  0.51100000000E-03 0.  1.
        -11    1    3    3    0    0  0.99633811591E+01  0.23423250440E+01  0.67284249854E+01  0.12248557212E+02  0.51100000000E-03 0. -1.
         12    1    3    3    0    0  0.27175745043E+02  0.14466888093E+01 -0.15426010054E+01  0.27257909770E+02  0.00000000000E+00 0. -1.
</event>
<event>
 7    1  0.2584640E-011  0.5052886E+02  0.7816164E-02  0.1300439E+00
        -11   -1    0    0    0    0  0.00000000000E+00  0.00000000000E+00  0.45593999997E+02  0.45594000000E+02  0.51100000000E-03 0.  1.
         11   -1    0    0    0    0 -0.00000000000E+00 -0.00000000000E+00 -0.45593999997E+02  0.45594000000E+02  0.51100000000E-03 0. -1.
    9900012    2    1    2    0    0  0.16341296960E+01  0.23989047112E+02 -0.32787513833E+02  0.50528858045E+02  0.29999994513E+02 0.  0.
        -12    1    1    2    0    0 -0.16341296960E+01 -0.23989047112E+02  0.32787513833E+02  0.40659141955E+02  0.00000000000E+00 0.  1.
         11    1    3    3    0    0 -0.29851981426E+01  0.45231883770E+01 -0.24577902515E+02  0.25168312088E+02  0.51100000000E-03 0. -1.
        -11    1    3    3    0    0  0.17649385947E+01 -0.18095598734E+01 -0.94305083257E+00  0.26979363062E+01  0.51100000000E-03 0.  1.
        -12    1    3    3    0    0  0.28543892439E+01  0.21275418608E+02 -0.72665604851E+01  0.22662609651E+02  0.00000000000E+00 0.  1.
</event>
<event>
 7    1  0.2584640E-011  0.5052887E+02  0.7816164E-02  0.1300439E+00
        -11   -1    0    0    0    0  0.00000000000E+00  0.00000000000E+00  0.45593999997E+02  0.45594000000E+02  0.51100000000E-03 0. -1.
         11   -1    0    0    0    0 -0.00000000000E+00 -0.00000000000E+00 -0.45593999997E+02  0.45594000000E+02  0.51100000000E-03 0.  1.
    9900012    2    1    2    0    0  0.72638395001E+01 -0.55046453551E+01  0.39624493197E+02  0.50528868850E+02  0.30000027356E+02 0.  0.
        -12    1    1    2    0    0 -0.72638395001E+01  0.55046453551E+01 -0.39624493197E+02  0.40659131150E+02  0.00000000000E+00 0.  1.
         11    1    3    3    0    0  0.65706966269E+01  0.81711493502E+01  0.21186612869E+02  0.23639253393E+02  0.51100000000E-03 0. -1.
        -11    1    3    3    0    0  0.34165434609E+01 -0.49849193832E+01  0.16508509753E+02  0.17579905717E+02  0.51100000000E-03 0.  1.
        -12    1    3    3    0    0 -0.27234005877E+01 -0.86908753222E+01  0.19293705745E+01  0.93097097399E+01  0.00000000000E+00 0.  1.
</event>
<event>
 7    1  0.2584640E-011  0.5052886E+02  0.7816164E-02  0.1300439E+00
        -11   -1    0    0    0    0  0.00000000000E+00  0.00000000000E+00  0.45593999997E+02  0.45594000000E+02  0.51100000000E-03 0.  1.
         11   -1    0    0    0    0 -0.00000000000E+00 -0.00000000000E+00 -0.45593999997E+02  0.45594000000E+02  0.51100000000E-03 0. -1.
    9900012    2    1    2    0    0  0.74722159062E+01  0.38654141544E+02 -0.10158211995E+02  0.50528856625E+02  0.29999990198E+02 0.  0.
        -12    1    1    2    0    0 -0.74722159062E+01 -0.38654141544E+02  0.10158211995E+02  0.40659143375E+02  0.00000000000E+00 0.  1.
         11    1    3    3    0    0  0.78041900954E+01  0.11258083611E+02 -0.65315727879E+01  0.15176009785E+02  0.51100000000E-03 0. -1.
        -11    1    3    3    0    0  0.13586133970E+01 -0.20657919388E+01 -0.52446088339E+01  0.57982108257E+01  0.51100000000E-03 0.  1.
         12    1    3    3    0    0 -0.16905875862E+01  0.29461849872E+02  0.16179696269E+01  0.29554636015E+02  0.00000000000E+00 0. -1.
</event>
<event>
 7    1  0.2584640E-011  0.5052886E+02  0.7816164E-02  0.1300439E+00
        -11   -1    0    0    0    0  0.00000000000E+00  0.00000000000E+00  0.45593999997E+02  0.45594000000E+02  0.51100000000E-03 0.  1.
         11   -1    0    0    0    0 -0.00000000000E+00 -0.00000000000E+00 -0.45593999997E+02  0.45594000000E+02  0.51100000000E-03 0. -1.
    9900012    2    1    2    0    0  0.17776812088E+02 -0.22526405417E+02 -0.28804718012E+02  0.50528858731E+02  0.29999996599E+02 0.  0.
        -12    1    1    2    0    0 -0.17776812088E+02  0.22526405417E+02  0.28804718012E+02  0.40659141269E+02  0.00000000000E+00 0.  1.
         11    1    3    3    0    0 -0.24514954724E+01 -0.85562443239E+01 -0.96546382564E+01  0.13131305613E+02  0.51100000000E-03 0. -1.
        -11    1    3    3    0    0  0.16077440824E+02 -0.17488986039E+02 -0.81326631589E+01  0.25109538953E+02  0.51100000000E-03 0.  1.
         12    1    3    3    0    0  0.41508667362E+01  0.35188249457E+01 -0.11017416596E+02  0.12288014165E+02  0.00000000000E+00 0. -1.
</event>
<event>
 7    1  0.2584640E-011  0.5052885E+02  0.7816164E-02  0.1300439E+00
        -11   -1    0    0    0    0  0.00000000000E+00  0.00000000000E+00  0.45593999997E+02  0.45594000000E+02  0.51100000000E-03 0.  1.
         11   -1    0    0    0    0 -0.00000000000E+00 -0.00000000000E+00 -0.45593999997E+02  0.45594000000E+02  0.51100000000E-03 0. -1.
    9900012    2    1    2    0    0 -0.23028105864E+02  0.10023545631E+02 -0.31975007685E+02  0.50528852897E+02  0.29999978865E+02 0.  0.
        -12    1    1    2    0    0  0.23028105864E+02 -0.10023545631E+02  0.31975007685E+02  0.40659147103E+02  0.00000000000E+00 0.  1.
         11    1    3    3    0    0 -0.19944372686E+02  0.41418200770E+01 -0.20268270058E+02  0.28735612866E+02  0.51100000000E-03 0. -1.
        -11    1    3    3    0    0 -0.41204964063E+01 -0.51903686087E+01 -0.72237355135E+01  0.98031001198E+01  0.51100000000E-03 0.  1.
        -12    1    3    3    0    0  0.10367632280E+01  0.11072094163E+02 -0.44830021143E+01  0.11990139911E+02  0.00000000000E+00 0.  1.
</event>
<event>
 7    1  0.2584640E-011  0.5052889E+02  0.7816164E-02  0.1300439E+00
        -11   -1    0    0    0    0  0.00000000000E+00  0.00000000000E+00  0.45593999997E+02  0.45594000000E+02  0.51100000000E-03 0. -1.
         11   -1    0    0    0    0 -0.00000000000E+00 -0.00000000000E+00 -0.45593999997E+02  0.45594000000E+02  0.51100000000E-03 0.  1.
    9900012    2    1    2    0    0  0.35653315739E+02  0.40474808393E+01  0.19121247786E+02  0.50528891042E+02  0.30000094811E+02 0.  0.
        -12    1    1    2    0    0 -0.35653315739E+02 -0.40474808393E+01 -0.19121247786E+02  0.40659108958E+02  0.00000000000E+00 0.  1.
         11    1    3    3    0    0  0.15494605568E+02  0.50968497173E+01  0.20945983920E+02  0.26547973960E+02  0.51100000000E-03 0. -1.
        -11    1    3    3    0    0  0.20887080291E+02  0.77097064754E+00  0.54101659568E+00  0.20908305002E+02  0.51100000000E-03 0.  1.
        -12    1    3    3    0    0 -0.72837011993E+00 -0.18203395255E+01 -0.23657527292E+01  0.30726120802E+01  0.00000000000E+00 0.  1.
</event>
<event>
 7    1  0.2584640E-011  0.5052886E+02  0.7816164E-02  0.1300439E+00
        -11   -1    0    0    0    0  0.00000000000E+00  0.00000000000E+00  0.45593999997E+02  0.45594000000E+02  0.51100000000E-03 0.  1.
         11   -1    0    0    0    0 -0.00000000000E+00 -0.00000000000E+00 -0.45593999997E+02  0.45594000000E+02  0.51100000000E-03 0. -1.
    9900012    2    1    2    0    0  0.24750974854E+02 -0.29051012822E+02 -0.14021181421E+02  0.50528860429E+02  0.30000001759E+02 0.  0.
        -12    1    1    2    0    0 -0.24750974854E+02  0.29051012822E+02  0.14021181421E+02  0.40659139571E+02  0.00000000000E+00 0.  1.
         11    1    3    3    0    0  0.17003943726E+01 -0.13867783482E+02  0.59794735915E+00  0.13984430666E+02  0.51100000000E-03 0. -1.
        -11    1    3    3    0    0  0.17214073957E+02 -0.59892326324E+00 -0.43119575585E+01  0.17756013897E+02  0.51100000000E-03 0.  1.
         12    1    3    3    0    0  0.58365065243E+01 -0.14584306077E+02 -0.10307171222E+02  0.18788415866E+02  0.00000000000E+00 0. -1.
</event>
<event>
 7    1  0.2584640E-011  0.5052886E+02  0.7816164E-02  0.1300439E+00
        -11   -1    0    0    0    0  0.00000000000E+00  0.00000000000E+00  0.45593999997E+02  0.45594000000E+02  0.51100000000E-03 0. -1.
         11   -1    0    0    0    0 -0.00000000000E+00 -0.00000000000E+00 -0.45593999997E+02  0.45594000000E+02  0.51100000000E-03 0.  1.
    9900012    2    1    2    0    0  0.26298708785E+02  0.30139987605E+02 -0.72886531543E+01  0.50528863248E+02  0.30000010329E+02 0.  0.
        -12    1    1    2    0    0 -0.26298708785E+02 -0.30139987605E+02  0.72886531543E+01  0.40659136752E+02  0.00000000000E+00 0.  1.
         11    1    3    3    0    0  0.14732164936E+02  0.12215244193E+02  0.64346742781E+01  0.20190440999E+02  0.51100000000E-03 0. -1.
        -11    1    3    3    0    0  0.10860347298E+02  0.22380598085E+01 -0.36121756103E+01  0.11662069629E+02  0.51100000000E-03 0.  1.
        -12    1    3    3    0    0  0.70619655179E+00  0.15686683603E+02 -0.10111151822E+02  0.18676352620E+02  0.00000000000E+00 0.  1.
</event>
<event>
 7    1  0.2584640E-011  0.5052883E+02  0.7816164E-02  0.1300439E+00
        -11   -1    0    0    0    0  0.00000000000E+00  0.00000000000E+00  0.45593999997E+02  0.45594000000E+02  0.51100000000E-03 0. -1.
         11   -1    0    0    0    0 -0.00000000000E+00 -0.00000000000E+00 -0.45593999997E+02  0.45594000000E+02  0.51100000000E-03 0.  1.
    9900012    2    1    2    0    0  0.26400427509E+02  0.29970671854E+02  0.76121346998E+01  0.50528827127E+02  0.29999900535E+02 0.  0.
        -12    1    1    2    0    0 -0.26400427509E+02 -0.29970671854E+02 -0.76121346998E+01  0.40659172873E+02  0.00000000000E+00 0.  1.
         11    1    3    3    0    0  0.78003086047E+01  0.16580720492E+00 -0.43412170505E+00  0.78141389976E+01  0.51100000000E-03 0. -1.
        -11    1    3    3    0    0  0.33636551182E+01  0.24395511028E+02 -0.63952668327E-01  0.24626392839E+02  0.51100000000E-03 0.  1.
         12    1    3    3    0    0  0.15236463786E+02  0.54093536211E+01  0.81102090732E+01  0.18088295291E+02  0.00000000000E+00 0. -1.
</event>
<event>
 7    1  0.2584640E-011  0.5052886E+02  0.7816164E-02  0.1300439E+00
        -11   -1    0    0    0    0  0.00000000000E+00  0.00000000000E+00  0.45593999997E+02  0.45594000000E+02  0.51100000000E-03 0.  1.
         11   -1    0    0    0    0 -0.00000000000E+00 -0.00000000000E+00 -0.45593999997E+02  0.45594000000E+02  0.51100000000E-03 0. -1.
    9900012    2    1    2    0    0  0.23314435713E+02 -0.29066237991E+00 -0.33309435326E+02  0.50528857376E+02  0.29999992479E+02 0.  0.
        -12    1    1    2    0    0 -0.23314435713E+02  0.29066237991E+00  0.33309435326E+02  0.40659142624E+02  0.00000000000E+00 0.  1.
         11    1    3    3    0    0 -0.29017693798E+01  0.31220774261E+01 -0.11164332671E+02  0.11950312014E+02  0.51100000000E-03 0. -1.
        -11    1    3    3    0    0  0.13370944162E+02  0.67316885398E+01 -0.13014073631E+02  0.19835924256E+02  0.51100000000E-03 0.  1.
         12    1    3    3    0    0  0.12845260931E+02 -0.10144428346E+02 -0.91310290237E+01  0.18742621105E+02  0.00000000000E+00 0. -1.
</event>
<event>
 7    1  0.2584640E-011  0.5052886E+02  0.7816164E-02  0.1300439E+00
        -11   -1    0    0    0    0  0.00000000000E+00  0.00000000000E+00  0.45593999997E+02  0.45594000000E+02  0.51100000000E-03 0.  1.
         11   -1    0    0    0    0 -0.00000000000E+00 -0.00000000000E+00 -0.45593999997E+02  0.45594000000E+02  0.51100000000E-03 0. -1.
    9900012    2    1    2    0    0 -0.24935157982E+01 -0.36194996905E+02 -0.18354033910E+02  0.50528856099E+02  0.29999988598E+02 0.  0.
        -12    1    1    2    0    0  0.24935157982E+01  0.36194996905E+02  0.18354033910E+02  0.40659143901E+02  0.00000000000E+00 0.  1.
         11    1    3    3    0    0 -0.55275894850E+01 -0.16277411798E+02 -0.12544544355E+02  0.21280835832E+02  0.51100000000E-03 0. -1.
        -11    1    3    3    0    0  0.57445212741E+00 -0.14251008552E+01 -0.10008662421E+02  0.10125918793E+02  0.51100000000E-03 0.  1.
        -12    1    3    3    0    0  0.24596215594E+01 -0.18492484252E+02  0.41991728655E+01  0.19122101474E+02  0.00000000000E+00 0.  1.
</event>
<event>
 7    1  0.3920812E-011  0.5052886E+02  0.7816164E-02  0.1300439E+00
        -11   -1    0    0    0    0  0.00000000000E+00  0.00000000000E+00  0.45593999997E+02  0.45594000000E+02  0.51100000000E-03 0.  1.
         11   -1    0    0    0    0 -0.00000000000E+00 -0.00000000000E+00 -0.45593999997E+02  0.45594000000E+02  0.51100000000E-03 0. -1.
    9900012    2    1    2    0    0 -0.38477324321E+02 -0.48295169044E+01  0.12220346519E+02  0.50528860935E+02  0.30000003299E+02 0.  0.
        -12    1    1    2    0    0  0.38477324321E+02  0.48295169044E+01 -0.12220346519E+02  0.40659139065E+02  0.00000000000E+00 0.  1.
         11    1    3    3    0    0 -0.21945440096E+02  0.94089335977E+00  0.13098761124E+02  0.25574697741E+02  0.51100000000E-03 0. -1.
        -11    1    3    3    0    0 -0.59369401725E+01  0.61303988406E+01  0.19934924513E+01  0.87637355604E+01  0.51100000000E-03 0.  1.
        -12    1    3    3    0    0 -0.10594944053E+02 -0.11900809105E+02 -0.28719070561E+01  0.16190427634E+02  0.00000000000E+00 0.  1.
</event>
<event>
 7    1  0.2584640E-011  0.5052886E+02  0.7816164E-02  0.1300439E+00
        -11   -1    0    0    0    0  0.00000000000E+00  0.00000000000E+00  0.45593999997E+02  0.45594000000E+02  0.51100000000E-03 0.  1.
         11   -1    0    0    0    0 -0.00000000000E+00 -0.00000000000E+00 -0.45593999997E+02  0.45594000000E+02  0.51100000000E-03 0. -1.
    9900012    2    1    2    0    0  0.12268897154E+02  0.37692571644E+02  0.90504037474E+01  0.50528860775E+02  0.30000002811E+02 0.  0.
        -12    1    1    2    0    0 -0.12268897154E+02 -0.37692571644E+02 -0.90504037474E+01  0.40659139225E+02  0.00000000000E+00 0.  1.
         11    1    3    3    0    0 -0.65226812867E+00  0.56502041329E+01  0.93529483065E+01  0.10946593202E+02  0.51100000000E-03 0.  1.
        -11    1    3    3    0    0  0.66486825239E+01  0.58733213031E+01  0.74422989074E+01  0.11579667341E+02  0.51100000000E-03 0. -1.
         12    1    3    3    0    0  0.62724827588E+01  0.26169046208E+02 -0.77448434665E+01  0.28002600232E+02  0.00000000000E+00 0. -1.
</event>
<event>
 7    1  0.2584640E-011  0.5052884E+02  0.7816164E-02  0.1300439E+00
        -11   -1    0    0    0    0  0.00000000000E+00  0.00000000000E+00  0.45593999997E+02  0.45594000000E+02  0.51100000000E-03 0.  1.
         11   -1    0    0    0    0 -0.00000000000E+00 -0.00000000000E+00 -0.45593999997E+02  0.45594000000E+02  0.51100000000E-03 0. -1.
    9900012    2    1    2    0    0 -0.10110656972E+02  0.35690151418E+02 -0.16647961663E+02  0.50528844571E+02  0.29999953559E+02 0.  0.
        -12    1    1    2    0    0  0.10110656972E+02 -0.35690151418E+02  0.16647961663E+02  0.40659155429E+02  0.00000000000E+00 0.  1.
         11    1    3    3    0    0 -0.91535112922E+01  0.10108807803E+02 -0.10439338733E+02  0.17174241107E+02  0.51100000000E-03 0. -1.
        -11    1    3    3    0    0 -0.13083397836E+01 -0.30700835043E+01 -0.30613612619E+01  0.45286972464E+01  0.51100000000E-03 0.  1.
         12    1    3    3    0    0  0.35119410372E+00  0.28651427119E+02 -0.31472616681E+01  0.28825906218E+02  0.00000000000E+00 0. -1.
</event>
<event>
 7    1  0.2584640E-011  0.5052886E+02  0.7816164E-02  0.1300439E+00
        -11   -1    0    0    0    0  0.00000000000E+00  0.00000000000E+00  0.45593999997E+02  0.45594000000E+02  0.51100000000E-03 0. -1.
         11   -1    0    0    0    0 -0.00000000000E+00 -0.00000000000E+00 -0.45593999997E+02  0.45594000000E+02  0.51100000000E-03 0.  1.
    9900012    2    1    2    0    0  0.24445556334E+02 -0.16426560909E+02  0.28031203097E+02  0.50528862345E+02  0.30000007585E+02 0.  0.
        -12    1    1    2    0    0 -0.24445556334E+02  0.16426560909E+02 -0.28031203097E+02  0.40659137655E+02  0.00000000000E+00 0.  1.
         11    1    3    3    0    0  0.65591127898E+01 -0.72509344207E+01  0.11496836545E+02  0.15092225196E+02  0.51100000000E-03 0. -1.
        -11    1    3    3    0    0  0.18079790890E+02  0.23998163294E+01  0.15277423462E+02  0.23791545241E+02  0.51100000000E-03 0.  1.
         12    1    3    3    0    0 -0.19334734631E+00 -0.11575442818E+02  0.12569430896E+01  0.11645091909E+02  0.00000000000E+00 0. -1.
</event>
<event>
 7    1  0.2584640E-011  0.5052886E+02  0.7816164E-02  0.1300439E+00
        -11   -1    0    0    0    0  0.00000000000E+00  0.00000000000E+00  0.45593999997E+02  0.45594000000E+02  0.51100000000E-03 0. -1.
         11   -1    0    0    0    0 -0.00000000000E+00 -0.00000000000E+00 -0.45593999997E+02  0.45594000000E+02  0.51100000000E-03 0.  1.
    9900012    2    1    2    0    0 -0.15820569733E+02  0.21280960847E+02  0.30822010433E+02  0.50528855292E+02  0.29999986146E+02 0.  0.
        -12    1    1    2    0    0  0.15820569733E+02 -0.21280960847E+02 -0.30822010433E+02  0.40659144708E+02  0.00000000000E+00 0.  1.
         11    1    3    3    0    0 -0.84393049928E+00  0.26026171563E+01  0.11694320498E+02  0.12010119355E+02  0.51100000000E-03 0. -1.
        -11    1    3    3    0    0  0.22715146578E+01  0.12140555121E+02  0.58670112149E+00  0.12365155719E+02  0.51100000000E-03 0.  1.
        -12    1    3    3    0    0 -0.17248153892E+02  0.65377885700E+01  0.18540988814E+02  0.26153580218E+02  0.00000000000E+00 0.  1.
</event>
<event>
 7    1  0.2584640E-011  0.5052887E+02  0.7816164E-02  0.1300439E+00
        -11   -1    0    0    0    0  0.00000000000E+00  0.00000000000E+00  0.45593999997E+02  0.45594000000E+02  0.51100000000E-03 0. -1.
         11   -1    0    0    0    0 -0.00000000000E+00 -0.00000000000E+00 -0.45593999997E+02  0.45594000000E+02  0.51100000000E-03 0.  1.
    9900012    2    1    2    0    0 -0.16073526885E+02  0.23598894032E+02  0.28946479134E+02  0.50528871624E+02  0.30000035787E+02 0.  0.
        -12    1    1    2    0    0  0.16073526885E+02 -0.23598894032E+02 -0.28946479134E+02  0.40659128376E+02  0.00000000000E+00 0.  1.
         11    1    3    3    0    0 -0.16047366915E+02  0.19883174207E+02  0.28471684559E+02  0.38255658710E+02  0.51100000000E-03 0.  1.
        -11    1    3    3    0    0  0.27005360465E+01  0.18648514601E+01  0.54166534633E+01  0.63333009489E+01  0.51100000000E-03 0. -1.
        -12    1    3    3    0    0 -0.27266960169E+01  0.18508683653E+01 -0.49418588887E+01  0.59399119648E+01  0.00000000000E+00 0.  1.
</event>
<event>
 7    1  0.2584640E-011  0.5052884E+02  0.7816164E-02  0.1300439E+00
        -11   -1    0    0    0    0  0.00000000000E+00  0.00000000000E+00  0.45593999997E+02  0.45594000000E+02  0.51100000000E-03 0. -1.
         11   -1    0    0    0    0 -0.00000000000E+00 -0.00000000000E+00 -0.45593999997E+02  0.45594000000E+02  0.51100000000E-03 0.  1.
    9900012    2    1    2    0    0 -0.24974219005E+02 -0.25954157562E+02  0.18863661413E+02  0.50528835823E+02  0.29999926968E+02 0.  0.
        -12    1    1    2    0    0  0.24974219005E+02  0.25954157562E+02 -0.18863661413E+02  0.40659164177E+02  0.00000000000E+00 0.  1.
         11    1    3    3    0    0 -0.79400502314E+01 -0.15068275218E+02 -0.23892047780E+01  0.17199000420E+02  0.51100000000E-03 0.  1.
        -11    1    3    3    0    0 -0.24579524594E+01 -0.74811635605E+01  0.70244351044E+00  0.79058690641E+01  0.51100000000E-03 0. -1.
        -12    1    3    3    0    0 -0.14576216314E+02 -0.34047187833E+01  0.20550422681E+02  0.25423966339E+02  0.00000000000E+00 0.  1.
</event>
<event>
 7    1  0.2584640E-011  0.5052886E+02  0.7816164E-02  0.1300439E+00
        -11   -1    0    0    0    0  0.00000000000E+00  0.00000000000E+00  0.45593999997E+02  0.45594000000E+02  0.51100000000E-03 0.  1.
         11   -1    0    0    0    0 -0.00000000000E+00 -0.00000000000E+00 -0.45593999997E+02  0.45594000000E+02  0.51100000000E-03 0. -1.
    9900012    2    1    2    0    0  0.21083352253E+02  0.23738935116E+02 -0.25399231698E+02  0.50528858918E+02  0.29999997167E+02 0.  0.
        -12    1    1    2    0    0 -0.21083352253E+02 -0.23738935116E+02  0.25399231698E+02  0.40659141082E+02  0.00000000000E+00 0.  1.
         11    1    3    3    0    0  0.10771121358E+02  0.16147887726E+02 -0.18927983558E+02  0.27111619191E+02  0.51100000000E-03 0. -1.
        -11    1    3    3    0    0  0.87783236413E+01  0.11399345135E+02  0.14850787449E+01  0.14464076002E+02  0.51100000000E-03 0.  1.
        -12    1    3    3    0    0  0.15339072532E+01 -0.38082977450E+01 -0.79563268848E+01  0.89531637243E+01  0.00000000000E+00 0.  1.
</event>
<event>
 7    1  0.2584640E-011  0.5052885E+02  0.7816164E-02  0.1300439E+00
        -11   -1    0    0    0    0  0.00000000000E+00  0.00000000000E+00  0.45593999997E+02  0.45594000000E+02  0.51100000000E-03 0.  1.
         11   -1    0    0    0    0 -0.00000000000E+00 -0.00000000000E+00 -0.45593999997E+02  0.45594000000E+02  0.51100000000E-03 0. -1.
    9900012    2    1    2    0    0  0.33271370062E+02 -0.58469535774E+01 -0.22627311261E+02  0.50528854082E+02  0.29999982466E+02 0.  0.
        -12    1    1    2    0    0 -0.33271370062E+02  0.58469535774E+01  0.22627311261E+02  0.40659145918E+02  0.00000000000E+00 0.  1.
         11    1    3    3    0    0 -0.20473275587E+01 -0.35623892338E+01 -0.58351661192E+01  0.71366190234E+01  0.51100000000E-03 0. -1.
        -11    1    3    3    0    0  0.21648961725E+02  0.66879058582E+01 -0.14450141277E+02  0.26874006247E+02  0.51100000000E-03 0.  1.
         12    1    3    3    0    0  0.13669735895E+02 -0.89724702018E+01 -0.23420038641E+01  0.16518228811E+02  0.00000000000E+00 0. -1.
</event>
<event>
 7    1  0.2584640E-011  0.5052886E+02  0.7816164E-02  0.1300439E+00
        -11   -1    0    0    0    0  0.00000000000E+00  0.00000000000E+00  0.45593999997E+02  0.45594000000E+02  0.51100000000E-03 0. -1.
         11   -1    0    0    0    0 -0.00000000000E+00 -0.00000000000E+00 -0.45593999997E+02  0.45594000000E+02  0.51100000000E-03 0.  1.
    9900012    2    1    2    0    0  0.23004389381E+02  0.31648894676E+02  0.11059433600E+02  0.50528861586E+02  0.30000005277E+02 0.  0.
        -12    1    1    2    0    0 -0.23004389381E+02 -0.31648894676E+02 -0.11059433600E+02  0.40659138414E+02  0.00000000000E+00 0.  1.
         11    1    3    3    0    0  0.12183832506E+02  0.11607297377E+02 -0.33467399885E+01  0.17157383126E+02  0.51100000000E-03 0. -1.
        -11    1    3    3    0    0 -0.24954430775E+01  0.15238268962E+02  0.44656252046E+01  0.16074012749E+02  0.51100000000E-03 0.  1.
         12    1    3    3    0    0  0.13315999953E+02  0.48033283366E+01  0.99405483839E+01  0.17297465711E+02  0.00000000000E+00 0. -1.
</event>
<event>
 7    1  0.2584640E-011  0.5052886E+02  0.7816164E-02  0.1300439E+00
        -11   -1    0    0    0    0  0.00000000000E+00  0.00000000000E+00  0.45593999997E+02  0.45594000000E+02  0.51100000000E-03 0.  1.
         11   -1    0    0    0    0 -0.00000000000E+00 -0.00000000000E+00 -0.45593999997E+02  0.45594000000E+02  0.51100000000E-03 0. -1.
    9900012    2    1    2    0    0  0.91778545316E+01 -0.94747842920E+01 -0.38459860115E+02  0.50528863373E+02  0.30000010709E+02 0.  0.
        -12    1    1    2    0    0 -0.91778545316E+01  0.94747842920E+01  0.38459860115E+02  0.40659136627E+02  0.00000000000E+00 0.  1.
         11    1    3    3    0    0 -0.29014036131E+01 -0.84646097232E+01  0.49080546604E+00  0.89615094130E+01  0.51100000000E-03 0. -1.
        -11    1    3    3    0    0  0.22781286705E+01  0.15672091702E+01 -0.18898538960E+02  0.19099758896E+02  0.51100000000E-03 0.  1.
        -12    1    3    3    0    0  0.98011294743E+01 -0.25773837389E+01 -0.20052126621E+02  0.22467595064E+02  0.00000000000E+00 0.  1.
</event>
<event>
 7    1  0.2584640E-011  0.5052886E+02  0.7816164E-02  0.1300439E+00
        -11   -1    0    0    0    0  0.00000000000E+00  0.00000000000E+00  0.45593999997E+02  0.45594000000E+02  0.51100000000E-03 0.  1.
         11   -1    0    0    0    0 -0.00000000000E+00 -0.00000000000E+00 -0.45593999997E+02  0.45594000000E+02  0.51100000000E-03 0. -1.
    9900012    2    1    2    0    0 -0.12028770580E+02 -0.21000706856E+02 -0.32671775360E+02  0.50528856929E+02  0.29999991120E+02 0.  0.
        -12    1    1    2    0    0  0.12028770580E+02  0.21000706856E+02  0.32671775360E+02  0.40659143071E+02  0.00000000000E+00 0.  1.
         11    1    3    3    0    0 -0.92106284650E+01 -0.83622553608E+01 -0.16652843292E+02  0.20786538466E+02  0.51100000000E-03 0. -1.
        -11    1    3    3    0    0 -0.92656371821E+01 -0.14869669529E+02 -0.81368187642E+01  0.19317528935E+02  0.51100000000E-03 0.  1.
         12    1    3    3    0    0  0.64474950668E+01  0.22312180341E+01 -0.78821133038E+01  0.10424789527E+02  0.00000000000E+00 0. -1.
</event>
<event>
 7    1  0.2584640E-011  0.5052885E+02  0.7816164E-02  0.1300439E+00
        -11   -1    0    0    0    0  0.00000000000E+00  0.00000000000E+00  0.45593999997E+02  0.45594000000E+02  0.51100000000E-03 0.  1.
         11   -1    0    0    0    0 -0.00000000000E+00 -0.00000000000E+00 -0.45593999997E+02  0.45594000000E+02  0.51100000000E-03 0. -1.
    9900012    2    1    2    0    0  0.58496023142E+00  0.15983094213E+02 -0.37381340589E+02  0.50528854616E+02  0.29999984092E+02 0.  0.
        -12    1    1    2    0    0 -0.58496023142E+00 -0.15983094213E+02  0.37381340589E+02  0.40659145384E+02  0.00000000000E+00 0.  1.
         11    1    3    3    0    0 -0.74962727895E+01  0.26372544514E+01 -0.23486095246E+01  0.82864457843E+01  0.51100000000E-03 0. -1.
        -11    1    3    3    0    0 -0.31180564059E+01  0.11284000282E+02 -0.13385183118E+02  0.17782408877E+02  0.51100000000E-03 0.  1.
        -12    1    3    3    0    0  0.11199289427E+02  0.20618394803E+01 -0.21647547946E+02  0.24459999955E+02  0.00000000000E+00 0.  1.
</event>
<event>
 7    1  0.2584640E-011  0.5052886E+02  0.7816164E-02  0.1300439E+00
        -11   -1    0    0    0    0  0.00000000000E+00  0.00000000000E+00  0.45593999997E+02  0.45594000000E+02  0.51100000000E-03 0.  1.
         11   -1    0    0    0    0 -0.00000000000E+00 -0.00000000000E+00 -0.45593999997E+02  0.45594000000E+02  0.51100000000E-03 0. -1.
    9900012    2    1    2    0    0 -0.25280018307E+02  0.74355364417E+01 -0.30964478567E+02  0.50528862519E+02  0.30000008112E+02 0.  0.
        -12    1    1    2    0    0  0.25280018307E+02 -0.74355364417E+01  0.30964478567E+02  0.40659137481E+02  0.00000000000E+00 0.  1.
         11    1    3    3    0    0 -0.74383435737E+01  0.32747937355E+01 -0.96728807704E+01  0.12633995876E+02  0.51100000000E-03 0. -1.
        -11    1    3    3    0    0 -0.49806484659E+01  0.12333485555E+02 -0.22230847905E+01  0.13485689872E+02  0.51100000000E-03 0.  1.
         12    1    3    3    0    0 -0.12861026268E+02 -0.81727428493E+01 -0.19068513006E+02  0.24409176770E+02  0.00000000000E+00 0. -1.
</event>
<event>
 7    1  0.2584640E-011  0.5052886E+02  0.7816164E-02  0.1300439E+00
        -11   -1    0    0    0    0  0.00000000000E+00  0.00000000000E+00  0.45593999997E+02  0.45594000000E+02  0.51100000000E-03 0.  1.
         11   -1    0    0    0    0 -0.00000000000E+00 -0.00000000000E+00 -0.45593999997E+02  0.45594000000E+02  0.51100000000E-03 0. -1.
    9900012    2    1    2    0    0 -0.20535415928E+02  0.20576819128E+02 -0.28426338298E+02  0.50528862014E+02  0.30000006578E+02 0.  0.
        -12    1    1    2    0    0  0.20535415928E+02 -0.20576819128E+02  0.28426338298E+02  0.40659137986E+02  0.00000000000E+00 0.  1.
         11    1    3    3    0    0  0.16143109276E+01 -0.96755515489E+00 -0.66716690388E+01  0.69320509788E+01  0.51100000000E-03 0. -1.
        -11    1    3    3    0    0  0.14768707627E+00  0.10204401240E+02  0.35419097870E+00  0.10211614351E+02  0.51100000000E-03 0.  1.
         12    1    3    3    0    0 -0.22297413932E+02  0.11339973042E+02 -0.22108860238E+02  0.33385196684E+02  0.00000000000E+00 0. -1.
</event>
<event>
 7    1  0.2584640E-011  0.5052884E+02  0.7816164E-02  0.1300439E+00
        -11   -1    0    0    0    0  0.00000000000E+00  0.00000000000E+00  0.45593999997E+02  0.45594000000E+02  0.51100000000E-03 0.  1.
         11   -1    0    0    0    0 -0.00000000000E+00 -0.00000000000E+00 -0.45593999997E+02  0.45594000000E+02  0.51100000000E-03 0. -1.
    9900012    2    1    2    0    0  0.10290482171E+02 -0.32469719024E+02 -0.22203388165E+02  0.50528842079E+02  0.29999945984E+02 0.  0.
        -12    1    1    2    0    0 -0.10290482171E+02  0.32469719024E+02  0.22203388165E+02  0.40659157921E+02  0.00000000000E+00 0.  1.
         11    1    3    3    0    0  0.72521884956E+01 -0.37817568794E+01 -0.92766062458E+01  0.12367350030E+02  0.51100000000E-03 0. -1.
        -11    1    3    3    0    0 -0.36005477358E+01  0.21643470979E+01 -0.26716546347E+01  0.49785621525E+01  0.51100000000E-03 0.  1.
         12    1    3    3    0    0  0.66388414109E+01 -0.30852309243E+02 -0.10255127285E+02  0.33182929897E+02  0.00000000000E+00 0. -1.
</event>
<event>
 7    1  0.2584640E-011  0.5052887E+02  0.7816164E-02  0.1300439E+00
        -11   -1    0    0    0    0  0.00000000000E+00  0.00000000000E+00  0.45593999997E+02  0.45594000000E+02  0.51100000000E-03 0.  1.
         11   -1    0    0    0    0 -0.00000000000E+00 -0.00000000000E+00 -0.45593999997E+02  0.45594000000E+02  0.51100000000E-03 0. -1.
    9900012    2    1    2    0    0 -0.99607796648E+01 -0.40221120369E+01 -0.39214418811E+02  0.50528866223E+02  0.30000019372E+02 0.  0.
        -12    1    1    2    0    0  0.99607796648E+01  0.40221120369E+01  0.39214418811E+02  0.40659133777E+02  0.00000000000E+00 0.  1.
         11    1    3    3    0    0 -0.85168113818E+01 -0.11727064139E+02 -0.97619204998E+01  0.17474415628E+02  0.51100000000E-03 0. -1.
        -11    1    3    3    0    0 -0.11944206576E+00 -0.16230067824E+01  0.46173350191E+00  0.16916310209E+01  0.51100000000E-03 0.  1.
         12    1    3    3    0    0 -0.13245262172E+01  0.93279588847E+01 -0.29914231813E+02  0.31362819574E+02  0.00000000000E+00 0. -1.
</event>
<event>
 7    1  0.2584640E-011  0.5052886E+02  0.7816164E-02  0.1300439E+00
        -11   -1    0    0    0    0  0.00000000000E+00  0.00000000000E+00  0.45593999997E+02  0.45594000000E+02  0.51100000000E-03 0.  1.
         11   -1    0    0    0    0 -0.00000000000E+00 -0.00000000000E+00 -0.45593999997E+02  0.45594000000E+02  0.51100000000E-03 0. -1.
    9900012    2    1    2    0    0 -0.31014809830E+02 -0.26291017821E+02 -0.17312855661E+00  0.50528855637E+02  0.29999987194E+02 0.  0.
        -12    1    1    2    0    0  0.31014809830E+02  0.26291017821E+02  0.17312855661E+00  0.40659144363E+02  0.00000000000E+00 0.  1.
         11    1    3    3    0    0  0.89757918610E+00 -0.38570239711E+01 -0.47067265941E+00  0.39879587914E+01  0.51100000000E-03 0. -1.
        -11    1    3    3    0    0 -0.21568810566E+02 -0.22807269548E+02  0.93887952366E+01  0.32764838008E+02  0.51100000000E-03 0.  1.
        -12    1    3    3    0    0 -0.10343578450E+02  0.37327569828E+00 -0.90912511338E+01  0.13776058837E+02  0.00000000000E+00 0.  1.
</event>
<event>
 7    1  0.2620163E-011  0.5052885E+02  0.7816164E-02  0.1300439E+00
        -11   -1    0    0    0    0  0.00000000000E+00  0.00000000000E+00  0.45593999997E+02  0.45594000000E+02  0.51100000000E-03 0.  1.
         11   -1    0    0    0    0 -0.00000000000E+00 -0.00000000000E+00 -0.45593999997E+02  0.45594000000E+02  0.51100000000E-03 0. -1.
    9900012    2    1    2    0    0 -0.12582460640E+02  0.33928503865E+02  0.18539276760E+02  0.50528850070E+02  0.29999970272E+02 0.  0.
        -12    1    1    2    0    0  0.12582460640E+02 -0.33928503865E+02 -0.18539276760E+02  0.40659149930E+02  0.00000000000E+00 0.  1.
         11    1    3    3    0    0 -0.10960856740E+02  0.15249427223E+02  0.11288466048E+02  0.21911523842E+02  0.51100000000E-03 0. -1.
        -11    1    3    3    0    0 -0.58808648356E+00  0.71136608249E+01  0.13617532490E+02  0.15374888859E+02  0.51100000000E-03 0.  1.
        -12    1    3    3    0    0 -0.10335174163E+01  0.11565415817E+02 -0.63667217779E+01  0.13242437368E+02  0.00000000000E+00 0.  1.
</event>
<event>
 7    1  0.2584640E-011  0.5052886E+02  0.7816164E-02  0.1300439E+00
        -11   -1    0    0    0    0  0.00000000000E+00  0.00000000000E+00  0.45593999997E+02  0.45594000000E+02  0.51100000000E-03 0.  1.
         11   -1    0    0    0    0 -0.00000000000E+00 -0.00000000000E+00 -0.45593999997E+02  0.45594000000E+02  0.51100000000E-03 0. -1.
    9900012    2    1    2    0    0  0.25379290952E+02 -0.31721425365E+02 -0.16758762839E+01  0.50528858374E+02  0.29999995515E+02 0.  0.
        -12    1    1    2    0    0 -0.25379290952E+02  0.31721425365E+02  0.16758762839E+01  0.40659141626E+02  0.00000000000E+00 0.  1.
         11    1    3    3    0    0  0.18344377490E+02 -0.15804564464E+02 -0.33469269997E+01  0.24443861479E+02  0.51100000000E-03 0. -1.
        -11    1    3    3    0    0  0.21210767606E+01 -0.19537528306E+02 -0.34987842435E+00  0.19655441844E+02  0.51100000000E-03 0.  1.
         12    1    3    3    0    0  0.49138367008E+01  0.36206674039E+01  0.20209291401E+01  0.64295550515E+01  0.00000000000E+00 0. -1.
</event>
<event>
 7    1  0.2584640E-011  0.5052886E+02  0.7816164E-02  0.1300439E+00
        -11   -1    0    0    0    0  0.00000000000E+00  0.00000000000E+00  0.45593999997E+02  0.45594000000E+02  0.51100000000E-03 0.  1.
         11   -1    0    0    0    0 -0.00000000000E+00 -0.00000000000E+00 -0.45593999997E+02  0.45594000000E+02  0.51100000000E-03 0. -1.
    9900012    2    1    2    0    0  0.15156159138E+02  0.11194020470E+01 -0.37712108926E+02  0.50528863507E+02  0.30000011115E+02 0.  0.
        -12    1    1    2    0    0 -0.15156159138E+02 -0.11194020470E+01  0.37712108926E+02  0.40659136493E+02  0.00000000000E+00 0.  1.
         11    1    3    3    0    0  0.63135053839E+00 -0.80439216717E+01 -0.12329771260E+02  0.14735214248E+02  0.51100000000E-03 0. -1.
        -11    1    3    3    0    0  0.10657409704E+02 -0.31370777767E+01 -0.63242640804E+01  0.12783503236E+02  0.51100000000E-03 0.  1.
         12    1    3    3    0    0  0.38673988959E+01  0.12300401495E+02 -0.19058073586E+02  0.23010146022E+02  0.00000000000E+00 0. -1.
</event>
<event>
 7    1  0.2584640E-011  0.5052887E+02  0.7816164E-02  0.1300439E+00
        -11   -1    0    0    0    0  0.00000000000E+00  0.00000000000E+00  0.45593999997E+02  0.45594000000E+02  0.51100000000E-03 0.  1.
         11   -1    0    0    0    0 -0.00000000000E+00 -0.00000000000E+00 -0.45593999997E+02  0.45594000000E+02  0.51100000000E-03 0. -1.
    9900012    2    1    2    0    0  0.15677062503E+02 -0.35423875620E+02 -0.12350853688E+02  0.50528870158E+02  0.30000031333E+02 0.  0.
        -12    1    1    2    0    0 -0.15677062503E+02  0.35423875620E+02  0.12350853688E+02  0.40659129842E+02  0.00000000000E+00 0.  1.
         11    1    3    3    0    0  0.16483099816E+02 -0.22676062256E+02 -0.14496506282E+02  0.31560181774E+02  0.51100000000E-03 0. -1.
        -11    1    3    3    0    0  0.63604274910E+01 -0.39413811565E+01  0.11610636199E+01  0.75721590236E+01  0.51100000000E-03 0.  1.
         12    1    3    3    0    0 -0.71664648036E+01 -0.88064322078E+01  0.98458897467E+00  0.11396529360E+02  0.00000000000E+00 0. -1.
</event>
<event>
 7    1  0.2584640E-011  0.5052886E+02  0.7816164E-02  0.1300439E+00
        -11   -1    0    0    0    0  0.00000000000E+00  0.00000000000E+00  0.45593999997E+02  0.45594000000E+02  0.51100000000E-03 0. -1.
         11   -1    0    0    0    0 -0.00000000000E+00 -0.00000000000E+00 -0.45593999997E+02  0.45594000000E+02  0.51100000000E-03 0.  1.
    9900012    2    1    2    0    0 -0.23479368062E+02 -0.33029812329E+02  0.33040144889E+01  0.50528859098E+02  0.29999997716E+02 0.  0.
        -12    1    1    2    0    0  0.23479368062E+02  0.33029812329E+02 -0.33040144889E+01  0.40659140902E+02  0.00000000000E+00 0.  1.
         11    1    3    3    0    0 -0.12597176364E+02 -0.16794335927E+02  0.62249289695E+01  0.21897221570E+02  0.51100000000E-03 0. -1.
        -11    1    3    3    0    0  0.11114482580E+01 -0.61150419112E+01  0.75401292798E+01  0.97715200775E+01  0.51100000000E-03 0.  1.
         12    1    3    3    0    0 -0.11993639956E+02 -0.10120434491E+02 -0.10461043760E+02  0.18860117451E+02  0.00000000000E+00 0. -1.
</event>
<event>
 7    1  0.2584640E-011  0.5052886E+02  0.7816164E-02  0.1300439E+00
        -11   -1    0    0    0    0  0.00000000000E+00  0.00000000000E+00  0.45593999997E+02  0.45594000000E+02  0.51100000000E-03 0. -1.
         11   -1    0    0    0    0 -0.00000000000E+00 -0.00000000000E+00 -0.45593999997E+02  0.45594000000E+02  0.51100000000E-03 0.  1.
    9900012    2    1    2    0    0  0.93607234194E+01  0.28402711336E+02 -0.27546837468E+02  0.50528863159E+02  0.30000010057E+02 0.  0.
        -12    1    1    2    0    0 -0.93607234194E+01 -0.28402711336E+02  0.27546837468E+02  0.40659136841E+02  0.00000000000E+00 0.  1.
         11    1    3    3    0    0 -0.60717547477E-01  0.16064050982E+02 -0.41331453612E+01  0.16587353960E+02  0.51100000000E-03 0. -1.
        -11    1    3    3    0    0 -0.36129446578E+01  0.97659070732E+01 -0.14842356110E+02  0.18130687941E+02  0.51100000000E-03 0.  1.
         12    1    3    3    0    0  0.13034385625E+02  0.25727532813E+01 -0.85713359975E+01  0.15810821258E+02  0.00000000000E+00 0. -1.
</event>
<event>
 7    1  0.2584640E-011  0.5052900E+02  0.7816164E-02  0.1300438E+00
        -11   -1    0    0    0    0  0.00000000000E+00  0.00000000000E+00  0.45593999997E+02  0.45594000000E+02  0.51100000000E-03 0.  1.
         11   -1    0    0    0    0 -0.00000000000E+00 -0.00000000000E+00 -0.45593999997E+02  0.45594000000E+02  0.51100000000E-03 0. -1.
    9900012    2    1    2    0    0  0.13968961828E+02 -0.19064340776E+01 -0.38136434607E+02  0.50529003087E+02  0.30000435381E+02 0.  0.
        -12    1    1    2    0    0 -0.13968961828E+02  0.19064340776E+01  0.38136434607E+02  0.40658996913E+02  0.00000000000E+00 0.  1.
         11    1    3    3    0    0  0.76549644966E+01  0.14323012539E+01 -0.90878367163E+00  0.78406540767E+01  0.51100000000E-03 0. -1.
        -11    1    3    3    0    0 -0.31252253527E+01  0.49918835023E+01 -0.22761405704E+02  0.23511008577E+02  0.51100000000E-03 0.  1.
         12    1    3    3    0    0  0.94392226841E+01 -0.83306188338E+01 -0.14466245231E+02  0.19177340434E+02  0.00000000000E+00 0. -1.
</event>
<event>
 7    1  0.2584640E-011  0.5052886E+02  0.7816164E-02  0.1300439E+00
        -11   -1    0    0    0    0  0.00000000000E+00  0.00000000000E+00  0.45593999997E+02  0.45594000000E+02  0.51100000000E-03 0. -1.
         11   -1    0    0    0    0 -0.00000000000E+00 -0.00000000000E+00 -0.45593999997E+02  0.45594000000E+02  0.51100000000E-03 0.  1.
    9900012    2    1    2    0    0  0.31585942664E+02 -0.18843789286E+02  0.17332204230E+02  0.50528862378E+02  0.30000007685E+02 0.  0.
        -12    1    1    2    0    0 -0.31585942664E+02  0.18843789286E+02 -0.17332204230E+02  0.40659137622E+02  0.00000000000E+00 0.  1.
         11    1    3    3    0    0 -0.43963154205E+01 -0.50891666261E+01 -0.16551598847E+01  0.69258039772E+01  0.51100000000E-03 0.  1.
        -11    1    3    3    0    0  0.24126192290E+02 -0.12838601435E+02  0.14020069361E+02  0.30715878408E+02  0.51100000000E-03 0. -1.
        -12    1    3    3    0    0  0.11856065794E+02 -0.91602122554E+00  0.49672947536E+01  0.12887179993E+02  0.00000000000E+00 0.  1.
</event>
<event>
 7    1  0.2584640E-011  0.5052887E+02  0.7816164E-02  0.1300439E+00
        -11   -1    0    0    0    0  0.00000000000E+00  0.00000000000E+00  0.45593999997E+02  0.45594000000E+02  0.51100000000E-03 0. -1.
         11   -1    0    0    0    0 -0.00000000000E+00 -0.00000000000E+00 -0.45593999997E+02  0.45594000000E+02  0.51100000000E-03 0.  1.
    9900012    2    1    2    0    0 -0.19921110063E+02 -0.26533969394E+02  0.23500272782E+02  0.50528868446E+02  0.30000026128E+02 0.  0.
        -12    1    1    2    0    0  0.19921110063E+02  0.26533969394E+02 -0.23500272782E+02  0.40659131554E+02  0.00000000000E+00 0.  1.
         11    1    3    3    0    0 -0.93580567337E+01 -0.23381742647E+02  0.68779656664E+01  0.26107193013E+02  0.51100000000E-03 0. -1.
        -11    1    3    3    0    0 -0.11486525907E+02 -0.58061055158E+01  0.75442461630E+01  0.14918672498E+02  0.51100000000E-03 0.  1.
        -12    1    3    3    0    0  0.92347257800E+00  0.26538787693E+01  0.90780609525E+01  0.95030029349E+01  0.00000000000E+00 0.  1.
</event>
<event>
 7    1  0.2584640E-011  0.5052887E+02  0.7816164E-02  0.1300439E+00
        -11   -1    0    0    0    0  0.00000000000E+00  0.00000000000E+00  0.45593999997E+02  0.45594000000E+02  0.51100000000E-03 0.  1.
         11   -1    0    0    0    0 -0.00000000000E+00 -0.00000000000E+00 -0.45593999997E+02  0.45594000000E+02  0.51100000000E-03 0. -1.
    9900012    2    1    2    0    0  0.33045177887E+02 -0.21486715886E+02  0.99750897160E+01  0.50528866266E+02  0.30000019502E+02 0.  0.
        -12    1    1    2    0    0 -0.33045177887E+02  0.21486715886E+02 -0.99750897160E+01  0.40659133734E+02  0.00000000000E+00 0.  1.
         11    1    3    3    0    0  0.17655920386E+02 -0.25899675600E+01  0.10067831326E+02  0.20489038155E+02  0.51100000000E-03 0. -1.
        -11    1    3    3    0    0  0.15035841861E+02 -0.20438927250E+02  0.39676593677E+01  0.25682067843E+02  0.51100000000E-03 0.  1.
         12    1    3    3    0    0  0.35341563945E+00  0.15421789237E+01 -0.40604009779E+01  0.43577602674E+01  0.00000000000E+00 0. -1.
</event>
<event>
 7    1  0.2584640E-011  0.5052886E+02  0.7816164E-02  0.1300439E+00
        -11   -1    0    0    0    0  0.00000000000E+00  0.00000000000E+00  0.45593999997E+02  0.45594000000E+02  0.51100000000E-03 0.  1.
         11   -1    0    0    0    0 -0.00000000000E+00 -0.00000000000E+00 -0.45593999997E+02  0.45594000000E+02  0.51100000000E-03 0. -1.
    9900012    2    1    2    0    0 -0.25498274718E+02  0.19752913643E+02 -0.24755329973E+02  0.50528856218E+02  0.29999988960E+02 0.  0.
        -12    1    1    2    0    0  0.25498274718E+02 -0.19752913643E+02  0.24755329973E+02  0.40659143782E+02  0.00000000000E+00 0.  1.
         11    1    3    3    0    0 -0.56580228678E+01  0.32974308787E+00 -0.30397700332E+00  0.56757691599E+01  0.51100000000E-03 0.  1.
        -11    1    3    3    0    0  0.28121556880E+01  0.12291161655E+02 -0.32577480489E+01  0.13022818322E+02  0.51100000000E-03 0. -1.
         12    1    3    3    0    0 -0.22652407538E+02  0.71320089009E+01 -0.21193604921E+02  0.31830268736E+02  0.00000000000E+00 0. -1.
</event>
<event>
 7    1  0.2584640E-011  0.5052885E+02  0.7816164E-02  0.1300439E+00
        -11   -1    0    0    0    0  0.00000000000E+00  0.00000000000E+00  0.45593999997E+02  0.45594000000E+02  0.51100000000E-03 0. -1.
         11   -1    0    0    0    0 -0.00000000000E+00 -0.00000000000E+00 -0.45593999997E+02  0.45594000000E+02  0.51100000000E-03 0.  1.
    9900012    2    1    2    0    0  0.36180304303E+02 -0.18402017506E+02  0.23490165817E+01  0.50528849164E+02  0.29999967519E+02 0.  0.
        -12    1    1    2    0    0 -0.36180304303E+02  0.18402017506E+02 -0.23490165817E+01  0.40659150836E+02  0.00000000000E+00 0.  1.
         11    1    3    3    0    0  0.97557399707E+01 -0.10237459857E+02  0.12310301378E+02  0.18748961758E+02  0.51100000000E-03 0. -1.
        -11    1    3    3    0    0  0.93177810693E+01 -0.83904240267E+01 -0.13053509973E+01  0.12606514224E+02  0.51100000000E-03 0.  1.
         12    1    3    3    0    0  0.17106783263E+02  0.22586637781E+00 -0.86559337992E+01  0.19173373182E+02  0.00000000000E+00 0. -1.
</event>
<event>
 7    1  0.2584640E-011  0.5052886E+02  0.7816164E-02  0.1300439E+00
        -11   -1    0    0    0    0  0.00000000000E+00  0.00000000000E+00  0.45593999997E+02  0.45594000000E+02  0.51100000000E-03 0.  1.
         11   -1    0    0    0    0 -0.00000000000E+00 -0.00000000000E+00 -0.45593999997E+02  0.45594000000E+02  0.51100000000E-03 0. -1.
    9900012    2    1    2    0    0  0.12285563009E+02  0.21507316951E+02 -0.32243854836E+02  0.50528856925E+02  0.29999991110E+02 0.  0.
        -12    1    1    2    0    0 -0.12285563009E+02 -0.21507316951E+02  0.32243854836E+02  0.40659143075E+02  0.00000000000E+00 0.  1.
         11    1    3    3    0    0  0.11997312717E+02  0.63444183481E+01 -0.21869759882E+02  0.25738561618E+02  0.51100000000E-03 0. -1.
        -11    1    3    3    0    0  0.82248666802E+00  0.12009603095E+02 -0.14958445719E+02  0.19200576799E+02  0.51100000000E-03 0.  1.
        -12    1    3    3    0    0 -0.53423637629E+00  0.31532955083E+01  0.45843507647E+01  0.55897185084E+01  0.00000000000E+00 0.  1.
</event>
<event>
 7    1  0.2584640E-011  0.5052886E+02  0.7816164E-02  0.1300439E+00
        -11   -1    0    0    0    0  0.00000000000E+00  0.00000000000E+00  0.45593999997E+02  0.45594000000E+02  0.51100000000E-03 0. -1.
         11   -1    0    0    0    0 -0.00000000000E+00 -0.00000000000E+00 -0.45593999997E+02  0.45594000000E+02  0.51100000000E-03 0.  1.
    9900012    2    1    2    0    0 -0.29043974865E+02 -0.19145846798E+02  0.21048748150E+02  0.50528859278E+02  0.29999998262E+02 0.  0.
        -12    1    1    2    0    0  0.29043974865E+02  0.19145846798E+02 -0.21048748150E+02  0.40659140722E+02  0.00000000000E+00 0.  1.
         11    1    3    3    0    0 -0.14014929981E+02 -0.13622253836E+01  0.80365259612E+01  0.16212947609E+02  0.51100000000E-03 0. -1.
        -11    1    3    3    0    0 -0.87370143819E+01  0.36021389066E+01  0.34708916033E+01  0.10067666750E+02  0.51100000000E-03 0.  1.
        -12    1    3    3    0    0 -0.62920305021E+01 -0.21385760321E+02  0.95413305852E+01  0.24248244919E+02  0.00000000000E+00 0.  1.
</event>
<event>
 7    1  0.3429050E-011  0.5052884E+02  0.7816164E-02  0.1300439E+00
        -11   -1    0    0    0    0  0.00000000000E+00  0.00000000000E+00  0.45593999997E+02  0.45594000000E+02  0.51100000000E-03 0. -1.
         11   -1    0    0    0    0 -0.00000000000E+00 -0.00000000000E+00 -0.45593999997E+02  0.45594000000E+02  0.51100000000E-03 0.  1.
    9900012    2    1    2    0    0 -0.11426733291E+02 -0.20906700438E+02  0.32947029972E+02  0.50528841857E+02  0.29999945308E+02 0.  0.
        -12    1    1    2    0    0  0.11426733291E+02  0.20906700438E+02 -0.32947029972E+02  0.40659158143E+02  0.00000000000E+00 0.  1.
         11    1    3    3    0    0 -0.56587806271E+01  0.11824806072E+01  0.18691320370E+02  0.19564905213E+02  0.51100000000E-03 0. -1.
        -11    1    3    3    0    0 -0.91258461700E+01 -0.18255927203E+02  0.15605443919E+02  0.25692213345E+02  0.51100000000E-03 0.  1.
        -12    1    3    3    0    0  0.33578935058E+01 -0.38332538422E+01 -0.13497343170E+01  0.52717232990E+01  0.00000000000E+00 0.  1.
</event>
<event>
 7    1  0.2584640E-011  0.5052886E+02  0.7816164E-02  0.1300439E+00
        -11   -1    0    0    0    0  0.00000000000E+00  0.00000000000E+00  0.45593999997E+02  0.45594000000E+02  0.51100000000E-03 0.  1.
         11   -1    0    0    0    0 -0.00000000000E+00 -0.00000000000E+00 -0.45593999997E+02  0.45594000000E+02  0.51100000000E-03 0. -1.
    9900012    2    1    2    0    0 -0.40274740199E+00 -0.32908997223E+02 -0.23874702977E+02  0.50528859012E+02  0.29999997452E+02 0.  0.
        -12    1    1    2    0    0  0.40274740199E+00  0.32908997223E+02  0.23874702977E+02  0.40659140988E+02  0.00000000000E+00 0.  1.
         11    1    3    3    0    0 -0.21718140848E+01 -0.43407735461E+01  0.65744248980E+01  0.81720348995E+01  0.51100000000E-03 0.  1.
        -11    1    3    3    0    0  0.28426209291E+01 -0.11955987013E+02 -0.91367849569E+01  0.15313620042E+02  0.51100000000E-03 0. -1.
        -12    1    3    3    0    0 -0.10735542462E+01 -0.16612236664E+02 -0.21312342918E+02  0.27043204070E+02  0.00000000000E+00 0.  1.
</event>
<event>
 7    1  0.2584640E-011  0.5052895E+02  0.7816164E-02  0.1300438E+00
        -11   -1    0    0    0    0  0.00000000000E+00  0.00000000000E+00  0.45593999997E+02  0.45594000000E+02  0.51100000000E-03 0.  1.
         11   -1    0    0    0    0 -0.00000000000E+00 -0.00000000000E+00 -0.45593999997E+02  0.45594000000E+02  0.51100000000E-03 0. -1.
    9900012    2    1    2    0    0  0.97649937248E+01  0.10158379687E+01 -0.39455945572E+02  0.50528946024E+02  0.30000261934E+02 0.  0.
        -12    1    1    2    0    0 -0.97649937248E+01 -0.10158379687E+01  0.39455945572E+02  0.40659053976E+02  0.00000000000E+00 0.  1.
         11    1    3    3    0    0  0.81720527125E+01  0.76450903351E+01 -0.98128819233E+01  0.14883632072E+02  0.51100000000E-03 0. -1.
        -11    1    3    3    0    0 -0.18879534195E+01  0.30746081376E+01 -0.23220399449E+02  0.23499032621E+02  0.51100000000E-03 0.  1.
        -12    1    3    3    0    0  0.34808944318E+01 -0.97038605040E+01 -0.64226641998E+01  0.12146281330E+02  0.00000000000E+00 0.  1.
</event>
<event>
 7    1  0.2584640E-011  0.5052886E+02  0.7816164E-02  0.1300439E+00
        -11   -1    0    0    0    0  0.00000000000E+00  0.00000000000E+00  0.45593999997E+02  0.45594000000E+02  0.51100000000E-03 0. -1.
         11   -1    0    0    0    0 -0.00000000000E+00 -0.00000000000E+00 -0.45593999997E+02  0.45594000000E+02  0.51100000000E-03 0.  1.
    9900012    2    1    2    0    0 -0.13891812910E+02 -0.18500489628E+02  0.33435241182E+02  0.50528856683E+02  0.29999990373E+02 0.  0.
        -12    1    1    2    0    0  0.13891812910E+02  0.18500489628E+02 -0.33435241182E+02  0.40659143317E+02  0.00000000000E+00 0.  1.
         11    1    3    3    0    0 -0.61794616226E+01 -0.15344096664E+02  0.53567655983E+01  0.17387408844E+02  0.51100000000E-03 0. -1.
        -11    1    3    3    0    0 -0.10320513134E+02 -0.19458849197E+01  0.89516327780E+01  0.13799680762E+02  0.51100000000E-03 0.  1.
        -12    1    3    3    0    0  0.26081618468E+01 -0.12105080441E+01  0.19126842806E+02  0.19341767077E+02  0.00000000000E+00 0.  1.
</event>
<event>
 7    1  0.2584640E-011  0.5052885E+02  0.7816164E-02  0.1300439E+00
        -11   -1    0    0    0    0  0.00000000000E+00  0.00000000000E+00  0.45593999997E+02  0.45594000000E+02  0.51100000000E-03 0. -1.
         11   -1    0    0    0    0 -0.00000000000E+00 -0.00000000000E+00 -0.45593999997E+02  0.45594000000E+02  0.51100000000E-03 0.  1.
    9900012    2    1    2    0    0  0.30479043338E+02 -0.25638659725E+02  0.81763781236E+01  0.50528854478E+02  0.29999983672E+02 0.  0.
        -12    1    1    2    0    0 -0.30479043338E+02  0.25638659725E+02 -0.81763781236E+01  0.40659145522E+02  0.00000000000E+00 0.  1.
         11    1    3    3    0    0  0.13753961787E+02 -0.46277240853E+01  0.44006183103E+01  0.15164192587E+02  0.51100000000E-03 0. -1.
        -11    1    3    3    0    0  0.14669945346E+02 -0.65101615765E+01 -0.66649156912E+01  0.17378452222E+02  0.51100000000E-03 0.  1.
         12    1    3    3    0    0  0.20551362054E+01 -0.14500774064E+02  0.10440675504E+02  0.17986209669E+02  0.00000000000E+00 0. -1.
</event>
<event>
 7    1  0.2584640E-011  0.5052882E+02  0.7816164E-02  0.1300439E+00
        -11   -1    0    0    0    0  0.00000000000E+00  0.00000000000E+00  0.45593999997E+02  0.45594000000E+02  0.51100000000E-03 0.  1.
         11   -1    0    0    0    0 -0.00000000000E+00 -0.00000000000E+00 -0.45593999997E+02  0.45594000000E+02  0.51100000000E-03 0. -1.
    9900012    2    1    2    0    0 -0.11236762032E+02 -0.38906445393E+02  0.36321714349E+01  0.50528819199E+02  0.29999876438E+02 0.  0.
        -12    1    1    2    0    0  0.11236762032E+02  0.38906445393E+02 -0.36321714349E+01  0.40659180801E+02  0.00000000000E+00 0.  1.
         11    1    3    3    0    0 -0.43918236846E+01 -0.24099705504E+02 -0.23685085110E+00  0.24497755392E+02  0.51100000000E-03 0. -1.
        -11    1    3    3    0    0  0.70979848829E+01 -0.45430764982E+01  0.11435823165E+01  0.85046289891E+01  0.51100000000E-03 0.  1.
         12    1    3    3    0    0 -0.13942923231E+02 -0.10263663390E+02  0.27254399694E+01  0.17526434818E+02  0.00000000000E+00 0. -1.
</event>
<event>
 7    1  0.2584640E-011  0.5052887E+02  0.7816164E-02  0.1300439E+00
        -11   -1    0    0    0    0  0.00000000000E+00  0.00000000000E+00  0.45593999997E+02  0.45594000000E+02  0.51100000000E-03 0.  1.
         11   -1    0    0    0    0 -0.00000000000E+00 -0.00000000000E+00 -0.45593999997E+02  0.45594000000E+02  0.51100000000E-03 0. -1.
    9900012    2    1    2    0    0  0.35660689879E+02 -0.97392508895E+01 -0.16930072029E+02  0.50528866347E+02  0.30000019747E+02 0.  0.
        -12    1    1    2    0    0 -0.35660689879E+02  0.97392508895E+01  0.16930072029E+02  0.40659133653E+02  0.00000000000E+00 0.  1.
         11    1    3    3    0    0  0.17843073013E+02 -0.75184527362E+01 -0.54957229636E+01  0.20127229249E+02  0.51100000000E-03 0. -1.
        -11    1    3    3    0    0  0.20632192264E+02  0.42660798098E+01 -0.91597667688E+01  0.22973639722E+02  0.51100000000E-03 0.  1.
        -12    1    3    3    0    0 -0.28145753982E+01 -0.64868779631E+01 -0.22745822962E+01  0.74279973750E+01  0.00000000000E+00 0.  1.
</event>
<event>
 7    1  0.2584640E-011  0.5052886E+02  0.7816164E-02  0.1300439E+00
        -11   -1    0    0    0    0  0.00000000000E+00  0.00000000000E+00  0.45593999997E+02  0.45594000000E+02  0.51100000000E-03 0.  1.
         11   -1    0    0    0    0 -0.00000000000E+00 -0.00000000000E+00 -0.45593999997E+02  0.45594000000E+02  0.51100000000E-03 0. -1.
    9900012    2    1    2    0    0 -0.23646007710E+02 -0.32679064888E+02 -0.51098498316E+01  0.50528861694E+02  0.30000005604E+02 0.  0.
        -12    1    1    2    0    0  0.23646007710E+02  0.32679064888E+02  0.51098498316E+01  0.40659138306E+02  0.00000000000E+00 0.  1.
         11    1    3    3    0    0 -0.29356730017E+02 -0.26894900168E+02 -0.63101493355E+01  0.40310931982E+02  0.51100000000E-03 0. -1.
        -11    1    3    3    0    0 -0.34817993527E+00 -0.34629894298E+01  0.13363778870E+01  0.37281940905E+01  0.51100000000E-03 0.  1.
        -12    1    3    3    0    0  0.60589022425E+01 -0.23211752896E+01 -0.13607838309E+00  0.64897356214E+01  0.00000000000E+00 0.  1.
</event>
<event>
 7    1  0.2584640E-011  0.5052886E+02  0.7816164E-02  0.1300439E+00
        -11   -1    0    0    0    0  0.00000000000E+00  0.00000000000E+00  0.45593999997E+02  0.45594000000E+02  0.51100000000E-03 0. -1.
         11   -1    0    0    0    0 -0.00000000000E+00 -0.00000000000E+00 -0.45593999997E+02  0.45594000000E+02  0.51100000000E-03 0.  1.
    9900012    2    1    2    0    0 -0.22865224843E+02 -0.99043848351E+01  0.32128651844E+02  0.50528860616E+02  0.30000002330E+02 0.  0.
        -12    1    1    2    0    0  0.22865224843E+02  0.99043848351E+01 -0.32128651844E+02  0.40659139384E+02  0.00000000000E+00 0.  1.
         11    1    3    3    0    0  0.12373509711E+01 -0.11258255824E+01 -0.30970836146E+01  0.35200067961E+01  0.51100000000E-03 0. -1.
        -11    1    3    3    0    0 -0.32158633843E+01 -0.71541678558E+01  0.18854790274E+02  0.20421239226E+02  0.51100000000E-03 0.  1.
         12    1    3    3    0    0 -0.20886712430E+02 -0.16243913969E+01  0.16370945185E+02  0.26587614594E+02  0.00000000000E+00 0. -1.
</event>
<event>
 7    1  0.2584640E-011  0.5052886E+02  0.7816164E-02  0.1300439E+00
        -11   -1    0    0    0    0  0.00000000000E+00  0.00000000000E+00  0.45593999997E+02  0.45594000000E+02  0.51100000000E-03 0.  1.
         11   -1    0    0    0    0 -0.00000000000E+00 -0.00000000000E+00 -0.45593999997E+02  0.45594000000E+02  0.51100000000E-03 0. -1.
    9900012    2    1    2    0    0  0.31830941303E+02  0.18545691765E+01 -0.25229299944E+02  0.50528858018E+02  0.29999994431E+02 0.  0.
        -12    1    1    2    0    0 -0.31830941303E+02 -0.18545691765E+01  0.25229299944E+02  0.40659141982E+02  0.00000000000E+00 0.  1.
         11    1    3    3    0    0  0.15701174491E+00 -0.89180956856E+00 -0.77607760414E+01  0.78134257545E+01  0.51100000000E-03 0. -1.
        -11    1    3    3    0    0  0.39393480280E+01 -0.65001609313E+01  0.16579036975E+01  0.77794087147E+01  0.51100000000E-03 0.  1.
         12    1    3    3    0    0  0.27734581530E+02  0.92465396763E+01 -0.19126427600E+02  0.34936023548E+02  0.00000000000E+00 0. -1.
</event>
<event>
 7    1  0.2584640E-011  0.5052885E+02  0.7816164E-02  0.1300439E+00
        -11   -1    0    0    0    0  0.00000000000E+00  0.00000000000E+00  0.45593999997E+02  0.45594000000E+02  0.51100000000E-03 0.  1.
         11   -1    0    0    0    0 -0.00000000000E+00 -0.00000000000E+00 -0.45593999997E+02  0.45594000000E+02  0.51100000000E-03 0. -1.
    9900012    2    1    2    0    0  0.28544596832E+02 -0.14874115519E+02 -0.24842157493E+02  0.50528854538E+02  0.29999983855E+02 0.  0.
        -12    1    1    2    0    0 -0.28544596832E+02  0.14874115519E+02  0.24842157493E+02  0.40659145462E+02  0.00000000000E+00 0.  1.
         11    1    3    3    0    0  0.59732596917E+01 -0.43512882738E+01 -0.16816643081E+01  0.75790194677E+01  0.51100000000E-03 0. -1.
        -11    1    3    3    0    0 -0.28086109970E+00  0.35106386019E+01  0.36200118780E+01  0.50505398334E+01  0.51100000000E-03 0.  1.
        -12    1    3    3    0    0  0.22852198240E+02 -0.14033465847E+02 -0.26780505063E+02  0.37899295237E+02  0.00000000000E+00 0.  1.
</event>
<event>
 7    1  0.2584640E-011  0.5052886E+02  0.7816164E-02  0.1300439E+00
        -11   -1    0    0    0    0  0.00000000000E+00  0.00000000000E+00  0.45593999997E+02  0.45594000000E+02  0.51100000000E-03 0.  1.
         11   -1    0    0    0    0 -0.00000000000E+00 -0.00000000000E+00 -0.45593999997E+02  0.45594000000E+02  0.51100000000E-03 0. -1.
    9900012    2    1    2    0    0 -0.81737498576E+01  0.18329258359E+02 -0.35360908706E+02  0.50528858799E+02  0.29999996804E+02 0.  0.
        -12    1    1    2    0    0  0.81737498576E+01 -0.18329258359E+02  0.35360908706E+02  0.40659141201E+02  0.00000000000E+00 0.  1.
         11    1    3    3    0    0  0.47581087107E+01  0.13810536729E+02 -0.12811312507E+02  0.19429365704E+02  0.51100000000E-03 0. -1.
        -11    1    3    3    0    0 -0.12905563308E+02  0.84426420713E+01 -0.11113711017E+02  0.19009112086E+02  0.51100000000E-03 0.  1.
        -12    1    3    3    0    0 -0.26295260076E-01 -0.39239204408E+01 -0.11435885181E+02  0.12090381009E+02  0.00000000000E+00 0.  1.
</event>
<event>
 7    1  0.2584640E-011  0.5052886E+02  0.7816164E-02  0.1300439E+00
        -11   -1    0    0    0    0  0.00000000000E+00  0.00000000000E+00  0.45593999997E+02  0.45594000000E+02  0.51100000000E-03 0.  1.
         11   -1    0    0    0    0 -0.00000000000E+00 -0.00000000000E+00 -0.45593999997E+02  0.45594000000E+02  0.51100000000E-03 0. -1.
    9900012    2    1    2    0    0 -0.66611432919E+01  0.24236991924E+02 -0.31958775950E+02  0.50528856284E+02  0.29999989161E+02 0.  0.
        -12    1    1    2    0    0  0.66611432919E+01 -0.24236991924E+02  0.31958775950E+02  0.40659143716E+02  0.00000000000E+00 0.  1.
         11    1    3    3    0    0 -0.50083842295E+01  0.71104642435E+00 -0.30362920446E+01  0.58998787487E+01  0.51100000000E-03 0. -1.
        -11    1    3    3    0    0 -0.76642161197E+00  0.27784786076E+02 -0.29143678854E+02  0.40273263548E+02  0.51100000000E-03 0.  1.
         12    1    3    3    0    0 -0.88633745045E+00 -0.42588405767E+01  0.22119494852E+00  0.43557139873E+01  0.00000000000E+00 0. -1.
</event>
<event>
 7    1  0.2584640E-011  0.5052885E+02  0.7816164E-02  0.1300439E+00
        -11   -1    0    0    0    0  0.00000000000E+00  0.00000000000E+00  0.45593999997E+02  0.45594000000E+02  0.51100000000E-03 0.  1.
         11   -1    0    0    0    0 -0.00000000000E+00 -0.00000000000E+00 -0.45593999997E+02  0.45594000000E+02  0.51100000000E-03 0. -1.
    9900012    2    1    2    0    0  0.20344269308E+02  0.27917414137E+02  0.21445168012E+02  0.50528849285E+02  0.29999967886E+02 0.  0.
        -12    1    1    2    0    0 -0.20344269308E+02 -0.27917414137E+02 -0.21445168012E+02  0.40659150715E+02  0.00000000000E+00 0.  1.
         11    1    3    3    0    0  0.16667462687E+02  0.15558396236E+02  0.10982915966E+02  0.25307952293E+02  0.51100000000E-03 0. -1.
        -11    1    3    3    0    0  0.60359059234E+01 -0.28293883219E+01  0.65822364879E+01  0.93682141327E+01  0.51100000000E-03 0.  1.
         12    1    3    3    0    0 -0.23590993019E+01  0.15188406223E+02  0.38800155585E+01  0.15852682859E+02  0.00000000000E+00 0. -1.
</event>
<event>
 7    1  0.2584640E-011  0.5052886E+02  0.7816164E-02  0.1300439E+00
        -11   -1    0    0    0    0  0.00000000000E+00  0.00000000000E+00  0.45593999997E+02  0.45594000000E+02  0.51100000000E-03 0.  1.
         11   -1    0    0    0    0 -0.00000000000E+00 -0.00000000000E+00 -0.45593999997E+02  0.45594000000E+02  0.51100000000E-03 0. -1.
    9900012    2    1    2    0    0 -0.18045843065E+02  0.91656943349E+01 -0.35263345045E+02  0.50528857015E+02  0.29999991381E+02 0.  0.
        -12    1    1    2    0    0  0.18045843065E+02 -0.91656943349E+01  0.35263345045E+02  0.40659142985E+02  0.00000000000E+00 0.  1.
         11    1    3    3    0    0 -0.49329333721E+00  0.93313643322E+01 -0.58630429158E+01  0.11031453717E+02  0.51100000000E-03 0.  1.
        -11    1    3    3    0    0  0.34369159812E+01 -0.89199257202E+00 -0.11055143950E+02  0.11611384509E+02  0.51100000000E-03 0. -1.
         12    1    3    3    0    0 -0.20989465709E+02  0.72632257465E+00 -0.18345158179E+02  0.27886018788E+02  0.00000000000E+00 0. -1.
</event>
<event>
 7    1  0.2584640E-011  0.5052885E+02  0.7816164E-02  0.1300439E+00
        -11   -1    0    0    0    0  0.00000000000E+00  0.00000000000E+00  0.45593999997E+02  0.45594000000E+02  0.51100000000E-03 0. -1.
         11   -1    0    0    0    0 -0.00000000000E+00 -0.00000000000E+00 -0.45593999997E+02  0.45594000000E+02  0.51100000000E-03 0.  1.
    9900012    2    1    2    0    0 -0.27438876194E+00 -0.34363689399E+01  0.40512742238E+02  0.50528853375E+02  0.29999980318E+02 0.  0.
        -12    1    1    2    0    0  0.27438876194E+00  0.34363689399E+01 -0.40512742238E+02  0.40659146625E+02  0.00000000000E+00 0.  1.
         11    1    3    3    0    0  0.10155843073E+01  0.15713925408E+01  0.22591600595E+02  0.22668945801E+02  0.51100000000E-03 0. -1.
        -11    1    3    3    0    0  0.52959434090E+01 -0.30549415845E+01  0.19812959358E+02  0.20734826825E+02  0.51100000000E-03 0.  1.
        -12    1    3    3    0    0 -0.65859164783E+01 -0.19528198962E+01 -0.18918177157E+01  0.71250807487E+01  0.00000000000E+00 0.  1.
</event>
<event>
 7    1  0.2584640E-011  0.5052886E+02  0.7816164E-02  0.1300439E+00
        -11   -1    0    0    0    0  0.00000000000E+00  0.00000000000E+00  0.45593999997E+02  0.45594000000E+02  0.51100000000E-03 0.  1.
         11   -1    0    0    0    0 -0.00000000000E+00 -0.00000000000E+00 -0.45593999997E+02  0.45594000000E+02  0.51100000000E-03 0. -1.
    9900012    2    1    2    0    0  0.17432230978E+02  0.31075773715E+02 -0.19585180490E+02  0.50528859777E+02  0.29999999779E+02 0.  0.
        -12    1    1    2    0    0 -0.17432230978E+02 -0.31075773715E+02  0.19585180490E+02  0.40659140223E+02  0.00000000000E+00 0.  1.
         11    1    3    3    0    0 -0.40350937891E+00  0.16613472793E+02 -0.11425929915E+02  0.20167354134E+02  0.51100000000E-03 0. -1.
        -11    1    3    3    0    0  0.21510269581E+02  0.12994316315E+02 -0.59333091557E+01  0.25821466104E+02  0.51100000000E-03 0.  1.
         12    1    3    3    0    0 -0.36745292245E+01  0.14679846066E+01 -0.22259414192E+01  0.45400395404E+01  0.00000000000E+00 0. -1.
</event>
<event>
 7    1  0.2584640E-011  0.5052886E+02  0.7816164E-02  0.1300439E+00
        -11   -1    0    0    0    0  0.00000000000E+00  0.00000000000E+00  0.45593999997E+02  0.45594000000E+02  0.51100000000E-03 0.  1.
         11   -1    0    0    0    0 -0.00000000000E+00 -0.00000000000E+00 -0.45593999997E+02  0.45594000000E+02  0.51100000000E-03 0. -1.
    9900012    2    1    2    0    0  0.14507195162E+02 -0.29907370405E+02 -0.23414872733E+02  0.50528858578E+02  0.29999996135E+02 0.  0.
        -12    1    1    2    0    0 -0.14507195162E+02  0.29907370405E+02  0.23414872733E+02  0.40659141422E+02  0.00000000000E+00 0.  1.
         11    1    3    3    0    0  0.14236878746E+02 -0.18968568845E+02 -0.60204245890E+01  0.24469181289E+02  0.51100000000E-03 0. -1.
        -11    1    3    3    0    0  0.54815943518E+01 -0.81836685524E+01 -0.26793662446E+01  0.10207806392E+02  0.51100000000E-03 0.  1.
        -12    1    3    3    0    0 -0.52112779356E+01 -0.27551330078E+01 -0.14715081900E+02  0.15851870897E+02  0.00000000000E+00 0.  1.
</event>
<event>
 7    1  0.2584640E-011  0.5052886E+02  0.7816164E-02  0.1300439E+00
        -11   -1    0    0    0    0  0.00000000000E+00  0.00000000000E+00  0.45593999997E+02  0.45594000000E+02  0.51100000000E-03 0.  1.
         11   -1    0    0    0    0 -0.00000000000E+00 -0.00000000000E+00 -0.45593999997E+02  0.45594000000E+02  0.51100000000E-03 0. -1.
    9900012    2    1    2    0    0 -0.56072174373E+00  0.13618675703E+02 -0.38306433811E+02  0.50528860707E+02  0.30000002604E+02 0.  0.
        -12    1    1    2    0    0  0.56072174373E+00 -0.13618675703E+02  0.38306433811E+02  0.40659139293E+02  0.00000000000E+00 0.  1.
         11    1    3    3    0    0 -0.62195085223E+01  0.98485378558E+01 -0.35286469335E+01  0.12170757314E+02  0.51100000000E-03 0. -1.
        -11    1    3    3    0    0  0.16951869627E+01  0.32871870544E+01 -0.36731639258E+00  0.37167430854E+01  0.51100000000E-03 0.  1.
         12    1    3    3    0    0  0.39635998159E+01  0.48295079331E+00 -0.34410470485E+02  0.34641360307E+02  0.00000000000E+00 0. -1.
</event>
<event>
 7    1  0.2584640E-011  0.5052886E+02  0.7816164E-02  0.1300439E+00
        -11   -1    0    0    0    0  0.00000000000E+00  0.00000000000E+00  0.45593999997E+02  0.45594000000E+02  0.51100000000E-03 0.  1.
         11   -1    0    0    0    0 -0.00000000000E+00 -0.00000000000E+00 -0.45593999997E+02  0.45594000000E+02  0.51100000000E-03 0. -1.
    9900012    2    1    2    0    0  0.29986762024E+02 -0.74537221451E+01 -0.26427297625E+02  0.50528856745E+02  0.29999990561E+02 0.  0.
        -12    1    1    2    0    0 -0.29986762024E+02  0.74537221451E+01  0.26427297625E+02  0.40659143255E+02  0.00000000000E+00 0.  1.
         11    1    3    3    0    0  0.73119911818E+01 -0.79876013167E+01  0.61961637823E+00  0.10846700630E+02  0.51100000000E-03 0. -1.
        -11    1    3    3    0    0 -0.12699133528E+01 -0.94881194417E-01 -0.10482583102E+02  0.10559651088E+02  0.51100000000E-03 0.  1.
         12    1    3    3    0    0  0.23944684195E+02  0.62876036604E+00 -0.16564330902E+02  0.29122505026E+02  0.00000000000E+00 0. -1.
</event>
<event>
 7    1  0.2584640E-011  0.5052886E+02  0.7816164E-02  0.1300439E+00
        -11   -1    0    0    0    0  0.00000000000E+00  0.00000000000E+00  0.45593999997E+02  0.45594000000E+02  0.51100000000E-03 0.  1.
         11   -1    0    0    0    0 -0.00000000000E+00 -0.00000000000E+00 -0.45593999997E+02  0.45594000000E+02  0.51100000000E-03 0. -1.
    9900012    2    1    2    0    0  0.22889244735E+02  0.28539317062E+02 -0.17741357246E+02  0.50528857119E+02  0.29999991698E+02 0.  0.
        -12    1    1    2    0    0 -0.22889244735E+02 -0.28539317062E+02  0.17741357246E+02  0.40659142881E+02  0.00000000000E+00 0.  1.
         11    1    3    3    0    0  0.11390696696E+02  0.23185213906E+02 -0.10354782340E+02  0.27830264689E+02  0.51100000000E-03 0. -1.
        -11    1    3    3    0    0  0.14212570535E+01  0.98849723426E+01 -0.12630763854E+01  0.10066181602E+02  0.51100000000E-03 0.  1.
        -12    1    3    3    0    0  0.10077290986E+02 -0.45308691866E+01 -0.61234985207E+01  0.12632410828E+02  0.00000000000E+00 0.  1.
</event>
<event>
 7    1  0.2584640E-011  0.5052886E+02  0.7816164E-02  0.1300439E+00
        -11   -1    0    0    0    0  0.00000000000E+00  0.00000000000E+00  0.45593999997E+02  0.45594000000E+02  0.51100000000E-03 0.  1.
         11   -1    0    0    0    0 -0.00000000000E+00 -0.00000000000E+00 -0.45593999997E+02  0.45594000000E+02  0.51100000000E-03 0. -1.
    9900012    2    1    2    0    0  0.82973301956E+00 -0.25516013966E+02 -0.31645065814E+02  0.50528860609E+02  0.30000002308E+02 0.  0.
        -12    1    1    2    0    0 -0.82973301956E+00  0.25516013966E+02  0.31645065814E+02  0.40659139391E+02  0.00000000000E+00 0.  1.
         11    1    3    3    0    0  0.71224210387E+01 -0.57923401423E+00 -0.10942889620E+02  0.13069476921E+02  0.51100000000E-03 0. -1.
        -11    1    3    3    0    0 -0.39318581083E+01  0.11315396507E+01 -0.70467774141E-02  0.40914471869E+01  0.51100000000E-03 0.  1.
         12    1    3    3    0    0 -0.23608299108E+01 -0.26068319603E+02 -0.20695129417E+02  0.33367936502E+02  0.00000000000E+00 0. -1.
</event>
<event>
 7    1  0.2584640E-011  0.5052885E+02  0.7816164E-02  0.1300439E+00
        -11   -1    0    0    0    0  0.00000000000E+00  0.00000000000E+00  0.45593999997E+02  0.45594000000E+02  0.51100000000E-03 0. -1.
         11   -1    0    0    0    0 -0.00000000000E+00 -0.00000000000E+00 -0.45593999997E+02  0.45594000000E+02  0.51100000000E-03 0.  1.
    9900012    2    1    2    0    0 -0.35241201339E+02 -0.18487377787E+01 -0.20194211118E+02  0.50528852617E+02  0.29999978016E+02 0.  0.
        -12    1    1    2    0    0  0.35241201339E+02  0.18487377787E+01  0.20194211118E+02  0.40659147383E+02  0.00000000000E+00 0.  1.
         11    1    3    3    0    0 -0.26841679062E+01  0.18568195580E+01 -0.10713059972E+02  0.11199204902E+02  0.51100000000E-03 0. -1.
        -11    1    3    3    0    0 -0.23393714199E+02  0.27263568323E+01 -0.13837930334E+02  0.27316427325E+02  0.51100000000E-03 0.  1.
         12    1    3    3    0    0 -0.91633192337E+01 -0.64319141691E+01  0.43567791879E+01  0.12013220390E+02  0.00000000000E+00 0. -1.
</event>
<event>
 7    1  0.2584640E-011  0.5052887E+02  0.7816164E-02  0.1300439E+00
        -11   -1    0    0    0    0  0.00000000000E+00  0.00000000000E+00  0.45593999997E+02  0.45594000000E+02  0.51100000000E-03 0.  1.
         11   -1    0    0    0    0 -0.00000000000E+00 -0.00000000000E+00 -0.45593999997E+02  0.45594000000E+02  0.51100000000E-03 0. -1.
    9900012    2    1    2    0    0  0.11601290095E+02 -0.34852372652E+02 -0.17432360279E+02  0.50528868230E+02  0.30000025473E+02 0.  0.
        -12    1    1    2    0    0 -0.11601290095E+02  0.34852372652E+02  0.17432360279E+02  0.40659131770E+02  0.00000000000E+00 0.  1.
         11    1    3    3    0    0 -0.17012407597E+01  0.44215358624E+00 -0.25913342123E+01  0.31312510562E+01  0.51100000000E-03 0. -1.
        -11    1    3    3    0    0 -0.43046274099E+00 -0.29949600764E+02 -0.12586254185E+02  0.32489654950E+02  0.51100000000E-03 0.  1.
         12    1    3    3    0    0  0.13732993596E+02 -0.53449254744E+01 -0.22547718813E+01  0.14907962224E+02  0.00000000000E+00 0. -1.
</event>
<event>
 7    1  0.2584640E-011  0.5052885E+02  0.7816164E-02  0.1300439E+00
        -11   -1    0    0    0    0  0.00000000000E+00  0.00000000000E+00  0.45593999997E+02  0.45594000000E+02  0.51100000000E-03 0.  1.
         11   -1    0    0    0    0 -0.00000000000E+00 -0.00000000000E+00 -0.45593999997E+02  0.45594000000E+02  0.51100000000E-03 0. -1.
    9900012    2    1    2    0    0  0.35879662583E+01  0.62240865071E+01 -0.40019421041E+02  0.50528845863E+02  0.29999957484E+02 0.  0.
        -12    1    1    2    0    0 -0.35879662583E+01 -0.62240865071E+01  0.40019421041E+02  0.40659154137E+02  0.00000000000E+00 0.  1.
         11    1    3    3    0    0  0.90890373090E+00 -0.51804208629E+01 -0.27063037247E+02  0.27569382503E+02  0.51100000000E-03 0. -1.
        -11    1    3    3    0    0 -0.39172807020E+01  0.49531007318E+01 -0.12155593672E+02  0.13698056531E+02  0.51100000000E-03 0.  1.
        -12    1    3    3    0    0  0.65963432294E+01  0.64514066382E+01 -0.80079012183E+00  0.92614068278E+01  0.00000000000E+00 0.  1.
</event>
<event>
 7    1  0.2584640E-011  0.5052887E+02  0.7816164E-02  0.1300439E+00
        -11   -1    0    0    0    0  0.00000000000E+00  0.00000000000E+00  0.45593999997E+02  0.45594000000E+02  0.51100000000E-03 0.  1.
         11   -1    0    0    0    0 -0.00000000000E+00 -0.00000000000E+00 -0.45593999997E+02  0.45594000000E+02  0.51100000000E-03 0. -1.
    9900012    2    1    2    0    0  0.28126257038E+02 -0.26740539844E+02 -0.12125277611E+02  0.50528866177E+02  0.30000019231E+02 0.  0.
        -12    1    1    2    0    0 -0.28126257038E+02  0.26740539844E+02  0.12125277611E+02  0.40659133823E+02  0.00000000000E+00 0.  1.
         11    1    3    3    0    0  0.97327834138E+01 -0.10844951296E+01 -0.67049463999E+01  0.11868424881E+02  0.51100000000E-03 0. -1.
        -11    1    3    3    0    0  0.15330845039E+01 -0.11496594432E+02 -0.10959296383E+02  0.15957073952E+02  0.51100000000E-03 0.  1.
        -12    1    3    3    0    0  0.16860389121E+02 -0.14159450281E+02  0.55389651719E+01  0.22703367344E+02  0.00000000000E+00 0.  1.
</event>
<event>
 7    1  0.2584640E-011  0.5052884E+02  0.7816164E-02  0.1300439E+00
        -11   -1    0    0    0    0  0.00000000000E+00  0.00000000000E+00  0.45593999997E+02  0.45594000000E+02  0.51100000000E-03 0.  1.
         11   -1    0    0    0    0 -0.00000000000E+00 -0.00000000000E+00 -0.45593999997E+02  0.45594000000E+02  0.51100000000E-03 0. -1.
    9900012    2    1    2    0    0 -0.29255274877E+02  0.19919145112E+02  0.20013085236E+02  0.50528843211E+02  0.29999949424E+02 0.  0.
        -12    1    1    2    0    0  0.29255274877E+02 -0.19919145112E+02 -0.20013085236E+02  0.40659156789E+02  0.00000000000E+00 0.  1.
         11    1    3    3    0    0 -0.20205142840E+02  0.19541459229E+02  0.14689211381E+02  0.31715758816E+02  0.51100000000E-03 0. -1.
        -11    1    3    3    0    0 -0.21150066354E+01  0.29940426360E+01  0.95858827237E+01  0.10262879334E+02  0.51100000000E-03 0.  1.
         12    1    3    3    0    0 -0.69351254013E+01 -0.26163567534E+01 -0.42620088684E+01  0.85502050611E+01  0.00000000000E+00 0. -1.
</event>
<event>
 7    1  0.2584640E-011  0.5052885E+02  0.7816164E-02  0.1300439E+00
        -11   -1    0    0    0    0  0.00000000000E+00  0.00000000000E+00  0.45593999997E+02  0.45594000000E+02  0.51100000000E-03 0.  1.
         11   -1    0    0    0    0 -0.00000000000E+00 -0.00000000000E+00 -0.45593999997E+02  0.45594000000E+02  0.51100000000E-03 0. -1.
    9900012    2    1    2    0    0  0.25133222119E+02  0.27731072635E+02  0.15889465008E+02  0.50528851683E+02  0.29999975177E+02 0.  0.
        -12    1    1    2    0    0 -0.25133222119E+02 -0.27731072635E+02 -0.15889465008E+02  0.40659148317E+02  0.00000000000E+00 0.  1.
         11    1    3    3    0    0  0.14971650299E+02  0.22453671515E+02  0.15928493007E+02  0.31337430764E+02  0.51100000000E-03 0. -1.
        -11    1    3    3    0    0  0.15902979891E+01  0.15011944242E+01  0.70907027297E+01  0.74202896073E+01  0.51100000000E-03 0.  1.
         12    1    3    3    0    0  0.85712738308E+01  0.37762066965E+01 -0.71297307288E+01  0.11771131312E+02  0.00000000000E+00 0. -1.
</event>
<event>
 7    1  0.2584640E-011  0.5052887E+02  0.7816164E-02  0.1300439E+00
        -11   -1    0    0    0    0  0.00000000000E+00  0.00000000000E+00  0.45593999997E+02  0.45594000000E+02  0.51100000000E-03 0.  1.
         11   -1    0    0    0    0 -0.00000000000E+00 -0.00000000000E+00 -0.45593999997E+02  0.45594000000E+02  0.51100000000E-03 0. -1.
    9900012    2    1    2    0    0  0.39374055986E+02 -0.21061896860E+01 -0.99202899138E+01  0.50528874680E+02  0.30000045078E+02 0.  0.
        -12    1    1    2    0    0 -0.39374055986E+02  0.21061896860E+01  0.99202899138E+01  0.40659125320E+02  0.00000000000E+00 0.  1.
         11    1    3    3    0    0  0.15461992979E+01 -0.55382492389E+01 -0.47384176637E+01  0.74508750572E+01  0.51100000000E-03 0. -1.
        -11    1    3    3    0    0  0.26139973983E+01 -0.86113503998E+00  0.53981872716E+01  0.60592872547E+01  0.51100000000E-03 0.  1.
         12    1    3    3    0    0  0.35213859290E+02  0.42931945929E+01 -0.10580059522E+02  0.37018712368E+02  0.00000000000E+00 0. -1.
</event>
<event>
 7    1  0.2584640E-011  0.5052886E+02  0.7816164E-02  0.1300439E+00
        -11   -1    0    0    0    0  0.00000000000E+00  0.00000000000E+00  0.45593999997E+02  0.45594000000E+02  0.51100000000E-03 0. -1.
         11   -1    0    0    0    0 -0.00000000000E+00 -0.00000000000E+00 -0.45593999997E+02  0.45594000000E+02  0.51100000000E-03 0.  1.
    9900012    2    1    2    0    0  0.12661056505E+02 -0.41315504319E+01  0.38416061078E+02  0.50528858229E+02  0.29999995074E+02 0.  0.
        -12    1    1    2    0    0 -0.12661056505E+02  0.41315504319E+01 -0.38416061078E+02  0.40659141771E+02  0.00000000000E+00 0.  1.
         11    1    3    3    0    0  0.37844904712E+00  0.92721956231E+01  0.13639295046E+02  0.16496884705E+02  0.51100000000E-03 0. -1.
        -11    1    3    3    0    0  0.28934674480E+01 -0.11494455595E+02  0.68099253407E+01  0.13670030970E+02  0.51100000000E-03 0.  1.
         12    1    3    3    0    0  0.93891400096E+01 -0.19092904598E+01  0.17966840692E+02  0.20361942555E+02  0.00000000000E+00 0. -1.
</event>
<event>
 7    1  0.2584640E-011  0.5052883E+02  0.7816164E-02  0.1300439E+00
        -11   -1    0    0    0    0  0.00000000000E+00  0.00000000000E+00  0.45593999997E+02  0.45594000000E+02  0.51100000000E-03 0.  1.
         11   -1    0    0    0    0 -0.00000000000E+00 -0.00000000000E+00 -0.45593999997E+02  0.45594000000E+02  0.51100000000E-03 0. -1.
    9900012    2    1    2    0    0  0.43917067895E+00  0.16396327543E+02 -0.37203968492E+02  0.50528834990E+02  0.29999924434E+02 0.  0.
        -12    1    1    2    0    0 -0.43917067895E+00 -0.16396327543E+02  0.37203968492E+02  0.40659165010E+02  0.00000000000E+00 0.  1.
         11    1    3    3    0    0  0.75776988576E+01  0.51846248505E+01 -0.10606000582E+02  0.14028153956E+02  0.51100000000E-03 0.  1.
        -11    1    3    3    0    0 -0.85062256271E+01 -0.42202922282E+01 -0.96380835205E+01  0.13529944387E+02  0.51100000000E-03 0. -1.
         12    1    3    3    0    0  0.13676974484E+01  0.15431994921E+02 -0.16959884390E+02  0.22970736646E+02  0.00000000000E+00 0. -1.
</event>
<event>
 7    1  0.2584640E-011  0.5052887E+02  0.7816164E-02  0.1300439E+00
        -11   -1    0    0    0    0  0.00000000000E+00  0.00000000000E+00  0.45593999997E+02  0.45594000000E+02  0.51100000000E-03 0. -1.
         11   -1    0    0    0    0 -0.00000000000E+00 -0.00000000000E+00 -0.45593999997E+02  0.45594000000E+02  0.51100000000E-03 0.  1.
    9900012    2    1    2    0    0  0.29364832800E+02 -0.24676518070E+02  0.13488560658E+02  0.50528865503E+02  0.30000017183E+02 0.  0.
        -12    1    1    2    0    0 -0.29364832800E+02  0.24676518070E+02 -0.13488560658E+02  0.40659134497E+02  0.00000000000E+00 0.  1.
         11    1    3    3    0    0  0.17730243486E+02 -0.93639278945E+01  0.10818690227E+02  0.22783519003E+02  0.51100000000E-03 0. -1.
        -11    1    3    3    0    0  0.14042446854E+02 -0.26668361760E+01  0.38938682807E+01  0.14814335601E+02  0.51100000000E-03 0.  1.
         12    1    3    3    0    0 -0.24078575399E+01 -0.12645753999E+02 -0.12239978492E+01  0.12931010899E+02  0.00000000000E+00 0. -1.
</event>
<event>
 7    1  0.2584640E-011  0.5052886E+02  0.7816164E-02  0.1300439E+00
        -11   -1    0    0    0    0  0.00000000000E+00  0.00000000000E+00  0.45593999997E+02  0.45594000000E+02  0.51100000000E-03 0.  1.
         11   -1    0    0    0    0 -0.00000000000E+00 -0.00000000000E+00 -0.45593999997E+02  0.45594000000E+02  0.51100000000E-03 0. -1.
    9900012    2    1    2    0    0  0.29609794423E+02  0.13108066219E+02 -0.24588705593E+02  0.50528858734E+02  0.29999996607E+02 0.  0.
        -12    1    1    2    0    0 -0.29609794423E+02 -0.13108066219E+02  0.24588705593E+02  0.40659141266E+02  0.00000000000E+00 0.  1.
         11    1    3    3    0    0  0.15237256840E+02  0.13800994585E+02 -0.83343759308E+00  0.20575132224E+02  0.51100000000E-03 0. -1.
        -11    1    3    3    0    0  0.88890485493E+00  0.38960276945E+01 -0.55433667685E+01  0.68336007367E+01  0.51100000000E-03 0.  1.
         12    1    3    3    0    0  0.13483632728E+02 -0.45889560613E+01 -0.18211901232E+02  0.23120125773E+02  0.00000000000E+00 0. -1.
</event>
<event>
 7    1  0.2584640E-011  0.5052885E+02  0.7816164E-02  0.1300439E+00
        -11   -1    0    0    0    0  0.00000000000E+00  0.00000000000E+00  0.45593999997E+02  0.45594000000E+02  0.51100000000E-03 0.  1.
         11   -1    0    0    0    0 -0.00000000000E+00 -0.00000000000E+00 -0.45593999997E+02  0.45594000000E+02  0.51100000000E-03 0. -1.
    9900012    2    1    2    0    0  0.91035624130E+01 -0.23608729086E+02  0.31826393156E+02  0.50528852949E+02  0.29999979023E+02 0.  0.
        -12    1    1    2    0    0 -0.91035624130E+01  0.23608729086E+02 -0.31826393156E+02  0.40659147051E+02  0.00000000000E+00 0.  1.
         11    1    3    3    0    0  0.42139410791E+01 -0.11277112700E+02  0.35359828640E+01  0.12547260471E+02  0.51100000000E-03 0. -1.
        -11    1    3    3    0    0  0.12708616340E+02 -0.34798800414E+01  0.11730809887E+02  0.17641723137E+02  0.51100000000E-03 0.  1.
        -12    1    3    3    0    0 -0.78189950061E+01 -0.88517363448E+01  0.16559600405E+02  0.20339869340E+02  0.00000000000E+00 0.  1.
</event>
<event>
 7    1  0.2584640E-011  0.5052886E+02  0.7816164E-02  0.1300439E+00
        -11   -1    0    0    0    0  0.00000000000E+00  0.00000000000E+00  0.45593999997E+02  0.45594000000E+02  0.51100000000E-03 0.  1.
         11   -1    0    0    0    0 -0.00000000000E+00 -0.00000000000E+00 -0.45593999997E+02  0.45594000000E+02  0.51100000000E-03 0. -1.
    9900012    2    1    2    0    0  0.51569602675E+01  0.14401419152E+02 -0.37671882845E+02  0.50528857487E+02  0.29999992818E+02 0.  0.
        -12    1    1    2    0    0 -0.51569602675E+01 -0.14401419152E+02  0.37671882845E+02  0.40659142513E+02  0.00000000000E+00 0.  1.
         11    1    3    3    0    0  0.47149018680E+01  0.21812496093E+01 -0.72991826723E+00  0.52460394986E+01  0.51100000000E-03 0. -1.
        -11    1    3    3    0    0 -0.18705365112E+01  0.16082391613E+02 -0.12567006149E+02  0.20495654922E+02  0.51100000000E-03 0.  1.
         12    1    3    3    0    0  0.23125949107E+01 -0.38622220702E+01 -0.24374958428E+02  0.24787163067E+02  0.00000000000E+00 0. -1.
</event>
<event>
 7    1  0.2584640E-011  0.5052886E+02  0.7816164E-02  0.1300439E+00
        -11   -1    0    0    0    0  0.00000000000E+00  0.00000000000E+00  0.45593999997E+02  0.45594000000E+02  0.51100000000E-03 0.  1.
         11   -1    0    0    0    0 -0.00000000000E+00 -0.00000000000E+00 -0.45593999997E+02  0.45594000000E+02  0.51100000000E-03 0. -1.
    9900012    2    1    2    0    0 -0.26542031463E+02  0.17706800888E+02 -0.25202296502E+02  0.50528856122E+02  0.29999988669E+02 0.  0.
        -12    1    1    2    0    0  0.26542031463E+02 -0.17706800888E+02  0.25202296502E+02  0.40659143878E+02  0.00000000000E+00 0.  1.
         11    1    3    3    0    0 -0.25623125277E+01  0.83062444963E+01 -0.40768660780E+01  0.96010405895E+01  0.51100000000E-03 0. -1.
        -11    1    3    3    0    0  0.42940987651E+01  0.22968372423E+00  0.26326107422E+00  0.43082879978E+01  0.51100000000E-03 0.  1.
        -12    1    3    3    0    0 -0.28273817701E+02  0.91708726676E+01 -0.21388691498E+02  0.36619527535E+02  0.00000000000E+00 0.  1.
</event>
<event>
 7    1  0.2584640E-011  0.5052886E+02  0.7816164E-02  0.1300439E+00
        -11   -1    0    0    0    0  0.00000000000E+00  0.00000000000E+00  0.45593999997E+02  0.45594000000E+02  0.51100000000E-03 0. -1.
         11   -1    0    0    0    0 -0.00000000000E+00 -0.00000000000E+00 -0.45593999997E+02  0.45594000000E+02  0.51100000000E-03 0.  1.
    9900012    2    1    2    0    0  0.27721346935E+02 -0.24617603487E+02  0.16693297081E+02  0.50528860255E+02  0.30000001233E+02 0.  0.
        -12    1    1    2    0    0 -0.27721346935E+02  0.24617603487E+02 -0.16693297081E+02  0.40659139745E+02  0.00000000000E+00 0.  1.
         11    1    3    3    0    0  0.20391668559E+00 -0.65824767291E+01 -0.13436248069E+00  0.65870050433E+01  0.51100000000E-03 0. -1.
        -11    1    3    3    0    0  0.24265611288E+02 -0.20396544976E+02  0.58272722324E+01  0.32230358981E+02  0.51100000000E-03 0.  1.
        -12    1    3    3    0    0  0.32518189619E+01  0.23614182188E+01  0.11000387329E+02  0.11711496231E+02  0.00000000000E+00 0.  1.
</event>
<event>
 7    1  0.2584640E-011  0.5052886E+02  0.7816164E-02  0.1300439E+00
        -11   -1    0    0    0    0  0.00000000000E+00  0.00000000000E+00  0.45593999997E+02  0.45594000000E+02  0.51100000000E-03 0. -1.
         11   -1    0    0    0    0 -0.00000000000E+00 -0.00000000000E+00 -0.45593999997E+02  0.45594000000E+02  0.51100000000E-03 0.  1.
    9900012    2    1    2    0    0  0.29790935912E+02 -0.25313601624E+02  0.11175303377E+02  0.50528859634E+02  0.29999999344E+02 0.  0.
        -12    1    1    2    0    0 -0.29790935912E+02  0.25313601624E+02 -0.11175303377E+02  0.40659140366E+02  0.00000000000E+00 0.  1.
         11    1    3    3    0    0  0.98991655692E+01 -0.20698857954E+02  0.97747916883E+01  0.24939582041E+02  0.51100000000E-03 0. -1.
        -11    1    3    3    0    0 -0.12786067644E+01 -0.69725383247E+00  0.36620739672E+01  0.39410384630E+01  0.51100000000E-03 0.  1.
         12    1    3    3    0    0  0.21170377107E+02 -0.39174898375E+01 -0.22615622787E+01  0.21648239130E+02  0.00000000000E+00 0. -1.
</event>
<event>
 7    1  0.2584640E-011  0.5052886E+02  0.7816164E-02  0.1300439E+00
        -11   -1    0    0    0    0  0.00000000000E+00  0.00000000000E+00  0.45593999997E+02  0.45594000000E+02  0.51100000000E-03 0. -1.
         11   -1    0    0    0    0 -0.00000000000E+00 -0.00000000000E+00 -0.45593999997E+02  0.45594000000E+02  0.51100000000E-03 0.  1.
    9900012    2    1    2    0    0  0.38639223976E+02  0.88960986815E+01  0.90019634697E+01  0.50528861451E+02  0.30000004866E+02 0.  0.
        -12    1    1    2    0    0 -0.38639223976E+02 -0.88960986815E+01 -0.90019634697E+01  0.40659138549E+02  0.00000000000E+00 0.  1.
         11    1    3    3    0    0  0.36151584903E+02  0.40851704881E+01  0.90656410698E+01  0.37494153640E+02  0.51100000000E-03 0.  1.
        -11    1    3    3    0    0  0.23546451608E+01  0.55500247810E+01  0.50510599558E+01  0.78651341909E+01  0.51100000000E-03 0. -1.
        -12    1    3    3    0    0  0.13299391238E+00 -0.73909658757E+00 -0.51147375558E+01  0.51695736199E+01  0.00000000000E+00 0.  1.
</event>
<event>
 7    1  0.2584640E-011  0.5052885E+02  0.7816164E-02  0.1300439E+00
        -11   -1    0    0    0    0  0.00000000000E+00  0.00000000000E+00  0.45593999997E+02  0.45594000000E+02  0.51100000000E-03 0.  1.
         11   -1    0    0    0    0 -0.00000000000E+00 -0.00000000000E+00 -0.45593999997E+02  0.45594000000E+02  0.51100000000E-03 0. -1.
    9900012    2    1    2    0    0 -0.40006136876E+02 -0.38606542067E+01 -0.61457873889E+01  0.50528851691E+02  0.29999975198E+02 0.  0.
        -12    1    1    2    0    0  0.40006136876E+02  0.38606542067E+01  0.61457873889E+01  0.40659148309E+02  0.00000000000E+00 0.  1.
         11    1    3    3    0    0 -0.35520813742E+01  0.80150382265E+01 -0.11903864075E+01  0.88473238847E+01  0.51100000000E-03 0. -1.
        -11    1    3    3    0    0 -0.12314211865E+02 -0.51686518087E+01  0.56167540738E+01  0.14488019256E+02  0.51100000000E-03 0.  1.
         12    1    3    3    0    0 -0.24139843637E+02 -0.67070406244E+01 -0.10572155055E+02  0.27193508550E+02  0.00000000000E+00 0. -1.
</event>
<event>
 7    1  0.2584640E-011  0.5052886E+02  0.7816164E-02  0.1300439E+00
        -11   -1    0    0    0    0  0.00000000000E+00  0.00000000000E+00  0.45593999997E+02  0.45594000000E+02  0.51100000000E-03 0.  1.
         11   -1    0    0    0    0 -0.00000000000E+00 -0.00000000000E+00 -0.45593999997E+02  0.45594000000E+02  0.51100000000E-03 0. -1.
    9900012    2    1    2    0    0 -0.32006883997E+01 -0.16592586900E+02 -0.36981176827E+02  0.50528858521E+02  0.29999995962E+02 0.  0.
        -12    1    1    2    0    0  0.32006883997E+01  0.16592586900E+02  0.36981176827E+02  0.40659141479E+02  0.00000000000E+00 0.  1.
         11    1    3    3    0    0  0.12296556970E+01 -0.36496751491E+01  0.15267286531E+01  0.41428350762E+01  0.51100000000E-03 0. -1.
        -11    1    3    3    0    0 -0.89422000750E+01  0.53545060642E+00 -0.56642297040E+01  0.10598733317E+02  0.51100000000E-03 0.  1.
         12    1    3    3    0    0  0.45118559782E+01 -0.13478362357E+02 -0.32843675776E+02  0.35787290128E+02  0.00000000000E+00 0. -1.
</event>
<event>
 7    1  0.2584640E-011  0.5052886E+02  0.7816164E-02  0.1300439E+00
        -11   -1    0    0    0    0  0.00000000000E+00  0.00000000000E+00  0.45593999997E+02  0.45594000000E+02  0.51100000000E-03 0.  1.
         11   -1    0    0    0    0 -0.00000000000E+00 -0.00000000000E+00 -0.45593999997E+02  0.45594000000E+02  0.51100000000E-03 0. -1.
    9900012    2    1    2    0    0 -0.13144223453E+01 -0.34833593517E+02 -0.20929861007E+02  0.50528855577E+02  0.29999987013E+02 0.  0.
        -12    1    1    2    0    0  0.13144223453E+01  0.34833593517E+02  0.20929861007E+02  0.40659144423E+02  0.00000000000E+00 0.  1.
         11    1    3    3    0    0 -0.84417317416E+01 -0.19892676540E+02 -0.67284590082E+01  0.22633019586E+02  0.51100000000E-03 0. -1.
        -11    1    3    3    0    0  0.27128170182E+01 -0.88264590011E+01  0.25036643836E+01  0.95673449963E+01  0.51100000000E-03 0.  1.
        -12    1    3    3    0    0  0.44144923781E+01 -0.61144579762E+01 -0.16705066383E+02  0.18328490995E+02  0.00000000000E+00 0.  1.
</event>
<event>
 7    1  0.2584640E-011  0.5052890E+02  0.7816164E-02  0.1300439E+00
        -11   -1    0    0    0    0  0.00000000000E+00  0.00000000000E+00  0.45593999997E+02  0.45594000000E+02  0.51100000000E-03 0.  1.
         11   -1    0    0    0    0 -0.00000000000E+00 -0.00000000000E+00 -0.45593999997E+02  0.45594000000E+02  0.51100000000E-03 0. -1.
    9900012    2    1    2    0    0 -0.16984231877E+02  0.34123205622E+02 -0.14152924486E+02  0.50528898118E+02  0.30000116320E+02 0.  0.
        -12    1    1    2    0    0  0.16984231877E+02 -0.34123205622E+02  0.14152924486E+02  0.40659101882E+02  0.00000000000E+00 0.  1.
         11    1    3    3    0    0 -0.10848092691E+02  0.15247178444E+02 -0.39851749021E+01  0.19132150553E+02  0.51100000000E-03 0. -1.
        -11    1    3    3    0    0 -0.13830232748E+01 -0.20718552481E+01  0.46680046922E+01  0.52910873755E+01  0.51100000000E-03 0.  1.
         12    1    3    3    0    0 -0.47531159113E+01  0.20947882426E+02 -0.14835754276E+02  0.26105660189E+02  0.00000000000E+00 0. -1.
</event>
<event>
 7    1  0.2584640E-011  0.5052887E+02  0.7816164E-02  0.1300439E+00
        -11   -1    0    0    0    0  0.00000000000E+00  0.00000000000E+00  0.45593999997E+02  0.45594000000E+02  0.51100000000E-03 0. -1.
         11   -1    0    0    0    0 -0.00000000000E+00 -0.00000000000E+00 -0.45593999997E+02  0.45594000000E+02  0.51100000000E-03 0.  1.
    9900012    2    1    2    0    0 -0.11599391202E+02  0.34664545840E+02 -0.17804161641E+02  0.50528870812E+02  0.30000033321E+02 0.  0.
        -12    1    1    2    0    0  0.11599391202E+02 -0.34664545840E+02  0.17804161641E+02  0.40659129188E+02  0.00000000000E+00 0.  1.
         11    1    3    3    0    0 -0.66319068016E+01  0.94693664725E+01  0.15071585920E+01  0.11658585527E+02  0.51100000000E-03 0. -1.
        -11    1    3    3    0    0  0.35881120194E+01 -0.59935990963E+00  0.21641130782E+01  0.42328673309E+01  0.51100000000E-03 0.  1.
         12    1    3    3    0    0 -0.85555964194E+01  0.25794539277E+02 -0.21475433312E+02  0.34637417954E+02  0.00000000000E+00 0. -1.
</event>
<event>
 7    1  0.2584640E-011  0.5052886E+02  0.7816164E-02  0.1300439E+00
        -11   -1    0    0    0    0  0.00000000000E+00  0.00000000000E+00  0.45593999997E+02  0.45594000000E+02  0.51100000000E-03 0. -1.
         11   -1    0    0    0    0 -0.00000000000E+00 -0.00000000000E+00 -0.45593999997E+02  0.45594000000E+02  0.51100000000E-03 0.  1.
    9900012    2    1    2    0    0  0.32656387247E+02 -0.15453691707E+02 -0.18652325608E+02  0.50528862453E+02  0.30000007914E+02 0.  0.
        -12    1    1    2    0    0 -0.32656387247E+02  0.15453691707E+02  0.18652325608E+02  0.40659137547E+02  0.00000000000E+00 0.  1.
         11    1    3    3    0    0 -0.13685227421E+01 -0.18972759004E+01 -0.60057581514E+01  0.64452805658E+01  0.51100000000E-03 0. -1.
        -11    1    3    3    0    0  0.55657573270E+01 -0.52874268227E+01 -0.12235700385E+02  0.14444614955E+02  0.51100000000E-03 0.  1.
         12    1    3    3    0    0  0.28459152662E+02 -0.82689889844E+01 -0.41086707194E+00  0.29638966932E+02  0.00000000000E+00 0. -1.
</event>
<event>
 7    1  0.2584640E-011  0.5052885E+02  0.7816164E-02  0.1300439E+00
        -11   -1    0    0    0    0  0.00000000000E+00  0.00000000000E+00  0.45593999997E+02  0.45594000000E+02  0.51100000000E-03 0.  1.
         11   -1    0    0    0    0 -0.00000000000E+00 -0.00000000000E+00 -0.45593999997E+02  0.45594000000E+02  0.51100000000E-03 0. -1.
    9900012    2    1    2    0    0 -0.29436483533E+02 -0.28030588034E+02 -0.97252269045E+00  0.50528853075E+02  0.29999979406E+02 0.  0.
        -12    1    1    2    0    0  0.29436483533E+02  0.28030588034E+02  0.97252269045E+00  0.40659146925E+02  0.00000000000E+00 0.  1.
         11    1    3    3    0    0  0.23007378063E+01 -0.93140076698E-01 -0.20425718345E+01  0.30780138868E+01  0.51100000000E-03 0. -1.
        -11    1    3    3    0    0 -0.88383358485E+01  0.15312790350E+01  0.43844098980E+01  0.99841898253E+01  0.51100000000E-03 0.  1.
         12    1    3    3    0    0 -0.22898885491E+02 -0.29468726992E+02 -0.33143607539E+01  0.37466649363E+02  0.00000000000E+00 0. -1.
</event>
<event>
 7    1  0.2584640E-011  0.5052889E+02  0.7816164E-02  0.1300439E+00
        -11   -1    0    0    0    0  0.00000000000E+00  0.00000000000E+00  0.45593999997E+02  0.45594000000E+02  0.51100000000E-03 0.  1.
         11   -1    0    0    0    0 -0.00000000000E+00 -0.00000000000E+00 -0.45593999997E+02  0.45594000000E+02  0.51100000000E-03 0. -1.
    9900012    2    1    2    0    0  0.19153175862E+02 -0.35768151478E+02  0.26378519760E+01  0.50528891933E+02  0.30000097520E+02 0.  0.
        -12    1    1    2    0    0 -0.19153175862E+02  0.35768151478E+02 -0.26378519760E+01  0.40659108067E+02  0.00000000000E+00 0.  1.
         11    1    3    3    0    0  0.67055614752E+00 -0.22868754893E+02  0.40367009042E-01  0.22878619400E+02  0.51100000000E-03 0. -1.
        -11    1    3    3    0    0  0.17290194071E+02 -0.15565124215E+02 -0.66240181550E+00  0.23273647743E+02  0.51100000000E-03 0.  1.
        -12    1    3    3    0    0  0.11924256436E+01  0.26657276306E+01  0.32598867824E+01  0.43766247898E+01  0.00000000000E+00 0.  1.
</event>
<event>
 7    1  0.2584640E-011  0.5052886E+02  0.7816164E-02  0.1300439E+00
        -11   -1    0    0    0    0  0.00000000000E+00  0.00000000000E+00  0.45593999997E+02  0.45594000000E+02  0.51100000000E-03 0. -1.
         11   -1    0    0    0    0 -0.00000000000E+00 -0.00000000000E+00 -0.45593999997E+02  0.45594000000E+02  0.51100000000E-03 0.  1.
    9900012    2    1    2    0    0  0.40613232812E+02  0.18975715253E+01  0.36067089834E+00  0.50528861536E+02  0.30000005125E+02 0.  0.
        -12    1    1    2    0    0 -0.40613232812E+02 -0.18975715253E+01 -0.36067089834E+00  0.40659138464E+02  0.00000000000E+00 0.  1.
         11    1    3    3    0    0  0.18437285468E+02  0.10083408958E+02  0.20206459885E+00  0.21015457692E+02  0.51100000000E-03 0. -1.
        -11    1    3    3    0    0 -0.17662381895E+01  0.25366874568E+00 -0.34383223065E+01  0.38737586037E+01  0.51100000000E-03 0.  1.
         12    1    3    3    0    0  0.23942185533E+02 -0.84395061781E+01  0.35969286060E+01  0.25639645240E+02  0.00000000000E+00 0. -1.
</event>
<event>
 7    1  0.2584640E-011  0.5052888E+02  0.7816164E-02  0.1300439E+00
        -11   -1    0    0    0    0  0.00000000000E+00  0.00000000000E+00  0.45593999997E+02  0.45594000000E+02  0.51100000000E-03 0.  1.
         11   -1    0    0    0    0 -0.00000000000E+00 -0.00000000000E+00 -0.45593999997E+02  0.45594000000E+02  0.51100000000E-03 0. -1.
    9900012    2    1    2    0    0  0.88801942117E+01 -0.27526901292E+02 -0.28575791320E+02  0.50528880561E+02  0.30000062954E+02 0.  0.
        -12    1    1    2    0    0 -0.88801942117E+01  0.27526901292E+02  0.28575791320E+02  0.40659119439E+02  0.00000000000E+00 0.  1.
         11    1    3    3    0    0 -0.72425643300E+01 -0.84444505140E+01 -0.35162112681E+01  0.11667357220E+02  0.51100000000E-03 0. -1.
        -11    1    3    3    0    0  0.28980145000E+00  0.24710679691E+01 -0.47141368410E+00  0.25322703076E+01  0.51100000000E-03 0.  1.
        -12    1    3    3    0    0  0.15832957092E+02 -0.21553518747E+02 -0.24588166368E+02  0.36329253034E+02  0.00000000000E+00 0.  1.
</event>
<event>
 7    1  0.2584640E-011  0.5052887E+02  0.7816164E-02  0.1300439E+00
        -11   -1    0    0    0    0  0.00000000000E+00  0.00000000000E+00  0.45593999997E+02  0.45594000000E+02  0.51100000000E-03 0. -1.
         11   -1    0    0    0    0 -0.00000000000E+00 -0.00000000000E+00 -0.45593999997E+02  0.45594000000E+02  0.51100000000E-03 0.  1.
    9900012    2    1    2    0    0 -0.19123249435E+02  0.34163233973E+02  0.10969939119E+02  0.50528870783E+02  0.30000033232E+02 0.  0.
        -12    1    1    2    0    0  0.19123249435E+02 -0.34163233973E+02 -0.10969939119E+02  0.40659129217E+02  0.00000000000E+00 0.  1.
         11    1    3    3    0    0 -0.13780605932E+01  0.29395407518E-01  0.31348814060E+01  0.34245286945E+01  0.51100000000E-03 0. -1.
        -11    1    3    3    0    0 -0.18917989799E+02  0.14316107276E+02  0.12348125817E+02  0.26745419739E+02  0.51100000000E-03 0.  1.
        -12    1    3    3    0    0  0.11728009571E+01  0.19817731289E+02 -0.45130681035E+01  0.20358922350E+02  0.00000000000E+00 0.  1.
</event>
<event>
 7    1  0.2584640E-011  0.5052885E+02  0.7816164E-02  0.1300439E+00
        -11   -1    0    0    0    0  0.00000000000E+00  0.00000000000E+00  0.45593999997E+02  0.45594000000E+02  0.51100000000E-03 0.  1.
         11   -1    0    0    0    0 -0.00000000000E+00 -0.00000000000E+00 -0.45593999997E+02  0.45594000000E+02  0.51100000000E-03 0. -1.
    9900012    2    1    2    0    0 -0.35531634452E+02 -0.19750827322E+02  0.75762191719E+00  0.50528853210E+02  0.29999979816E+02 0.  0.
        -12    1    1    2    0    0  0.35531634452E+02  0.19750827322E+02 -0.75762191719E+00  0.40659146790E+02  0.00000000000E+00 0.  1.
         11    1    3    3    0    0 -0.38300746931E+01 -0.56721093352E+01 -0.86864894349E+01  0.11058815281E+02  0.51100000000E-03 0. -1.
        -11    1    3    3    0    0 -0.20860429832E+02 -0.41440578112E+01 -0.12238129029E+01  0.21303250133E+02  0.51100000000E-03 0.  1.
        -12    1    3    3    0    0 -0.10841129927E+02 -0.99346601754E+01  0.10667924255E+02  0.18166787795E+02  0.00000000000E+00 0.  1.
</event>
<event>
 7    1  0.2584640E-011  0.5052886E+02  0.7816164E-02  0.1300439E+00
        -11   -1    0    0    0    0  0.00000000000E+00  0.00000000000E+00  0.45593999997E+02  0.45594000000E+02  0.51100000000E-03 0.  1.
         11   -1    0    0    0    0 -0.00000000000E+00 -0.00000000000E+00 -0.45593999997E+02  0.45594000000E+02  0.51100000000E-03 0. -1.
    9900012    2    1    2    0    0 -0.20771079916E+02  0.19913492906E+02 -0.28725964835E+02  0.50528855687E+02  0.29999987345E+02 0.  0.
        -12    1    1    2    0    0  0.20771079916E+02 -0.19913492906E+02  0.28725964835E+02  0.40659144313E+02  0.00000000000E+00 0.  1.
         11    1    3    3    0    0 -0.19546324222E+02  0.20049851232E+02 -0.20101067745E+02  0.34468946166E+02  0.51100000000E-03 0.  1.
        -11    1    3    3    0    0  0.10470394049E+01  0.57599915697E+01 -0.77013525714E+01  0.96739147241E+01  0.51100000000E-03 0. -1.
        -12    1    3    3    0    0 -0.22717950987E+01 -0.58963498959E+01 -0.92354451848E+00  0.63859947967E+01  0.00000000000E+00 0.  1.
</event>
<event>
 7    1  0.2584640E-011  0.5052886E+02  0.7816164E-02  0.1300439E+00
        -11   -1    0    0    0    0  0.00000000000E+00  0.00000000000E+00  0.45593999997E+02  0.45594000000E+02  0.51100000000E-03 0.  1.
         11   -1    0    0    0    0 -0.00000000000E+00 -0.00000000000E+00 -0.45593999997E+02  0.45594000000E+02  0.51100000000E-03 0. -1.
    9900012    2    1    2    0    0 -0.15030837359E+02 -0.20790923838E+02 -0.31543253576E+02  0.50528862874E+02  0.30000009191E+02 0.  0.
        -12    1    1    2    0    0  0.15030837359E+02  0.20790923838E+02  0.31543253576E+02  0.40659137126E+02  0.00000000000E+00 0.  1.
         11    1    3    3    0    0  0.26045003052E+01 -0.32072875015E+01 -0.17412009878E+01  0.44835138115E+01  0.51100000000E-03 0.  1.
        -11    1    3    3    0    0 -0.37134583505E+01 -0.13213014126E+02 -0.28204098637E+02  0.31366298720E+02  0.51100000000E-03 0. -1.
         12    1    3    3    0    0 -0.13921879313E+02 -0.43706222099E+01 -0.15979539512E+01  0.14679050342E+02  0.00000000000E+00 0. -1.
</event>
<event>
 7    1  0.2584640E-011  0.5052886E+02  0.7816164E-02  0.1300439E+00
        -11   -1    0    0    0    0  0.00000000000E+00  0.00000000000E+00  0.45593999997E+02  0.45594000000E+02  0.51100000000E-03 0.  1.
         11   -1    0    0    0    0 -0.00000000000E+00 -0.00000000000E+00 -0.45593999997E+02  0.45594000000E+02  0.51100000000E-03 0. -1.
    9900012    2    1    2    0    0 -0.13212731240E+02 -0.38442117627E+02  0.89048285331E+00  0.50528860385E+02  0.30000001627E+02 0.  0.
        -12    1    1    2    0    0  0.13212731240E+02  0.38442117627E+02 -0.89048285331E+00  0.40659139615E+02  0.00000000000E+00 0.  1.
         11    1    3    3    0    0 -0.37186964229E+01 -0.17509173316E+02 -0.11259009589E+02  0.21146279826E+02  0.51100000000E-03 0. -1.
        -11    1    3    3    0    0  0.56447803357E+00  0.15398484119E+01  0.23880769155E+01  0.28970122881E+01  0.51100000000E-03 0.  1.
         12    1    3    3    0    0 -0.10058512851E+02 -0.22472792723E+02  0.97614155266E+01  0.26485568271E+02  0.00000000000E+00 0. -1.
</event>
<event>
 7    1  0.2584640E-011  0.5052886E+02  0.7816164E-02  0.1300439E+00
        -11   -1    0    0    0    0  0.00000000000E+00  0.00000000000E+00  0.45593999997E+02  0.45594000000E+02  0.51100000000E-03 0. -1.
         11   -1    0    0    0    0 -0.00000000000E+00 -0.00000000000E+00 -0.45593999997E+02  0.45594000000E+02  0.51100000000E-03 0.  1.
    9900012    2    1    2    0    0 -0.36298978441E+02 -0.15893060260E+02  0.91082469682E+01  0.50528863719E+02  0.30000011760E+02 0.  0.
        -12    1    1    2    0    0  0.36298978441E+02  0.15893060260E+02 -0.91082469682E+01  0.40659136281E+02  0.00000000000E+00 0.  1.
         11    1    3    3    0    0 -0.30902364648E+02 -0.20540577970E+02  0.80804704782E+01  0.37975854007E+02  0.51100000000E-03 0. -1.
        -11    1    3    3    0    0  0.90979318520E+00 -0.19468990149E+01  0.25149924058E+01  0.33080699019E+01  0.51100000000E-03 0.  1.
        -12    1    3    3    0    0 -0.63064069784E+01  0.65944167243E+01 -0.14872159157E+01  0.92449398100E+01  0.00000000000E+00 0.  1.
</event>
<event>
 7    1  0.2584640E-011  0.5052883E+02  0.7816164E-02  0.1300439E+00
        -11   -1    0    0    0    0  0.00000000000E+00  0.00000000000E+00  0.45593999997E+02  0.45594000000E+02  0.51100000000E-03 0. -1.
         11   -1    0    0    0    0 -0.00000000000E+00 -0.00000000000E+00 -0.45593999997E+02  0.45594000000E+02  0.51100000000E-03 0.  1.
    9900012    2    1    2    0    0 -0.28808109840E+02 -0.10732580869E+02  0.26609629083E+02  0.50528833203E+02  0.29999919003E+02 0.  0.
        -12    1    1    2    0    0  0.28808109840E+02  0.10732580869E+02 -0.26609629083E+02  0.40659166797E+02  0.00000000000E+00 0.  1.
         11    1    3    3    0    0 -0.15946493111E+02 -0.51680823959E+01  0.49060015370E+00  0.16770223819E+02  0.51100000000E-03 0. -1.
        -11    1    3    3    0    0 -0.16540929629E+02 -0.28033326227E+01  0.20933763535E+02  0.26826917131E+02  0.51100000000E-03 0.  1.
        -12    1    3    3    0    0  0.36793128991E+01 -0.27611658507E+01  0.51852653952E+01  0.69316922525E+01  0.00000000000E+00 0.  1.
</event>
<event>
 7    1  0.2584640E-011  0.5052887E+02  0.7816164E-02  0.1300439E+00
        -11   -1    0    0    0    0  0.00000000000E+00  0.00000000000E+00  0.45593999997E+02  0.45594000000E+02  0.51100000000E-03 0.  1.
         11   -1    0    0    0    0 -0.00000000000E+00 -0.00000000000E+00 -0.45593999997E+02  0.45594000000E+02  0.51100000000E-03 0. -1.
    9900012    2    1    2    0    0  0.32371357726E+01  0.12659059116E+02 -0.38502391342E+02  0.50528868618E+02  0.30000026650E+02 0.  0.
        -12    1    1    2    0    0 -0.32371357726E+01 -0.12659059116E+02  0.38502391342E+02  0.40659131382E+02  0.00000000000E+00 0.  1.
         11    1    3    3    0    0  0.25387343921E+01  0.13522874683E+02 -0.26259281786E+02  0.29645626865E+02  0.51100000000E-03 0. -1.
        -11    1    3    3    0    0  0.60317683077E+01  0.18297096257E+01  0.97434000293E+00  0.63780408383E+01  0.51100000000E-03 0.  1.
         12    1    3    3    0    0 -0.53333669272E+01 -0.26935251928E+01 -0.13217449559E+02  0.14505200915E+02  0.00000000000E+00 0. -1.
</event>
<event>
 7    1  0.2584640E-011  0.5052886E+02  0.7816164E-02  0.1300439E+00
        -11   -1    0    0    0    0  0.00000000000E+00  0.00000000000E+00  0.45593999997E+02  0.45594000000E+02  0.51100000000E-03 0. -1.
         11   -1    0    0    0    0 -0.00000000000E+00 -0.00000000000E+00 -0.45593999997E+02  0.45594000000E+02  0.51100000000E-03 0.  1.
    9900012    2    1    2    0    0 -0.16202554223E+01 -0.40564722432E+02  0.22458384287E+01  0.50528859282E+02  0.29999998275E+02 0.  0.
        -12    1    1    2    0    0  0.16202554223E+01  0.40564722432E+02 -0.22458384287E+01  0.40659140718E+02  0.00000000000E+00 0.  1.
         11    1    3    3    0    0  0.55252734377E+01 -0.21811421358E+02  0.90602412539E+00  0.22518606267E+02  0.51100000000E-03 0. -1.
        -11    1    3    3    0    0  0.27452419630E+01 -0.82805797085E+01 -0.71588029081E+01  0.11285070362E+02  0.51100000000E-03 0.  1.
         12    1    3    3    0    0 -0.98907708230E+01 -0.10472721366E+02  0.84986172115E+01  0.16725182653E+02  0.00000000000E+00 0. -1.
</event>
<event>
 7    1  0.2584640E-011  0.5052888E+02  0.7816164E-02  0.1300439E+00
        -11   -1    0    0    0    0  0.00000000000E+00  0.00000000000E+00  0.45593999997E+02  0.45594000000E+02  0.51100000000E-03 0.  1.
         11   -1    0    0    0    0 -0.00000000000E+00 -0.00000000000E+00 -0.45593999997E+02  0.45594000000E+02  0.51100000000E-03 0. -1.
    9900012    2    1    2    0    0 -0.14595841377E+02 -0.37441975752E+02 -0.61825783134E+01  0.50528875461E+02  0.30000047450E+02 0.  0.
        -12    1    1    2    0    0  0.14595841377E+02  0.37441975752E+02  0.61825783134E+01  0.40659124539E+02  0.00000000000E+00 0.  1.
         11    1    3    3    0    0 -0.12231942273E+02 -0.48787462604E+01 -0.26971138361E+01  0.13442358429E+02  0.51100000000E-03 0. -1.
        -11    1    3    3    0    0 -0.17177253574E+01  0.18319297605E+01 -0.45385854884E+00  0.25519668678E+01  0.51100000000E-03 0.  1.
         12    1    3    3    0    0 -0.64617374665E+00 -0.34395159252E+02 -0.30316059284E+01  0.34534550163E+02  0.00000000000E+00 0. -1.
</event>
<event>
 7    1  0.2584640E-011  0.5052885E+02  0.7816164E-02  0.1300439E+00
        -11   -1    0    0    0    0  0.00000000000E+00  0.00000000000E+00  0.45593999997E+02  0.45594000000E+02  0.51100000000E-03 0.  1.
         11   -1    0    0    0    0 -0.00000000000E+00 -0.00000000000E+00 -0.45593999997E+02  0.45594000000E+02  0.51100000000E-03 0. -1.
    9900012    2    1    2    0    0 -0.15652670403E+02  0.24098448271E+02 -0.28765006244E+02  0.50528845015E+02  0.29999954909E+02 0.  0.
        -12    1    1    2    0    0  0.15652670403E+02 -0.24098448271E+02  0.28765006244E+02  0.40659154985E+02  0.00000000000E+00 0.  1.
         11    1    3    3    0    0  0.23901096721E+01  0.82190512840E+01 -0.53747524060E+01  0.10107096118E+02  0.51100000000E-03 0. -1.
        -11    1    3    3    0    0 -0.15000961469E+02  0.14635562844E+02 -0.47438501072E+01  0.21487965442E+02  0.51100000000E-03 0.  1.
         12    1    3    3    0    0 -0.30418186062E+01  0.12438341430E+01 -0.18646403731E+02  0.18933783455E+02  0.00000000000E+00 0. -1.
</event>
<event>
 7    1  0.2584640E-011  0.5052886E+02  0.7816164E-02  0.1300439E+00
        -11   -1    0    0    0    0  0.00000000000E+00  0.00000000000E+00  0.45593999997E+02  0.45594000000E+02  0.51100000000E-03 0.  1.
         11   -1    0    0    0    0 -0.00000000000E+00 -0.00000000000E+00 -0.45593999997E+02  0.45594000000E+02  0.51100000000E-03 0. -1.
    9900012    2    1    2    0    0 -0.21852450553E+02 -0.21279587093E+02 -0.26885222296E+02  0.50528860807E+02  0.30000002908E+02 0.  0.
        -12    1    1    2    0    0  0.21852450553E+02  0.21279587093E+02  0.26885222296E+02  0.40659139193E+02  0.00000000000E+00 0.  1.
         11    1    3    3    0    0  0.82155839082E+00  0.91523436506E+00  0.22220427322E+01  0.25397020096E+01  0.51100000000E-03 0.  1.
        -11    1    3    3    0    0 -0.23857600909E+01 -0.14558043266E+02 -0.50188469370E+01  0.15582596054E+02  0.51100000000E-03 0. -1.
         12    1    3    3    0    0 -0.20288248853E+02 -0.76367781925E+01 -0.24088418091E+02  0.32406562743E+02  0.00000000000E+00 0. -1.
</event>
<event>
 7    1  0.2584640E-011  0.5052886E+02  0.7816164E-02  0.1300439E+00
        -11   -1    0    0    0    0  0.00000000000E+00  0.00000000000E+00  0.45593999997E+02  0.45594000000E+02  0.51100000000E-03 0.  1.
         11   -1    0    0    0    0 -0.00000000000E+00 -0.00000000000E+00 -0.45593999997E+02  0.45594000000E+02  0.51100000000E-03 0. -1.
    9900012    2    1    2    0    0 -0.14753280727E+02  0.49638237685E+01 -0.37561507372E+02  0.50528859888E+02  0.30000000116E+02 0.  0.
        -12    1    1    2    0    0  0.14753280727E+02 -0.49638237685E+01  0.37561507372E+02  0.40659140112E+02  0.00000000000E+00 0.  1.
         11    1    3    3    0    0 -0.67483909377E+01  0.53933415502E+01 -0.13339929703E+02  0.15892848646E+02  0.51100000000E-03 0. -1.
        -11    1    3    3    0    0 -0.50827390119E+01  0.51458775065E+01  0.21324352283E+01  0.75406612070E+01  0.51100000000E-03 0.  1.
         12    1    3    3    0    0 -0.29221507769E+01 -0.55753952882E+01 -0.26354012897E+02  0.27095350036E+02  0.00000000000E+00 0. -1.
</event>
<event>
 7    1  0.2584640E-011  0.5052886E+02  0.7816164E-02  0.1300439E+00
        -11   -1    0    0    0    0  0.00000000000E+00  0.00000000000E+00  0.45593999997E+02  0.45594000000E+02  0.51100000000E-03 0.  1.
         11   -1    0    0    0    0 -0.00000000000E+00 -0.00000000000E+00 -0.45593999997E+02  0.45594000000E+02  0.51100000000E-03 0. -1.
    9900012    2    1    2    0    0 -0.93077847955E+01 -0.29124319580E+02 -0.26801214660E+02  0.50528856427E+02  0.29999989596E+02 0.  0.
        -12    1    1    2    0    0  0.93077847955E+01  0.29124319580E+02  0.26801214660E+02  0.40659143573E+02  0.00000000000E+00 0.  1.
         11    1    3    3    0    0 -0.95504197300E+01 -0.13093808832E+02 -0.43390022345E+01  0.16777523280E+02  0.51100000000E-03 0. -1.
        -11    1    3    3    0    0 -0.18916849801E+01  0.43134838672E+01 -0.48120371301E+01  0.67335218674E+01  0.51100000000E-03 0.  1.
         12    1    3    3    0    0  0.21343199145E+01 -0.20343994615E+02 -0.17650175296E+02  0.27017811280E+02  0.00000000000E+00 0. -1.
</event>
<event>
 7    1  0.2584640E-011  0.5052889E+02  0.7816164E-02  0.1300439E+00
        -11   -1    0    0    0    0  0.00000000000E+00  0.00000000000E+00  0.45593999997E+02  0.45594000000E+02  0.51100000000E-03 0. -1.
         11   -1    0    0    0    0 -0.00000000000E+00 -0.00000000000E+00 -0.45593999997E+02  0.45594000000E+02  0.51100000000E-03 0.  1.
    9900012    2    1    2    0    0 -0.46633837279E+01  0.19971154548E+02  0.35107967965E+02  0.50528885691E+02  0.30000078547E+02 0.  0.
        -12    1    1    2    0    0  0.46633837279E+01 -0.19971154548E+02 -0.35107967965E+02  0.40659114309E+02  0.00000000000E+00 0.  1.
         11    1    3    3    0    0  0.44397276180E+01  0.15243318370E+02  0.11647191809E+02  0.19690784990E+02  0.51100000000E-03 0. -1.
        -11    1    3    3    0    0 -0.57632244960E+01  0.78473053040E+01  0.24312271954E+02  0.26189339910E+02  0.51100000000E-03 0.  1.
        -12    1    3    3    0    0 -0.33398868499E+01 -0.31194691254E+01 -0.85149579784E+00  0.46487607906E+01  0.00000000000E+00 0.  1.
</event>
<event>
 7    1  0.2584640E-011  0.5052890E+02  0.7816164E-02  0.1300439E+00
        -11   -1    0    0    0    0  0.00000000000E+00  0.00000000000E+00  0.45593999997E+02  0.45594000000E+02  0.51100000000E-03 0.  1.
         11   -1    0    0    0    0 -0.00000000000E+00 -0.00000000000E+00 -0.45593999997E+02  0.45594000000E+02  0.51100000000E-03 0. -1.
    9900012    2    1    2    0    0 -0.62050349444E+01  0.61283906888E+01 -0.39712756928E+02  0.50528896543E+02  0.30000111532E+02 0.  0.
        -12    1    1    2    0    0  0.62050349444E+01 -0.61283906888E+01  0.39712756928E+02  0.40659103457E+02  0.00000000000E+00 0.  1.
         11    1    3    3    0    0 -0.37550565289E+01  0.43077513750E+01 -0.19520682646E+02  0.20339966143E+02  0.51100000000E-03 0. -1.
        -11    1    3    3    0    0 -0.11072856039E+02  0.54768556237E+01 -0.15163043488E+02  0.19558169047E+02  0.51100000000E-03 0.  1.
        -12    1    3    3    0    0  0.86228776240E+01 -0.36562163099E+01 -0.50290307941E+01  0.10630761353E+02  0.00000000000E+00 0.  1.
</event>
<event>
 7    1  0.2584640E-011  0.5052885E+02  0.7816164E-02  0.1300439E+00
        -11   -1    0    0    0    0  0.00000000000E+00  0.00000000000E+00  0.45593999997E+02  0.45594000000E+02  0.51100000000E-03 0.  1.
         11   -1    0    0    0    0 -0.00000000000E+00 -0.00000000000E+00 -0.45593999997E+02  0.45594000000E+02  0.51100000000E-03 0. -1.
    9900012    2    1    2    0    0  0.12089471182E+02 -0.12278890048E+02 -0.36827164703E+02  0.50528849562E+02  0.29999968729E+02 0.  0.
        -12    1    1    2    0    0 -0.12089471182E+02  0.12278890048E+02  0.36827164703E+02  0.40659150438E+02  0.00000000000E+00 0.  1.
         11    1    3    3    0    0  0.24251182134E+01  0.37724429799E+01 -0.11843670829E+02  0.12664322459E+02  0.51100000000E-03 0. -1.
        -11    1    3    3    0    0 -0.46259374931E+01 -0.43291717907E+01 -0.16211485953E+02  0.17405553802E+02  0.51100000000E-03 0.  1.
        -12    1    3    3    0    0  0.14290290462E+02 -0.11722161237E+02 -0.87720079210E+01  0.20458973301E+02  0.00000000000E+00 0.  1.
</event>
<event>
 7    1  0.2584640E-011  0.5052887E+02  0.7816164E-02  0.1300439E+00
        -11   -1    0    0    0    0  0.00000000000E+00  0.00000000000E+00  0.45593999997E+02  0.45594000000E+02  0.51100000000E-03 0.  1.
         11   -1    0    0    0    0 -0.00000000000E+00 -0.00000000000E+00 -0.45593999997E+02  0.45594000000E+02  0.51100000000E-03 0. -1.
    9900012    2    1    2    0    0  0.31620520108E+02 -0.23488163903E+02 -0.10080374804E+02  0.50528867058E+02  0.30000021909E+02 0.  0.
        -12    1    1    2    0    0 -0.31620520108E+02  0.23488163903E+02  0.10080374804E+02  0.40659132942E+02  0.00000000000E+00 0.  1.
         11    1    3    3    0    0  0.11941502326E+02 -0.50660758132E+01 -0.30475913002E+01  0.13324879547E+02  0.51100000000E-03 0. -1.
        -11    1    3    3    0    0  0.13476939530E+02 -0.23326575829E+02 -0.10032268387E+02  0.28747233749E+02  0.51100000000E-03 0.  1.
        -12    1    3    3    0    0  0.62020782514E+01  0.49044877386E+01  0.29994848831E+01  0.84567537612E+01  0.00000000000E+00 0.  1.
</event>
<event>
 7    1  0.2584640E-011  0.5052886E+02  0.7816164E-02  0.1300439E+00
        -11   -1    0    0    0    0  0.00000000000E+00  0.00000000000E+00  0.45593999997E+02  0.45594000000E+02  0.51100000000E-03 0.  1.
         11   -1    0    0    0    0 -0.00000000000E+00 -0.00000000000E+00 -0.45593999997E+02  0.45594000000E+02  0.51100000000E-03 0. -1.
    9900012    2    1    2    0    0  0.39881794059E+02  0.37287190379E-01  0.79124566314E+01  0.50528857638E+02  0.29999993275E+02 0.  0.
        -12    1    1    2    0    0 -0.39881794059E+02 -0.37287190379E-01 -0.79124566314E+01  0.40659142362E+02  0.00000000000E+00 0.  1.
         11    1    3    3    0    0 -0.10444693357E+01 -0.29617552330E+00 -0.22032822601E+01  0.24562347430E+01  0.51100000000E-03 0. -1.
        -11    1    3    3    0    0  0.15369031209E+02 -0.11069064206E+02  0.53776342588E+01  0.19688835750E+02  0.51100000000E-03 0.  1.
         12    1    3    3    0    0  0.25557232186E+02  0.11402526920E+02  0.47381046326E+01  0.28383787145E+02  0.00000000000E+00 0. -1.
</event>
<event>
 7    1  0.2584640E-011  0.5052885E+02  0.7816164E-02  0.1300439E+00
        -11   -1    0    0    0    0  0.00000000000E+00  0.00000000000E+00  0.45593999997E+02  0.45594000000E+02  0.51100000000E-03 0.  1.
         11   -1    0    0    0    0 -0.00000000000E+00 -0.00000000000E+00 -0.45593999997E+02  0.45594000000E+02  0.51100000000E-03 0. -1.
    9900012    2    1    2    0    0 -0.22759366311E+02 -0.14479466636E+02 -0.30422402376E+02  0.50528852502E+02  0.29999977664E+02 0.  0.
        -12    1    1    2    0    0  0.22759366311E+02  0.14479466636E+02  0.30422402376E+02  0.40659147498E+02  0.00000000000E+00 0.  1.
         11    1    3    3    0    0  0.28773414816E+01  0.28792407791E+01 -0.98848012581E+00  0.41888202021E+01  0.51100000000E-03 0. -1.
        -11    1    3    3    0    0 -0.61692260211E+01 -0.21750954787E+01 -0.17962518462E+02  0.19116549370E+02  0.51100000000E-03 0.  1.
        -12    1    3    3    0    0 -0.19467481771E+02 -0.15183611936E+02 -0.11471403788E+02  0.27223482930E+02  0.00000000000E+00 0.  1.
</event>
<event>
 7    1  0.2584640E-011  0.5052885E+02  0.7816164E-02  0.1300439E+00
        -11   -1    0    0    0    0  0.00000000000E+00  0.00000000000E+00  0.45593999997E+02  0.45594000000E+02  0.51100000000E-03 0.  1.
         11   -1    0    0    0    0 -0.00000000000E+00 -0.00000000000E+00 -0.45593999997E+02  0.45594000000E+02  0.51100000000E-03 0. -1.
    9900012    2    1    2    0    0  0.47850977140E+01 -0.18167491098E+02 -0.36058443162E+02  0.50528853229E+02  0.29999979874E+02 0.  0.
        -12    1    1    2    0    0 -0.47850977140E+01  0.18167491098E+02  0.36058443162E+02  0.40659146771E+02  0.00000000000E+00 0.  1.
         11    1    3    3    0    0  0.35848801431E+01 -0.10529262985E+02 -0.22876528007E+02  0.25437222304E+02  0.51100000000E-03 0. -1.
        -11    1    3    3    0    0 -0.34852923226E+01 -0.13267531959E+02 -0.65093731952E+01  0.15183761276E+02  0.51100000000E-03 0.  1.
         12    1    3    3    0    0  0.46855098935E+01  0.56293038459E+01 -0.66725419597E+01  0.99078696477E+01  0.00000000000E+00 0. -1.
</event>
<event>
 7    1  0.2584640E-011  0.5052886E+02  0.7816164E-02  0.1300439E+00
        -11   -1    0    0    0    0  0.00000000000E+00  0.00000000000E+00  0.45593999997E+02  0.45594000000E+02  0.51100000000E-03 0.  1.
         11   -1    0    0    0    0 -0.00000000000E+00 -0.00000000000E+00 -0.45593999997E+02  0.45594000000E+02  0.51100000000E-03 0. -1.
    9900012    2    1    2    0    0 -0.46839024750E+01 -0.39064623609E+02 -0.10255812950E+02  0.50528862535E+02  0.30000008161E+02 0.  0.
        -12    1    1    2    0    0  0.46839024750E+01  0.39064623609E+02  0.10255812950E+02  0.40659137465E+02  0.00000000000E+00 0.  1.
         11    1    3    3    0    0 -0.10268119918E+02 -0.47947452052E+01 -0.28362975846E+01  0.11681971258E+02  0.51100000000E-03 0. -1.
        -11    1    3    3    0    0  0.40750850369E+01 -0.38442892648E+01 -0.62047985308E+01  0.83596891736E+01  0.51100000000E-03 0.  1.
        -12    1    3    3    0    0  0.15091324058E+01 -0.30425589139E+02 -0.12147168350E+01  0.30487202103E+02  0.00000000000E+00 0.  1.
</event>
<event>
 7    1  0.2584640E-011  0.5052885E+02  0.7816164E-02  0.1300439E+00
        -11   -1    0    0    0    0  0.00000000000E+00  0.00000000000E+00  0.45593999997E+02  0.45594000000E+02  0.51100000000E-03 0.  1.
         11   -1    0    0    0    0 -0.00000000000E+00 -0.00000000000E+00 -0.45593999997E+02  0.45594000000E+02  0.51100000000E-03 0. -1.
    9900012    2    1    2    0    0 -0.38453585588E+01 -0.28292144632E+02 -0.28947089667E+02  0.50528853052E+02  0.29999979338E+02 0.  0.
        -12    1    1    2    0    0  0.38453585588E+01  0.28292144632E+02  0.28947089667E+02  0.40659146948E+02  0.00000000000E+00 0.  1.
         11    1    3    3    0    0 -0.51762101065E+01 -0.14519004526E+02 -0.25383252295E+00  0.15416195208E+02  0.51100000000E-03 0. -1.
        -11    1    3    3    0    0 -0.30594000049E+01  0.21318126448E+01 -0.48734107436E+01  0.61363414246E+01  0.51100000000E-03 0.  1.
        -12    1    3    3    0    0  0.43902515526E+01 -0.15904952751E+02 -0.23819846400E+02  0.28976316419E+02  0.00000000000E+00 0.  1.
</event>
<event>
 7    1  0.2584640E-011  0.5052885E+02  0.7816164E-02  0.1300439E+00
        -11   -1    0    0    0    0  0.00000000000E+00  0.00000000000E+00  0.45593999997E+02  0.45594000000E+02  0.51100000000E-03 0. -1.
         11   -1    0    0    0    0 -0.00000000000E+00 -0.00000000000E+00 -0.45593999997E+02  0.45594000000E+02  0.51100000000E-03 0.  1.
    9900012    2    1    2    0    0 -0.30594487807E+02  0.24530870758E+02 -0.10741503003E+02  0.50528853538E+02  0.29999980813E+02 0.  0.
        -12    1    1    2    0    0  0.30594487807E+02 -0.24530870758E+02  0.10741503003E+02  0.40659146462E+02  0.00000000000E+00 0.  1.
         11    1    3    3    0    0 -0.49427962569E+01  0.14132893340E+02 -0.46603668033E+00  0.14979556050E+02  0.51100000000E-03 0. -1.
        -11    1    3    3    0    0 -0.17242793392E+02  0.12241530673E+02  0.12272436432E+01  0.21181952800E+02  0.51100000000E-03 0.  1.
        -12    1    3    3    0    0 -0.84088981577E+01 -0.18435532553E+01 -0.11502709966E+02  0.14367344688E+02  0.00000000000E+00 0.  1.
</event>
<event>
 7    1  0.2584640E-011  0.5052885E+02  0.7816164E-02  0.1300439E+00
        -11   -1    0    0    0    0  0.00000000000E+00  0.00000000000E+00  0.45593999997E+02  0.45594000000E+02  0.51100000000E-03 0.  1.
         11   -1    0    0    0    0 -0.00000000000E+00 -0.00000000000E+00 -0.45593999997E+02  0.45594000000E+02  0.51100000000E-03 0. -1.
    9900012    2    1    2    0    0  0.11517346294E+02 -0.12484383594E+02 -0.36941267595E+02  0.50528851572E+02  0.29999974838E+02 0.  0.
        -12    1    1    2    0    0 -0.11517346294E+02  0.12484383594E+02  0.36941267595E+02  0.40659148428E+02  0.00000000000E+00 0.  1.
         11    1    3    3    0    0  0.35369769762E+01 -0.16483533829E+01 -0.19733423892E+02  0.20115548557E+02  0.51100000000E-03 0. -1.
        -11    1    3    3    0    0  0.33058213987E+01 -0.16067501522E+02 -0.16653301303E+02  0.23375746081E+02  0.51100000000E-03 0.  1.
        -12    1    3    3    0    0  0.46745479190E+01  0.52314713110E+01 -0.55454240012E+00  0.70375569340E+01  0.00000000000E+00 0.  1.
</event>
<event>
 7    1  0.2584640E-011  0.5052887E+02  0.7816164E-02  0.1300439E+00
        -11   -1    0    0    0    0  0.00000000000E+00  0.00000000000E+00  0.45593999997E+02  0.45594000000E+02  0.51100000000E-03 0.  1.
         11   -1    0    0    0    0 -0.00000000000E+00 -0.00000000000E+00 -0.45593999997E+02  0.45594000000E+02  0.51100000000E-03 0. -1.
    9900012    2    1    2    0    0 -0.10695508746E+02 -0.39189556696E+02 -0.17175330240E+01  0.50528865958E+02  0.30000018565E+02 0.  0.
        -12    1    1    2    0    0  0.10695508746E+02  0.39189556696E+02  0.17175330240E+01  0.40659134042E+02  0.00000000000E+00 0.  1.
         11    1    3    3    0    0  0.34306761037E+01 -0.18101936817E+02  0.63367536560E+01  0.19483431479E+02  0.51100000000E-03 0. -1.
        -11    1    3    3    0    0 -0.73975503156E+01 -0.18398394119E+02  0.49800555427E+00  0.19836145458E+02  0.51100000000E-03 0.  1.
        -12    1    3    3    0    0 -0.67286345345E+01 -0.26892257599E+01 -0.85522922343E+01  0.11209289021E+02  0.00000000000E+00 0.  1.
</event>
<event>
 7    1  0.2584640E-011  0.5052886E+02  0.7816164E-02  0.1300439E+00
        -11   -1    0    0    0    0  0.00000000000E+00  0.00000000000E+00  0.45593999997E+02  0.45594000000E+02  0.51100000000E-03 0. -1.
         11   -1    0    0    0    0 -0.00000000000E+00 -0.00000000000E+00 -0.45593999997E+02  0.45594000000E+02  0.51100000000E-03 0.  1.
    9900012    2    1    2    0    0 -0.19338374712E+02 -0.34083353240E+02  0.10840554660E+02  0.50528864127E+02  0.30000013000E+02 0.  0.
        -12    1    1    2    0    0  0.19338374712E+02  0.34083353240E+02 -0.10840554660E+02  0.40659135873E+02  0.00000000000E+00 0.  1.
         11    1    3    3    0    0  0.54741783582E+01 -0.61489065605E+00 -0.21517286461E+01  0.59139374062E+01  0.51100000000E-03 0. -1.
        -11    1    3    3    0    0 -0.10486308166E+02 -0.15486372480E+02  0.10604831341E+02  0.21500066036E+02  0.51100000000E-03 0.  1.
        -12    1    3    3    0    0 -0.14326244904E+02 -0.17982090104E+02  0.23874519653E+01  0.23114860684E+02  0.00000000000E+00 0.  1.
</event>
<event>
 7    1  0.2584640E-011  0.5052886E+02  0.7816164E-02  0.1300439E+00
        -11   -1    0    0    0    0  0.00000000000E+00  0.00000000000E+00  0.45593999997E+02  0.45594000000E+02  0.51100000000E-03 0.  1.
         11   -1    0    0    0    0 -0.00000000000E+00 -0.00000000000E+00 -0.45593999997E+02  0.45594000000E+02  0.51100000000E-03 0. -1.
    9900012    2    1    2    0    0  0.23562895462E+02  0.20286974328E+02 -0.26199125318E+02  0.50528861576E+02  0.30000005247E+02 0.  0.
        -12    1    1    2    0    0 -0.23562895462E+02 -0.20286974328E+02  0.26199125318E+02  0.40659138424E+02  0.00000000000E+00 0.  1.
         11    1    3    3    0    0  0.80156386719E+01  0.21904186537E+02 -0.19455145201E+02  0.30373451010E+02  0.51100000000E-03 0. -1.
        -11    1    3    3    0    0 -0.21504329642E+00  0.10914665983E+01  0.17292439838E+01  0.20561682740E+01  0.51100000000E-03 0.  1.
        -12    1    3    3    0    0  0.15762300087E+02 -0.27086788076E+01 -0.84732241004E+01  0.18099242293E+02  0.00000000000E+00 0.  1.
</event>
<event>
 7    1  0.2584640E-011  0.5052888E+02  0.7816164E-02  0.1300439E+00
        -11   -1    0    0    0    0  0.00000000000E+00  0.00000000000E+00  0.45593999997E+02  0.45594000000E+02  0.51100000000E-03 0.  1.
         11   -1    0    0    0    0 -0.00000000000E+00 -0.00000000000E+00 -0.45593999997E+02  0.45594000000E+02  0.51100000000E-03 0. -1.
    9900012    2    1    2    0    0  0.62330515828E+00  0.10099092686E+02 -0.39379988409E+02  0.50528884546E+02  0.30000075065E+02 0.  0.
        -12    1    1    2    0    0 -0.62330515828E+00 -0.10099092686E+02  0.39379988409E+02  0.40659115454E+02  0.00000000000E+00 0.  1.
         11    1    3    3    0    0  0.32543744112E+00  0.29374149912E+01 -0.28242843554E+02  0.28397051407E+02  0.51100000000E-03 0. -1.
        -11    1    3    3    0    0  0.41759652758E+01 -0.41779061751E+01 -0.76210232554E+01  0.96422809394E+01  0.51100000000E-03 0.  1.
        -12    1    3    3    0    0 -0.38780975587E+01  0.11339583870E+02 -0.35161216003E+01  0.12489552199E+02  0.00000000000E+00 0.  1.
</event>
<event>
 7    1  0.2584640E-011  0.5052885E+02  0.7816164E-02  0.1300439E+00
        -11   -1    0    0    0    0  0.00000000000E+00  0.00000000000E+00  0.45593999997E+02  0.45594000000E+02  0.51100000000E-03 0.  1.
         11   -1    0    0    0    0 -0.00000000000E+00 -0.00000000000E+00 -0.45593999997E+02  0.45594000000E+02  0.51100000000E-03 0. -1.
    9900012    2    1    2    0    0 -0.37284289583E+02 -0.11213439731E+02 -0.11717791970E+02  0.50528854301E+02  0.29999983133E+02 0.  0.
        -12    1    1    2    0    0  0.37284289583E+02  0.11213439731E+02  0.11717791970E+02  0.40659145699E+02  0.00000000000E+00 0.  1.
         11    1    3    3    0    0 -0.23234345943E+02 -0.61777424566E+01 -0.17389978673E+02  0.29671715349E+02  0.51100000000E-03 0. -1.
        -11    1    3    3    0    0 -0.10152175156E+02  0.19140557762E+01 -0.11138542312E+01  0.10390906670E+02  0.51100000000E-03 0.  1.
        -12    1    3    3    0    0 -0.38977684843E+01 -0.69497530504E+01  0.67860409340E+01  0.10466232282E+02  0.00000000000E+00 0.  1.
</event>
<event>
 7    1  0.3216487E-011  0.5052882E+02  0.7816164E-02  0.1300439E+00
        -11   -1    0    0    0    0  0.00000000000E+00  0.00000000000E+00  0.45593999997E+02  0.45594000000E+02  0.51100000000E-03 0. -1.
         11   -1    0    0    0    0 -0.00000000000E+00 -0.00000000000E+00 -0.45593999997E+02  0.45594000000E+02  0.51100000000E-03 0.  1.
    9900012    2    1    2    0    0  0.28895072704E+02  0.25596554533E+02  0.12769483343E+02  0.50528824709E+02  0.29999893184E+02 0.  0.
        -12    1    1    2    0    0 -0.28895072704E+02 -0.25596554533E+02 -0.12769483343E+02  0.40659175291E+02  0.00000000000E+00 0.  1.
         11    1    3    3    0    0  0.18848997005E+02  0.18294603568E+02  0.16321745210E+02  0.30925338717E+02  0.51100000000E-03 0. -1.
        -11    1    3    3    0    0  0.90640492755E+01  0.11627877335E+02 -0.35620305535E+01  0.15167484383E+02  0.51100000000E-03 0.  1.
        -12    1    3    3    0    0  0.98202642365E+00 -0.43259263693E+01  0.97686864676E-02  0.44360016092E+01  0.00000000000E+00 0.  1.
</event>
<event>
 7    1  0.2584640E-011  0.5052886E+02  0.7816164E-02  0.1300439E+00
        -11   -1    0    0    0    0  0.00000000000E+00  0.00000000000E+00  0.45593999997E+02  0.45594000000E+02  0.51100000000E-03 0.  1.
         11   -1    0    0    0    0 -0.00000000000E+00 -0.00000000000E+00 -0.45593999997E+02  0.45594000000E+02  0.51100000000E-03 0. -1.
    9900012    2    1    2    0    0 -0.57018318423E+01  0.19202896561E+02 -0.35382248288E+02  0.50528860602E+02  0.30000002287E+02 0.  0.
        -12    1    1    2    0    0  0.57018318423E+01 -0.19202896561E+02  0.35382248288E+02  0.40659139398E+02  0.00000000000E+00 0.  1.
         11    1    3    3    0    0  0.25309655467E+01  0.12983831271E+02 -0.10102741668E+02  0.16644850572E+02  0.51100000000E-03 0. -1.
        -11    1    3    3    0    0 -0.29925881077E+00  0.87390683380E+01 -0.23896064931E+02  0.25445683144E+02  0.51100000000E-03 0.  1.
        -12    1    3    3    0    0 -0.79335385782E+01 -0.25200030483E+01 -0.13834416887E+01  0.84383268864E+01  0.00000000000E+00 0.  1.
</event>
<event>
 7    1  0.2584640E-011  0.5052886E+02  0.7816164E-02  0.1300439E+00
        -11   -1    0    0    0    0  0.00000000000E+00  0.00000000000E+00  0.45593999997E+02  0.45594000000E+02  0.51100000000E-03 0. -1.
         11   -1    0    0    0    0 -0.00000000000E+00 -0.00000000000E+00 -0.45593999997E+02  0.45594000000E+02  0.51100000000E-03 0.  1.
    9900012    2    1    2    0    0  0.38132681671E+02 -0.96592128275E+01  0.10284149936E+02  0.50528861497E+02  0.30000005008E+02 0.  0.
        -12    1    1    2    0    0 -0.38132681671E+02  0.96592128275E+01 -0.10284149936E+02  0.40659138503E+02  0.00000000000E+00 0.  1.
         11    1    3    3    0    0  0.27206760468E+01 -0.57892610926E+01  0.10167799307E+02  0.12012566968E+02  0.51100000000E-03 0.  1.
        -11    1    3    3    0    0  0.12867725684E+02 -0.69966394115E+01  0.45316728301E+01  0.15331907456E+02  0.51100000000E-03 0. -1.
         12    1    3    3    0    0  0.22544279940E+02  0.31266876766E+01 -0.44153222010E+01  0.23184387073E+02  0.00000000000E+00 0. -1.
</event>
<event>
 7    1  0.2584640E-011  0.5052886E+02  0.7816164E-02  0.1300439E+00
        -11   -1    0    0    0    0  0.00000000000E+00  0.00000000000E+00  0.45593999997E+02  0.45594000000E+02  0.51100000000E-03 0.  1.
         11   -1    0    0    0    0 -0.00000000000E+00 -0.00000000000E+00 -0.45593999997E+02  0.45594000000E+02  0.51100000000E-03 0. -1.
    9900012    2    1    2    0    0 -0.20688726940E+02 -0.56903937253E+01 -0.34536382369E+02  0.50528859449E+02  0.29999998782E+02 0.  0.
        -12    1    1    2    0    0  0.20688726940E+02  0.56903937253E+01  0.34536382369E+02  0.40659140551E+02  0.00000000000E+00 0.  1.
         11    1    3    3    0    0 -0.20753722112E+02 -0.12466943394E+02 -0.27647676132E+02  0.36749634758E+02  0.51100000000E-03 0. -1.
        -11    1    3    3    0    0  0.12277134847E+01 -0.23896990342E+01 -0.17563393686E+01  0.32097772685E+01  0.51100000000E-03 0.  1.
        -12    1    3    3    0    0 -0.11627183126E+01  0.91662487025E+01 -0.51323668688E+01  0.10569447423E+02  0.00000000000E+00 0.  1.
</event>
<event>
 7    1  0.2584640E-011  0.5052885E+02  0.7816164E-02  0.1300439E+00
        -11   -1    0    0    0    0  0.00000000000E+00  0.00000000000E+00  0.45593999997E+02  0.45594000000E+02  0.51100000000E-03 0. -1.
         11   -1    0    0    0    0 -0.00000000000E+00 -0.00000000000E+00 -0.45593999997E+02  0.45594000000E+02  0.51100000000E-03 0.  1.
    9900012    2    1    2    0    0 -0.24337666996E+02 -0.32222593996E+02  0.47485269706E+01  0.50528854571E+02  0.29999983953E+02 0.  0.
        -12    1    1    2    0    0  0.24337666996E+02  0.32222593996E+02 -0.47485269706E+01  0.40659145429E+02  0.00000000000E+00 0.  1.
         11    1    3    3    0    0 -0.19969953193E+02 -0.14408099933E+02  0.47752605863E+01  0.25083769417E+02  0.51100000000E-03 0. -1.
        -11    1    3    3    0    0 -0.88575368672E+01 -0.18207995395E+02 -0.23332795200E+01  0.20382130635E+02  0.51100000000E-03 0.  1.
         12    1    3    3    0    0  0.44898230645E+01  0.39350133177E+00  0.23065459042E+01  0.50629545185E+01  0.00000000000E+00 0. -1.
</event>
<event>
 7    1  0.2584640E-011  0.5052886E+02  0.7816164E-02  0.1300439E+00
        -11   -1    0    0    0    0  0.00000000000E+00  0.00000000000E+00  0.45593999997E+02  0.45594000000E+02  0.51100000000E-03 0.  1.
         11   -1    0    0    0    0 -0.00000000000E+00 -0.00000000000E+00 -0.45593999997E+02  0.45594000000E+02  0.51100000000E-03 0. -1.
    9900012    2    1    2    0    0 -0.17743407490E+02 -0.28835289983E+01 -0.36469473387E+02  0.50528859109E+02  0.29999997747E+02 0.  0.
        -12    1    1    2    0    0  0.17743407490E+02  0.28835289983E+01  0.36469473387E+02  0.40659140891E+02  0.00000000000E+00 0.  1.
         11    1    3    3    0    0  0.93870265503E+00  0.42019091396E+01 -0.59639910349E+01  0.73557047533E+01  0.51100000000E-03 0. -1.
        -11    1    3    3    0    0  0.27485540907E+01 -0.84894695930E+01 -0.10968155580E+02  0.14139521939E+02  0.51100000000E-03 0.  1.
         12    1    3    3    0    0 -0.21430664236E+02  0.14040314552E+01 -0.19537326772E+02  0.29033632417E+02  0.00000000000E+00 0. -1.
</event>
<event>
 7    1  0.2584640E-011  0.5052886E+02  0.7816164E-02  0.1300439E+00
        -11   -1    0    0    0    0  0.00000000000E+00  0.00000000000E+00  0.45593999997E+02  0.45594000000E+02  0.51100000000E-03 0.  1.
         11   -1    0    0    0    0 -0.00000000000E+00 -0.00000000000E+00 -0.45593999997E+02  0.45594000000E+02  0.51100000000E-03 0. -1.
    9900012    2    1    2    0    0 -0.27615452114E+02  0.26732618928E+02 -0.13263463678E+02  0.50528861065E+02  0.30000003694E+02 0.  0.
        -12    1    1    2    0    0  0.27615452114E+02 -0.26732618928E+02  0.13263463678E+02  0.40659138935E+02  0.00000000000E+00 0.  1.
         11    1    3    3    0    0 -0.86152681685E+01  0.14454530047E+02  0.24686033126E+01  0.17007359791E+02  0.51100000000E-03 0. -1.
        -11    1    3    3    0    0  0.23210849552E+01  0.12127275161E+01 -0.77940930822E+01  0.82222886493E+01  0.51100000000E-03 0.  1.
         12    1    3    3    0    0 -0.21321268901E+02  0.11065361364E+02 -0.79379739081E+01  0.25299212625E+02  0.00000000000E+00 0. -1.
</event>
<event>
 7    1  0.2584640E-011  0.5052888E+02  0.7816164E-02  0.1300439E+00
        -11   -1    0    0    0    0  0.00000000000E+00  0.00000000000E+00  0.45593999997E+02  0.45594000000E+02  0.51100000000E-03 0. -1.
         11   -1    0    0    0    0 -0.00000000000E+00 -0.00000000000E+00 -0.45593999997E+02  0.45594000000E+02  0.51100000000E-03 0.  1.
    9900012    2    1    2    0    0  0.69432644640E+01 -0.71195047134E+01  0.39424200146E+02  0.50528882622E+02  0.30000069219E+02 0.  0.
        -12    1    1    2    0    0 -0.69432644640E+01  0.71195047134E+01 -0.39424200146E+02  0.40659117378E+02  0.00000000000E+00 0.  1.
         11    1    3    3    0    0  0.23695910184E+01  0.50153942976E+01  0.14208187011E+02  0.15252597154E+02  0.51100000000E-03 0. -1.
        -11    1    3    3    0    0  0.11959789855E+02 -0.40015561008E+01  0.82726383064E+01  0.15082624752E+02  0.51100000000E-03 0.  1.
         12    1    3    3    0    0 -0.73861164098E+01 -0.81333429102E+01  0.16943374829E+02  0.20193660716E+02  0.00000000000E+00 0. -1.
</event>
<event>
 7    1  0.2584640E-011  0.5052889E+02  0.7816164E-02  0.1300439E+00
        -11   -1    0    0    0    0  0.00000000000E+00  0.00000000000E+00  0.45593999997E+02  0.45594000000E+02  0.51100000000E-03 0.  1.
         11   -1    0    0    0    0 -0.00000000000E+00 -0.00000000000E+00 -0.45593999997E+02  0.45594000000E+02  0.51100000000E-03 0. -1.
    9900012    2    1    2    0    0 -0.34470607601E+02 -0.17440521338E+02 -0.12679468082E+02  0.50528886830E+02  0.30000082009E+02 0.  0.
        -12    1    1    2    0    0  0.34470607601E+02  0.17440521338E+02  0.12679468082E+02  0.40659113170E+02  0.00000000000E+00 0.  1.
         11    1    3    3    0    0 -0.34355253033E+01  0.83635698521E+00 -0.45103237760E+01  0.57310861049E+01  0.51100000000E-03 0. -1.
        -11    1    3    3    0    0 -0.71908130247E+01  0.82559767732E+00 -0.11992038073E+02  0.14007083240E+02  0.51100000000E-03 0.  1.
        -12    1    3    3    0    0 -0.23844269273E+02 -0.19102476001E+02  0.38228937669E+01  0.30790717485E+02  0.00000000000E+00 0.  1.
</event>
<event>
 7    1  0.2584640E-011  0.5052887E+02  0.7816164E-02  0.1300439E+00
        -11   -1    0    0    0    0  0.00000000000E+00  0.00000000000E+00  0.45593999997E+02  0.45594000000E+02  0.51100000000E-03 0. -1.
         11   -1    0    0    0    0 -0.00000000000E+00 -0.00000000000E+00 -0.45593999997E+02  0.45594000000E+02  0.51100000000E-03 0.  1.
    9900012    2    1    2    0    0  0.36525230012E+02 -0.12615879757E+02 -0.12645628509E+02  0.50528871014E+02  0.30000033934E+02 0.  0.
        -12    1    1    2    0    0 -0.36525230012E+02  0.12615879757E+02  0.12645628509E+02  0.40659128986E+02  0.00000000000E+00 0.  1.
         11    1    3    3    0    0  0.11846427545E+02 -0.84440855489E+01 -0.62247250225E+01  0.15823641433E+02  0.51100000000E-03 0. -1.
        -11    1    3    3    0    0 -0.38844487025E+00 -0.32132315356E+01 -0.89261877818E+01  0.94948709783E+01  0.51100000000E-03 0.  1.
         12    1    3    3    0    0  0.25067247337E+02 -0.95856267300E+00  0.25052842948E+01  0.25210358602E+02  0.00000000000E+00 0. -1.
</event>
<event>
 7    1  0.2584640E-011  0.5052885E+02  0.7816164E-02  0.1300439E+00
        -11   -1    0    0    0    0  0.00000000000E+00  0.00000000000E+00  0.45593999997E+02  0.45594000000E+02  0.51100000000E-03 0.  1.
         11   -1    0    0    0    0 -0.00000000000E+00 -0.00000000000E+00 -0.45593999997E+02  0.45594000000E+02  0.51100000000E-03 0. -1.
    9900012    2    1    2    0    0 -0.22540232017E+02 -0.17455129142E+02 -0.28990042147E+02  0.50528854209E+02  0.29999982855E+02 0.  0.
        -12    1    1    2    0    0  0.22540232017E+02  0.17455129142E+02  0.28990042147E+02  0.40659145791E+02  0.00000000000E+00 0.  1.
         11    1    3    3    0    0 -0.77918041663E+01  0.40074692334E+01 -0.67174826361E+01  0.11040679103E+02  0.51100000000E-03 0.  1.
        -11    1    3    3    0    0 -0.60988492551E+01 -0.48761646576E+01  0.27214576763E+01  0.82691762679E+01  0.51100000000E-03 0. -1.
        -12    1    3    3    0    0 -0.86495785957E+01 -0.16586433718E+02 -0.24994017187E+02  0.31218998839E+02  0.00000000000E+00 0.  1.
</event>
<event>
 7    1  0.2584640E-011  0.5052886E+02  0.7816164E-02  0.1300439E+00
        -11   -1    0    0    0    0  0.00000000000E+00  0.00000000000E+00  0.45593999997E+02  0.45594000000E+02  0.51100000000E-03 0.  1.
         11   -1    0    0    0    0 -0.00000000000E+00 -0.00000000000E+00 -0.45593999997E+02  0.45594000000E+02  0.51100000000E-03 0. -1.
    9900012    2    1    2    0    0  0.20458987844E+02 -0.17299088860E+02 -0.30583284667E+02  0.50528856378E+02  0.29999989448E+02 0.  0.
        -12    1    1    2    0    0 -0.20458987844E+02  0.17299088860E+02  0.30583284667E+02  0.40659143622E+02  0.00000000000E+00 0.  1.
         11    1    3    3    0    0  0.10445455527E+02 -0.15712981253E+01 -0.83002844304E+01  0.13433958495E+02  0.51100000000E-03 0. -1.
        -11    1    3    3    0    0  0.35226177773E+01 -0.67643373490E+01 -0.24628406641E+02  0.25782232443E+02  0.51100000000E-03 0.  1.
        -12    1    3    3    0    0  0.64909145393E+01 -0.89634533861E+01  0.23454064045E+01  0.11312665440E+02  0.00000000000E+00 0.  1.
</event>
<event>
 7    1  0.2584640E-011  0.5052885E+02  0.7816164E-02  0.1300439E+00
        -11   -1    0    0    0    0  0.00000000000E+00  0.00000000000E+00  0.45593999997E+02  0.45594000000E+02  0.51100000000E-03 0. -1.
         11   -1    0    0    0    0 -0.00000000000E+00 -0.00000000000E+00 -0.45593999997E+02  0.45594000000E+02  0.51100000000E-03 0.  1.
    9900012    2    1    2    0    0  0.39297523233E+02 -0.51042012438E+01  0.91004419248E+01  0.50528852864E+02  0.29999978766E+02 0.  0.
        -12    1    1    2    0    0 -0.39297523233E+02  0.51042012438E+01 -0.91004419248E+01  0.40659147136E+02  0.00000000000E+00 0.  1.
         11    1    3    3    0    0  0.65874864150E+01 -0.10138177346E+02 -0.13268529409E+01  0.12162983028E+02  0.51100000000E-03 0. -1.
        -11    1    3    3    0    0  0.82914666349E+01 -0.57830129828E+01  0.15819963617E+01  0.10232026723E+02  0.51100000000E-03 0.  1.
         12    1    3    3    0    0  0.24418570183E+02  0.10816989085E+02  0.88452985040E+01  0.28133843112E+02  0.00000000000E+00 0. -1.
</event>
<event>
 7    1  0.2584640E-011  0.5052882E+02  0.7816164E-02  0.1300439E+00
        -11   -1    0    0    0    0  0.00000000000E+00  0.00000000000E+00  0.45593999997E+02  0.45594000000E+02  0.51100000000E-03 0.  1.
         11   -1    0    0    0    0 -0.00000000000E+00 -0.00000000000E+00 -0.45593999997E+02  0.45594000000E+02  0.51100000000E-03 0. -1.
    9900012    2    1    2    0    0 -0.11118998213E+02  0.15885870035E+02 -0.35737595699E+02  0.50528822262E+02  0.29999885746E+02 0.  0.
        -12    1    1    2    0    0  0.11118998213E+02 -0.15885870035E+02  0.35737595699E+02  0.40659177738E+02  0.00000000000E+00 0.  1.
         11    1    3    3    0    0 -0.70679583162E+01  0.29938637859E+01 -0.17973367575E+02  0.19543827603E+02  0.51100000000E-03 0. -1.
        -11    1    3    3    0    0  0.38254474651E+01 -0.15071085030E+01 -0.13379163988E+02  0.13996694382E+02  0.51100000000E-03 0.  1.
        -12    1    3    3    0    0 -0.78764873623E+01  0.14399114752E+02 -0.43850641358E+01  0.16988300277E+02  0.00000000000E+00 0.  1.
</event>
<event>
 7    1  0.2584640E-011  0.5052886E+02  0.7816164E-02  0.1300439E+00
        -11   -1    0    0    0    0  0.00000000000E+00  0.00000000000E+00  0.45593999997E+02  0.45594000000E+02  0.51100000000E-03 0.  1.
         11   -1    0    0    0    0 -0.00000000000E+00 -0.00000000000E+00 -0.45593999997E+02  0.45594000000E+02  0.51100000000E-03 0. -1.
    9900012    2    1    2    0    0 -0.27922744615E+02 -0.47420249653E+01 -0.29171888687E+02  0.50528861333E+02  0.30000004506E+02 0.  0.
        -12    1    1    2    0    0  0.27922744615E+02  0.47420249653E+01  0.29171888687E+02  0.40659138667E+02  0.00000000000E+00 0.  1.
         11    1    3    3    0    0 -0.20538800130E+02  0.26869333742E+01 -0.31735050306E+01  0.20955501811E+02  0.51100000000E-03 0. -1.
        -11    1    3    3    0    0 -0.46522321309E+01  0.34501611455E+00 -0.42285006243E+01  0.62962304365E+01  0.51100000000E-03 0.  1.
        -12    1    3    3    0    0 -0.27317123547E+01 -0.77739744541E+01 -0.21769883032E+02  0.23277129085E+02  0.00000000000E+00 0.  1.
</event>
<event>
 7    1  0.2584640E-011  0.5052899E+02  0.7816164E-02  0.1300438E+00
        -11   -1    0    0    0    0  0.00000000000E+00  0.00000000000E+00  0.45593999997E+02  0.45594000000E+02  0.51100000000E-03 0.  1.
         11   -1    0    0    0    0 -0.00000000000E+00 -0.00000000000E+00 -0.45593999997E+02  0.45594000000E+02  0.51100000000E-03 0. -1.
    9900012    2    1    2    0    0 -0.14365127486E+02  0.37625968053E+02  0.55753570837E+01  0.50528991574E+02  0.30000400385E+02 0.  0.
        -12    1    1    2    0    0  0.14365127486E+02 -0.37625968053E+02 -0.55753570837E+01  0.40659008426E+02  0.00000000000E+00 0.  1.
         11    1    3    3    0    0 -0.49667169689E+01  0.11551899191E+02  0.43464614373E+01  0.13304374455E+02  0.51100000000E-03 0. -1.
        -11    1    3    3    0    0 -0.17462072384E+02  0.12922805389E+02 -0.26961449565E+00  0.21725458874E+02  0.51100000000E-03 0.  1.
        -12    1    3    3    0    0  0.80636618664E+01  0.13151263473E+02  0.14985101421E+01  0.15499158244E+02  0.00000000000E+00 0.  1.
</event>
<event>
 7    1  0.2584640E-011  0.5052886E+02  0.7816164E-02  0.1300439E+00
        -11   -1    0    0    0    0  0.00000000000E+00  0.00000000000E+00  0.45593999997E+02  0.45594000000E+02  0.51100000000E-03 0.  1.
         11   -1    0    0    0    0 -0.00000000000E+00 -0.00000000000E+00 -0.45593999997E+02  0.45594000000E+02  0.51100000000E-03 0. -1.
    9900012    2    1    2    0    0  0.29619809925E+01  0.24533600391E+02 -0.32287689934E+02  0.50528858336E+02  0.29999995398E+02 0.  0.
        -12    1    1    2    0    0 -0.29619809925E+01 -0.24533600391E+02  0.32287689934E+02  0.40659141664E+02  0.00000000000E+00 0.  1.
         11    1    3    3    0    0  0.49861950776E+01 -0.19328010372E+01 -0.10908871924E+02  0.12149129521E+02  0.51100000000E-03 0. -1.
        -11    1    3    3    0    0  0.76843912906E+01  0.10513077134E+02 -0.10789404491E+02  0.16911117936E+02  0.51100000000E-03 0.  1.
        -12    1    3    3    0    0 -0.97086053757E+01  0.15953324295E+02 -0.10589413520E+02  0.21468610879E+02  0.00000000000E+00 0.  1.
</event>
<event>
 7    1  0.2584640E-011  0.5052886E+02  0.7816164E-02  0.1300439E+00
        -11   -1    0    0    0    0  0.00000000000E+00  0.00000000000E+00  0.45593999997E+02  0.45594000000E+02  0.51100000000E-03 0. -1.
         11   -1    0    0    0    0 -0.00000000000E+00 -0.00000000000E+00 -0.45593999997E+02  0.45594000000E+02  0.51100000000E-03 0.  1.
    9900012    2    1    2    0    0 -0.87776937735E+01  0.48376354209E+01  0.39404503067E+02  0.50528862203E+02  0.30000007153E+02 0.  0.
        -12    1    1    2    0    0  0.87776937735E+01 -0.48376354209E+01 -0.39404503067E+02  0.40659137797E+02  0.00000000000E+00 0.  1.
         11    1    3    3    0    0 -0.55221132128E+01 -0.99993227071E-01 -0.73090673537E+00  0.55711720398E+01  0.51100000000E-03 0. -1.
        -11    1    3    3    0    0  0.90262940152E+00 -0.72504884338E+01  0.12740717518E+02  0.14687076139E+02  0.51100000000E-03 0.  1.
         12    1    3    3    0    0 -0.41582099622E+01  0.12188117082E+02  0.27394692284E+02  0.30270614024E+02  0.00000000000E+00 0. -1.
</event>
<event>
 7    1  0.2584640E-011  0.5052886E+02  0.7816164E-02  0.1300439E+00
        -11   -1    0    0    0    0  0.00000000000E+00  0.00000000000E+00  0.45593999997E+02  0.45594000000E+02  0.51100000000E-03 0.  1.
         11   -1    0    0    0    0 -0.00000000000E+00 -0.00000000000E+00 -0.45593999997E+02  0.45594000000E+02  0.51100000000E-03 0. -1.
    9900012    2    1    2    0    0  0.15581816407E+02  0.16315738549E+02 -0.33825573364E+02  0.50528859081E+02  0.29999997662E+02 0.  0.
        -12    1    1    2    0    0 -0.15581816407E+02 -0.16315738549E+02  0.33825573364E+02  0.40659140919E+02  0.00000000000E+00 0.  1.
         11    1    3    3    0    0  0.48537968909E+01 -0.61647895068E+01 -0.89546293552E+01  0.11905854067E+02  0.51100000000E-03 0. -1.
        -11    1    3    3    0    0 -0.35937168883E+01  0.38284015830E+01 -0.14821916631E+01  0.54560381360E+01  0.51100000000E-03 0.  1.
         12    1    3    3    0    0  0.14321736404E+02  0.18652126472E+02 -0.23388752345E+02  0.33166966877E+02  0.00000000000E+00 0. -1.
</event>
<event>
 7    1  0.2584640E-011  0.5052885E+02  0.7816164E-02  0.1300439E+00
        -11   -1    0    0    0    0  0.00000000000E+00  0.00000000000E+00  0.45593999997E+02  0.45594000000E+02  0.51100000000E-03 0. -1.
         11   -1    0    0    0    0 -0.00000000000E+00 -0.00000000000E+00 -0.45593999997E+02  0.45594000000E+02  0.51100000000E-03 0.  1.
    9900012    2    1    2    0    0 -0.93900171724E+01  0.30678293030E+02  0.24976719699E+02  0.50528848353E+02  0.29999965053E+02 0.  0.
        -12    1    1    2    0    0  0.93900171724E+01 -0.30678293030E+02 -0.24976719699E+02  0.40659151647E+02  0.00000000000E+00 0.  1.
         11    1    3    3    0    0 -0.24024683647E+01  0.85288085462E+01  0.14410993360E+01  0.89771486018E+01  0.51100000000E-03 0. -1.
        -11    1    3    3    0    0 -0.10096639757E+02  0.71143215001E+00  0.80744956640E+00  0.10153829088E+02  0.51100000000E-03 0.  1.
         12    1    3    3    0    0  0.31090909489E+01  0.21438052334E+02  0.22728170797E+02  0.31397870663E+02  0.00000000000E+00 0. -1.
</event>
<event>
 7    1  0.2584640E-011  0.5052886E+02  0.7816164E-02  0.1300439E+00
        -11   -1    0    0    0    0  0.00000000000E+00  0.00000000000E+00  0.45593999997E+02  0.45594000000E+02  0.51100000000E-03 0.  1.
         11   -1    0    0    0    0 -0.00000000000E+00 -0.00000000000E+00 -0.45593999997E+02  0.45594000000E+02  0.51100000000E-03 0. -1.
    9900012    2    1    2    0    0  0.99815585794E+01  0.80014340823E+01 -0.38594186617E+02  0.50528859580E+02  0.29999999179E+02 0.  0.
        -12    1    1    2    0    0 -0.99815585794E+01 -0.80014340823E+01  0.38594186617E+02  0.40659140420E+02  0.00000000000E+00 0.  1.
         11    1    3    3    0    0  0.53627561709E+01 -0.21271808506E+01 -0.49815890163E+01  0.76223540660E+01  0.51100000000E-03 0. -1.
        -11    1    3    3    0    0  0.80331311320E+01 -0.60304264271E+01 -0.10881755771E+02  0.14809113667E+02  0.51100000000E-03 0.  1.
        -12    1    3    3    0    0 -0.34143287234E+01  0.16159041360E+02 -0.22730841830E+02  0.28097391847E+02  0.00000000000E+00 0.  1.
</event>
<event>
 7    1  0.2584640E-011  0.5052886E+02  0.7816164E-02  0.1300439E+00
        -11   -1    0    0    0    0  0.00000000000E+00  0.00000000000E+00  0.45593999997E+02  0.45594000000E+02  0.51100000000E-03 0.  1.
         11   -1    0    0    0    0 -0.00000000000E+00 -0.00000000000E+00 -0.45593999997E+02  0.45594000000E+02  0.51100000000E-03 0. -1.
    9900012    2    1    2    0    0  0.12751404187E+02 -0.38336534600E+02  0.45691950054E+01  0.50528859123E+02  0.29999997790E+02 0.  0.
        -12    1    1    2    0    0 -0.12751404187E+02  0.38336534600E+02 -0.45691950054E+01  0.40659140877E+02  0.00000000000E+00 0.  1.
         11    1    3    3    0    0 -0.18952876034E+01 -0.89031769372E+01  0.22919862042E+01  0.93867926203E+01  0.51100000000E-03 0. -1.
        -11    1    3    3    0    0  0.15878535662E+02 -0.29008207031E+02  0.90173893631E+01  0.34277066402E+02  0.51100000000E-03 0.  1.
        -12    1    3    3    0    0 -0.12318438712E+01 -0.42515063158E+00 -0.67401805618E+01  0.68650001012E+01  0.00000000000E+00 0.  1.
</event>
<event>
 7    1  0.2584640E-011  0.5052886E+02  0.7816164E-02  0.1300439E+00
        -11   -1    0    0    0    0  0.00000000000E+00  0.00000000000E+00  0.45593999997E+02  0.45594000000E+02  0.51100000000E-03 0.  1.
         11   -1    0    0    0    0 -0.00000000000E+00 -0.00000000000E+00 -0.45593999997E+02  0.45594000000E+02  0.51100000000E-03 0. -1.
    9900012    2    1    2    0    0  0.31644608498E+02  0.37785561754E+01 -0.25248892203E+02  0.50528864603E+02  0.30000014447E+02 0.  0.
        -12    1    1    2    0    0 -0.31644608498E+02 -0.37785561754E+01  0.25248892203E+02  0.40659135397E+02  0.00000000000E+00 0.  1.
         11    1    3    3    0    0  0.77542181773E+01  0.97145181969E+01 -0.10656851173E+02  0.16372789638E+02  0.51100000000E-03 0. -1.
        -11    1    3    3    0    0  0.42404863652E+01 -0.53197348284E+01  0.33112693327E+01  0.75660959624E+01  0.51100000000E-03 0.  1.
         12    1    3    3    0    0  0.19649903955E+02 -0.61622719312E+00 -0.17903310363E+02  0.26589979002E+02  0.00000000000E+00 0. -1.
</event>
<event>
 7    1  0.2584640E-011  0.5052886E+02  0.7816164E-02  0.1300439E+00
        -11   -1    0    0    0    0  0.00000000000E+00  0.00000000000E+00  0.45593999997E+02  0.45594000000E+02  0.51100000000E-03 0.  1.
         11   -1    0    0    0    0 -0.00000000000E+00 -0.00000000000E+00 -0.45593999997E+02  0.45594000000E+02  0.51100000000E-03 0. -1.
    9900012    2    1    2    0    0  0.78921947552E+01  0.34626096135E+02 -0.19796769699E+02  0.50528863731E+02  0.30000011797E+02 0.  0.
        -12    1    1    2    0    0 -0.78921947552E+01 -0.34626096135E+02  0.19796769699E+02  0.40659136269E+02  0.00000000000E+00 0.  1.
         11    1    3    3    0    0 -0.52001443811E+01  0.89358621954E+01 -0.66160320549E+01  0.12274486351E+02  0.51100000000E-03 0. -1.
        -11    1    3    3    0    0  0.58283771720E+01 -0.24634024846E+01 -0.49572133059E+01  0.80381774229E+01  0.51100000000E-03 0.  1.
         12    1    3    3    0    0  0.72639619643E+01  0.28153636424E+02 -0.82235243384E+01  0.30216199958E+02  0.00000000000E+00 0. -1.
</event>
<event>
 7    1  0.2584640E-011  0.5052888E+02  0.7816164E-02  0.1300439E+00
        -11   -1    0    0    0    0  0.00000000000E+00  0.00000000000E+00  0.45593999997E+02  0.45594000000E+02  0.51100000000E-03 0.  1.
         11   -1    0    0    0    0 -0.00000000000E+00 -0.00000000000E+00 -0.45593999997E+02  0.45594000000E+02  0.51100000000E-03 0. -1.
    9900012    2    1    2    0    0 -0.28793947835E+02 -0.11354261353E+02 -0.26365766351E+02  0.50528876571E+02  0.30000050824E+02 0.  0.
        -12    1    1    2    0    0  0.28793947835E+02  0.11354261353E+02  0.26365766351E+02  0.40659123429E+02  0.00000000000E+00 0.  1.
         11    1    3    3    0    0 -0.75721623231E+01 -0.63755158708E+01 -0.15769771860E+02  0.18619090999E+02  0.51100000000E-03 0. -1.
        -11    1    3    3    0    0  0.36428187760E+01 -0.85522743741E+00  0.14015795633E+01  0.39957437527E+01  0.51100000000E-03 0.  1.
         12    1    3    3    0    0 -0.24864604288E+02 -0.41235180445E+01 -0.11997574054E+02  0.27914041818E+02  0.00000000000E+00 0. -1.
</event>
<event>
 7    1  0.2584640E-011  0.5052886E+02  0.7816164E-02  0.1300439E+00
        -11   -1    0    0    0    0  0.00000000000E+00  0.00000000000E+00  0.45593999997E+02  0.45594000000E+02  0.51100000000E-03 0.  1.
         11   -1    0    0    0    0 -0.00000000000E+00 -0.00000000000E+00 -0.45593999997E+02  0.45594000000E+02  0.51100000000E-03 0. -1.
    9900012    2    1    2    0    0  0.18754044879E+02  0.32832114096E+02 -0.14950053197E+02  0.50528855814E+02  0.29999987732E+02 0.  0.
        -12    1    1    2    0    0 -0.18754044879E+02 -0.32832114096E+02  0.14950053197E+02  0.40659144186E+02  0.00000000000E+00 0.  1.
         11    1    3    3    0    0  0.10935295158E+02  0.71347847954E+01 -0.15832733188E+02  0.20522214177E+02  0.51100000000E-03 0. -1.
        -11    1    3    3    0    0  0.94601371341E+00 -0.11280069955E+01  0.17680653655E+01  0.23007383870E+01  0.51100000000E-03 0.  1.
        -12    1    3    3    0    0  0.68727360083E+01  0.26825336296E+02 -0.88538537427E+00  0.27705903250E+02  0.00000000000E+00 0.  1.
</event>
<event>
 7    1  0.2584640E-011  0.5052886E+02  0.7816164E-02  0.1300439E+00
        -11   -1    0    0    0    0  0.00000000000E+00  0.00000000000E+00  0.45593999997E+02  0.45594000000E+02  0.51100000000E-03 0.  1.
         11   -1    0    0    0    0 -0.00000000000E+00 -0.00000000000E+00 -0.45593999997E+02  0.45594000000E+02  0.51100000000E-03 0. -1.
    9900012    2    1    2    0    0  0.20267360156E+01  0.32094674520E+02 -0.24879513715E+02  0.50528855960E+02  0.29999988175E+02 0.  0.
        -12    1    1    2    0    0 -0.20267360156E+01 -0.32094674520E+02  0.24879513715E+02  0.40659144040E+02  0.00000000000E+00 0.  1.
         11    1    3    3    0    0 -0.16685575474E+01  0.14064464024E+02 -0.20225494575E+02  0.24691372251E+02  0.51100000000E-03 0. -1.
        -11    1    3    3    0    0  0.92683924141E+01  0.13215399613E+02 -0.76796378696E+01  0.17875310429E+02  0.51100000000E-03 0.  1.
        -12    1    3    3    0    0 -0.55730988511E+01  0.48148108829E+01  0.30256187293E+01  0.79621732798E+01  0.00000000000E+00 0.  1.
</event>
<event>
 7    1  0.2584640E-011  0.5052883E+02  0.7816164E-02  0.1300439E+00
        -11   -1    0    0    0    0  0.00000000000E+00  0.00000000000E+00  0.45593999997E+02  0.45594000000E+02  0.51100000000E-03 0.  1.
         11   -1    0    0    0    0 -0.00000000000E+00 -0.00000000000E+00 -0.45593999997E+02  0.45594000000E+02  0.51100000000E-03 0. -1.
    9900012    2    1    2    0    0 -0.11220526207E+02 -0.31368045281E+02 -0.23309096084E+02  0.50528825963E+02  0.29999896996E+02 0.  0.
        -12    1    1    2    0    0  0.11220526207E+02  0.31368045281E+02  0.23309096084E+02  0.40659174037E+02  0.00000000000E+00 0.  1.
         11    1    3    3    0    0 -0.52403799687E+01  0.11076293248E+00 -0.65816950506E+01  0.84138315079E+01  0.51100000000E-03 0. -1.
        -11    1    3    3    0    0 -0.10331898471E+02 -0.24891023935E+02 -0.20007869455E+02  0.33565250467E+02  0.51100000000E-03 0.  1.
        -12    1    3    3    0    0  0.43517522318E+01 -0.65877842785E+01  0.32804684214E+01  0.85497439874E+01  0.00000000000E+00 0.  1.
</event>
<event>
 7    1  0.2584640E-011  0.5052886E+02  0.7816164E-02  0.1300439E+00
        -11   -1    0    0    0    0  0.00000000000E+00  0.00000000000E+00  0.45593999997E+02  0.45594000000E+02  0.51100000000E-03 0.  1.
         11   -1    0    0    0    0 -0.00000000000E+00 -0.00000000000E+00 -0.45593999997E+02  0.45594000000E+02  0.51100000000E-03 0. -1.
    9900012    2    1    2    0    0  0.14648748493E+02  0.25315564563E+02 -0.28243613451E+02  0.50528863974E+02  0.30000012537E+02 0.  0.
        -12    1    1    2    0    0 -0.14648748493E+02 -0.25315564563E+02  0.28243613451E+02  0.40659136026E+02  0.00000000000E+00 0.  1.
         11    1    3    3    0    0  0.75695430569E+01  0.68404476542E+01  0.10757625166E+01  0.10258994661E+02  0.51100000000E-03 0.  1.
        -11    1    3    3    0    0  0.61927874553E+01 -0.24293754046E+01 -0.62928170038E+01  0.91570752660E+01  0.51100000000E-03 0. -1.
         12    1    3    3    0    0  0.88641798101E+00  0.20904492313E+02 -0.23026558964E+02  0.31112794048E+02  0.00000000000E+00 0. -1.
</event>
<event>
 7    1  0.2584640E-011  0.5052885E+02  0.7816164E-02  0.1300439E+00
        -11   -1    0    0    0    0  0.00000000000E+00  0.00000000000E+00  0.45593999997E+02  0.45594000000E+02  0.51100000000E-03 0.  1.
         11   -1    0    0    0    0 -0.00000000000E+00 -0.00000000000E+00 -0.45593999997E+02  0.45594000000E+02  0.51100000000E-03 0. -1.
    9900012    2    1    2    0    0 -0.12424403824E+02 -0.24641199284E+02 -0.29859872752E+02  0.50528849575E+02  0.29999968767E+02 0.  0.
        -12    1    1    2    0    0  0.12424403824E+02  0.24641199284E+02  0.29859872752E+02  0.40659150425E+02  0.00000000000E+00 0.  1.
         11    1    3    3    0    0  0.42802643570E+01  0.30909349288E+01 -0.10364288266E+02  0.11631552486E+02  0.51100000000E-03 0.  1.
        -11    1    3    3    0    0 -0.11707323247E+02 -0.10889084337E+02 -0.10799758390E+02  0.19294257096E+02  0.51100000000E-03 0. -1.
        -12    1    3    3    0    0 -0.49973449337E+01 -0.16843049876E+02 -0.86958260954E+01  0.19603039993E+02  0.00000000000E+00 0.  1.
</event>
<event>
 7    1  0.2584640E-011  0.5052885E+02  0.7816164E-02  0.1300439E+00
        -11   -1    0    0    0    0  0.00000000000E+00  0.00000000000E+00  0.45593999997E+02  0.45594000000E+02  0.51100000000E-03 0.  1.
         11   -1    0    0    0    0 -0.00000000000E+00 -0.00000000000E+00 -0.45593999997E+02  0.45594000000E+02  0.51100000000E-03 0. -1.
    9900012    2    1    2    0    0  0.49078150207E+01  0.34825029240E+02 -0.20403361247E+02  0.50528850229E+02  0.29999970757E+02 0.  0.
        -12    1    1    2    0    0 -0.49078150207E+01 -0.34825029240E+02  0.20403361247E+02  0.40659149771E+02  0.00000000000E+00 0.  1.
         11    1    3    3    0    0  0.32986848060E+01  0.10435220453E+02 -0.98823884679E+01  0.14745736653E+02  0.51100000000E-03 0. -1.
        -11    1    3    3    0    0 -0.50863858279E+01 -0.88788262484E+00 -0.79878056302E+01  0.95112930452E+01  0.51100000000E-03 0.  1.
        -12    1    3    3    0    0  0.66955160426E+01  0.25277691412E+02 -0.25331671494E+01  0.26271820531E+02  0.00000000000E+00 0.  1.
</event>
<event>
 7    1  0.2584640E-011  0.5052886E+02  0.7816164E-02  0.1300439E+00
        -11   -1    0    0    0    0  0.00000000000E+00  0.00000000000E+00  0.45593999997E+02  0.45594000000E+02  0.51100000000E-03 0.  1.
         11   -1    0    0    0    0 -0.00000000000E+00 -0.00000000000E+00 -0.45593999997E+02  0.45594000000E+02  0.51100000000E-03 0. -1.
    9900012    2    1    2    0    0 -0.14482619722E+02 -0.27750559585E+02 -0.25948525403E+02  0.50528858324E+02  0.29999995360E+02 0.  0.
        -12    1    1    2    0    0  0.14482619722E+02  0.27750559585E+02  0.25948525403E+02  0.40659141676E+02  0.00000000000E+00 0.  1.
         11    1    3    3    0    0 -0.10862189579E+01 -0.15397213376E+02 -0.23387168062E+02  0.28021664504E+02  0.51100000000E-03 0. -1.
        -11    1    3    3    0    0  0.62625683904E+00 -0.18133270162E+00  0.30423790358E+01  0.31114545852E+01  0.51100000000E-03 0.  1.
        -12    1    3    3    0    0 -0.14022657603E+02 -0.12172013507E+02 -0.56037363774E+01  0.19395739234E+02  0.00000000000E+00 0.  1.
</event>
<event>
 7    1  0.2584640E-011  0.5052885E+02  0.7816164E-02  0.1300439E+00
        -11   -1    0    0    0    0  0.00000000000E+00  0.00000000000E+00  0.45593999997E+02  0.45594000000E+02  0.51100000000E-03 0.  1.
         11   -1    0    0    0    0 -0.00000000000E+00 -0.00000000000E+00 -0.45593999997E+02  0.45594000000E+02  0.51100000000E-03 0. -1.
    9900012    2    1    2    0    0  0.29481141219E+02  0.13444192811E+02 -0.24561815784E+02  0.50528846018E+02  0.29999957955E+02 0.  0.
        -12    1    1    2    0    0 -0.29481141219E+02 -0.13444192811E+02  0.24561815784E+02  0.40659153982E+02  0.00000000000E+00 0.  1.
         11    1    3    3    0    0  0.45655949477E+01  0.11100309714E+02 -0.74387747622E+01  0.14120796833E+02  0.51100000000E-03 0. -1.
        -11    1    3    3    0    0  0.38485528065E+00 -0.28101563384E+01  0.30994590083E+01  0.42013972246E+01  0.51100000000E-03 0.  1.
         12    1    3    3    0    0  0.24530690991E+02  0.51540394351E+01 -0.20222500031E+02  0.32206651960E+02  0.00000000000E+00 0. -1.
</event>
<event>
 7    1  0.2584640E-011  0.5052886E+02  0.7816164E-02  0.1300439E+00
        -11   -1    0    0    0    0  0.00000000000E+00  0.00000000000E+00  0.45593999997E+02  0.45594000000E+02  0.51100000000E-03 0.  1.
         11   -1    0    0    0    0 -0.00000000000E+00 -0.00000000000E+00 -0.45593999997E+02  0.45594000000E+02  0.51100000000E-03 0. -1.
    9900012    2    1    2    0    0 -0.24691897285E+02 -0.16006851128E+02 -0.28058099288E+02  0.50528855761E+02  0.29999987573E+02 0.  0.
        -12    1    1    2    0    0  0.24691897285E+02  0.16006851128E+02  0.28058099288E+02  0.40659144239E+02  0.00000000000E+00 0.  1.
         11    1    3    3    0    0 -0.14592730785E+02 -0.16903014984E+02 -0.25862995824E+02  0.34169493128E+02  0.51100000000E-03 0. -1.
        -11    1    3    3    0    0 -0.92747763918E+01 -0.47087407820E+01 -0.24578501879E+01  0.10688065525E+02  0.51100000000E-03 0.  1.
        -12    1    3    3    0    0 -0.82439010766E+00  0.56049046380E+01  0.26274672436E+00  0.56712971084E+01  0.00000000000E+00 0.  1.
</event>
<event>
 7    1  0.2584640E-011  0.5052886E+02  0.7816164E-02  0.1300439E+00
        -11   -1    0    0    0    0  0.00000000000E+00  0.00000000000E+00  0.45593999997E+02  0.45594000000E+02  0.51100000000E-03 0. -1.
         11   -1    0    0    0    0 -0.00000000000E+00 -0.00000000000E+00 -0.45593999997E+02  0.45594000000E+02  0.51100000000E-03 0.  1.
    9900012    2    1    2    0    0  0.84372504766E+01  0.38269637351E+02 -0.10835739982E+02  0.50528860812E+02  0.30000002923E+02 0.  0.
        -12    1    1    2    0    0 -0.84372504766E+01 -0.38269637351E+02  0.10835739982E+02  0.40659139188E+02  0.00000000000E+00 0.  1.
         11    1    3    3    0    0  0.52497052859E+01  0.29382974475E+02 -0.58059692604E+00  0.29853905735E+02  0.51100000000E-03 0. -1.
        -11    1    3    3    0    0  0.16045044718E+01  0.76618719497E+00  0.38961328913E+01  0.42826778055E+01  0.51100000000E-03 0.  1.
         12    1    3    3    0    0  0.15830407189E+01  0.81204756812E+01 -0.14151275947E+02  0.16392277271E+02  0.00000000000E+00 0. -1.
</event>
<event>
 7    1  0.2584640E-011  0.5052887E+02  0.7816164E-02  0.1300439E+00
        -11   -1    0    0    0    0  0.00000000000E+00  0.00000000000E+00  0.45593999997E+02  0.45594000000E+02  0.51100000000E-03 0. -1.
         11   -1    0    0    0    0 -0.00000000000E+00 -0.00000000000E+00 -0.45593999997E+02  0.45594000000E+02  0.51100000000E-03 0.  1.
    9900012    2    1    2    0    0 -0.20595925357E+02 -0.28194929370E+02  0.20833118562E+02  0.50528868030E+02  0.30000024865E+02 0.  0.
        -12    1    1    2    0    0  0.20595925357E+02  0.28194929370E+02 -0.20833118562E+02  0.40659131970E+02  0.00000000000E+00 0.  1.
         11    1    3    3    0    0 -0.11487810770E+02 -0.88489794532E+01  0.19674050384E+02  0.24440591081E+02  0.51100000000E-03 0. -1.
        -11    1    3    3    0    0  0.19434333752E+01  0.18791772098E+00  0.29891496958E+01  0.35703308697E+01  0.51100000000E-03 0.  1.
         12    1    3    3    0    0 -0.11051547962E+02 -0.19533867638E+02 -0.18300815170E+01  0.22517946079E+02  0.00000000000E+00 0. -1.
</event>
<event>
 7    1  0.2584640E-011  0.5052886E+02  0.7816164E-02  0.1300439E+00
        -11   -1    0    0    0    0  0.00000000000E+00  0.00000000000E+00  0.45593999997E+02  0.45594000000E+02  0.51100000000E-03 0.  1.
         11   -1    0    0    0    0 -0.00000000000E+00 -0.00000000000E+00 -0.45593999997E+02  0.45594000000E+02  0.51100000000E-03 0. -1.
    9900012    2    1    2    0    0 -0.20259799241E+02  0.19989927194E+02 -0.29036345530E+02  0.50528855687E+02  0.29999987347E+02 0.  0.
        -12    1    1    2    0    0  0.20259799241E+02 -0.19989927194E+02  0.29036345530E+02  0.40659144313E+02  0.00000000000E+00 0.  1.
         11    1    3    3    0    0  0.62008438864E+00  0.11414263956E+02 -0.83860589773E+01  0.14177302696E+02  0.51100000000E-03 0. -1.
        -11    1    3    3    0    0  0.19663728334E+01 -0.20567844622E+01  0.11128477948E+01  0.30553911238E+01  0.51100000000E-03 0.  1.
        -12    1    3    3    0    0 -0.22846256463E+02  0.10632447701E+02 -0.21763134348E+02  0.33296161868E+02  0.00000000000E+00 0.  1.
</event>
<event>
 7    1  0.3074767E-011  0.5052888E+02  0.7816164E-02  0.1300439E+00
        -11   -1    0    0    0    0  0.00000000000E+00  0.00000000000E+00  0.45593999997E+02  0.45594000000E+02  0.51100000000E-03 0. -1.
         11   -1    0    0    0    0 -0.00000000000E+00 -0.00000000000E+00 -0.45593999997E+02  0.45594000000E+02  0.51100000000E-03 0.  1.
    9900012    2    1    2    0    0 -0.15143483620E+02 -0.14734238119E+02  0.34738184429E+02  0.50528876466E+02  0.30000050507E+02 0.  0.
        -12    1    1    2    0    0  0.15143483620E+02  0.14734238119E+02 -0.34738184429E+02  0.40659123534E+02  0.00000000000E+00 0.  1.
         11    1    3    3    0    0 -0.93728188359E+01 -0.49935623659E+00  0.20985119605E+02  0.22988569653E+02  0.51100000000E-03 0. -1.
        -11    1    3    3    0    0 -0.12284678621E+02 -0.71966731395E+01  0.89237698915E+01  0.16802949218E+02  0.51100000000E-03 0.  1.
        -12    1    3    3    0    0  0.65140138374E+01 -0.70382087429E+01  0.48292949328E+01  0.10737357595E+02  0.00000000000E+00 0.  1.
</event>
<event>
 7    1  0.2584640E-011  0.5052884E+02  0.7816164E-02  0.1300439E+00
        -11   -1    0    0    0    0  0.00000000000E+00  0.00000000000E+00  0.45593999997E+02  0.45594000000E+02  0.51100000000E-03 0.  1.
         11   -1    0    0    0    0 -0.00000000000E+00 -0.00000000000E+00 -0.45593999997E+02  0.45594000000E+02  0.51100000000E-03 0. -1.
    9900012    2    1    2    0    0  0.25780398508E+02  0.13784993013E+02 -0.28257953391E+02  0.50528844703E+02  0.29999953960E+02 0.  0.
        -12    1    1    2    0    0 -0.25780398508E+02 -0.13784993013E+02  0.28257953391E+02  0.40659155297E+02  0.00000000000E+00 0.  1.
         11    1    3    3    0    0  0.62335743700E+01  0.16890501558E+02 -0.10873673403E+02  0.21032909115E+02  0.51100000000E-03 0. -1.
        -11    1    3    3    0    0  0.10963033415E+02  0.46758876054E+01 -0.11235749981E+02  0.16379685725E+02  0.51100000000E-03 0.  1.
        -12    1    3    3    0    0  0.85837907233E+01 -0.77813961502E+01 -0.61485300059E+01  0.13116249863E+02  0.00000000000E+00 0.  1.
</event>
<event>
 7    1  0.2584640E-011  0.5052886E+02  0.7816164E-02  0.1300439E+00
        -11   -1    0    0    0    0  0.00000000000E+00  0.00000000000E+00  0.45593999997E+02  0.45594000000E+02  0.51100000000E-03 0.  1.
         11   -1    0    0    0    0 -0.00000000000E+00 -0.00000000000E+00 -0.45593999997E+02  0.45594000000E+02  0.51100000000E-03 0. -1.
    9900012    2    1    2    0    0  0.37905816194E+02  0.82773001779E+01 -0.12157330017E+02  0.50528864831E+02  0.30000015141E+02 0.  0.
        -12    1    1    2    0    0 -0.37905816194E+02 -0.82773001779E+01  0.12157330017E+02  0.40659135169E+02  0.00000000000E+00 0.  1.
         11    1    3    3    0    0  0.14214615789E+02  0.46069876672E+01 -0.51217599136E+01  0.15795950819E+02  0.51100000000E-03 0. -1.
        -11    1    3    3    0    0 -0.27158430180E+01  0.52349109550E+01  0.27765982983E+01  0.65184042814E+01  0.51100000000E-03 0.  1.
         12    1    3    3    0    0  0.26407043422E+02 -0.15645984444E+01 -0.98121684019E+01  0.28214509731E+02  0.00000000000E+00 0. -1.
</event>
<event>
 7    1  0.2584640E-011  0.5052878E+02  0.7816164E-02  0.1300439E+00
        -11   -1    0    0    0    0  0.00000000000E+00  0.00000000000E+00  0.45593999997E+02  0.45594000000E+02  0.51100000000E-03 0.  1.
         11   -1    0    0    0    0 -0.00000000000E+00 -0.00000000000E+00 -0.45593999997E+02  0.45594000000E+02  0.51100000000E-03 0. -1.
    9900012    2    1    2    0    0 -0.34165232414E+02  0.67292759606E+01  0.20991093878E+02  0.50528778622E+02  0.29999753099E+02 0.  0.
        -12    1    1    2    0    0  0.34165232414E+02 -0.67292759606E+01 -0.20991093878E+02  0.40659221378E+02  0.00000000000E+00 0.  1.
         11    1    3    3    0    0 -0.99045063382E+01  0.10865617635E+02  0.27710185169E+01  0.14961264528E+02  0.51100000000E-03 0. -1.
        -11    1    3    3    0    0 -0.23721574575E+01  0.32393097170E+01  0.10454911423E+02  0.11199349604E+02  0.51100000000E-03 0.  1.
        -12    1    3    3    0    0 -0.21888568618E+02 -0.73756513914E+01  0.77651639387E+01  0.24368164490E+02  0.00000000000E+00 0.  1.
</event>
<event>
 7    1  0.2584640E-011  0.5052886E+02  0.7816164E-02  0.1300439E+00
        -11   -1    0    0    0    0  0.00000000000E+00  0.00000000000E+00  0.45593999997E+02  0.45594000000E+02  0.51100000000E-03 0. -1.
         11   -1    0    0    0    0 -0.00000000000E+00 -0.00000000000E+00 -0.45593999997E+02  0.45594000000E+02  0.51100000000E-03 0.  1.
    9900012    2    1    2    0    0 -0.15505177454E+02  0.30647604572E+01  0.37461476932E+02  0.50528861562E+02  0.30000005205E+02 0.  0.
        -12    1    1    2    0    0  0.15505177454E+02 -0.30647604572E+01 -0.37461476932E+02  0.40659138438E+02  0.00000000000E+00 0.  1.
         11    1    3    3    0    0  0.66666386097E+01  0.36323152749E+00  0.14791647896E+02  0.16228643049E+02  0.51100000000E-03 0. -1.
        -11    1    3    3    0    0 -0.88865513414E+00  0.70305306229E+00 -0.15986065988E+01  0.19594731115E+01  0.51100000000E-03 0.  1.
         12    1    3    3    0    0 -0.21283160930E+02  0.19984758674E+01  0.24268435635E+02  0.32340745402E+02  0.00000000000E+00 0. -1.
</event>
<event>
 7    1  0.2584640E-011  0.5052886E+02  0.7816164E-02  0.1300439E+00
        -11   -1    0    0    0    0  0.00000000000E+00  0.00000000000E+00  0.45593999997E+02  0.45594000000E+02  0.51100000000E-03 0.  1.
         11   -1    0    0    0    0 -0.00000000000E+00 -0.00000000000E+00 -0.45593999997E+02  0.45594000000E+02  0.51100000000E-03 0. -1.
    9900012    2    1    2    0    0 -0.21077833685E+02  0.33548061341E+02 -0.91333522838E+01  0.50528860603E+02  0.30000002288E+02 0.  0.
        -12    1    1    2    0    0  0.21077833685E+02 -0.33548061341E+02  0.91333522838E+01  0.40659139397E+02  0.00000000000E+00 0.  1.
         11    1    3    3    0    0 -0.12087662795E+02  0.53875243752E+01 -0.23682348888E+01  0.13444164068E+02  0.51100000000E-03 0. -1.
        -11    1    3    3    0    0 -0.18223010754E-01  0.84932075042E+01  0.73794047461E+01  0.11251245285E+02  0.51100000000E-03 0.  1.
         12    1    3    3    0    0 -0.89719478793E+01  0.19667329462E+02 -0.14144522141E+02  0.25833451250E+02  0.00000000000E+00 0. -1.
</event>
<event>
 7    1  0.2584640E-011  0.5052888E+02  0.7816164E-02  0.1300439E+00
        -11   -1    0    0    0    0  0.00000000000E+00  0.00000000000E+00  0.45593999997E+02  0.45594000000E+02  0.51100000000E-03 0.  1.
         11   -1    0    0    0    0 -0.00000000000E+00 -0.00000000000E+00 -0.45593999997E+02  0.45594000000E+02  0.51100000000E-03 0. -1.
    9900012    2    1    2    0    0 -0.23196716969E+02 -0.21120706248E+02 -0.25864877889E+02  0.50528882711E+02  0.30000069487E+02 0.  0.
        -12    1    1    2    0    0  0.23196716969E+02  0.21120706248E+02  0.25864877889E+02  0.40659117289E+02  0.00000000000E+00 0.  1.
         11    1    3    3    0    0 -0.75150228796E+01 -0.12725196994E+02 -0.12139125857E+02  0.19124972791E+02  0.51100000000E-03 0. -1.
        -11    1    3    3    0    0  0.11328398305E+01  0.14596690610E+01 -0.11659355097E+02  0.11804851604E+02  0.51100000000E-03 0.  1.
         12    1    3    3    0    0 -0.16814533920E+02 -0.98551783149E+01 -0.20663969340E+01  0.19599058316E+02  0.00000000000E+00 0. -1.
</event>
<event>
 7    1  0.2584640E-011  0.5052886E+02  0.7816164E-02  0.1300439E+00
        -11   -1    0    0    0    0  0.00000000000E+00  0.00000000000E+00  0.45593999997E+02  0.45594000000E+02  0.51100000000E-03 0.  1.
         11   -1    0    0    0    0 -0.00000000000E+00 -0.00000000000E+00 -0.45593999997E+02  0.45594000000E+02  0.51100000000E-03 0. -1.
    9900012    2    1    2    0    0 -0.15759482467E+02  0.12462933438E+02 -0.35347983322E+02  0.50528856841E+02  0.29999990854E+02 0.  0.
        -12    1    1    2    0    0  0.15759482467E+02 -0.12462933438E+02  0.35347983322E+02  0.40659143159E+02  0.00000000000E+00 0.  1.
         11    1    3    3    0    0  0.34589358090E+00  0.25586927529E+01 -0.17353480666E+02  0.17544510323E+02  0.51100000000E-03 0. -1.
        -11    1    3    3    0    0 -0.39496750895E+01  0.14162988200E+02 -0.85058471275E+01  0.16986453535E+02  0.51100000000E-03 0.  1.
        -12    1    3    3    0    0 -0.12155700959E+02 -0.42587475151E+01 -0.94886555278E+01  0.15997892984E+02  0.00000000000E+00 0.  1.
</event>
<event>
 7    1  0.2584640E-011  0.5052887E+02  0.7816164E-02  0.1300439E+00
        -11   -1    0    0    0    0  0.00000000000E+00  0.00000000000E+00  0.45593999997E+02  0.45594000000E+02  0.51100000000E-03 0.  1.
         11   -1    0    0    0    0 -0.00000000000E+00 -0.00000000000E+00 -0.45593999997E+02  0.45594000000E+02  0.51100000000E-03 0. -1.
    9900012    2    1    2    0    0  0.38132275840E+01 -0.36916459090E+02  0.16607195410E+02  0.50528873155E+02  0.30000040443E+02 0.  0.
        -12    1    1    2    0    0 -0.38132275840E+01  0.36916459090E+02 -0.16607195410E+02  0.40659126845E+02  0.00000000000E+00 0.  1.
         11    1    3    3    0    0  0.36114758662E+01 -0.18908886596E+00  0.12083394500E+01  0.38129512217E+01  0.51100000000E-03 0. -1.
        -11    1    3    3    0    0  0.89727620545E+01 -0.27167495402E+02  0.29960340055E+01  0.28767333650E+02  0.51100000000E-03 0.  1.
        -12    1    3    3    0    0 -0.87710103367E+01 -0.95598748225E+01  0.12402821955E+02  0.17948588284E+02  0.00000000000E+00 0.  1.
</event>
<event>
 7    1  0.2584640E-011  0.5052885E+02  0.7816164E-02  0.1300439E+00
        -11   -1    0    0    0    0  0.00000000000E+00  0.00000000000E+00  0.45593999997E+02  0.45594000000E+02  0.51100000000E-03 0.  1.
         11   -1    0    0    0    0 -0.00000000000E+00 -0.00000000000E+00 -0.45593999997E+02  0.45594000000E+02  0.51100000000E-03 0. -1.
    9900012    2    1    2    0    0 -0.26431771286E+02  0.21639251079E+02 -0.22051552099E+02  0.50528847641E+02  0.29999962890E+02 0.  0.
        -12    1    1    2    0    0  0.26431771286E+02 -0.21639251079E+02  0.22051552099E+02  0.40659152359E+02  0.00000000000E+00 0.  1.
         11    1    3    3    0    0 -0.13241411582E+02  0.13665641410E+02 -0.21650547954E+02  0.28824138544E+02  0.51100000000E-03 0. -1.
        -11    1    3    3    0    0  0.34220906896E+01  0.21645174067E+01 -0.66765437703E+00  0.41038522049E+01  0.51100000000E-03 0.  1.
         12    1    3    3    0    0 -0.16612450394E+02  0.58090922616E+01  0.26665023236E+00  0.17600856892E+02  0.00000000000E+00 0. -1.
</event>
<event>
 7    1  0.2584640E-011  0.5052887E+02  0.7816164E-02  0.1300439E+00
        -11   -1    0    0    0    0  0.00000000000E+00  0.00000000000E+00  0.45593999997E+02  0.45594000000E+02  0.51100000000E-03 0. -1.
         11   -1    0    0    0    0 -0.00000000000E+00 -0.00000000000E+00 -0.45593999997E+02  0.45594000000E+02  0.51100000000E-03 0.  1.
    9900012    2    1    2    0    0  0.12491042843E+02 -0.30786653818E+02  0.23437590294E+02  0.50528870110E+02  0.30000031186E+02 0.  0.
        -12    1    1    2    0    0 -0.12491042843E+02  0.30786653818E+02 -0.23437590294E+02  0.40659129890E+02  0.00000000000E+00 0.  1.
         11    1    3    3    0    0  0.40833530691E+01 -0.15464992082E+02  0.79667915152E+01  0.17869233886E+02  0.51100000000E-03 0. -1.
        -11    1    3    3    0    0 -0.34994597510E+01 -0.65611797420E+01 -0.38169837832E+01  0.83585084565E+01  0.51100000000E-03 0.  1.
         12    1    3    3    0    0  0.11907149525E+02 -0.87604819948E+01  0.19287782562E+02  0.24301127767E+02  0.00000000000E+00 0. -1.
</event>
<event>
 7    1  0.2584640E-011  0.5052888E+02  0.7816164E-02  0.1300439E+00
        -11   -1    0    0    0    0  0.00000000000E+00  0.00000000000E+00  0.45593999997E+02  0.45594000000E+02  0.51100000000E-03 0.  1.
         11   -1    0    0    0    0 -0.00000000000E+00 -0.00000000000E+00 -0.45593999997E+02  0.45594000000E+02  0.51100000000E-03 0. -1.
    9900012    2    1    2    0    0  0.37600980382E+02 -0.89368225670E+01 -0.12627898467E+02  0.50528876264E+02  0.30000049892E+02 0.  0.
        -12    1    1    2    0    0 -0.37600980382E+02  0.89368225670E+01  0.12627898467E+02  0.40659123736E+02  0.00000000000E+00 0.  1.
         11    1    3    3    0    0  0.68859789378E+01 -0.57720200864E+01 -0.11889935772E+02  0.14903137077E+02  0.51100000000E-03 0. -1.
        -11    1    3    3    0    0  0.10343134422E+02  0.52620374643E+01 -0.58485167562E+01  0.12995176662E+02  0.51100000000E-03 0.  1.
         12    1    3    3    0    0  0.20371867022E+02 -0.84268399449E+01  0.51105540612E+01  0.22630562525E+02  0.00000000000E+00 0. -1.
</event>
<event>
 7    1  0.2584640E-011  0.5052886E+02  0.7816164E-02  0.1300439E+00
        -11   -1    0    0    0    0  0.00000000000E+00  0.00000000000E+00  0.45593999997E+02  0.45594000000E+02  0.51100000000E-03 0.  1.
         11   -1    0    0    0    0 -0.00000000000E+00 -0.00000000000E+00 -0.45593999997E+02  0.45594000000E+02  0.51100000000E-03 0. -1.
    9900012    2    1    2    0    0 -0.15887085450E+02  0.35985383169E+01 -0.37253408182E+02  0.50528863472E+02  0.30000011008E+02 0.  0.
        -12    1    1    2    0    0  0.15887085450E+02 -0.35985383169E+01  0.37253408182E+02  0.40659136528E+02  0.00000000000E+00 0.  1.
         11    1    3    3    0    0 -0.61396827091E+01  0.29453812438E+01 -0.73863368464E+01  0.10046339966E+02  0.51100000000E-03 0. -1.
        -11    1    3    3    0    0  0.36165050396E+01  0.92532754310E+01 -0.18312994331E+02  0.20834298081E+02  0.51100000000E-03 0.  1.
        -12    1    3    3    0    0 -0.13363907780E+02 -0.86001183579E+01 -0.11554077004E+02  0.19648225425E+02  0.00000000000E+00 0.  1.
</event>
<event>
 7    1  0.2584640E-011  0.5052886E+02  0.7816164E-02  0.1300439E+00
        -11   -1    0    0    0    0  0.00000000000E+00  0.00000000000E+00  0.45593999997E+02  0.45594000000E+02  0.51100000000E-03 0.  1.
         11   -1    0    0    0    0 -0.00000000000E+00 -0.00000000000E+00 -0.45593999997E+02  0.45594000000E+02  0.51100000000E-03 0. -1.
    9900012    2    1    2    0    0 -0.10428106041E+02 -0.47946733379E+01 -0.39005528852E+02  0.50528861186E+02  0.30000004061E+02 0.  0.
        -12    1    1    2    0    0  0.10428106041E+02  0.47946733379E+01  0.39005528852E+02  0.40659138814E+02  0.00000000000E+00 0.  1.
         11    1    3    3    0    0 -0.84770550968E+01  0.53793960219E+01 -0.22194647848E+02  0.24359818514E+02  0.51100000000E-03 0. -1.
        -11    1    3    3    0    0 -0.91041150309E+01 -0.81725433852E+01 -0.78770914596E+01  0.14550736957E+02  0.51100000000E-03 0.  1.
        -12    1    3    3    0    0  0.71530640865E+01 -0.20015259746E+01 -0.89337895449E+01  0.11618305715E+02  0.00000000000E+00 0.  1.
</event>
<event>
 7    1  0.2584640E-011  0.5052886E+02  0.7816164E-02  0.1300439E+00
        -11   -1    0    0    0    0  0.00000000000E+00  0.00000000000E+00  0.45593999997E+02  0.45594000000E+02  0.51100000000E-03 0.  1.
         11   -1    0    0    0    0 -0.00000000000E+00 -0.00000000000E+00 -0.45593999997E+02  0.45594000000E+02  0.51100000000E-03 0. -1.
    9900012    2    1    2    0    0  0.14696546321E+02 -0.75230791962E+01 -0.37156165040E+02  0.50528858410E+02  0.29999995622E+02 0.  0.
        -12    1    1    2    0    0 -0.14696546321E+02  0.75230791962E+01  0.37156165040E+02  0.40659141590E+02  0.00000000000E+00 0.  1.
         11    1    3    3    0    0 -0.25379037593E+01  0.45765109305E+01 -0.14309209102E+02  0.15236104265E+02  0.51100000000E-03 0. -1.
        -11    1    3    3    0    0  0.16604358245E+02 -0.31144646583E+01 -0.19202554882E+02  0.25576213893E+02  0.51100000000E-03 0.  1.
        -12    1    3    3    0    0  0.63009183555E+00 -0.89851254684E+01 -0.36444010565E+01  0.97165402518E+01  0.00000000000E+00 0.  1.
</event>
<event>
 7    1  0.2584640E-011  0.5052886E+02  0.7816164E-02  0.1300439E+00
        -11   -1    0    0    0    0  0.00000000000E+00  0.00000000000E+00  0.45593999997E+02  0.45594000000E+02  0.51100000000E-03 0.  1.
         11   -1    0    0    0    0 -0.00000000000E+00 -0.00000000000E+00 -0.45593999997E+02  0.45594000000E+02  0.51100000000E-03 0. -1.
    9900012    2    1    2    0    0  0.58041118321E+01 -0.18285278094E+02 -0.35848662370E+02  0.50528859541E+02  0.29999999061E+02 0.  0.
        -12    1    1    2    0    0 -0.58041118321E+01  0.18285278094E+02  0.35848662370E+02  0.40659140459E+02  0.00000000000E+00 0.  1.
         11    1    3    3    0    0  0.13513181279E+02 -0.10019614243E+02 -0.16770149143E+02  0.23753665830E+02  0.51100000000E-03 0. -1.
        -11    1    3    3    0    0 -0.46803047583E+01 -0.12534515028E+02 -0.12007776113E+02  0.17977931112E+02  0.51100000000E-03 0.  1.
         12    1    3    3    0    0 -0.30287646885E+01  0.42688511763E+01 -0.70707371143E+01  0.87972625995E+01  0.00000000000E+00 0. -1.
</event>
<event>
 7    1  0.2584640E-011  0.5052886E+02  0.7816164E-02  0.1300439E+00
        -11   -1    0    0    0    0  0.00000000000E+00  0.00000000000E+00  0.45593999997E+02  0.45594000000E+02  0.51100000000E-03 0.  1.
         11   -1    0    0    0    0 -0.00000000000E+00 -0.00000000000E+00 -0.45593999997E+02  0.45594000000E+02  0.51100000000E-03 0. -1.
    9900012    2    1    2    0    0 -0.15198220206E+02  0.10926728045E+02 -0.36094132764E+02  0.50528859537E+02  0.29999999048E+02 0.  0.
        -12    1    1    2    0    0  0.15198220206E+02 -0.10926728045E+02  0.36094132764E+02  0.40659140463E+02  0.00000000000E+00 0.  1.
         11    1    3    3    0    0  0.43940372104E+01  0.21365059285E+01 -0.10828937201E+01  0.50044859535E+01  0.51100000000E-03 0.  1.
        -11    1    3    3    0    0 -0.11080284743E+02  0.13552006452E+02 -0.29550928788E+02  0.34346571610E+02  0.51100000000E-03 0. -1.
         12    1    3    3    0    0 -0.85119726739E+01 -0.47617843362E+01 -0.54603102560E+01  0.11177801973E+02  0.00000000000E+00 0. -1.
</event>
<event>
 7    1  0.2584640E-011  0.5052888E+02  0.7816164E-02  0.1300439E+00
        -11   -1    0    0    0    0  0.00000000000E+00  0.00000000000E+00  0.45593999997E+02  0.45594000000E+02  0.51100000000E-03 0. -1.
         11   -1    0    0    0    0 -0.00000000000E+00 -0.00000000000E+00 -0.45593999997E+02  0.45594000000E+02  0.51100000000E-03 0.  1.
    9900012    2    1    2    0    0  0.92123793277E+01 -0.10621853837E+02  0.38150655845E+02  0.50528877368E+02  0.30000053248E+02 0.  0.
        -12    1    1    2    0    0 -0.92123793277E+01  0.10621853837E+02 -0.38150655845E+02  0.40659122632E+02  0.00000000000E+00 0.  1.
         11    1    3    3    0    0  0.60800284960E+01 -0.11220601392E+02  0.17658691636E+02  0.21787566011E+02  0.51100000000E-03 0. -1.
        -11    1    3    3    0    0 -0.59972125267E+01 -0.60364037493E+01  0.11529662551E+02  0.14329614339E+02  0.51100000000E-03 0.  1.
        -12    1    3    3    0    0  0.91295633585E+01  0.66351513043E+01  0.89623016577E+01  0.14411697018E+02  0.00000000000E+00 0.  1.
</event>
<event>
 7    1  0.2584640E-011  0.5052888E+02  0.7816164E-02  0.1300439E+00
        -11   -1    0    0    0    0  0.00000000000E+00  0.00000000000E+00  0.45593999997E+02  0.45594000000E+02  0.51100000000E-03 0.  1.
         11   -1    0    0    0    0 -0.00000000000E+00 -0.00000000000E+00 -0.45593999997E+02  0.45594000000E+02  0.51100000000E-03 0. -1.
    9900012    2    1    2    0    0  0.11628403177E+02 -0.37955647105E+02 -0.87928002364E+01  0.50528877486E+02  0.30000053607E+02 0.  0.
        -12    1    1    2    0    0 -0.11628403177E+02  0.37955647105E+02  0.87928002364E+01  0.40659122514E+02  0.00000000000E+00 0.  1.
         11    1    3    3    0    0 -0.63970924202E+01 -0.81721325961E+01  0.10434962527E+01  0.10430504652E+02  0.51100000000E-03 0. -1.
        -11    1    3    3    0    0  0.33568794941E+01 -0.16868642306E+02  0.18957433613E+01  0.17303571202E+02  0.51100000000E-03 0.  1.
        -12    1    3    3    0    0  0.14668616104E+02 -0.12914872203E+02 -0.11732039850E+02  0.22794801633E+02  0.00000000000E+00 0.  1.
</event>
<event>
 7    1  0.2584640E-011  0.5052886E+02  0.7816164E-02  0.1300439E+00
        -11   -1    0    0    0    0  0.00000000000E+00  0.00000000000E+00  0.45593999997E+02  0.45594000000E+02  0.51100000000E-03 0. -1.
         11   -1    0    0    0    0 -0.00000000000E+00 -0.00000000000E+00 -0.45593999997E+02  0.45594000000E+02  0.51100000000E-03 0.  1.
    9900012    2    1    2    0    0 -0.28010883658E+02  0.29463713196E+02  0.66784169493E+00  0.50528855750E+02  0.29999987536E+02 0.  0.
        -12    1    1    2    0    0  0.28010883658E+02 -0.29463713196E+02 -0.66784169493E+00  0.40659144250E+02  0.00000000000E+00 0.  1.
         11    1    3    3    0    0 -0.14638605659E+02  0.10861162533E+02  0.11078512344E+02  0.21330425763E+02  0.51100000000E-03 0. -1.
        -11    1    3    3    0    0 -0.43283232385E+01 -0.98648848228E+00  0.13308280864E+01  0.46345059326E+01  0.51100000000E-03 0.  1.
         12    1    3    3    0    0 -0.90439547606E+01  0.19589039146E+02 -0.11741498736E+02  0.24563924054E+02  0.00000000000E+00 0. -1.
</event>
<event>
 7    1  0.2584640E-011  0.5052886E+02  0.7816164E-02  0.1300439E+00
        -11   -1    0    0    0    0  0.00000000000E+00  0.00000000000E+00  0.45593999997E+02  0.45594000000E+02  0.51100000000E-03 0. -1.
         11   -1    0    0    0    0 -0.00000000000E+00 -0.00000000000E+00 -0.45593999997E+02  0.45594000000E+02  0.51100000000E-03 0.  1.
    9900012    2    1    2    0    0 -0.13212616143E+02 -0.33799852262E+02  0.18334735375E+02  0.50528858844E+02  0.29999996943E+02 0.  0.
        -12    1    1    2    0    0  0.13212616143E+02  0.33799852262E+02 -0.18334735375E+02  0.40659141156E+02  0.00000000000E+00 0.  1.
         11    1    3    3    0    0  0.19295721851E+01 -0.10179491285E+00  0.50695692140E-01  0.19329204164E+01  0.51100000000E-03 0. -1.
        -11    1    3    3    0    0 -0.18554277131E+02 -0.13001275467E+02  0.34796647569E+01  0.22921658550E+02  0.51100000000E-03 0.  1.
         12    1    3    3    0    0  0.34120888027E+01 -0.20696781882E+02  0.14804374926E+02  0.25674279878E+02  0.00000000000E+00 0. -1.
</event>
<event>
 7    1  0.2584640E-011  0.5052889E+02  0.7816164E-02  0.1300439E+00
        -11   -1    0    0    0    0  0.00000000000E+00  0.00000000000E+00  0.45593999997E+02  0.45594000000E+02  0.51100000000E-03 0.  1.
         11   -1    0    0    0    0 -0.00000000000E+00 -0.00000000000E+00 -0.45593999997E+02  0.45594000000E+02  0.51100000000E-03 0. -1.
    9900012    2    1    2    0    0  0.81215379213E+01  0.32543817432E+02 -0.22980516104E+02  0.50528885995E+02  0.30000079470E+02 0.  0.
        -12    1    1    2    0    0 -0.81215379213E+01 -0.32543817432E+02  0.22980516104E+02  0.40659114005E+02  0.00000000000E+00 0.  1.
         11    1    3    3    0    0 -0.80719689667E+00  0.33407657649E+01 -0.13523482468E+02  0.13953381707E+02  0.51100000000E-03 0. -1.
        -11    1    3    3    0    0  0.75797294786E+01  0.25590024976E+02 -0.14384218812E+02  0.30318433804E+02  0.51100000000E-03 0.  1.
        -12    1    3    3    0    0  0.13490053394E+01  0.36130266918E+01  0.49271851766E+01  0.62570704844E+01  0.00000000000E+00 0.  1.
</event>
<event>
 7    1  0.2584640E-011  0.5052886E+02  0.7816164E-02  0.1300439E+00
        -11   -1    0    0    0    0  0.00000000000E+00  0.00000000000E+00  0.45593999997E+02  0.45594000000E+02  0.51100000000E-03 0.  1.
         11   -1    0    0    0    0 -0.00000000000E+00 -0.00000000000E+00 -0.45593999997E+02  0.45594000000E+02  0.51100000000E-03 0. -1.
    9900012    2    1    2    0    0  0.25263145885E+01 -0.17800535982E+02 -0.36468128045E+02  0.50528859456E+02  0.29999998802E+02 0.  0.
        -12    1    1    2    0    0 -0.25263145885E+01  0.17800535982E+02  0.36468128045E+02  0.40659140544E+02  0.00000000000E+00 0.  1.
         11    1    3    3    0    0  0.20351241906E+01 -0.13304546937E+02 -0.21557028608E+02  0.25413740031E+02  0.51100000000E-03 0. -1.
        -11    1    3    3    0    0 -0.43220360941E+01 -0.80013675523E+01 -0.37730803825E-01  0.90941356148E+01  0.51100000000E-03 0.  1.
        -12    1    3    3    0    0  0.48132264920E+01  0.35053785070E+01 -0.14873368634E+02  0.16020983810E+02  0.00000000000E+00 0.  1.
</event>
<event>
 7    1  0.2584640E-011  0.5052890E+02  0.7816164E-02  0.1300439E+00
        -11   -1    0    0    0    0  0.00000000000E+00  0.00000000000E+00  0.45593999997E+02  0.45594000000E+02  0.51100000000E-03 0.  1.
         11   -1    0    0    0    0 -0.00000000000E+00 -0.00000000000E+00 -0.45593999997E+02  0.45594000000E+02  0.51100000000E-03 0. -1.
    9900012    2    1    2    0    0  0.13697851954E+02 -0.28491121504E+02 -0.25569266622E+02  0.50528898334E+02  0.30000116976E+02 0.  0.
        -12    1    1    2    0    0 -0.13697851954E+02  0.28491121504E+02  0.25569266622E+02  0.40659101666E+02  0.00000000000E+00 0.  1.
         11    1    3    3    0    0  0.16782092861E+02 -0.27411396619E+02 -0.24837093543E+02  0.40619016745E+02  0.51100000000E-03 0. -1.
        -11    1    3    3    0    0  0.39076942458E+00 -0.47597277214E+01  0.11979590551E+00  0.47772439801E+01  0.51100000000E-03 0.  1.
        -12    1    3    3    0    0 -0.34750103310E+01  0.36800028365E+01 -0.85196898448E+00  0.51326376093E+01  0.00000000000E+00 0.  1.
</event>
<event>
 7    1  0.2584640E-011  0.5052886E+02  0.7816164E-02  0.1300439E+00
        -11   -1    0    0    0    0  0.00000000000E+00  0.00000000000E+00  0.45593999997E+02  0.45594000000E+02  0.51100000000E-03 0.  1.
         11   -1    0    0    0    0 -0.00000000000E+00 -0.00000000000E+00 -0.45593999997E+02  0.45594000000E+02  0.51100000000E-03 0. -1.
    9900012    2    1    2    0    0 -0.28889659806E+02 -0.15726265184E+02 -0.23900585734E+02  0.50528857624E+02  0.29999993232E+02 0.  0.
        -12    1    1    2    0    0  0.28889659806E+02  0.15726265184E+02  0.23900585734E+02  0.40659142376E+02  0.00000000000E+00 0.  1.
         11    1    3    3    0    0 -0.62825732470E+00 -0.25094785618E+01 -0.48128912105E+01  0.54640746686E+01  0.51100000000E-03 0. -1.
        -11    1    3    3    0    0 -0.24784002352E+02 -0.15299093595E+02 -0.39482217028E+01  0.29392133170E+02  0.51100000000E-03 0.  1.
         12    1    3    3    0    0 -0.34774001296E+01  0.20823069729E+01 -0.15139472821E+02  0.15672649785E+02  0.00000000000E+00 0. -1.
</event>
<event>
 7    1  0.3156106E-011  0.5052886E+02  0.7816164E-02  0.1300439E+00
        -11   -1    0    0    0    0  0.00000000000E+00  0.00000000000E+00  0.45593999997E+02  0.45594000000E+02  0.51100000000E-03 0. -1.
         11   -1    0    0    0    0 -0.00000000000E+00 -0.00000000000E+00 -0.45593999997E+02  0.45594000000E+02  0.51100000000E-03 0.  1.
    9900012    2    1    2    0    0  0.23228781050E+01 -0.45590951204E+01  0.40335897772E+02  0.50528858838E+02  0.29999996923E+02 0.  0.
        -12    1    1    2    0    0 -0.23228781050E+01  0.45590951204E+01 -0.40335897772E+02  0.40659141162E+02  0.00000000000E+00 0.  1.
         11    1    3    3    0    0  0.25301161544E+01 -0.88412896085E+01  0.25660637589E+02  0.27258727252E+02  0.51100000000E-03 0. -1.
        -11    1    3    3    0    0 -0.64847516581E+01  0.54778371637E+01  0.14589324157E+02  0.16879190847E+02  0.51100000000E-03 0.  1.
        -12    1    3    3    0    0  0.62775136086E+01 -0.11956426755E+01  0.85936026452E-01  0.63909407378E+01  0.00000000000E+00 0.  1.
</event>
<event>
 7    1  0.2584640E-011  0.5052886E+02  0.7816164E-02  0.1300439E+00
        -11   -1    0    0    0    0  0.00000000000E+00  0.00000000000E+00  0.45593999997E+02  0.45594000000E+02  0.51100000000E-03 0.  1.
         11   -1    0    0    0    0 -0.00000000000E+00 -0.00000000000E+00 -0.45593999997E+02  0.45594000000E+02  0.51100000000E-03 0. -1.
    9900012    2    1    2    0    0 -0.29625969860E+02  0.26892683112E+02  0.72285153017E+01  0.50528856765E+02  0.29999990623E+02 0.  0.
        -12    1    1    2    0    0  0.29625969860E+02 -0.26892683112E+02 -0.72285153017E+01  0.40659143235E+02  0.00000000000E+00 0.  1.
         11    1    3    3    0    0  0.37223510446E+01 -0.16553020603E+01  0.31081441190E+00  0.40856490390E+01  0.51100000000E-03 0. -1.
        -11    1    3    3    0    0 -0.46786493461E+01  0.11446253303E+02  0.36913179917E+01  0.12904739561E+02  0.51100000000E-03 0.  1.
         12    1    3    3    0    0 -0.28669671559E+02  0.17101731870E+02  0.32263828980E+01  0.33538468165E+02  0.00000000000E+00 0. -1.
</event>
<event>
 7    1  0.2584640E-011  0.5052886E+02  0.7816164E-02  0.1300439E+00
        -11   -1    0    0    0    0  0.00000000000E+00  0.00000000000E+00  0.45593999997E+02  0.45594000000E+02  0.51100000000E-03 0. -1.
         11   -1    0    0    0    0 -0.00000000000E+00 -0.00000000000E+00 -0.45593999997E+02  0.45594000000E+02  0.51100000000E-03 0.  1.
    9900012    2    1    2    0    0  0.88413751612E+01 -0.22135800549E+02  0.32939369416E+02  0.50528860336E+02  0.30000001478E+02 0.  0.
        -12    1    1    2    0    0 -0.88413751612E+01  0.22135800549E+02 -0.32939369416E+02  0.40659139664E+02  0.00000000000E+00 0.  1.
         11    1    3    3    0    0  0.48652499799E+01 -0.25666913793E+02  0.13777225433E+02  0.29534269280E+02  0.51100000000E-03 0. -1.
        -11    1    3    3    0    0  0.29451995793E+01 -0.15847950233E+01  0.68875824503E+01  0.76566682113E+01  0.51100000000E-03 0.  1.
         12    1    3    3    0    0  0.10309256020E+01  0.51159082673E+01  0.12274561533E+02  0.13337922845E+02  0.00000000000E+00 0. -1.
</event>
<event>
 7    1  0.2584640E-011  0.5052886E+02  0.7816164E-02  0.1300439E+00
        -11   -1    0    0    0    0  0.00000000000E+00  0.00000000000E+00  0.45593999997E+02  0.45594000000E+02  0.51100000000E-03 0.  1.
         11   -1    0    0    0    0 -0.00000000000E+00 -0.00000000000E+00 -0.45593999997E+02  0.45594000000E+02  0.51100000000E-03 0. -1.
    9900012    2    1    2    0    0  0.33498251516E+02 -0.22601835137E+02 -0.44932982643E+01  0.50528861599E+02  0.30000005317E+02 0.  0.
        -12    1    1    2    0    0 -0.33498251516E+02  0.22601835137E+02  0.44932982643E+01  0.40659138401E+02  0.00000000000E+00 0.  1.
         11    1    3    3    0    0  0.11024338971E+02 -0.72297562003E+01 -0.98357869316E+01  0.16448347312E+02  0.51100000000E-03 0. -1.
        -11    1    3    3    0    0  0.36557376859E+01 -0.14312692378E+02  0.15341019824E+01  0.14851634600E+02  0.51100000000E-03 0.  1.
         12    1    3    3    0    0  0.18818174859E+02 -0.10593865593E+01  0.38083866850E+01  0.19228879688E+02  0.00000000000E+00 0. -1.
</event>
<event>
 7    1  0.2584640E-011  0.5052886E+02  0.7816164E-02  0.1300439E+00
        -11   -1    0    0    0    0  0.00000000000E+00  0.00000000000E+00  0.45593999997E+02  0.45594000000E+02  0.51100000000E-03 0.  1.
         11   -1    0    0    0    0 -0.00000000000E+00 -0.00000000000E+00 -0.45593999997E+02  0.45594000000E+02  0.51100000000E-03 0. -1.
    9900012    2    1    2    0    0  0.39903735480E+02 -0.26940160186E+01  0.73211976087E+01  0.50528858814E+02  0.29999996851E+02 0.  0.
        -12    1    1    2    0    0 -0.39903735480E+02  0.26940160186E+01 -0.73211976087E+01  0.40659141186E+02  0.00000000000E+00 0.  1.
         11    1    3    3    0    0  0.23701904108E+01 -0.52079049495E+01 -0.65190858930E+00  0.57589114958E+01  0.51100000000E-03 0. -1.
        -11    1    3    3    0    0  0.13148953811E+02  0.43022261356E+01 -0.75966626336E+01  0.15783327262E+02  0.51100000000E-03 0.  1.
        -12    1    3    3    0    0  0.24384591259E+02 -0.17883372047E+01  0.15569768832E+02  0.28986620056E+02  0.00000000000E+00 0.  1.
</event>
<event>
 7    1  0.2584640E-011  0.5052887E+02  0.7816164E-02  0.1300439E+00
        -11   -1    0    0    0    0  0.00000000000E+00  0.00000000000E+00  0.45593999997E+02  0.45594000000E+02  0.51100000000E-03 0.  1.
         11   -1    0    0    0    0 -0.00000000000E+00 -0.00000000000E+00 -0.45593999997E+02  0.45594000000E+02  0.51100000000E-03 0. -1.
    9900012    2    1    2    0    0  0.26583431451E+02 -0.26575530056E+02 -0.15499278312E+02  0.50528865065E+02  0.30000015852E+02 0.  0.
        -12    1    1    2    0    0 -0.26583431451E+02  0.26575530056E+02  0.15499278312E+02  0.40659134935E+02  0.00000000000E+00 0.  1.
         11    1    3    3    0    0 -0.31033153028E+01 -0.24688071894E+01  0.34669083978E+01  0.52673550200E+01  0.51100000000E-03 0. -1.
        -11    1    3    3    0    0  0.49979862581E+01  0.16900351497E+01 -0.36065634953E+01  0.63908830336E+01  0.51100000000E-03 0.  1.
         12    1    3    3    0    0  0.24688760495E+02 -0.25796758017E+02 -0.15359623215E+02  0.38870627011E+02  0.00000000000E+00 0. -1.
</event>
<event>
 7    1  0.2584640E-011  0.5052886E+02  0.7816164E-02  0.1300439E+00
        -11   -1    0    0    0    0  0.00000000000E+00  0.00000000000E+00  0.45593999997E+02  0.45594000000E+02  0.51100000000E-03 0.  1.
         11   -1    0    0    0    0 -0.00000000000E+00 -0.00000000000E+00 -0.45593999997E+02  0.45594000000E+02  0.51100000000E-03 0. -1.
    9900012    2    1    2    0    0 -0.22384398485E+02 -0.23204835066E+02 -0.24771758791E+02  0.50528859581E+02  0.29999999184E+02 0.  0.
        -12    1    1    2    0    0  0.22384398485E+02  0.23204835066E+02  0.24771758791E+02  0.40659140419E+02  0.00000000000E+00 0.  1.
         11    1    3    3    0    0  0.32663317407E+01 -0.24682552239E+01 -0.54504099928E+01  0.68167570179E+01  0.51100000000E-03 0.  1.
        -11    1    3    3    0    0 -0.15878251651E+02 -0.23170984794E+02 -0.18442569665E+02  0.33602705068E+02  0.51100000000E-03 0. -1.
        -12    1    3    3    0    0 -0.97724785746E+01  0.24344049510E+01 -0.87877913314E+00  0.10109397495E+02  0.00000000000E+00 0.  1.
</event>
<event>
 7    1  0.2584640E-011  0.5052888E+02  0.7816164E-02  0.1300439E+00
        -11   -1    0    0    0    0  0.00000000000E+00  0.00000000000E+00  0.45593999997E+02  0.45594000000E+02  0.51100000000E-03 0.  1.
         11   -1    0    0    0    0 -0.00000000000E+00 -0.00000000000E+00 -0.45593999997E+02  0.45594000000E+02  0.51100000000E-03 0. -1.
    9900012    2    1    2    0    0 -0.10578330272E+02  0.18891309799E+02 -0.34414845757E+02  0.50528877214E+02  0.30000052779E+02 0.  0.
        -12    1    1    2    0    0  0.10578330272E+02 -0.18891309799E+02  0.34414845757E+02  0.40659122786E+02  0.00000000000E+00 0.  1.
         11    1    3    3    0    0 -0.24016502877E+01  0.31773302719E+01 -0.85922950431E+01  0.94705272361E+01  0.51100000000E-03 0. -1.
        -11    1    3    3    0    0  0.91034529887E+01  0.16279502483E+01 -0.48159227530E+01  0.10426705642E+02  0.51100000000E-03 0.  1.
        -12    1    3    3    0    0 -0.17280132973E+02  0.14086029279E+02 -0.21006627961E+02  0.30631644335E+02  0.00000000000E+00 0.  1.
</event>
<event>
 7    1  0.2584640E-011  0.5052882E+02  0.7816164E-02  0.1300439E+00
        -11   -1    0    0    0    0  0.00000000000E+00  0.00000000000E+00  0.45593999997E+02  0.45594000000E+02  0.51100000000E-03 0.  1.
         11   -1    0    0    0    0 -0.00000000000E+00 -0.00000000000E+00 -0.45593999997E+02  0.45594000000E+02  0.51100000000E-03 0. -1.
    9900012    2    1    2    0    0 -0.11501968168E+01  0.64231942279E+01 -0.40132133491E+02  0.50528824955E+02  0.29999893934E+02 0.  0.
        -12    1    1    2    0    0  0.11501968168E+01 -0.64231942279E+01  0.40132133491E+02  0.40659175045E+02  0.00000000000E+00 0.  1.
         11    1    3    3    0    0 -0.26495516402E+01  0.66353357445E+01 -0.17177758299E+02  0.18604386171E+02  0.51100000000E-03 0. -1.
        -11    1    3    3    0    0 -0.88409938395E+01  0.47494639941E+01 -0.68395603537E+01  0.12144964652E+02  0.51100000000E-03 0.  1.
         12    1    3    3    0    0  0.10340348663E+02 -0.49616055107E+01 -0.16114814838E+02  0.19779474133E+02  0.00000000000E+00 0. -1.
</event>
<event>
 7    1  0.2584640E-011  0.5052886E+02  0.7816164E-02  0.1300439E+00
        -11   -1    0    0    0    0  0.00000000000E+00  0.00000000000E+00  0.45593999997E+02  0.45594000000E+02  0.51100000000E-03 0.  1.
         11   -1    0    0    0    0 -0.00000000000E+00 -0.00000000000E+00 -0.45593999997E+02  0.45594000000E+02  0.51100000000E-03 0. -1.
    9900012    2    1    2    0    0 -0.10879177697E+02  0.25671281179E+02 -0.29593818939E+02  0.50528864444E+02  0.30000013965E+02 0.  0.
        -12    1    1    2    0    0  0.10879177697E+02 -0.25671281179E+02  0.29593818939E+02  0.40659135556E+02  0.00000000000E+00 0.  1.
         11    1    3    3    0    0 -0.15473266219E+01  0.20914712756E+02 -0.15474483991E+02  0.26062983030E+02  0.51100000000E-03 0. -1.
        -11    1    3    3    0    0 -0.22947887359E+01  0.33986826136E+01  0.35337996424E+01  0.54133944087E+01  0.51100000000E-03 0.  1.
         12    1    3    3    0    0 -0.70370623388E+01  0.13578858089E+01 -0.17653134591E+02  0.19052487006E+02  0.00000000000E+00 0. -1.
</event>
<event>
 7    1  0.2584640E-011  0.5052886E+02  0.7816164E-02  0.1300439E+00
        -11   -1    0    0    0    0  0.00000000000E+00  0.00000000000E+00  0.45593999997E+02  0.45594000000E+02  0.51100000000E-03 0. -1.
         11   -1    0    0    0    0 -0.00000000000E+00 -0.00000000000E+00 -0.45593999997E+02  0.45594000000E+02  0.51100000000E-03 0.  1.
    9900012    2    1    2    0    0  0.38820254200E+02 -0.11693894762E+02 -0.30669143664E+01  0.50528864808E+02  0.30000015070E+02 0.  0.
        -12    1    1    2    0    0 -0.38820254200E+02  0.11693894762E+02  0.30669143664E+01  0.40659135192E+02  0.00000000000E+00 0.  1.
         11    1    3    3    0    0 -0.37082302695E+01  0.55389805181E+00 -0.14899923697E+01  0.40345820485E+01  0.51100000000E-03 0.  1.
        -11    1    3    3    0    0  0.17498109180E+02 -0.80514421293E+01  0.57083292861E+01  0.20089663231E+02  0.51100000000E-03 0. -1.
         12    1    3    3    0    0  0.25030375290E+02 -0.41963506841E+01 -0.72852512828E+01  0.26404619529E+02  0.00000000000E+00 0. -1.
</event>
<event>
 7    1  0.2584640E-011  0.5052885E+02  0.7816164E-02  0.1300439E+00
        -11   -1    0    0    0    0  0.00000000000E+00  0.00000000000E+00  0.45593999997E+02  0.45594000000E+02  0.51100000000E-03 0. -1.
         11   -1    0    0    0    0 -0.00000000000E+00 -0.00000000000E+00 -0.45593999997E+02  0.45594000000E+02  0.51100000000E-03 0.  1.
    9900012    2    1    2    0    0  0.18174917933E+02  0.97283816747E+01  0.35045644708E+02  0.50528852629E+02  0.29999978052E+02 0.  0.
        -12    1    1    2    0    0 -0.18174917933E+02 -0.97283816747E+01 -0.35045644708E+02  0.40659147371E+02  0.00000000000E+00 0.  1.
         11    1    3    3    0    0 -0.15996858733E+01  0.30993323615E+01  0.58472618868E+01  0.68084747055E+01  0.51100000000E-03 0. -1.
        -11    1    3    3    0    0  0.17965241479E+02 -0.66011926197E+01  0.18360641817E+02  0.26522420960E+02  0.51100000000E-03 0.  1.
        -12    1    3    3    0    0  0.18093623270E+01  0.13230241933E+02  0.10837741005E+02  0.17197956964E+02  0.00000000000E+00 0.  1.
</event>
<event>
 7    1  0.2584640E-011  0.5052892E+02  0.7816164E-02  0.1300439E+00
        -11   -1    0    0    0    0  0.00000000000E+00  0.00000000000E+00  0.45593999997E+02  0.45594000000E+02  0.51100000000E-03 0. -1.
         11   -1    0    0    0    0 -0.00000000000E+00 -0.00000000000E+00 -0.45593999997E+02  0.45594000000E+02  0.51100000000E-03 0.  1.
    9900012    2    1    2    0    0  0.88217875733E+01  0.10835087293E+02  0.38182955572E+02  0.50528915543E+02  0.30000169285E+02 0.  0.
        -12    1    1    2    0    0 -0.88217875733E+01 -0.10835087293E+02 -0.38182955572E+02  0.40659084457E+02  0.00000000000E+00 0.  1.
         11    1    3    3    0    0  0.11863873615E+02  0.58497986527E+01  0.96669434102E+01  0.16383572156E+02  0.51100000000E-03 0. -1.
        -11    1    3    3    0    0 -0.46502315214E+01 -0.32804233474E+01  0.15543714470E+01  0.58993136378E+01  0.51100000000E-03 0.  1.
         12    1    3    3    0    0  0.16081454794E+01  0.82657119882E+01  0.26961640715E+02  0.28246029749E+02  0.00000000000E+00 0. -1.
</event>
<event>
 7    1  0.2739329E-011  0.5052885E+02  0.7816164E-02  0.1300439E+00
        -11   -1    0    0    0    0  0.00000000000E+00  0.00000000000E+00  0.45593999997E+02  0.45594000000E+02  0.51100000000E-03 0. -1.
         11   -1    0    0    0    0 -0.00000000000E+00 -0.00000000000E+00 -0.45593999997E+02  0.45594000000E+02  0.51100000000E-03 0.  1.
    9900012    2    1    2    0    0 -0.38596541295E+02 -0.82498788236E+01  0.97679681081E+01  0.50528847260E+02  0.29999961733E+02 0.  0.
        -12    1    1    2    0    0  0.38596541295E+02  0.82498788236E+01 -0.97679681081E+01  0.40659152740E+02  0.00000000000E+00 0.  1.
         11    1    3    3    0    0 -0.18872091900E+02 -0.14676952143E+01  0.86207807190E+01  0.20799707748E+02  0.51100000000E-03 0. -1.
        -11    1    3    3    0    0 -0.23581197235E+02 -0.33882847923E+01 -0.16484176786E+01  0.23880339570E+02  0.51100000000E-03 0.  1.
        -12    1    3    3    0    0  0.38567478397E+01 -0.33938988171E+01  0.27956050677E+01  0.58487999431E+01  0.00000000000E+00 0.  1.
</event>
<event>
 7    1  0.2584640E-011  0.5052891E+02  0.7816164E-02  0.1300439E+00
        -11   -1    0    0    0    0  0.00000000000E+00  0.00000000000E+00  0.45593999997E+02  0.45594000000E+02  0.51100000000E-03 0. -1.
         11   -1    0    0    0    0 -0.00000000000E+00 -0.00000000000E+00 -0.45593999997E+02  0.45594000000E+02  0.51100000000E-03 0.  1.
    9900012    2    1    2    0    0  0.80643704290E+01 -0.25181945560E+00  0.39850519055E+02  0.50528913041E+02  0.30000161678E+02 0.  0.
        -12    1    1    2    0    0 -0.80643704290E+01  0.25181945560E+00 -0.39850519055E+02  0.40659086959E+02  0.00000000000E+00 0.  1.
         11    1    3    3    0    0  0.47820968624E+01 -0.11180070522E+01  0.64123414752E+01  0.80769123819E+01  0.51100000000E-03 0. -1.
        -11    1    3    3    0    0  0.47917145182E+01  0.12597040496E+02  0.23094358308E+02  0.26739396837E+02  0.51100000000E-03 0.  1.
        -12    1    3    3    0    0 -0.15094409516E+01 -0.11730852900E+02  0.10343819271E+02  0.15712603822E+02  0.00000000000E+00 0.  1.
</event>
<event>
 7    1  0.2584640E-011  0.5052886E+02  0.7816164E-02  0.1300439E+00
        -11   -1    0    0    0    0  0.00000000000E+00  0.00000000000E+00  0.45593999997E+02  0.45594000000E+02  0.51100000000E-03 0. -1.
         11   -1    0    0    0    0 -0.00000000000E+00 -0.00000000000E+00 -0.45593999997E+02  0.45594000000E+02  0.51100000000E-03 0.  1.
    9900012    2    1    2    0    0  0.84067973347E+00 -0.28880125966E+02  0.28607647348E+02  0.50528857055E+02  0.29999991503E+02 0.  0.
        -12    1    1    2    0    0 -0.84067973347E+00  0.28880125966E+02 -0.28607647348E+02  0.40659142945E+02  0.00000000000E+00 0.  1.
         11    1    3    3    0    0 -0.12664363154E+00 -0.44724301249E+01 -0.20518537788E+01  0.49222732576E+01  0.51100000000E-03 0. -1.
        -11    1    3    3    0    0 -0.87210908677E+01 -0.55317272001E+01  0.18405546761E+02  0.21105013233E+02  0.51100000000E-03 0.  1.
         12    1    3    3    0    0  0.96884142327E+01 -0.18875968641E+02  0.12253954367E+02  0.24501570564E+02  0.00000000000E+00 0. -1.
</event>
<event>
 7    1  0.2584640E-011  0.5052887E+02  0.7816164E-02  0.1300439E+00
        -11   -1    0    0    0    0  0.00000000000E+00  0.00000000000E+00  0.45593999997E+02  0.45594000000E+02  0.51100000000E-03 0.  1.
         11   -1    0    0    0    0 -0.00000000000E+00 -0.00000000000E+00 -0.45593999997E+02  0.45594000000E+02  0.51100000000E-03 0. -1.
    9900012    2    1    2    0    0  0.23484035749E+01  0.32669489522E+02 -0.24090542948E+02  0.50528870589E+02  0.30000032642E+02 0.  0.
        -12    1    1    2    0    0 -0.23484035749E+01 -0.32669489522E+02  0.24090542948E+02  0.40659129411E+02  0.00000000000E+00 0.  1.
         11    1    3    3    0    0  0.97865956574E+01  0.14806156704E+02 -0.10084484633E+02  0.20413146781E+02  0.51100000000E-03 0. -1.
        -11    1    3    3    0    0 -0.37271805933E-01  0.14561219494E+02 -0.75239397146E+00  0.14580692689E+02  0.51100000000E-03 0.  1.
        -12    1    3    3    0    0 -0.74009202766E+01  0.33021133233E+01 -0.13253664343E+02  0.15535031119E+02  0.00000000000E+00 0.  1.
</event>
<event>
 7    1  0.2584640E-011  0.5052885E+02  0.7816164E-02  0.1300439E+00
        -11   -1    0    0    0    0  0.00000000000E+00  0.00000000000E+00  0.45593999997E+02  0.45594000000E+02  0.51100000000E-03 0.  1.
         11   -1    0    0    0    0 -0.00000000000E+00 -0.00000000000E+00 -0.45593999997E+02  0.45594000000E+02  0.51100000000E-03 0. -1.
    9900012    2    1    2    0    0 -0.65647327734E+01 -0.14474767340E+01 -0.40099566494E+02  0.50528854186E+02  0.29999982784E+02 0.  0.
        -12    1    1    2    0    0  0.65647327734E+01  0.14474767340E+01  0.40099566494E+02  0.40659145814E+02  0.00000000000E+00 0.  1.
         11    1    3    3    0    0 -0.12562172179E+01 -0.91456173523E+01 -0.25152823118E+02  0.26793374359E+02  0.51100000000E-03 0. -1.
        -11    1    3    3    0    0 -0.81967493373E+01 -0.12185259115E+01 -0.36453892349E+01  0.90531965642E+01  0.51100000000E-03 0.  1.
         12    1    3    3    0    0  0.28882337819E+01  0.89166665298E+01 -0.11301354141E+02  0.14682283263E+02  0.00000000000E+00 0. -1.
</event>
<event>
 7    1  0.2584640E-011  0.5052886E+02  0.7816164E-02  0.1300439E+00
        -11   -1    0    0    0    0  0.00000000000E+00  0.00000000000E+00  0.45593999997E+02  0.45594000000E+02  0.51100000000E-03 0.  1.
         11   -1    0    0    0    0 -0.00000000000E+00 -0.00000000000E+00 -0.45593999997E+02  0.45594000000E+02  0.51100000000E-03 0. -1.
    9900012    2    1    2    0    0 -0.32446354471E+02  0.17938378215E+02 -0.16691734825E+02  0.50528863967E+02  0.30000012515E+02 0.  0.
        -12    1    1    2    0    0  0.32446354471E+02 -0.17938378215E+02  0.16691734825E+02  0.40659136033E+02  0.00000000000E+00 0.  1.
         11    1    3    3    0    0 -0.19921981786E+02  0.14280426957E+02 -0.45062514086E+01  0.24922324418E+02  0.51100000000E-03 0.  1.
        -11    1    3    3    0    0 -0.10835678617E+02  0.45600111217E+01 -0.16860684005E+02  0.20554520133E+02  0.51100000000E-03 0. -1.
        -12    1    3    3    0    0 -0.16886940677E+01 -0.90205986385E+00  0.46752005879E+01  0.50520194170E+01  0.00000000000E+00 0.  1.
</event>
<event>
 7    1  0.2584640E-011  0.5052887E+02  0.7816164E-02  0.1300439E+00
        -11   -1    0    0    0    0  0.00000000000E+00  0.00000000000E+00  0.45593999997E+02  0.45594000000E+02  0.51100000000E-03 0. -1.
         11   -1    0    0    0    0 -0.00000000000E+00 -0.00000000000E+00 -0.45593999997E+02  0.45594000000E+02  0.51100000000E-03 0.  1.
    9900012    2    1    2    0    0 -0.24120218570E+02 -0.18431113966E+02  0.27049467355E+02  0.50528873226E+02  0.30000040657E+02 0.  0.
        -12    1    1    2    0    0  0.24120218570E+02  0.18431113966E+02 -0.27049467355E+02  0.40659126774E+02  0.00000000000E+00 0.  1.
         11    1    3    3    0    0 -0.97196786289E+01 -0.23771771192E+02  0.16902044728E+02  0.30744891844E+02  0.51100000000E-03 0. -1.
        -11    1    3    3    0    0 -0.47470910864E+01  0.39706125481E+01  0.74147107500E+01  0.96580833273E+01  0.51100000000E-03 0.  1.
        -12    1    3    3    0    0 -0.96534488543E+01  0.13700446788E+01  0.27327118772E+01  0.10125898054E+02  0.00000000000E+00 0.  1.
</event>
<event>
 7    1  0.2584640E-011  0.5052888E+02  0.7816164E-02  0.1300439E+00
        -11   -1    0    0    0    0  0.00000000000E+00  0.00000000000E+00  0.45593999997E+02  0.45594000000E+02  0.51100000000E-03 0.  1.
         11   -1    0    0    0    0 -0.00000000000E+00 -0.00000000000E+00 -0.45593999997E+02  0.45594000000E+02  0.51100000000E-03 0. -1.
    9900012    2    1    2    0    0 -0.26154933427E+02  0.30722614036E+02 -0.50203716104E+01  0.50528884332E+02  0.30000074417E+02 0.  0.
        -12    1    1    2    0    0  0.26154933427E+02 -0.30722614036E+02  0.50203716104E+01  0.40659115668E+02  0.00000000000E+00 0.  1.
         11    1    3    3    0    0 -0.82199212009E+01  0.93651742082E+01 -0.86526439389E+01  0.15170426490E+02  0.51100000000E-03 0. -1.
        -11    1    3    3    0    0 -0.14363397771E+02  0.88831414367E+00  0.12934393790E+01  0.14448850585E+02  0.51100000000E-03 0.  1.
        -12    1    3    3    0    0 -0.35716144550E+01  0.20469125684E+02  0.23388329496E+01  0.20909607257E+02  0.00000000000E+00 0.  1.
</event>
<event>
 7    1  0.2584640E-011  0.5052887E+02  0.7816164E-02  0.1300439E+00
        -11   -1    0    0    0    0  0.00000000000E+00  0.00000000000E+00  0.45593999997E+02  0.45594000000E+02  0.51100000000E-03 0.  1.
         11   -1    0    0    0    0 -0.00000000000E+00 -0.00000000000E+00 -0.45593999997E+02  0.45594000000E+02  0.51100000000E-03 0. -1.
    9900012    2    1    2    0    0 -0.89976308671E+01  0.39589376271E+02 -0.22110084881E+01  0.50528872694E+02  0.30000039040E+02 0.  0.
        -12    1    1    2    0    0  0.89976308671E+01 -0.39589376271E+02  0.22110084881E+01  0.40659127306E+02  0.00000000000E+00 0.  1.
         11    1    3    3    0    0 -0.22000125957E+01  0.20992168119E+02 -0.37807441476E+00  0.21110521507E+02  0.51100000000E-03 0. -1.
        -11    1    3    3    0    0  0.72341428144E+01  0.11308616388E+02 -0.21928154879E+01  0.13602428713E+02  0.51100000000E-03 0.  1.
         12    1    3    3    0    0 -0.14031761086E+02  0.72885917648E+01  0.35988141456E+00  0.15815922474E+02  0.00000000000E+00 0. -1.
</event>
<event>
 7    1  0.2584640E-011  0.5052886E+02  0.7816164E-02  0.1300439E+00
        -11   -1    0    0    0    0  0.00000000000E+00  0.00000000000E+00  0.45593999997E+02  0.45594000000E+02  0.51100000000E-03 0. -1.
         11   -1    0    0    0    0 -0.00000000000E+00 -0.00000000000E+00 -0.45593999997E+02  0.45594000000E+02  0.51100000000E-03 0.  1.
    9900012    2    1    2    0    0  0.58578777056E+01 -0.86632663007E+01  0.39291203467E+02  0.50528861001E+02  0.30000003500E+02 0.  0.
        -12    1    1    2    0    0 -0.58578777056E+01  0.86632663007E+01 -0.39291203467E+02  0.40659138999E+02  0.00000000000E+00 0.  1.
         11    1    3    3    0    0  0.43667383002E+01 -0.13654615129E+02  0.25947786304E+02  0.29644637492E+02  0.51100000000E-03 0. -1.
        -11    1    3    3    0    0  0.82236897182E+01  0.17131514156E+01  0.85901152133E+01  0.12014742610E+02  0.51100000000E-03 0.  1.
         12    1    3    3    0    0 -0.67325503128E+01  0.32781974126E+01  0.47533019501E+01  0.88694808991E+01  0.00000000000E+00 0. -1.
</event>
<event>
 7    1  0.2885772E-011  0.5052885E+02  0.7816164E-02  0.1300439E+00
        -11   -1    0    0    0    0  0.00000000000E+00  0.00000000000E+00  0.45593999997E+02  0.45594000000E+02  0.51100000000E-03 0. -1.
         11   -1    0    0    0    0 -0.00000000000E+00 -0.00000000000E+00 -0.45593999997E+02  0.45594000000E+02  0.51100000000E-03 0.  1.
    9900012    2    1    2    0    0  0.16333350354E+02 -0.32097936128E+02  0.18870890622E+02  0.50528851579E+02  0.29999974860E+02 0.  0.
        -12    1    1    2    0    0 -0.16333350354E+02  0.32097936128E+02 -0.18870890622E+02  0.40659148421E+02  0.00000000000E+00 0.  1.
         11    1    3    3    0    0  0.13410132815E+02 -0.19383176194E+02  0.20137773871E+02  0.31001114790E+02  0.51100000000E-03 0. -1.
        -11    1    3    3    0    0 -0.44296455860E+01 -0.28020590878E+00  0.17485719326E+01  0.47705114436E+01  0.51100000000E-03 0.  1.
        -12    1    3    3    0    0  0.73528631253E+01 -0.12434554025E+02 -0.30154551825E+01  0.14757225346E+02  0.00000000000E+00 0.  1.
</event>
<event>
 7    1  0.2915763E-011  0.5052882E+02  0.7816164E-02  0.1300439E+00
        -11   -1    0    0    0    0  0.00000000000E+00  0.00000000000E+00  0.45593999997E+02  0.45594000000E+02  0.51100000000E-03 0. -1.
         11   -1    0    0    0    0 -0.00000000000E+00 -0.00000000000E+00 -0.45593999997E+02  0.45594000000E+02  0.51100000000E-03 0.  1.
    9900012    2    1    2    0    0  0.24119082533E+02 -0.32395921938E+02  0.46843235240E+01  0.50528821610E+02  0.29999883766E+02 0.  0.
        -12    1    1    2    0    0 -0.24119082533E+02  0.32395921938E+02 -0.46843235240E+01  0.40659178390E+02  0.00000000000E+00 0.  1.
         11    1    3    3    0    0  0.19728915817E+02 -0.29920362721E+02  0.69591479168E+01  0.36508738196E+02  0.51100000000E-03 0. -1.
        -11    1    3    3    0    0 -0.32375219109E+01 -0.47563113983E+01 -0.18643807844E+01  0.60481370860E+01  0.51100000000E-03 0.  1.
        -12    1    3    3    0    0  0.76276886267E+01  0.22807521816E+01 -0.41044360844E+00  0.79719463280E+01  0.00000000000E+00 0.  1.
</event>
<event>
 7    1  0.2584640E-011  0.5052886E+02  0.7816164E-02  0.1300439E+00
        -11   -1    0    0    0    0  0.00000000000E+00  0.00000000000E+00  0.45593999997E+02  0.45594000000E+02  0.51100000000E-03 0.  1.
         11   -1    0    0    0    0 -0.00000000000E+00 -0.00000000000E+00 -0.45593999997E+02  0.45594000000E+02  0.51100000000E-03 0. -1.
    9900012    2    1    2    0    0 -0.13512880029E+02 -0.38140628218E+02 -0.39825395940E+01  0.50528855037E+02  0.29999985370E+02 0.  0.
        -12    1    1    2    0    0  0.13512880029E+02  0.38140628218E+02  0.39825395940E+01  0.40659144963E+02  0.00000000000E+00 0.  1.
         11    1    3    3    0    0  0.80026516743E+00 -0.54924616973E+01 -0.49665113249E+01  0.74480732298E+01  0.51100000000E-03 0. -1.
        -11    1    3    3    0    0  0.35775506407E+01 -0.42487488634E+00  0.48281277482E+01  0.60241352135E+01  0.51100000000E-03 0.  1.
        -12    1    3    3    0    0 -0.17890695837E+02 -0.32223291634E+02 -0.38441560173E+01  0.37056646593E+02  0.00000000000E+00 0.  1.
</event>
<event>
 7    1  0.2584640E-011  0.5052886E+02  0.7816164E-02  0.1300439E+00
        -11   -1    0    0    0    0  0.00000000000E+00  0.00000000000E+00  0.45593999997E+02  0.45594000000E+02  0.51100000000E-03 0.  1.
         11   -1    0    0    0    0 -0.00000000000E+00 -0.00000000000E+00 -0.45593999997E+02  0.45594000000E+02  0.51100000000E-03 0. -1.
    9900012    2    1    2    0    0 -0.26736055465E+02 -0.22919412192E+02  0.20323618411E+02  0.50528861023E+02  0.30000003564E+02 0.  0.
        -12    1    1    2    0    0  0.26736055465E+02  0.22919412192E+02 -0.20323618411E+02  0.40659138977E+02  0.00000000000E+00 0.  1.
         11    1    3    3    0    0 -0.11321761446E+02 -0.10829978273E+02 -0.24664844620E+01  0.15860462083E+02  0.51100000000E-03 0. -1.
        -11    1    3    3    0    0 -0.35147643845E+01 -0.13391450062E+02  0.95503350514E+01  0.16819435285E+02  0.51100000000E-03 0.  1.
         12    1    3    3    0    0 -0.11899529635E+02  0.13020161431E+01  0.13239767821E+02  0.17848963654E+02  0.00000000000E+00 0. -1.
</event>
<event>
 7    1  0.2584640E-011  0.5052888E+02  0.7816164E-02  0.1300439E+00
        -11   -1    0    0    0    0  0.00000000000E+00  0.00000000000E+00  0.45593999997E+02  0.45594000000E+02  0.51100000000E-03 0.  1.
         11   -1    0    0    0    0 -0.00000000000E+00 -0.00000000000E+00 -0.45593999997E+02  0.45594000000E+02  0.51100000000E-03 0. -1.
    9900012    2    1    2    0    0 -0.36584356430E+02  0.72758705912E+01  0.16180572632E+02  0.50528876068E+02  0.30000049295E+02 0.  0.
        -12    1    1    2    0    0  0.36584356430E+02 -0.72758705912E+01 -0.16180572632E+02  0.40659123932E+02  0.00000000000E+00 0.  1.
         11    1    3    3    0    0 -0.83826126753E+01 -0.66059659719E+01  0.33945734184E+01  0.11199558502E+02  0.51100000000E-03 0. -1.
        -11    1    3    3    0    0 -0.14631533010E+02  0.74963250848E+01  0.17102668080E+02  0.23722940453E+02  0.51100000000E-03 0.  1.
        -12    1    3    3    0    0 -0.13570210744E+02  0.63855114783E+01 -0.43166688666E+01  0.15606377113E+02  0.00000000000E+00 0.  1.
</event>
<event>
 7    1  0.2584640E-011  0.5052886E+02  0.7816164E-02  0.1300439E+00
        -11   -1    0    0    0    0  0.00000000000E+00  0.00000000000E+00  0.45593999997E+02  0.45594000000E+02  0.51100000000E-03 0.  1.
         11   -1    0    0    0    0 -0.00000000000E+00 -0.00000000000E+00 -0.45593999997E+02  0.45594000000E+02  0.51100000000E-03 0. -1.
    9900012    2    1    2    0    0 -0.16237061062E+02 -0.25158296434E+02 -0.27506058277E+02  0.50528864823E+02  0.30000015116E+02 0.  0.
        -12    1    1    2    0    0  0.16237061062E+02  0.25158296434E+02  0.27506058277E+02  0.40659135177E+02  0.00000000000E+00 0.  1.
         11    1    3    3    0    0 -0.40993338544E+00 -0.64911001051E+01 -0.10406007581E+02  0.12271406602E+02  0.51100000000E-03 0. -1.
        -11    1    3    3    0    0 -0.21708239404E+02 -0.13637929767E+02 -0.93035701936E+01  0.27272645727E+02  0.51100000000E-03 0.  1.
         12    1    3    3    0    0  0.58811117275E+01 -0.50292665623E+01 -0.77964805026E+01  0.10984812494E+02  0.00000000000E+00 0. -1.
</event>
<event>
 7    1  0.2584640E-011  0.5052875E+02  0.7816164E-02  0.1300439E+00
        -11   -1    0    0    0    0  0.00000000000E+00  0.00000000000E+00  0.45593999997E+02  0.45594000000E+02  0.51100000000E-03 0. -1.
         11   -1    0    0    0    0 -0.00000000000E+00 -0.00000000000E+00 -0.45593999997E+02  0.45594000000E+02  0.51100000000E-03 0.  1.
    9900012    2    1    2    0    0  0.33580722276E+02 -0.27265150526E+01  0.22761286420E+02  0.50528745797E+02  0.29999653322E+02 0.  0.
        -12    1    1    2    0    0 -0.33580722276E+02  0.27265150526E+01 -0.22761286420E+02  0.40659254203E+02  0.00000000000E+00 0.  1.
         11    1    3    3    0    0  0.51290502421E+01  0.82143787425E+01  0.14223777239E+02  0.17207527822E+02  0.51100000000E-03 0. -1.
        -11    1    3    3    0    0  0.12924696450E+00 -0.26115598731E+01  0.97234205913E-01  0.26165634906E+01  0.51100000000E-03 0.  1.
         12    1    3    3    0    0  0.28322425069E+02 -0.83293339221E+01  0.84402749742E+01  0.30704654485E+02  0.00000000000E+00 0. -1.
</event>
<event>
 7    1  0.2584640E-011  0.5052886E+02  0.7816164E-02  0.1300439E+00
        -11   -1    0    0    0    0  0.00000000000E+00  0.00000000000E+00  0.45593999997E+02  0.45594000000E+02  0.51100000000E-03 0. -1.
         11   -1    0    0    0    0 -0.00000000000E+00 -0.00000000000E+00 -0.45593999997E+02  0.45594000000E+02  0.51100000000E-03 0.  1.
    9900012    2    1    2    0    0  0.40489738715E+02  0.36358296589E+01  0.72639017780E+00  0.50528857840E+02  0.29999993891E+02 0.  0.
        -12    1    1    2    0    0 -0.40489738715E+02 -0.36358296589E+01 -0.72639017780E+00  0.40659142160E+02  0.00000000000E+00 0.  1.
         11    1    3    3    0    0  0.16560976878E+02 -0.28009189257E+01  0.35779486746E+01  0.17173025912E+02  0.51100000000E-03 0. -1.
        -11    1    3    3    0    0  0.53625128178E+01 -0.76466153297E+01 -0.36783529381E+01  0.10037806051E+02  0.51100000000E-03 0.  1.
        -12    1    3    3    0    0  0.18566249019E+02  0.14083363914E+02  0.82679444134E+00  0.23318025877E+02  0.00000000000E+00 0.  1.
</event>
<event>
 7    1  0.2584640E-011  0.5052887E+02  0.7816164E-02  0.1300439E+00
        -11   -1    0    0    0    0  0.00000000000E+00  0.00000000000E+00  0.45593999997E+02  0.45594000000E+02  0.51100000000E-03 0.  1.
         11   -1    0    0    0    0 -0.00000000000E+00 -0.00000000000E+00 -0.45593999997E+02  0.45594000000E+02  0.51100000000E-03 0. -1.
    9900012    2    1    2    0    0  0.34161991404E+02 -0.72280885885E+01 -0.20829744283E+02  0.50528866116E+02  0.30000019045E+02 0.  0.
        -12    1    1    2    0    0 -0.34161991404E+02  0.72280885885E+01  0.20829744283E+02  0.40659133884E+02  0.00000000000E+00 0.  1.
         11    1    3    3    0    0  0.37167342673E+01 -0.64803784811E+01  0.40926872621E+01  0.85181869056E+01  0.51100000000E-03 0.  1.
        -11    1    3    3    0    0  0.25261167197E+02  0.44022226671E+00 -0.11866362864E+02  0.27912916933E+02  0.51100000000E-03 0. -1.
        -12    1    3    3    0    0  0.51840899396E+01 -0.11879323741E+01 -0.13056068681E+02  0.14097762277E+02  0.00000000000E+00 0.  1.
</event>
<event>
 7    1  0.3964225E-011  0.5052885E+02  0.7816164E-02  0.1300439E+00
        -11   -1    0    0    0    0  0.00000000000E+00  0.00000000000E+00  0.45593999997E+02  0.45594000000E+02  0.51100000000E-03 0. -1.
         11   -1    0    0    0    0 -0.00000000000E+00 -0.00000000000E+00 -0.45593999997E+02  0.45594000000E+02  0.51100000000E-03 0.  1.
    9900012    2    1    2    0    0 -0.11993287370E+02 -0.35209031926E+02  0.16421072082E+02  0.50528849991E+02  0.29999970033E+02 0.  0.
        -12    1    1    2    0    0  0.11993287370E+02  0.35209031926E+02 -0.16421072082E+02  0.40659150009E+02  0.00000000000E+00 0.  1.
         11    1    3    3    0    0 -0.76588095744E+01 -0.20219278730E+02  0.76181581851E+01  0.22924068811E+02  0.51100000000E-03 0. -1.
        -11    1    3    3    0    0 -0.12621776366E+02 -0.64003171545E+01  0.58221631615E+01  0.15302642989E+02  0.51100000000E-03 0.  1.
        -12    1    3    3    0    0  0.82872985710E+01 -0.85894360415E+01  0.29807507358E+01  0.12302138191E+02  0.00000000000E+00 0.  1.
</event>
<event>
 7    1  0.2584640E-011  0.5052886E+02  0.7816164E-02  0.1300439E+00
        -11   -1    0    0    0    0  0.00000000000E+00  0.00000000000E+00  0.45593999997E+02  0.45594000000E+02  0.51100000000E-03 0. -1.
         11   -1    0    0    0    0 -0.00000000000E+00 -0.00000000000E+00 -0.45593999997E+02  0.45594000000E+02  0.51100000000E-03 0.  1.
    9900012    2    1    2    0    0  0.95716765748E-01  0.39156126583E+02  0.10952363758E+02  0.50528859790E+02  0.29999999819E+02 0.  0.
        -12    1    1    2    0    0 -0.95716765748E-01 -0.39156126583E+02 -0.10952363758E+02  0.40659140210E+02  0.00000000000E+00 0.  1.
         11    1    3    3    0    0  0.27041484524E+01  0.68198143046E+01  0.13735883539E+02  0.15572308206E+02  0.51100000000E-03 0. -1.
        -11    1    3    3    0    0  0.46718192277E+01  0.65201040081E+01 -0.77166392631E+00  0.80581087514E+01  0.51100000000E-03 0.  1.
         12    1    3    3    0    0 -0.72802509144E+01  0.25816208271E+02 -0.20118558552E+01  0.26898442833E+02  0.00000000000E+00 0. -1.
</event>
<event>
 7    1  0.2584640E-011  0.5052886E+02  0.7816164E-02  0.1300439E+00
        -11   -1    0    0    0    0  0.00000000000E+00  0.00000000000E+00  0.45593999997E+02  0.45594000000E+02  0.51100000000E-03 0.  1.
         11   -1    0    0    0    0 -0.00000000000E+00 -0.00000000000E+00 -0.45593999997E+02  0.45594000000E+02  0.51100000000E-03 0. -1.
    9900012    2    1    2    0    0  0.80641275886E+01  0.38875248819E+02  0.87664557198E+01  0.50528857481E+02  0.29999992799E+02 0.  0.
        -12    1    1    2    0    0 -0.80641275886E+01 -0.38875248819E+02 -0.87664557198E+01  0.40659142519E+02  0.00000000000E+00 0.  1.
         11    1    3    3    0    0  0.78421440775E+01  0.91398156104E+01  0.41298928704E+01  0.12731514777E+02  0.51100000000E-03 0. -1.
        -11    1    3    3    0    0  0.71041849892E+01  0.26830474122E+01  0.62521488066E+01  0.98365417061E+01  0.51100000000E-03 0.  1.
        -12    1    3    3    0    0 -0.68822014781E+01  0.27052385796E+02 -0.16155859571E+01  0.27960800998E+02  0.00000000000E+00 0.  1.
</event>
<event>
 7    1  0.2584640E-011  0.5052886E+02  0.7816164E-02  0.1300439E+00
        -11   -1    0    0    0    0  0.00000000000E+00  0.00000000000E+00  0.45593999997E+02  0.45594000000E+02  0.51100000000E-03 0.  1.
         11   -1    0    0    0    0 -0.00000000000E+00 -0.00000000000E+00 -0.45593999997E+02  0.45594000000E+02  0.51100000000E-03 0. -1.
    9900012    2    1    2    0    0  0.40518452257E+02 -0.19729220671E+01  0.27438346093E+01  0.50528855602E+02  0.29999987089E+02 0.  0.
        -12    1    1    2    0    0 -0.40518452257E+02  0.19729220671E+01 -0.27438346093E+01  0.40659144398E+02  0.00000000000E+00 0.  1.
         11    1    3    3    0    0  0.25862968534E+02 -0.30520943638E+01 -0.14603034138E+01  0.26083345409E+02  0.51100000000E-03 0. -1.
        -11    1    3    3    0    0  0.33850191010E+01 -0.85043925001E+01  0.36160743051E+00  0.91604479314E+01  0.51100000000E-03 0.  1.
        -12    1    3    3    0    0  0.11270464622E+02  0.95835647967E+01  0.38425305926E+01  0.15285062262E+02  0.00000000000E+00 0.  1.
</event>
<event>
 7    1  0.2584640E-011  0.5052886E+02  0.7816164E-02  0.1300439E+00
        -11   -1    0    0    0    0  0.00000000000E+00  0.00000000000E+00  0.45593999997E+02  0.45594000000E+02  0.51100000000E-03 0. -1.
         11   -1    0    0    0    0 -0.00000000000E+00 -0.00000000000E+00 -0.45593999997E+02  0.45594000000E+02  0.51100000000E-03 0.  1.
    9900012    2    1    2    0    0 -0.22556595674E+02  0.14492107167E+02  0.30567045976E+02  0.50528862304E+02  0.30000007458E+02 0.  0.
        -12    1    1    2    0    0  0.22556595674E+02 -0.14492107167E+02 -0.30567045976E+02  0.40659137696E+02  0.00000000000E+00 0.  1.
         11    1    3    3    0    0 -0.11356502318E+02  0.17111420820E+01  0.11881020568E+02  0.16524430463E+02  0.51100000000E-03 0. -1.
        -11    1    3    3    0    0  0.37966060554E+01  0.26380519536E+01  0.14775959271E+02  0.15482328904E+02  0.51100000000E-03 0.  1.
         12    1    3    3    0    0 -0.14996699411E+02  0.10142913131E+02  0.39100661367E+01  0.18522102937E+02  0.00000000000E+00 0. -1.
</event>
<event>
 7    1  0.2584640E-011  0.5052886E+02  0.7816164E-02  0.1300439E+00
        -11   -1    0    0    0    0  0.00000000000E+00  0.00000000000E+00  0.45593999997E+02  0.45594000000E+02  0.51100000000E-03 0.  1.
         11   -1    0    0    0    0 -0.00000000000E+00 -0.00000000000E+00 -0.45593999997E+02  0.45594000000E+02  0.51100000000E-03 0. -1.
    9900012    2    1    2    0    0  0.30802362024E+02 -0.13502976523E+02 -0.22848410908E+02  0.50528858811E+02  0.29999996842E+02 0.  0.
        -12    1    1    2    0    0 -0.30802362024E+02  0.13502976523E+02  0.22848410908E+02  0.40659141189E+02  0.00000000000E+00 0.  1.
         11    1    3    3    0    0  0.13935979944E+02 -0.95149581282E+01 -0.24920173403E+02  0.30095863634E+02  0.51100000000E-03 0. -1.
        -11    1    3    3    0    0 -0.16268949849E+00 -0.32373680234E+01  0.80777573905E+00  0.33405869989E+01  0.51100000000E-03 0.  1.
        -12    1    3    3    0    0  0.17029071579E+02 -0.75065037116E+00  0.12639867558E+01  0.17092408178E+02  0.00000000000E+00 0.  1.
</event>
<event>
 7    1  0.2584640E-011  0.5052888E+02  0.7816164E-02  0.1300439E+00
        -11   -1    0    0    0    0  0.00000000000E+00  0.00000000000E+00  0.45593999997E+02  0.45594000000E+02  0.51100000000E-03 0.  1.
         11   -1    0    0    0    0 -0.00000000000E+00 -0.00000000000E+00 -0.45593999997E+02  0.45594000000E+02  0.51100000000E-03 0. -1.
    9900012    2    1    2    0    0 -0.37864792125E+02 -0.10853847697E+02 -0.10080444779E+02  0.50528882210E+02  0.30000067966E+02 0.  0.
        -12    1    1    2    0    0  0.37864792125E+02  0.10853847697E+02  0.10080444779E+02  0.40659117790E+02  0.00000000000E+00 0.  1.
         11    1    3    3    0    0 -0.11612168272E+02 -0.53928645251E+01 -0.45048185791E+01  0.13572723767E+02  0.51100000000E-03 0. -1.
        -11    1    3    3    0    0 -0.14393138715E+02  0.89436106628E+01  0.14758227518E+01  0.17009663924E+02  0.51100000000E-03 0.  1.
        -12    1    3    3    0    0 -0.11859485138E+02 -0.14404593835E+02 -0.70514489516E+01  0.19946494519E+02  0.00000000000E+00 0.  1.
</event>
<event>
 7    1  0.2584640E-011  0.5052886E+02  0.7816164E-02  0.1300439E+00
        -11   -1    0    0    0    0  0.00000000000E+00  0.00000000000E+00  0.45593999997E+02  0.45594000000E+02  0.51100000000E-03 0. -1.
         11   -1    0    0    0    0 -0.00000000000E+00 -0.00000000000E+00 -0.45593999997E+02  0.45594000000E+02  0.51100000000E-03 0.  1.
    9900012    2    1    2    0    0 -0.97368176177E+01  0.52301749860E+01  0.39128061847E+02  0.50528861155E+02  0.30000003968E+02 0.  0.
        -12    1    1    2    0    0  0.97368176177E+01 -0.52301749860E+01 -0.39128061847E+02  0.40659138845E+02  0.00000000000E+00 0.  1.
         11    1    3    3    0    0 -0.18488517270E+00  0.72345141850E+01  0.18351721868E+02  0.19727089847E+02  0.51100000000E-03 0. -1.
        -11    1    3    3    0    0 -0.44498666744E+01 -0.58031860709E+01  0.22944272683E+02  0.24081485236E+02  0.51100000000E-03 0.  1.
         12    1    3    3    0    0 -0.51020657706E+01  0.37988468720E+01 -0.21679327042E+01  0.67202860724E+01  0.00000000000E+00 0. -1.
</event>
<event>
 7    1  0.2584640E-011  0.5052886E+02  0.7816164E-02  0.1300439E+00
        -11   -1    0    0    0    0  0.00000000000E+00  0.00000000000E+00  0.45593999997E+02  0.45594000000E+02  0.51100000000E-03 0.  1.
         11   -1    0    0    0    0 -0.00000000000E+00 -0.00000000000E+00 -0.45593999997E+02  0.45594000000E+02  0.51100000000E-03 0. -1.
    9900012    2    1    2    0    0 -0.25999083842E+02  0.31247873837E+02 -0.88513725757E+00  0.50528862677E+02  0.30000008592E+02 0.  0.
        -12    1    1    2    0    0  0.25999083842E+02 -0.31247873837E+02  0.88513725757E+00  0.40659137323E+02  0.00000000000E+00 0.  1.
         11    1    3    3    0    0 -0.90543296041E+01  0.14604281237E+01 -0.18717938789E+01  0.93604138514E+01  0.51100000000E-03 0. -1.
        -11    1    3    3    0    0 -0.21062446073E+02  0.24906874592E+02  0.58533892964E+01  0.33139722435E+02  0.51100000000E-03 0.  1.
         12    1    3    3    0    0  0.41176918358E+01  0.48805711213E+01 -0.48667326750E+01  0.80287263906E+01  0.00000000000E+00 0. -1.
</event>
<event>
 7    1  0.2584640E-011  0.5052888E+02  0.7816164E-02  0.1300439E+00
        -11   -1    0    0    0    0  0.00000000000E+00  0.00000000000E+00  0.45593999997E+02  0.45594000000E+02  0.51100000000E-03 0. -1.
         11   -1    0    0    0    0 -0.00000000000E+00 -0.00000000000E+00 -0.45593999997E+02  0.45594000000E+02  0.51100000000E-03 0.  1.
    9900012    2    1    2    0    0  0.32605309429E+02  0.18937002140E+01 -0.24217179243E+02  0.50528879573E+02  0.30000059949E+02 0.  0.
        -12    1    1    2    0    0 -0.32605309429E+02 -0.18937002140E+01  0.24217179243E+02  0.40659120427E+02  0.00000000000E+00 0.  1.
         11    1    3    3    0    0 -0.36933867766E+01 -0.20305614028E+01 -0.37009912144E+00  0.42309879594E+01  0.51100000000E-03 0. -1.
        -11    1    3    3    0    0  0.53008265921E+01  0.25231923548E+01  0.16922350651E+01  0.61097399286E+01  0.51100000000E-03 0.  1.
        -12    1    3    3    0    0  0.30997869613E+02  0.14010692620E+01 -0.25539315187E+02  0.40188151685E+02  0.00000000000E+00 0.  1.
</event>
<event>
 7    1  0.2584640E-011  0.5052886E+02  0.7816164E-02  0.1300439E+00
        -11   -1    0    0    0    0  0.00000000000E+00  0.00000000000E+00  0.45593999997E+02  0.45594000000E+02  0.51100000000E-03 0. -1.
         11   -1    0    0    0    0 -0.00000000000E+00 -0.00000000000E+00 -0.45593999997E+02  0.45594000000E+02  0.51100000000E-03 0.  1.
    9900012    2    1    2    0    0 -0.13317382806E+02  0.18589318565E+02  0.33619192819E+02  0.50528861109E+02  0.30000003827E+02 0.  0.
        -12    1    1    2    0    0  0.13317382806E+02 -0.18589318565E+02 -0.33619192819E+02  0.40659138891E+02  0.00000000000E+00 0.  1.
         11    1    3    3    0    0 -0.12849985277E+02  0.12576570436E+02  0.14781488078E+02  0.23276267648E+02  0.51100000000E-03 0. -1.
        -11    1    3    3    0    0 -0.26119108936E+01  0.19229161284E+01 -0.33066754766E+01  0.46318233906E+01  0.51100000000E-03 0.  1.
        -12    1    3    3    0    0  0.21445133641E+01  0.40898320012E+01  0.22144380218E+02  0.22620770071E+02  0.00000000000E+00 0.  1.
</event>
<event>
 7    1  0.2584640E-011  0.5052886E+02  0.7816164E-02  0.1300439E+00
        -11   -1    0    0    0    0  0.00000000000E+00  0.00000000000E+00  0.45593999997E+02  0.45594000000E+02  0.51100000000E-03 0.  1.
         11   -1    0    0    0    0 -0.00000000000E+00 -0.00000000000E+00 -0.45593999997E+02  0.45594000000E+02  0.51100000000E-03 0. -1.
    9900012    2    1    2    0    0  0.15547379034E+02  0.34694527863E+02  0.14413001031E+02  0.50528857644E+02  0.29999993294E+02 0.  0.
        -12    1    1    2    0    0 -0.15547379034E+02 -0.34694527863E+02 -0.14413001031E+02  0.40659142356E+02  0.00000000000E+00 0.  1.
         11    1    3    3    0    0  0.15810099208E+02  0.14937698170E+02  0.70037712515E+01  0.22850533376E+02  0.51100000000E-03 0. -1.
        -11    1    3    3    0    0  0.79500823826E+01  0.62844647152E+01  0.61402172817E+01  0.11849074866E+02  0.51100000000E-03 0.  1.
        -12    1    3    3    0    0 -0.82128025558E+01  0.13472364978E+02  0.12690124974E+01  0.15829249402E+02  0.00000000000E+00 0.  1.
</event>
<event>
 7    1  0.2584640E-011  0.5052886E+02  0.7816164E-02  0.1300439E+00
        -11   -1    0    0    0    0  0.00000000000E+00  0.00000000000E+00  0.45593999997E+02  0.45594000000E+02  0.51100000000E-03 0.  1.
         11   -1    0    0    0    0 -0.00000000000E+00 -0.00000000000E+00 -0.45593999997E+02  0.45594000000E+02  0.51100000000E-03 0. -1.
    9900012    2    1    2    0    0  0.15948082120E+02 -0.16559587361E+02 -0.33535122851E+02  0.50528859312E+02  0.29999998365E+02 0.  0.
        -12    1    1    2    0    0 -0.15948082120E+02  0.16559587361E+02  0.33535122851E+02  0.40659140688E+02  0.00000000000E+00 0.  1.
         11    1    3    3    0    0 -0.16813287404E+01 -0.61670290671E+01 -0.43343386188E+01  0.77230567375E+01  0.51100000000E-03 0. -1.
        -11    1    3    3    0    0 -0.11986432541E+01  0.36883502790E+01  0.14812716184E+01  0.41514863964E+01  0.51100000000E-03 0.  1.
         12    1    3    3    0    0  0.18828054115E+02 -0.14080908573E+02 -0.30682055851E+02  0.38654316178E+02  0.00000000000E+00 0. -1.
</event>
<event>
 7    1  0.2584640E-011  0.5052886E+02  0.7816164E-02  0.1300439E+00
        -11   -1    0    0    0    0  0.00000000000E+00  0.00000000000E+00  0.45593999997E+02  0.45594000000E+02  0.51100000000E-03 0. -1.
         11   -1    0    0    0    0 -0.00000000000E+00 -0.00000000000E+00 -0.45593999997E+02  0.45594000000E+02  0.51100000000E-03 0.  1.
    9900012    2    1    2    0    0 -0.36422655348E+02  0.14800050470E+02 -0.10368907387E+02  0.50528861335E+02  0.30000004514E+02 0.  0.
        -12    1    1    2    0    0  0.36422655348E+02 -0.14800050470E+02  0.10368907387E+02  0.40659138665E+02  0.00000000000E+00 0.  1.
         11    1    3    3    0    0 -0.15394075953E+02  0.24141017812E+01  0.43145818795E+01  0.16168521234E+02  0.51100000000E-03 0. -1.
        -11    1    3    3    0    0 -0.17646871980E+02  0.78426443591E+01 -0.19112913531E+02  0.27170252577E+02  0.51100000000E-03 0.  1.
         12    1    3    3    0    0 -0.33817074161E+01  0.45433043302E+01  0.44294242642E+01  0.71900875236E+01  0.00000000000E+00 0. -1.
</event>
<event>
 7    1  0.2584640E-011  0.5052889E+02  0.7816164E-02  0.1300439E+00
        -11   -1    0    0    0    0  0.00000000000E+00  0.00000000000E+00  0.45593999997E+02  0.45594000000E+02  0.51100000000E-03 0.  1.
         11   -1    0    0    0    0 -0.00000000000E+00 -0.00000000000E+00 -0.45593999997E+02  0.45594000000E+02  0.51100000000E-03 0. -1.
    9900012    2    1    2    0    0 -0.11042245600E+02 -0.26304319618E+02 -0.28970927855E+02  0.50528891805E+02  0.30000097131E+02 0.  0.
        -12    1    1    2    0    0  0.11042245600E+02  0.26304319618E+02  0.28970927855E+02  0.40659108195E+02  0.00000000000E+00 0.  1.
         11    1    3    3    0    0 -0.11974374658E+02 -0.25214396311E+02 -0.17700352036E+02  0.33052290272E+02  0.51100000000E-03 0. -1.
        -11    1    3    3    0    0  0.44300720458E+01 -0.54592709589E+01 -0.33757074230E+01  0.77990113861E+01  0.51100000000E-03 0.  1.
         12    1    3    3    0    0 -0.34979429883E+01  0.43693476528E+01 -0.78948683957E+01  0.96775901466E+01  0.00000000000E+00 0. -1.
</event>
<event>
 7    1  0.2584640E-011  0.5052886E+02  0.7816164E-02  0.1300439E+00
        -11   -1    0    0    0    0  0.00000000000E+00  0.00000000000E+00  0.45593999997E+02  0.45594000000E+02  0.51100000000E-03 0. -1.
         11   -1    0    0    0    0 -0.00000000000E+00 -0.00000000000E+00 -0.45593999997E+02  0.45594000000E+02  0.51100000000E-03 0.  1.
    9900012    2    1    2    0    0  0.17651644211E+02 -0.22137278600E+02 -0.29180912523E+02  0.50528864460E+02  0.30000014014E+02 0.  0.
        -12    1    1    2    0    0 -0.17651644211E+02  0.22137278600E+02  0.29180912523E+02  0.40659135540E+02  0.00000000000E+00 0.  1.
         11    1    3    3    0    0  0.16014487791E+02 -0.70674242917E+01 -0.77076289717E+01  0.19126417594E+02  0.51100000000E-03 0. -1.
        -11    1    3    3    0    0  0.40178761074E+01 -0.11363068752E+02 -0.30124903842E+01  0.12423274868E+02  0.51100000000E-03 0.  1.
        -12    1    3    3    0    0 -0.23807196876E+01 -0.37067855560E+01 -0.18460793167E+02  0.18979171998E+02  0.00000000000E+00 0.  1.
</event>
<event>
 7    1  0.2584640E-011  0.5052886E+02  0.7816164E-02  0.1300439E+00
        -11   -1    0    0    0    0  0.00000000000E+00  0.00000000000E+00  0.45593999997E+02  0.45594000000E+02  0.51100000000E-03 0.  1.
         11   -1    0    0    0    0 -0.00000000000E+00 -0.00000000000E+00 -0.45593999997E+02  0.45594000000E+02  0.51100000000E-03 0. -1.
    9900012    2    1    2    0    0  0.32727906352E+02 -0.17959865752E+02 -0.16108791047E+02  0.50528858580E+02  0.29999996140E+02 0.  0.
        -12    1    1    2    0    0 -0.32727906352E+02  0.17959865752E+02  0.16108791047E+02  0.40659141420E+02  0.00000000000E+00 0.  1.
         11    1    3    3    0    0  0.23740868644E+02  0.12311677530E+01 -0.10414064681E+02  0.25953754285E+02  0.51100000000E-03 0. -1.
        -11    1    3    3    0    0 -0.44906742722E+00 -0.18454554211E+01  0.25476940489E+01  0.31777527426E+01  0.51100000000E-03 0.  1.
        -12    1    3    3    0    0  0.94361051350E+01 -0.17345578084E+02 -0.82424204146E+01  0.21397351553E+02  0.00000000000E+00 0.  1.
</event>
<event>
 7    1  0.2584640E-011  0.5052886E+02  0.7816164E-02  0.1300439E+00
        -11   -1    0    0    0    0  0.00000000000E+00  0.00000000000E+00  0.45593999997E+02  0.45594000000E+02  0.51100000000E-03 0.  1.
         11   -1    0    0    0    0 -0.00000000000E+00 -0.00000000000E+00 -0.45593999997E+02  0.45594000000E+02  0.51100000000E-03 0. -1.
    9900012    2    1    2    0    0  0.20730852743E+02 -0.10534583079E+02 -0.33352959505E+02  0.50528860759E+02  0.30000002764E+02 0.  0.
        -12    1    1    2    0    0 -0.20730852743E+02  0.10534583079E+02  0.33352959505E+02  0.40659139241E+02  0.00000000000E+00 0.  1.
         11    1    3    3    0    0  0.11461605523E+02 -0.10332915103E+02 -0.73814938395E+01  0.17106255793E+02  0.51100000000E-03 0. -1.
        -11    1    3    3    0    0  0.33458670348E+01  0.38157873388E+01  0.12907624801E+01  0.52365186212E+01  0.51100000000E-03 0.  1.
         12    1    3    3    0    0  0.59233801848E+01 -0.40174553152E+01 -0.27262228145E+02  0.28186086345E+02  0.00000000000E+00 0. -1.
</event>
<event>
 7    1  0.2584640E-011  0.5052885E+02  0.7816164E-02  0.1300439E+00
        -11   -1    0    0    0    0  0.00000000000E+00  0.00000000000E+00  0.45593999997E+02  0.45594000000E+02  0.51100000000E-03 0. -1.
         11   -1    0    0    0    0 -0.00000000000E+00 -0.00000000000E+00 -0.45593999997E+02  0.45594000000E+02  0.51100000000E-03 0.  1.
    9900012    2    1    2    0    0  0.34756629183E+02 -0.71002315850E+01  0.19867806719E+02  0.50528852142E+02  0.29999976571E+02 0.  0.
        -12    1    1    2    0    0 -0.34756629183E+02  0.71002315850E+01 -0.19867806719E+02  0.40659147858E+02  0.00000000000E+00 0.  1.
         11    1    3    3    0    0  0.36604539141E+01 -0.31486288596E+01  0.14602754188E+02  0.15380286625E+02  0.51100000000E-03 0. -1.
        -11    1    3    3    0    0  0.18247285459E+01  0.30282824409E+01 -0.21741267980E+01  0.41505368813E+01  0.51100000000E-03 0.  1.
         12    1    3    3    0    0  0.29271446723E+02 -0.69798851663E+01  0.74391793297E+01  0.30998028635E+02  0.00000000000E+00 0. -1.
</event>
<event>
 7    1  0.2584640E-011  0.5052888E+02  0.7816164E-02  0.1300439E+00
        -11   -1    0    0    0    0  0.00000000000E+00  0.00000000000E+00  0.45593999997E+02  0.45594000000E+02  0.51100000000E-03 0.  1.
         11   -1    0    0    0    0 -0.00000000000E+00 -0.00000000000E+00 -0.45593999997E+02  0.45594000000E+02  0.51100000000E-03 0. -1.
    9900012    2    1    2    0    0 -0.29746864510E+02  0.22641868726E+01 -0.27625385402E+02  0.50528875452E+02  0.30000047425E+02 0.  0.
        -12    1    1    2    0    0  0.29746864510E+02 -0.22641868726E+01  0.27625385402E+02  0.40659124548E+02  0.00000000000E+00 0.  1.
         11    1    3    3    0    0 -0.55831318963E+01  0.82630874402E+01 -0.12373940713E+02  0.15892274376E+02  0.51100000000E-03 0. -1.
        -11    1    3    3    0    0 -0.93382153445E+01 -0.22163196258E+01 -0.16706507658E+02  0.19267115427E+02  0.51100000000E-03 0.  1.
         12    1    3    3    0    0 -0.14825517269E+02 -0.37825809418E+01  0.14550629684E+01  0.15369485649E+02  0.00000000000E+00 0. -1.
</event>
<event>
 7    1  0.2584640E-011  0.5052886E+02  0.7816164E-02  0.1300439E+00
        -11   -1    0    0    0    0  0.00000000000E+00  0.00000000000E+00  0.45593999997E+02  0.45594000000E+02  0.51100000000E-03 0.  1.
         11   -1    0    0    0    0 -0.00000000000E+00 -0.00000000000E+00 -0.45593999997E+02  0.45594000000E+02  0.51100000000E-03 0. -1.
    9900012    2    1    2    0    0  0.17887115702E+01 -0.20239657262E+02 -0.35218212290E+02  0.50528859674E+02  0.29999999465E+02 0.  0.
        -12    1    1    2    0    0 -0.17887115702E+01  0.20239657262E+02  0.35218212290E+02  0.40659140326E+02  0.00000000000E+00 0.  1.
         11    1    3    3    0    0  0.22699103162E+01 -0.96007483533E+01 -0.27752788535E+02  0.29454102151E+02  0.51100000000E-03 0. -1.
        -11    1    3    3    0    0  0.70231838741E+01 -0.16816783731E+01 -0.58181946533E+01  0.92738634433E+01  0.51100000000E-03 0.  1.
        -12    1    3    3    0    0 -0.75043826201E+01 -0.89572305354E+01 -0.16472291021E+01  0.11800894080E+02  0.00000000000E+00 0.  1.
</event>
<event>
 7    1  0.2584640E-011  0.5052886E+02  0.7816164E-02  0.1300439E+00
        -11   -1    0    0    0    0  0.00000000000E+00  0.00000000000E+00  0.45593999997E+02  0.45594000000E+02  0.51100000000E-03 0.  1.
         11   -1    0    0    0    0 -0.00000000000E+00 -0.00000000000E+00 -0.45593999997E+02  0.45594000000E+02  0.51100000000E-03 0. -1.
    9900012    2    1    2    0    0 -0.10211602207E+02  0.37320723234E+02 -0.12492103742E+02  0.50528857631E+02  0.29999993254E+02 0.  0.
        -12    1    1    2    0    0  0.10211602207E+02 -0.37320723234E+02  0.12492103742E+02  0.40659142369E+02  0.00000000000E+00 0.  1.
         11    1    3    3    0    0 -0.11811543407E+02  0.98925060308E+01 -0.53659737681E+00  0.15416295607E+02  0.51100000000E-03 0. -1.
        -11    1    3    3    0    0 -0.31438105780E+01  0.32136184551E+01 -0.92565475072E+01  0.10290508274E+02  0.51100000000E-03 0.  1.
        -12    1    3    3    0    0  0.47437517777E+01  0.24214598748E+02 -0.26989588578E+01  0.24822053750E+02  0.00000000000E+00 0.  1.
</event>
<event>
 7    1  0.2584640E-011  0.5052884E+02  0.7816164E-02  0.1300439E+00
        -11   -1    0    0    0    0  0.00000000000E+00  0.00000000000E+00  0.45593999997E+02  0.45594000000E+02  0.51100000000E-03 0.  1.
         11   -1    0    0    0    0 -0.00000000000E+00 -0.00000000000E+00 -0.45593999997E+02  0.45594000000E+02  0.51100000000E-03 0. -1.
    9900012    2    1    2    0    0  0.11258235304E+02 -0.17317763962E+02 -0.35021628412E+02  0.50528840301E+02  0.29999940578E+02 0.  0.
        -12    1    1    2    0    0 -0.11258235304E+02  0.17317763962E+02  0.35021628412E+02  0.40659159699E+02  0.00000000000E+00 0.  1.
         11    1    3    3    0    0 -0.37163265806E+00  0.62839934777E+01 -0.45851678568E+01  0.77878398415E+01  0.51100000000E-03 0.  1.
        -11    1    3    3    0    0 -0.26907503478E+01 -0.76566555278E+01 -0.11906174127E+02  0.14409076789E+02  0.51100000000E-03 0. -1.
         12    1    3    3    0    0  0.14320618310E+02 -0.15945101912E+02 -0.18530286428E+02  0.28331923670E+02  0.00000000000E+00 0. -1.
</event>
<event>
 7    1  0.2584640E-011  0.5052886E+02  0.7816164E-02  0.1300439E+00
        -11   -1    0    0    0    0  0.00000000000E+00  0.00000000000E+00  0.45593999997E+02  0.45594000000E+02  0.51100000000E-03 0. -1.
         11   -1    0    0    0    0 -0.00000000000E+00 -0.00000000000E+00 -0.45593999997E+02  0.45594000000E+02  0.51100000000E-03 0.  1.
    9900012    2    1    2    0    0  0.46526789673E+01 -0.39544413159E+02 -0.82315196834E+01  0.50528856502E+02  0.29999989824E+02 0.  0.
        -12    1    1    2    0    0 -0.46526789673E+01  0.39544413159E+02  0.82315196834E+01  0.40659143498E+02  0.00000000000E+00 0.  1.
         11    1    3    3    0    0  0.15535416785E+02 -0.21045829083E+02 -0.70376026674E+00  0.26168136640E+02  0.51100000000E-03 0. -1.
        -11    1    3    3    0    0 -0.19728278132E+01 -0.27702434570E+00  0.11486732471E+01  0.22996179157E+01  0.51100000000E-03 0.  1.
        -12    1    3    3    0    0 -0.89099100042E+01 -0.18221559731E+02 -0.86764326637E+01  0.22061101946E+02  0.00000000000E+00 0.  1.
</event>
<event>
 7    1  0.2584640E-011  0.5052888E+02  0.7816164E-02  0.1300439E+00
        -11   -1    0    0    0    0  0.00000000000E+00  0.00000000000E+00  0.45593999997E+02  0.45594000000E+02  0.51100000000E-03 0.  1.
         11   -1    0    0    0    0 -0.00000000000E+00 -0.00000000000E+00 -0.45593999997E+02  0.45594000000E+02  0.51100000000E-03 0. -1.
    9900012    2    1    2    0    0 -0.22229513506E+02  0.32777964077E+02 -0.91987860305E+01  0.50528882152E+02  0.30000067790E+02 0.  0.
        -12    1    1    2    0    0  0.22229513506E+02 -0.32777964077E+02  0.91987860305E+01  0.40659117848E+02  0.00000000000E+00 0.  1.
         11    1    3    3    0    0 -0.11010335928E+02  0.16757614290E+02 -0.64535202271E+01  0.21064022824E+02  0.51100000000E-03 0. -1.
        -11    1    3    3    0    0 -0.12110023806E+02  0.18372900089E+02  0.39104034805E+01  0.22349661964E+02  0.51100000000E-03 0.  1.
        -12    1    3    3    0    0  0.89084622828E+00 -0.23525503019E+01 -0.66556692839E+01  0.71151973649E+01  0.00000000000E+00 0.  1.
</event>
<event>
 7    1  0.2584640E-011  0.5052886E+02  0.7816164E-02  0.1300439E+00
        -11   -1    0    0    0    0  0.00000000000E+00  0.00000000000E+00  0.45593999997E+02  0.45594000000E+02  0.51100000000E-03 0.  1.
         11   -1    0    0    0    0 -0.00000000000E+00 -0.00000000000E+00 -0.45593999997E+02  0.45594000000E+02  0.51100000000E-03 0. -1.
    9900012    2    1    2    0    0 -0.73289213714E+01 -0.39851600811E+02  0.33619379630E+01  0.50528858316E+02  0.29999995337E+02 0.  0.
        -12    1    1    2    0    0  0.73289213714E+01  0.39851600811E+02 -0.33619379630E+01  0.40659141684E+02  0.00000000000E+00 0.  1.
         11    1    3    3    0    0 -0.90244321068E+01 -0.13147474745E+02  0.38301131297E+01  0.16400190056E+02  0.51100000000E-03 0. -1.
        -11    1    3    3    0    0  0.87760870272E+00 -0.13059112750E+02  0.10358026129E+02  0.16691294989E+02  0.51100000000E-03 0.  1.
         12    1    3    3    0    0  0.81790203262E+00 -0.13645013315E+02 -0.10826201295E+02  0.17437373271E+02  0.00000000000E+00 0. -1.
</event>
<event>
 7    1  0.2584640E-011  0.5052887E+02  0.7816164E-02  0.1300439E+00
        -11   -1    0    0    0    0  0.00000000000E+00  0.00000000000E+00  0.45593999997E+02  0.45594000000E+02  0.51100000000E-03 0. -1.
         11   -1    0    0    0    0 -0.00000000000E+00 -0.00000000000E+00 -0.45593999997E+02  0.45594000000E+02  0.51100000000E-03 0.  1.
    9900012    2    1    2    0    0  0.23192715377E+01  0.27646418920E+02  0.29723078517E+02  0.50528869463E+02  0.30000029218E+02 0.  0.
        -12    1    1    2    0    0 -0.23192715377E+01 -0.27646418920E+02 -0.29723078517E+02  0.40659130537E+02  0.00000000000E+00 0.  1.
         11    1    3    3    0    0 -0.81433272393E+00  0.15143286198E+02  0.21430653881E+02  0.26253669852E+02  0.51100000000E-03 0. -1.
        -11    1    3    3    0    0  0.60667796965E+01 -0.30846519064E+01  0.37765127758E+01  0.77835044984E+01  0.51100000000E-03 0.  1.
        -12    1    3    3    0    0 -0.29331754348E+01  0.15587784629E+02  0.45159118595E+01  0.16491695112E+02  0.00000000000E+00 0.  1.
</event>
<event>
 7    1  0.2584640E-011  0.5052886E+02  0.7816164E-02  0.1300439E+00
        -11   -1    0    0    0    0  0.00000000000E+00  0.00000000000E+00  0.45593999997E+02  0.45594000000E+02  0.51100000000E-03 0.  1.
         11   -1    0    0    0    0 -0.00000000000E+00 -0.00000000000E+00 -0.45593999997E+02  0.45594000000E+02  0.51100000000E-03 0. -1.
    9900012    2    1    2    0    0  0.19156183976E+02 -0.18437915303E+02 -0.30761166409E+02  0.50528862477E+02  0.30000007986E+02 0.  0.
        -12    1    1    2    0    0 -0.19156183976E+02  0.18437915303E+02  0.30761166409E+02  0.40659137523E+02  0.00000000000E+00 0.  1.
         11    1    3    3    0    0  0.16998751280E+02 -0.10977219371E+02 -0.43344989951E+01  0.20694075771E+02  0.51100000000E-03 0. -1.
        -11    1    3    3    0    0  0.38819759947E+01 -0.79616320183E+01 -0.10200453335E+02  0.13509499270E+02  0.51100000000E-03 0.  1.
        -12    1    3    3    0    0 -0.17245432986E+01  0.50093608665E+00 -0.16226214079E+02  0.16325287437E+02  0.00000000000E+00 0.  1.
</event>
<event>
 7    1  0.2584640E-011  0.5052889E+02  0.7816164E-02  0.1300439E+00
        -11   -1    0    0    0    0  0.00000000000E+00  0.00000000000E+00  0.45593999997E+02  0.45594000000E+02  0.51100000000E-03 0.  1.
         11   -1    0    0    0    0 -0.00000000000E+00 -0.00000000000E+00 -0.45593999997E+02  0.45594000000E+02  0.51100000000E-03 0. -1.
    9900012    2    1    2    0    0  0.29099323964E+02  0.87456233360E+01  0.27016790098E+02  0.50528886263E+02  0.30000080284E+02 0.  0.
        -12    1    1    2    0    0 -0.29099323964E+02 -0.87456233360E+01 -0.27016790098E+02  0.40659113737E+02  0.00000000000E+00 0.  1.
         11    1    3    3    0    0  0.17437265293E+02  0.23977452035E+01  0.23794933806E+02  0.29597403232E+02  0.51100000000E-03 0. -1.
        -11    1    3    3    0    0  0.15172858839E+02  0.31191250210E+01  0.62985712621E+00  0.15502945092E+02  0.51100000000E-03 0.  1.
        -12    1    3    3    0    0 -0.35108001687E+01  0.32287531114E+01  0.25919991657E+01  0.54285379390E+01  0.00000000000E+00 0.  1.
</event>
<event>
 7    1  0.2584640E-011  0.5052897E+02  0.7816164E-02  0.1300438E+00
        -11   -1    0    0    0    0  0.00000000000E+00  0.00000000000E+00  0.45593999997E+02  0.45594000000E+02  0.51100000000E-03 0.  1.
         11   -1    0    0    0    0 -0.00000000000E+00 -0.00000000000E+00 -0.45593999997E+02  0.45594000000E+02  0.51100000000E-03 0. -1.
    9900012    2    1    2    0    0  0.26405705745E+02 -0.28106089729E+02 -0.12881899040E+02  0.50528967810E+02  0.30000328154E+02 0.  0.
        -12    1    1    2    0    0 -0.26405705745E+02  0.28106089729E+02  0.12881899040E+02  0.40659032190E+02  0.00000000000E+00 0.  1.
         11    1    3    3    0    0  0.59452162989E+01 -0.10154966512E+02 -0.10578885448E+02  0.15823455984E+02  0.51100000000E-03 0. -1.
        -11    1    3    3    0    0  0.94927617220E+01 -0.20966734826E+02  0.37962944118E+00  0.23018701378E+02  0.51100000000E-03 0.  1.
         12    1    3    3    0    0  0.10967727724E+02  0.30156116086E+01 -0.26826430337E+01  0.11686810448E+02  0.00000000000E+00 0. -1.
</event>
<event>
 7    1  0.2584640E-011  0.5052886E+02  0.7816164E-02  0.1300439E+00
        -11   -1    0    0    0    0  0.00000000000E+00  0.00000000000E+00  0.45593999997E+02  0.45594000000E+02  0.51100000000E-03 0.  1.
         11   -1    0    0    0    0 -0.00000000000E+00 -0.00000000000E+00 -0.45593999997E+02  0.45594000000E+02  0.51100000000E-03 0. -1.
    9900012    2    1    2    0    0  0.13874697739E+02 -0.21709873678E+02 -0.31453776629E+02  0.50528856911E+02  0.29999991068E+02 0.  0.
        -12    1    1    2    0    0 -0.13874697739E+02  0.21709873678E+02  0.31453776629E+02  0.40659143089E+02  0.00000000000E+00 0.  1.
         11    1    3    3    0    0  0.45603991427E+01 -0.19843605556E+02 -0.28627854184E+02  0.35130043514E+02  0.51100000000E-03 0. -1.
        -11    1    3    3    0    0  0.65762034032E+01 -0.38492648360E+00 -0.73736337404E+01  0.98876232936E+01  0.51100000000E-03 0.  1.
         12    1    3    3    0    0  0.27380951932E+01 -0.14813416379E+01  0.45477112956E+01  0.55111901041E+01  0.00000000000E+00 0. -1.
</event>
<event>
 7    1  0.2584640E-011  0.5052886E+02  0.7816164E-02  0.1300439E+00
        -11   -1    0    0    0    0  0.00000000000E+00  0.00000000000E+00  0.45593999997E+02  0.45594000000E+02  0.51100000000E-03 0.  1.
         11   -1    0    0    0    0 -0.00000000000E+00 -0.00000000000E+00 -0.45593999997E+02  0.45594000000E+02  0.51100000000E-03 0. -1.
    9900012    2    1    2    0    0  0.31562353836E+02  0.25105664250E+02 -0.51661658855E+01  0.50528858014E+02  0.29999994418E+02 0.  0.
        -12    1    1    2    0    0 -0.31562353836E+02 -0.25105664250E+02  0.51661658855E+01  0.40659141986E+02  0.00000000000E+00 0.  1.
         11    1    3    3    0    0  0.20334579705E+02  0.25995278606E+02 -0.92288058376E+01  0.34269819069E+02  0.51100000000E-03 0. -1.
        -11    1    3    3    0    0  0.75762696006E+01  0.96322904609E+00 -0.29100983802E+01  0.81729030400E+01  0.51100000000E-03 0.  1.
        -12    1    3    3    0    0  0.36515045307E+01 -0.18528434023E+01  0.69727383323E+01  0.80861359043E+01  0.00000000000E+00 0.  1.
</event>
<event>
 7    1  0.2584640E-011  0.5052888E+02  0.7816164E-02  0.1300439E+00
        -11   -1    0    0    0    0  0.00000000000E+00  0.00000000000E+00  0.45593999997E+02  0.45594000000E+02  0.51100000000E-03 0.  1.
         11   -1    0    0    0    0 -0.00000000000E+00 -0.00000000000E+00 -0.45593999997E+02  0.45594000000E+02  0.51100000000E-03 0. -1.
    9900012    2    1    2    0    0  0.12894964156E+02  0.38168686687E+02 -0.54804443333E+01  0.50528880308E+02  0.30000062185E+02 0.  0.
        -12    1    1    2    0    0 -0.12894964156E+02 -0.38168686687E+02  0.54804443333E+01  0.40659119692E+02  0.00000000000E+00 0.  1.
         11    1    3    3    0    0  0.11158884146E+01  0.17609484188E+02 -0.65693857356E+01  0.18828063350E+02  0.51100000000E-03 0. -1.
        -11    1    3    3    0    0 -0.29586594122E+01  0.11996043223E+02  0.63109074753E+01  0.13873942192E+02  0.51100000000E-03 0.  1.
        -12    1    3    3    0    0  0.14737735154E+02  0.85631592769E+01 -0.52219660730E+01  0.17826874766E+02  0.00000000000E+00 0.  1.
</event>
<event>
 7    1  0.2584640E-011  0.5052886E+02  0.7816164E-02  0.1300439E+00
        -11   -1    0    0    0    0  0.00000000000E+00  0.00000000000E+00  0.45593999997E+02  0.45594000000E+02  0.51100000000E-03 0.  1.
         11   -1    0    0    0    0 -0.00000000000E+00 -0.00000000000E+00 -0.45593999997E+02  0.45594000000E+02  0.51100000000E-03 0. -1.
    9900012    2    1    2    0    0  0.17099982877E+01 -0.77163120132E+01 -0.39883584570E+02  0.50528857321E+02  0.29999992313E+02 0.  0.
        -12    1    1    2    0    0 -0.17099982877E+01  0.77163120132E+01  0.39883584570E+02  0.40659142679E+02  0.00000000000E+00 0.  1.
         11    1    3    3    0    0  0.29516210056E+01 -0.29159471409E+01 -0.34563801377E+00  0.41634457108E+01  0.51100000000E-03 0. -1.
        -11    1    3    3    0    0  0.60475519259E+01  0.39973075426E+01 -0.31680330392E+02  0.32499149003E+02  0.51100000000E-03 0.  1.
         12    1    3    3    0    0 -0.72891746437E+01 -0.87976724149E+01 -0.78576161641E+01  0.13866262607E+02  0.00000000000E+00 0. -1.
</event>
<event>
 7    1  0.2584640E-011  0.5052879E+02  0.7816164E-02  0.1300439E+00
        -11   -1    0    0    0    0  0.00000000000E+00  0.00000000000E+00  0.45593999997E+02  0.45594000000E+02  0.51100000000E-03 0. -1.
         11   -1    0    0    0    0 -0.00000000000E+00 -0.00000000000E+00 -0.45593999997E+02  0.45594000000E+02  0.51100000000E-03 0.  1.
    9900012    2    1    2    0    0  0.30070232920E+02 -0.21318902716E+02 -0.17159750221E+02  0.50528787655E+02  0.29999780554E+02 0.  0.
        -12    1    1    2    0    0 -0.30070232920E+02  0.21318902716E+02  0.17159750221E+02  0.40659212345E+02  0.00000000000E+00 0.  1.
         11    1    3    3    0    0 -0.11959920839E+01 -0.76506917707E+00  0.13337187117E+01  0.19479563068E+01  0.51100000000E-03 0. -1.
        -11    1    3    3    0    0  0.97620515407E+01 -0.83631923744E+01 -0.20045311896E+02  0.23812920153E+02  0.51100000000E-03 0.  1.
         12    1    3    3    0    0  0.21504173463E+02 -0.12190641165E+02  0.15518429627E+01  0.24767911194E+02  0.00000000000E+00 0. -1.
</event>
<event>
 7    1  0.2584640E-011  0.5052884E+02  0.7816164E-02  0.1300439E+00
        -11   -1    0    0    0    0  0.00000000000E+00  0.00000000000E+00  0.45593999997E+02  0.45594000000E+02  0.51100000000E-03 0.  1.
         11   -1    0    0    0    0 -0.00000000000E+00 -0.00000000000E+00 -0.45593999997E+02  0.45594000000E+02  0.51100000000E-03 0. -1.
    9900012    2    1    2    0    0 -0.82389909653E+01  0.13445152040E+02 -0.37476848325E+02  0.50528840566E+02  0.29999941386E+02 0.  0.
        -12    1    1    2    0    0  0.82389909653E+01 -0.13445152040E+02  0.37476848325E+02  0.40659159434E+02  0.00000000000E+00 0.  1.
         11    1    3    3    0    0  0.29714367614E+01  0.67009107996E+01 -0.17487119753E+02  0.18961302684E+02  0.51100000000E-03 0. -1.
        -11    1    3    3    0    0 -0.38778063744E+01  0.11768204347E+02 -0.35673169135E+01  0.12893942999E+02  0.51100000000E-03 0.  1.
         12    1    3    3    0    0 -0.73326213523E+01 -0.50239631070E+01 -0.16422411658E+02  0.18673594883E+02  0.00000000000E+00 0. -1.
</event>
<event>
 7    1  0.2584640E-011  0.5052886E+02  0.7816164E-02  0.1300439E+00
        -11   -1    0    0    0    0  0.00000000000E+00  0.00000000000E+00  0.45593999997E+02  0.45594000000E+02  0.51100000000E-03 0.  1.
         11   -1    0    0    0    0 -0.00000000000E+00 -0.00000000000E+00 -0.45593999997E+02  0.45594000000E+02  0.51100000000E-03 0. -1.
    9900012    2    1    2    0    0  0.30183559980E+01 -0.40541545229E+02 -0.66177385602E+00  0.50528864408E+02  0.30000013854E+02 0.  0.
        -12    1    1    2    0    0 -0.30183559980E+01  0.40541545229E+02  0.66177385602E+00  0.40659135592E+02  0.00000000000E+00 0.  1.
         11    1    3    3    0    0 -0.49085120744E+01  0.20922388032E+01 -0.48030548124E-01  0.53360342193E+01  0.51100000000E-03 0. -1.
        -11    1    3    3    0    0 -0.21627476093E+01 -0.11659671692E+02  0.34848608062E+01  0.12360003086E+02  0.51100000000E-03 0.  1.
         12    1    3    3    0    0  0.10089615682E+02 -0.30974112340E+02 -0.40986041141E+01  0.32832827102E+02  0.00000000000E+00 0. -1.
</event>
<event>
 7    1  0.2584640E-011  0.5052884E+02  0.7816164E-02  0.1300439E+00
        -11   -1    0    0    0    0  0.00000000000E+00  0.00000000000E+00  0.45593999997E+02  0.45594000000E+02  0.51100000000E-03 0.  1.
         11   -1    0    0    0    0 -0.00000000000E+00 -0.00000000000E+00 -0.45593999997E+02  0.45594000000E+02  0.51100000000E-03 0. -1.
    9900012    2    1    2    0    0 -0.13868510488E+01  0.37710335769E+02 -0.15138522790E+02  0.50528835573E+02  0.29999926208E+02 0.  0.
        -12    1    1    2    0    0  0.13868510488E+01 -0.37710335769E+02  0.15138522790E+02  0.40659164427E+02  0.00000000000E+00 0.  1.
         11    1    3    3    0    0  0.11515394542E+02  0.12624133682E+02 -0.26136346126E+01  0.17285952355E+02  0.51100000000E-03 0. -1.
        -11    1    3    3    0    0 -0.67457076476E+00 -0.14322194487E+01 -0.81708755500E+00  0.17815528619E+01  0.51100000000E-03 0.  1.
         12    1    3    3    0    0 -0.12227674826E+02  0.26518421535E+02 -0.11707800622E+02  0.31461330356E+02  0.00000000000E+00 0. -1.
</event>
<event>
 7    1  0.2584640E-011  0.5052886E+02  0.7816164E-02  0.1300439E+00
        -11   -1    0    0    0    0  0.00000000000E+00  0.00000000000E+00  0.45593999997E+02  0.45594000000E+02  0.51100000000E-03 0.  1.
         11   -1    0    0    0    0 -0.00000000000E+00 -0.00000000000E+00 -0.45593999997E+02  0.45594000000E+02  0.51100000000E-03 0. -1.
    9900012    2    1    2    0    0  0.21436899911E+02 -0.33009797613E+02  0.10196961707E+02  0.50528862721E+02  0.30000008727E+02 0.  0.
        -12    1    1    2    0    0 -0.21436899911E+02  0.33009797613E+02 -0.10196961707E+02  0.40659137279E+02  0.00000000000E+00 0.  1.
         11    1    3    3    0    0 -0.22965607100E+01 -0.13629218453E+02  0.53156375744E+01  0.14808301382E+02  0.51100000000E-03 0. -1.
        -11    1    3    3    0    0  0.40122119597E+01  0.33296641435E+01  0.16541500803E+01  0.54699836258E+01  0.51100000000E-03 0.  1.
        -12    1    3    3    0    0  0.19721248661E+02 -0.22710243303E+02  0.32271740522E+01  0.30250577713E+02  0.00000000000E+00 0.  1.
</event>
<event>
 7    1  0.2584640E-011  0.5052887E+02  0.7816164E-02  0.1300439E+00
        -11   -1    0    0    0    0  0.00000000000E+00  0.00000000000E+00  0.45593999997E+02  0.45594000000E+02  0.51100000000E-03 0.  1.
         11   -1    0    0    0    0 -0.00000000000E+00 -0.00000000000E+00 -0.45593999997E+02  0.45594000000E+02  0.51100000000E-03 0. -1.
    9900012    2    1    2    0    0 -0.22731443415E+02  0.29759261181E+02 -0.15837707797E+02  0.50528866537E+02  0.30000020325E+02 0.  0.
        -12    1    1    2    0    0  0.22731443415E+02 -0.29759261181E+02  0.15837707797E+02  0.40659133463E+02  0.00000000000E+00 0.  1.
         11    1    3    3    0    0 -0.10000553232E+02  0.97591776211E+01 -0.12656813836E+02  0.18853316672E+02  0.51100000000E-03 0. -1.
        -11    1    3    3    0    0  0.47459674039E+01  0.84664208769E+01 -0.44919739648E+01  0.10694967014E+02  0.51100000000E-03 0.  1.
        -12    1    3    3    0    0 -0.17476857587E+02  0.11533662683E+02  0.13110800042E+01  0.20980582851E+02  0.00000000000E+00 0.  1.
</event>
<event>
 7    1  0.2584640E-011  0.5052886E+02  0.7816164E-02  0.1300439E+00
        -11   -1    0    0    0    0  0.00000000000E+00  0.00000000000E+00  0.45593999997E+02  0.45594000000E+02  0.51100000000E-03 0.  1.
         11   -1    0    0    0    0 -0.00000000000E+00 -0.00000000000E+00 -0.45593999997E+02  0.45594000000E+02  0.51100000000E-03 0. -1.
    9900012    2    1    2    0    0 -0.39246528162E+02  0.10599610252E+02  0.72383237587E+00  0.50528860270E+02  0.30000001278E+02 0.  0.
        -12    1    1    2    0    0  0.39246528162E+02 -0.10599610252E+02 -0.72383237587E+00  0.40659139730E+02  0.00000000000E+00 0.  1.
         11    1    3    3    0    0 -0.18555708014E+02 -0.68811671547E+01 -0.44910600902E+00  0.19795617136E+02  0.51100000000E-03 0. -1.
        -11    1    3    3    0    0  0.18937338035E+00  0.45723893223E+00 -0.33755193669E+01  0.34116068026E+01  0.51100000000E-03 0.  1.
         12    1    3    3    0    0 -0.20880193528E+02  0.17023538474E+02  0.45484577518E+01  0.27321636332E+02  0.00000000000E+00 0. -1.
</event>
<event>
 7    1  0.2584640E-011  0.5052887E+02  0.7816164E-02  0.1300439E+00
        -11   -1    0    0    0    0  0.00000000000E+00  0.00000000000E+00  0.45593999997E+02  0.45594000000E+02  0.51100000000E-03 0.  1.
         11   -1    0    0    0    0 -0.00000000000E+00 -0.00000000000E+00 -0.45593999997E+02  0.45594000000E+02  0.51100000000E-03 0. -1.
    9900012    2    1    2    0    0 -0.15373284948E+01  0.89417745642E+01 -0.39633905281E+02  0.50528866228E+02  0.30000019388E+02 0.  0.
        -12    1    1    2    0    0  0.15373284948E+01 -0.89417745642E+01  0.39633905281E+02  0.40659133772E+02  0.00000000000E+00 0.  1.
         11    1    3    3    0    0  0.10373953275E+02  0.34956293626E+01 -0.21935709251E+02  0.24515580185E+02  0.51100000000E-03 0. -1.
        -11    1    3    3    0    0  0.13782627907E+00  0.65428558639E+01 -0.37259020697E+01  0.75306245049E+01  0.51100000000E-03 0.  1.
         12    1    3    3    0    0 -0.12049108049E+02 -0.10967106623E+01 -0.13972293960E+02  0.18482661538E+02  0.00000000000E+00 0. -1.
</event>
<event>
 7    1  0.2584640E-011  0.5052886E+02  0.7816164E-02  0.1300439E+00
        -11   -1    0    0    0    0  0.00000000000E+00  0.00000000000E+00  0.45593999997E+02  0.45594000000E+02  0.51100000000E-03 0. -1.
         11   -1    0    0    0    0 -0.00000000000E+00 -0.00000000000E+00 -0.45593999997E+02  0.45594000000E+02  0.51100000000E-03 0.  1.
    9900012    2    1    2    0    0 -0.30893300654E+02 -0.22221487748E+02 -0.14316959705E+02  0.50528857384E+02  0.29999992506E+02 0.  0.
        -12    1    1    2    0    0  0.30893300654E+02  0.22221487748E+02  0.14316959705E+02  0.40659142616E+02  0.00000000000E+00 0.  1.
         11    1    3    3    0    0  0.29211958189E+01 -0.17222740150E+01  0.13502284792E+01  0.36500315070E+01  0.51100000000E-03 0. -1.
        -11    1    3    3    0    0 -0.11010200034E+02 -0.74330409505E+01  0.41999044440E+01  0.13932472866E+02  0.51100000000E-03 0.  1.
         12    1    3    3    0    0 -0.22804296439E+02 -0.13066172782E+02 -0.19867092628E+02  0.32946353012E+02  0.00000000000E+00 0. -1.
</event>
<event>
 7    1  0.2584640E-011  0.5052889E+02  0.7816164E-02  0.1300439E+00
        -11   -1    0    0    0    0  0.00000000000E+00  0.00000000000E+00  0.45593999997E+02  0.45594000000E+02  0.51100000000E-03 0. -1.
         11   -1    0    0    0    0 -0.00000000000E+00 -0.00000000000E+00 -0.45593999997E+02  0.45594000000E+02  0.51100000000E-03 0.  1.
    9900012    2    1    2    0    0 -0.24165293267E+02 -0.32698307637E+02  0.14939954315E+00  0.50528892272E+02  0.30000098549E+02 0.  0.
        -12    1    1    2    0    0  0.24165293267E+02  0.32698307637E+02 -0.14939954315E+00  0.40659107728E+02  0.00000000000E+00 0.  1.
         11    1    3    3    0    0 -0.68175153786E+01 -0.55465559380E+01 -0.88454762774E+01  0.12469372460E+02  0.51100000000E-03 0. -1.
        -11    1    3    3    0    0  0.34968846686E+01 -0.14411951887E+01  0.17954525580E+01  0.41867524534E+01  0.51100000000E-03 0.  1.
        -12    1    3    3    0    0 -0.20844662557E+02 -0.25710556511E+02  0.71994232626E+01  0.33872767358E+02  0.00000000000E+00 0.  1.
</event>
<event>
 7    1  0.2584640E-011  0.5052885E+02  0.7816164E-02  0.1300439E+00
        -11   -1    0    0    0    0  0.00000000000E+00  0.00000000000E+00  0.45593999997E+02  0.45594000000E+02  0.51100000000E-03 0.  1.
         11   -1    0    0    0    0 -0.00000000000E+00 -0.00000000000E+00 -0.45593999997E+02  0.45594000000E+02  0.51100000000E-03 0. -1.
    9900012    2    1    2    0    0  0.46621077551E-01  0.12840615725E+01 -0.40638838929E+02  0.50528853217E+02  0.29999979838E+02 0.  0.
        -12    1    1    2    0    0 -0.46621077551E-01 -0.12840615725E+01  0.40638838929E+02  0.40659146783E+02  0.00000000000E+00 0.  1.
         11    1    3    3    0    0 -0.83119015421E+01 -0.37163139900E+01 -0.13286498832E+02  0.16106823039E+02  0.51100000000E-03 0. -1.
        -11    1    3    3    0    0 -0.12596625593E+01  0.67986660189E+01 -0.19255494739E+01  0.71774891458E+01  0.51100000000E-03 0.  1.
         12    1    3    3    0    0  0.96181851790E+01 -0.17982904565E+01 -0.25426790623E+02  0.27244541033E+02  0.00000000000E+00 0. -1.
</event>
<event>
 7    1  0.3202104E-011  0.5052886E+02  0.7816164E-02  0.1300439E+00
        -11   -1    0    0    0    0  0.00000000000E+00  0.00000000000E+00  0.45593999997E+02  0.45594000000E+02  0.51100000000E-03 0. -1.
         11   -1    0    0    0    0 -0.00000000000E+00 -0.00000000000E+00 -0.45593999997E+02  0.45594000000E+02  0.51100000000E-03 0.  1.
    9900012    2    1    2    0    0 -0.10382456342E+02 -0.35826486090E+02  0.16181257774E+02  0.50528860702E+02  0.30000002591E+02 0.  0.
        -12    1    1    2    0    0  0.10382456342E+02  0.35826486090E+02 -0.16181257774E+02  0.40659139298E+02  0.00000000000E+00 0.  1.
         11    1    3    3    0    0  0.26410024805E+01 -0.21678320652E+02  0.75268221530E+01  0.23099297227E+02  0.51100000000E-03 0. -1.
        -11    1    3    3    0    0  0.11876624399E+01 -0.45157332572E+01  0.91302967666E+01  0.10254984555E+02  0.51100000000E-03 0.  1.
        -12    1    3    3    0    0 -0.14211121262E+02 -0.96324321811E+01 -0.47586114561E+00  0.17174578920E+02  0.00000000000E+00 0.  1.
</event>
<event>
 7    1  0.2584640E-011  0.5052886E+02  0.7816164E-02  0.1300439E+00
        -11   -1    0    0    0    0  0.00000000000E+00  0.00000000000E+00  0.45593999997E+02  0.45594000000E+02  0.51100000000E-03 0. -1.
         11   -1    0    0    0    0 -0.00000000000E+00 -0.00000000000E+00 -0.45593999997E+02  0.45594000000E+02  0.51100000000E-03 0.  1.
    9900012    2    1    2    0    0 -0.14031780404E+02 -0.35988590980E+02  0.12692373846E+02  0.50528857167E+02  0.29999991845E+02 0.  0.
        -12    1    1    2    0    0  0.14031780404E+02  0.35988590980E+02 -0.12692373846E+02  0.40659142833E+02  0.00000000000E+00 0.  1.
         11    1    3    3    0    0 -0.83573211448E+00 -0.13420112812E+01 -0.42410501346E+01  0.45261406243E+01  0.51100000000E-03 0.  1.
        -11    1    3    3    0    0 -0.76241647668E+01 -0.25166229179E+02  0.58770787067E+00  0.26302326519E+02  0.51100000000E-03 0. -1.
         12    1    3    3    0    0 -0.55718835229E+01 -0.94803505199E+01  0.16345716110E+02  0.19700390024E+02  0.00000000000E+00 0. -1.
</event>
<event>
 7    1  0.2584640E-011  0.5052886E+02  0.7816164E-02  0.1300439E+00
        -11   -1    0    0    0    0  0.00000000000E+00  0.00000000000E+00  0.45593999997E+02  0.45594000000E+02  0.51100000000E-03 0.  1.
         11   -1    0    0    0    0 -0.00000000000E+00 -0.00000000000E+00 -0.45593999997E+02  0.45594000000E+02  0.51100000000E-03 0. -1.
    9900012    2    1    2    0    0 -0.11182146216E+01 -0.32395952544E+02 -0.24544189358E+02  0.50528863555E+02  0.30000011262E+02 0.  0.
        -12    1    1    2    0    0  0.11182146216E+01  0.32395952544E+02  0.24544189358E+02  0.40659136445E+02  0.00000000000E+00 0.  1.
         11    1    3    3    0    0  0.13624050606E+01 -0.28957622219E+02 -0.27719035414E+02  0.40109163001E+02  0.51100000000E-03 0.  1.
        -11    1    3    3    0    0 -0.32966995744E+01 -0.23435215314E+01 -0.23843494455E+01  0.46952575852E+01  0.51100000000E-03 0. -1.
        -12    1    3    3    0    0  0.81607989212E+00 -0.10948087941E+01  0.55591955010E+01  0.57244429689E+01  0.00000000000E+00 0.  1.
</event>
<event>
 7    1  0.2584640E-011  0.5052886E+02  0.7816164E-02  0.1300439E+00
        -11   -1    0    0    0    0  0.00000000000E+00  0.00000000000E+00  0.45593999997E+02  0.45594000000E+02  0.51100000000E-03 0.  1.
         11   -1    0    0    0    0 -0.00000000000E+00 -0.00000000000E+00 -0.45593999997E+02  0.45594000000E+02  0.51100000000E-03 0. -1.
    9900012    2    1    2    0    0 -0.12948722073E+02 -0.38140611480E+02 -0.55489012945E+01  0.50528856465E+02  0.29999989711E+02 0.  0.
        -12    1    1    2    0    0  0.12948722073E+02  0.38140611480E+02  0.55489012945E+01  0.40659143535E+02  0.00000000000E+00 0.  1.
         11    1    3    3    0    0  0.35767388002E+01  0.11709409982E+01 -0.24032085751E+01  0.44653751223E+01  0.51100000000E-03 0. -1.
        -11    1    3    3    0    0 -0.23005550284E+01 -0.10401858509E+02  0.64393332145E+01  0.12448141484E+02  0.51100000000E-03 0.  1.
        -12    1    3    3    0    0 -0.14224905845E+02 -0.28909693969E+02 -0.95850259340E+01  0.33615339859E+02  0.00000000000E+00 0.  1.
</event>
<event>
 7    1  0.2584640E-011  0.5052885E+02  0.7816164E-02  0.1300439E+00
        -11   -1    0    0    0    0  0.00000000000E+00  0.00000000000E+00  0.45593999997E+02  0.45594000000E+02  0.51100000000E-03 0.  1.
         11   -1    0    0    0    0 -0.00000000000E+00 -0.00000000000E+00 -0.45593999997E+02  0.45594000000E+02  0.51100000000E-03 0. -1.
    9900012    2    1    2    0    0  0.15924001215E+02 -0.52532176202E+01 -0.37040470689E+02  0.50528848768E+02  0.29999966315E+02 0.  0.
        -12    1    1    2    0    0 -0.15924001215E+02  0.52532176202E+01  0.37040470689E+02  0.40659151232E+02  0.00000000000E+00 0.  1.
         11    1    3    3    0    0  0.82828281497E+01  0.77601619663E+01 -0.16726427633E+02  0.20213825405E+02  0.51100000000E-03 0. -1.
        -11    1    3    3    0    0  0.86015985266E+01 -0.34561533058E+01 -0.18280785395E+02  0.20496819456E+02  0.51100000000E-03 0.  1.
        -12    1    3    3    0    0 -0.96042546129E+00 -0.95572262807E+01 -0.20332576614E+01  0.98182039073E+01  0.00000000000E+00 0.  1.
</event>
<event>
 7    1  0.2584640E-011  0.5052886E+02  0.7816164E-02  0.1300439E+00
        -11   -1    0    0    0    0  0.00000000000E+00  0.00000000000E+00  0.45593999997E+02  0.45594000000E+02  0.51100000000E-03 0. -1.
         11   -1    0    0    0    0 -0.00000000000E+00 -0.00000000000E+00 -0.45593999997E+02  0.45594000000E+02  0.51100000000E-03 0.  1.
    9900012    2    1    2    0    0  0.20748065389E+02 -0.32563530769E+02  0.12739699175E+02  0.50528859716E+02  0.29999999594E+02 0.  0.
        -12    1    1    2    0    0 -0.20748065389E+02  0.32563530769E+02 -0.12739699175E+02  0.40659140284E+02  0.00000000000E+00 0.  1.
         11    1    3    3    0    0  0.33338459835E+01  0.41713682535E+01  0.56429059285E+00  0.53696616544E+01  0.51100000000E-03 0. -1.
        -11    1    3    3    0    0 -0.15818480343E+01 -0.10914322694E+02  0.58562853578E+01  0.12486823516E+02  0.51100000000E-03 0.  1.
        -12    1    3    3    0    0  0.18996067440E+02 -0.25820576329E+02  0.63191232242E+01  0.32672374546E+02  0.00000000000E+00 0.  1.
</event>
<event>
 7    1  0.2584640E-011  0.5052887E+02  0.7816164E-02  0.1300439E+00
        -11   -1    0    0    0    0  0.00000000000E+00  0.00000000000E+00  0.45593999997E+02  0.45594000000E+02  0.51100000000E-03 0. -1.
         11   -1    0    0    0    0 -0.00000000000E+00 -0.00000000000E+00 -0.45593999997E+02  0.45594000000E+02  0.51100000000E-03 0.  1.
    9900012    2    1    2    0    0 -0.29153505281E+02  0.78786692613E+01  0.27224341961E+02  0.50528867019E+02  0.30000021792E+02 0.  0.
        -12    1    1    2    0    0  0.29153505281E+02 -0.78786692613E+01 -0.27224341961E+02  0.40659132981E+02  0.00000000000E+00 0.  1.
         11    1    3    3    0    0 -0.37201210946E+01 -0.54566011977E+01  0.10760842436E+01  0.66911699388E+01  0.51100000000E-03 0. -1.
        -11    1    3    3    0    0 -0.21305455634E+01  0.58293170648E+01  0.16313594403E+02  0.17454326811E+02  0.51100000000E-03 0.  1.
         12    1    3    3    0    0 -0.23302838623E+02  0.75059533942E+01  0.98346633149E+01  0.26383370269E+02  0.00000000000E+00 0. -1.
</event>
<event>
 7    1  0.2584640E-011  0.5052885E+02  0.7816164E-02  0.1300439E+00
        -11   -1    0    0    0    0  0.00000000000E+00  0.00000000000E+00  0.45593999997E+02  0.45594000000E+02  0.51100000000E-03 0. -1.
         11   -1    0    0    0    0 -0.00000000000E+00 -0.00000000000E+00 -0.45593999997E+02  0.45594000000E+02  0.51100000000E-03 0.  1.
    9900012    2    1    2    0    0 -0.65539049877E+01  0.30254853475E+02  0.26360132380E+02  0.50528850865E+02  0.29999972688E+02 0.  0.
        -12    1    1    2    0    0  0.65539049877E+01 -0.30254853475E+02 -0.26360132380E+02  0.40659149135E+02  0.00000000000E+00 0.  1.
         11    1    3    3    0    0  0.16307316642E+00  0.14204383430E+02  0.80936252949E+01  0.16349246838E+02  0.51100000000E-03 0. -1.
        -11    1    3    3    0    0  0.49618357317E+01  0.52363103313E+01  0.16693381415E+02  0.18185371677E+02  0.51100000000E-03 0.  1.
        -12    1    3    3    0    0 -0.11678813886E+02  0.10814159713E+02  0.15731256698E+01  0.15994232350E+02  0.00000000000E+00 0.  1.
</event>
<event>
 7    1  0.3878437E-011  0.5052885E+02  0.7816164E-02  0.1300439E+00
        -11   -1    0    0    0    0  0.00000000000E+00  0.00000000000E+00  0.45593999997E+02  0.45594000000E+02  0.51100000000E-03 0. -1.
         11   -1    0    0    0    0 -0.00000000000E+00 -0.00000000000E+00 -0.45593999997E+02  0.45594000000E+02  0.51100000000E-03 0.  1.
    9900012    2    1    2    0    0 -0.37595776869E+02 -0.16462098315E+01  0.15395272859E+02  0.50528845169E+02  0.29999955375E+02 0.  0.
        -12    1    1    2    0    0  0.37595776869E+02  0.16462098315E+01 -0.15395272859E+02  0.40659154831E+02  0.00000000000E+00 0.  1.
         11    1    3    3    0    0 -0.51595668896E+01 -0.62984013552E+01  0.10785725681E+01  0.82130572362E+01  0.51100000000E-03 0. -1.
        -11    1    3    3    0    0  0.30325607501E+00  0.23417937089E+01 -0.40627261142E+01  0.46991175514E+01  0.51100000000E-03 0.  1.
         12    1    3    3    0    0 -0.32739466054E+02  0.23103978148E+01  0.18379426405E+02  0.37616670381E+02  0.00000000000E+00 0. -1.
</event>
<event>
 7    1  0.2584640E-011  0.5052886E+02  0.7816164E-02  0.1300439E+00
        -11   -1    0    0    0    0  0.00000000000E+00  0.00000000000E+00  0.45593999997E+02  0.45594000000E+02  0.51100000000E-03 0.  1.
         11   -1    0    0    0    0 -0.00000000000E+00 -0.00000000000E+00 -0.45593999997E+02  0.45594000000E+02  0.51100000000E-03 0. -1.
    9900012    2    1    2    0    0 -0.17032699242E+02  0.33703971400E+02 -0.15069666812E+02  0.50528863395E+02  0.30000010776E+02 0.  0.
        -12    1    1    2    0    0  0.17032699242E+02 -0.33703971400E+02  0.15069666812E+02  0.40659136605E+02  0.00000000000E+00 0.  1.
         11    1    3    3    0    0  0.37944092496E+01  0.16931870499E+01 -0.68534278070E+01  0.80146052246E+01  0.51100000000E-03 0. -1.
        -11    1    3    3    0    0 -0.44685248787E+01  0.37708371150E+01  0.46127611578E+01  0.74474487510E+01  0.51100000000E-03 0.  1.
         12    1    3    3    0    0 -0.16358583613E+02  0.28239947235E+02 -0.12829000163E+02  0.35066809420E+02  0.00000000000E+00 0. -1.
</event>
<event>
 7    1  0.2584640E-011  0.5052885E+02  0.7816164E-02  0.1300439E+00
        -11   -1    0    0    0    0  0.00000000000E+00  0.00000000000E+00  0.45593999997E+02  0.45594000000E+02  0.51100000000E-03 0.  1.
         11   -1    0    0    0    0 -0.00000000000E+00 -0.00000000000E+00 -0.45593999997E+02  0.45594000000E+02  0.51100000000E-03 0. -1.
    9900012    2    1    2    0    0  0.30601786762E+02 -0.25762456740E+02  0.72796067340E+01  0.50528853372E+02  0.29999980310E+02 0.  0.
        -12    1    1    2    0    0 -0.30601786762E+02  0.25762456740E+02 -0.72796067340E+01  0.40659146628E+02  0.00000000000E+00 0.  1.
         11    1    3    3    0    0  0.35021986829E+01 -0.58389378149E+00 -0.22620823215E+01  0.42099102428E+01  0.51100000000E-03 0. -1.
        -11    1    3    3    0    0 -0.19165761028E+01 -0.71655321898E+01  0.96434235559E+01  0.12166089497E+02  0.51100000000E-03 0.  1.
         12    1    3    3    0    0  0.29016164182E+02 -0.18013030769E+02 -0.10173450031E+00  0.34152853632E+02  0.00000000000E+00 0. -1.
</event>
<event>
 7    1  0.2584640E-011  0.5052887E+02  0.7816164E-02  0.1300439E+00
        -11   -1    0    0    0    0  0.00000000000E+00  0.00000000000E+00  0.45593999997E+02  0.45594000000E+02  0.51100000000E-03 0.  1.
         11   -1    0    0    0    0 -0.00000000000E+00 -0.00000000000E+00 -0.45593999997E+02  0.45594000000E+02  0.51100000000E-03 0. -1.
    9900012    2    1    2    0    0  0.31814118839E+02 -0.22532049569E+02  0.11547023684E+02  0.50528866079E+02  0.30000018934E+02 0.  0.
        -12    1    1    2    0    0 -0.31814118839E+02  0.22532049569E+02 -0.11547023684E+02  0.40659133921E+02  0.00000000000E+00 0.  1.
         11    1    3    3    0    0  0.66852608682E+01 -0.49064212720E+01 -0.29548887108E+00  0.82977705746E+01  0.51100000000E-03 0. -1.
        -11    1    3    3    0    0  0.12096965013E+02 -0.19311729662E+02  0.16667559724E+02  0.28232729455E+02  0.51100000000E-03 0.  1.
        -12    1    3    3    0    0  0.13031892957E+02  0.16861013650E+01 -0.48250471696E+01  0.13998366049E+02  0.00000000000E+00 0.  1.
</event>
<event>
 7    1  0.2584640E-011  0.5052885E+02  0.7816164E-02  0.1300439E+00
        -11   -1    0    0    0    0  0.00000000000E+00  0.00000000000E+00  0.45593999997E+02  0.45594000000E+02  0.51100000000E-03 0.  1.
         11   -1    0    0    0    0 -0.00000000000E+00 -0.00000000000E+00 -0.45593999997E+02  0.45594000000E+02  0.51100000000E-03 0. -1.
    9900012    2    1    2    0    0  0.38721664335E+01 -0.32400287045E+02  0.24256837487E+02  0.50528850496E+02  0.29999971569E+02 0.  0.
        -12    1    1    2    0    0 -0.38721664335E+01  0.32400287045E+02 -0.24256837487E+02  0.40659149504E+02  0.00000000000E+00 0.  1.
         11    1    3    3    0    0 -0.30008090840E+01  0.11523582603E+01 -0.13033294102E+01  0.34686384261E+01  0.51100000000E-03 0. -1.
        -11    1    3    3    0    0  0.89381525406E+01 -0.51516251735E+01  0.10988749934E+02  0.15072572379E+02  0.51100000000E-03 0.  1.
        -12    1    3    3    0    0 -0.20651770231E+01 -0.28401020132E+02  0.14571416964E+02  0.31987639691E+02  0.00000000000E+00 0.  1.
</event>
<event>
 7    1  0.2584640E-011  0.5052885E+02  0.7816164E-02  0.1300439E+00
        -11   -1    0    0    0    0  0.00000000000E+00  0.00000000000E+00  0.45593999997E+02  0.45594000000E+02  0.51100000000E-03 0.  1.
         11   -1    0    0    0    0 -0.00000000000E+00 -0.00000000000E+00 -0.45593999997E+02  0.45594000000E+02  0.51100000000E-03 0. -1.
    9900012    2    1    2    0    0  0.21358152799E+02  0.16520751066E+02 -0.30398359719E+02  0.50528853669E+02  0.29999981213E+02 0.  0.
        -12    1    1    2    0    0 -0.21358152799E+02 -0.16520751066E+02  0.30398359719E+02  0.40659146331E+02  0.00000000000E+00 0.  1.
         11    1    3    3    0    0  0.25293695713E+02  0.13451830789E+02 -0.17688474875E+02  0.33669050150E+02  0.51100000000E-03 0. -1.
        -11    1    3    3    0    0  0.28101059533E+01  0.32377886727E+01 -0.42287636020E+01  0.60218280298E+01  0.51100000000E-03 0.  1.
        -12    1    3    3    0    0 -0.67456488673E+01 -0.16886839522E+00 -0.84811212424E+01  0.10837975489E+02  0.00000000000E+00 0.  1.
</event>
<event>
 7    1  0.2584640E-011  0.5052886E+02  0.7816164E-02  0.1300439E+00
        -11   -1    0    0    0    0  0.00000000000E+00  0.00000000000E+00  0.45593999997E+02  0.45594000000E+02  0.51100000000E-03 0.  1.
         11   -1    0    0    0    0 -0.00000000000E+00 -0.00000000000E+00 -0.45593999997E+02  0.45594000000E+02  0.51100000000E-03 0. -1.
    9900012    2    1    2    0    0 -0.34276000957E+02  0.20305164901E+02 -0.81253937990E+01  0.50528856039E+02  0.29999988415E+02 0.  0.
        -12    1    1    2    0    0  0.34276000957E+02 -0.20305164901E+02  0.81253937990E+01  0.40659143961E+02  0.00000000000E+00 0.  1.
         11    1    3    3    0    0 -0.12274487567E+02  0.27130901464E+00 -0.18183980854E+01  0.12411415127E+02  0.51100000000E-03 0. -1.
        -11    1    3    3    0    0 -0.13660154551E+02  0.64570677862E+01 -0.13841900596E+02  0.20491260554E+02  0.51100000000E-03 0.  1.
        -12    1    3    3    0    0 -0.83413588403E+01  0.13576788100E+02  0.75349048819E+01  0.17626180357E+02  0.00000000000E+00 0.  1.
</event>
<event>
 7    1  0.2584640E-011  0.5052889E+02  0.7816164E-02  0.1300439E+00
        -11   -1    0    0    0    0  0.00000000000E+00  0.00000000000E+00  0.45593999997E+02  0.45594000000E+02  0.51100000000E-03 0.  1.
         11   -1    0    0    0    0 -0.00000000000E+00 -0.00000000000E+00 -0.45593999997E+02  0.45594000000E+02  0.51100000000E-03 0. -1.
    9900012    2    1    2    0    0  0.46921261315E+01 -0.25776853780E+02 -0.31091809954E+02  0.50528894197E+02  0.30000104402E+02 0.  0.
        -12    1    1    2    0    0 -0.46921261315E+01  0.25776853780E+02  0.31091809954E+02  0.40659105803E+02  0.00000000000E+00 0.  1.
         11    1    3    3    0    0 -0.18268263471E+01  0.21515089395E+01 -0.91923649428E+01  0.96159169465E+01  0.51100000000E-03 0. -1.
        -11    1    3    3    0    0  0.25927235088E+01 -0.24668899924E+00  0.26429535408E+01  0.37105625362E+01  0.51100000000E-03 0.  1.
         12    1    3    3    0    0  0.39262289698E+01 -0.27681673720E+02 -0.24542398552E+02  0.37202414715E+02  0.00000000000E+00 0. -1.
</event>
<event>
 7    1  0.2584640E-011  0.5052887E+02  0.7816164E-02  0.1300439E+00
        -11   -1    0    0    0    0  0.00000000000E+00  0.00000000000E+00  0.45593999997E+02  0.45594000000E+02  0.51100000000E-03 0.  1.
         11   -1    0    0    0    0 -0.00000000000E+00 -0.00000000000E+00 -0.45593999997E+02  0.45594000000E+02  0.51100000000E-03 0. -1.
    9900012    2    1    2    0    0 -0.31627419841E+02  0.94475783083E+01 -0.23740561653E+02  0.50528872005E+02  0.30000036947E+02 0.  0.
        -12    1    1    2    0    0  0.31627419841E+02 -0.94475783083E+01  0.23740561653E+02  0.40659127995E+02  0.00000000000E+00 0.  1.
         11    1    3    3    0    0 -0.77177293076E+01 -0.26338841554E+01 -0.15109320711E+02  0.17169515544E+02  0.51100000000E-03 0. -1.
        -11    1    3    3    0    0 -0.60619624347E+00 -0.32818560979E+01  0.15086521457E+01  0.36625243877E+01  0.51100000000E-03 0.  1.
         12    1    3    3    0    0 -0.23303494290E+02  0.15363318562E+02 -0.10139893087E+02  0.29696832073E+02  0.00000000000E+00 0. -1.
</event>
<event>
 7    1  0.2584640E-011  0.5052886E+02  0.7816164E-02  0.1300439E+00
        -11   -1    0    0    0    0  0.00000000000E+00  0.00000000000E+00  0.45593999997E+02  0.45594000000E+02  0.51100000000E-03 0.  1.
         11   -1    0    0    0    0 -0.00000000000E+00 -0.00000000000E+00 -0.45593999997E+02  0.45594000000E+02  0.51100000000E-03 0. -1.
    9900012    2    1    2    0    0 -0.11219660005E+02 -0.32488751417E+02 -0.21720178391E+02  0.50528857257E+02  0.29999992118E+02 0.  0.
        -12    1    1    2    0    0  0.11219660005E+02  0.32488751417E+02  0.21720178391E+02  0.40659142743E+02  0.00000000000E+00 0.  1.
         11    1    3    3    0    0 -0.17063318557E+01 -0.71213852064E+01 -0.58626539967E+01  0.93806400531E+01  0.51100000000E-03 0. -1.
        -11    1    3    3    0    0  0.65945274908E+01 -0.12040024847E+02  0.17190255045E+01  0.13834921037E+02  0.51100000000E-03 0.  1.
         12    1    3    3    0    0 -0.16107855641E+02 -0.13327341364E+02 -0.17576549899E+02  0.27313296167E+02  0.00000000000E+00 0. -1.
</event>
<event>
 7    1  0.2584640E-011  0.5052884E+02  0.7816164E-02  0.1300439E+00
        -11   -1    0    0    0    0  0.00000000000E+00  0.00000000000E+00  0.45593999997E+02  0.45594000000E+02  0.51100000000E-03 0. -1.
         11   -1    0    0    0    0 -0.00000000000E+00 -0.00000000000E+00 -0.45593999997E+02  0.45594000000E+02  0.51100000000E-03 0.  1.
    9900012    2    1    2    0    0  0.26869607895E+01 -0.34673593281E+02  0.21063931191E+02  0.50528843264E+02  0.29999949584E+02 0.  0.
        -12    1    1    2    0    0 -0.26869607895E+01  0.34673593281E+02 -0.21063931191E+02  0.40659156736E+02  0.00000000000E+00 0.  1.
         11    1    3    3    0    0  0.71231106945E+01 -0.24633580011E+02  0.81879681161E+01  0.26918298465E+02  0.51100000000E-03 0. -1.
        -11    1    3    3    0    0  0.46276896762E+01 -0.24067943806E+01 -0.10546716039E+01  0.53217011737E+01  0.51100000000E-03 0.  1.
         12    1    3    3    0    0 -0.90638395812E+01 -0.76332188890E+01  0.13930634679E+02  0.18288843624E+02  0.00000000000E+00 0. -1.
</event>
<event>
 7    1  0.2584640E-011  0.5052886E+02  0.7816164E-02  0.1300439E+00
        -11   -1    0    0    0    0  0.00000000000E+00  0.00000000000E+00  0.45593999997E+02  0.45594000000E+02  0.51100000000E-03 0.  1.
         11   -1    0    0    0    0 -0.00000000000E+00 -0.00000000000E+00 -0.45593999997E+02  0.45594000000E+02  0.51100000000E-03 0. -1.
    9900012    2    1    2    0    0  0.33576053882E+02  0.19619559937E+02 -0.11869580769E+02  0.50528862355E+02  0.30000007614E+02 0.  0.
        -12    1    1    2    0    0 -0.33576053882E+02 -0.19619559937E+02  0.11869580769E+02  0.40659137645E+02  0.00000000000E+00 0.  1.
         11    1    3    3    0    0  0.15054243692E+02  0.12251409058E+02 -0.63017789942E+01  0.20406854138E+02  0.51100000000E-03 0. -1.
        -11    1    3    3    0    0  0.50143508994E+00  0.79759838101E+01  0.48006556634E+01  0.93227705082E+01  0.51100000000E-03 0.  1.
         12    1    3    3    0    0  0.18020375100E+02 -0.60783293117E+00 -0.10368457438E+02  0.20799237709E+02  0.00000000000E+00 0. -1.
</event>
<event>
 7    1  0.2584640E-011  0.5052887E+02  0.7816164E-02  0.1300439E+00
        -11   -1    0    0    0    0  0.00000000000E+00  0.00000000000E+00  0.45593999997E+02  0.45594000000E+02  0.51100000000E-03 0. -1.
         11   -1    0    0    0    0 -0.00000000000E+00 -0.00000000000E+00 -0.45593999997E+02  0.45594000000E+02  0.51100000000E-03 0.  1.
    9900012    2    1    2    0    0  0.81826527093E+01 -0.13609397711E+02  0.37429846911E+02  0.50528868785E+02  0.30000027158E+02 0.  0.
        -12    1    1    2    0    0 -0.81826527093E+01  0.13609397711E+02 -0.37429846911E+02  0.40659131215E+02  0.00000000000E+00 0.  1.
         11    1    3    3    0    0 -0.20639484553E+01 -0.13618327314E+02  0.15680439066E+02  0.20870910177E+02  0.51100000000E-03 0. -1.
        -11    1    3    3    0    0  0.40141191040E+01 -0.40703839053E+01 -0.92525839435E+00  0.57911381157E+01  0.51100000000E-03 0.  1.
         12    1    3    3    0    0  0.62324820606E+01  0.40793135087E+01  0.22674666239E+02  0.23866820492E+02  0.00000000000E+00 0. -1.
</event>
<event>
 7    1  0.2584640E-011  0.5052886E+02  0.7816164E-02  0.1300439E+00
        -11   -1    0    0    0    0  0.00000000000E+00  0.00000000000E+00  0.45593999997E+02  0.45594000000E+02  0.51100000000E-03 0.  1.
         11   -1    0    0    0    0 -0.00000000000E+00 -0.00000000000E+00 -0.45593999997E+02  0.45594000000E+02  0.51100000000E-03 0. -1.
    9900012    2    1    2    0    0  0.15292237409E+02 -0.72334521039E+01 -0.36972828035E+02  0.50528863669E+02  0.30000011608E+02 0.  0.
        -12    1    1    2    0    0 -0.15292237409E+02  0.72334521039E+01  0.36972828035E+02  0.40659136331E+02  0.00000000000E+00 0.  1.
         11    1    3    3    0    0  0.74797506314E+01 -0.43697675959E+01 -0.20524932854E+01  0.89024865795E+01  0.51100000000E-03 0. -1.
        -11    1    3    3    0    0 -0.45082878014E+00 -0.97770518074E+01 -0.80367270471E+01  0.12664239832E+02  0.51100000000E-03 0.  1.
         12    1    3    3    0    0  0.82633155578E+01  0.69133672994E+01 -0.26883607702E+02  0.28962137257E+02  0.00000000000E+00 0. -1.
</event>
<event>
 7    1  0.2584640E-011  0.5052882E+02  0.7816164E-02  0.1300439E+00
        -11   -1    0    0    0    0  0.00000000000E+00  0.00000000000E+00  0.45593999997E+02  0.45594000000E+02  0.51100000000E-03 0.  1.
         11   -1    0    0    0    0 -0.00000000000E+00 -0.00000000000E+00 -0.45593999997E+02  0.45594000000E+02  0.51100000000E-03 0. -1.
    9900012    2    1    2    0    0 -0.31651520149E+02  0.84175461899E+01 -0.24093465255E+02  0.50528820476E+02  0.29999880317E+02 0.  0.
        -12    1    1    2    0    0  0.31651520149E+02 -0.84175461899E+01  0.24093465255E+02  0.40659179524E+02  0.00000000000E+00 0.  1.
         11    1    3    3    0    0 -0.92202085107E+00  0.35520664648E+00 -0.56644852361E+01  0.57500163011E+01  0.51100000000E-03 0. -1.
        -11    1    3    3    0    0 -0.23825420083E+02  0.93403350972E+00 -0.23634683025E+02  0.33572627283E+02  0.51100000000E-03 0.  1.
        -12    1    3    3    0    0 -0.69040792152E+01  0.71283060337E+01  0.52057030068E+01  0.11206176891E+02  0.00000000000E+00 0.  1.
</event>
<event>
 7    1  0.2584640E-011  0.5052886E+02  0.7816164E-02  0.1300439E+00
        -11   -1    0    0    0    0  0.00000000000E+00  0.00000000000E+00  0.45593999997E+02  0.45594000000E+02  0.51100000000E-03 0. -1.
         11   -1    0    0    0    0 -0.00000000000E+00 -0.00000000000E+00 -0.45593999997E+02  0.45594000000E+02  0.51100000000E-03 0.  1.
    9900012    2    1    2    0    0  0.48474266407E+01 -0.38835613533E+02  0.11021040300E+02  0.50528858927E+02  0.29999997195E+02 0.  0.
        -12    1    1    2    0    0 -0.48474266407E+01  0.38835613533E+02 -0.11021040300E+02  0.40659141073E+02  0.00000000000E+00 0.  1.
         11    1    3    3    0    0  0.43044507100E+01 -0.23284608866E+02  0.24527402840E+01  0.23805823681E+02  0.51100000000E-03 0. -1.
        -11    1    3    3    0    0  0.51770601997E+01  0.16924098488E+01  0.68990229012E+01  0.87899215389E+01  0.51100000000E-03 0.  1.
         12    1    3    3    0    0 -0.46340842691E+01 -0.17243414515E+02  0.16692771145E+01  0.17933113707E+02  0.00000000000E+00 0. -1.
</event>
<event>
 7    1  0.2584640E-011  0.5052886E+02  0.7816164E-02  0.1300439E+00
        -11   -1    0    0    0    0  0.00000000000E+00  0.00000000000E+00  0.45593999997E+02  0.45594000000E+02  0.51100000000E-03 0.  1.
         11   -1    0    0    0    0 -0.00000000000E+00 -0.00000000000E+00 -0.45593999997E+02  0.45594000000E+02  0.51100000000E-03 0. -1.
    9900012    2    1    2    0    0  0.14683043285E+02 -0.91678916124E+00 -0.37904268724E+02  0.50528857732E+02  0.29999993562E+02 0.  0.
        -12    1    1    2    0    0 -0.14683043285E+02  0.91678916124E+00  0.37904268724E+02  0.40659142268E+02  0.00000000000E+00 0.  1.
         11    1    3    3    0    0 -0.44711540760E+01 -0.24259781798E+01 -0.18860207637E+01  0.54252800372E+01  0.51100000000E-03 0. -1.
        -11    1    3    3    0    0  0.72598867364E+01 -0.76388412800E+01 -0.76874664794E+01  0.13044347153E+02  0.51100000000E-03 0.  1.
         12    1    3    3    0    0  0.11894310625E+02  0.91480302986E+01 -0.28330781481E+02  0.32059230541E+02  0.00000000000E+00 0. -1.
</event>
<event>
 7    1  0.2584640E-011  0.5052887E+02  0.7816164E-02  0.1300439E+00
        -11   -1    0    0    0    0  0.00000000000E+00  0.00000000000E+00  0.45593999997E+02  0.45594000000E+02  0.51100000000E-03 0.  1.
         11   -1    0    0    0    0 -0.00000000000E+00 -0.00000000000E+00 -0.45593999997E+02  0.45594000000E+02  0.51100000000E-03 0. -1.
    9900012    2    1    2    0    0 -0.26298150408E+02  0.56958798783E+01 -0.30481621071E+02  0.50528868362E+02  0.30000025872E+02 0.  0.
        -12    1    1    2    0    0  0.26298150408E+02 -0.56958798783E+01  0.30481621071E+02  0.40659131638E+02  0.00000000000E+00 0.  1.
         11    1    3    3    0    0 -0.78728902690E+01 -0.45066601804E+00 -0.68987406397E+01  0.10477505606E+02  0.51100000000E-03 0. -1.
        -11    1    3    3    0    0  0.32889361332E+01  0.63304946541E+01  0.10531876127E+01  0.72112043282E+01  0.51100000000E-03 0.  1.
         12    1    3    3    0    0 -0.21714196272E+02 -0.18394875778E+00 -0.24636068044E+02  0.32840158428E+02  0.00000000000E+00 0. -1.
</event>
<event>
 7    1  0.2584640E-011  0.5052887E+02  0.7816164E-02  0.1300439E+00
        -11   -1    0    0    0    0  0.00000000000E+00  0.00000000000E+00  0.45593999997E+02  0.45594000000E+02  0.51100000000E-03 0.  1.
         11   -1    0    0    0    0 -0.00000000000E+00 -0.00000000000E+00 -0.45593999997E+02  0.45594000000E+02  0.51100000000E-03 0. -1.
    9900012    2    1    2    0    0  0.38926092030E+02 -0.10849757464E+02  0.44952258558E+01  0.50528869005E+02  0.30000027828E+02 0.  0.
        -12    1    1    2    0    0 -0.38926092030E+02  0.10849757464E+02 -0.44952258558E+01  0.40659130995E+02  0.00000000000E+00 0.  1.
         11    1    3    3    0    0  0.20767266134E+02  0.45057639537E+01  0.20194386841E-01  0.21250450809E+02  0.51100000000E-03 0. -1.
        -11    1    3    3    0    0  0.20964752477E+02 -0.13348100259E+02  0.59024907977E+01  0.25544706395E+02  0.51100000000E-03 0.  1.
        -12    1    3    3    0    0 -0.28059265806E+01 -0.20074211585E+01 -0.14274593286E+01  0.37337118017E+01  0.00000000000E+00 0.  1.
</event>
<event>
 7    1  0.2584640E-011  0.5052886E+02  0.7816164E-02  0.1300439E+00
        -11   -1    0    0    0    0  0.00000000000E+00  0.00000000000E+00  0.45593999997E+02  0.45594000000E+02  0.51100000000E-03 0.  1.
         11   -1    0    0    0    0 -0.00000000000E+00 -0.00000000000E+00 -0.45593999997E+02  0.45594000000E+02  0.51100000000E-03 0. -1.
    9900012    2    1    2    0    0  0.77864890344E+01  0.70167122593E+00 -0.39900420221E+02  0.50528864645E+02  0.30000014576E+02 0.  0.
        -12    1    1    2    0    0 -0.77864890344E+01 -0.70167122593E+00  0.39900420221E+02  0.40659135355E+02  0.00000000000E+00 0.  1.
         11    1    3    3    0    0  0.19644465653E+01  0.52085512917E+01 -0.15532666821E+02  0.16500054415E+02  0.51100000000E-03 0. -1.
        -11    1    3    3    0    0  0.42766404958E+01  0.74732903300E+01 -0.23666296388E+01  0.89297625050E+01  0.51100000000E-03 0.  1.
         12    1    3    3    0    0  0.15454019732E+01 -0.11980170396E+02 -0.22001123761E+02  0.25099047726E+02  0.00000000000E+00 0. -1.
</event>
<event>
 7    1  0.2584640E-011  0.5052886E+02  0.7816164E-02  0.1300439E+00
        -11   -1    0    0    0    0  0.00000000000E+00  0.00000000000E+00  0.45593999997E+02  0.45594000000E+02  0.51100000000E-03 0.  1.
         11   -1    0    0    0    0 -0.00000000000E+00 -0.00000000000E+00 -0.45593999997E+02  0.45594000000E+02  0.51100000000E-03 0. -1.
    9900012    2    1    2    0    0 -0.33585975118E+01 -0.14360152524E+02 -0.37890261167E+02  0.50528855284E+02  0.29999986121E+02 0.  0.
        -12    1    1    2    0    0  0.33585975118E+01  0.14360152524E+02  0.37890261167E+02  0.40659144716E+02  0.00000000000E+00 0.  1.
         11    1    3    3    0    0  0.11307202893E+01 -0.11771884637E+02 -0.26428585854E+02  0.28953858927E+02  0.51100000000E-03 0. -1.
        -11    1    3    3    0    0 -0.29605387934E+01 -0.67398982503E+01  0.18138983989E+01  0.75816387433E+01  0.51100000000E-03 0.  1.
         12    1    3    3    0    0 -0.15287790076E+01  0.41516303625E+01 -0.13275573712E+02  0.13993357614E+02  0.00000000000E+00 0. -1.
</event>
<event>
 7    1  0.2855544E-011  0.5052886E+02  0.7816164E-02  0.1300439E+00
        -11   -1    0    0    0    0  0.00000000000E+00  0.00000000000E+00  0.45593999997E+02  0.45594000000E+02  0.51100000000E-03 0. -1.
         11   -1    0    0    0    0 -0.00000000000E+00 -0.00000000000E+00 -0.45593999997E+02  0.45594000000E+02  0.51100000000E-03 0.  1.
    9900012    2    1    2    0    0  0.26183220028E+02 -0.24846059863E+02  0.18715717558E+02  0.50528858526E+02  0.29999995974E+02 0.  0.
        -12    1    1    2    0    0 -0.26183220028E+02  0.24846059863E+02 -0.18715717558E+02  0.40659141474E+02  0.00000000000E+00 0.  1.
         11    1    3    3    0    0  0.12519957864E+02 -0.29050443054E+01  0.13333658140E+02  0.18519586037E+02  0.51100000000E-03 0. -1.
        -11    1    3    3    0    0  0.50025609347E+01 -0.15339621350E+02  0.11220925225E+02  0.19652958104E+02  0.51100000000E-03 0.  1.
        -12    1    3    3    0    0  0.86607012292E+01 -0.66013942071E+01 -0.58388658068E+01  0.12356314384E+02  0.00000000000E+00 0.  1.
</event>
<event>
 7    1  0.2584640E-011  0.5052886E+02  0.7816164E-02  0.1300439E+00
        -11   -1    0    0    0    0  0.00000000000E+00  0.00000000000E+00  0.45593999997E+02  0.45594000000E+02  0.51100000000E-03 0.  1.
         11   -1    0    0    0    0 -0.00000000000E+00 -0.00000000000E+00 -0.45593999997E+02  0.45594000000E+02  0.51100000000E-03 0. -1.
    9900012    2    1    2    0    0  0.62590423520E+01  0.26851451929E+02 -0.29882932059E+02  0.50528859450E+02  0.29999998784E+02 0.  0.
        -12    1    1    2    0    0 -0.62590423520E+01 -0.26851451929E+02  0.29882932059E+02  0.40659140550E+02  0.00000000000E+00 0.  1.
         11    1    3    3    0    0  0.52620932558E+01  0.83205036726E+01 -0.22653446784E+01  0.10102088575E+02  0.51100000000E-03 0. -1.
        -11    1    3    3    0    0 -0.10459632037E+00  0.12750018290E+01 -0.22299769766E+02  0.22336434405E+02  0.51100000000E-03 0.  1.
         12    1    3    3    0    0  0.11015454165E+01  0.17255946427E+02 -0.53178176139E+01  0.18090336470E+02  0.00000000000E+00 0. -1.
</event>
<event>
 7    1  0.2584640E-011  0.5052885E+02  0.7816164E-02  0.1300439E+00
        -11   -1    0    0    0    0  0.00000000000E+00  0.00000000000E+00  0.45593999997E+02  0.45594000000E+02  0.51100000000E-03 0.  1.
         11   -1    0    0    0    0 -0.00000000000E+00 -0.00000000000E+00 -0.45593999997E+02  0.45594000000E+02  0.51100000000E-03 0. -1.
    9900012    2    1    2    0    0  0.27544287425E+02  0.11603509519E+02 -0.27565150242E+02  0.50528847146E+02  0.29999961385E+02 0.  0.
        -12    1    1    2    0    0 -0.27544287425E+02 -0.11603509519E+02  0.27565150242E+02  0.40659152854E+02  0.00000000000E+00 0.  1.
         11    1    3    3    0    0  0.52594099182E+01 -0.13469725412E+01 -0.18739204810E+01  0.57434576645E+01  0.51100000000E-03 0. -1.
        -11    1    3    3    0    0 -0.46484651613E+01 -0.56517197618E+00  0.69195414326E+00  0.47335450263E+01  0.51100000000E-03 0.  1.
         12    1    3    3    0    0  0.26933342668E+02  0.13515654037E+02 -0.26383183905E+02  0.40051844455E+02  0.00000000000E+00 0. -1.
</event>
<event>
 7    1  0.2584640E-011  0.5052885E+02  0.7816164E-02  0.1300439E+00
        -11   -1    0    0    0    0  0.00000000000E+00  0.00000000000E+00  0.45593999997E+02  0.45594000000E+02  0.51100000000E-03 0.  1.
         11   -1    0    0    0    0 -0.00000000000E+00 -0.00000000000E+00 -0.45593999997E+02  0.45594000000E+02  0.51100000000E-03 0. -1.
    9900012    2    1    2    0    0  0.13374078290E+02  0.56522579387E+00 -0.38392455353E+02  0.50528854924E+02  0.29999985027E+02 0.  0.
        -12    1    1    2    0    0 -0.13374078290E+02 -0.56522579387E+00  0.38392455353E+02  0.40659145076E+02  0.00000000000E+00 0.  1.
         11    1    3    3    0    0  0.38301164200E+01 -0.31032972724E+01 -0.47471228325E+01  0.68436409315E+01  0.51100000000E-03 0. -1.
        -11    1    3    3    0    0  0.45103327042E+01  0.90533626460E+01 -0.93857277158E+00  0.10158119679E+02  0.51100000000E-03 0.  1.
         12    1    3    3    0    0  0.50336291656E+01 -0.53848395797E+01 -0.32706759749E+02  0.33527094314E+02  0.00000000000E+00 0. -1.
</event>
<event>
 7    1  0.2584640E-011  0.5052886E+02  0.7816164E-02  0.1300439E+00
        -11   -1    0    0    0    0  0.00000000000E+00  0.00000000000E+00  0.45593999997E+02  0.45594000000E+02  0.51100000000E-03 0.  1.
         11   -1    0    0    0    0 -0.00000000000E+00 -0.00000000000E+00 -0.45593999997E+02  0.45594000000E+02  0.51100000000E-03 0. -1.
    9900012    2    1    2    0    0 -0.28413071290E+02  0.15752623777E+01 -0.29041038124E+02  0.50528856293E+02  0.29999989188E+02 0.  0.
        -12    1    1    2    0    0  0.28413071290E+02 -0.15752623777E+01  0.29041038124E+02  0.40659143707E+02  0.00000000000E+00 0.  1.
         11    1    3    3    0    0 -0.11303800526E+02  0.33266440846E+01 -0.12222827109E+02  0.16977631460E+02  0.51100000000E-03 0. -1.
        -11    1    3    3    0    0 -0.17851704042E+02  0.33448833073E+01 -0.24983160162E+01  0.18333389341E+02  0.51100000000E-03 0.  1.
        -12    1    3    3    0    0  0.74243327911E+00 -0.50962650141E+01 -0.14319894999E+02  0.15217835492E+02  0.00000000000E+00 0.  1.
</event>
<event>
 7    1  0.2584640E-011  0.5052885E+02  0.7816164E-02  0.1300439E+00
        -11   -1    0    0    0    0  0.00000000000E+00  0.00000000000E+00  0.45593999997E+02  0.45594000000E+02  0.51100000000E-03 0.  1.
         11   -1    0    0    0    0 -0.00000000000E+00 -0.00000000000E+00 -0.45593999997E+02  0.45594000000E+02  0.51100000000E-03 0. -1.
    9900012    2    1    2    0    0  0.72099562606E+00  0.39942545350E+02 -0.75656907570E+01  0.50528850472E+02  0.29999971495E+02 0.  0.
        -12    1    1    2    0    0 -0.72099562606E+00 -0.39942545350E+02  0.75656907570E+01  0.40659149528E+02  0.00000000000E+00 0.  1.
         11    1    3    3    0    0 -0.42196186827E+00  0.26842313965E+02 -0.57810141937E+01  0.27461026860E+02  0.51100000000E-03 0. -1.
        -11    1    3    3    0    0 -0.84607875422E+01  0.58292110737E+01  0.19469887008E+01  0.10457312888E+02  0.51100000000E-03 0.  1.
         12    1    3    3    0    0  0.96037450365E+01  0.72710203108E+01 -0.37316652640E+01  0.12610510724E+02  0.00000000000E+00 0. -1.
</event>
<event>
 7    1  0.2584640E-011  0.5052885E+02  0.7816164E-02  0.1300439E+00
        -11   -1    0    0    0    0  0.00000000000E+00  0.00000000000E+00  0.45593999997E+02  0.45594000000E+02  0.51100000000E-03 0.  1.
         11   -1    0    0    0    0 -0.00000000000E+00 -0.00000000000E+00 -0.45593999997E+02  0.45594000000E+02  0.51100000000E-03 0. -1.
    9900012    2    1    2    0    0 -0.28353755428E+02 -0.25544933691E+02  0.14024527860E+02  0.50528850159E+02  0.29999970542E+02 0.  0.
        -12    1    1    2    0    0  0.28353755428E+02  0.25544933691E+02 -0.14024527860E+02  0.40659149841E+02  0.00000000000E+00 0.  1.
         11    1    3    3    0    0 -0.23053736647E+02 -0.11765111686E+02  0.57328452623E+01  0.26509585841E+02  0.51100000000E-03 0. -1.
        -11    1    3    3    0    0 -0.76688664307E+01 -0.37622542120E+01  0.10454703258E+02  0.13500625525E+02  0.51100000000E-03 0.  1.
        -12    1    3    3    0    0  0.23688476504E+01 -0.10017567793E+02 -0.21630206605E+01  0.10518638793E+02  0.00000000000E+00 0.  1.
</event>
<event>
 7    1  0.2584640E-011  0.5052885E+02  0.7816164E-02  0.1300439E+00
        -11   -1    0    0    0    0  0.00000000000E+00  0.00000000000E+00  0.45593999997E+02  0.45594000000E+02  0.51100000000E-03 0. -1.
         11   -1    0    0    0    0 -0.00000000000E+00 -0.00000000000E+00 -0.45593999997E+02  0.45594000000E+02  0.51100000000E-03 0.  1.
    9900012    2    1    2    0    0  0.35905476471E+02  0.31037278381E+01  0.18823650163E+02  0.50528853765E+02  0.29999981506E+02 0.  0.
        -12    1    1    2    0    0 -0.35905476471E+02 -0.31037278381E+01 -0.18823650163E+02  0.40659146235E+02  0.00000000000E+00 0.  1.
         11    1    3    3    0    0  0.20374627898E+02  0.32788099804E+01 -0.98121078929E+00  0.20660078212E+02  0.51100000000E-03 0. -1.
        -11    1    3    3    0    0  0.13571968963E+02 -0.66996329116E+01  0.10875716343E+02  0.18637720593E+02  0.51100000000E-03 0.  1.
         12    1    3    3    0    0  0.19588796099E+01  0.65245507693E+01  0.89291446085E+01  0.11231054960E+02  0.00000000000E+00 0. -1.
</event>
<event>
 7    1  0.2584640E-011  0.5052885E+02  0.7816164E-02  0.1300439E+00
        -11   -1    0    0    0    0  0.00000000000E+00  0.00000000000E+00  0.45593999997E+02  0.45594000000E+02  0.51100000000E-03 0. -1.
         11   -1    0    0    0    0 -0.00000000000E+00 -0.00000000000E+00 -0.45593999997E+02  0.45594000000E+02  0.51100000000E-03 0.  1.
    9900012    2    1    2    0    0 -0.34058956936E+02 -0.18868845439E+02  0.11709853111E+02  0.50528849300E+02  0.29999967931E+02 0.  0.
        -12    1    1    2    0    0  0.34058956936E+02  0.18868845439E+02 -0.11709853111E+02  0.40659150700E+02  0.00000000000E+00 0.  1.
         11    1    3    3    0    0 -0.61815747464E+01 -0.12741345219E+02  0.50011706719E+01  0.15018836596E+02  0.51100000000E-03 0. -1.
        -11    1    3    3    0    0 -0.49646478785E+01 -0.41121902552E+01 -0.63596881840E+01  0.90555768072E+01  0.51100000000E-03 0.  1.
         12    1    3    3    0    0 -0.22912734311E+02 -0.20153099646E+01  0.13068370623E+02  0.26454435897E+02  0.00000000000E+00 0. -1.
</event>
<event>
 7    1  0.2584640E-011  0.5052887E+02  0.7816164E-02  0.1300439E+00
        -11   -1    0    0    0    0  0.00000000000E+00  0.00000000000E+00  0.45593999997E+02  0.45594000000E+02  0.51100000000E-03 0. -1.
         11   -1    0    0    0    0 -0.00000000000E+00 -0.00000000000E+00 -0.45593999997E+02  0.45594000000E+02  0.51100000000E-03 0.  1.
    9900012    2    1    2    0    0 -0.49838344129E+01 -0.21672692125E+02  0.34038521873E+02  0.50528866208E+02  0.30000019327E+02 0.  0.
        -12    1    1    2    0    0  0.49838344129E+01  0.21672692125E+02 -0.34038521873E+02  0.40659133792E+02  0.00000000000E+00 0.  1.
         11    1    3    3    0    0 -0.16017581807E+02 -0.15950402038E+02  0.18975262420E+02  0.29513367078E+02  0.51100000000E-03 0. -1.
        -11    1    3    3    0    0 -0.80738251486E+00 -0.10103688450E+01  0.37764993471E+01  0.39918240578E+01  0.51100000000E-03 0.  1.
        -12    1    3    3    0    0  0.11841129908E+02 -0.47119212418E+01  0.11286760106E+02  0.17023675073E+02  0.00000000000E+00 0.  1.
</event>
<event>
 7    1  0.2584640E-011  0.5052885E+02  0.7816164E-02  0.1300439E+00
        -11   -1    0    0    0    0  0.00000000000E+00  0.00000000000E+00  0.45593999997E+02  0.45594000000E+02  0.51100000000E-03 0.  1.
         11   -1    0    0    0    0 -0.00000000000E+00 -0.00000000000E+00 -0.45593999997E+02  0.45594000000E+02  0.51100000000E-03 0. -1.
    9900012    2    1    2    0    0 -0.15683410112E+02  0.36189020694E+02 -0.98768179350E+01  0.50528854607E+02  0.29999984065E+02 0.  0.
        -12    1    1    2    0    0  0.15683410112E+02 -0.36189020694E+02  0.98768179350E+01  0.40659145393E+02  0.00000000000E+00 0.  1.
         11    1    3    3    0    0  0.83130389210E+00  0.12403561515E+02  0.20083080061E+01  0.12592565494E+02  0.51100000000E-03 0.  1.
        -11    1    3    3    0    0 -0.57980744309E+01 -0.30378663632E+01  0.37667125382E+00  0.65565372448E+01  0.51100000000E-03 0. -1.
        -12    1    3    3    0    0 -0.10716639573E+02  0.26823325543E+02 -0.12261797195E+02  0.31379751869E+02  0.00000000000E+00 0.  1.
</event>
<event>
 7    1  0.2584640E-011  0.5052886E+02  0.7816164E-02  0.1300439E+00
        -11   -1    0    0    0    0  0.00000000000E+00  0.00000000000E+00  0.45593999997E+02  0.45594000000E+02  0.51100000000E-03 0. -1.
         11   -1    0    0    0    0 -0.00000000000E+00 -0.00000000000E+00 -0.45593999997E+02  0.45594000000E+02  0.51100000000E-03 0.  1.
    9900012    2    1    2    0    0 -0.85300944341E+01  0.39682539019E+02  0.23873418022E+01  0.50528858163E+02  0.29999994873E+02 0.  0.
        -12    1    1    2    0    0  0.85300944341E+01 -0.39682539019E+02 -0.23873418022E+01  0.40659141837E+02  0.00000000000E+00 0.  1.
         11    1    3    3    0    0  0.56334706875E+01  0.12534793840E+02  0.61983243729E+01  0.15075684857E+02  0.51100000000E-03 0. -1.
        -11    1    3    3    0    0 -0.90696061605E+01  0.27685595028E+02 -0.62243912029E+01  0.29790820299E+02  0.51100000000E-03 0.  1.
         12    1    3    3    0    0 -0.50939589611E+01 -0.53784984980E+00  0.24134086321E+01  0.56623530077E+01  0.00000000000E+00 0. -1.
</event>
<event>
 7    1  0.2584640E-011  0.5052884E+02  0.7816164E-02  0.1300439E+00
        -11   -1    0    0    0    0  0.00000000000E+00  0.00000000000E+00  0.45593999997E+02  0.45594000000E+02  0.51100000000E-03 0.  1.
         11   -1    0    0    0    0 -0.00000000000E+00 -0.00000000000E+00 -0.45593999997E+02  0.45594000000E+02  0.51100000000E-03 0. -1.
    9900012    2    1    2    0    0 -0.28564811492E+01 -0.23893650694E+02 -0.32773487636E+02  0.50528837197E+02  0.29999931143E+02 0.  0.
        -12    1    1    2    0    0  0.28564811492E+01  0.23893650694E+02  0.32773487636E+02  0.40659162803E+02  0.00000000000E+00 0.  1.
         11    1    3    3    0    0 -0.78498561470E+01 -0.16471407129E+02 -0.14414085469E+02  0.23252813905E+02  0.51100000000E-03 0. -1.
        -11    1    3    3    0    0  0.10775944009E+01  0.67414607843E+00  0.34544680238E+01  0.36809010061E+01  0.51100000000E-03 0.  1.
         12    1    3    3    0    0  0.39157805969E+01 -0.80963896429E+01 -0.21813870191E+02  0.23595122285E+02  0.00000000000E+00 0. -1.
</event>
<event>
 7    1  0.2584640E-011  0.5052887E+02  0.7816164E-02  0.1300439E+00
        -11   -1    0    0    0    0  0.00000000000E+00  0.00000000000E+00  0.45593999997E+02  0.45594000000E+02  0.51100000000E-03 0. -1.
         11   -1    0    0    0    0 -0.00000000000E+00 -0.00000000000E+00 -0.45593999997E+02  0.45594000000E+02  0.51100000000E-03 0.  1.
    9900012    2    1    2    0    0 -0.39080575084E+02 -0.63633179135E+00 -0.11201273389E+02  0.50528870735E+02  0.30000033086E+02 0.  0.
        -12    1    1    2    0    0  0.39080575084E+02  0.63633179135E+00  0.11201273389E+02  0.40659129265E+02  0.00000000000E+00 0.  1.
         11    1    3    3    0    0 -0.18777660895E+02 -0.30574258431E+01 -0.16512159447E+02  0.25191264584E+02  0.51100000000E-03 0.  1.
        -11    1    3    3    0    0 -0.12034878388E+02 -0.36247867361E+01 -0.20356165598E+01  0.12732678891E+02  0.51100000000E-03 0. -1.
        -12    1    3    3    0    0 -0.82680358019E+01  0.60458807878E+01  0.73465026183E+01  0.12604927260E+02  0.00000000000E+00 0.  1.
</event>
<event>
 7    1  0.2584640E-011  0.5052886E+02  0.7816164E-02  0.1300439E+00
        -11   -1    0    0    0    0  0.00000000000E+00  0.00000000000E+00  0.45593999997E+02  0.45594000000E+02  0.51100000000E-03 0.  1.
         11   -1    0    0    0    0 -0.00000000000E+00 -0.00000000000E+00 -0.45593999997E+02  0.45594000000E+02  0.51100000000E-03 0. -1.
    9900012    2    1    2    0    0 -0.21144533174E+02  0.14367943408E+02 -0.31617027367E+02  0.50528862030E+02  0.30000006626E+02 0.  0.
        -12    1    1    2    0    0  0.21144533174E+02 -0.14367943408E+02  0.31617027367E+02  0.40659137970E+02  0.00000000000E+00 0.  1.
         11    1    3    3    0    0 -0.95069831172E+01 -0.59506333053E+01 -0.12717562491E+02  0.16956684838E+02  0.51100000000E-03 0. -1.
        -11    1    3    3    0    0 -0.28080537883E+00 -0.12179637919E+00  0.21128516735E+01  0.21349071348E+01  0.51100000000E-03 0.  1.
         12    1    3    3    0    0 -0.11356744678E+02  0.20440373093E+02 -0.21012316550E+02  0.31437270057E+02  0.00000000000E+00 0. -1.
</event>
<event>
 7    1  0.2584640E-011  0.5052883E+02  0.7816164E-02  0.1300439E+00
        -11   -1    0    0    0    0  0.00000000000E+00  0.00000000000E+00  0.45593999997E+02  0.45594000000E+02  0.51100000000E-03 0. -1.
         11   -1    0    0    0    0 -0.00000000000E+00 -0.00000000000E+00 -0.45593999997E+02  0.45594000000E+02  0.51100000000E-03 0.  1.
    9900012    2    1    2    0    0  0.25639521228E+01  0.16693673107E+02  0.36985344605E+02  0.50528827753E+02  0.29999902438E+02 0.  0.
        -12    1    1    2    0    0 -0.25639521228E+01 -0.16693673107E+02 -0.36985344605E+02  0.40659172247E+02  0.00000000000E+00 0.  1.
         11    1    3    3    0    0  0.17319362793E+01  0.14864428307E+02  0.19757402914E+02  0.24785193207E+02  0.51100000000E-03 0. -1.
        -11    1    3    3    0    0  0.70154450299E+01 -0.19761845781E+01  0.26629112560E+00  0.72933315898E+01  0.51100000000E-03 0.  1.
         12    1    3    3    0    0 -0.61834291865E+01  0.38054293781E+01  0.16961650565E+02  0.18450302956E+02  0.00000000000E+00 0. -1.
</event>
<event>
 7    1  0.2584640E-011  0.5052887E+02  0.7816164E-02  0.1300439E+00
        -11   -1    0    0    0    0  0.00000000000E+00  0.00000000000E+00  0.45593999997E+02  0.45594000000E+02  0.51100000000E-03 0. -1.
         11   -1    0    0    0    0 -0.00000000000E+00 -0.00000000000E+00 -0.45593999997E+02  0.45594000000E+02  0.51100000000E-03 0.  1.
    9900012    2    1    2    0    0 -0.14905779357E+02  0.37697515522E+02 -0.31432735304E+01  0.50528866915E+02  0.30000021473E+02 0.  0.
        -12    1    1    2    0    0  0.14905779357E+02 -0.37697515522E+02  0.31432735304E+01  0.40659133085E+02  0.00000000000E+00 0.  1.
         11    1    3    3    0    0 -0.70373446804E+01  0.73578393485E+01 -0.31938164707E+01  0.10670636529E+02  0.51100000000E-03 0. -1.
        -11    1    3    3    0    0 -0.11661845074E+02  0.10597459341E+02  0.86695230861E+01  0.17985144031E+02  0.51100000000E-03 0.  1.
        -12    1    3    3    0    0  0.37934103977E+01  0.19742216832E+02 -0.86189801459E+01  0.21873086354E+02  0.00000000000E+00 0.  1.
</event>
<event>
 7    1  0.2584640E-011  0.5052886E+02  0.7816164E-02  0.1300439E+00
        -11   -1    0    0    0    0  0.00000000000E+00  0.00000000000E+00  0.45593999997E+02  0.45594000000E+02  0.51100000000E-03 0.  1.
         11   -1    0    0    0    0 -0.00000000000E+00 -0.00000000000E+00 -0.45593999997E+02  0.45594000000E+02  0.51100000000E-03 0. -1.
    9900012    2    1    2    0    0  0.18225829885E+02  0.16679085835E+02 -0.32292306755E+02  0.50528857672E+02  0.29999993379E+02 0.  0.
        -12    1    1    2    0    0 -0.18225829885E+02 -0.16679085835E+02  0.32292306755E+02  0.40659142328E+02  0.00000000000E+00 0.  1.
         11    1    3    3    0    0  0.18098149877E+02  0.23042999703E+01 -0.15497268449E+02  0.23937797663E+02  0.51100000000E-03 0. -1.
        -11    1    3    3    0    0  0.32489430585E+00 -0.30858801293E+01 -0.18919712636E+01  0.36342493044E+01  0.51100000000E-03 0.  1.
         12    1    3    3    0    0 -0.19721429745E+00  0.17460665994E+02 -0.14903067043E+02  0.22956810705E+02  0.00000000000E+00 0. -1.
</event>
<event>
 7    1  0.2584640E-011  0.5052886E+02  0.7816164E-02  0.1300439E+00
        -11   -1    0    0    0    0  0.00000000000E+00  0.00000000000E+00  0.45593999997E+02  0.45594000000E+02  0.51100000000E-03 0.  1.
         11   -1    0    0    0    0 -0.00000000000E+00 -0.00000000000E+00 -0.45593999997E+02  0.45594000000E+02  0.51100000000E-03 0. -1.
    9900012    2    1    2    0    0 -0.12451799722E+02 -0.22629723392E+02 -0.31400855278E+02  0.50528863151E+02  0.30000010032E+02 0.  0.
        -12    1    1    2    0    0  0.12451799722E+02  0.22629723392E+02  0.31400855278E+02  0.40659136849E+02  0.00000000000E+00 0.  1.
         11    1    3    3    0    0 -0.38920855442E+01  0.13913378018E+01 -0.10735271255E+02  0.11503486425E+02  0.51100000000E-03 0. -1.
        -11    1    3    3    0    0  0.24107164128E+01 -0.17631843194E+02 -0.19307108357E+02  0.26257529995E+02  0.51100000000E-03 0.  1.
         12    1    3    3    0    0 -0.10970430591E+02 -0.63892179996E+01 -0.13584756663E+01  0.12767846730E+02  0.00000000000E+00 0. -1.
</event>
<event>
 7    1  0.2584640E-011  0.5052885E+02  0.7816164E-02  0.1300439E+00
        -11   -1    0    0    0    0  0.00000000000E+00  0.00000000000E+00  0.45593999997E+02  0.45594000000E+02  0.51100000000E-03 0.  1.
         11   -1    0    0    0    0 -0.00000000000E+00 -0.00000000000E+00 -0.45593999997E+02  0.45594000000E+02  0.51100000000E-03 0. -1.
    9900012    2    1    2    0    0  0.34375984747E+02  0.82038024050E+01 -0.20103634148E+02  0.50528845961E+02  0.29999957782E+02 0.  0.
        -12    1    1    2    0    0 -0.34375984747E+02 -0.82038024050E+01  0.20103634148E+02  0.40659154039E+02  0.00000000000E+00 0.  1.
         11    1    3    3    0    0  0.12650472314E+02  0.82824853237E+00 -0.12108729789E+02  0.17531166041E+02  0.51100000000E-03 0. -1.
        -11    1    3    3    0    0  0.65305740668E+01  0.11973076793E+02 -0.10117223465E+02  0.16981200677E+02  0.51100000000E-03 0.  1.
         12    1    3    3    0    0  0.15194938367E+02 -0.45975229201E+01  0.21223191048E+01  0.16016479243E+02  0.00000000000E+00 0. -1.
</event>
<event>
 7    1  0.2584640E-011  0.5052884E+02  0.7816164E-02  0.1300439E+00
        -11   -1    0    0    0    0  0.00000000000E+00  0.00000000000E+00  0.45593999997E+02  0.45594000000E+02  0.51100000000E-03 0.  1.
         11   -1    0    0    0    0 -0.00000000000E+00 -0.00000000000E+00 -0.45593999997E+02  0.45594000000E+02  0.51100000000E-03 0. -1.
    9900012    2    1    2    0    0 -0.96980097431E+01  0.39475084694E+02  0.91292813412E+00  0.50528841839E+02  0.29999945254E+02 0.  0.
        -12    1    1    2    0    0  0.96980097431E+01 -0.39475084694E+02 -0.91292813412E+00  0.40659158161E+02  0.00000000000E+00 0.  1.
         11    1    3    3    0    0 -0.53231154290E+01  0.42319862381E+01 -0.23051895711E+01  0.71804710577E+01  0.51100000000E-03 0. -1.
        -11    1    3    3    0    0 -0.96868506134E+01  0.64401415520E+01 -0.53907051298E+01  0.12820694212E+02  0.51100000000E-03 0.  1.
         12    1    3    3    0    0  0.53119562993E+01  0.28802956904E+02  0.86088228350E+01  0.30527676570E+02  0.00000000000E+00 0. -1.
</event>
<event>
 7    1  0.2584640E-011  0.5052886E+02  0.7816164E-02  0.1300439E+00
        -11   -1    0    0    0    0  0.00000000000E+00  0.00000000000E+00  0.45593999997E+02  0.45594000000E+02  0.51100000000E-03 0.  1.
         11   -1    0    0    0    0 -0.00000000000E+00 -0.00000000000E+00 -0.45593999997E+02  0.45594000000E+02  0.51100000000E-03 0. -1.
    9900012    2    1    2    0    0  0.40467839820E+02  0.39394687721E+01 -0.86843486594E-02  0.50528861429E+02  0.30000004800E+02 0.  0.
        -12    1    1    2    0    0 -0.40467839820E+02 -0.39394687721E+01  0.86843486594E-02  0.40659138571E+02  0.00000000000E+00 0.  1.
         11    1    3    3    0    0  0.51433033079E+01 -0.79156657821E+00  0.76413686283E+01  0.92450344152E+01  0.51100000000E-03 0. -1.
        -11    1    3    3    0    0  0.23965488854E+02  0.63195420302E+00  0.42295637707E+01  0.24344059482E+02  0.51100000000E-03 0.  1.
         12    1    3    3    0    0  0.11359047658E+02  0.40990811473E+01 -0.11879616748E+02  0.16939767532E+02  0.00000000000E+00 0. -1.
</event>
<event>
 7    1  0.2584640E-011  0.5052885E+02  0.7816164E-02  0.1300439E+00
        -11   -1    0    0    0    0  0.00000000000E+00  0.00000000000E+00  0.45593999997E+02  0.45594000000E+02  0.51100000000E-03 0.  1.
         11   -1    0    0    0    0 -0.00000000000E+00 -0.00000000000E+00 -0.45593999997E+02  0.45594000000E+02  0.51100000000E-03 0. -1.
    9900012    2    1    2    0    0  0.40412595723E+02 -0.13289033349E+01 -0.42687962903E+01  0.50528849752E+02  0.29999969306E+02 0.  0.
        -12    1    1    2    0    0 -0.40412595723E+02  0.13289033349E+01  0.42687962903E+01  0.40659150248E+02  0.00000000000E+00 0.  1.
         11    1    3    3    0    0  0.83753023210E+01 -0.35737829598E+01 -0.10589887415E+02  0.13966507414E+02  0.51100000000E-03 0. -1.
        -11    1    3    3    0    0  0.63502113780E+01 -0.53936514480E+01  0.50304452208E+01  0.97325248455E+01  0.51100000000E-03 0.  1.
        -12    1    3    3    0    0  0.25687082024E+02  0.76385310728E+01  0.12906459040E+01  0.26829817493E+02  0.00000000000E+00 0.  1.
</event>
<event>
 7    1  0.2584640E-011  0.5052886E+02  0.7816164E-02  0.1300439E+00
        -11   -1    0    0    0    0  0.00000000000E+00  0.00000000000E+00  0.45593999997E+02  0.45594000000E+02  0.51100000000E-03 0.  1.
         11   -1    0    0    0    0 -0.00000000000E+00 -0.00000000000E+00 -0.45593999997E+02  0.45594000000E+02  0.51100000000E-03 0. -1.
    9900012    2    1    2    0    0 -0.12540036807E+01  0.32105507440E+02 -0.24916457656E+02  0.50528855945E+02  0.29999988130E+02 0.  0.
        -12    1    1    2    0    0  0.12540036807E+01 -0.32105507440E+02  0.24916457656E+02  0.40659144055E+02  0.00000000000E+00 0.  1.
         11    1    3    3    0    0 -0.21897623836E+01 -0.16520579681E+00  0.53233224824E+01  0.57584819844E+01  0.51100000000E-03 0. -1.
        -11    1    3    3    0    0  0.23034660028E+01  0.34955456873E+01 -0.33271375195E+01  0.53473955915E+01  0.51100000000E-03 0.  1.
         12    1    3    3    0    0 -0.13677072998E+01  0.28775167549E+02 -0.26912642619E+02  0.39422978369E+02  0.00000000000E+00 0. -1.
</event>
<event>
 7    1  0.2584640E-011  0.5052885E+02  0.7816164E-02  0.1300439E+00
        -11   -1    0    0    0    0  0.00000000000E+00  0.00000000000E+00  0.45593999997E+02  0.45594000000E+02  0.51100000000E-03 0.  1.
         11   -1    0    0    0    0 -0.00000000000E+00 -0.00000000000E+00 -0.45593999997E+02  0.45594000000E+02  0.51100000000E-03 0. -1.
    9900012    2    1    2    0    0 -0.10747239064E+02  0.21793583313E+02 -0.32599121198E+02  0.50528854362E+02  0.29999983318E+02 0.  0.
        -12    1    1    2    0    0  0.10747239064E+02 -0.21793583313E+02  0.32599121198E+02  0.40659145638E+02  0.00000000000E+00 0.  1.
         11    1    3    3    0    0 -0.62814881986E+01  0.58042900686E+01 -0.93266814298E+01  0.12654400971E+02  0.51100000000E-03 0. -1.
        -11    1    3    3    0    0 -0.28932458957E+01  0.92207575338E+01  0.34514950003E+01  0.10261874064E+02  0.51100000000E-03 0.  1.
         12    1    3    3    0    0 -0.15725049697E+01  0.67685357111E+01 -0.26723934768E+02  0.27612579326E+02  0.00000000000E+00 0. -1.
</event>
<event>
 7    1  0.2584640E-011  0.5052886E+02  0.7816164E-02  0.1300439E+00
        -11   -1    0    0    0    0  0.00000000000E+00  0.00000000000E+00  0.45593999997E+02  0.45594000000E+02  0.51100000000E-03 0.  1.
         11   -1    0    0    0    0 -0.00000000000E+00 -0.00000000000E+00 -0.45593999997E+02  0.45594000000E+02  0.51100000000E-03 0. -1.
    9900012    2    1    2    0    0 -0.31386661074E+02  0.16612756847E+02 -0.19800498546E+02  0.50528856796E+02  0.29999990717E+02 0.  0.
        -12    1    1    2    0    0  0.31386661074E+02 -0.16612756847E+02  0.19800498546E+02  0.40659143204E+02  0.00000000000E+00 0.  1.
         11    1    3    3    0    0 -0.16305338847E+02  0.22271845161E+02 -0.12980352163E+02  0.30502273757E+02  0.51100000000E-03 0. -1.
        -11    1    3    3    0    0 -0.12008116289E+02 -0.55912300553E-01 -0.64364118249E+01  0.13624440555E+02  0.51100000000E-03 0.  1.
        -12    1    3    3    0    0 -0.30732059368E+01 -0.56031760133E+01 -0.38373455807E+00  0.64021424833E+01  0.00000000000E+00 0.  1.
</event>
<event>
 7    1  0.2584640E-011  0.5052886E+02  0.7816164E-02  0.1300439E+00
        -11   -1    0    0    0    0  0.00000000000E+00  0.00000000000E+00  0.45593999997E+02  0.45594000000E+02  0.51100000000E-03 0.  1.
         11   -1    0    0    0    0 -0.00000000000E+00 -0.00000000000E+00 -0.45593999997E+02  0.45594000000E+02  0.51100000000E-03 0. -1.
    9900012    2    1    2    0    0 -0.32555330294E+02 -0.17090428919E+01 -0.24298045903E+02  0.50528863354E+02  0.30000010649E+02 0.  0.
        -12    1    1    2    0    0  0.32555330294E+02  0.17090428919E+01  0.24298045903E+02  0.40659136646E+02  0.00000000000E+00 0.  1.
         11    1    3    3    0    0 -0.35525779047E+01  0.98152894516E+01 -0.34613931456E+01  0.10997361482E+02  0.51100000000E-03 0. -1.
        -11    1    3    3    0    0 -0.11458228059E+02 -0.18411983699E+00 -0.24870248955E+01  0.11726473616E+02  0.51100000000E-03 0.  1.
         12    1    3    3    0    0 -0.17544524330E+02 -0.11340212506E+02 -0.18349627862E+02  0.27805028256E+02  0.00000000000E+00 0. -1.
</event>
<event>
 7    1  0.2584640E-011  0.5052892E+02  0.7816164E-02  0.1300439E+00
        -11   -1    0    0    0    0  0.00000000000E+00  0.00000000000E+00  0.45593999997E+02  0.45594000000E+02  0.51100000000E-03 0.  1.
         11   -1    0    0    0    0 -0.00000000000E+00 -0.00000000000E+00 -0.45593999997E+02  0.45594000000E+02  0.51100000000E-03 0. -1.
    9900012    2    1    2    0    0 -0.30591193706E+02 -0.21821132125E+02 -0.15529909606E+02  0.50528916981E+02  0.30000173655E+02 0.  0.
        -12    1    1    2    0    0  0.30591193706E+02  0.21821132125E+02  0.15529909606E+02  0.40659083019E+02  0.00000000000E+00 0.  1.
         11    1    3    3    0    0 -0.41211622178E+01  0.19376324058E+01 -0.70625918564E+01  0.84034874521E+01  0.51100000000E-03 0. -1.
        -11    1    3    3    0    0 -0.13981894788E+02 -0.77415230016E+01  0.61261782219E+01  0.17115917156E+02  0.51100000000E-03 0.  1.
         12    1    3    3    0    0 -0.12488136701E+02 -0.16017241529E+02 -0.14593495971E+02  0.25009512373E+02  0.00000000000E+00 0. -1.
</event>
<event>
 7    1  0.2584640E-011  0.5052886E+02  0.7816164E-02  0.1300439E+00
        -11   -1    0    0    0    0  0.00000000000E+00  0.00000000000E+00  0.45593999997E+02  0.45594000000E+02  0.51100000000E-03 0.  1.
         11   -1    0    0    0    0 -0.00000000000E+00 -0.00000000000E+00 -0.45593999997E+02  0.45594000000E+02  0.51100000000E-03 0. -1.
    9900012    2    1    2    0    0 -0.34824779020E+01 -0.29603685304E+02 -0.27652490500E+02  0.50528855066E+02  0.29999985460E+02 0.  0.
        -12    1    1    2    0    0  0.34824779020E+01  0.29603685304E+02  0.27652490500E+02  0.40659144934E+02  0.00000000000E+00 0.  1.
         11    1    3    3    0    0 -0.12606990266E+02 -0.17087970696E+02 -0.17454405784E+02  0.27488019710E+02  0.51100000000E-03 0. -1.
        -11    1    3    3    0    0 -0.12907257693E+01  0.61901528253E+00  0.18921941080E+01  0.23726676410E+01  0.51100000000E-03 0.  1.
         12    1    3    3    0    0  0.10415238133E+02 -0.13134729890E+02 -0.12090278824E+02  0.20668167715E+02  0.00000000000E+00 0. -1.
</event>
<event>
 7    1  0.4871726E-011  0.5052886E+02  0.7816164E-02  0.1300439E+00
        -11   -1    0    0    0    0  0.00000000000E+00  0.00000000000E+00  0.45593999997E+02  0.45594000000E+02  0.51100000000E-03 0.  1.
         11   -1    0    0    0    0 -0.00000000000E+00 -0.00000000000E+00 -0.45593999997E+02  0.45594000000E+02  0.51100000000E-03 0. -1.
    9900012    2    1    2    0    0  0.26416153404E+02  0.25754753932E+02 -0.17089329253E+02  0.50528859760E+02  0.29999999725E+02 0.  0.
        -12    1    1    2    0    0 -0.26416153404E+02 -0.25754753932E+02  0.17089329253E+02  0.40659140240E+02  0.00000000000E+00 0.  1.
         11    1    3    3    0    0  0.15724036052E+02  0.74378639756E+01 -0.10427804735E+02  0.20280686432E+02  0.51100000000E-03 0. -1.
        -11    1    3    3    0    0  0.13286206778E+02  0.19945626885E+02 -0.97732781961E+01  0.25881813873E+02  0.51100000000E-03 0.  1.
        -12    1    3    3    0    0 -0.25940894268E+01 -0.16287369284E+01  0.31117536780E+01  0.43663594549E+01  0.00000000000E+00 0.  1.
</event>
<event>
 7    1  0.2584640E-011  0.5052884E+02  0.7816164E-02  0.1300439E+00
        -11   -1    0    0    0    0  0.00000000000E+00  0.00000000000E+00  0.45593999997E+02  0.45594000000E+02  0.51100000000E-03 0. -1.
         11   -1    0    0    0    0 -0.00000000000E+00 -0.00000000000E+00 -0.45593999997E+02  0.45594000000E+02  0.51100000000E-03 0.  1.
    9900012    2    1    2    0    0  0.38379824792E+02  0.12753877300E+02 -0.41827399337E+01  0.50528835589E+02  0.29999926255E+02 0.  0.
        -12    1    1    2    0    0 -0.38379824792E+02 -0.12753877300E+02  0.41827399337E+01  0.40659164411E+02  0.00000000000E+00 0.  1.
         11    1    3    3    0    0  0.39091912675E+01 -0.66770176612E+01 -0.26976826361E+01  0.81940120259E+01  0.51100000000E-03 0. -1.
        -11    1    3    3    0    0  0.17026066090E+02  0.22461111873E+01 -0.42506574642E+01  0.17691806892E+02  0.51100000000E-03 0.  1.
         12    1    3    3    0    0  0.17444567435E+02  0.17184783774E+02  0.27656001665E+01  0.24643016671E+02  0.00000000000E+00 0. -1.
</event>
<event>
 7    1  0.2584640E-011  0.5052886E+02  0.7816164E-02  0.1300439E+00
        -11   -1    0    0    0    0  0.00000000000E+00  0.00000000000E+00  0.45593999997E+02  0.45594000000E+02  0.51100000000E-03 0. -1.
         11   -1    0    0    0    0 -0.00000000000E+00 -0.00000000000E+00 -0.45593999997E+02  0.45594000000E+02  0.51100000000E-03 0.  1.
    9900012    2    1    2    0    0 -0.52952005791E+01 -0.84478548576E+01  0.39417769566E+02  0.50528856398E+02  0.29999989507E+02 0.  0.
        -12    1    1    2    0    0  0.52952005791E+01  0.84478548576E+01 -0.39417769566E+02  0.40659143602E+02  0.00000000000E+00 0.  1.
         11    1    3    3    0    0 -0.40070565363E+01 -0.23253117094E+01 -0.97563858053E+00  0.47344954886E+01  0.51100000000E-03 0.  1.
        -11    1    3    3    0    0 -0.42782831433E+01  0.69037505729E+01  0.13300498875E+02  0.15584246829E+02  0.51100000000E-03 0. -1.
         12    1    3    3    0    0  0.29901391005E+01 -0.13026293721E+02  0.27092909272E+02  0.30210114080E+02  0.00000000000E+00 0. -1.
</event>
<event>
 7    1  0.2584640E-011  0.5052884E+02  0.7816164E-02  0.1300439E+00
        -11   -1    0    0    0    0  0.00000000000E+00  0.00000000000E+00  0.45593999997E+02  0.45594000000E+02  0.51100000000E-03 0.  1.
         11   -1    0    0    0    0 -0.00000000000E+00 -0.00000000000E+00 -0.45593999997E+02  0.45594000000E+02  0.51100000000E-03 0. -1.
    9900012    2    1    2    0    0  0.32414159797E+02  0.15238052713E+02 -0.19242949964E+02  0.50528842001E+02  0.29999945747E+02 0.  0.
        -12    1    1    2    0    0 -0.32414159797E+02 -0.15238052713E+02  0.19242949964E+02  0.40659157999E+02  0.00000000000E+00 0.  1.
         11    1    3    3    0    0  0.75318382326E+01  0.25372249651E+01  0.36199218771E+01  0.87332658464E+01  0.51100000000E-03 0. -1.
        -11    1    3    3    0    0 -0.26808329914E+01  0.60125855033E+01 -0.35245366374E+01  0.74672892492E+01  0.51100000000E-03 0.  1.
         12    1    3    3    0    0  0.27563154556E+02  0.66882422442E+01 -0.19338335204E+02  0.34328286906E+02  0.00000000000E+00 0. -1.
</event>
<event>
 7    1  0.2584640E-011  0.5052885E+02  0.7816164E-02  0.1300439E+00
        -11   -1    0    0    0    0  0.00000000000E+00  0.00000000000E+00  0.45593999997E+02  0.45594000000E+02  0.51100000000E-03 0.  1.
         11   -1    0    0    0    0 -0.00000000000E+00 -0.00000000000E+00 -0.45593999997E+02  0.45594000000E+02  0.51100000000E-03 0. -1.
    9900012    2    1    2    0    0 -0.35237561835E+02 -0.12262937847E+02 -0.16158626504E+02  0.50528848273E+02  0.29999964810E+02 0.  0.
        -12    1    1    2    0    0  0.35237561835E+02  0.12262937847E+02  0.16158626504E+02  0.40659151727E+02  0.00000000000E+00 0.  1.
         11    1    3    3    0    0 -0.86563465376E+00 -0.25746553366E+01  0.31874921685E+01  0.41878729734E+01  0.51100000000E-03 0. -1.
        -11    1    3    3    0    0 -0.11835485738E+01 -0.26450012192E+01 -0.11036638033E+02  0.11410705412E+02  0.51100000000E-03 0.  1.
         12    1    3    3    0    0 -0.33188378607E+02 -0.70432812908E+01 -0.83094806399E+01  0.34930269887E+02  0.00000000000E+00 0. -1.
</event>
<event>
 7    1  0.2584640E-011  0.5052886E+02  0.7816164E-02  0.1300439E+00
        -11   -1    0    0    0    0  0.00000000000E+00  0.00000000000E+00  0.45593999997E+02  0.45594000000E+02  0.51100000000E-03 0.  1.
         11   -1    0    0    0    0 -0.00000000000E+00 -0.00000000000E+00 -0.45593999997E+02  0.45594000000E+02  0.51100000000E-03 0. -1.
    9900012    2    1    2    0    0  0.41576119179E+01  0.20313202944E+02 -0.34975046425E+02  0.50528858062E+02  0.29999994564E+02 0.  0.
        -12    1    1    2    0    0 -0.41576119179E+01 -0.20313202944E+02  0.34975046425E+02  0.40659141938E+02  0.00000000000E+00 0.  1.
         11    1    3    3    0    0  0.81079574393E+01  0.20589414838E+02 -0.18380052389E+02  0.28766113802E+02  0.51100000000E-03 0. -1.
        -11    1    3    3    0    0  0.47027204437E+01 -0.20278709718E+01 -0.75520053486E+01  0.91247260395E+01  0.51100000000E-03 0.  1.
         12    1    3    3    0    0 -0.86530659651E+01  0.17516590785E+01 -0.90429886877E+01  0.12638018220E+02  0.00000000000E+00 0. -1.
</event>
<event>
 7    1  0.2584640E-011  0.5052884E+02  0.7816164E-02  0.1300439E+00
        -11   -1    0    0    0    0  0.00000000000E+00  0.00000000000E+00  0.45593999997E+02  0.45594000000E+02  0.51100000000E-03 0.  1.
         11   -1    0    0    0    0 -0.00000000000E+00 -0.00000000000E+00 -0.45593999997E+02  0.45594000000E+02  0.51100000000E-03 0. -1.
    9900012    2    1    2    0    0  0.26845431223E+02  0.23023229323E+02 -0.20060432289E+02  0.50528841012E+02  0.29999942740E+02 0.  0.
        -12    1    1    2    0    0 -0.26845431223E+02 -0.23023229323E+02  0.20060432289E+02  0.40659158988E+02  0.00000000000E+00 0.  1.
         11    1    3    3    0    0  0.10423297152E+02  0.34583872893E+01  0.28107988348E+01  0.11336055597E+02  0.51100000000E-03 0. -1.
        -11    1    3    3    0    0 -0.39321030855E+01  0.34958701392E+01 -0.11986670780E+01  0.53962344028E+01  0.51100000000E-03 0.  1.
         12    1    3    3    0    0  0.20354237157E+02  0.16068971894E+02 -0.21672564046E+02  0.33796551012E+02  0.00000000000E+00 0. -1.
</event>
<event>
 7    1  0.2584640E-011  0.5052886E+02  0.7816164E-02  0.1300439E+00
        -11   -1    0    0    0    0  0.00000000000E+00  0.00000000000E+00  0.45593999997E+02  0.45594000000E+02  0.51100000000E-03 0.  1.
         11   -1    0    0    0    0 -0.00000000000E+00 -0.00000000000E+00 -0.45593999997E+02  0.45594000000E+02  0.51100000000E-03 0. -1.
    9900012    2    1    2    0    0 -0.35649649901E+02 -0.95736993222E-01 -0.19551450696E+02  0.50528856773E+02  0.29999990647E+02 0.  0.
        -12    1    1    2    0    0  0.35649649901E+02  0.95736993222E-01  0.19551450696E+02  0.40659143227E+02  0.00000000000E+00 0.  1.
         11    1    3    3    0    0 -0.70987872374E+00 -0.38005154343E+01 -0.54603552122E+00  0.39046127107E+01  0.51100000000E-03 0. -1.
        -11    1    3    3    0    0  0.32916370006E+01 -0.11851135266E+01 -0.38678804014E+01  0.52153491997E+01  0.51100000000E-03 0.  1.
         12    1    3    3    0    0 -0.38231408178E+02  0.48898919677E+01 -0.15137534773E+02  0.41408894863E+02  0.00000000000E+00 0. -1.
</event>
<event>
 7    1  0.2584640E-011  0.5052885E+02  0.7816164E-02  0.1300439E+00
        -11   -1    0    0    0    0  0.00000000000E+00  0.00000000000E+00  0.45593999997E+02  0.45594000000E+02  0.51100000000E-03 0.  1.
         11   -1    0    0    0    0 -0.00000000000E+00 -0.00000000000E+00 -0.45593999997E+02  0.45594000000E+02  0.51100000000E-03 0. -1.
    9900012    2    1    2    0    0  0.19395541588E+02  0.14488361258E+01 -0.35705462193E+02  0.50528853551E+02  0.29999980852E+02 0.  0.
        -12    1    1    2    0    0 -0.19395541588E+02 -0.14488361258E+01  0.35705462193E+02  0.40659146449E+02  0.00000000000E+00 0.  1.
         11    1    3    3    0    0  0.74686652189E+01  0.58307571015E+01 -0.33341131022E+02  0.34661357542E+02  0.51100000000E-03 0. -1.
        -11    1    3    3    0    0  0.87231055798E+01  0.15816916997E+01 -0.19991498692E+01  0.90879546681E+01  0.51100000000E-03 0.  1.
        -12    1    3    3    0    0  0.32037707888E+01 -0.59636126754E+01 -0.36518130159E+00  0.67795413409E+01  0.00000000000E+00 0.  1.
</event>
<event>
 7    1  0.2584640E-011  0.5052886E+02  0.7816164E-02  0.1300439E+00
        -11   -1    0    0    0    0  0.00000000000E+00  0.00000000000E+00  0.45593999997E+02  0.45594000000E+02  0.51100000000E-03 0.  1.
         11   -1    0    0    0    0 -0.00000000000E+00 -0.00000000000E+00 -0.45593999997E+02  0.45594000000E+02  0.51100000000E-03 0. -1.
    9900012    2    1    2    0    0 -0.33645512959E+02  0.21620272558E+02 -0.73286547866E+01  0.50528857009E+02  0.29999991365E+02 0.  0.
        -12    1    1    2    0    0  0.33645512959E+02 -0.21620272558E+02  0.73286547866E+01  0.40659142991E+02  0.00000000000E+00 0.  1.
         11    1    3    3    0    0 -0.11135488565E+02 -0.56072834638E+01 -0.11671667548E+01  0.12522100939E+02  0.51100000000E-03 0. -1.
        -11    1    3    3    0    0 -0.66059422532E+01  0.11313590215E+02  0.34397001844E+01  0.13545011415E+02  0.51100000000E-03 0.  1.
        -12    1    3    3    0    0 -0.15904082141E+02  0.15913965806E+02 -0.96011882162E+01  0.24461744656E+02  0.00000000000E+00 0.  1.
</event>
<event>
 7    1  0.2584640E-011  0.5052886E+02  0.7816164E-02  0.1300439E+00
        -11   -1    0    0    0    0  0.00000000000E+00  0.00000000000E+00  0.45593999997E+02  0.45594000000E+02  0.51100000000E-03 0.  1.
         11   -1    0    0    0    0 -0.00000000000E+00 -0.00000000000E+00 -0.45593999997E+02  0.45594000000E+02  0.51100000000E-03 0. -1.
    9900012    2    1    2    0    0  0.13274791814E+02 -0.31348838466E+01 -0.38302978566E+02  0.50528858821E+02  0.29999996872E+02 0.  0.
        -12    1    1    2    0    0 -0.13274791814E+02  0.31348838466E+01  0.38302978566E+02  0.40659141179E+02  0.00000000000E+00 0.  1.
         11    1    3    3    0    0  0.14060658587E+02 -0.11438235153E+02 -0.17421467510E+02  0.25140462880E+02  0.51100000000E-03 0. -1.
        -11    1    3    3    0    0  0.24911997656E+01 -0.40978004212E-02 -0.13711020688E+02  0.13935500767E+02  0.51100000000E-03 0.  1.
        -12    1    3    3    0    0 -0.32770665387E+01  0.83074491067E+01 -0.71704903669E+01  0.11452895174E+02  0.00000000000E+00 0.  1.
</event>
<event>
 7    1  0.2584640E-011  0.5052886E+02  0.7816164E-02  0.1300439E+00
        -11   -1    0    0    0    0  0.00000000000E+00  0.00000000000E+00  0.45593999997E+02  0.45594000000E+02  0.51100000000E-03 0.  1.
         11   -1    0    0    0    0 -0.00000000000E+00 -0.00000000000E+00 -0.45593999997E+02  0.45594000000E+02  0.51100000000E-03 0. -1.
    9900012    2    1    2    0    0 -0.24763240687E+02  0.57172033801E+01 -0.31737375513E+02  0.50528861934E+02  0.30000006333E+02 0.  0.
        -12    1    1    2    0    0  0.24763240687E+02 -0.57172033801E+01  0.31737375513E+02  0.40659138066E+02  0.00000000000E+00 0.  1.
         11    1    3    3    0    0 -0.20163851121E+02 -0.20836877950E-01 -0.24740808770E+02  0.31916906884E+02  0.51100000000E-03 0. -1.
        -11    1    3    3    0    0 -0.10794231008E+01  0.77827193342E+01 -0.10586971269E+02  0.13184075067E+02  0.51100000000E-03 0.  1.
         12    1    3    3    0    0 -0.35199664658E+01 -0.20446790762E+01  0.35904045254E+01  0.54278799822E+01  0.00000000000E+00 0. -1.
</event>
<event>
 7    1  0.2584640E-011  0.5052886E+02  0.7816164E-02  0.1300439E+00
        -11   -1    0    0    0    0  0.00000000000E+00  0.00000000000E+00  0.45593999997E+02  0.45594000000E+02  0.51100000000E-03 0. -1.
         11   -1    0    0    0    0 -0.00000000000E+00 -0.00000000000E+00 -0.45593999997E+02  0.45594000000E+02  0.51100000000E-03 0.  1.
    9900012    2    1    2    0    0  0.26250409926E+02  0.11133682254E+01  0.31029697946E+02  0.50528858781E+02  0.29999996750E+02 0.  0.
        -12    1    1    2    0    0 -0.26250409926E+02 -0.11133682254E+01 -0.31029697946E+02  0.40659141219E+02  0.00000000000E+00 0.  1.
         11    1    3    3    0    0 -0.19141834809E+01 -0.81070542248E+00  0.22278495603E+01  0.30470732851E+01  0.51100000000E-03 0. -1.
        -11    1    3    3    0    0  0.86418684693E+01  0.84185373849E+01  0.23213995699E+02  0.26161866503E+02  0.51100000000E-03 0.  1.
        -12    1    3    3    0    0  0.19522724937E+02 -0.64944637371E+01  0.55878526861E+01  0.21319918993E+02  0.00000000000E+00 0.  1.
</event>
<event>
 7    1  0.2584640E-011  0.5052887E+02  0.7816164E-02  0.1300439E+00
        -11   -1    0    0    0    0  0.00000000000E+00  0.00000000000E+00  0.45593999997E+02  0.45594000000E+02  0.51100000000E-03 0.  1.
         11   -1    0    0    0    0 -0.00000000000E+00 -0.00000000000E+00 -0.45593999997E+02  0.45594000000E+02  0.51100000000E-03 0. -1.
    9900012    2    1    2    0    0  0.36171237239E+02  0.17921093805E+02  0.48621789808E+01  0.50528870755E+02  0.30000033146E+02 0.  0.
        -12    1    1    2    0    0 -0.36171237239E+02 -0.17921093805E+02 -0.48621789808E+01  0.40659129245E+02  0.00000000000E+00 0.  1.
         11    1    3    3    0    0  0.11985916011E+01 -0.34325944219E+01 -0.34823897569E+01  0.50345173524E+01  0.51100000000E-03 0.  1.
        -11    1    3    3    0    0  0.69777440548E+01  0.21403037737E+01  0.89327623753E+01  0.11535339451E+02  0.51100000000E-03 0. -1.
         12    1    3    3    0    0  0.27994901583E+02  0.19213384453E+02 -0.58819363756E+00  0.33959013951E+02  0.00000000000E+00 0. -1.
</event>
<event>
 7    1  0.2584640E-011  0.5052883E+02  0.7816164E-02  0.1300439E+00
        -11   -1    0    0    0    0  0.00000000000E+00  0.00000000000E+00  0.45593999997E+02  0.45594000000E+02  0.51100000000E-03 0. -1.
         11   -1    0    0    0    0 -0.00000000000E+00 -0.00000000000E+00 -0.45593999997E+02  0.45594000000E+02  0.51100000000E-03 0.  1.
    9900012    2    1    2    0    0  0.14281181035E+02  0.30508854531E+02  0.22768966865E+02  0.50528828973E+02  0.29999906145E+02 0.  0.
        -12    1    1    2    0    0 -0.14281181035E+02 -0.30508854531E+02 -0.22768966865E+02  0.40659171027E+02  0.00000000000E+00 0.  1.
         11    1    3    3    0    0 -0.50016528844E+01  0.54539198080E+01  0.66206207064E+01  0.99294708644E+01  0.51100000000E-03 0. -1.
        -11    1    3    3    0    0  0.15518021864E+02  0.76476064445E+01  0.14750440356E+02  0.22734783436E+02  0.51100000000E-03 0.  1.
         12    1    3    3    0    0  0.37648120554E+01  0.17407328278E+02  0.13979058027E+01  0.17864574672E+02  0.00000000000E+00 0. -1.
</event>
<event>
 7    1  0.2584640E-011  0.5052886E+02  0.7816164E-02  0.1300439E+00
        -11   -1    0    0    0    0  0.00000000000E+00  0.00000000000E+00  0.45593999997E+02  0.45594000000E+02  0.51100000000E-03 0.  1.
         11   -1    0    0    0    0 -0.00000000000E+00 -0.00000000000E+00 -0.45593999997E+02  0.45594000000E+02  0.51100000000E-03 0. -1.
    9900012    2    1    2    0    0  0.43391412459E+01 -0.41340573268E+01 -0.40215015195E+02  0.50528855594E+02  0.29999987063E+02 0.  0.
        -12    1    1    2    0    0 -0.43391412459E+01  0.41340573268E+01  0.40215015195E+02  0.40659144406E+02  0.00000000000E+00 0.  1.
         11    1    3    3    0    0 -0.82399012374E+01  0.56033661881E+00 -0.20529665874E+02  0.22128649545E+02  0.51100000000E-03 0. -1.
        -11    1    3    3    0    0  0.61315263844E+00 -0.68974828339E+01 -0.25387188801E+01  0.73753860520E+01  0.51100000000E-03 0.  1.
         12    1    3    3    0    0  0.11965889845E+02  0.22030888883E+01 -0.17146630441E+02  0.21024819997E+02  0.00000000000E+00 0. -1.
</event>
<event>
 7    1  0.2584640E-011  0.5052886E+02  0.7816164E-02  0.1300439E+00
        -11   -1    0    0    0    0  0.00000000000E+00  0.00000000000E+00  0.45593999997E+02  0.45594000000E+02  0.51100000000E-03 0. -1.
         11   -1    0    0    0    0 -0.00000000000E+00 -0.00000000000E+00 -0.45593999997E+02  0.45594000000E+02  0.51100000000E-03 0.  1.
    9900012    2    1    2    0    0  0.15509473090E+02 -0.37100488003E+02 -0.60145967766E+01  0.50528864003E+02  0.30000012625E+02 0.  0.
        -12    1    1    2    0    0 -0.15509473090E+02  0.37100488003E+02  0.60145967766E+01  0.40659135997E+02  0.00000000000E+00 0.  1.
         11    1    3    3    0    0  0.92670418079E+01 -0.82250759917E+01 -0.16414288057E+01  0.12498969066E+02  0.51100000000E-03 0. -1.
        -11    1    3    3    0    0  0.23130371528E+01 -0.13194176000E+01 -0.93780394487E+01  0.97487757096E+01  0.51100000000E-03 0.  1.
         12    1    3    3    0    0  0.39293941293E+01 -0.27555994412E+02  0.50048714779E+01  0.28281119227E+02  0.00000000000E+00 0. -1.
</event>
<event>
 7    1  0.2584640E-011  0.5052886E+02  0.7816164E-02  0.1300439E+00
        -11   -1    0    0    0    0  0.00000000000E+00  0.00000000000E+00  0.45593999997E+02  0.45594000000E+02  0.51100000000E-03 0. -1.
         11   -1    0    0    0    0 -0.00000000000E+00 -0.00000000000E+00 -0.45593999997E+02  0.45594000000E+02  0.51100000000E-03 0.  1.
    9900012    2    1    2    0    0  0.23522945826E+02  0.14038759812E+02  0.30045797349E+02  0.50528859628E+02  0.29999999326E+02 0.  0.
        -12    1    1    2    0    0 -0.23522945826E+02 -0.14038759812E+02 -0.30045797349E+02  0.40659140372E+02  0.00000000000E+00 0.  1.
         11    1    3    3    0    0  0.72483537378E+01 -0.26756640335E+01  0.80884840400E+01  0.11185767039E+02  0.51100000000E-03 0. -1.
        -11    1    3    3    0    0  0.95778233322E+00 -0.20654058074E+01 -0.35128393697E+01  0.41860827566E+01  0.51100000000E-03 0.  1.
         12    1    3    3    0    0  0.15316809755E+02  0.18779829653E+02  0.25470152679E+02  0.35157009833E+02  0.00000000000E+00 0. -1.
</event>
<event>
 7    1  0.2584640E-011  0.5052886E+02  0.7816164E-02  0.1300439E+00
        -11   -1    0    0    0    0  0.00000000000E+00  0.00000000000E+00  0.45593999997E+02  0.45594000000E+02  0.51100000000E-03 0. -1.
         11   -1    0    0    0    0 -0.00000000000E+00 -0.00000000000E+00 -0.45593999997E+02  0.45594000000E+02  0.51100000000E-03 0.  1.
    9900012    2    1    2    0    0 -0.11663394568E+02  0.25470807944E+02  0.29468096717E+02  0.50528861369E+02  0.30000004616E+02 0.  0.
        -12    1    1    2    0    0  0.11663394568E+02 -0.25470807944E+02 -0.29468096717E+02  0.40659138631E+02  0.00000000000E+00 0.  1.
         11    1    3    3    0    0  0.24714995336E+01  0.12432016609E+01  0.95488488356E+01  0.99415479007E+01  0.51100000000E-03 0.  1.
        -11    1    3    3    0    0 -0.11026241672E+02  0.65876585266E+01  0.18630846661E+02  0.22629266401E+02  0.51100000000E-03 0. -1.
         12    1    3    3    0    0 -0.31086524301E+01  0.17639947756E+02  0.12884012197E+01  0.17958047067E+02  0.00000000000E+00 0. -1.
</event>
<event>
 7    1  0.2584640E-011  0.5052887E+02  0.7816164E-02  0.1300439E+00
        -11   -1    0    0    0    0  0.00000000000E+00  0.00000000000E+00  0.45593999997E+02  0.45594000000E+02  0.51100000000E-03 0. -1.
         11   -1    0    0    0    0 -0.00000000000E+00 -0.00000000000E+00 -0.45593999997E+02  0.45594000000E+02  0.51100000000E-03 0.  1.
    9900012    2    1    2    0    0 -0.34248870932E+02  0.65395586845E+01  0.20914450408E+02  0.50528865433E+02  0.30000016969E+02 0.  0.
        -12    1    1    2    0    0  0.34248870932E+02 -0.65395586845E+01 -0.20914450408E+02  0.40659134567E+02  0.00000000000E+00 0.  1.
         11    1    3    3    0    0 -0.25910096425E+01  0.49315300362E+00  0.78448803016E+01  0.82763928169E+01  0.51100000000E-03 0. -1.
        -11    1    3    3    0    0 -0.18532420052E+02 -0.80691214964E+01  0.10588777560E+02  0.22818490861E+02  0.51100000000E-03 0.  1.
         12    1    3    3    0    0 -0.13125441238E+02  0.14115527177E+02  0.24807925463E+01  0.19433981755E+02  0.00000000000E+00 0. -1.
</event>
<event>
 7    1  0.2584640E-011  0.5052887E+02  0.7816164E-02  0.1300439E+00
        -11   -1    0    0    0    0  0.00000000000E+00  0.00000000000E+00  0.45593999997E+02  0.45594000000E+02  0.51100000000E-03 0. -1.
         11   -1    0    0    0    0 -0.00000000000E+00 -0.00000000000E+00 -0.45593999997E+02  0.45594000000E+02  0.51100000000E-03 0.  1.
    9900012    2    1    2    0    0  0.11259142698E+02  0.31027115507E+02  0.23742675572E+02  0.50528870222E+02  0.30000031526E+02 0.  0.
        -12    1    1    2    0    0 -0.11259142698E+02 -0.31027115507E+02 -0.23742675572E+02  0.40659129778E+02  0.00000000000E+00 0.  1.
         11    1    3    3    0    0  0.88906248994E+01  0.23895915890E+01  0.12035796331E+02  0.15153011339E+02  0.51100000000E-03 0. -1.
        -11    1    3    3    0    0 -0.37494986054E+01  0.26033631446E+01  0.67939228386E+01  0.81849634851E+01  0.51100000000E-03 0.  1.
         12    1    3    3    0    0  0.61180164044E+01  0.26034160774E+02  0.49129564026E+01  0.27190895398E+02  0.00000000000E+00 0. -1.
</event>
<event>
 7    1  0.2584640E-011  0.5052885E+02  0.7816164E-02  0.1300439E+00
        -11   -1    0    0    0    0  0.00000000000E+00  0.00000000000E+00  0.45593999997E+02  0.45594000000E+02  0.51100000000E-03 0. -1.
         11   -1    0    0    0    0 -0.00000000000E+00 -0.00000000000E+00 -0.45593999997E+02  0.45594000000E+02  0.51100000000E-03 0.  1.
    9900012    2    1    2    0    0  0.27239791998E+02 -0.18922141299E+02  0.23518348447E+02  0.50528850807E+02  0.29999972513E+02 0.  0.
        -12    1    1    2    0    0 -0.27239791998E+02  0.18922141299E+02 -0.23518348447E+02  0.40659149193E+02  0.00000000000E+00 0.  1.
         11    1    3    3    0    0  0.24532829088E+02 -0.63649554366E+01  0.12859444147E+02  0.28420725973E+02  0.51100000000E-03 0. -1.
        -11    1    3    3    0    0  0.33721207145E+01 -0.15425585416E+02  0.10848522814E+02  0.19157513697E+02  0.51100000000E-03 0.  1.
        -12    1    3    3    0    0 -0.66515780494E+00  0.28683995535E+01 -0.18961851422E+00  0.29506111376E+01  0.00000000000E+00 0.  1.
</event>
<event>
 7    1  0.2584640E-011  0.5052890E+02  0.7816164E-02  0.1300439E+00
        -11   -1    0    0    0    0  0.00000000000E+00  0.00000000000E+00  0.45593999997E+02  0.45594000000E+02  0.51100000000E-03 0.  1.
         11   -1    0    0    0    0 -0.00000000000E+00 -0.00000000000E+00 -0.45593999997E+02  0.45594000000E+02  0.51100000000E-03 0. -1.
    9900012    2    1    2    0    0 -0.36352086005E+02  0.97132261611E+01 -0.15405884104E+02  0.50528902808E+02  0.30000130576E+02 0.  0.
        -12    1    1    2    0    0  0.36352086005E+02 -0.97132261611E+01  0.15405884104E+02  0.40659097192E+02  0.00000000000E+00 0.  1.
         11    1    3    3    0    0 -0.64541943914E+01  0.10538888045E+02 -0.94466258752E+01  0.15555176861E+02  0.51100000000E-03 0. -1.
        -11    1    3    3    0    0 -0.24312839699E+02  0.38496845536E+01 -0.10086385369E+02  0.26602056602E+02  0.51100000000E-03 0.  1.
        -12    1    3    3    0    0 -0.55850519151E+01 -0.46753464379E+01  0.41271271398E+01  0.83716693459E+01  0.00000000000E+00 0.  1.
</event>
<event>
 7    1  0.2584640E-011  0.5052889E+02  0.7816164E-02  0.1300439E+00
        -11   -1    0    0    0    0  0.00000000000E+00  0.00000000000E+00  0.45593999997E+02  0.45594000000E+02  0.51100000000E-03 0.  1.
         11   -1    0    0    0    0 -0.00000000000E+00 -0.00000000000E+00 -0.45593999997E+02  0.45594000000E+02  0.51100000000E-03 0. -1.
    9900012    2    1    2    0    0  0.19481844803E+02 -0.30711291468E+02 -0.18177944146E+02  0.50528888426E+02  0.30000086861E+02 0.  0.
        -12    1    1    2    0    0 -0.19481844803E+02  0.30711291468E+02  0.18177944146E+02  0.40659111574E+02  0.00000000000E+00 0.  1.
         11    1    3    3    0    0  0.15843596653E+02 -0.10039379286E+02 -0.11757880784E+02  0.22137218709E+02  0.51100000000E-03 0. -1.
        -11    1    3    3    0    0  0.15852447747E+01  0.32621055090E+01 -0.10664280571E+01  0.37804235754E+01  0.51100000000E-03 0.  1.
         12    1    3    3    0    0  0.20530033749E+01 -0.23934017691E+02 -0.53536353047E+01  0.24611246143E+02  0.00000000000E+00 0. -1.
</event>
<event>
 7    1  0.2584640E-011  0.5052886E+02  0.7816164E-02  0.1300439E+00
        -11   -1    0    0    0    0  0.00000000000E+00  0.00000000000E+00  0.45593999997E+02  0.45594000000E+02  0.51100000000E-03 0.  1.
         11   -1    0    0    0    0 -0.00000000000E+00 -0.00000000000E+00 -0.45593999997E+02  0.45594000000E+02  0.51100000000E-03 0. -1.
    9900012    2    1    2    0    0  0.25981408247E+02 -0.11321270290E+02 -0.29154093900E+02  0.50528856789E+02  0.29999990697E+02 0.  0.
        -12    1    1    2    0    0 -0.25981408247E+02  0.11321270290E+02  0.29154093900E+02  0.40659143211E+02  0.00000000000E+00 0.  1.
         11    1    3    3    0    0  0.13619545728E+02 -0.90310797583E+01 -0.26248574657E+02  0.30919898111E+02  0.51100000000E-03 0. -1.
        -11    1    3    3    0    0 -0.21976542327E+01 -0.29447137240E+00 -0.43094222734E+01  0.48463922774E+01  0.51100000000E-03 0.  1.
        -12    1    3    3    0    0  0.14559516752E+02 -0.19957191589E+01  0.14039030300E+01  0.14762566401E+02  0.00000000000E+00 0.  1.
</event>
<event>
 7    1  0.2584640E-011  0.5052885E+02  0.7816164E-02  0.1300439E+00
        -11   -1    0    0    0    0  0.00000000000E+00  0.00000000000E+00  0.45593999997E+02  0.45594000000E+02  0.51100000000E-03 0. -1.
         11   -1    0    0    0    0 -0.00000000000E+00 -0.00000000000E+00 -0.45593999997E+02  0.45594000000E+02  0.51100000000E-03 0.  1.
    9900012    2    1    2    0    0  0.35098322792E+02 -0.16330044235E+02 -0.12433968080E+02  0.50528853800E+02  0.29999981609E+02 0.  0.
        -12    1    1    2    0    0 -0.35098322792E+02  0.16330044235E+02  0.12433968080E+02  0.40659146200E+02  0.00000000000E+00 0.  1.
         11    1    3    3    0    0  0.82691025010E+01 -0.65134507444E+01 -0.11367654666E+02  0.15492794120E+02  0.51100000000E-03 0. -1.
        -11    1    3    3    0    0 -0.13508603387E+01  0.17182299948E+01  0.36194436740E+01  0.42281805472E+01  0.51100000000E-03 0.  1.
         12    1    3    3    0    0  0.28180080630E+02 -0.11534823486E+02 -0.46857570879E+01  0.30807879132E+02  0.00000000000E+00 0. -1.
</event>
<event>
 7    1  0.2584640E-011  0.5052886E+02  0.7816164E-02  0.1300439E+00
        -11   -1    0    0    0    0  0.00000000000E+00  0.00000000000E+00  0.45593999997E+02  0.45594000000E+02  0.51100000000E-03 0. -1.
         11   -1    0    0    0    0 -0.00000000000E+00 -0.00000000000E+00 -0.45593999997E+02  0.45594000000E+02  0.51100000000E-03 0.  1.
    9900012    2    1    2    0    0 -0.40191809871E+01 -0.11414618633E+02  0.38816466594E+02  0.50528863104E+02  0.30000009889E+02 0.  0.
        -12    1    1    2    0    0  0.40191809871E+01  0.11414618633E+02 -0.38816466594E+02  0.40659136896E+02  0.00000000000E+00 0.  1.
         11    1    3    3    0    0 -0.97633419836E+00  0.50270387118E+01  0.70104123108E+01  0.86816028304E+01  0.51100000000E-03 0. -1.
        -11    1    3    3    0    0 -0.75841566701E+01 -0.42618441589E+01  0.14426767848E+01  0.88183935383E+01  0.51100000000E-03 0.  1.
         12    1    3    3    0    0  0.45413098813E+01 -0.12179813186E+02  0.30363377498E+02  0.33028866735E+02  0.00000000000E+00 0. -1.
</event>
<event>
 7    1  0.2584640E-011  0.5052886E+02  0.7816164E-02  0.1300439E+00
        -11   -1    0    0    0    0  0.00000000000E+00  0.00000000000E+00  0.45593999997E+02  0.45594000000E+02  0.51100000000E-03 0.  1.
         11   -1    0    0    0    0 -0.00000000000E+00 -0.00000000000E+00 -0.45593999997E+02  0.45594000000E+02  0.51100000000E-03 0. -1.
    9900012    2    1    2    0    0 -0.36741120794E+02  0.10949966004E+02 -0.13540838579E+02  0.50528855615E+02  0.29999987129E+02 0.  0.
        -12    1    1    2    0    0  0.36741120794E+02 -0.10949966004E+02  0.13540838579E+02  0.40659144385E+02  0.00000000000E+00 0.  1.
         11    1    3    3    0    0 -0.30920147391E+01  0.20533158517E+01 -0.62437487576E+01  0.72636808811E+01  0.51100000000E-03 0. -1.
        -11    1    3    3    0    0 -0.66635238074E+01 -0.32329187239E+01  0.71900991544E+01  0.10322395028E+02  0.51100000000E-03 0.  1.
         12    1    3    3    0    0 -0.26985582247E+02  0.12129568876E+02 -0.14487188976E+02  0.32942779706E+02  0.00000000000E+00 0. -1.
</event>
<event>
 7    1  0.2584640E-011  0.5052885E+02  0.7816164E-02  0.1300439E+00
        -11   -1    0    0    0    0  0.00000000000E+00  0.00000000000E+00  0.45593999997E+02  0.45594000000E+02  0.51100000000E-03 0.  1.
         11   -1    0    0    0    0 -0.00000000000E+00 -0.00000000000E+00 -0.45593999997E+02  0.45594000000E+02  0.51100000000E-03 0. -1.
    9900012    2    1    2    0    0 -0.19213624941E+02  0.35274925872E+02  0.62994129611E+01  0.50528851186E+02  0.29999973664E+02 0.  0.
        -12    1    1    2    0    0  0.19213624941E+02 -0.35274925872E+02 -0.62994129611E+01  0.40659148814E+02  0.00000000000E+00 0.  1.
         11    1    3    3    0    0  0.10352476810E+01  0.71297033411E+01 -0.24439819373E+01  0.76077234087E+01  0.51100000000E-03 0. -1.
        -11    1    3    3    0    0 -0.22967109401E+01 -0.36515486410E+01  0.43785744262E+01  0.61465927868E+01  0.51100000000E-03 0.  1.
         12    1    3    3    0    0 -0.17952161682E+02  0.31796771172E+02  0.43648204722E+01  0.36774534990E+02  0.00000000000E+00 0. -1.
</event>
<event>
 7    1  0.2584640E-011  0.5052885E+02  0.7816164E-02  0.1300439E+00
        -11   -1    0    0    0    0  0.00000000000E+00  0.00000000000E+00  0.45593999997E+02  0.45594000000E+02  0.51100000000E-03 0.  1.
         11   -1    0    0    0    0 -0.00000000000E+00 -0.00000000000E+00 -0.45593999997E+02  0.45594000000E+02  0.51100000000E-03 0. -1.
    9900012    2    1    2    0    0 -0.38239717457E+02  0.10550054299E+02  0.89211478925E+01  0.50528849534E+02  0.29999968642E+02 0.  0.
        -12    1    1    2    0    0  0.38239717457E+02 -0.10550054299E+02 -0.89211478925E+01  0.40659150466E+02  0.00000000000E+00 0.  1.
         11    1    3    3    0    0 -0.16217154365E+02 -0.61104772165E+01  0.34259059304E+00  0.17333533860E+02  0.51100000000E-03 0. -1.
        -11    1    3    3    0    0  0.15888784545E+01 -0.71325413188E+00 -0.13940044796E+01  0.22308103797E+01  0.51100000000E-03 0.  1.
         12    1    3    3    0    0 -0.23611441547E+02  0.17373785647E+02  0.99725617790E+01  0.30964505293E+02  0.00000000000E+00 0. -1.
</event>
<event>
 7    1  0.2584640E-011  0.5052886E+02  0.7816164E-02  0.1300439E+00
        -11   -1    0    0    0    0  0.00000000000E+00  0.00000000000E+00  0.45593999997E+02  0.45594000000E+02  0.51100000000E-03 0. -1.
         11   -1    0    0    0    0 -0.00000000000E+00 -0.00000000000E+00 -0.45593999997E+02  0.45594000000E+02  0.51100000000E-03 0.  1.
    9900012    2    1    2    0    0 -0.21268908229E+02  0.93396276721E+00  0.34639965723E+02  0.50528856268E+02  0.29999989112E+02 0.  0.
        -12    1    1    2    0    0  0.21268908229E+02 -0.93396276721E+00 -0.34639965723E+02  0.40659143732E+02  0.00000000000E+00 0.  1.
         11    1    3    3    0    0 -0.94174015899E+01  0.36790042601E+01  0.81614309406E+01  0.12993516857E+02  0.51100000000E-03 0. -1.
        -11    1    3    3    0    0 -0.34085915309E+01  0.58436726621E+01  0.24391410940E+02  0.25312209194E+02  0.51100000000E-03 0.  1.
        -12    1    3    3    0    0 -0.84429151080E+01 -0.85887141550E+01  0.20871238430E+01  0.12223130217E+02  0.00000000000E+00 0.  1.
</event>
<event>
 7    1  0.2584640E-011  0.5052884E+02  0.7816164E-02  0.1300439E+00
        -11   -1    0    0    0    0  0.00000000000E+00  0.00000000000E+00  0.45593999997E+02  0.45594000000E+02  0.51100000000E-03 0. -1.
         11   -1    0    0    0    0 -0.00000000000E+00 -0.00000000000E+00 -0.45593999997E+02  0.45594000000E+02  0.51100000000E-03 0.  1.
    9900012    2    1    2    0    0  0.13831956133E+02 -0.23391134466E+02  0.30243990324E+02  0.50528841956E+02  0.29999945610E+02 0.  0.
        -12    1    1    2    0    0 -0.13831956133E+02  0.23391134466E+02 -0.30243990324E+02  0.40659158044E+02  0.00000000000E+00 0.  1.
         11    1    3    3    0    0 -0.60041513000E+00 -0.86470949066E+01  0.11771531684E+01  0.87474818373E+01  0.51100000000E-03 0. -1.
        -11    1    3    3    0    0  0.10380898476E+02 -0.14491062601E+02  0.66906260864E+01  0.19039916653E+02  0.51100000000E-03 0.  1.
         12    1    3    3    0    0  0.40514727875E+01 -0.25297695876E+00  0.22376211069E+02  0.22741443466E+02  0.00000000000E+00 0. -1.
</event>
<event>
 7    1  0.2584640E-011  0.5052886E+02  0.7816164E-02  0.1300439E+00
        -11   -1    0    0    0    0  0.00000000000E+00  0.00000000000E+00  0.45593999997E+02  0.45594000000E+02  0.51100000000E-03 0. -1.
         11   -1    0    0    0    0 -0.00000000000E+00 -0.00000000000E+00 -0.45593999997E+02  0.45594000000E+02  0.51100000000E-03 0.  1.
    9900012    2    1    2    0    0 -0.26741866422E+02 -0.29743054326E+02  0.73067935267E+01  0.50528856724E+02  0.29999990497E+02 0.  0.
        -12    1    1    2    0    0  0.26741866422E+02  0.29743054326E+02 -0.73067935267E+01  0.40659143276E+02  0.00000000000E+00 0.  1.
         11    1    3    3    0    0 -0.14076855615E+02 -0.18892547046E+01  0.95872963425E+01  0.17136026341E+02  0.51100000000E-03 0. -1.
        -11    1    3    3    0    0  0.83448536458E+00 -0.68097547076E+01  0.35434097385E+01  0.77217146954E+01  0.51100000000E-03 0.  1.
        -12    1    3    3    0    0 -0.13499496172E+02 -0.21044044913E+02 -0.58239125543E+01  0.25671115688E+02  0.00000000000E+00 0.  1.
</event>
<event>
 7    1  0.2584640E-011  0.5052886E+02  0.7816164E-02  0.1300439E+00
        -11   -1    0    0    0    0  0.00000000000E+00  0.00000000000E+00  0.45593999997E+02  0.45594000000E+02  0.51100000000E-03 0.  1.
         11   -1    0    0    0    0 -0.00000000000E+00 -0.00000000000E+00 -0.45593999997E+02  0.45594000000E+02  0.51100000000E-03 0. -1.
    9900012    2    1    2    0    0  0.47388993590E+01 -0.37025426086E+02 -0.16119132381E+02  0.50528858683E+02  0.29999996451E+02 0.  0.
        -12    1    1    2    0    0 -0.47388993590E+01  0.37025426086E+02  0.16119132381E+02  0.40659141317E+02  0.00000000000E+00 0.  1.
         11    1    3    3    0    0  0.11667252095E+01 -0.78806877992E+01 -0.12119659695E+02  0.14503538854E+02  0.51100000000E-03 0. -1.
        -11    1    3    3    0    0 -0.68983439500E+01 -0.27911535537E+01 -0.10385502985E+01  0.75137390423E+01  0.51100000000E-03 0.  1.
         12    1    3    3    0    0  0.10470518099E+02 -0.26353584733E+02 -0.29609223872E+01  0.28511580786E+02  0.00000000000E+00 0. -1.
</event>
<event>
 7    1  0.2584640E-011  0.5052886E+02  0.7816164E-02  0.1300439E+00
        -11   -1    0    0    0    0  0.00000000000E+00  0.00000000000E+00  0.45593999997E+02  0.45594000000E+02  0.51100000000E-03 0.  1.
         11   -1    0    0    0    0 -0.00000000000E+00 -0.00000000000E+00 -0.45593999997E+02  0.45594000000E+02  0.51100000000E-03 0. -1.
    9900012    2    1    2    0    0 -0.33010374066E+02  0.23591741325E+02 -0.26287515871E+01  0.50528863392E+02  0.30000010767E+02 0.  0.
        -12    1    1    2    0    0  0.33010374066E+02 -0.23591741325E+02  0.26287515871E+01  0.40659136608E+02  0.00000000000E+00 0.  1.
         11    1    3    3    0    0 -0.17755560930E+02  0.12639932558E+01 -0.48479169320E+01  0.18448846082E+02  0.51100000000E-03 0. -1.
        -11    1    3    3    0    0 -0.18564390403E+02  0.14671411179E+02  0.16916249945E+01  0.23722320553E+02  0.51100000000E-03 0.  1.
        -12    1    3    3    0    0  0.33095772673E+01  0.76563368911E+01  0.52754035038E+00  0.83576967580E+01  0.00000000000E+00 0.  1.
</event>
<event>
 7    1  0.2584640E-011  0.5052886E+02  0.7816164E-02  0.1300439E+00
        -11   -1    0    0    0    0  0.00000000000E+00  0.00000000000E+00  0.45593999997E+02  0.45594000000E+02  0.51100000000E-03 0.  1.
         11   -1    0    0    0    0 -0.00000000000E+00 -0.00000000000E+00 -0.45593999997E+02  0.45594000000E+02  0.51100000000E-03 0. -1.
    9900012    2    1    2    0    0 -0.29246958842E+02  0.28152905006E+02 -0.22793174980E+01  0.50528856501E+02  0.29999989822E+02 0.  0.
        -12    1    1    2    0    0  0.29246958842E+02 -0.28152905006E+02  0.22793174980E+01  0.40659143499E+02  0.00000000000E+00 0.  1.
         11    1    3    3    0    0 -0.44717945760E+01  0.80042471145E+01  0.84804052744E+01  0.12489283105E+02  0.51100000000E-03 0. -1.
        -11    1    3    3    0    0 -0.58260238034E+01  0.15678288930E+02 -0.25877727125E+01  0.16924770752E+02  0.51100000000E-03 0.  1.
        -12    1    3    3    0    0 -0.18949140463E+02  0.44703689613E+01 -0.81719500599E+01  0.21114802644E+02  0.00000000000E+00 0.  1.
</event>
<event>
 7    1  0.2584640E-011  0.5052887E+02  0.7816164E-02  0.1300439E+00
        -11   -1    0    0    0    0  0.00000000000E+00  0.00000000000E+00  0.45593999997E+02  0.45594000000E+02  0.51100000000E-03 0. -1.
         11   -1    0    0    0    0 -0.00000000000E+00 -0.00000000000E+00 -0.45593999997E+02  0.45594000000E+02  0.51100000000E-03 0.  1.
    9900012    2    1    2    0    0 -0.24501752207E+01 -0.23431684484E+02  0.33137864007E+02  0.50528865389E+02  0.30000016837E+02 0.  0.
        -12    1    1    2    0    0  0.24501752207E+01  0.23431684484E+02 -0.33137864007E+02  0.40659134611E+02  0.00000000000E+00 0.  1.
         11    1    3    3    0    0 -0.12342848464E+02 -0.11614911511E+02  0.95664045588E+01  0.19461967374E+02  0.51100000000E-03 0. -1.
        -11    1    3    3    0    0  0.35505013480E+01 -0.12688265178E+02  0.11895467658E+02  0.17751064309E+02  0.51100000000E-03 0.  1.
        -12    1    3    3    0    0  0.63421718956E+01  0.87149220464E+00  0.11675991789E+02  0.13315833706E+02  0.00000000000E+00 0.  1.
</event>
<event>
 7    1  0.2584640E-011  0.5052886E+02  0.7816164E-02  0.1300439E+00
        -11   -1    0    0    0    0  0.00000000000E+00  0.00000000000E+00  0.45593999997E+02  0.45594000000E+02  0.51100000000E-03 0. -1.
         11   -1    0    0    0    0 -0.00000000000E+00 -0.00000000000E+00 -0.45593999997E+02  0.45594000000E+02  0.51100000000E-03 0.  1.
    9900012    2    1    2    0    0  0.75929700215E+00 -0.31336754192E+02  0.25895885367E+02  0.50528861124E+02  0.30000003873E+02 0.  0.
        -12    1    1    2    0    0 -0.75929700215E+00  0.31336754192E+02 -0.25895885367E+02  0.40659138876E+02  0.00000000000E+00 0.  1.
         11    1    3    3    0    0 -0.93363913762E+01 -0.15529997772E+02  0.19176518646E+02  0.26383477829E+02  0.51100000000E-03 0. -1.
        -11    1    3    3    0    0  0.61132105967E+01 -0.15251493636E+00  0.50042314133E+01  0.79017046834E+01  0.51100000000E-03 0.  1.
        -12    1    3    3    0    0  0.39824777817E+01 -0.15654241484E+02  0.17151353075E+01  0.16243678612E+02  0.00000000000E+00 0.  1.
</event>
<event>
 7    1  0.2584640E-011  0.5052886E+02  0.7816164E-02  0.1300439E+00
        -11   -1    0    0    0    0  0.00000000000E+00  0.00000000000E+00  0.45593999997E+02  0.45594000000E+02  0.51100000000E-03 0. -1.
         11   -1    0    0    0    0 -0.00000000000E+00 -0.00000000000E+00 -0.45593999997E+02  0.45594000000E+02  0.51100000000E-03 0.  1.
    9900012    2    1    2    0    0 -0.95036418669E+01  0.29323779810E+02  0.26513434773E+02  0.50528862103E+02  0.30000006847E+02 0.  0.
        -12    1    1    2    0    0  0.95036418669E+01 -0.29323779810E+02 -0.26513434773E+02  0.40659137897E+02  0.00000000000E+00 0.  1.
         11    1    3    3    0    0  0.77044740481E+01  0.18763526493E+02  0.20270862122E+02  0.28676413623E+02  0.51100000000E-03 0. -1.
        -11    1    3    3    0    0 -0.44055879612E+01  0.17452654235E+01 -0.76858741178E+00  0.48006128310E+01  0.51100000000E-03 0.  1.
        -12    1    3    3    0    0 -0.12802527954E+02  0.88149878931E+01  0.70111600628E+01  0.17051835649E+02  0.00000000000E+00 0.  1.
</event>
<event>
 7    1  0.2584640E-011  0.5052887E+02  0.7816164E-02  0.1300439E+00
        -11   -1    0    0    0    0  0.00000000000E+00  0.00000000000E+00  0.45593999997E+02  0.45594000000E+02  0.51100000000E-03 0. -1.
         11   -1    0    0    0    0 -0.00000000000E+00 -0.00000000000E+00 -0.45593999997E+02  0.45594000000E+02  0.51100000000E-03 0.  1.
    9900012    2    1    2    0    0  0.40170626036E+02 -0.19108113925E+00  0.62808350651E+01  0.50528873137E+02  0.30000040388E+02 0.  0.
        -12    1    1    2    0    0 -0.40170626036E+02  0.19108113925E+00 -0.62808350651E+01  0.40659126863E+02  0.00000000000E+00 0.  1.
         11    1    3    3    0    0  0.13470055704E+02  0.24933256247E+01  0.10229974981E+02  0.17097118521E+02  0.51100000000E-03 0. -1.
        -11    1    3    3    0    0 -0.26519412713E+01  0.99733691813E+00  0.17149490092E+01  0.33118761752E+01  0.51100000000E-03 0.  1.
        -12    1    3    3    0    0  0.29352511603E+02 -0.36817436821E+01 -0.56640889255E+01  0.30119878441E+02  0.00000000000E+00 0.  1.
</event>
<event>
 7    1  0.2584640E-011  0.5052886E+02  0.7816164E-02  0.1300439E+00
        -11   -1    0    0    0    0  0.00000000000E+00  0.00000000000E+00  0.45593999997E+02  0.45594000000E+02  0.51100000000E-03 0. -1.
         11   -1    0    0    0    0 -0.00000000000E+00 -0.00000000000E+00 -0.45593999997E+02  0.45594000000E+02  0.51100000000E-03 0.  1.
    9900012    2    1    2    0    0 -0.12921898731E+02 -0.13732987521E+02  0.36022148017E+02  0.50528861288E+02  0.30000004370E+02 0.  0.
        -12    1    1    2    0    0  0.12921898731E+02  0.13732987521E+02 -0.36022148017E+02  0.40659138712E+02  0.00000000000E+00 0.  1.
         11    1    3    3    0    0 -0.10045121090E+02 -0.14934563634E+02  0.15592210321E+02  0.23813077743E+02  0.51100000000E-03 0. -1.
        -11    1    3    3    0    0 -0.82438128647E+01 -0.24153345263E+01  0.17733332567E+02  0.19704450655E+02  0.51100000000E-03 0.  1.
         12    1    3    3    0    0  0.53670352245E+01  0.36169106383E+01  0.26966051289E+01  0.70113328896E+01  0.00000000000E+00 0. -1.
</event>
<event>
 7    1  0.2584640E-011  0.5052886E+02  0.7816164E-02  0.1300439E+00
        -11   -1    0    0    0    0  0.00000000000E+00  0.00000000000E+00  0.45593999997E+02  0.45594000000E+02  0.51100000000E-03 0.  1.
         11   -1    0    0    0    0 -0.00000000000E+00 -0.00000000000E+00 -0.45593999997E+02  0.45594000000E+02  0.51100000000E-03 0. -1.
    9900012    2    1    2    0    0  0.10236006058E+02 -0.26701813131E+02  0.28903342138E+02  0.50528857962E+02  0.29999994262E+02 0.  0.
        -12    1    1    2    0    0 -0.10236006058E+02  0.26701813131E+02 -0.28903342138E+02  0.40659142038E+02  0.00000000000E+00 0.  1.
         11    1    3    3    0    0  0.76089241972E+01 -0.10157213859E+02  0.46591389859E+01  0.13519330500E+02  0.51100000000E-03 0. -1.
        -11    1    3    3    0    0  0.11037776728E+02 -0.21769519680E+01  0.11016064689E+02  0.15745644365E+02  0.51100000000E-03 0.  1.
        -12    1    3    3    0    0 -0.84106948672E+01 -0.14367647304E+02  0.13228138463E+02  0.21263883098E+02  0.00000000000E+00 0.  1.
</event>
<event>
 7    1  0.2584640E-011  0.5052887E+02  0.7816164E-02  0.1300439E+00
        -11   -1    0    0    0    0  0.00000000000E+00  0.00000000000E+00  0.45593999997E+02  0.45594000000E+02  0.51100000000E-03 0. -1.
         11   -1    0    0    0    0 -0.00000000000E+00 -0.00000000000E+00 -0.45593999997E+02  0.45594000000E+02  0.51100000000E-03 0.  1.
    9900012    2    1    2    0    0  0.14772123789E+02  0.31779128815E+02  0.20616413462E+02  0.50528866051E+02  0.30000018848E+02 0.  0.
        -12    1    1    2    0    0 -0.14772123789E+02 -0.31779128815E+02 -0.20616413462E+02  0.40659133949E+02  0.00000000000E+00 0.  1.
         11    1    3    3    0    0  0.24480015779E+01 -0.10274708492E+01  0.44930003191E+01  0.52187604084E+01  0.51100000000E-03 0. -1.
        -11    1    3    3    0    0 -0.45079895910E+00 -0.30598759504E+01 -0.14029138879E+01  0.33962079105E+01  0.51100000000E-03 0.  1.
        -12    1    3    3    0    0  0.12774921170E+02  0.35866475614E+02  0.17526327031E+02  0.41913897732E+02  0.00000000000E+00 0.  1.
</event>
<event>
 7    1  0.2584640E-011  0.5052886E+02  0.7816164E-02  0.1300439E+00
        -11   -1    0    0    0    0  0.00000000000E+00  0.00000000000E+00  0.45593999997E+02  0.45594000000E+02  0.51100000000E-03 0.  1.
         11   -1    0    0    0    0 -0.00000000000E+00 -0.00000000000E+00 -0.45593999997E+02  0.45594000000E+02  0.51100000000E-03 0. -1.
    9900012    2    1    2    0    0 -0.91000979837E+01 -0.26033391005E+01 -0.39542085043E+02  0.50528860224E+02  0.30000001138E+02 0.  0.
        -12    1    1    2    0    0  0.91000979837E+01  0.26033391005E+01  0.39542085043E+02  0.40659139776E+02  0.00000000000E+00 0.  1.
         11    1    3    3    0    0 -0.61488279852E+01  0.63361695900E+00  0.30311871610E+00  0.61888154973E+01  0.51100000000E-03 0. -1.
        -11    1    3    3    0    0  0.45422328057E+01 -0.31255082661E+01 -0.21677972795E+01  0.59245274992E+01  0.51100000000E-03 0.  1.
         12    1    3    3    0    0 -0.74935028041E+01 -0.11144779335E+00 -0.37677406479E+02  0.38415517228E+02  0.00000000000E+00 0. -1.
</event>
<event>
 7    1  0.2584640E-011  0.5052887E+02  0.7816164E-02  0.1300439E+00
        -11   -1    0    0    0    0  0.00000000000E+00  0.00000000000E+00  0.45593999997E+02  0.45594000000E+02  0.51100000000E-03 0.  1.
         11   -1    0    0    0    0 -0.00000000000E+00 -0.00000000000E+00 -0.45593999997E+02  0.45594000000E+02  0.51100000000E-03 0. -1.
    9900012    2    1    2    0    0  0.96404867604E+01 -0.30260769399E+02 -0.25387241959E+02  0.50528865678E+02  0.30000017714E+02 0.  0.
        -12    1    1    2    0    0 -0.96404867604E+01  0.30260769399E+02  0.25387241959E+02  0.40659134322E+02  0.00000000000E+00 0.  1.
         11    1    3    3    0    0  0.14065405939E+02 -0.22253976393E+02 -0.80576443975E+01  0.27531813290E+02  0.51100000000E-03 0. -1.
        -11    1    3    3    0    0  0.82535932003E+00  0.93697209481E+00 -0.10512064320E+02  0.10585963879E+02  0.51100000000E-03 0.  1.
        -12    1    3    3    0    0 -0.52502784984E+01 -0.89437651007E+01 -0.68175332407E+01  0.12411088509E+02  0.00000000000E+00 0.  1.
</event>
<event>
 7    1  0.2584640E-011  0.5052885E+02  0.7816164E-02  0.1300439E+00
        -11   -1    0    0    0    0  0.00000000000E+00  0.00000000000E+00  0.45593999997E+02  0.45594000000E+02  0.51100000000E-03 0.  1.
         11   -1    0    0    0    0 -0.00000000000E+00 -0.00000000000E+00 -0.45593999997E+02  0.45594000000E+02  0.51100000000E-03 0. -1.
    9900012    2    1    2    0    0  0.15834702996E+02 -0.17619851744E+02 -0.33044965811E+02  0.50528846542E+02  0.29999959550E+02 0.  0.
        -12    1    1    2    0    0 -0.15834702996E+02  0.17619851744E+02  0.33044965811E+02  0.40659153458E+02  0.00000000000E+00 0.  1.
         11    1    3    3    0    0  0.10117286417E+02 -0.19447455350E+02 -0.22544086764E+02  0.31445172162E+02  0.51100000000E-03 0. -1.
        -11    1    3    3    0    0  0.20393916508E+01 -0.64644108119E+01 -0.35238786688E+01  0.76397281748E+01  0.51100000000E-03 0.  1.
         12    1    3    3    0    0  0.36780249287E+01  0.82920144175E+01 -0.69770003782E+01  0.11443946205E+02  0.00000000000E+00 0. -1.
</event>
<event>
 7    1  0.2584640E-011  0.5052884E+02  0.7816164E-02  0.1300439E+00
        -11   -1    0    0    0    0  0.00000000000E+00  0.00000000000E+00  0.45593999997E+02  0.45594000000E+02  0.51100000000E-03 0. -1.
         11   -1    0    0    0    0 -0.00000000000E+00 -0.00000000000E+00 -0.45593999997E+02  0.45594000000E+02  0.51100000000E-03 0.  1.
    9900012    2    1    2    0    0 -0.13344252385E+02  0.25007193684E+02  0.29150268065E+02  0.50528844378E+02  0.29999952970E+02 0.  0.
        -12    1    1    2    0    0  0.13344252385E+02 -0.25007193684E+02 -0.29150268065E+02  0.40659155622E+02  0.00000000000E+00 0.  1.
         11    1    3    3    0    0 -0.13532147927E+02  0.93067063583E+01  0.21300228676E+02  0.26896720110E+02  0.51100000000E-03 0. -1.
        -11    1    3    3    0    0 -0.20451165727E+01  0.16656917898E+01  0.89959669719E+01  0.93746708185E+01  0.51100000000E-03 0.  1.
        -12    1    3    3    0    0  0.22330121151E+01  0.14034795536E+02 -0.11459275823E+01  0.14257453449E+02  0.00000000000E+00 0.  1.
</event>
<event>
 7    1  0.2584640E-011  0.5052893E+02  0.7816164E-02  0.1300439E+00
        -11   -1    0    0    0    0  0.00000000000E+00  0.00000000000E+00  0.45593999997E+02  0.45594000000E+02  0.51100000000E-03 0.  1.
         11   -1    0    0    0    0 -0.00000000000E+00 -0.00000000000E+00 -0.45593999997E+02  0.45594000000E+02  0.51100000000E-03 0. -1.
    9900012    2    1    2    0    0  0.26429395243E+02  0.21499547656E+02 -0.22190465267E+02  0.50528926830E+02  0.30000203591E+02 0.  0.
        -12    1    1    2    0    0 -0.26429395243E+02 -0.21499547656E+02  0.22190465267E+02  0.40659073170E+02  0.00000000000E+00 0.  1.
         11    1    3    3    0    0  0.12150156868E+02 -0.18786539137E+01 -0.67081236456E+01  0.14005519468E+02  0.51100000000E-03 0. -1.
        -11    1    3    3    0    0  0.10106143144E+02  0.12145952639E+02 -0.18337198241E+02  0.24205601301E+02  0.51100000000E-03 0.  1.
         12    1    3    3    0    0  0.41730952304E+01  0.11232248930E+02  0.28548566196E+01  0.12317806061E+02  0.00000000000E+00 0. -1.
</event>
<event>
 7    1  0.2584640E-011  0.5052884E+02  0.7816164E-02  0.1300439E+00
        -11   -1    0    0    0    0  0.00000000000E+00  0.00000000000E+00  0.45593999997E+02  0.45594000000E+02  0.51100000000E-03 0. -1.
         11   -1    0    0    0    0 -0.00000000000E+00 -0.00000000000E+00 -0.45593999997E+02  0.45594000000E+02  0.51100000000E-03 0.  1.
    9900012    2    1    2    0    0 -0.58927496493E+01  0.38313778653E+02  0.12267741984E+02  0.50528835885E+02  0.29999927157E+02 0.  0.
        -12    1    1    2    0    0  0.58927496493E+01 -0.38313778653E+02 -0.12267741984E+02  0.40659164115E+02  0.00000000000E+00 0.  1.
         11    1    3    3    0    0  0.51871835150E+01  0.79210897479E+01  0.37551381434E+01  0.10185852853E+02  0.51100000000E-03 0. -1.
        -11    1    3    3    0    0 -0.28557044178E+01  0.30817611992E+01  0.10938510167E+02  0.11717649285E+02  0.51100000000E-03 0.  1.
         12    1    3    3    0    0 -0.82242287465E+01  0.27310927706E+02 -0.24259063264E+01  0.28625333747E+02  0.00000000000E+00 0. -1.
</event>
<event>
 7    1  0.2584640E-011  0.5052886E+02  0.7816164E-02  0.1300439E+00
        -11   -1    0    0    0    0  0.00000000000E+00  0.00000000000E+00  0.45593999997E+02  0.45594000000E+02  0.51100000000E-03 0.  1.
         11   -1    0    0    0    0 -0.00000000000E+00 -0.00000000000E+00 -0.45593999997E+02  0.45594000000E+02  0.51100000000E-03 0. -1.
    9900012    2    1    2    0    0 -0.36341209678E+02  0.14680270213E+01  0.18174909500E+02  0.50528856384E+02  0.29999989466E+02 0.  0.
        -12    1    1    2    0    0  0.36341209678E+02 -0.14680270213E+01 -0.18174909500E+02  0.40659143616E+02  0.00000000000E+00 0.  1.
         11    1    3    3    0    0 -0.36115435363E+02  0.18292823374E+01  0.14302215753E+02  0.38887328541E+02  0.51100000000E-03 0. -1.
        -11    1    3    3    0    0 -0.41898451410E+01 -0.16657943701E+01 -0.15777382508E+01  0.47769165199E+01  0.51100000000E-03 0.  1.
        -12    1    3    3    0    0  0.39640708262E+01  0.13045390540E+01  0.54504319977E+01  0.68646113233E+01  0.00000000000E+00 0.  1.
</event>
<event>
 7    1  0.2584640E-011  0.5052884E+02  0.7816164E-02  0.1300439E+00
        -11   -1    0    0    0    0  0.00000000000E+00  0.00000000000E+00  0.45593999997E+02  0.45594000000E+02  0.51100000000E-03 0.  1.
         11   -1    0    0    0    0 -0.00000000000E+00 -0.00000000000E+00 -0.45593999997E+02  0.45594000000E+02  0.51100000000E-03 0. -1.
    9900012    2    1    2    0    0 -0.21844180104E+02  0.33213592978E+02 -0.85355703755E+01  0.50528844517E+02  0.29999953394E+02 0.  0.
        -12    1    1    2    0    0  0.21844180104E+02 -0.33213592978E+02  0.85355703755E+01  0.40659155483E+02  0.00000000000E+00 0.  1.
         11    1    3    3    0    0 -0.10297366944E+02  0.16868653008E+02 -0.16734422415E+02  0.25896488451E+02  0.51100000000E-03 0. -1.
        -11    1    3    3    0    0 -0.11051005090E+02  0.16265960464E+02  0.35821635348E+01  0.19988448643E+02  0.51100000000E-03 0.  1.
        -12    1    3    3    0    0 -0.49580807069E+00  0.78979506100E-01  0.46166885043E+01  0.46439074228E+01  0.00000000000E+00 0.  1.
</event>
<event>
 7    1  0.2653646E-011  0.5052890E+02  0.7816164E-02  0.1300439E+00
        -11   -1    0    0    0    0  0.00000000000E+00  0.00000000000E+00  0.45593999997E+02  0.45594000000E+02  0.51100000000E-03 0. -1.
         11   -1    0    0    0    0 -0.00000000000E+00 -0.00000000000E+00 -0.45593999997E+02  0.45594000000E+02  0.51100000000E-03 0.  1.
    9900012    2    1    2    0    0  0.26073538943E+02 -0.22680317117E+02  0.21422796462E+02  0.50528899840E+02  0.30000121554E+02 0.  0.
        -12    1    1    2    0    0 -0.26073538943E+02  0.22680317117E+02 -0.21422796462E+02  0.40659100160E+02  0.00000000000E+00 0.  1.
         11    1    3    3    0    0  0.13119404708E+02 -0.58310508739E+01  0.93409373492E+01  0.17128136064E+02  0.51100000000E-03 0. -1.
        -11    1    3    3    0    0 -0.19383921677E-01  0.50168049327E+01  0.48243391427E+01  0.69600974056E+01  0.51100000000E-03 0.  1.
        -12    1    3    3    0    0  0.12973518157E+02 -0.21866071175E+02  0.72575199705E+01  0.26440666371E+02  0.00000000000E+00 0.  1.
</event>
<event>
 7    1  0.2584640E-011  0.5052886E+02  0.7816164E-02  0.1300439E+00
        -11   -1    0    0    0    0  0.00000000000E+00  0.00000000000E+00  0.45593999997E+02  0.45594000000E+02  0.51100000000E-03 0. -1.
         11   -1    0    0    0    0 -0.00000000000E+00 -0.00000000000E+00 -0.45593999997E+02  0.45594000000E+02  0.51100000000E-03 0.  1.
    9900012    2    1    2    0    0  0.45219875199E+01 -0.14412278051E+02  0.37749222112E+02  0.50528857119E+02  0.29999991698E+02 0.  0.
        -12    1    1    2    0    0 -0.45219875199E+01  0.14412278051E+02 -0.37749222112E+02  0.40659142881E+02  0.00000000000E+00 0.  1.
         11    1    3    3    0    0  0.60471574902E+00 -0.83599682621E+01  0.15408025986E+02  0.17540296906E+02  0.51100000000E-03 0. -1.
        -11    1    3    3    0    0  0.80041724633E+01  0.61818211557E+01  0.15165048536E+02  0.18228011054E+02  0.51100000000E-03 0.  1.
         12    1    3    3    0    0 -0.40869006924E+01 -0.12234130945E+02  0.71761475894E+01  0.14760549159E+02  0.00000000000E+00 0. -1.
</event>
<event>
 7    1  0.2584640E-011  0.5052886E+02  0.7816164E-02  0.1300439E+00
        -11   -1    0    0    0    0  0.00000000000E+00  0.00000000000E+00  0.45593999997E+02  0.45594000000E+02  0.51100000000E-03 0.  1.
         11   -1    0    0    0    0 -0.00000000000E+00 -0.00000000000E+00 -0.45593999997E+02  0.45594000000E+02  0.51100000000E-03 0. -1.
    9900012    2    1    2    0    0 -0.28919905219E+02  0.12642559807E+01 -0.28551817688E+02  0.50528861367E+02  0.30000004612E+02 0.  0.
        -12    1    1    2    0    0  0.28919905219E+02 -0.12642559807E+01  0.28551817688E+02  0.40659138633E+02  0.00000000000E+00 0.  1.
         11    1    3    3    0    0 -0.14370512723E+02  0.45443107463E+01 -0.27084015428E+02  0.30995262349E+02  0.51100000000E-03 0.  1.
        -11    1    3    3    0    0 -0.83558848150E+01 -0.69784700023E+01 -0.44059689248E+01  0.11744463251E+02  0.51100000000E-03 0. -1.
        -12    1    3    3    0    0 -0.61935076810E+01  0.36984152367E+01  0.29381666653E+01  0.77891357678E+01  0.00000000000E+00 0.  1.
</event>
<event>
 7    1  0.2584640E-011  0.5052885E+02  0.7816164E-02  0.1300439E+00
        -11   -1    0    0    0    0  0.00000000000E+00  0.00000000000E+00  0.45593999997E+02  0.45594000000E+02  0.51100000000E-03 0.  1.
         11   -1    0    0    0    0 -0.00000000000E+00 -0.00000000000E+00 -0.45593999997E+02  0.45594000000E+02  0.51100000000E-03 0. -1.
    9900012    2    1    2    0    0  0.30783531326E+02  0.10101573018E+02 -0.24566216501E+02  0.50528848859E+02  0.29999966591E+02 0.  0.
        -12    1    1    2    0    0 -0.30783531326E+02 -0.10101573018E+02  0.24566216501E+02  0.40659151141E+02  0.00000000000E+00 0.  1.
         11    1    3    3    0    0  0.99216600376E+01  0.21554545742E+01 -0.16875650559E+02  0.19694489188E+02  0.51100000000E-03 0. -1.
        -11    1    3    3    0    0  0.21519887349E+02 -0.12803117447E+00 -0.72975548766E+01  0.22723913636E+02  0.51100000000E-03 0.  1.
         12    1    3    3    0    0 -0.65801606038E+00  0.80741496182E+01 -0.39301106559E+00  0.81104460352E+01  0.00000000000E+00 0. -1.
</event>
<event>
 7    1  0.2584640E-011  0.5052885E+02  0.7816164E-02  0.1300439E+00
        -11   -1    0    0    0    0  0.00000000000E+00  0.00000000000E+00  0.45593999997E+02  0.45594000000E+02  0.51100000000E-03 0.  1.
         11   -1    0    0    0    0 -0.00000000000E+00 -0.00000000000E+00 -0.45593999997E+02  0.45594000000E+02  0.51100000000E-03 0. -1.
    9900012    2    1    2    0    0 -0.22672399923E+02 -0.17277735281E+02 -0.28993245271E+02  0.50528854337E+02  0.29999983242E+02 0.  0.
        -12    1    1    2    0    0  0.22672399923E+02  0.17277735281E+02  0.28993245271E+02  0.40659145663E+02  0.00000000000E+00 0.  1.
         11    1    3    3    0    0 -0.14989735318E+02 -0.18357350958E+01 -0.71653575310E+01  0.16715395211E+02  0.51100000000E-03 0. -1.
        -11    1    3    3    0    0 -0.22167443931E+01 -0.34844087267E+01 -0.20138673884E+02  0.20557753913E+02  0.51100000000E-03 0.  1.
        -12    1    3    3    0    0 -0.54659202122E+01 -0.11957591458E+02 -0.16892138562E+01  0.13255705213E+02  0.00000000000E+00 0.  1.
</event>
<event>
 7    1  0.2584640E-011  0.5052887E+02  0.7816164E-02  0.1300439E+00
        -11   -1    0    0    0    0  0.00000000000E+00  0.00000000000E+00  0.45593999997E+02  0.45594000000E+02  0.51100000000E-03 0. -1.
         11   -1    0    0    0    0 -0.00000000000E+00 -0.00000000000E+00 -0.45593999997E+02  0.45594000000E+02  0.51100000000E-03 0.  1.
    9900012    2    1    2    0    0 -0.24946826590E+02  0.71826904957E+01  0.31292647711E+02  0.50528868179E+02  0.30000025316E+02 0.  0.
        -12    1    1    2    0    0  0.24946826590E+02 -0.71826904957E+01 -0.31292647711E+02  0.40659131821E+02  0.00000000000E+00 0.  1.
         11    1    3    3    0    0 -0.92202915511E+01  0.30519314927E+01  0.25021456380E+02  0.26840293250E+02  0.51100000000E-03 0. -1.
        -11    1    3    3    0    0  0.13492747900E+01  0.55340953789E+01  0.12101261670E+01  0.58233289211E+01  0.51100000000E-03 0.  1.
        -12    1    3    3    0    0 -0.17075809829E+02 -0.14033363759E+01  0.50610651641E+01  0.17865246007E+02  0.00000000000E+00 0.  1.
</event>
<event>
 7    1  0.2584640E-011  0.5052886E+02  0.7816164E-02  0.1300439E+00
        -11   -1    0    0    0    0  0.00000000000E+00  0.00000000000E+00  0.45593999997E+02  0.45594000000E+02  0.51100000000E-03 0. -1.
         11   -1    0    0    0    0 -0.00000000000E+00 -0.00000000000E+00 -0.45593999997E+02  0.45594000000E+02  0.51100000000E-03 0.  1.
    9900012    2    1    2    0    0  0.29727519019E+02  0.23342274777E+02  0.14985946499E+02  0.50528858699E+02  0.29999996503E+02 0.  0.
        -12    1    1    2    0    0 -0.29727519019E+02 -0.23342274777E+02 -0.14985946499E+02  0.40659141301E+02  0.00000000000E+00 0.  1.
         11    1    3    3    0    0 -0.32602860182E+01  0.23202584157E+01  0.91583094054E+01  0.99943831957E+01  0.51100000000E-03 0. -1.
        -11    1    3    3    0    0  0.40109578554E+01  0.51798590780E-01 -0.96659124722E+00  0.41261077194E+01  0.51100000000E-03 0.  1.
         12    1    3    3    0    0  0.28976847182E+02  0.20970217771E+02  0.67942283409E+01  0.36408367784E+02  0.00000000000E+00 0. -1.
</event>
<event>
 7    1  0.2584640E-011  0.5052885E+02  0.7816164E-02  0.1300439E+00
        -11   -1    0    0    0    0  0.00000000000E+00  0.00000000000E+00  0.45593999997E+02  0.45594000000E+02  0.51100000000E-03 0.  1.
         11   -1    0    0    0    0 -0.00000000000E+00 -0.00000000000E+00 -0.45593999997E+02  0.45594000000E+02  0.51100000000E-03 0. -1.
    9900012    2    1    2    0    0  0.23099510722E+02  0.43688475604E+01 -0.33173670123E+02  0.50528848336E+02  0.29999965004E+02 0.  0.
        -12    1    1    2    0    0 -0.23099510722E+02 -0.43688475604E+01  0.33173670123E+02  0.40659151664E+02  0.00000000000E+00 0.  1.
         11    1    3    3    0    0  0.10153643742E+02  0.57613725654E+01 -0.78836768625E+01  0.14086953404E+02  0.51100000000E-03 0. -1.
        -11    1    3    3    0    0  0.14452650239E+02 -0.90397798711E+00 -0.28996384779E+02  0.32411211110E+02  0.51100000000E-03 0.  1.
        -12    1    3    3    0    0 -0.15067832595E+01 -0.48854701788E+00  0.37063915188E+01  0.40306838217E+01  0.00000000000E+00 0.  1.
</event>
<event>
 7    1  0.2584640E-011  0.5052887E+02  0.7816164E-02  0.1300439E+00
        -11   -1    0    0    0    0  0.00000000000E+00  0.00000000000E+00  0.45593999997E+02  0.45594000000E+02  0.51100000000E-03 0.  1.
         11   -1    0    0    0    0 -0.00000000000E+00 -0.00000000000E+00 -0.45593999997E+02  0.45594000000E+02  0.51100000000E-03 0. -1.
    9900012    2    1    2    0    0  0.24057661890E+02  0.15059184583E+02 -0.29113823782E+02  0.50528869769E+02  0.30000030150E+02 0.  0.
        -12    1    1    2    0    0 -0.24057661890E+02 -0.15059184583E+02  0.29113823782E+02  0.40659130231E+02  0.00000000000E+00 0.  1.
         11    1    3    3    0    0  0.75907397208E+01 -0.75971568084E+01 -0.88610535701E+01  0.13923160263E+02  0.51100000000E-03 0. -1.
        -11    1    3    3    0    0  0.16304503852E+02  0.13507285195E+02 -0.15867567896E+02  0.26458709538E+02  0.51100000000E-03 0.  1.
        -12    1    3    3    0    0  0.16241831684E+00  0.91490561966E+01 -0.43852023160E+01  0.10146999968E+02  0.00000000000E+00 0.  1.
</event>
<event>
 7    1  0.2584640E-011  0.5052888E+02  0.7816164E-02  0.1300439E+00
        -11   -1    0    0    0    0  0.00000000000E+00  0.00000000000E+00  0.45593999997E+02  0.45594000000E+02  0.51100000000E-03 0. -1.
         11   -1    0    0    0    0 -0.00000000000E+00 -0.00000000000E+00 -0.45593999997E+02  0.45594000000E+02  0.51100000000E-03 0.  1.
    9900012    2    1    2    0    0  0.17809097833E+02 -0.17758311962E+02  0.31947494898E+02  0.50528879995E+02  0.30000061233E+02 0.  0.
        -12    1    1    2    0    0 -0.17809097833E+02  0.17758311962E+02 -0.31947494898E+02  0.40659120005E+02  0.00000000000E+00 0.  1.
         11    1    3    3    0    0  0.12157352441E+02 -0.16647972331E+01  0.62249638133E+01  0.13759467393E+02  0.51100000000E-03 0. -1.
        -11    1    3    3    0    0  0.36622767141E+01 -0.76568062133E+01 -0.11207918919E+01  0.85612573168E+01  0.51100000000E-03 0.  1.
         12    1    3    3    0    0  0.19894686777E+01 -0.84367085153E+01  0.26843322976E+02  0.28208155285E+02  0.00000000000E+00 0. -1.
</event>
<event>
 7    1  0.2584640E-011  0.5052886E+02  0.7816164E-02  0.1300439E+00
        -11   -1    0    0    0    0  0.00000000000E+00  0.00000000000E+00  0.45593999997E+02  0.45594000000E+02  0.51100000000E-03 0. -1.
         11   -1    0    0    0    0 -0.00000000000E+00 -0.00000000000E+00 -0.45593999997E+02  0.45594000000E+02  0.51100000000E-03 0.  1.
    9900012    2    1    2    0    0 -0.20654627970E+02  0.35019481076E+02 -0.43395638517E+00  0.50528855524E+02  0.29999986850E+02 0.  0.
        -12    1    1    2    0    0  0.20654627970E+02 -0.35019481076E+02  0.43395638517E+00  0.40659144476E+02  0.00000000000E+00 0.  1.
         11    1    3    3    0    0 -0.59339404591E+01  0.13961519687E+02 -0.42041223383E+01  0.15741992449E+02  0.51100000000E-03 0. -1.
        -11    1    3    3    0    0 -0.88765824514E+01  0.21789238970E+02  0.10568081299E+02  0.25792421241E+02  0.51100000000E-03 0.  1.
         12    1    3    3    0    0 -0.58441050599E+01 -0.73127758126E+00 -0.67979153457E+01  0.89944418337E+01  0.00000000000E+00 0. -1.
</event>
<event>
 7    1  0.2584640E-011  0.5052886E+02  0.7816164E-02  0.1300439E+00
        -11   -1    0    0    0    0  0.00000000000E+00  0.00000000000E+00  0.45593999997E+02  0.45594000000E+02  0.51100000000E-03 0.  1.
         11   -1    0    0    0    0 -0.00000000000E+00 -0.00000000000E+00 -0.45593999997E+02  0.45594000000E+02  0.51100000000E-03 0. -1.
    9900012    2    1    2    0    0  0.68701377666E+01 -0.20895547375E+02 -0.34195657663E+02  0.50528859625E+02  0.29999999317E+02 0.  0.
        -12    1    1    2    0    0 -0.68701377666E+01  0.20895547375E+02  0.34195657663E+02  0.40659140375E+02  0.00000000000E+00 0.  1.
         11    1    3    3    0    0  0.56382467601E+01 -0.14898353791E+02 -0.17290161190E+02  0.23509582013E+02  0.51100000000E-03 0. -1.
        -11    1    3    3    0    0 -0.45002986392E+01 -0.11851383589E+02 -0.83886478727E+01  0.15201230023E+02  0.51100000000E-03 0.  1.
        -12    1    3    3    0    0  0.57321896457E+01  0.58541900047E+01 -0.85168485996E+01  0.11818047589E+02  0.00000000000E+00 0.  1.
</event>
<event>
 7    1  0.2584640E-011  0.5052887E+02  0.7816164E-02  0.1300439E+00
        -11   -1    0    0    0    0  0.00000000000E+00  0.00000000000E+00  0.45593999997E+02  0.45594000000E+02  0.51100000000E-03 0.  1.
         11   -1    0    0    0    0 -0.00000000000E+00 -0.00000000000E+00 -0.45593999997E+02  0.45594000000E+02  0.51100000000E-03 0. -1.
    9900012    2    1    2    0    0 -0.38869429254E+01  0.36408282812E+02 -0.17677490727E+02  0.50528867434E+02  0.30000023053E+02 0.  0.
        -12    1    1    2    0    0  0.38869429254E+01 -0.36408282812E+02  0.17677490727E+02  0.40659132566E+02  0.00000000000E+00 0.  1.
         11    1    3    3    0    0  0.66129807499E+01  0.19336455801E+02  0.10958397095E+01  0.20465358592E+02  0.51100000000E-03 0.  1.
        -11    1    3    3    0    0 -0.30771274617E+01 -0.76984810932E-01  0.61187773232E+00  0.31383171760E+01  0.51100000000E-03 0. -1.
         12    1    3    3    0    0 -0.74227962135E+01  0.17148811821E+02 -0.19385208169E+02  0.26925191666E+02  0.00000000000E+00 0. -1.
</event>
<event>
 7    1  0.2584640E-011  0.5052886E+02  0.7816164E-02  0.1300439E+00
        -11   -1    0    0    0    0  0.00000000000E+00  0.00000000000E+00  0.45593999997E+02  0.45594000000E+02  0.51100000000E-03 0.  1.
         11   -1    0    0    0    0 -0.00000000000E+00 -0.00000000000E+00 -0.45593999997E+02  0.45594000000E+02  0.51100000000E-03 0. -1.
    9900012    2    1    2    0    0 -0.42201616091E+01  0.14677018203E+02 -0.37682105062E+02  0.50528859955E+02  0.30000000319E+02 0.  0.
        -12    1    1    2    0    0  0.42201616091E+01 -0.14677018203E+02  0.37682105062E+02  0.40659140045E+02  0.00000000000E+00 0.  1.
         11    1    3    3    0    0  0.31788739803E+01 -0.85912314928E+00 -0.64446897323E+01  0.72372203487E+01  0.51100000000E-03 0.  1.
        -11    1    3    3    0    0 -0.57198107164E+01  0.16241338379E+02 -0.35058402084E+02  0.39058787282E+02  0.51100000000E-03 0. -1.
         12    1    3    3    0    0 -0.16792248730E+01 -0.70519702728E+00  0.38209867548E+01  0.42328523246E+01  0.00000000000E+00 0. -1.
</event>
<event>
 7    1  0.2584640E-011  0.5052887E+02  0.7816164E-02  0.1300439E+00
        -11   -1    0    0    0    0  0.00000000000E+00  0.00000000000E+00  0.45593999997E+02  0.45594000000E+02  0.51100000000E-03 0.  1.
         11   -1    0    0    0    0 -0.00000000000E+00 -0.00000000000E+00 -0.45593999997E+02  0.45594000000E+02  0.51100000000E-03 0. -1.
    9900012    2    1    2    0    0  0.21998904964E+01 -0.27941792629E+02 -0.29454734003E+02  0.50528872505E+02  0.30000038465E+02 0.  0.
        -12    1    1    2    0    0 -0.21998904964E+01  0.27941792629E+02  0.29454734003E+02  0.40659127495E+02  0.00000000000E+00 0.  1.
         11    1    3    3    0    0 -0.63558106825E+01  0.12266805093E+01 -0.82390882563E+01  0.10477769327E+02  0.51100000000E-03 0. -1.
        -11    1    3    3    0    0  0.30243613645E+01 -0.17400206956E+02 -0.20456497727E+02  0.27025585346E+02  0.51100000000E-03 0.  1.
        -12    1    3    3    0    0  0.55313398144E+01 -0.11768266182E+02 -0.75914801963E+00  0.13025517832E+02  0.00000000000E+00 0.  1.
</event>
<event>
 7    1  0.2584640E-011  0.5052884E+02  0.7816164E-02  0.1300439E+00
        -11   -1    0    0    0    0  0.00000000000E+00  0.00000000000E+00  0.45593999997E+02  0.45594000000E+02  0.51100000000E-03 0.  1.
         11   -1    0    0    0    0 -0.00000000000E+00 -0.00000000000E+00 -0.45593999997E+02  0.45594000000E+02  0.51100000000E-03 0. -1.
    9900012    2    1    2    0    0 -0.40147837061E+02  0.43768619174E+01 -0.47075629394E+01  0.50528844946E+02  0.29999954697E+02 0.  0.
        -12    1    1    2    0    0  0.40147837061E+02 -0.43768619174E+01  0.47075629394E+01  0.40659155054E+02  0.00000000000E+00 0.  1.
         11    1    3    3    0    0 -0.23413636489E+02  0.10521723439E+02 -0.68885256305E+01  0.26577374276E+02  0.51100000000E-03 0. -1.
        -11    1    3    3    0    0 -0.11412164153E+02 -0.38174880338E+01 -0.63688125722E+01  0.13615156238E+02  0.51100000000E-03 0.  1.
        -12    1    3    3    0    0 -0.53220364188E+01 -0.23273734873E+01  0.85497752633E+01  0.10336314432E+02  0.00000000000E+00 0.  1.
</event>
<event>
 7    1  0.2584640E-011  0.5052887E+02  0.7816164E-02  0.1300439E+00
        -11   -1    0    0    0    0  0.00000000000E+00  0.00000000000E+00  0.45593999997E+02  0.45594000000E+02  0.51100000000E-03 0.  1.
         11   -1    0    0    0    0 -0.00000000000E+00 -0.00000000000E+00 -0.45593999997E+02  0.45594000000E+02  0.51100000000E-03 0. -1.
    9900012    2    1    2    0    0  0.20770224923E+02  0.34168258802E+02  0.73683815634E+01  0.50528865728E+02  0.30000017867E+02 0.  0.
        -12    1    1    2    0    0 -0.20770224923E+02 -0.34168258802E+02 -0.73683815634E+01  0.40659134272E+02  0.00000000000E+00 0.  1.
         11    1    3    3    0    0  0.68852019720E+01  0.13447531275E+02 -0.47604560003E+01  0.15839950921E+02  0.51100000000E-03 0. -1.
        -11    1    3    3    0    0 -0.18780703806E+01  0.11357755658E+02  0.11606458609E+02  0.16347343627E+02  0.51100000000E-03 0.  1.
         12    1    3    3    0    0  0.15763093331E+02  0.93629718681E+01  0.52237895427E+00  0.18341571180E+02  0.00000000000E+00 0. -1.
</event>
<event>
 7    1  0.2974607E-011  0.5052886E+02  0.7816164E-02  0.1300439E+00
        -11   -1    0    0    0    0  0.00000000000E+00  0.00000000000E+00  0.45593999997E+02  0.45594000000E+02  0.51100000000E-03 0. -1.
         11   -1    0    0    0    0 -0.00000000000E+00 -0.00000000000E+00 -0.45593999997E+02  0.45594000000E+02  0.51100000000E-03 0.  1.
    9900012    2    1    2    0    0  0.19590632234E+02 -0.33324093628E+02  0.12604665120E+02  0.50528859942E+02  0.30000000280E+02 0.  0.
        -12    1    1    2    0    0 -0.19590632234E+02  0.33324093628E+02 -0.12604665120E+02  0.40659140058E+02  0.00000000000E+00 0.  1.
         11    1    3    3    0    0  0.14840220043E+02 -0.19063053035E+02  0.82321115003E+01  0.25522534787E+02  0.51100000000E-03 0. -1.
        -11    1    3    3    0    0 -0.12761316372E+01 -0.13696395572E+02  0.97894112903E+01  0.16883493041E+02  0.51100000000E-03 0.  1.
        -12    1    3    3    0    0  0.60265438282E+01 -0.56464502109E+00 -0.54168576708E+01  0.81228321132E+01  0.00000000000E+00 0.  1.
</event>
<event>
 7    1  0.2584640E-011  0.5052886E+02  0.7816164E-02  0.1300439E+00
        -11   -1    0    0    0    0  0.00000000000E+00  0.00000000000E+00  0.45593999997E+02  0.45594000000E+02  0.51100000000E-03 0. -1.
         11   -1    0    0    0    0 -0.00000000000E+00 -0.00000000000E+00 -0.45593999997E+02  0.45594000000E+02  0.51100000000E-03 0.  1.
    9900012    2    1    2    0    0 -0.10123835145E+02  0.11934981319E+02  0.37526388158E+02  0.50528860494E+02  0.30000001958E+02 0.  0.
        -12    1    1    2    0    0  0.10123835145E+02 -0.11934981319E+02 -0.37526388158E+02  0.40659139506E+02  0.00000000000E+00 0.  1.
         11    1    3    3    0    0 -0.78787069870E+01  0.13350421662E+02  0.23104655839E+02  0.27823243953E+02  0.51100000000E-03 0. -1.
        -11    1    3    3    0    0 -0.73782116149E+01  0.24694135579E+00  0.80279136714E-01  0.73827793999E+01  0.51100000000E-03 0.  1.
         12    1    3    3    0    0  0.51330834564E+01 -0.16623816991E+01  0.14341453183E+02  0.15322837142E+02  0.00000000000E+00 0. -1.
</event>
<event>
 7    1  0.2584640E-011  0.5052886E+02  0.7816164E-02  0.1300439E+00
        -11   -1    0    0    0    0  0.00000000000E+00  0.00000000000E+00  0.45593999997E+02  0.45594000000E+02  0.51100000000E-03 0.  1.
         11   -1    0    0    0    0 -0.00000000000E+00 -0.00000000000E+00 -0.45593999997E+02  0.45594000000E+02  0.51100000000E-03 0. -1.
    9900012    2    1    2    0    0  0.35750763840E+02 -0.11336752062E+01 -0.19332969233E+02  0.50528855469E+02  0.29999986683E+02 0.  0.
        -12    1    1    2    0    0 -0.35750763840E+02  0.11336752062E+01  0.19332969233E+02  0.40659144531E+02  0.00000000000E+00 0.  1.
         11    1    3    3    0    0  0.21445898034E+02 -0.18411817642E+01 -0.92123001657E+01  0.23413307485E+02  0.51100000000E-03 0. -1.
        -11    1    3    3    0    0  0.11657814612E+02  0.96648056264E+01 -0.92267558777E+01  0.17732629067E+02  0.51100000000E-03 0.  1.
        -12    1    3    3    0    0  0.26470511945E+01 -0.89572990684E+01 -0.89391319005E+00  0.93829189178E+01  0.00000000000E+00 0.  1.
</event>
<event>
 7    1  0.2584640E-011  0.5052888E+02  0.7816164E-02  0.1300439E+00
        -11   -1    0    0    0    0  0.00000000000E+00  0.00000000000E+00  0.45593999997E+02  0.45594000000E+02  0.51100000000E-03 0.  1.
         11   -1    0    0    0    0 -0.00000000000E+00 -0.00000000000E+00 -0.45593999997E+02  0.45594000000E+02  0.51100000000E-03 0. -1.
    9900012    2    1    2    0    0 -0.15915810054E+02 -0.24599711165E+02 -0.28190518332E+02  0.50528878970E+02  0.30000058118E+02 0.  0.
        -12    1    1    2    0    0  0.15915810054E+02  0.24599711165E+02  0.28190518332E+02  0.40659121030E+02  0.00000000000E+00 0.  1.
         11    1    3    3    0    0 -0.65544661694E+01  0.47256863601E-01 -0.98257015733E+00  0.66278732903E+01  0.51100000000E-03 0. -1.
        -11    1    3    3    0    0 -0.11442788125E+02 -0.60293801442E+01 -0.20022299785E+02  0.23836596106E+02  0.51100000000E-03 0.  1.
        -12    1    3    3    0    0  0.20814442407E+01 -0.18617587885E+02 -0.71856483900E+01  0.20064409574E+02  0.00000000000E+00 0.  1.
</event>
<event>
 7    1  0.2584640E-011  0.5052887E+02  0.7816164E-02  0.1300439E+00
        -11   -1    0    0    0    0  0.00000000000E+00  0.00000000000E+00  0.45593999997E+02  0.45594000000E+02  0.51100000000E-03 0. -1.
         11   -1    0    0    0    0 -0.00000000000E+00 -0.00000000000E+00 -0.45593999997E+02  0.45594000000E+02  0.51100000000E-03 0.  1.
    9900012    2    1    2    0    0  0.20369330134E+02 -0.32861335696E+02  0.12585224099E+02  0.50528869913E+02  0.30000030587E+02 0.  0.
        -12    1    1    2    0    0 -0.20369330134E+02  0.32861335696E+02 -0.12585224099E+02  0.40659130087E+02  0.00000000000E+00 0.  1.
         11    1    3    3    0    0 -0.25638120532E+00 -0.55493156551E+01 -0.91264153223E+00  0.56297025135E+01  0.51100000000E-03 0. -1.
        -11    1    3    3    0    0  0.23681527163E+02 -0.25341912012E+02  0.42275735710E+01  0.34941373925E+02  0.51100000000E-03 0.  1.
        -12    1    3    3    0    0 -0.30558158242E+01 -0.19701080287E+01  0.92702920600E+01  0.99577934741E+01  0.00000000000E+00 0.  1.
</event>
<event>
 7    1  0.2584640E-011  0.5052886E+02  0.7816164E-02  0.1300439E+00
        -11   -1    0    0    0    0  0.00000000000E+00  0.00000000000E+00  0.45593999997E+02  0.45594000000E+02  0.51100000000E-03 0.  1.
         11   -1    0    0    0    0 -0.00000000000E+00 -0.00000000000E+00 -0.45593999997E+02  0.45594000000E+02  0.51100000000E-03 0. -1.
    9900012    2    1    2    0    0 -0.25881230931E+02  0.31358045139E+02 -0.14297155599E-01  0.50528864325E+02  0.30000013603E+02 0.  0.
        -12    1    1    2    0    0  0.25881230931E+02 -0.31358045139E+02  0.14297155599E-01  0.40659135675E+02  0.00000000000E+00 0.  1.
         11    1    3    3    0    0 -0.48509819004E+01 -0.85755314805E+00 -0.27343855940E+01  0.56342069218E+01  0.51100000000E-03 0. -1.
        -11    1    3    3    0    0 -0.24284811233E+02  0.18000609867E+02  0.17187320462E+01  0.30277517275E+02  0.51100000000E-03 0.  1.
        -12    1    3    3    0    0  0.32545622028E+01  0.14214988420E+02  0.10013563923E+01  0.14617140129E+02  0.00000000000E+00 0.  1.
</event>
<event>
 7    1  0.2584640E-011  0.5052883E+02  0.7816164E-02  0.1300439E+00
        -11   -1    0    0    0    0  0.00000000000E+00  0.00000000000E+00  0.45593999997E+02  0.45594000000E+02  0.51100000000E-03 0. -1.
         11   -1    0    0    0    0 -0.00000000000E+00 -0.00000000000E+00 -0.45593999997E+02  0.45594000000E+02  0.51100000000E-03 0.  1.
    9900012    2    1    2    0    0  0.22031099138E+02  0.25486516330E+02 -0.22764803334E+02  0.50528829882E+02  0.29999908908E+02 0.  0.
        -12    1    1    2    0    0 -0.22031099138E+02 -0.25486516330E+02  0.22764803334E+02  0.40659170118E+02  0.00000000000E+00 0.  1.
         11    1    3    3    0    0  0.15517418217E+01  0.84960057264E+01  0.33288370509E+01  0.92558723174E+01  0.51100000000E-03 0. -1.
        -11    1    3    3    0    0 -0.18759033639E+01  0.36699701606E+01 -0.96414432636E+01  0.10485471991E+02  0.51100000000E-03 0.  1.
         12    1    3    3    0    0  0.22355260680E+02  0.13320540443E+02 -0.16452197122E+02  0.30787485573E+02  0.00000000000E+00 0. -1.
</event>
<event>
 7    1  0.2584640E-011  0.5052885E+02  0.7816164E-02  0.1300439E+00
        -11   -1    0    0    0    0  0.00000000000E+00  0.00000000000E+00  0.45593999997E+02  0.45594000000E+02  0.51100000000E-03 0.  1.
         11   -1    0    0    0    0 -0.00000000000E+00 -0.00000000000E+00 -0.45593999997E+02  0.45594000000E+02  0.51100000000E-03 0. -1.
    9900012    2    1    2    0    0 -0.25188268724E+02  0.77332937431E+01 -0.30966327032E+02  0.50528854371E+02  0.29999983347E+02 0.  0.
        -12    1    1    2    0    0  0.25188268724E+02 -0.77332937431E+01  0.30966327032E+02  0.40659145629E+02  0.00000000000E+00 0.  1.
         11    1    3    3    0    0 -0.11893607763E+02  0.86897259175E+01 -0.15453646311E+02  0.21349108335E+02  0.51100000000E-03 0. -1.
        -11    1    3    3    0    0 -0.18051292195E+01  0.71588721116E+01  0.10417710263E+01  0.74560866774E+01  0.51100000000E-03 0.  1.
        -12    1    3    3    0    0 -0.11489531741E+02 -0.81153042859E+01 -0.16554451747E+02  0.21723659358E+02  0.00000000000E+00 0.  1.
</event>
<event>
 7    1  0.2584640E-011  0.5052886E+02  0.7816164E-02  0.1300439E+00
        -11   -1    0    0    0    0  0.00000000000E+00  0.00000000000E+00  0.45593999997E+02  0.45594000000E+02  0.51100000000E-03 0.  1.
         11   -1    0    0    0    0 -0.00000000000E+00 -0.00000000000E+00 -0.45593999997E+02  0.45594000000E+02  0.51100000000E-03 0. -1.
    9900012    2    1    2    0    0 -0.73761263764E+01  0.36861002459E+02 -0.15492734057E+02  0.50528861407E+02  0.30000004732E+02 0.  0.
        -12    1    1    2    0    0  0.73761263764E+01 -0.36861002459E+02  0.15492734057E+02  0.40659138593E+02  0.00000000000E+00 0.  1.
         11    1    3    3    0    0  0.29536100462E+01 -0.21436191884E+01 -0.13772371286E+01  0.39007304315E+01  0.51100000000E-03 0.  1.
        -11    1    3    3    0    0 -0.12287131285E+02  0.38489864605E+02 -0.93796986128E+01  0.41477970284E+02  0.51100000000E-03 0. -1.
         12    1    3    3    0    0  0.19573948622E+01  0.51475704183E+00 -0.47357983155E+01  0.51501606911E+01  0.00000000000E+00 0. -1.
</event>
<event>
 7    1  0.2584640E-011  0.5052887E+02  0.7816164E-02  0.1300439E+00
        -11   -1    0    0    0    0  0.00000000000E+00  0.00000000000E+00  0.45593999997E+02  0.45594000000E+02  0.51100000000E-03 0.  1.
         11   -1    0    0    0    0 -0.00000000000E+00 -0.00000000000E+00 -0.45593999997E+02  0.45594000000E+02  0.51100000000E-03 0. -1.
    9900012    2    1    2    0    0  0.29159620430E+02 -0.19856343340E+02 -0.20214030070E+02  0.50528870076E+02  0.30000031083E+02 0.  0.
        -12    1    1    2    0    0 -0.29159620430E+02  0.19856343340E+02  0.20214030070E+02  0.40659129924E+02  0.00000000000E+00 0.  1.
         11    1    3    3    0    0  0.14092568551E+02 -0.83995697161E+01 -0.50052119635E+01  0.17152416938E+02  0.51100000000E-03 0. -1.
        -11    1    3    3    0    0  0.15729598726E+02 -0.10205875547E+02 -0.20568840846E+02  0.27832667600E+02  0.51100000000E-03 0.  1.
        -12    1    3    3    0    0 -0.66254684634E+00 -0.12508980774E+01  0.53600227388E+01  0.55437855374E+01  0.00000000000E+00 0.  1.
</event>
<event>
 7    1  0.2584640E-011  0.5052886E+02  0.7816164E-02  0.1300439E+00
        -11   -1    0    0    0    0  0.00000000000E+00  0.00000000000E+00  0.45593999997E+02  0.45594000000E+02  0.51100000000E-03 0. -1.
         11   -1    0    0    0    0 -0.00000000000E+00 -0.00000000000E+00 -0.45593999997E+02  0.45594000000E+02  0.51100000000E-03 0.  1.
    9900012    2    1    2    0    0  0.33349685365E+02  0.34500793581E+01  0.23001325225E+02  0.50528861745E+02  0.30000005760E+02 0.  0.
        -12    1    1    2    0    0 -0.33349685365E+02 -0.34500793581E+01 -0.23001325225E+02  0.40659138255E+02  0.00000000000E+00 0.  1.
         11    1    3    3    0    0  0.15252109036E+02  0.75358222311E+01  0.18003670744E+02  0.24769893162E+02  0.51100000000E-03 0. -1.
        -11    1    3    3    0    0  0.24587327660E+01  0.60584947545E+01  0.35128958065E+00  0.65478340033E+01  0.51100000000E-03 0.  1.
         12    1    3    3    0    0  0.15638843563E+02 -0.10144237627E+02  0.46463649001E+01  0.19211134579E+02  0.00000000000E+00 0. -1.
</event>
<event>
 7    1  0.2584640E-011  0.5052891E+02  0.7816164E-02  0.1300439E+00
        -11   -1    0    0    0    0  0.00000000000E+00  0.00000000000E+00  0.45593999997E+02  0.45594000000E+02  0.51100000000E-03 0.  1.
         11   -1    0    0    0    0 -0.00000000000E+00 -0.00000000000E+00 -0.45593999997E+02  0.45594000000E+02  0.51100000000E-03 0. -1.
    9900012    2    1    2    0    0  0.30962628091E+01 -0.29040721032E+01 -0.40436877236E+02  0.50528910994E+02  0.30000155458E+02 0.  0.
        -12    1    1    2    0    0 -0.30962628091E+01  0.29040721032E+01  0.40436877236E+02  0.40659089006E+02  0.00000000000E+00 0.  1.
         11    1    3    3    0    0 -0.92001609656E+01 -0.34586520278E+01 -0.19002378378E+02  0.21393822004E+02  0.51100000000E-03 0. -1.
        -11    1    3    3    0    0  0.25029145024E+01  0.12197325180E+01  0.21965219375E+01  0.35464118916E+01  0.51100000000E-03 0.  1.
         12    1    3    3    0    0  0.97935092724E+01 -0.66515259344E+00 -0.23631020796E+02  0.25588677099E+02  0.00000000000E+00 0. -1.
</event>
<event>
 7    1  0.2584640E-011  0.5052885E+02  0.7816164E-02  0.1300439E+00
        -11   -1    0    0    0    0  0.00000000000E+00  0.00000000000E+00  0.45593999997E+02  0.45594000000E+02  0.51100000000E-03 0.  1.
         11   -1    0    0    0    0 -0.00000000000E+00 -0.00000000000E+00 -0.45593999997E+02  0.45594000000E+02  0.51100000000E-03 0. -1.
    9900012    2    1    2    0    0 -0.29621079088E+02  0.27828005594E+02 -0.11661285029E+01  0.50528854935E+02  0.29999985061E+02 0.  0.
        -12    1    1    2    0    0  0.29621079088E+02 -0.27828005594E+02  0.11661285029E+01  0.40659145065E+02  0.00000000000E+00 0.  1.
         11    1    3    3    0    0 -0.77375648655E+00 -0.19849845166E+01 -0.89543985674E+00  0.23109901406E+01  0.51100000000E-03 0. -1.
        -11    1    3    3    0    0 -0.47530307867E+01 -0.43293050700E+01 -0.27385088562E-01  0.64292250119E+01  0.51100000000E-03 0.  1.
         12    1    3    3    0    0 -0.24094291815E+02  0.34142295181E+02 -0.24330355764E+00  0.41788639783E+02  0.00000000000E+00 0. -1.
</event>
<event>
 7    1  0.2584640E-011  0.5052886E+02  0.7816164E-02  0.1300439E+00
        -11   -1    0    0    0    0  0.00000000000E+00  0.00000000000E+00  0.45593999997E+02  0.45594000000E+02  0.51100000000E-03 0.  1.
         11   -1    0    0    0    0 -0.00000000000E+00 -0.00000000000E+00 -0.45593999997E+02  0.45594000000E+02  0.51100000000E-03 0. -1.
    9900012    2    1    2    0    0  0.39206933394E+02 -0.82013877587E+00  0.10738220902E+02  0.50528860291E+02  0.30000001340E+02 0.  0.
        -12    1    1    2    0    0 -0.39206933394E+02  0.82013877587E+00 -0.10738220902E+02  0.40659139709E+02  0.00000000000E+00 0.  1.
         11    1    3    3    0    0  0.14883946103E+02 -0.17001165502E+01 -0.41542813503E+01  0.15546070297E+02  0.51100000000E-03 0. -1.
        -11    1    3    3    0    0  0.26395998651E+02  0.18470051230E+01  0.17337467438E+02  0.31634600521E+02  0.51100000000E-03 0.  1.
         12    1    3    3    0    0 -0.20730113599E+01 -0.96702734868E+00 -0.24449651854E+01  0.33481894733E+01  0.00000000000E+00 0. -1.
</event>
<event>
 7    1  0.2584640E-011  0.5052886E+02  0.7816164E-02  0.1300439E+00
        -11   -1    0    0    0    0  0.00000000000E+00  0.00000000000E+00  0.45593999997E+02  0.45594000000E+02  0.51100000000E-03 0.  1.
         11   -1    0    0    0    0 -0.00000000000E+00 -0.00000000000E+00 -0.45593999997E+02  0.45594000000E+02  0.51100000000E-03 0. -1.
    9900012    2    1    2    0    0 -0.12464928132E+02 -0.50719298466E+01 -0.38367526199E+02  0.50528856227E+02  0.29999988987E+02 0.  0.
        -12    1    1    2    0    0  0.12464928132E+02  0.50719298466E+01  0.38367526199E+02  0.40659143773E+02  0.00000000000E+00 0.  1.
         11    1    3    3    0    0  0.32327456366E+00 -0.10091231957E+02 -0.65457768143E+01  0.12032649883E+02  0.51100000000E-03 0. -1.
        -11    1    3    3    0    0 -0.11306377892E+02 -0.34399307640E+01 -0.11754052421E+02  0.16668084871E+02  0.51100000000E-03 0.  1.
         12    1    3    3    0    0 -0.14818248042E+01  0.84592328741E+01 -0.20067696964E+02  0.21828121473E+02  0.00000000000E+00 0. -1.
</event>
<event>
 7    1  0.2584640E-011  0.5052886E+02  0.7816164E-02  0.1300439E+00
        -11   -1    0    0    0    0  0.00000000000E+00  0.00000000000E+00  0.45593999997E+02  0.45594000000E+02  0.51100000000E-03 0.  1.
         11   -1    0    0    0    0 -0.00000000000E+00 -0.00000000000E+00 -0.45593999997E+02  0.45594000000E+02  0.51100000000E-03 0. -1.
    9900012    2    1    2    0    0  0.15422362826E+02 -0.30107853844E+02 -0.22557338355E+02  0.50528860168E+02  0.30000000968E+02 0.  0.
        -12    1    1    2    0    0 -0.15422362826E+02  0.30107853844E+02  0.22557338355E+02  0.40659139832E+02  0.00000000000E+00 0.  1.
         11    1    3    3    0    0 -0.58445792951E-01 -0.21891076124E+01 -0.86917064931E+01  0.89633347629E+01  0.51100000000E-03 0. -1.
        -11    1    3    3    0    0  0.53785243111E+01 -0.26123062512E+02 -0.15976440222E+02  0.31090023500E+02  0.51100000000E-03 0.  1.
         12    1    3    3    0    0  0.10102284308E+02 -0.17956837189E+01  0.21108083601E+01  0.10475501906E+02  0.00000000000E+00 0. -1.
</event>
<event>
 7    1  0.2584640E-011  0.5052886E+02  0.7816164E-02  0.1300439E+00
        -11   -1    0    0    0    0  0.00000000000E+00  0.00000000000E+00  0.45593999997E+02  0.45594000000E+02  0.51100000000E-03 0. -1.
         11   -1    0    0    0    0 -0.00000000000E+00 -0.00000000000E+00 -0.45593999997E+02  0.45594000000E+02  0.51100000000E-03 0.  1.
    9900012    2    1    2    0    0 -0.15638199273E+02 -0.35431753789E+02 -0.12377517875E+02  0.50528863243E+02  0.30000010313E+02 0.  0.
        -12    1    1    2    0    0  0.15638199273E+02  0.35431753789E+02  0.12377517875E+02  0.40659136757E+02  0.00000000000E+00 0.  1.
         11    1    3    3    0    0 -0.13088306356E+02 -0.20752619402E+02 -0.38250964642E+01  0.24831559326E+02  0.51100000000E-03 0. -1.
        -11    1    3    3    0    0 -0.87852052126E+01 -0.88549858012E+01 -0.11199709952E+02  0.16763773663E+02  0.51100000000E-03 0.  1.
         12    1    3    3    0    0  0.62353122957E+01 -0.58241485858E+01  0.26472885415E+01  0.89335302539E+01  0.00000000000E+00 0. -1.
</event>
<event>
 7    1  0.2584640E-011  0.5052887E+02  0.7816164E-02  0.1300439E+00
        -11   -1    0    0    0    0  0.00000000000E+00  0.00000000000E+00  0.45593999997E+02  0.45594000000E+02  0.51100000000E-03 0. -1.
         11   -1    0    0    0    0 -0.00000000000E+00 -0.00000000000E+00 -0.45593999997E+02  0.45594000000E+02  0.51100000000E-03 0.  1.
    9900012    2    1    2    0    0 -0.27307540395E+02 -0.30007855447E+02  0.26442036753E+01  0.50528868627E+02  0.30000026677E+02 0.  0.
        -12    1    1    2    0    0  0.27307540395E+02  0.30007855447E+02 -0.26442036753E+01  0.40659131373E+02  0.00000000000E+00 0.  1.
         11    1    3    3    0    0 -0.83220253734E+01 -0.13592303965E+02  0.12740352275E+02  0.20404004748E+02  0.51100000000E-03 0. -1.
        -11    1    3    3    0    0  0.16028357170E+01  0.46461035656E+00 -0.11952813590E+01  0.20527159831E+01  0.51100000000E-03 0.  1.
         12    1    3    3    0    0 -0.20588350739E+02 -0.16880161839E+02 -0.89008672407E+01  0.28072147896E+02  0.00000000000E+00 0. -1.
</event>
<event>
 7    1  0.2584640E-011  0.5052887E+02  0.7816164E-02  0.1300439E+00
        -11   -1    0    0    0    0  0.00000000000E+00  0.00000000000E+00  0.45593999997E+02  0.45594000000E+02  0.51100000000E-03 0.  1.
         11   -1    0    0    0    0 -0.00000000000E+00 -0.00000000000E+00 -0.45593999997E+02  0.45594000000E+02  0.51100000000E-03 0. -1.
    9900012    2    1    2    0    0  0.30549398906E+02  0.11522045339E+02 -0.24231005379E+02  0.50528869119E+02  0.30000028174E+02 0.  0.
        -12    1    1    2    0    0 -0.30549398906E+02 -0.11522045339E+02  0.24231005379E+02  0.40659130881E+02  0.00000000000E+00 0.  1.
         11    1    3    3    0    0  0.14215145755E+02  0.61486995092E+01  0.19892772500E+01  0.15615188078E+02  0.51100000000E-03 0. -1.
        -11    1    3    3    0    0  0.49619479257E+01  0.84850634121E+01 -0.60261457674E+01  0.11529599360E+02  0.51100000000E-03 0.  1.
        -12    1    3    3    0    0  0.11372305226E+02 -0.31117175827E+01 -0.20194136862E+02  0.23384081681E+02  0.00000000000E+00 0.  1.
</event>
<event>
 7    1  0.2584640E-011  0.5052884E+02  0.7816164E-02  0.1300439E+00
        -11   -1    0    0    0    0  0.00000000000E+00  0.00000000000E+00  0.45593999997E+02  0.45594000000E+02  0.51100000000E-03 0.  1.
         11   -1    0    0    0    0 -0.00000000000E+00 -0.00000000000E+00 -0.45593999997E+02  0.45594000000E+02  0.51100000000E-03 0. -1.
    9900012    2    1    2    0    0  0.31899505849E+02 -0.22619095839E+02 -0.11133970917E+02  0.50528840166E+02  0.29999940170E+02 0.  0.
        -12    1    1    2    0    0 -0.31899505849E+02  0.22619095839E+02  0.11133970917E+02  0.40659159834E+02  0.00000000000E+00 0.  1.
         11    1    3    3    0    0  0.14160709179E+02 -0.28480287712E+01  0.44577825987E+00  0.14451147735E+02  0.51100000000E-03 0. -1.
        -11    1    3    3    0    0 -0.19611292155E+00  0.28822819369E+01  0.26050807494E+01  0.38900456828E+01  0.51100000000E-03 0.  1.
        -12    1    3    3    0    0  0.17934909591E+02 -0.22653349005E+02 -0.14184829926E+02  0.32187646749E+02  0.00000000000E+00 0.  1.
</event>
<event>
 7    1  0.2584640E-011  0.5052886E+02  0.7816164E-02  0.1300439E+00
        -11   -1    0    0    0    0  0.00000000000E+00  0.00000000000E+00  0.45593999997E+02  0.45594000000E+02  0.51100000000E-03 0.  1.
         11   -1    0    0    0    0 -0.00000000000E+00 -0.00000000000E+00 -0.45593999997E+02  0.45594000000E+02  0.51100000000E-03 0. -1.
    9900012    2    1    2    0    0 -0.15193105959E+02 -0.62724455392E+01 -0.37188591697E+02  0.50528863338E+02  0.30000010601E+02 0.  0.
        -12    1    1    2    0    0  0.15193105959E+02  0.62724455392E+01  0.37188591697E+02  0.40659136662E+02  0.00000000000E+00 0.  1.
         11    1    3    3    0    0  0.15364779500E+01  0.10471769454E+01 -0.91537705683E+01  0.93407098191E+01  0.51100000000E-03 0.  1.
        -11    1    3    3    0    0  0.12880503416E+01 -0.22965593198E+01  0.35862496931E+01  0.44490949096E+01  0.51100000000E-03 0. -1.
         12    1    3    3    0    0 -0.18017634250E+02 -0.50230631647E+01 -0.31621070822E+02  0.36739058609E+02  0.00000000000E+00 0. -1.
</event>
<event>
 7    1  0.2584640E-011  0.5052884E+02  0.7816164E-02  0.1300439E+00
        -11   -1    0    0    0    0  0.00000000000E+00  0.00000000000E+00  0.45593999997E+02  0.45594000000E+02  0.51100000000E-03 0.  1.
         11   -1    0    0    0    0 -0.00000000000E+00 -0.00000000000E+00 -0.45593999997E+02  0.45594000000E+02  0.51100000000E-03 0. -1.
    9900012    2    1    2    0    0  0.18454113566E+02  0.36225183933E+02 -0.59062667235E+00  0.50528842380E+02  0.29999946898E+02 0.  0.
        -12    1    1    2    0    0 -0.18454113566E+02 -0.36225183933E+02  0.59062667235E+00  0.40659157620E+02  0.00000000000E+00 0.  1.
         11    1    3    3    0    0 -0.31139655190E+01  0.59797946683E+01  0.51684777087E+01  0.84951684866E+01  0.51100000000E-03 0.  1.
        -11    1    3    3    0    0 -0.10827414005E+01  0.46099141813E+01 -0.62254608640E+01  0.78217645663E+01  0.51100000000E-03 0. -1.
        -12    1    3    3    0    0  0.22650820486E+02  0.25635475084E+02  0.46635648301E+00  0.34211909327E+02  0.00000000000E+00 0.  1.
</event>
<event>
 7    1  0.2584640E-011  0.5052887E+02  0.7816164E-02  0.1300439E+00
        -11   -1    0    0    0    0  0.00000000000E+00  0.00000000000E+00  0.45593999997E+02  0.45594000000E+02  0.51100000000E-03 0.  1.
         11   -1    0    0    0    0 -0.00000000000E+00 -0.00000000000E+00 -0.45593999997E+02  0.45594000000E+02  0.51100000000E-03 0. -1.
    9900012    2    1    2    0    0 -0.24317784181E+02  0.30499038045E+02 -0.11472527856E+02  0.50528870096E+02  0.30000031144E+02 0.  0.
        -12    1    1    2    0    0  0.24317784181E+02 -0.30499038045E+02  0.11472527856E+02  0.40659129904E+02  0.00000000000E+00 0.  1.
         11    1    3    3    0    0 -0.83320604488E+01  0.75459482396E+01 -0.60765261169E+01  0.12778448109E+02  0.51100000000E-03 0. -1.
        -11    1    3    3    0    0 -0.11202304734E+02  0.52218029475E+01  0.82590227128E+01  0.14865070259E+02  0.51100000000E-03 0.  1.
         12    1    3    3    0    0 -0.47834189988E+01  0.17731286858E+02 -0.13655024452E+02  0.22885351728E+02  0.00000000000E+00 0. -1.
</event>
<event>
 7    1  0.2584640E-011  0.5052887E+02  0.7816164E-02  0.1300439E+00
        -11   -1    0    0    0    0  0.00000000000E+00  0.00000000000E+00  0.45593999997E+02  0.45594000000E+02  0.51100000000E-03 0.  1.
         11   -1    0    0    0    0 -0.00000000000E+00 -0.00000000000E+00 -0.45593999997E+02  0.45594000000E+02  0.51100000000E-03 0. -1.
    9900012    2    1    2    0    0  0.15382798500E+02 -0.43011054415E+01 -0.37390307760E+02  0.50528866806E+02  0.30000021143E+02 0.  0.
        -12    1    1    2    0    0 -0.15382798500E+02  0.43011054415E+01  0.37390307760E+02  0.40659133194E+02  0.00000000000E+00 0.  1.
         11    1    3    3    0    0 -0.85834236973E+01 -0.14152316064E+01 -0.14682783082E+02  0.17066404488E+02  0.51100000000E-03 0. -1.
        -11    1    3    3    0    0  0.10323788569E+02  0.23668486545E+00 -0.72914428081E+01  0.12641272429E+02  0.51100000000E-03 0.  1.
        -12    1    3    3    0    0  0.13642433628E+02 -0.31225587006E+01 -0.15416081870E+02  0.20821189889E+02  0.00000000000E+00 0.  1.
</event>
<event>
 7    1  0.2584640E-011  0.5052884E+02  0.7816164E-02  0.1300439E+00
        -11   -1    0    0    0    0  0.00000000000E+00  0.00000000000E+00  0.45593999997E+02  0.45594000000E+02  0.51100000000E-03 0.  1.
         11   -1    0    0    0    0 -0.00000000000E+00 -0.00000000000E+00 -0.45593999997E+02  0.45594000000E+02  0.51100000000E-03 0. -1.
    9900012    2    1    2    0    0 -0.36400874062E+02 -0.12478541683E+02 -0.13131238013E+02  0.50528843014E+02  0.29999948826E+02 0.  0.
        -12    1    1    2    0    0  0.36400874062E+02  0.12478541683E+02  0.13131238013E+02  0.40659156986E+02  0.00000000000E+00 0.  1.
         11    1    3    3    0    0 -0.35562281632E+02 -0.12222020360E+02 -0.17413134675E+02  0.41439967616E+02  0.51100000000E-03 0. -1.
        -11    1    3    3    0    0  0.29563573677E+00 -0.12299140253E+01 -0.21451445451E+01  0.24903281669E+01  0.51100000000E-03 0.  1.
        -12    1    3    3    0    0 -0.11342281668E+01  0.97339270292E+00  0.64270412064E+01  0.65985472308E+01  0.00000000000E+00 0.  1.
</event>
<event>
 7    1  0.2584640E-011  0.5052887E+02  0.7816164E-02  0.1300439E+00
        -11   -1    0    0    0    0  0.00000000000E+00  0.00000000000E+00  0.45593999997E+02  0.45594000000E+02  0.51100000000E-03 0. -1.
         11   -1    0    0    0    0 -0.00000000000E+00 -0.00000000000E+00 -0.45593999997E+02  0.45594000000E+02  0.51100000000E-03 0.  1.
    9900012    2    1    2    0    0 -0.19382340082E+02 -0.29817723501E+02 -0.19707699216E+02  0.50528866338E+02  0.30000019720E+02 0.  0.
        -12    1    1    2    0    0  0.19382340082E+02  0.29817723501E+02  0.19707699216E+02  0.40659133662E+02  0.00000000000E+00 0.  1.
         11    1    3    3    0    0  0.19904121209E+01  0.38079305636E+01 -0.68840340575E+01  0.81149245686E+01  0.51100000000E-03 0.  1.
        -11    1    3    3    0    0 -0.91074023611E+01 -0.90979561238E+01 -0.57111171804E+01  0.14083126184E+02  0.51100000000E-03 0. -1.
        -12    1    3    3    0    0 -0.12265349841E+02 -0.24527697940E+02 -0.71125479777E+01  0.28330815585E+02  0.00000000000E+00 0.  1.
</event>
<event>
 7    1  0.2584640E-011  0.5052885E+02  0.7816164E-02  0.1300439E+00
        -11   -1    0    0    0    0  0.00000000000E+00  0.00000000000E+00  0.45593999997E+02  0.45594000000E+02  0.51100000000E-03 0.  1.
         11   -1    0    0    0    0 -0.00000000000E+00 -0.00000000000E+00 -0.45593999997E+02  0.45594000000E+02  0.51100000000E-03 0. -1.
    9900012    2    1    2    0    0 -0.34871074190E+02  0.58839278119E+01 -0.20063742414E+02  0.50528853657E+02  0.29999981177E+02 0.  0.
        -12    1    1    2    0    0  0.34871074190E+02 -0.58839278119E+01  0.20063742414E+02  0.40659146343E+02  0.00000000000E+00 0.  1.
         11    1    3    3    0    0 -0.17370019070E+02  0.12190419673E+01 -0.22015683472E+01  0.17551368301E+02  0.51100000000E-03 0. -1.
        -11    1    3    3    0    0 -0.21658754307E+02  0.31867152785E+01 -0.10236150630E+02  0.24166827934E+02  0.51100000000E-03 0.  1.
        -12    1    3    3    0    0  0.41576991871E+01  0.14781705660E+01 -0.76260234365E+01  0.88106574219E+01  0.00000000000E+00 0.  1.
</event>
<event>
 7    1  0.2584640E-011  0.5052887E+02  0.7816164E-02  0.1300439E+00
        -11   -1    0    0    0    0  0.00000000000E+00  0.00000000000E+00  0.45593999997E+02  0.45594000000E+02  0.51100000000E-03 0.  1.
         11   -1    0    0    0    0 -0.00000000000E+00 -0.00000000000E+00 -0.45593999997E+02  0.45594000000E+02  0.51100000000E-03 0. -1.
    9900012    2    1    2    0    0 -0.13653494941E+02 -0.32109003668E+01 -0.38163293103E+02  0.50528871311E+02  0.30000034838E+02 0.  0.
        -12    1    1    2    0    0  0.13653494941E+02  0.32109003668E+01  0.38163293103E+02  0.40659128689E+02  0.00000000000E+00 0.  1.
         11    1    3    3    0    0  0.13254758910E+01 -0.33561883164E+01 -0.43285702076E+01  0.56353710309E+01  0.51100000000E-03 0. -1.
        -11    1    3    3    0    0 -0.15662745313E+02 -0.46249422945E+01 -0.72373890127E+01  0.17863131919E+02  0.51100000000E-03 0.  1.
         12    1    3    3    0    0  0.68377448072E+00  0.47702302440E+01 -0.26597333882E+02  0.27030368362E+02  0.00000000000E+00 0. -1.
</event>
<event>
 7    1  0.2584640E-011  0.5052885E+02  0.7816164E-02  0.1300439E+00
        -11   -1    0    0    0    0  0.00000000000E+00  0.00000000000E+00  0.45593999997E+02  0.45594000000E+02  0.51100000000E-03 0. -1.
         11   -1    0    0    0    0 -0.00000000000E+00 -0.00000000000E+00 -0.45593999997E+02  0.45594000000E+02  0.51100000000E-03 0.  1.
    9900012    2    1    2    0    0 -0.39826691138E+02 -0.80883148077E+01  0.12570594162E+01  0.50528851438E+02  0.29999974430E+02 0.  0.
        -12    1    1    2    0    0  0.39826691138E+02  0.80883148077E+01 -0.12570594162E+01  0.40659148562E+02  0.00000000000E+00 0.  1.
         11    1    3    3    0    0 -0.81855133284E+01  0.26162954845E+01  0.42173347459E+01  0.95725411011E+01  0.51100000000E-03 0. -1.
        -11    1    3    3    0    0  0.37318315683E+01 -0.25677614189E+01 -0.75682455734E+00  0.45926843164E+01  0.51100000000E-03 0.  1.
         12    1    3    3    0    0 -0.35373009378E+02 -0.81368488733E+01 -0.22034507724E+01  0.36363626020E+02  0.00000000000E+00 0. -1.
</event>
<event>
 7    1  0.2584640E-011  0.5052886E+02  0.7816164E-02  0.1300439E+00
        -11   -1    0    0    0    0  0.00000000000E+00  0.00000000000E+00  0.45593999997E+02  0.45594000000E+02  0.51100000000E-03 0. -1.
         11   -1    0    0    0    0 -0.00000000000E+00 -0.00000000000E+00 -0.45593999997E+02  0.45594000000E+02  0.51100000000E-03 0.  1.
    9900012    2    1    2    0    0 -0.73207386376E+01  0.39726156397E+02  0.46265446518E+01  0.50528860416E+02  0.30000001722E+02 0.  0.
        -12    1    1    2    0    0  0.73207386376E+01 -0.39726156397E+02 -0.46265446518E+01  0.40659139584E+02  0.00000000000E+00 0.  1.
         11    1    3    3    0    0 -0.15795159750E+01 -0.30086784116E+01 -0.29079664239E+00  0.34105101448E+01  0.51100000000E-03 0. -1.
        -11    1    3    3    0    0 -0.85192802207E+01  0.94622866846E+01 -0.23521760696E+01  0.12947808205E+02  0.51100000000E-03 0.  1.
        -12    1    3    3    0    0  0.27780575580E+01  0.33272548124E+02  0.72695173638E+01  0.34170542067E+02  0.00000000000E+00 0.  1.
</event>
<event>
 7    1  0.2584640E-011  0.5052886E+02  0.7816164E-02  0.1300439E+00
        -11   -1    0    0    0    0  0.00000000000E+00  0.00000000000E+00  0.45593999997E+02  0.45594000000E+02  0.51100000000E-03 0. -1.
         11   -1    0    0    0    0 -0.00000000000E+00 -0.00000000000E+00 -0.45593999997E+02  0.45594000000E+02  0.51100000000E-03 0.  1.
    9900012    2    1    2    0    0  0.38722711554E+02 -0.70937098845E+01 -0.10168423714E+02  0.50528856492E+02  0.29999989792E+02 0.  0.
        -12    1    1    2    0    0 -0.38722711554E+02  0.70937098845E+01  0.10168423714E+02  0.40659143508E+02  0.00000000000E+00 0.  1.
         11    1    3    3    0    0  0.65555139535E+01 -0.25573965579E+01  0.80209578265E+01  0.10670089272E+02  0.51100000000E-03 0. -1.
        -11    1    3    3    0    0  0.20728744560E+01 -0.46842099746E+01 -0.44112850456E+01  0.67600345865E+01  0.51100000000E-03 0.  1.
         12    1    3    3    0    0  0.30094323144E+02  0.14789664802E+00 -0.13778096495E+02  0.33098732634E+02  0.00000000000E+00 0. -1.
</event>
<event>
 7    1  0.2584640E-011  0.5052887E+02  0.7816164E-02  0.1300439E+00
        -11   -1    0    0    0    0  0.00000000000E+00  0.00000000000E+00  0.45593999997E+02  0.45594000000E+02  0.51100000000E-03 0.  1.
         11   -1    0    0    0    0 -0.00000000000E+00 -0.00000000000E+00 -0.45593999997E+02  0.45594000000E+02  0.51100000000E-03 0. -1.
    9900012    2    1    2    0    0 -0.65964145521E+01  0.22385805333E+02 -0.33294562482E+02  0.50528869952E+02  0.30000030707E+02 0.  0.
        -12    1    1    2    0    0  0.65964145521E+01 -0.22385805333E+02  0.33294562482E+02  0.40659130048E+02  0.00000000000E+00 0.  1.
         11    1    3    3    0    0  0.21310565287E+01  0.22997962112E+01  0.90786154776E+00  0.32641503324E+01  0.51100000000E-03 0. -1.
        -11    1    3    3    0    0 -0.14616498240E+02  0.40560761231E+01 -0.19678982347E+02  0.24846652104E+02  0.51100000000E-03 0.  1.
         12    1    3    3    0    0  0.58890271593E+01  0.16029932998E+02 -0.14523441683E+02  0.22418067516E+02  0.00000000000E+00 0. -1.
</event>
<event>
 7    1  0.2584640E-011  0.5052886E+02  0.7816164E-02  0.1300439E+00
        -11   -1    0    0    0    0  0.00000000000E+00  0.00000000000E+00  0.45593999997E+02  0.45594000000E+02  0.51100000000E-03 0.  1.
         11   -1    0    0    0    0 -0.00000000000E+00 -0.00000000000E+00 -0.45593999997E+02  0.45594000000E+02  0.51100000000E-03 0. -1.
    9900012    2    1    2    0    0  0.17858093641E+02 -0.62691871006E+01  0.35985436602E+02  0.50528857573E+02  0.29999993080E+02 0.  0.
        -12    1    1    2    0    0 -0.17858093641E+02  0.62691871006E+01 -0.35985436602E+02  0.40659142427E+02  0.00000000000E+00 0.  1.
         11    1    3    3    0    0  0.59101614959E+01 -0.44245123611E+01  0.13761687350E+02  0.15616989387E+02  0.51100000000E-03 0. -1.
        -11    1    3    3    0    0 -0.68102484594E+01 -0.32427738061E+01  0.98102258255E+01  0.12374796849E+02  0.51100000000E-03 0.  1.
        -12    1    3    3    0    0  0.18758180605E+02  0.13980990666E+01  0.12413523427E+02  0.22537071337E+02  0.00000000000E+00 0.  1.
</event>
<event>
 7    1  0.2584640E-011  0.5052879E+02  0.7816164E-02  0.1300439E+00
        -11   -1    0    0    0    0  0.00000000000E+00  0.00000000000E+00  0.45593999997E+02  0.45594000000E+02  0.51100000000E-03 0. -1.
         11   -1    0    0    0    0 -0.00000000000E+00 -0.00000000000E+00 -0.45593999997E+02  0.45594000000E+02  0.51100000000E-03 0.  1.
    9900012    2    1    2    0    0  0.22934647106E+02  0.32528254135E+02  0.83118150418E+01  0.50528786724E+02  0.29999777725E+02 0.  0.
        -12    1    1    2    0    0 -0.22934647106E+02 -0.32528254135E+02 -0.83118150418E+01  0.40659213276E+02  0.00000000000E+00 0.  1.
         11    1    3    3    0    0  0.14466415534E+02  0.16682436492E+02  0.14275221854E+02  0.26293779206E+02  0.51100000000E-03 0.  1.
        -11    1    3    3    0    0 -0.34845669923E+01  0.91456187977E+01 -0.25418420644E+01  0.10111652271E+02  0.51100000000E-03 0. -1.
        -12    1    3    3    0    0  0.11952798565E+02  0.67001988456E+01 -0.34215647473E+01  0.14123355246E+02  0.00000000000E+00 0.  1.
</event>
<event>
 7    1  0.2584640E-011  0.5052884E+02  0.7816164E-02  0.1300439E+00
        -11   -1    0    0    0    0  0.00000000000E+00  0.00000000000E+00  0.45593999997E+02  0.45594000000E+02  0.51100000000E-03 0. -1.
         11   -1    0    0    0    0 -0.00000000000E+00 -0.00000000000E+00 -0.45593999997E+02  0.45594000000E+02  0.51100000000E-03 0.  1.
    9900012    2    1    2    0    0 -0.36157594766E+02  0.17674253569E+02  0.57806608627E+01  0.50528844346E+02  0.29999952875E+02 0.  0.
        -12    1    1    2    0    0  0.36157594766E+02 -0.17674253569E+02 -0.57806608627E+01  0.40659155654E+02  0.00000000000E+00 0.  1.
         11    1    3    3    0    0 -0.76810561232E+01  0.10405378617E+02  0.92624835117E+01  0.15907989452E+02  0.51100000000E-03 0. -1.
        -11    1    3    3    0    0 -0.17996016249E+02  0.13267944749E+02 -0.26775130395E+01  0.22518082401E+02  0.51100000000E-03 0.  1.
         12    1    3    3    0    0 -0.10480522393E+02 -0.59990697969E+01 -0.80430960950E+00  0.12102772493E+02  0.00000000000E+00 0. -1.
</event>
<event>
 7    1  0.2584640E-011  0.5052886E+02  0.7816164E-02  0.1300439E+00
        -11   -1    0    0    0    0  0.00000000000E+00  0.00000000000E+00  0.45593999997E+02  0.45594000000E+02  0.51100000000E-03 0.  1.
         11   -1    0    0    0    0 -0.00000000000E+00 -0.00000000000E+00 -0.45593999997E+02  0.45594000000E+02  0.51100000000E-03 0. -1.
    9900012    2    1    2    0    0 -0.24339185357E+02  0.19122709470E+02 -0.26364589911E+02  0.50528861268E+02  0.30000004309E+02 0.  0.
        -12    1    1    2    0    0  0.24339185357E+02 -0.19122709470E+02  0.26364589911E+02  0.40659138732E+02  0.00000000000E+00 0.  1.
         11    1    3    3    0    0 -0.52341513400E+01 -0.12388879029E+01 -0.18447766786E+02  0.19215912238E+02  0.51100000000E-03 0. -1.
        -11    1    3    3    0    0 -0.83961860013E+01  0.26077028832E+01  0.78618094798E+00  0.88268983477E+01  0.51100000000E-03 0.  1.
        -12    1    3    3    0    0 -0.10708848016E+02  0.17753894490E+02 -0.87030040724E+01  0.22486050682E+02  0.00000000000E+00 0.  1.
</event>
<event>
 7    1  0.2584640E-011  0.5052887E+02  0.7816164E-02  0.1300439E+00
        -11   -1    0    0    0    0  0.00000000000E+00  0.00000000000E+00  0.45593999997E+02  0.45594000000E+02  0.51100000000E-03 0.  1.
         11   -1    0    0    0    0 -0.00000000000E+00 -0.00000000000E+00 -0.45593999997E+02  0.45594000000E+02  0.51100000000E-03 0. -1.
    9900012    2    1    2    0    0  0.31487148184E+02  0.20801623824E+02 -0.15133288583E+02  0.50528874606E+02  0.30000044852E+02 0.  0.
        -12    1    1    2    0    0 -0.31487148184E+02 -0.20801623824E+02  0.15133288583E+02  0.40659125394E+02  0.00000000000E+00 0.  1.
         11    1    3    3    0    0  0.31122166451E+01  0.51802185907E+01  0.72989202210E+01  0.94760114894E+01  0.51100000000E-03 0. -1.
        -11    1    3    3    0    0  0.46238770011E+01 -0.15994437069E+01 -0.46342951248E+01  0.67390763653E+01  0.51100000000E-03 0.  1.
         12    1    3    3    0    0  0.23751054538E+02  0.17220848940E+02 -0.17797913679E+02  0.34313786751E+02  0.00000000000E+00 0. -1.
</event>
<event>
 7    1  0.2584640E-011  0.5052886E+02  0.7816164E-02  0.1300439E+00
        -11   -1    0    0    0    0  0.00000000000E+00  0.00000000000E+00  0.45593999997E+02  0.45594000000E+02  0.51100000000E-03 0. -1.
         11   -1    0    0    0    0 -0.00000000000E+00 -0.00000000000E+00 -0.45593999997E+02  0.45594000000E+02  0.51100000000E-03 0.  1.
    9900012    2    1    2    0    0  0.33568060687E+02 -0.19908918098E+02  0.11401133147E+02  0.50528861358E+02  0.30000004583E+02 0.  0.
        -12    1    1    2    0    0 -0.33568060687E+02  0.19908918098E+02 -0.11401133147E+02  0.40659138642E+02  0.00000000000E+00 0.  1.
         11    1    3    3    0    0  0.56597526914E+00 -0.10298162179E+02  0.48306081232E+01  0.11388908963E+02  0.51100000000E-03 0. -1.
        -11    1    3    3    0    0  0.19569840948E+02 -0.13396125515E+02  0.81918246045E+01  0.25090652525E+02  0.51100000000E-03 0.  1.
        -12    1    3    3    0    0  0.13432244470E+02  0.37853695961E+01 -0.16212995809E+01  0.14049299869E+02  0.00000000000E+00 0.  1.
</event>
<event>
 7    1  0.2584640E-011  0.5052887E+02  0.7816164E-02  0.1300439E+00
        -11   -1    0    0    0    0  0.00000000000E+00  0.00000000000E+00  0.45593999997E+02  0.45594000000E+02  0.51100000000E-03 0.  1.
         11   -1    0    0    0    0 -0.00000000000E+00 -0.00000000000E+00 -0.45593999997E+02  0.45594000000E+02  0.51100000000E-03 0. -1.
    9900012    2    1    2    0    0  0.12536136384E+02  0.24342417116E+02 -0.30057565091E+02  0.50528865655E+02  0.30000017644E+02 0.  0.
        -12    1    1    2    0    0 -0.12536136384E+02 -0.24342417116E+02  0.30057565091E+02  0.40659134345E+02  0.00000000000E+00 0.  1.
         11    1    3    3    0    0  0.28246368625E+01  0.27380246893E+02 -0.20416450475E+02  0.34270803078E+02  0.51100000000E-03 0. -1.
        -11    1    3    3    0    0  0.54666097009E+01  0.24563071007E+01 -0.57185178517E+01  0.82836412812E+01  0.51100000000E-03 0.  1.
        -12    1    3    3    0    0  0.42448898208E+01 -0.54941368779E+01 -0.39225967644E+01  0.79744212956E+01  0.00000000000E+00 0.  1.
</event>
<event>
 7    1  0.2584640E-011  0.5052887E+02  0.7816164E-02  0.1300439E+00
        -11   -1    0    0    0    0  0.00000000000E+00  0.00000000000E+00  0.45593999997E+02  0.45594000000E+02  0.51100000000E-03 0.  1.
         11   -1    0    0    0    0 -0.00000000000E+00 -0.00000000000E+00 -0.45593999997E+02  0.45594000000E+02  0.51100000000E-03 0. -1.
    9900012    2    1    2    0    0 -0.10641497273E+02 -0.37056160177E+02 -0.12913741569E+02  0.50528865816E+02  0.30000018135E+02 0.  0.
        -12    1    1    2    0    0  0.10641497273E+02  0.37056160177E+02  0.12913741569E+02  0.40659134184E+02  0.00000000000E+00 0.  1.
         11    1    3    3    0    0 -0.21621875737E+01 -0.15008838259E+02 -0.48829786239E+01  0.15930592000E+02  0.51100000000E-03 0. -1.
        -11    1    3    3    0    0 -0.11534602365E+02 -0.26120083987E+02 -0.70910951753E+01  0.29420901928E+02  0.51100000000E-03 0.  1.
         12    1    3    3    0    0  0.30552926661E+01  0.40727620690E+01 -0.93966777023E+00  0.51773718878E+01  0.00000000000E+00 0. -1.
</event>
<event>
 7    1  0.2584640E-011  0.5052887E+02  0.7816164E-02  0.1300439E+00
        -11   -1    0    0    0    0  0.00000000000E+00  0.00000000000E+00  0.45593999997E+02  0.45594000000E+02  0.51100000000E-03 0. -1.
         11   -1    0    0    0    0 -0.00000000000E+00 -0.00000000000E+00 -0.45593999997E+02  0.45594000000E+02  0.51100000000E-03 0.  1.
    9900012    2    1    2    0    0  0.39929836853E+02 -0.24958099155E+01  0.72487158990E+01  0.50528870393E+02  0.30000032046E+02 0.  0.
        -12    1    1    2    0    0 -0.39929836853E+02  0.24958099155E+01 -0.72487158990E+01  0.40659129607E+02  0.00000000000E+00 0.  1.
         11    1    3    3    0    0  0.86578229583E+01  0.23168018583E+01 -0.30259835580E+01  0.94594950173E+01  0.51100000000E-03 0. -1.
        -11    1    3    3    0    0 -0.34714063939E+01  0.11803728118E+01 -0.14080288800E+01  0.39276567969E+01  0.51100000000E-03 0.  1.
        -12    1    3    3    0    0  0.34743420288E+02 -0.59929845856E+01  0.11682728337E+02  0.37141718579E+02  0.00000000000E+00 0.  1.
</event>
<event>
 7    1  0.2584640E-011  0.5052888E+02  0.7816164E-02  0.1300439E+00
        -11   -1    0    0    0    0  0.00000000000E+00  0.00000000000E+00  0.45593999997E+02  0.45594000000E+02  0.51100000000E-03 0. -1.
         11   -1    0    0    0    0 -0.00000000000E+00 -0.00000000000E+00 -0.45593999997E+02  0.45594000000E+02  0.51100000000E-03 0.  1.
    9900012    2    1    2    0    0 -0.32867952445E+02 -0.16870746200E+02 -0.16977625298E+02  0.50528878809E+02  0.30000057627E+02 0.  0.
        -12    1    1    2    0    0  0.32867952445E+02  0.16870746200E+02  0.16977625298E+02  0.40659121191E+02  0.00000000000E+00 0.  1.
         11    1    3    3    0    0 -0.15743565146E+02 -0.60952235296E+01 -0.38574603662E+01  0.17317378384E+02  0.51100000000E-03 0. -1.
        -11    1    3    3    0    0 -0.18255181653E+02 -0.13308563997E+02 -0.17118910081E+02  0.28344781098E+02  0.51100000000E-03 0.  1.
        -12    1    3    3    0    0  0.11307943533E+01  0.25330413268E+01  0.39987451496E+01  0.48667193266E+01  0.00000000000E+00 0.  1.
</event>
<event>
 7    1  0.2584640E-011  0.5052885E+02  0.7816164E-02  0.1300439E+00
        -11   -1    0    0    0    0  0.00000000000E+00  0.00000000000E+00  0.45593999997E+02  0.45594000000E+02  0.51100000000E-03 0. -1.
         11   -1    0    0    0    0 -0.00000000000E+00 -0.00000000000E+00 -0.45593999997E+02  0.45594000000E+02  0.51100000000E-03 0.  1.
    9900012    2    1    2    0    0 -0.37248782835E+02 -0.14170147401E+02  0.80561369883E+01  0.50528852896E+02  0.29999978862E+02 0.  0.
        -12    1    1    2    0    0  0.37248782835E+02  0.14170147401E+02 -0.80561369883E+01  0.40659147104E+02  0.00000000000E+00 0.  1.
         11    1    3    3    0    0 -0.30360669058E+02  0.38505376265E+00  0.73896842858E+01  0.31249414813E+02  0.51100000000E-03 0.  1.
        -11    1    3    3    0    0 -0.12419570075E+01 -0.13723868692E+01  0.41302422577E+01  0.45260141732E+01  0.51100000000E-03 0. -1.
        -12    1    3    3    0    0 -0.56461567700E+01 -0.13182814294E+02 -0.34637895552E+01  0.14753423910E+02  0.00000000000E+00 0.  1.
</event>
<event>
 7    1  0.2584640E-011  0.5052887E+02  0.7816164E-02  0.1300439E+00
        -11   -1    0    0    0    0  0.00000000000E+00  0.00000000000E+00  0.45593999997E+02  0.45594000000E+02  0.51100000000E-03 0.  1.
         11   -1    0    0    0    0 -0.00000000000E+00 -0.00000000000E+00 -0.45593999997E+02  0.45594000000E+02  0.51100000000E-03 0. -1.
    9900012    2    1    2    0    0  0.16848035402E+02  0.11392419029E+02 -0.35206836921E+02  0.50528869731E+02  0.30000030035E+02 0.  0.
        -12    1    1    2    0    0 -0.16848035402E+02 -0.11392419029E+02  0.35206836921E+02  0.40659130269E+02  0.00000000000E+00 0.  1.
         11    1    3    3    0    0  0.11864894555E+02  0.10369699932E+02 -0.14438299697E+02  0.21372199182E+02  0.51100000000E-03 0. -1.
        -11    1    3    3    0    0  0.11780113756E+02 -0.34317346160E+01 -0.11319088335E+02  0.16693401198E+02  0.51100000000E-03 0.  1.
        -12    1    3    3    0    0 -0.67969729085E+01  0.44544537130E+01 -0.94494488890E+01  0.12463269351E+02  0.00000000000E+00 0.  1.
</event>
<event>
 7    1  0.3013764E-011  0.5052891E+02  0.7816164E-02  0.1300439E+00
        -11   -1    0    0    0    0  0.00000000000E+00  0.00000000000E+00  0.45593999997E+02  0.45594000000E+02  0.51100000000E-03 0.  1.
         11   -1    0    0    0    0 -0.00000000000E+00 -0.00000000000E+00 -0.45593999997E+02  0.45594000000E+02  0.51100000000E-03 0. -1.
    9900012    2    1    2    0    0 -0.27227706893E+02  0.43285888939E+01 -0.29884391798E+02  0.50528910271E+02  0.30000153258E+02 0.  0.
        -12    1    1    2    0    0  0.27227706893E+02 -0.43285888939E+01  0.29884391798E+02  0.40659089729E+02  0.00000000000E+00 0.  1.
         11    1    3    3    0    0 -0.10989059148E+02 -0.73074247057E+00 -0.18129506318E+02  0.21212553008E+02  0.51100000000E-03 0. -1.
        -11    1    3    3    0    0 -0.46717582762E+01  0.96983088468E+01 -0.12899802089E+02  0.16801411074E+02  0.51100000000E-03 0.  1.
        -12    1    3    3    0    0 -0.11566889469E+02 -0.46389774823E+01  0.11449166088E+01  0.12514946189E+02  0.00000000000E+00 0.  1.
</event>
<event>
 7    1  0.2584640E-011  0.5052886E+02  0.7816164E-02  0.1300439E+00
        -11   -1    0    0    0    0  0.00000000000E+00  0.00000000000E+00  0.45593999997E+02  0.45594000000E+02  0.51100000000E-03 0. -1.
         11   -1    0    0    0    0 -0.00000000000E+00 -0.00000000000E+00 -0.45593999997E+02  0.45594000000E+02  0.51100000000E-03 0.  1.
    9900012    2    1    2    0    0 -0.10078767208E+02  0.36591027268E+02  0.14583586007E+02  0.50528858275E+02  0.29999995214E+02 0.  0.
        -12    1    1    2    0    0  0.10078767208E+02 -0.36591027268E+02 -0.14583586007E+02  0.40659141725E+02  0.00000000000E+00 0.  1.
         11    1    3    3    0    0  0.63976168869E+01  0.93580390334E+01  0.10610871836E+02  0.15527169663E+02  0.51100000000E-03 0. -1.
        -11    1    3    3    0    0 -0.47607213592E+01  0.20269382567E+02  0.47308528065E+01  0.21351658157E+02  0.51100000000E-03 0.  1.
        -12    1    3    3    0    0 -0.11715662736E+02  0.69636056673E+01 -0.75813863512E+00  0.13650030455E+02  0.00000000000E+00 0.  1.
</event>
<event>
 7    1  0.2584640E-011  0.5052886E+02  0.7816164E-02  0.1300439E+00
        -11   -1    0    0    0    0  0.00000000000E+00  0.00000000000E+00  0.45593999997E+02  0.45594000000E+02  0.51100000000E-03 0. -1.
         11   -1    0    0    0    0 -0.00000000000E+00 -0.00000000000E+00 -0.45593999997E+02  0.45594000000E+02  0.51100000000E-03 0.  1.
    9900012    2    1    2    0    0 -0.25635874825E+02  0.29297497890E+02 -0.11731325499E+02  0.50528862544E+02  0.30000008189E+02 0.  0.
        -12    1    1    2    0    0  0.25635874825E+02 -0.29297497890E+02  0.11731325499E+02  0.40659137456E+02  0.00000000000E+00 0.  1.
         11    1    3    3    0    0 -0.29183663698E+02  0.26420107370E+02 -0.30378494642E+01  0.39483374095E+02  0.51100000000E-03 0. -1.
        -11    1    3    3    0    0 -0.11536738494E+01 -0.20762121132E+00 -0.12092502796E+01  0.16841485737E+01  0.51100000000E-03 0.  1.
         12    1    3    3    0    0  0.47014627223E+01  0.30850117314E+01 -0.74842257552E+01  0.93613398756E+01  0.00000000000E+00 0. -1.
</event>
<event>
 7    1  0.2584640E-011  0.5052886E+02  0.7816164E-02  0.1300439E+00
        -11   -1    0    0    0    0  0.00000000000E+00  0.00000000000E+00  0.45593999997E+02  0.45594000000E+02  0.51100000000E-03 0. -1.
         11   -1    0    0    0    0 -0.00000000000E+00 -0.00000000000E+00 -0.45593999997E+02  0.45594000000E+02  0.51100000000E-03 0.  1.
    9900012    2    1    2    0    0 -0.14089112827E+02  0.37642466435E+02 -0.61405961304E+01  0.50528864490E+02  0.30000014104E+02 0.  0.
        -12    1    1    2    0    0  0.14089112827E+02 -0.37642466435E+02  0.61405961304E+01  0.40659135510E+02  0.00000000000E+00 0.  1.
         11    1    3    3    0    0  0.32634309930E+01  0.84457114018E+01  0.63262087079E+01  0.11045403560E+02  0.51100000000E-03 0.  1.
        -11    1    3    3    0    0  0.14318639848E+01  0.44659758099E+01 -0.62459291796E+01  0.78106853722E+01  0.51100000000E-03 0. -1.
         12    1    3    3    0    0 -0.18784407805E+02  0.24730779223E+02 -0.62208756586E+01  0.31672775558E+02  0.00000000000E+00 0. -1.
</event>
<event>
 7    1  0.2584640E-011  0.5052887E+02  0.7816164E-02  0.1300439E+00
        -11   -1    0    0    0    0  0.00000000000E+00  0.00000000000E+00  0.45593999997E+02  0.45594000000E+02  0.51100000000E-03 0. -1.
         11   -1    0    0    0    0 -0.00000000000E+00 -0.00000000000E+00 -0.45593999997E+02  0.45594000000E+02  0.51100000000E-03 0.  1.
    9900012    2    1    2    0    0  0.86651751146E+01 -0.31221138305E+02  0.24562568909E+02  0.50528873986E+02  0.30000042967E+02 0.  0.
        -12    1    1    2    0    0 -0.86651751146E+01  0.31221138305E+02 -0.24562568909E+02  0.40659126014E+02  0.00000000000E+00 0.  1.
         11    1    3    3    0    0 -0.17523312322E+00 -0.39976955312E+01  0.16498472599E+02  0.16976804015E+02  0.51100000000E-03 0. -1.
        -11    1    3    3    0    0  0.12522834343E+02 -0.14103734198E+02  0.58446830123E+01  0.19745810140E+02  0.51100000000E-03 0.  1.
         12    1    3    3    0    0 -0.36824261048E+01 -0.13119708576E+02  0.22194132977E+01  0.13806259831E+02  0.00000000000E+00 0. -1.
</event>
<event>
 7    1  0.2584640E-011  0.5052885E+02  0.7816164E-02  0.1300439E+00
        -11   -1    0    0    0    0  0.00000000000E+00  0.00000000000E+00  0.45593999997E+02  0.45594000000E+02  0.51100000000E-03 0. -1.
         11   -1    0    0    0    0 -0.00000000000E+00 -0.00000000000E+00 -0.45593999997E+02  0.45594000000E+02  0.51100000000E-03 0.  1.
    9900012    2    1    2    0    0 -0.40059119489E+02 -0.51845926324E+01  0.46425413590E+01  0.50528852871E+02  0.29999978786E+02 0.  0.
        -12    1    1    2    0    0  0.40059119489E+02  0.51845926324E+01 -0.46425413590E+01  0.40659147129E+02  0.00000000000E+00 0.  1.
         11    1    3    3    0    0 -0.59567432841E+01 -0.14174375384E+01  0.11161671549E+02  0.12730861391E+02  0.51100000000E-03 0. -1.
        -11    1    3    3    0    0 -0.67770637463E+01  0.29513884311E+01 -0.62146761023E+01  0.96571986626E+01  0.51100000000E-03 0.  1.
         12    1    3    3    0    0 -0.27325312459E+02 -0.67185435251E+01 -0.30445408775E+00  0.28140792817E+02  0.00000000000E+00 0. -1.
</event>
<event>
 7    1  0.2584640E-011  0.5052885E+02  0.7816164E-02  0.1300439E+00
        -11   -1    0    0    0    0  0.00000000000E+00  0.00000000000E+00  0.45593999997E+02  0.45594000000E+02  0.51100000000E-03 0.  1.
         11   -1    0    0    0    0 -0.00000000000E+00 -0.00000000000E+00 -0.45593999997E+02  0.45594000000E+02  0.51100000000E-03 0. -1.
    9900012    2    1    2    0    0 -0.24688510248E+02  0.20215542287E+02 -0.25198718147E+02  0.50528854848E+02  0.29999984796E+02 0.  0.
        -12    1    1    2    0    0  0.24688510248E+02 -0.20215542287E+02  0.25198718147E+02  0.40659145152E+02  0.00000000000E+00 0.  1.
         11    1    3    3    0    0  0.59418665546E+00  0.46539613971E+01 -0.33353049442E+01  0.57564462821E+01  0.51100000000E-03 0.  1.
        -11    1    3    3    0    0 -0.18256713483E+02  0.13078594272E+02 -0.27444670871E+02  0.35462193599E+02  0.51100000000E-03 0. -1.
        -12    1    3    3    0    0 -0.70259834205E+01  0.24829866175E+01  0.55812576683E+01  0.93102149668E+01  0.00000000000E+00 0.  1.
</event>
<event>
 7    1  0.2584640E-011  0.5052888E+02  0.7816164E-02  0.1300439E+00
        -11   -1    0    0    0    0  0.00000000000E+00  0.00000000000E+00  0.45593999997E+02  0.45594000000E+02  0.51100000000E-03 0.  1.
         11   -1    0    0    0    0 -0.00000000000E+00 -0.00000000000E+00 -0.45593999997E+02  0.45594000000E+02  0.51100000000E-03 0. -1.
    9900012    2    1    2    0    0  0.63711672650E+01  0.11019887468E+02 -0.38615205888E+02  0.50528882721E+02  0.30000069520E+02 0.  0.
        -12    1    1    2    0    0 -0.63711672650E+01 -0.11019887468E+02  0.38615205888E+02  0.40659117279E+02  0.00000000000E+00 0.  1.
         11    1    3    3    0    0  0.22989361780E+01 -0.35845197704E+01 -0.34625851932E+00  0.42724448221E+01  0.51100000000E-03 0. -1.
        -11    1    3    3    0    0  0.77335016732E+01  0.93878624639E+01 -0.63758941722E+01  0.13732845172E+02  0.51100000000E-03 0.  1.
         12    1    3    3    0    0 -0.36612705861E+01  0.52165447741E+01 -0.31893053196E+02  0.32523592727E+02  0.00000000000E+00 0. -1.
</event>
<event>
 7    1  0.2584640E-011  0.5052885E+02  0.7816164E-02  0.1300439E+00
        -11   -1    0    0    0    0  0.00000000000E+00  0.00000000000E+00  0.45593999997E+02  0.45594000000E+02  0.51100000000E-03 0. -1.
         11   -1    0    0    0    0 -0.00000000000E+00 -0.00000000000E+00 -0.45593999997E+02  0.45594000000E+02  0.51100000000E-03 0.  1.
    9900012    2    1    2    0    0 -0.30736233880E+02 -0.22347705868E+02  0.14457872575E+02  0.50528854533E+02  0.29999983838E+02 0.  0.
        -12    1    1    2    0    0  0.30736233880E+02  0.22347705868E+02 -0.14457872575E+02  0.40659145467E+02  0.00000000000E+00 0.  1.
         11    1    3    3    0    0 -0.69955413256E+01 -0.43023666740E+01  0.33587218984E+01  0.88729347168E+01  0.51100000000E-03 0. -1.
        -11    1    3    3    0    0  0.51484410055E+01  0.12758466701E+01  0.53484326386E+00  0.53310681004E+01  0.51100000000E-03 0.  1.
        -12    1    3    3    0    0 -0.28889133560E+02 -0.19321185864E+02  0.10564307413E+02  0.36324851716E+02  0.00000000000E+00 0.  1.
</event>
<event>
 7    1  0.2584640E-011  0.5052886E+02  0.7816164E-02  0.1300439E+00
        -11   -1    0    0    0    0  0.00000000000E+00  0.00000000000E+00  0.45593999997E+02  0.45594000000E+02  0.51100000000E-03 0. -1.
         11   -1    0    0    0    0 -0.00000000000E+00 -0.00000000000E+00 -0.45593999997E+02  0.45594000000E+02  0.51100000000E-03 0.  1.
    9900012    2    1    2    0    0 -0.23449273339E+01  0.26827270383E+02  0.30462514013E+02  0.50528857357E+02  0.29999992423E+02 0.  0.
        -12    1    1    2    0    0  0.23449273339E+01 -0.26827270383E+02 -0.30462514013E+02  0.40659142643E+02  0.00000000000E+00 0.  1.
         11    1    3    3    0    0  0.90727325961E+00  0.25973041866E+01  0.55461998222E+01  0.61910795936E+01  0.51100000000E-03 0. -1.
        -11    1    3    3    0    0 -0.15148274170E+02  0.10413987288E+02  0.11241334605E+02  0.21547365165E+02  0.51100000000E-03 0.  1.
        -12    1    3    3    0    0  0.11896073577E+02  0.13815978908E+02  0.13674979587E+02  0.22790412599E+02  0.00000000000E+00 0.  1.
</event>
<event>
 7    1  0.2584640E-011  0.5052886E+02  0.7816164E-02  0.1300439E+00
        -11   -1    0    0    0    0  0.00000000000E+00  0.00000000000E+00  0.45593999997E+02  0.45594000000E+02  0.51100000000E-03 0. -1.
         11   -1    0    0    0    0 -0.00000000000E+00 -0.00000000000E+00 -0.45593999997E+02  0.45594000000E+02  0.51100000000E-03 0.  1.
    9900012    2    1    2    0    0  0.40180287554E+02 -0.51063718402E+01  0.35546033267E+01  0.50528859009E+02  0.29999997444E+02 0.  0.
        -12    1    1    2    0    0 -0.40180287554E+02  0.51063718402E+01 -0.35546033267E+01  0.40659140991E+02  0.00000000000E+00 0.  1.
         11    1    3    3    0    0  0.81351404888E+01 -0.17521644942E+01 -0.53146645609E+00  0.83386478546E+01  0.51100000000E-03 0. -1.
        -11    1    3    3    0    0  0.16878483105E+02 -0.10039441062E+02 -0.84793319037E+01  0.21390947584E+02  0.51100000000E-03 0.  1.
         12    1    3    3    0    0  0.15166663960E+02  0.66852337160E+01  0.12565401687E+02  0.20799263570E+02  0.00000000000E+00 0. -1.
</event>
<event>
 7    1  0.2584640E-011  0.5052884E+02  0.7816164E-02  0.1300439E+00
        -11   -1    0    0    0    0  0.00000000000E+00  0.00000000000E+00  0.45593999997E+02  0.45594000000E+02  0.51100000000E-03 0.  1.
         11   -1    0    0    0    0 -0.00000000000E+00 -0.00000000000E+00 -0.45593999997E+02  0.45594000000E+02  0.51100000000E-03 0. -1.
    9900012    2    1    2    0    0  0.69494546609E+00  0.44736379235E+01 -0.40406317645E+02  0.50528844929E+02  0.29999954645E+02 0.  0.
        -12    1    1    2    0    0 -0.69494546609E+00 -0.44736379235E+01  0.40406317645E+02  0.40659155071E+02  0.00000000000E+00 0.  1.
         11    1    3    3    0    0  0.77792128142E+00 -0.45358878006E+01 -0.10782585758E+02  0.11723634059E+02  0.51100000000E-03 0. -1.
        -11    1    3    3    0    0  0.53431095999E+01 -0.24151870592E+01  0.74237971956E+00  0.59104210203E+01  0.51100000000E-03 0.  1.
         12    1    3    3    0    0 -0.54260854152E+01  0.11424712783E+02 -0.30366111606E+02  0.32894789849E+02  0.00000000000E+00 0. -1.
</event>
<event>
 7    1  0.2584640E-011  0.5052883E+02  0.7816164E-02  0.1300439E+00
        -11   -1    0    0    0    0  0.00000000000E+00  0.00000000000E+00  0.45593999997E+02  0.45594000000E+02  0.51100000000E-03 0. -1.
         11   -1    0    0    0    0 -0.00000000000E+00 -0.00000000000E+00 -0.45593999997E+02  0.45594000000E+02  0.51100000000E-03 0.  1.
    9900012    2    1    2    0    0 -0.57122955427E+01 -0.27349156454E+02  0.29539154118E+02  0.50528827540E+02  0.29999901790E+02 0.  0.
        -12    1    1    2    0    0  0.57122955427E+01  0.27349156454E+02 -0.29539154118E+02  0.40659172460E+02  0.00000000000E+00 0.  1.
         11    1    3    3    0    0 -0.49364695419E+01 -0.15890739081E+02  0.14373617232E+02  0.21988296720E+02  0.51100000000E-03 0. -1.
        -11    1    3    3    0    0 -0.87800684967E+01 -0.12950887654E+02  0.12322317885E+02  0.19916189700E+02  0.51100000000E-03 0.  1.
        -12    1    3    3    0    0  0.80042424958E+01  0.14924702804E+01  0.28432190016E+01  0.86243411204E+01  0.00000000000E+00 0.  1.
</event>
<event>
 7    1  0.2584640E-011  0.5052885E+02  0.7816164E-02  0.1300439E+00
        -11   -1    0    0    0    0  0.00000000000E+00  0.00000000000E+00  0.45593999997E+02  0.45594000000E+02  0.51100000000E-03 0. -1.
         11   -1    0    0    0    0 -0.00000000000E+00 -0.00000000000E+00 -0.45593999997E+02  0.45594000000E+02  0.51100000000E-03 0.  1.
    9900012    2    1    2    0    0  0.40194416601E+02  0.21334894879E+01 -0.57466131639E+01  0.50528850155E+02  0.29999970530E+02 0.  0.
        -12    1    1    2    0    0 -0.40194416601E+02 -0.21334894879E+01  0.57466131639E+01  0.40659149845E+02  0.00000000000E+00 0.  1.
         11    1    3    3    0    0  0.14031336014E+02  0.79867734836E+01  0.95671856663E+01  0.18766938558E+02  0.51100000000E-03 0. -1.
        -11    1    3    3    0    0  0.19347299140E+02 -0.96153284034E+00 -0.11673415234E+02  0.22616612322E+02  0.51100000000E-03 0.  1.
        -12    1    3    3    0    0  0.68157814470E+01 -0.48917511553E+01 -0.36403835959E+01  0.91452992747E+01  0.00000000000E+00 0.  1.
</event>
<event>
 7    1  0.2584640E-011  0.5052886E+02  0.7816164E-02  0.1300439E+00
        -11   -1    0    0    0    0  0.00000000000E+00  0.00000000000E+00  0.45593999997E+02  0.45594000000E+02  0.51100000000E-03 0.  1.
         11   -1    0    0    0    0 -0.00000000000E+00 -0.00000000000E+00 -0.45593999997E+02  0.45594000000E+02  0.51100000000E-03 0. -1.
    9900012    2    1    2    0    0 -0.72195790418E+01  0.33774145177E+02 -0.21455785874E+02  0.50528856485E+02  0.29999989771E+02 0.  0.
        -12    1    1    2    0    0  0.72195790418E+01 -0.33774145177E+02  0.21455785874E+02  0.40659143515E+02  0.00000000000E+00 0.  1.
         11    1    3    3    0    0 -0.10436895202E+02  0.14191202757E+02 -0.12020810826E+02  0.21326483778E+02  0.51100000000E-03 0.  1.
        -11    1    3    3    0    0 -0.33054599585E+01 -0.27105082305E+01 -0.25406857656E+01  0.49727260960E+01  0.51100000000E-03 0. -1.
         12    1    3    3    0    0  0.65227761187E+01  0.22293450650E+02 -0.68942892819E+01  0.24229646611E+02  0.00000000000E+00 0. -1.
</event>
<event>
 7    1  0.2584640E-011  0.5052886E+02  0.7816164E-02  0.1300439E+00
        -11   -1    0    0    0    0  0.00000000000E+00  0.00000000000E+00  0.45593999997E+02  0.45594000000E+02  0.51100000000E-03 0. -1.
         11   -1    0    0    0    0 -0.00000000000E+00 -0.00000000000E+00 -0.45593999997E+02  0.45594000000E+02  0.51100000000E-03 0.  1.
    9900012    2    1    2    0    0  0.90493870052E+00  0.36342705170E+02 -0.18208640255E+02  0.50528859415E+02  0.29999998678E+02 0.  0.
        -12    1    1    2    0    0 -0.90493870052E+00 -0.36342705170E+02  0.18208640255E+02  0.40659140585E+02  0.00000000000E+00 0.  1.
         11    1    3    3    0    0  0.11829384033E+01  0.30050371125E+02 -0.15388514712E+02  0.33782103743E+02  0.51100000000E-03 0. -1.
        -11    1    3    3    0    0  0.60472991739E+01  0.55552639499E+01 -0.54514597202E+01  0.98564292822E+01  0.51100000000E-03 0.  1.
         12    1    3    3    0    0 -0.63252988768E+01  0.73707009514E+00  0.26313341768E+01  0.68903263896E+01  0.00000000000E+00 0. -1.
</event>
<event>
 7    1  0.2584640E-011  0.5052885E+02  0.7816164E-02  0.1300439E+00
        -11   -1    0    0    0    0  0.00000000000E+00  0.00000000000E+00  0.45593999997E+02  0.45594000000E+02  0.51100000000E-03 0.  1.
         11   -1    0    0    0    0 -0.00000000000E+00 -0.00000000000E+00 -0.45593999997E+02  0.45594000000E+02  0.51100000000E-03 0. -1.
    9900012    2    1    2    0    0 -0.47821086975E+01 -0.39381143987E+02 -0.89119601790E+01  0.50528854663E+02  0.29999984233E+02 0.  0.
        -12    1    1    2    0    0  0.47821086975E+01  0.39381143987E+02  0.89119601790E+01  0.40659145337E+02  0.00000000000E+00 0.  1.
         11    1    3    3    0    0  0.15858453158E+01 -0.24347287938E+02 -0.92001913453E+01  0.26075828968E+02  0.51100000000E-03 0. -1.
        -11    1    3    3    0    0  0.34055792632E+01  0.22707063864E+01 -0.17966354282E+01  0.44701204384E+01  0.51100000000E-03 0.  1.
         12    1    3    3    0    0 -0.97735332766E+01 -0.17304562435E+02  0.20848665944E+01  0.19982905256E+02  0.00000000000E+00 0. -1.
</event>
<event>
 7    1  0.2584640E-011  0.5052886E+02  0.7816164E-02  0.1300439E+00
        -11   -1    0    0    0    0  0.00000000000E+00  0.00000000000E+00  0.45593999997E+02  0.45594000000E+02  0.51100000000E-03 0. -1.
         11   -1    0    0    0    0 -0.00000000000E+00 -0.00000000000E+00 -0.45593999997E+02  0.45594000000E+02  0.51100000000E-03 0.  1.
    9900012    2    1    2    0    0 -0.30437850788E+02 -0.22872846748E+02 -0.14266588900E+02  0.50528862801E+02  0.30000008969E+02 0.  0.
        -12    1    1    2    0    0  0.30437850788E+02  0.22872846748E+02  0.14266588900E+02  0.40659137199E+02  0.00000000000E+00 0.  1.
         11    1    3    3    0    0 -0.24773861296E+01  0.11659944824E+01 -0.57268831732E+01  0.63477693963E+01  0.51100000000E-03 0. -1.
        -11    1    3    3    0    0 -0.80705319942E+01 -0.15103977476E+02  0.58038263150E+01  0.18081704079E+02  0.51100000000E-03 0.  1.
         12    1    3    3    0    0 -0.19889932664E+02 -0.89348637545E+01 -0.14343532042E+02  0.26099389325E+02  0.00000000000E+00 0. -1.
</event>
<event>
 7    1  0.2584640E-011  0.5052885E+02  0.7816164E-02  0.1300439E+00
        -11   -1    0    0    0    0  0.00000000000E+00  0.00000000000E+00  0.45593999997E+02  0.45594000000E+02  0.51100000000E-03 0.  1.
         11   -1    0    0    0    0 -0.00000000000E+00 -0.00000000000E+00 -0.45593999997E+02  0.45594000000E+02  0.51100000000E-03 0. -1.
    9900012    2    1    2    0    0  0.79983695728E+00 -0.14293281443E+02 -0.38055597342E+02  0.50528854379E+02  0.29999983370E+02 0.  0.
        -12    1    1    2    0    0 -0.79983695728E+00  0.14293281443E+02  0.38055597342E+02  0.40659145621E+02  0.00000000000E+00 0.  1.
         11    1    3    3    0    0  0.69574445512E+00 -0.12636220646E+02 -0.11468514905E+02  0.17078787045E+02  0.51100000000E-03 0.  1.
        -11    1    3    3    0    0 -0.86781479338E+01  0.12298220852E+01 -0.53010450999E+01  0.10243231586E+02  0.51100000000E-03 0. -1.
         12    1    3    3    0    0  0.87822404359E+01 -0.28868828823E+01 -0.21286037338E+02  0.23206835747E+02  0.00000000000E+00 0. -1.
</event>
<event>
 7    1  0.2584640E-011  0.5052886E+02  0.7816164E-02  0.1300439E+00
        -11   -1    0    0    0    0  0.00000000000E+00  0.00000000000E+00  0.45593999997E+02  0.45594000000E+02  0.51100000000E-03 0.  1.
         11   -1    0    0    0    0 -0.00000000000E+00 -0.00000000000E+00 -0.45593999997E+02  0.45594000000E+02  0.51100000000E-03 0. -1.
    9900012    2    1    2    0    0 -0.26122198929E+02 -0.21864778733E+02 -0.22197476507E+02  0.50528858480E+02  0.29999995835E+02 0.  0.
        -12    1    1    2    0    0  0.26122198929E+02  0.21864778733E+02  0.22197476507E+02  0.40659141520E+02  0.00000000000E+00 0.  1.
         11    1    3    3    0    0 -0.20652659482E+02 -0.92648883182E+01 -0.24859464355E+02  0.33620878446E+02  0.51100000000E-03 0. -1.
        -11    1    3    3    0    0  0.15194716098E+01  0.45915340731E+00 -0.67531643402E+00  0.17250125714E+01  0.51100000000E-03 0.  1.
        -12    1    3    3    0    0 -0.69890110566E+01 -0.13059043822E+02  0.33373042817E+01  0.15182967462E+02  0.00000000000E+00 0.  1.
</event>
<event>
 7    1  0.2584640E-011  0.5052886E+02  0.7816164E-02  0.1300439E+00
        -11   -1    0    0    0    0  0.00000000000E+00  0.00000000000E+00  0.45593999997E+02  0.45594000000E+02  0.51100000000E-03 0.  1.
         11   -1    0    0    0    0 -0.00000000000E+00 -0.00000000000E+00 -0.45593999997E+02  0.45594000000E+02  0.51100000000E-03 0. -1.
    9900012    2    1    2    0    0 -0.18815514743E+02 -0.28110487232E+02 -0.22559757733E+02  0.50528858882E+02  0.29999997058E+02 0.  0.
        -12    1    1    2    0    0  0.18815514743E+02  0.28110487232E+02  0.22559757733E+02  0.40659141118E+02  0.00000000000E+00 0.  1.
         11    1    3    3    0    0 -0.74309451079E+01 -0.68949769317E+01 -0.14103393338E+02  0.17368516229E+02  0.51100000000E-03 0. -1.
        -11    1    3    3    0    0  0.62601491588E+01 -0.54087411495E+01 -0.10462272176E+01  0.83389771533E+01  0.51100000000E-03 0.  1.
        -12    1    3    3    0    0 -0.17644718794E+02 -0.15806769151E+02 -0.74101371776E+01  0.24821365500E+02  0.00000000000E+00 0.  1.
</event>
<event>
 7    1  0.2584640E-011  0.5052885E+02  0.7816164E-02  0.1300439E+00
        -11   -1    0    0    0    0  0.00000000000E+00  0.00000000000E+00  0.45593999997E+02  0.45594000000E+02  0.51100000000E-03 0.  1.
         11   -1    0    0    0    0 -0.00000000000E+00 -0.00000000000E+00 -0.45593999997E+02  0.45594000000E+02  0.51100000000E-03 0. -1.
    9900012    2    1    2    0    0 -0.30295331617E+02  0.75333880827E+01 -0.26050091795E+02  0.50528851751E+02  0.29999975382E+02 0.  0.
        -12    1    1    2    0    0  0.30295331617E+02 -0.75333880827E+01  0.26050091795E+02  0.40659148249E+02  0.00000000000E+00 0.  1.
         11    1    3    3    0    0  0.64712444645E+00 -0.16492967663E+01 -0.97799561860E+01  0.99391394564E+01  0.51100000000E-03 0. -1.
        -11    1    3    3    0    0 -0.54686027231E+01 -0.49670735395E+01 -0.37651509352E+00  0.73972426732E+01  0.51100000000E-03 0.  1.
        -12    1    3    3    0    0 -0.25473853341E+02  0.14149758388E+02 -0.15893620516E+02  0.33192469621E+02  0.00000000000E+00 0.  1.
</event>
<event>
 7    1  0.2584640E-011  0.5052886E+02  0.7816164E-02  0.1300439E+00
        -11   -1    0    0    0    0  0.00000000000E+00  0.00000000000E+00  0.45593999997E+02  0.45594000000E+02  0.51100000000E-03 0.  1.
         11   -1    0    0    0    0 -0.00000000000E+00 -0.00000000000E+00 -0.45593999997E+02  0.45594000000E+02  0.51100000000E-03 0. -1.
    9900012    2    1    2    0    0  0.13386141346E+02  0.27008993952E+02 -0.27285361903E+02  0.50528861930E+02  0.30000006322E+02 0.  0.
        -12    1    1    2    0    0 -0.13386141346E+02 -0.27008993952E+02  0.27285361903E+02  0.40659138070E+02  0.00000000000E+00 0.  1.
         11    1    3    3    0    0  0.13699704877E+01  0.19700968627E+00  0.59792736269E+00  0.15076967022E+01  0.51100000000E-03 0.  1.
        -11    1    3    3    0    0  0.95389216397E+01  0.19798216654E+02 -0.33244768904E+02  0.39851914238E+02  0.51100000000E-03 0. -1.
         12    1    3    3    0    0  0.24772492185E+01  0.70137676115E+01  0.53614796381E+01  0.91692509895E+01  0.00000000000E+00 0. -1.
</event>
<event>
 7    1  0.2584640E-011  0.5052886E+02  0.7816164E-02  0.1300439E+00
        -11   -1    0    0    0    0  0.00000000000E+00  0.00000000000E+00  0.45593999997E+02  0.45594000000E+02  0.51100000000E-03 0.  1.
         11   -1    0    0    0    0 -0.00000000000E+00 -0.00000000000E+00 -0.45593999997E+02  0.45594000000E+02  0.51100000000E-03 0. -1.
    9900012    2    1    2    0    0  0.49023795462E+00 -0.19957644965E+02 -0.35420579667E+02  0.50528863391E+02  0.30000010765E+02 0.  0.
        -12    1    1    2    0    0 -0.49023795462E+00  0.19957644965E+02  0.35420579667E+02  0.40659136609E+02  0.00000000000E+00 0.  1.
         11    1    3    3    0    0 -0.16980857361E+00 -0.16957081824E+02 -0.40300398288E+02  0.43722918034E+02  0.51100000000E-03 0. -1.
        -11    1    3    3    0    0 -0.64476070822E-01 -0.19670016936E+01  0.22247566526E+00  0.19805929690E+01  0.51100000000E-03 0.  1.
         12    1    3    3    0    0  0.72452259905E+00 -0.10335614471E+01  0.46573429561E+01  0.48253523884E+01  0.00000000000E+00 0. -1.
</event>
<event>
 7    1  0.2584640E-011  0.5052885E+02  0.7816164E-02  0.1300439E+00
        -11   -1    0    0    0    0  0.00000000000E+00  0.00000000000E+00  0.45593999997E+02  0.45594000000E+02  0.51100000000E-03 0. -1.
         11   -1    0    0    0    0 -0.00000000000E+00 -0.00000000000E+00 -0.45593999997E+02  0.45594000000E+02  0.51100000000E-03 0.  1.
    9900012    2    1    2    0    0 -0.32091760724E+02  0.24697357697E+02  0.36504300984E+01  0.50528853139E+02  0.29999979601E+02 0.  0.
        -12    1    1    2    0    0  0.32091760724E+02 -0.24697357697E+02 -0.36504300984E+01  0.40659146861E+02  0.00000000000E+00 0.  1.
         11    1    3    3    0    0 -0.16932390565E+02  0.48911893143E+00  0.19366764528E+01  0.17049803621E+02  0.51100000000E-03 0. -1.
        -11    1    3    3    0    0 -0.13628375090E+02  0.56846097391E+01  0.19227554831E+01  0.14891084057E+02  0.51100000000E-03 0.  1.
        -12    1    3    3    0    0 -0.15309950693E+01  0.18523629026E+02 -0.20900183756E+00  0.18587965461E+02  0.00000000000E+00 0.  1.
</event>
<event>
 7    1  0.2584640E-011  0.5052884E+02  0.7816164E-02  0.1300439E+00
        -11   -1    0    0    0    0  0.00000000000E+00  0.00000000000E+00  0.45593999997E+02  0.45594000000E+02  0.51100000000E-03 0.  1.
         11   -1    0    0    0    0 -0.00000000000E+00 -0.00000000000E+00 -0.45593999997E+02  0.45594000000E+02  0.51100000000E-03 0. -1.
    9900012    2    1    2    0    0 -0.38421288185E+02  0.11661208766E+02 -0.64021683296E+01  0.50528844389E+02  0.29999953004E+02 0.  0.
        -12    1    1    2    0    0  0.38421288185E+02 -0.11661208766E+02  0.64021683296E+01  0.40659155611E+02  0.00000000000E+00 0.  1.
         11    1    3    3    0    0 -0.13518057223E+02  0.63551669176E+01 -0.28438971858E+01  0.15205715014E+02  0.51100000000E-03 0. -1.
        -11    1    3    3    0    0 -0.17101213384E+02  0.14752150966E+02 -0.71250959848E-01  0.22585006847E+02  0.51100000000E-03 0.  1.
        -12    1    3    3    0    0 -0.78020175779E+01 -0.94461091176E+01 -0.34870201839E+01  0.12738122527E+02  0.00000000000E+00 0.  1.
</event>
<event>
 7    1  0.2584640E-011  0.5052886E+02  0.7816164E-02  0.1300439E+00
        -11   -1    0    0    0    0  0.00000000000E+00  0.00000000000E+00  0.45593999997E+02  0.45594000000E+02  0.51100000000E-03 0.  1.
         11   -1    0    0    0    0 -0.00000000000E+00 -0.00000000000E+00 -0.45593999997E+02  0.45594000000E+02  0.51100000000E-03 0. -1.
    9900012    2    1    2    0    0 -0.96628458455E+01  0.35986233667E+02 -0.16272236133E+02  0.50528864838E+02  0.30000015162E+02 0.  0.
        -12    1    1    2    0    0  0.96628458455E+01 -0.35986233667E+02  0.16272236133E+02  0.40659135162E+02  0.00000000000E+00 0.  1.
         11    1    3    3    0    0  0.25858120406E+01  0.16727763409E+01 -0.90290186479E+01  0.95397999246E+01  0.51100000000E-03 0. -1.
        -11    1    3    3    0    0 -0.10952155465E+02  0.83469958890E+01 -0.58247787202E+01  0.14951591791E+02  0.51100000000E-03 0.  1.
        -12    1    3    3    0    0 -0.12965024216E+01  0.25966461437E+02 -0.14184387644E+01  0.26037473122E+02  0.00000000000E+00 0.  1.
</event>
<event>
 7    1  0.2584640E-011  0.5052887E+02  0.7816164E-02  0.1300439E+00
        -11   -1    0    0    0    0  0.00000000000E+00  0.00000000000E+00  0.45593999997E+02  0.45594000000E+02  0.51100000000E-03 0.  1.
         11   -1    0    0    0    0 -0.00000000000E+00 -0.00000000000E+00 -0.45593999997E+02  0.45594000000E+02  0.51100000000E-03 0. -1.
    9900012    2    1    2    0    0 -0.17835180251E+02 -0.26081097902E+02 -0.25589996381E+02  0.50528865268E+02  0.30000016470E+02 0.  0.
        -12    1    1    2    0    0  0.17835180251E+02  0.26081097902E+02  0.25589996381E+02  0.40659134732E+02  0.00000000000E+00 0.  1.
         11    1    3    3    0    0 -0.23528329607E+01 -0.90703460955E+00 -0.11447938030E+02  0.11722364101E+02  0.51100000000E-03 0. -1.
        -11    1    3    3    0    0 -0.20177094664E+02 -0.15955792554E+02 -0.11162003071E+02  0.28040912573E+02  0.51100000000E-03 0.  1.
         12    1    3    3    0    0  0.46947473737E+01 -0.92182707384E+01 -0.29800552803E+01  0.10765588594E+02  0.00000000000E+00 0. -1.
</event>
<event>
 7    1  0.2584640E-011  0.5052885E+02  0.7816164E-02  0.1300439E+00
        -11   -1    0    0    0    0  0.00000000000E+00  0.00000000000E+00  0.45593999997E+02  0.45594000000E+02  0.51100000000E-03 0.  1.
         11   -1    0    0    0    0 -0.00000000000E+00 -0.00000000000E+00 -0.45593999997E+02  0.45594000000E+02  0.51100000000E-03 0. -1.
    9900012    2    1    2    0    0  0.26799561793E+02 -0.63212977767E+01 -0.29916400701E+02  0.50528851598E+02  0.29999974918E+02 0.  0.
        -12    1    1    2    0    0 -0.26799561793E+02  0.63212977767E+01  0.29916400701E+02  0.40659148402E+02  0.00000000000E+00 0.  1.
         11    1    3    3    0    0 -0.11464458725E+01  0.38297995162E+01 -0.60771796638E+01  0.72741882984E+01  0.51100000000E-03 0. -1.
        -11    1    3    3    0    0  0.16671982470E+01 -0.86194896086E+01 -0.10680187618E+02  0.13825395434E+02  0.51100000000E-03 0.  1.
        -12    1    3    3    0    0  0.26278809419E+02 -0.15316076843E+01 -0.13159033419E+02  0.29429267865E+02  0.00000000000E+00 0.  1.
</event>
<event>
 7    1  0.2584640E-011  0.5052886E+02  0.7816164E-02  0.1300439E+00
        -11   -1    0    0    0    0  0.00000000000E+00  0.00000000000E+00  0.45593999997E+02  0.45594000000E+02  0.51100000000E-03 0.  1.
         11   -1    0    0    0    0 -0.00000000000E+00 -0.00000000000E+00 -0.45593999997E+02  0.45594000000E+02  0.51100000000E-03 0. -1.
    9900012    2    1    2    0    0 -0.31213472565E+02 -0.16169748915E+02  0.20430961856E+02  0.50528857708E+02  0.29999993489E+02 0.  0.
        -12    1    1    2    0    0  0.31213472565E+02  0.16169748915E+02 -0.20430961856E+02  0.40659142292E+02  0.00000000000E+00 0.  1.
         11    1    3    3    0    0  0.26356506860E+00 -0.11551747108E+02  0.89521876420E-01  0.11555100269E+02  0.51100000000E-03 0. -1.
        -11    1    3    3    0    0 -0.28414096503E+01 -0.12484027888E+01  0.60352545672E+01  0.67864877718E+01  0.51100000000E-03 0.  1.
        -12    1    3    3    0    0 -0.28635627984E+02 -0.33695990181E+01  0.14306185412E+02  0.32187269667E+02  0.00000000000E+00 0.  1.
</event>
<event>
 7    1  0.2584640E-011  0.5052886E+02  0.7816164E-02  0.1300439E+00
        -11   -1    0    0    0    0  0.00000000000E+00  0.00000000000E+00  0.45593999997E+02  0.45594000000E+02  0.51100000000E-03 0.  1.
         11   -1    0    0    0    0 -0.00000000000E+00 -0.00000000000E+00 -0.45593999997E+02  0.45594000000E+02  0.51100000000E-03 0. -1.
    9900012    2    1    2    0    0 -0.15175746929E+01  0.38665718462E+02 -0.12482995370E+02  0.50528856003E+02  0.29999988307E+02 0.  0.
        -12    1    1    2    0    0  0.15175746929E+01 -0.38665718462E+02  0.12482995370E+02  0.40659143997E+02  0.00000000000E+00 0.  1.
         11    1    3    3    0    0 -0.39110451367E+01  0.31702802512E+01 -0.70903124332E+01  0.86959462737E+01  0.51100000000E-03 0. -1.
        -11    1    3    3    0    0 -0.33485348123E+01  0.20799958510E+02  0.65307276793E+01  0.22056775914E+02  0.51100000000E-03 0.  1.
         12    1    3    3    0    0  0.57420052561E+01  0.14695479701E+02 -0.11923410616E+02  0.19776133816E+02  0.00000000000E+00 0. -1.
</event>
<event>
 7    1  0.2584640E-011  0.5052884E+02  0.7816164E-02  0.1300439E+00
        -11   -1    0    0    0    0  0.00000000000E+00  0.00000000000E+00  0.45593999997E+02  0.45594000000E+02  0.51100000000E-03 0.  1.
         11   -1    0    0    0    0 -0.00000000000E+00 -0.00000000000E+00 -0.45593999997E+02  0.45594000000E+02  0.51100000000E-03 0. -1.
    9900012    2    1    2    0    0  0.22197122627E+02  0.32884690233E+02 -0.88911284342E+01  0.50528840276E+02  0.29999940503E+02 0.  0.
        -12    1    1    2    0    0 -0.22197122627E+02 -0.32884690233E+02  0.88911284342E+01  0.40659159724E+02  0.00000000000E+00 0.  1.
         11    1    3    3    0    0  0.25529419889E+01  0.79315734972E+01 -0.38489405063E+01  0.91783285092E+01  0.51100000000E-03 0. -1.
        -11    1    3    3    0    0  0.16807171075E+02  0.10215484721E+01 -0.35282158601E+01  0.17203862015E+02  0.51100000000E-03 0.  1.
         12    1    3    3    0    0  0.28370095633E+01  0.23931568264E+02 -0.15139720678E+01  0.24146649752E+02  0.00000000000E+00 0. -1.
</event>
<event>
 7    1  0.2584640E-011  0.5052885E+02  0.7816164E-02  0.1300439E+00
        -11   -1    0    0    0    0  0.00000000000E+00  0.00000000000E+00  0.45593999997E+02  0.45594000000E+02  0.51100000000E-03 0.  1.
         11   -1    0    0    0    0 -0.00000000000E+00 -0.00000000000E+00 -0.45593999997E+02  0.45594000000E+02  0.51100000000E-03 0. -1.
    9900012    2    1    2    0    0  0.36348765593E+02 -0.16879164627E+02 -0.68576798480E+01  0.50528846891E+02  0.29999960609E+02 0.  0.
        -12    1    1    2    0    0 -0.36348765593E+02  0.16879164627E+02  0.68576798480E+01  0.40659153109E+02  0.00000000000E+00 0.  1.
         11    1    3    3    0    0  0.26631261393E+02 -0.16810468929E+02 -0.86175063024E+01  0.32650840175E+02  0.51100000000E-03 0.  1.
        -11    1    3    3    0    0  0.37128436812E+01 -0.45077843797E+01  0.67279079492E+01  0.89089883741E+01  0.51100000000E-03 0. -1.
        -12    1    3    3    0    0  0.60046605190E+01  0.44390886818E+01 -0.49680814948E+01  0.89690183417E+01  0.00000000000E+00 0.  1.
</event>
<event>
 7    1  0.3654892E-011  0.5052888E+02  0.7816164E-02  0.1300439E+00
        -11   -1    0    0    0    0  0.00000000000E+00  0.00000000000E+00  0.45593999997E+02  0.45594000000E+02  0.51100000000E-03 0. -1.
         11   -1    0    0    0    0 -0.00000000000E+00 -0.00000000000E+00 -0.45593999997E+02  0.45594000000E+02  0.51100000000E-03 0.  1.
    9900012    2    1    2    0    0  0.36204275558E+01 -0.29534332836E+02  0.27708844794E+02  0.50528875666E+02  0.30000048075E+02 0.  0.
        -12    1    1    2    0    0 -0.36204275558E+01  0.29534332836E+02 -0.27708844794E+02  0.40659124334E+02  0.00000000000E+00 0.  1.
         11    1    3    3    0    0 -0.46220262247E+01 -0.17640068076E+02  0.20887745437E+02  0.27727838680E+02  0.51100000000E-03 0. -1.
        -11    1    3    3    0    0 -0.41114718628E+01  0.50810616053E+00  0.22245694742E+01  0.47022422689E+01  0.51100000000E-03 0.  1.
        -12    1    3    3    0    0  0.12353925643E+02 -0.12402370921E+02  0.45965298829E+01  0.18098794717E+02  0.00000000000E+00 0.  1.
</event>
<event>
 7    1  0.2584640E-011  0.5052886E+02  0.7816164E-02  0.1300439E+00
        -11   -1    0    0    0    0  0.00000000000E+00  0.00000000000E+00  0.45593999997E+02  0.45594000000E+02  0.51100000000E-03 0. -1.
         11   -1    0    0    0    0 -0.00000000000E+00 -0.00000000000E+00 -0.45593999997E+02  0.45594000000E+02  0.51100000000E-03 0.  1.
    9900012    2    1    2    0    0  0.35704493983E+02 -0.10511038995E+02  0.16366828411E+02  0.50528857073E+02  0.29999991558E+02 0.  0.
        -12    1    1    2    0    0 -0.35704493983E+02  0.10511038995E+02 -0.16366828411E+02  0.40659142927E+02  0.00000000000E+00 0.  1.
         11    1    3    3    0    0  0.22943382051E+01 -0.53520592568E+01  0.11038959104E+02  0.12480670833E+02  0.51100000000E-03 0. -1.
        -11    1    3    3    0    0  0.18083292274E+00  0.12731001088E+01 -0.29382352080E+01  0.32072902631E+01  0.51100000000E-03 0.  1.
         12    1    3    3    0    0  0.33229322855E+02 -0.64320798475E+01  0.82661045151E+01  0.34840895977E+02  0.00000000000E+00 0. -1.
</event>
<event>
 7    1  0.2584640E-011  0.5052886E+02  0.7816164E-02  0.1300439E+00
        -11   -1    0    0    0    0  0.00000000000E+00  0.00000000000E+00  0.45593999997E+02  0.45594000000E+02  0.51100000000E-03 0.  1.
         11   -1    0    0    0    0 -0.00000000000E+00 -0.00000000000E+00 -0.45593999997E+02  0.45594000000E+02  0.51100000000E-03 0. -1.
    9900012    2    1    2    0    0 -0.12509178782E+02  0.20928472141E+02 -0.32537448061E+02  0.50528855564E+02  0.29999986973E+02 0.  0.
        -12    1    1    2    0    0  0.12509178782E+02 -0.20928472141E+02  0.32537448061E+02  0.40659144436E+02  0.00000000000E+00 0.  1.
         11    1    3    3    0    0 -0.14462325195E+02  0.20658118597E+01 -0.79476045712E+01  0.16631020636E+02  0.51100000000E-03 0. -1.
        -11    1    3    3    0    0 -0.45541038062E+01  0.13721180214E+02 -0.11833876869E+02  0.18682914386E+02  0.51100000000E-03 0.  1.
         12    1    3    3    0    0  0.65072502197E+01  0.51414800677E+01 -0.12755966620E+02  0.15214920543E+02  0.00000000000E+00 0. -1.
</event>
<event>
 7    1  0.2584640E-011  0.5052887E+02  0.7816164E-02  0.1300439E+00
        -11   -1    0    0    0    0  0.00000000000E+00  0.00000000000E+00  0.45593999997E+02  0.45594000000E+02  0.51100000000E-03 0.  1.
         11   -1    0    0    0    0 -0.00000000000E+00 -0.00000000000E+00 -0.45593999997E+02  0.45594000000E+02  0.51100000000E-03 0. -1.
    9900012    2    1    2    0    0  0.39502257362E+02 -0.80144695061E+01  0.53390238209E+01  0.50528865312E+02  0.30000016604E+02 0.  0.
        -12    1    1    2    0    0 -0.39502257362E+02  0.80144695061E+01 -0.53390238209E+01  0.40659134688E+02  0.00000000000E+00 0.  1.
         11    1    3    3    0    0  0.10826589421E+02  0.16729349958E+01 -0.13954398462E+01  0.11043595547E+02  0.51100000000E-03 0. -1.
        -11    1    3    3    0    0  0.38041348792E+01  0.57233199059E+01  0.75573916412E+01  0.10214793273E+02  0.51100000000E-03 0.  1.
         12    1    3    3    0    0  0.24871533062E+02 -0.15410724408E+02 -0.82292797414E+00  0.29270476492E+02  0.00000000000E+00 0. -1.
</event>
<event>
 7    1  0.2584640E-011  0.5052886E+02  0.7816164E-02  0.1300439E+00
        -11   -1    0    0    0    0  0.00000000000E+00  0.00000000000E+00  0.45593999997E+02  0.45594000000E+02  0.51100000000E-03 0. -1.
         11   -1    0    0    0    0 -0.00000000000E+00 -0.00000000000E+00 -0.45593999997E+02  0.45594000000E+02  0.51100000000E-03 0.  1.
    9900012    2    1    2    0    0  0.27962344400E+02  0.29398174770E+02  0.26495384551E+01  0.50528862796E+02  0.30000008955E+02 0.  0.
        -12    1    1    2    0    0 -0.27962344400E+02 -0.29398174770E+02 -0.26495384551E+01  0.40659137204E+02  0.00000000000E+00 0.  1.
         11    1    3    3    0    0  0.19877718496E+02  0.22642446756E+02  0.48571828871E+01  0.30518786241E+02  0.51100000000E-03 0. -1.
        -11    1    3    3    0    0 -0.27161966928E+01  0.34908952104E+01  0.49574865488E+01  0.66438503134E+01  0.51100000000E-03 0.  1.
         12    1    3    3    0    0  0.10800822596E+02  0.32648328034E+01 -0.71651309809E+01  0.13366226242E+02  0.00000000000E+00 0. -1.
</event>
<event>
 7    1  0.2584640E-011  0.5052885E+02  0.7816164E-02  0.1300439E+00
        -11   -1    0    0    0    0  0.00000000000E+00  0.00000000000E+00  0.45593999997E+02  0.45594000000E+02  0.51100000000E-03 0.  1.
         11   -1    0    0    0    0 -0.00000000000E+00 -0.00000000000E+00 -0.45593999997E+02  0.45594000000E+02  0.51100000000E-03 0. -1.
    9900012    2    1    2    0    0 -0.21636512284E+02  0.15468662959E+01 -0.34389456311E+02  0.50528853864E+02  0.29999981805E+02 0.  0.
        -12    1    1    2    0    0  0.21636512284E+02 -0.15468662959E+01  0.34389456311E+02  0.40659146136E+02  0.00000000000E+00 0.  1.
         11    1    3    3    0    0 -0.13426992866E+02  0.71386940208E+01 -0.17586395046E+02  0.23249223228E+02  0.51100000000E-03 0. -1.
        -11    1    3    3    0    0 -0.47021952816E+01  0.10925366591E+00  0.35250879355E+01  0.58778246013E+01  0.51100000000E-03 0.  1.
         12    1    3    3    0    0 -0.35073241365E+01 -0.57010813908E+01 -0.20328149201E+02  0.21401806035E+02  0.00000000000E+00 0. -1.
</event>
<event>
 7    1  0.2584640E-011  0.5052883E+02  0.7816164E-02  0.1300439E+00
        -11   -1    0    0    0    0  0.00000000000E+00  0.00000000000E+00  0.45593999997E+02  0.45594000000E+02  0.51100000000E-03 0.  1.
         11   -1    0    0    0    0 -0.00000000000E+00 -0.00000000000E+00 -0.45593999997E+02  0.45594000000E+02  0.51100000000E-03 0. -1.
    9900012    2    1    2    0    0  0.12026132026E+02 -0.29565153330E+02 -0.25188130294E+02  0.50528830669E+02  0.29999911303E+02 0.  0.
        -12    1    1    2    0    0 -0.12026132026E+02  0.29565153330E+02  0.25188130294E+02  0.40659169331E+02  0.00000000000E+00 0.  1.
         11    1    3    3    0    0  0.16082917711E+01 -0.78387038604E+01  0.83082594495E+00  0.80450079331E+01  0.51100000000E-03 0. -1.
        -11    1    3    3    0    0  0.33966422089E+01  0.40525419764E+01 -0.14329245595E+00  0.52896888146E+01  0.51100000000E-03 0.  1.
         12    1    3    3    0    0  0.70211980460E+01 -0.25778991446E+02 -0.25875663783E+02  0.37194133922E+02  0.00000000000E+00 0. -1.
</event>
<event>
 7    1  0.2584640E-011  0.5052888E+02  0.7816164E-02  0.1300439E+00
        -11   -1    0    0    0    0  0.00000000000E+00  0.00000000000E+00  0.45593999997E+02  0.45594000000E+02  0.51100000000E-03 0.  1.
         11   -1    0    0    0    0 -0.00000000000E+00 -0.00000000000E+00 -0.45593999997E+02  0.45594000000E+02  0.51100000000E-03 0. -1.
    9900012    2    1    2    0    0  0.19648246446E+02  0.20156700281E+02 -0.29339698158E+02  0.50528879957E+02  0.30000061118E+02 0.  0.
        -12    1    1    2    0    0 -0.19648246446E+02 -0.20156700281E+02  0.29339698158E+02  0.40659120043E+02  0.00000000000E+00 0.  1.
         11    1    3    3    0    0 -0.73529090560E+00  0.31160009085E+00 -0.15732788311E+02  0.15753043376E+02  0.51100000000E-03 0. -1.
        -11    1    3    3    0    0 -0.33014908451E+00 -0.19230318537E+01 -0.70458621253E+00  0.20744859413E+01  0.51100000000E-03 0.  1.
        -12    1    3    3    0    0  0.20713686437E+02  0.21768132044E+02 -0.12902323635E+02  0.32701350640E+02  0.00000000000E+00 0.  1.
</event>
<event>
 7    1  0.2584640E-011  0.5052885E+02  0.7816164E-02  0.1300439E+00
        -11   -1    0    0    0    0  0.00000000000E+00  0.00000000000E+00  0.45593999997E+02  0.45594000000E+02  0.51100000000E-03 0.  1.
         11   -1    0    0    0    0 -0.00000000000E+00 -0.00000000000E+00 -0.45593999997E+02  0.45594000000E+02  0.51100000000E-03 0. -1.
    9900012    2    1    2    0    0  0.25628610722E+02  0.36940750644E+01 -0.31347966429E+02  0.50528845098E+02  0.29999955159E+02 0.  0.
        -12    1    1    2    0    0 -0.25628610722E+02 -0.36940750644E+01  0.31347966429E+02  0.40659154902E+02  0.00000000000E+00 0.  1.
         11    1    3    3    0    0  0.29250790248E+01 -0.76684045043E+01 -0.55977382655E+01  0.99345452283E+01  0.51100000000E-03 0. -1.
        -11    1    3    3    0    0  0.17814966483E+02  0.38692688017E+01 -0.64788176916E+01  0.19347334462E+02  0.51100000000E-03 0.  1.
        -12    1    3    3    0    0  0.48885652144E+01  0.74932107670E+01 -0.19271410472E+02  0.21246965408E+02  0.00000000000E+00 0.  1.
</event>
<event>
 7    1  0.2584640E-011  0.5052886E+02  0.7816164E-02  0.1300439E+00
        -11   -1    0    0    0    0  0.00000000000E+00  0.00000000000E+00  0.45593999997E+02  0.45594000000E+02  0.51100000000E-03 0.  1.
         11   -1    0    0    0    0 -0.00000000000E+00 -0.00000000000E+00 -0.45593999997E+02  0.45594000000E+02  0.51100000000E-03 0. -1.
    9900012    2    1    2    0    0  0.10529939131E+02 -0.19779988123E+02 -0.33926951380E+02  0.50528861075E+02  0.30000003722E+02 0.  0.
        -12    1    1    2    0    0 -0.10529939131E+02  0.19779988123E+02  0.33926951380E+02  0.40659138925E+02  0.00000000000E+00 0.  1.
         11    1    3    3    0    0  0.11010109871E+01 -0.82511342394E+01 -0.24972520313E+02  0.26323377680E+02  0.51100000000E-03 0. -1.
        -11    1    3    3    0    0 -0.15410726818E+01 -0.27741227801E+01 -0.96446720419E+01  0.10153342369E+02  0.51100000000E-03 0.  1.
         12    1    3    3    0    0  0.10970000826E+02 -0.87547311032E+01  0.69024097487E+00  0.14052141026E+02  0.00000000000E+00 0. -1.
</event>
<event>
 7    1  0.2584640E-011  0.5052886E+02  0.7816164E-02  0.1300439E+00
        -11   -1    0    0    0    0  0.00000000000E+00  0.00000000000E+00  0.45593999997E+02  0.45594000000E+02  0.51100000000E-03 0. -1.
         11   -1    0    0    0    0 -0.00000000000E+00 -0.00000000000E+00 -0.45593999997E+02  0.45594000000E+02  0.51100000000E-03 0.  1.
    9900012    2    1    2    0    0  0.18616356585E+01  0.23292208519E+02  0.33274203842E+02  0.50528864417E+02  0.30000013882E+02 0.  0.
        -12    1    1    2    0    0 -0.18616356585E+01 -0.23292208519E+02 -0.33274203842E+02  0.40659135583E+02  0.00000000000E+00 0.  1.
         11    1    3    3    0    0  0.33793957456E+01  0.29959197902E+01  0.64139671896E+01  0.78444137043E+01  0.51100000000E-03 0. -1.
        -11    1    3    3    0    0 -0.82927847924E+01  0.15707463089E+02  0.37301847391E+01  0.18149626849E+02  0.51100000000E-03 0.  1.
         12    1    3    3    0    0  0.67750247053E+01  0.45888256396E+01  0.23130051913E+02  0.24534823864E+02  0.00000000000E+00 0. -1.
</event>
<event>
 7    1  0.2584640E-011  0.5052888E+02  0.7816164E-02  0.1300439E+00
        -11   -1    0    0    0    0  0.00000000000E+00  0.00000000000E+00  0.45593999997E+02  0.45594000000E+02  0.51100000000E-03 0.  1.
         11   -1    0    0    0    0 -0.00000000000E+00 -0.00000000000E+00 -0.45593999997E+02  0.45594000000E+02  0.51100000000E-03 0. -1.
    9900012    2    1    2    0    0 -0.25065450946E+02  0.22929423830E+02 -0.22341184072E+02  0.50528882769E+02  0.30000069664E+02 0.  0.
        -12    1    1    2    0    0  0.25065450946E+02 -0.22929423830E+02  0.22341184072E+02  0.40659117231E+02  0.00000000000E+00 0.  1.
         11    1    3    3    0    0 -0.13927451912E+02  0.11143122491E+02 -0.12382334683E+02  0.21713251900E+02  0.51100000000E-03 0.  1.
        -11    1    3    3    0    0 -0.21110390594E+01  0.16008698998E+02 -0.97199826821E+01  0.18847095084E+02  0.51100000000E-03 0. -1.
        -12    1    3    3    0    0 -0.90269599749E+01 -0.42223976596E+01 -0.23886670684E+00  0.99685357845E+01  0.00000000000E+00 0.  1.
</event>
<event>
 7    1  0.2584640E-011  0.5052886E+02  0.7816164E-02  0.1300439E+00
        -11   -1    0    0    0    0  0.00000000000E+00  0.00000000000E+00  0.45593999997E+02  0.45594000000E+02  0.51100000000E-03 0.  1.
         11   -1    0    0    0    0 -0.00000000000E+00 -0.00000000000E+00 -0.45593999997E+02  0.45594000000E+02  0.51100000000E-03 0. -1.
    9900012    2    1    2    0    0 -0.12716022570E+02 -0.37484264436E+02 -0.92950716476E+01  0.50528859979E+02  0.30000000391E+02 0.  0.
        -12    1    1    2    0    0  0.12716022570E+02  0.37484264436E+02  0.92950716476E+01  0.40659140021E+02  0.00000000000E+00 0.  1.
         11    1    3    3    0    0  0.50228293343E+01 -0.13468280849E+02  0.38883724172E+01  0.14891032330E+02  0.51100000000E-03 0. -1.
        -11    1    3    3    0    0 -0.38303713192E+00  0.18706162509E+01 -0.11505668957E+01  0.22292884617E+01  0.51100000000E-03 0.  1.
        -12    1    3    3    0    0 -0.17355814773E+02 -0.25886599838E+02 -0.12032877169E+02  0.33408539187E+02  0.00000000000E+00 0.  1.
</event>
<event>
 7    1  0.2584640E-011  0.5052884E+02  0.7816164E-02  0.1300439E+00
        -11   -1    0    0    0    0  0.00000000000E+00  0.00000000000E+00  0.45593999997E+02  0.45594000000E+02  0.51100000000E-03 0. -1.
         11   -1    0    0    0    0 -0.00000000000E+00 -0.00000000000E+00 -0.45593999997E+02  0.45594000000E+02  0.51100000000E-03 0.  1.
    9900012    2    1    2    0    0 -0.40618010845E+00 -0.32722394726E+02  0.24129802742E+02  0.50528837696E+02  0.29999932661E+02 0.  0.
        -12    1    1    2    0    0  0.40618010845E+00  0.32722394726E+02 -0.24129802742E+02  0.40659162304E+02  0.00000000000E+00 0.  1.
         11    1    3    3    0    0  0.76094490283E+01 -0.12932097986E+02  0.20963266802E+02  0.25779864781E+02  0.51100000000E-03 0. -1.
        -11    1    3    3    0    0 -0.30122689359E+01 -0.10297287771E+01  0.42411447920E+01  0.53029628420E+01  0.51100000000E-03 0.  1.
        -12    1    3    3    0    0 -0.50033602009E+01 -0.18760567963E+02 -0.10746088524E+01  0.19446010073E+02  0.00000000000E+00 0.  1.
</event>
<event>
 7    1  0.2584640E-011  0.5052886E+02  0.7816164E-02  0.1300439E+00
        -11   -1    0    0    0    0  0.00000000000E+00  0.00000000000E+00  0.45593999997E+02  0.45594000000E+02  0.51100000000E-03 0.  1.
         11   -1    0    0    0    0 -0.00000000000E+00 -0.00000000000E+00 -0.45593999997E+02  0.45594000000E+02  0.51100000000E-03 0. -1.
    9900012    2    1    2    0    0  0.18435295728E+02  0.34124107586E+02 -0.12200457724E+02  0.50528855693E+02  0.29999987364E+02 0.  0.
        -12    1    1    2    0    0 -0.18435295728E+02 -0.34124107586E+02  0.12200457724E+02  0.40659144307E+02  0.00000000000E+00 0.  1.
         11    1    3    3    0    0  0.14013547157E+02  0.28494472611E+02 -0.15283009592E+02  0.35240386714E+02  0.51100000000E-03 0. -1.
        -11    1    3    3    0    0 -0.22310631522E+01  0.57090321653E+01 -0.24839441806E+01  0.66136729589E+01  0.51100000000E-03 0.  1.
         12    1    3    3    0    0  0.66528117225E+01 -0.79397189864E-01  0.55664960485E+01  0.86747960199E+01  0.00000000000E+00 0. -1.
</event>
<event>
 7    1  0.2584640E-011  0.5052885E+02  0.7816164E-02  0.1300439E+00
        -11   -1    0    0    0    0  0.00000000000E+00  0.00000000000E+00  0.45593999997E+02  0.45594000000E+02  0.51100000000E-03 0. -1.
         11   -1    0    0    0    0 -0.00000000000E+00 -0.00000000000E+00 -0.45593999997E+02  0.45594000000E+02  0.51100000000E-03 0.  1.
    9900012    2    1    2    0    0 -0.38534145969E+01 -0.39108985233E+02  0.10430963103E+02  0.50528849477E+02  0.29999968470E+02 0.  0.
        -12    1    1    2    0    0  0.38534145969E+01  0.39108985233E+02 -0.10430963103E+02  0.40659150523E+02  0.00000000000E+00 0.  1.
         11    1    3    3    0    0 -0.13165420323E+02 -0.21752899039E+02  0.11366046656E+02  0.27851461824E+02  0.51100000000E-03 0. -1.
        -11    1    3    3    0    0  0.54156963175E+01 -0.17901098291E+02 -0.39766681947E+00  0.18706609147E+02  0.51100000000E-03 0.  1.
        -12    1    3    3    0    0  0.38963094088E+01  0.54501209668E+00 -0.53741673438E+00  0.39707785057E+01  0.00000000000E+00 0.  1.
</event>
<event>
 7    1  0.2584640E-011  0.5052886E+02  0.7816164E-02  0.1300439E+00
        -11   -1    0    0    0    0  0.00000000000E+00  0.00000000000E+00  0.45593999997E+02  0.45594000000E+02  0.51100000000E-03 0. -1.
         11   -1    0    0    0    0 -0.00000000000E+00 -0.00000000000E+00 -0.45593999997E+02  0.45594000000E+02  0.51100000000E-03 0.  1.
    9900012    2    1    2    0    0 -0.27885398262E+02  0.20263782258E+02 -0.21562688782E+02  0.50528857669E+02  0.29999993370E+02 0.  0.
        -12    1    1    2    0    0  0.27885398262E+02 -0.20263782258E+02  0.21562688782E+02  0.40659142331E+02  0.00000000000E+00 0.  1.
         11    1    3    3    0    0 -0.17769536767E+02  0.22855330189E+02 -0.12087188171E+02  0.31372323361E+02  0.51100000000E-03 0. -1.
        -11    1    3    3    0    0  0.34255505135E+00  0.40700648254E+01 -0.35591058627E+01  0.54175646234E+01  0.51100000000E-03 0.  1.
        -12    1    3    3    0    0 -0.10458416546E+02 -0.66616127564E+01 -0.59163947484E+01  0.13738969684E+02  0.00000000000E+00 0.  1.
</event>
<event>
 7    1  0.2584640E-011  0.5052885E+02  0.7816164E-02  0.1300439E+00
        -11   -1    0    0    0    0  0.00000000000E+00  0.00000000000E+00  0.45593999997E+02  0.45594000000E+02  0.51100000000E-03 0.  1.
         11   -1    0    0    0    0 -0.00000000000E+00 -0.00000000000E+00 -0.45593999997E+02  0.45594000000E+02  0.51100000000E-03 0. -1.
    9900012    2    1    2    0    0 -0.52457594740E+01 -0.24008760325E+02 -0.32391783923E+02  0.50528853052E+02  0.29999979337E+02 0.  0.
        -12    1    1    2    0    0  0.52457594740E+01  0.24008760325E+02  0.32391783923E+02  0.40659146948E+02  0.00000000000E+00 0.  1.
         11    1    3    3    0    0  0.63727947177E+01 -0.96388991385E+01 -0.17749572628E+02  0.21179429120E+02  0.51100000000E-03 0. -1.
        -11    1    3    3    0    0 -0.64152248728E+01 -0.57954103831E+01 -0.16976988747E+02  0.19051510146E+02  0.51100000000E-03 0.  1.
        -12    1    3    3    0    0 -0.52033293188E+01 -0.85744508038E+01  0.23347774520E+01  0.10297913786E+02  0.00000000000E+00 0.  1.
</event>
<event>
 7    1  0.2584640E-011  0.5052887E+02  0.7816164E-02  0.1300439E+00
        -11   -1    0    0    0    0  0.00000000000E+00  0.00000000000E+00  0.45593999997E+02  0.45594000000E+02  0.51100000000E-03 0.  1.
         11   -1    0    0    0    0 -0.00000000000E+00 -0.00000000000E+00 -0.45593999997E+02  0.45594000000E+02  0.51100000000E-03 0. -1.
    9900012    2    1    2    0    0 -0.23898167870E+01 -0.40471611388E+02  0.30826409747E+01  0.50528865381E+02  0.30000016812E+02 0.  0.
        -12    1    1    2    0    0  0.23898167870E+01  0.40471611388E+02 -0.30826409747E+01  0.40659134619E+02  0.00000000000E+00 0.  1.
         11    1    3    3    0    0  0.90330992291E+01 -0.31540855410E+01  0.32142128238E+01  0.10093379098E+02  0.51100000000E-03 0.  1.
        -11    1    3    3    0    0 -0.33004905466E+01 -0.14626909930E+01 -0.65188027909E+00  0.36684671116E+01  0.51100000000E-03 0. -1.
        -12    1    3    3    0    0 -0.81224254695E+01 -0.35854834854E+02  0.52030842989E+00  0.36767019171E+02  0.00000000000E+00 0.  1.
</event>
<event>
 7    1  0.2584640E-011  0.5052885E+02  0.7816164E-02  0.1300439E+00
        -11   -1    0    0    0    0  0.00000000000E+00  0.00000000000E+00  0.45593999997E+02  0.45594000000E+02  0.51100000000E-03 0.  1.
         11   -1    0    0    0    0 -0.00000000000E+00 -0.00000000000E+00 -0.45593999997E+02  0.45594000000E+02  0.51100000000E-03 0. -1.
    9900012    2    1    2    0    0 -0.32690063400E+02  0.23373951440E+02  0.61793402551E+01  0.50528854694E+02  0.29999984327E+02 0.  0.
        -12    1    1    2    0    0  0.32690063400E+02 -0.23373951440E+02 -0.61793402551E+01  0.40659145306E+02  0.00000000000E+00 0.  1.
         11    1    3    3    0    0 -0.18532834591E+02  0.26585553856E+02 -0.22031739377E+01  0.32482481548E+02  0.51100000000E-03 0. -1.
        -11    1    3    3    0    0 -0.19337376254E+01  0.42218894480E+00  0.41709024175E+01  0.46167100782E+01  0.51100000000E-03 0.  1.
        -12    1    3    3    0    0 -0.12223491184E+02 -0.36337913610E+01  0.42116117753E+01  0.13429663068E+02  0.00000000000E+00 0.  1.
</event>
<event>
 7    1  0.2584640E-011  0.5052885E+02  0.7816164E-02  0.1300439E+00
        -11   -1    0    0    0    0  0.00000000000E+00  0.00000000000E+00  0.45593999997E+02  0.45594000000E+02  0.51100000000E-03 0. -1.
         11   -1    0    0    0    0 -0.00000000000E+00 -0.00000000000E+00 -0.45593999997E+02  0.45594000000E+02  0.51100000000E-03 0.  1.
    9900012    2    1    2    0    0 -0.22960978287E+02 -0.30172266926E+02 -0.14683117787E+02  0.50528853879E+02  0.29999981851E+02 0.  0.
        -12    1    1    2    0    0  0.22960978287E+02  0.30172266926E+02  0.14683117787E+02  0.40659146121E+02  0.00000000000E+00 0.  1.
         11    1    3    3    0    0 -0.14513478834E+02 -0.15137519104E+02  0.30194045085E+01  0.21187315931E+02  0.51100000000E-03 0. -1.
        -11    1    3    3    0    0 -0.54698355277E+01  0.20946075526E+01 -0.30462564999E+01  0.66019815528E+01  0.51100000000E-03 0.  1.
         12    1    3    3    0    0 -0.29776639248E+01 -0.17129355374E+02 -0.14656265796E+02  0.22739556396E+02  0.00000000000E+00 0. -1.
</event>
<event>
 7    1  0.2584640E-011  0.5052887E+02  0.7816164E-02  0.1300439E+00
        -11   -1    0    0    0    0  0.00000000000E+00  0.00000000000E+00  0.45593999997E+02  0.45594000000E+02  0.51100000000E-03 0. -1.
         11   -1    0    0    0    0 -0.00000000000E+00 -0.00000000000E+00 -0.45593999997E+02  0.45594000000E+02  0.51100000000E-03 0.  1.
    9900012    2    1    2    0    0  0.37661133425E+02 -0.64148572510E+01  0.13915944096E+02  0.50528869850E+02  0.30000030397E+02 0.  0.
        -12    1    1    2    0    0 -0.37661133425E+02  0.64148572510E+01 -0.13915944096E+02  0.40659130150E+02  0.00000000000E+00 0.  1.
         11    1    3    3    0    0  0.24469651884E+02  0.31910609491E+01  0.11273055118E+02  0.27129845286E+02  0.51100000000E-03 0. -1.
        -11    1    3    3    0    0  0.13620844621E+02 -0.11849362157E+02  0.62709861856E+01  0.19111778037E+02  0.51100000000E-03 0.  1.
        -12    1    3    3    0    0 -0.42936307961E+00  0.22434439572E+01 -0.36280972071E+01  0.42872465275E+01  0.00000000000E+00 0.  1.
</event>
<event>
 7    1  0.2584640E-011  0.5052886E+02  0.7816164E-02  0.1300439E+00
        -11   -1    0    0    0    0  0.00000000000E+00  0.00000000000E+00  0.45593999997E+02  0.45594000000E+02  0.51100000000E-03 0.  1.
         11   -1    0    0    0    0 -0.00000000000E+00 -0.00000000000E+00 -0.45593999997E+02  0.45594000000E+02  0.51100000000E-03 0. -1.
    9900012    2    1    2    0    0  0.97705376024E+01 -0.12266520036E+01 -0.39448673232E+02  0.50528857117E+02  0.29999991693E+02 0.  0.
        -12    1    1    2    0    0 -0.97705376024E+01  0.12266520036E+01  0.39448673232E+02  0.40659142883E+02  0.00000000000E+00 0.  1.
         11    1    3    3    0    0  0.10301814664E+02 -0.26105104752E+01 -0.27064159657E+02  0.29075950346E+02  0.51100000000E-03 0. -1.
        -11    1    3    3    0    0 -0.12211961056E+01 -0.55248733223E+01 -0.13296336522E+02  0.14450194127E+02  0.51100000000E-03 0.  1.
         12    1    3    3    0    0  0.68991904431E+00  0.69087317939E+01  0.91182294640E+00  0.70027126439E+01  0.00000000000E+00 0. -1.
</event>
<event>
 7    1  0.2584640E-011  0.5052886E+02  0.7816164E-02  0.1300439E+00
        -11   -1    0    0    0    0  0.00000000000E+00  0.00000000000E+00  0.45593999997E+02  0.45594000000E+02  0.51100000000E-03 0.  1.
         11   -1    0    0    0    0 -0.00000000000E+00 -0.00000000000E+00 -0.45593999997E+02  0.45594000000E+02  0.51100000000E-03 0. -1.
    9900012    2    1    2    0    0  0.91409399234E+00  0.37891849681E+02 -0.14715228147E+02  0.50528858598E+02  0.29999996196E+02 0.  0.
        -12    1    1    2    0    0 -0.91409399234E+00 -0.37891849681E+02  0.14715228147E+02  0.40659141402E+02  0.00000000000E+00 0.  1.
         11    1    3    3    0    0 -0.49975008221E+01  0.17518753939E+02  0.17645277069E+01  0.18302877160E+02  0.51100000000E-03 0. -1.
        -11    1    3    3    0    0 -0.13324988675E+01  0.12768047690E+01 -0.10897589699E+02  0.11052748308E+02  0.51100000000E-03 0.  1.
         12    1    3    3    0    0  0.72440936820E+01  0.19096290974E+02 -0.55821661546E+01  0.21173233131E+02  0.00000000000E+00 0. -1.
</event>
<event>
 7    1  0.2584640E-011  0.5052880E+02  0.7816164E-02  0.1300439E+00
        -11   -1    0    0    0    0  0.00000000000E+00  0.00000000000E+00  0.45593999997E+02  0.45594000000E+02  0.51100000000E-03 0.  1.
         11   -1    0    0    0    0 -0.00000000000E+00 -0.00000000000E+00 -0.45593999997E+02  0.45594000000E+02  0.51100000000E-03 0. -1.
    9900012    2    1    2    0    0 -0.24497800664E+02 -0.72592937192E+01 -0.31628007955E+02  0.50528800919E+02  0.29999820874E+02 0.  0.
        -12    1    1    2    0    0  0.24497800664E+02  0.72592937192E+01  0.31628007955E+02  0.40659199081E+02  0.00000000000E+00 0.  1.
         11    1    3    3    0    0 -0.87793342358E+01  0.30144817037E+01  0.15083445694E+01  0.94041965721E+01  0.51100000000E-03 0. -1.
        -11    1    3    3    0    0 -0.17878152873E+01 -0.63102398610E+01 -0.21191697171E+01  0.68924807694E+01  0.51100000000E-03 0.  1.
        -12    1    3    3    0    0 -0.13930651141E+02 -0.39635355618E+01 -0.31017182807E+02  0.34232123578E+02  0.00000000000E+00 0.  1.
</event>
<event>
 7    1  0.3269986E-011  0.5052888E+02  0.7816164E-02  0.1300439E+00
        -11   -1    0    0    0    0  0.00000000000E+00  0.00000000000E+00  0.45593999997E+02  0.45594000000E+02  0.51100000000E-03 0. -1.
         11   -1    0    0    0    0 -0.00000000000E+00 -0.00000000000E+00 -0.45593999997E+02  0.45594000000E+02  0.51100000000E-03 0.  1.
    9900012    2    1    2    0    0  0.10436353416E+02  0.14066019826E+02  0.36693233152E+02  0.50528883611E+02  0.30000072225E+02 0.  0.
        -12    1    1    2    0    0 -0.10436353416E+02 -0.14066019826E+02 -0.36693233152E+02  0.40659116389E+02  0.00000000000E+00 0.  1.
         11    1    3    3    0    0  0.40436382811E+01  0.63698235540E+01  0.16899061655E+02  0.18506862180E+02  0.51100000000E-03 0. -1.
        -11    1    3    3    0    0  0.15033778753E+02  0.52666910915E+01  0.10372307186E+02  0.19008874119E+02  0.51100000000E-03 0.  1.
        -12    1    3    3    0    0 -0.86410636184E+01  0.24295051804E+01  0.94218643108E+01  0.13013147312E+02  0.00000000000E+00 0.  1.
</event>
<event>
 7    1  0.2584640E-011  0.5052885E+02  0.7816164E-02  0.1300439E+00
        -11   -1    0    0    0    0  0.00000000000E+00  0.00000000000E+00  0.45593999997E+02  0.45594000000E+02  0.51100000000E-03 0.  1.
         11   -1    0    0    0    0 -0.00000000000E+00 -0.00000000000E+00 -0.45593999997E+02  0.45594000000E+02  0.51100000000E-03 0. -1.
    9900012    2    1    2    0    0 -0.26343536264E-01 -0.33150587139E+02 -0.23541540462E+02  0.50528852826E+02  0.29999978649E+02 0.  0.
        -12    1    1    2    0    0  0.26343536264E-01  0.33150587139E+02  0.23541540462E+02  0.40659147174E+02  0.00000000000E+00 0.  1.
         11    1    3    3    0    0 -0.37873747796E+01  0.67700944238E+00  0.13741164645E+01  0.40854309229E+01  0.51100000000E-03 0.  1.
        -11    1    3    3    0    0  0.59000704181E+01 -0.80620401770E+00 -0.24063549736E+01  0.64227206367E+01  0.51100000000E-03 0. -1.
         12    1    3    3    0    0 -0.21390391748E+01 -0.33021392563E+02 -0.22509301953E+02  0.40020701266E+02  0.00000000000E+00 0. -1.
</event>
<event>
 7    1  0.2584640E-011  0.5052886E+02  0.7816164E-02  0.1300439E+00
        -11   -1    0    0    0    0  0.00000000000E+00  0.00000000000E+00  0.45593999997E+02  0.45594000000E+02  0.51100000000E-03 0.  1.
         11   -1    0    0    0    0 -0.00000000000E+00 -0.00000000000E+00 -0.45593999997E+02  0.45594000000E+02  0.51100000000E-03 0. -1.
    9900012    2    1    2    0    0  0.26585386265E+02 -0.21631376356E+02 -0.21873878538E+02  0.50528858737E+02  0.29999996617E+02 0.  0.
        -12    1    1    2    0    0 -0.26585386265E+02  0.21631376356E+02  0.21873878538E+02  0.40659141263E+02  0.00000000000E+00 0.  1.
         11    1    3    3    0    0  0.16541258910E+02 -0.67787573914E+01 -0.12866382507E+02  0.22025180980E+02  0.51100000000E-03 0. -1.
        -11    1    3    3    0    0  0.84066254531E+01 -0.34547090908E+01 -0.13389731156E+02  0.16183054938E+02  0.51100000000E-03 0.  1.
        -12    1    3    3    0    0  0.16375019020E+01 -0.11397909874E+02  0.43822351255E+01  0.12320622820E+02  0.00000000000E+00 0.  1.
</event>
<event>
 7    1  0.2584640E-011  0.5052887E+02  0.7816164E-02  0.1300439E+00
        -11   -1    0    0    0    0  0.00000000000E+00  0.00000000000E+00  0.45593999997E+02  0.45594000000E+02  0.51100000000E-03 0.  1.
         11   -1    0    0    0    0 -0.00000000000E+00 -0.00000000000E+00 -0.45593999997E+02  0.45594000000E+02  0.51100000000E-03 0. -1.
    9900012    2    1    2    0    0  0.29524820914E+02 -0.22840102855E+02 -0.16117688875E+02  0.50528865196E+02  0.30000016248E+02 0.  0.
        -12    1    1    2    0    0 -0.29524820914E+02  0.22840102855E+02  0.16117688875E+02  0.40659134804E+02  0.00000000000E+00 0.  1.
         11    1    3    3    0    0  0.23526356710E+02 -0.15296349476E+02 -0.80496220740E+01  0.29193564070E+02  0.51100000000E-03 0. -1.
        -11    1    3    3    0    0 -0.11577787607E+01 -0.10638455210E+02 -0.89122416772E+00  0.10738317452E+02  0.51100000000E-03 0.  1.
        -12    1    3    3    0    0  0.71562429644E+01  0.30947018318E+01 -0.71768426329E+01  0.10596983673E+02  0.00000000000E+00 0.  1.
</event>
<event>
 7    1  0.2584640E-011  0.5052886E+02  0.7816164E-02  0.1300439E+00
        -11   -1    0    0    0    0  0.00000000000E+00  0.00000000000E+00  0.45593999997E+02  0.45594000000E+02  0.51100000000E-03 0.  1.
         11   -1    0    0    0    0 -0.00000000000E+00 -0.00000000000E+00 -0.45593999997E+02  0.45594000000E+02  0.51100000000E-03 0. -1.
    9900012    2    1    2    0    0 -0.42791679707E+01 -0.33130216536E+02  0.23178505014E+02  0.50528860548E+02  0.30000002122E+02 0.  0.
        -12    1    1    2    0    0  0.42791679707E+01  0.33130216536E+02 -0.23178505014E+02  0.40659139452E+02  0.00000000000E+00 0.  1.
         11    1    3    3    0    0  0.91442097457E+01 -0.67344063760E+01  0.22563346220E+01  0.11578421624E+02  0.51100000000E-03 0. -1.
        -11    1    3    3    0    0  0.55235818942E+00  0.15294751235E+01  0.10942810528E+01  0.19600625007E+01  0.51100000000E-03 0.  1.
        -12    1    3    3    0    0 -0.13975735906E+02 -0.27925285284E+02  0.19827889339E+02  0.36990376424E+02  0.00000000000E+00 0.  1.
</event>
<event>
 7    1  0.2584640E-011  0.5052886E+02  0.7816164E-02  0.1300439E+00
        -11   -1    0    0    0    0  0.00000000000E+00  0.00000000000E+00  0.45593999997E+02  0.45594000000E+02  0.51100000000E-03 0.  1.
         11   -1    0    0    0    0 -0.00000000000E+00 -0.00000000000E+00 -0.45593999997E+02  0.45594000000E+02  0.51100000000E-03 0. -1.
    9900012    2    1    2    0    0  0.31805466136E+02 -0.87760419779E+01 -0.23760444094E+02  0.50528864587E+02  0.30000014399E+02 0.  0.
        -12    1    1    2    0    0 -0.31805466136E+02  0.87760419779E+01  0.23760444094E+02  0.40659135413E+02  0.00000000000E+00 0.  1.
         11    1    3    3    0    0  0.24765986109E+02 -0.51459537783E+01 -0.76290488112E+01  0.26420395422E+02  0.51100000000E-03 0. -1.
        -11    1    3    3    0    0  0.17979597499E+01  0.61621151538E+01 -0.35854731485E+01  0.73525465242E+01  0.51100000000E-03 0.  1.
        -12    1    3    3    0    0  0.52415202778E+01 -0.97922033534E+01 -0.12545922135E+02  0.16755922641E+02  0.00000000000E+00 0.  1.
</event>
<event>
 7    1  0.2584640E-011  0.5052886E+02  0.7816164E-02  0.1300439E+00
        -11   -1    0    0    0    0  0.00000000000E+00  0.00000000000E+00  0.45593999997E+02  0.45594000000E+02  0.51100000000E-03 0. -1.
         11   -1    0    0    0    0 -0.00000000000E+00 -0.00000000000E+00 -0.45593999997E+02  0.45594000000E+02  0.51100000000E-03 0.  1.
    9900012    2    1    2    0    0 -0.16517827320E+02  0.26671379951E+02  0.25864341517E+02  0.50528864619E+02  0.30000014495E+02 0.  0.
        -12    1    1    2    0    0  0.16517827320E+02 -0.26671379951E+02 -0.25864341517E+02  0.40659135381E+02  0.00000000000E+00 0.  1.
         11    1    3    3    0    0 -0.46177381005E+01  0.12364895771E+02  0.16733823857E+02  0.21312789909E+02  0.51100000000E-03 0. -1.
        -11    1    3    3    0    0 -0.13936444939E+02  0.18421604162E+02  0.83299166878E+01  0.24555396754E+02  0.51100000000E-03 0.  1.
        -12    1    3    3    0    0  0.20363557194E+01 -0.41151199824E+01  0.80060097208E+00  0.46606779552E+01  0.00000000000E+00 0.  1.
</event>
<event>
 7    1  0.2584640E-011  0.5052886E+02  0.7816164E-02  0.1300439E+00
        -11   -1    0    0    0    0  0.00000000000E+00  0.00000000000E+00  0.45593999997E+02  0.45594000000E+02  0.51100000000E-03 0.  1.
         11   -1    0    0    0    0 -0.00000000000E+00 -0.00000000000E+00 -0.45593999997E+02  0.45594000000E+02  0.51100000000E-03 0. -1.
    9900012    2    1    2    0    0  0.31349405761E+02 -0.32624971059E+01 -0.25685337744E+02  0.50528859528E+02  0.29999999020E+02 0.  0.
        -12    1    1    2    0    0 -0.31349405761E+02  0.32624971059E+01  0.25685337744E+02  0.40659140472E+02  0.00000000000E+00 0.  1.
         11    1    3    3    0    0  0.92200431256E+01 -0.81429497820E+01 -0.21096871411E+02  0.24421195916E+02  0.51100000000E-03 0. -1.
        -11    1    3    3    0    0  0.32280463380E+00  0.36326784828E+01  0.49846204109E+00  0.36808994089E+01  0.51100000000E-03 0.  1.
        -12    1    3    3    0    0  0.21806558001E+02  0.12477741932E+01 -0.50869283739E+01  0.22426764202E+02  0.00000000000E+00 0.  1.
</event>
<event>
 7    1  0.2584640E-011  0.5052889E+02  0.7816164E-02  0.1300439E+00
        -11   -1    0    0    0    0  0.00000000000E+00  0.00000000000E+00  0.45593999997E+02  0.45594000000E+02  0.51100000000E-03 0.  1.
         11   -1    0    0    0    0 -0.00000000000E+00 -0.00000000000E+00 -0.45593999997E+02  0.45594000000E+02  0.51100000000E-03 0. -1.
    9900012    2    1    2    0    0 -0.10224315353E+02  0.36003870836E+02 -0.15885459022E+02  0.50528890959E+02  0.30000094560E+02 0.  0.
        -12    1    1    2    0    0  0.10224315353E+02 -0.36003870836E+02  0.15885459022E+02  0.40659109041E+02  0.00000000000E+00 0.  1.
         11    1    3    3    0    0 -0.66593138543E+01 -0.90588243598E+00 -0.45486828789E+01  0.81152695699E+01  0.51100000000E-03 0. -1.
        -11    1    3    3    0    0 -0.96198146606E+01  0.23795519618E+02 -0.32830342157E+01  0.25875585055E+02  0.51100000000E-03 0.  1.
         12    1    3    3    0    0  0.60548131622E+01  0.13114233654E+02 -0.80537419276E+01  0.16538036335E+02  0.00000000000E+00 0. -1.
</event>
<event>
 7    1  0.2584640E-011  0.5052886E+02  0.7816164E-02  0.1300439E+00
        -11   -1    0    0    0    0  0.00000000000E+00  0.00000000000E+00  0.45593999997E+02  0.45594000000E+02  0.51100000000E-03 0.  1.
         11   -1    0    0    0    0 -0.00000000000E+00 -0.00000000000E+00 -0.45593999997E+02  0.45594000000E+02  0.51100000000E-03 0. -1.
    9900012    2    1    2    0    0  0.14969104684E+00 -0.23902104550E+02 -0.32891222595E+02  0.50528861628E+02  0.30000005404E+02 0.  0.
        -12    1    1    2    0    0 -0.14969104684E+00  0.23902104550E+02  0.32891222595E+02  0.40659138372E+02  0.00000000000E+00 0.  1.
         11    1    3    3    0    0 -0.40064867291E+01 -0.30152508128E+01 -0.20287815848E+01  0.54092169816E+01  0.51100000000E-03 0. -1.
        -11    1    3    3    0    0  0.64191316819E+01 -0.12759389512E+02 -0.12601338385E+01  0.14338591626E+02  0.51100000000E-03 0.  1.
         12    1    3    3    0    0 -0.22629539060E+01 -0.81274642250E+01 -0.29602307172E+02  0.30781053020E+02  0.00000000000E+00 0. -1.
</event>
<event>
 7    1  0.2584640E-011  0.5052886E+02  0.7816164E-02  0.1300439E+00
        -11   -1    0    0    0    0  0.00000000000E+00  0.00000000000E+00  0.45593999997E+02  0.45594000000E+02  0.51100000000E-03 0. -1.
         11   -1    0    0    0    0 -0.00000000000E+00 -0.00000000000E+00 -0.45593999997E+02  0.45594000000E+02  0.51100000000E-03 0.  1.
    9900012    2    1    2    0    0 -0.82957930662E+01 -0.19980586438E+02  0.34425601075E+02  0.50528855563E+02  0.29999986969E+02 0.  0.
        -12    1    1    2    0    0  0.82957930662E+01  0.19980586438E+02 -0.34425601075E+02  0.40659144437E+02  0.00000000000E+00 0.  1.
         11    1    3    3    0    0  0.74437088929E+00 -0.10126271075E+02  0.66920705906E+01  0.12160561787E+02  0.51100000000E-03 0. -1.
        -11    1    3    3    0    0 -0.42971155829E+00 -0.34289137613E+01 -0.37515747483E+01  0.51006288788E+01  0.51100000000E-03 0.  1.
         12    1    3    3    0    0 -0.86104523972E+01 -0.64254016010E+01  0.31485105233E+02  0.33267664897E+02  0.00000000000E+00 0. -1.
</event>
<event>
 7    1  0.2584640E-011  0.5052886E+02  0.7816164E-02  0.1300439E+00
        -11   -1    0    0    0    0  0.00000000000E+00  0.00000000000E+00  0.45593999997E+02  0.45594000000E+02  0.51100000000E-03 0. -1.
         11   -1    0    0    0    0 -0.00000000000E+00 -0.00000000000E+00 -0.45593999997E+02  0.45594000000E+02  0.51100000000E-03 0.  1.
    9900012    2    1    2    0    0 -0.19235877229E+02 -0.58739560046E+01  0.35336148501E+02  0.50528859296E+02  0.29999998316E+02 0.  0.
        -12    1    1    2    0    0  0.19235877229E+02  0.58739560046E+01 -0.35336148501E+02  0.40659140704E+02  0.00000000000E+00 0.  1.
         11    1    3    3    0    0 -0.70354824008E+01  0.50265497237E+01  0.29429929058E+02  0.30673847809E+02  0.51100000000E-03 0. -1.
        -11    1    3    3    0    0 -0.51565967792E+00 -0.61201106755E+01  0.32694984066E+01  0.69578214748E+01  0.51100000000E-03 0.  1.
        -12    1    3    3    0    0 -0.11684735150E+02 -0.47803950528E+01  0.26367210361E+01  0.12897190012E+02  0.00000000000E+00 0.  1.
</event>
<event>
 7    1  0.2584640E-011  0.5052888E+02  0.7816164E-02  0.1300439E+00
        -11   -1    0    0    0    0  0.00000000000E+00  0.00000000000E+00  0.45593999997E+02  0.45594000000E+02  0.51100000000E-03 0. -1.
         11   -1    0    0    0    0 -0.00000000000E+00 -0.00000000000E+00 -0.45593999997E+02  0.45594000000E+02  0.51100000000E-03 0.  1.
    9900012    2    1    2    0    0  0.17736453059E+02 -0.31939535806E+02  0.17845116253E+02  0.50528881850E+02  0.30000066872E+02 0.  0.
        -12    1    1    2    0    0 -0.17736453059E+02  0.31939535806E+02 -0.17845116253E+02  0.40659118150E+02  0.00000000000E+00 0.  1.
         11    1    3    3    0    0  0.38631454523E+01  0.35352266274E+01  0.38470382439E+01  0.64978014439E+01  0.51100000000E-03 0. -1.
        -11    1    3    3    0    0  0.64891562199E+00 -0.86757296766E+01 -0.35263783052E+01  0.93874768239E+01  0.51100000000E-03 0.  1.
         12    1    3    3    0    0  0.13224391985E+02 -0.26799032757E+02  0.17524456315E+02  0.34643603583E+02  0.00000000000E+00 0. -1.
</event>
<event>
 7    1  0.2584640E-011  0.5052886E+02  0.7816164E-02  0.1300439E+00
        -11   -1    0    0    0    0  0.00000000000E+00  0.00000000000E+00  0.45593999997E+02  0.45594000000E+02  0.51100000000E-03 0.  1.
         11   -1    0    0    0    0 -0.00000000000E+00 -0.00000000000E+00 -0.45593999997E+02  0.45594000000E+02  0.51100000000E-03 0. -1.
    9900012    2    1    2    0    0  0.14563560936E+02 -0.37629682679E+02 -0.50075167621E+01  0.50528861424E+02  0.30000004783E+02 0.  0.
        -12    1    1    2    0    0 -0.14563560936E+02  0.37629682679E+02  0.50075167621E+01  0.40659138576E+02  0.00000000000E+00 0.  1.
         11    1    3    3    0    0  0.63394101341E+01 -0.14976615754E+02 -0.96313035996E+01  0.18901035675E+02  0.51100000000E-03 0. -1.
        -11    1    3    3    0    0 -0.13276038866E+01  0.20558053931E+01 -0.31789066971E+01  0.40117721701E+01  0.51100000000E-03 0.  1.
        -12    1    3    3    0    0  0.95517546887E+01 -0.24708872318E+02  0.78026935346E+01  0.27616053579E+02  0.00000000000E+00 0.  1.
</event>
<event>
 7    1  0.2584640E-011  0.5052885E+02  0.7816164E-02  0.1300439E+00
        -11   -1    0    0    0    0  0.00000000000E+00  0.00000000000E+00  0.45593999997E+02  0.45594000000E+02  0.51100000000E-03 0. -1.
         11   -1    0    0    0    0 -0.00000000000E+00 -0.00000000000E+00 -0.45593999997E+02  0.45594000000E+02  0.51100000000E-03 0.  1.
    9900012    2    1    2    0    0  0.24877042957E+02 -0.32024439426E+02  0.29553707187E+01  0.50528853392E+02  0.29999980369E+02 0.  0.
        -12    1    1    2    0    0 -0.24877042957E+02  0.32024439426E+02 -0.29553707187E+01  0.40659146608E+02  0.00000000000E+00 0.  1.
         11    1    3    3    0    0  0.15087827116E+02 -0.26494656901E+01  0.51362322511E+01  0.16156827583E+02  0.51100000000E-03 0. -1.
        -11    1    3    3    0    0  0.21498597701E+00 -0.65178214133E+01  0.53894425317E+01  0.84601599282E+01  0.51100000000E-03 0.  1.
         12    1    3    3    0    0  0.95742298631E+01 -0.22857152323E+02 -0.75703040641E+01  0.25911865881E+02  0.00000000000E+00 0. -1.
</event>
<event>
 7    1  0.2584640E-011  0.5052886E+02  0.7816164E-02  0.1300439E+00
        -11   -1    0    0    0    0  0.00000000000E+00  0.00000000000E+00  0.45593999997E+02  0.45594000000E+02  0.51100000000E-03 0.  1.
         11   -1    0    0    0    0 -0.00000000000E+00 -0.00000000000E+00 -0.45593999997E+02  0.45594000000E+02  0.51100000000E-03 0. -1.
    9900012    2    1    2    0    0  0.31492169223E+02 -0.75011578342E+01 -0.24599625889E+02  0.50528859760E+02  0.29999999726E+02 0.  0.
        -12    1    1    2    0    0 -0.31492169223E+02  0.75011578342E+01  0.24599625889E+02  0.40659140240E+02  0.00000000000E+00 0.  1.
         11    1    3    3    0    0  0.18468315592E+02 -0.11643866921E+02 -0.13466135043E+02  0.25651415379E+02  0.51100000000E-03 0. -1.
        -11    1    3    3    0    0  0.15504719060E+02 -0.10287987151E+01 -0.46471948406E+01  0.16218851996E+02  0.51100000000E-03 0.  1.
         12    1    3    3    0    0 -0.24808654294E+01  0.51715078016E+01 -0.64862960049E+01  0.86585923847E+01  0.00000000000E+00 0. -1.
</event>
<event>
 7    1  0.2715763E-011  0.5052886E+02  0.7816164E-02  0.1300439E+00
        -11   -1    0    0    0    0  0.00000000000E+00  0.00000000000E+00  0.45593999997E+02  0.45594000000E+02  0.51100000000E-03 0.  1.
         11   -1    0    0    0    0 -0.00000000000E+00 -0.00000000000E+00 -0.45593999997E+02  0.45594000000E+02  0.51100000000E-03 0. -1.
    9900012    2    1    2    0    0  0.47144479064E+01  0.40376040248E+02  0.84567006233E+00  0.50528858310E+02  0.29999995318E+02 0.  0.
        -12    1    1    2    0    0 -0.47144479064E+01 -0.40376040248E+02 -0.84567006233E+00  0.40659141690E+02  0.00000000000E+00 0.  1.
         11    1    3    3    0    0  0.51737997783E+01  0.19119271425E+02 -0.12684252809E+01  0.19847509842E+02  0.51100000000E-03 0. -1.
        -11    1    3    3    0    0  0.10458896516E+02  0.67502951614E+01  0.61088204779E+00  0.12463072584E+02  0.51100000000E-03 0.  1.
        -12    1    3    3    0    0 -0.10918248388E+02  0.14506473661E+02  0.15032132955E+01  0.18218275883E+02  0.00000000000E+00 0.  1.
</event>
<event>
 7    1  0.2584640E-011  0.5052886E+02  0.7816164E-02  0.1300439E+00
        -11   -1    0    0    0    0  0.00000000000E+00  0.00000000000E+00  0.45593999997E+02  0.45594000000E+02  0.51100000000E-03 0.  1.
         11   -1    0    0    0    0 -0.00000000000E+00 -0.00000000000E+00 -0.45593999997E+02  0.45594000000E+02  0.51100000000E-03 0. -1.
    9900012    2    1    2    0    0 -0.11740101905E+02 -0.38161629117E+02 -0.76828227514E+01  0.50528859637E+02  0.29999999354E+02 0.  0.
        -12    1    1    2    0    0  0.11740101905E+02  0.38161629117E+02  0.76828227514E+01  0.40659140363E+02  0.00000000000E+00 0.  1.
         11    1    3    3    0    0  0.39172536216E+01  0.15433194909E+01 -0.21941810707E+01  0.47477512381E+01  0.51100000000E-03 0. -1.
        -11    1    3    3    0    0 -0.53229275616E+01 -0.20366547636E+02 -0.10141651444E+02  0.23366277297E+02  0.51100000000E-03 0.  1.
        -12    1    3    3    0    0 -0.10334427965E+02 -0.19338400971E+02  0.46530097630E+01  0.22414831102E+02  0.00000000000E+00 0.  1.
</event>
<event>
 7    1  0.2584640E-011  0.5052886E+02  0.7816164E-02  0.1300439E+00
        -11   -1    0    0    0    0  0.00000000000E+00  0.00000000000E+00  0.45593999997E+02  0.45594000000E+02  0.51100000000E-03 0.  1.
         11   -1    0    0    0    0 -0.00000000000E+00 -0.00000000000E+00 -0.45593999997E+02  0.45594000000E+02  0.51100000000E-03 0. -1.
    9900012    2    1    2    0    0  0.27567847935E+02  0.13355134522E+02 -0.26736116637E+02  0.50528858461E+02  0.29999995778E+02 0.  0.
        -12    1    1    2    0    0 -0.27567847935E+02 -0.13355134522E+02  0.26736116637E+02  0.40659141539E+02  0.00000000000E+00 0.  1.
         11    1    3    3    0    0  0.84237829147E+01  0.49115549826E+01  0.20418020893E+01  0.99625522319E+01  0.51100000000E-03 0. -1.
        -11    1    3    3    0    0  0.13722820928E+01  0.10594467276E+02 -0.10330343332E+02  0.14860749935E+02  0.51100000000E-03 0.  1.
         12    1    3    3    0    0  0.17771782927E+02 -0.21508877362E+01 -0.18447575394E+02  0.25705556294E+02  0.00000000000E+00 0. -1.
</event>
<event>
 7    1  0.2584640E-011  0.5052887E+02  0.7816164E-02  0.1300439E+00
        -11   -1    0    0    0    0  0.00000000000E+00  0.00000000000E+00  0.45593999997E+02  0.45594000000E+02  0.51100000000E-03 0.  1.
         11   -1    0    0    0    0 -0.00000000000E+00 -0.00000000000E+00 -0.45593999997E+02  0.45594000000E+02  0.51100000000E-03 0. -1.
    9900012    2    1    2    0    0 -0.55458572876E+01  0.23514746757E+02 -0.32702681432E+02  0.50528865468E+02  0.30000017075E+02 0.  0.
        -12    1    1    2    0    0  0.55458572876E+01 -0.23514746757E+02  0.32702681432E+02  0.40659134532E+02  0.00000000000E+00 0.  1.
         11    1    3    3    0    0  0.14771563774E+00 -0.56464733468E+00 -0.18596384920E+02  0.18605541617E+02  0.51100000000E-03 0. -1.
        -11    1    3    3    0    0  0.13116138667E+00  0.11806172349E+02 -0.14031171431E+02  0.18337848315E+02  0.51100000000E-03 0.  1.
        -12    1    3    3    0    0 -0.58247343120E+01  0.12273221742E+02 -0.75125081363E-01  0.13585475535E+02  0.00000000000E+00 0.  1.
</event>
<event>
 7    1  0.2584640E-011  0.5052886E+02  0.7816164E-02  0.1300439E+00
        -11   -1    0    0    0    0  0.00000000000E+00  0.00000000000E+00  0.45593999997E+02  0.45594000000E+02  0.51100000000E-03 0. -1.
         11   -1    0    0    0    0 -0.00000000000E+00 -0.00000000000E+00 -0.45593999997E+02  0.45594000000E+02  0.51100000000E-03 0.  1.
    9900012    2    1    2    0    0 -0.16113115261E+02 -0.37104134850E+02 -0.41007621996E+01  0.50528861335E+02  0.30000004513E+02 0.  0.
        -12    1    1    2    0    0  0.16113115261E+02  0.37104134850E+02  0.41007621996E+01  0.40659138665E+02  0.00000000000E+00 0.  1.
         11    1    3    3    0    0  0.54924998636E+01 -0.36109375694E+01  0.39140835169E+00  0.65848026273E+01  0.51100000000E-03 0. -1.
        -11    1    3    3    0    0 -0.89690295478E+00  0.11436677001E+01  0.25918513154E+01  0.29715491281E+01  0.51100000000E-03 0.  1.
         12    1    3    3    0    0 -0.20708712170E+02 -0.34636864981E+02 -0.70840218666E+01  0.40972509579E+02  0.00000000000E+00 0. -1.
</event>
<event>
 7    1  0.2584640E-011  0.5052892E+02  0.7816164E-02  0.1300439E+00
        -11   -1    0    0    0    0  0.00000000000E+00  0.00000000000E+00  0.45593999997E+02  0.45594000000E+02  0.51100000000E-03 0.  1.
         11   -1    0    0    0    0 -0.00000000000E+00 -0.00000000000E+00 -0.45593999997E+02  0.45594000000E+02  0.51100000000E-03 0. -1.
    9900012    2    1    2    0    0 -0.26674919153E+01  0.18093950775E+02 -0.36313280339E+02  0.50528918644E+02  0.30000178709E+02 0.  0.
        -12    1    1    2    0    0  0.26674919153E+01 -0.18093950775E+02  0.36313280339E+02  0.40659081356E+02  0.00000000000E+00 0.  1.
         11    1    3    3    0    0 -0.57867987800E+01  0.10377549625E+02 -0.73367615539E+01  0.13964549642E+02  0.51100000000E-03 0. -1.
        -11    1    3    3    0    0  0.95920459071E+01  0.32564715604E+01 -0.49300638180E+01  0.11265765896E+02  0.51100000000E-03 0.  1.
         12    1    3    3    0    0 -0.64727390424E+01  0.44599295895E+01 -0.24046454967E+02  0.25298603106E+02  0.00000000000E+00 0. -1.
</event>
<event>
 7    1  0.2584640E-011  0.5052882E+02  0.7816164E-02  0.1300439E+00
        -11   -1    0    0    0    0  0.00000000000E+00  0.00000000000E+00  0.45593999997E+02  0.45594000000E+02  0.51100000000E-03 0. -1.
         11   -1    0    0    0    0 -0.00000000000E+00 -0.00000000000E+00 -0.45593999997E+02  0.45594000000E+02  0.51100000000E-03 0.  1.
    9900012    2    1    2    0    0 -0.27447385271E+02 -0.16491180523E+02  0.25056959513E+02  0.50528816372E+02  0.29999867844E+02 0.  0.
        -12    1    1    2    0    0  0.27447385271E+02  0.16491180523E+02 -0.25056959513E+02  0.40659183628E+02  0.00000000000E+00 0.  1.
         11    1    3    3    0    0 -0.12225220814E+02  0.17454336018E+00  0.82824141821E+01  0.14767696986E+02  0.51100000000E-03 0. -1.
        -11    1    3    3    0    0 -0.10336344951E+02 -0.62496170367E+01 -0.33897934982E+01  0.12545454965E+02  0.51100000000E-03 0.  1.
        -12    1    3    3    0    0 -0.48858195059E+01 -0.10416106846E+02  0.20164338830E+02  0.23215664421E+02  0.00000000000E+00 0.  1.
</event>
<event>
 7    1  0.2584640E-011  0.5052886E+02  0.7816164E-02  0.1300439E+00
        -11   -1    0    0    0    0  0.00000000000E+00  0.00000000000E+00  0.45593999997E+02  0.45594000000E+02  0.51100000000E-03 0.  1.
         11   -1    0    0    0    0 -0.00000000000E+00 -0.00000000000E+00 -0.45593999997E+02  0.45594000000E+02  0.51100000000E-03 0. -1.
    9900012    2    1    2    0    0 -0.39567495593E+02  0.58581153017E+00 -0.93400212518E+01  0.50528857367E+02  0.29999992452E+02 0.  0.
        -12    1    1    2    0    0  0.39567495593E+02 -0.58581153017E+00  0.93400212518E+01  0.40659142633E+02  0.00000000000E+00 0.  1.
         11    1    3    3    0    0 -0.25208079709E+02 -0.12027139323E+01 -0.64594071087E+01  0.26050292587E+02  0.51100000000E-03 0. -1.
        -11    1    3    3    0    0 -0.58532995489E+01 -0.18681692027E+01 -0.10713906910E+02  0.12350666918E+02  0.51100000000E-03 0.  1.
        -12    1    3    3    0    0 -0.85061163355E+01  0.36566946652E+01  0.78332927666E+01  0.12127897862E+02  0.00000000000E+00 0.  1.
</event>
<event>
 7    1  0.2584640E-011  0.5052886E+02  0.7816164E-02  0.1300439E+00
        -11   -1    0    0    0    0  0.00000000000E+00  0.00000000000E+00  0.45593999997E+02  0.45594000000E+02  0.51100000000E-03 0.  1.
         11   -1    0    0    0    0 -0.00000000000E+00 -0.00000000000E+00 -0.45593999997E+02  0.45594000000E+02  0.51100000000E-03 0. -1.
    9900012    2    1    2    0    0  0.14270947818E+02 -0.13599454107E+02 -0.35560665546E+02  0.50528855424E+02  0.29999986546E+02 0.  0.
        -12    1    1    2    0    0 -0.14270947818E+02  0.13599454107E+02  0.35560665546E+02  0.40659144576E+02  0.00000000000E+00 0.  1.
         11    1    3    3    0    0  0.10902712799E+02 -0.78969898766E+01 -0.84776214183E+01  0.15909169075E+02  0.51100000000E-03 0. -1.
        -11    1    3    3    0    0 -0.28273469105E+01 -0.11331072940E+02 -0.91736155162E+01  0.14850667541E+02  0.51100000000E-03 0.  1.
         12    1    3    3    0    0  0.61955819292E+01  0.56286087090E+01 -0.17909428611E+02  0.19769018808E+02  0.00000000000E+00 0. -1.
</event>
<event>
 7    1  0.2584640E-011  0.5052886E+02  0.7816164E-02  0.1300439E+00
        -11   -1    0    0    0    0  0.00000000000E+00  0.00000000000E+00  0.45593999997E+02  0.45594000000E+02  0.51100000000E-03 0.  1.
         11   -1    0    0    0    0 -0.00000000000E+00 -0.00000000000E+00 -0.45593999997E+02  0.45594000000E+02  0.51100000000E-03 0. -1.
    9900012    2    1    2    0    0  0.33358340375E+02  0.88544696447E+01 -0.21493847508E+02  0.50528856060E+02  0.29999988480E+02 0.  0.
        -12    1    1    2    0    0 -0.33358340375E+02 -0.88544696447E+01  0.21493847508E+02  0.40659143940E+02  0.00000000000E+00 0.  1.
         11    1    3    3    0    0 -0.25150076845E+01 -0.31045828734E-03  0.18931525050E+01  0.31479025426E+01  0.51100000000E-03 0. -1.
        -11    1    3    3    0    0  0.13426784858E+02  0.74241093276E+01 -0.58698293762E+00  0.15353843172E+02  0.51100000000E-03 0.  1.
         12    1    3    3    0    0  0.22446563201E+02  0.14306707754E+01 -0.22800017075E+02  0.32027110345E+02  0.00000000000E+00 0. -1.
</event>
<event>
 7    1  0.2584640E-011  0.5052884E+02  0.7816164E-02  0.1300439E+00
        -11   -1    0    0    0    0  0.00000000000E+00  0.00000000000E+00  0.45593999997E+02  0.45594000000E+02  0.51100000000E-03 0.  1.
         11   -1    0    0    0    0 -0.00000000000E+00 -0.00000000000E+00 -0.45593999997E+02  0.45594000000E+02  0.51100000000E-03 0. -1.
    9900012    2    1    2    0    0 -0.29225452568E+02  0.17075436400E+02 -0.22527086236E+02  0.50528840880E+02  0.29999942338E+02 0.  0.
        -12    1    1    2    0    0  0.29225452568E+02 -0.17075436400E+02  0.22527086236E+02  0.40659159120E+02  0.00000000000E+00 0.  1.
         11    1    3    3    0    0 -0.19731122465E+02  0.24828630875E+02 -0.14336122520E+02  0.34803771549E+02  0.51100000000E-03 0.  1.
        -11    1    3    3    0    0 -0.56817970746E+01 -0.14649380501E+01 -0.22984236844E+01  0.63017150985E+01  0.51100000000E-03 0. -1.
        -12    1    3    3    0    0 -0.38125330288E+01 -0.62882564251E+01 -0.58925400319E+01  0.94233542325E+01  0.00000000000E+00 0.  1.
</event>
<event>
 7    1  0.2584640E-011  0.5052886E+02  0.7816164E-02  0.1300439E+00
        -11   -1    0    0    0    0  0.00000000000E+00  0.00000000000E+00  0.45593999997E+02  0.45594000000E+02  0.51100000000E-03 0.  1.
         11   -1    0    0    0    0 -0.00000000000E+00 -0.00000000000E+00 -0.45593999997E+02  0.45594000000E+02  0.51100000000E-03 0. -1.
    9900012    2    1    2    0    0  0.99091584546E+01 -0.80103597667E+01 -0.38610987401E+02  0.50528860401E+02  0.30000001675E+02 0.  0.
        -12    1    1    2    0    0 -0.99091584546E+01  0.80103597667E+01  0.38610987401E+02  0.40659139599E+02  0.00000000000E+00 0.  1.
         11    1    3    3    0    0  0.63693224798E+00  0.72976260980E+01 -0.10767983760E+02  0.13023459751E+02  0.51100000000E-03 0. -1.
        -11    1    3    3    0    0 -0.20274602234E+01 -0.92374573623E+01 -0.20853051055E+02  0.22897400552E+02  0.51100000000E-03 0.  1.
         12    1    3    3    0    0  0.11299686430E+02 -0.60705285023E+01 -0.69899525849E+01  0.14608000098E+02  0.00000000000E+00 0. -1.
</event>
<event>
 7    1  0.2584640E-011  0.5052886E+02  0.7816164E-02  0.1300439E+00
        -11   -1    0    0    0    0  0.00000000000E+00  0.00000000000E+00  0.45593999997E+02  0.45594000000E+02  0.51100000000E-03 0.  1.
         11   -1    0    0    0    0 -0.00000000000E+00 -0.00000000000E+00 -0.45593999997E+02  0.45594000000E+02  0.51100000000E-03 0. -1.
    9900012    2    1    2    0    0 -0.32340979189E+02 -0.97277084050E+01 -0.22640631012E+02  0.50528863040E+02  0.30000009695E+02 0.  0.
        -12    1    1    2    0    0  0.32340979189E+02  0.97277084050E+01  0.22640631012E+02  0.40659136960E+02  0.00000000000E+00 0.  1.
         11    1    3    3    0    0  0.19542269102E+01  0.10553866376E+00 -0.50467639111E+01  0.54129444355E+01  0.51100000000E-03 0. -1.
        -11    1    3    3    0    0 -0.57915823004E+01  0.26755675350E+00  0.47672538927E+01  0.75060457031E+01  0.51100000000E-03 0.  1.
         12    1    3    3    0    0 -0.28503623799E+02 -0.10100803822E+02 -0.22361120993E+02  0.37609872901E+02  0.00000000000E+00 0. -1.
</event>
<event>
 7    1  0.3773023E-011  0.5052886E+02  0.7816164E-02  0.1300439E+00
        -11   -1    0    0    0    0  0.00000000000E+00  0.00000000000E+00  0.45593999997E+02  0.45594000000E+02  0.51100000000E-03 0. -1.
         11   -1    0    0    0    0 -0.00000000000E+00 -0.00000000000E+00 -0.45593999997E+02  0.45594000000E+02  0.51100000000E-03 0.  1.
    9900012    2    1    2    0    0 -0.10561670919E+02  0.10788424644E+02  0.37752171895E+02  0.50528862261E+02  0.30000007328E+02 0.  0.
        -12    1    1    2    0    0  0.10561670919E+02 -0.10788424644E+02 -0.37752171895E+02  0.40659137739E+02  0.00000000000E+00 0.  1.
         11    1    3    3    0    0  0.68387142177E+00  0.10885792804E+02  0.24545404151E+02  0.26859728782E+02  0.51100000000E-03 0. -1.
        -11    1    3    3    0    0 -0.16639485144E+01 -0.63686463507E+01  0.96439809477E+01  0.11676247247E+02  0.51100000000E-03 0.  1.
        -12    1    3    3    0    0 -0.95815938261E+01  0.62712781908E+01  0.35627867968E+01  0.11992886231E+02  0.00000000000E+00 0.  1.
</event>
<event>
 7    1  0.2584640E-011  0.5052885E+02  0.7816164E-02  0.1300439E+00
        -11   -1    0    0    0    0  0.00000000000E+00  0.00000000000E+00  0.45593999997E+02  0.45594000000E+02  0.51100000000E-03 0.  1.
         11   -1    0    0    0    0 -0.00000000000E+00 -0.00000000000E+00 -0.45593999997E+02  0.45594000000E+02  0.51100000000E-03 0. -1.
    9900012    2    1    2    0    0  0.32365428908E+02 -0.10639583531E+02 -0.22191087592E+02  0.50528854723E+02  0.29999984417E+02 0.  0.
        -12    1    1    2    0    0 -0.32365428908E+02  0.10639583531E+02  0.22191087592E+02  0.40659145277E+02  0.00000000000E+00 0.  1.
         11    1    3    3    0    0  0.37980546638E+01 -0.94458145980E+01 -0.57123967339E+01  0.11673907202E+02  0.51100000000E-03 0. -1.
        -11    1    3    3    0    0  0.83406549743E+00 -0.11142226398E+01  0.40939986817E+01  0.43241164198E+01  0.51100000000E-03 0.  1.
         12    1    3    3    0    0  0.27733308747E+02 -0.79546293442E-01 -0.20572689540E+02  0.34530831102E+02  0.00000000000E+00 0. -1.
</event>
<event>
 7    1  0.2584640E-011  0.5052886E+02  0.7816164E-02  0.1300439E+00
        -11   -1    0    0    0    0  0.00000000000E+00  0.00000000000E+00  0.45593999997E+02  0.45594000000E+02  0.51100000000E-03 0.  1.
         11   -1    0    0    0    0 -0.00000000000E+00 -0.00000000000E+00 -0.45593999997E+02  0.45594000000E+02  0.51100000000E-03 0. -1.
    9900012    2    1    2    0    0  0.35364785197E+01 -0.36040862721E+01 -0.40344383740E+02  0.50528863050E+02  0.30000009726E+02 0.  0.
        -12    1    1    2    0    0 -0.35364785197E+01  0.36040862721E+01  0.40344383740E+02  0.40659136950E+02  0.00000000000E+00 0.  1.
         11    1    3    3    0    0  0.40858893092E+01  0.21919109054E+01 -0.13239260157E+02  0.14027721648E+02  0.51100000000E-03 0. -1.
        -11    1    3    3    0    0 -0.93399596307E+01 -0.31603805023E+00 -0.23893303094E+02  0.25655889362E+02  0.51100000000E-03 0.  1.
        -12    1    3    3    0    0  0.87905488412E+01 -0.54799591273E+01 -0.32118204895E+01  0.10845252041E+02  0.00000000000E+00 0.  1.
</event>
<event>
 7    1  0.2584640E-011  0.5052878E+02  0.7816164E-02  0.1300439E+00
        -11   -1    0    0    0    0  0.00000000000E+00  0.00000000000E+00  0.45593999997E+02  0.45594000000E+02  0.51100000000E-03 0. -1.
         11   -1    0    0    0    0 -0.00000000000E+00 -0.00000000000E+00 -0.45593999997E+02  0.45594000000E+02  0.51100000000E-03 0.  1.
    9900012    2    1    2    0    0 -0.18725717347E+02 -0.18893794482E+02  0.30749700021E+02  0.50528781962E+02  0.29999763252E+02 0.  0.
        -12    1    1    2    0    0  0.18725717347E+02  0.18893794482E+02 -0.30749700021E+02  0.40659218038E+02  0.00000000000E+00 0.  1.
         11    1    3    3    0    0 -0.35867926913E+01 -0.12953304075E+02  0.23278997461E+02  0.26880567169E+02  0.51100000000E-03 0. -1.
        -11    1    3    3    0    0 -0.14217778744E+01  0.44960827096E+01  0.37262803368E+01  0.60101062774E+01  0.51100000000E-03 0.  1.
        -12    1    3    3    0    0 -0.13717146781E+02 -0.10436573116E+02  0.37444222224E+01  0.17638108516E+02  0.00000000000E+00 0.  1.
</event>
<event>
 7    1  0.2584640E-011  0.5052885E+02  0.7816164E-02  0.1300439E+00
        -11   -1    0    0    0    0  0.00000000000E+00  0.00000000000E+00  0.45593999997E+02  0.45594000000E+02  0.51100000000E-03 0.  1.
         11   -1    0    0    0    0 -0.00000000000E+00 -0.00000000000E+00 -0.45593999997E+02  0.45594000000E+02  0.51100000000E-03 0. -1.
    9900012    2    1    2    0    0  0.28766258813E+02 -0.24648661408E+02  0.14768615583E+02  0.50528853901E+02  0.29999981917E+02 0.  0.
        -12    1    1    2    0    0 -0.28766258813E+02  0.24648661408E+02 -0.14768615583E+02  0.40659146099E+02  0.00000000000E+00 0.  1.
         11    1    3    3    0    0  0.13264916968E+02 -0.11154957535E+02 -0.11574639905E+01  0.17370400771E+02  0.51100000000E-03 0. -1.
        -11    1    3    3    0    0 -0.56235483265E+00 -0.34480458042E+00 -0.41960742111E+01  0.42476078212E+01  0.51100000000E-03 0.  1.
         12    1    3    3    0    0  0.16063696677E+02 -0.13148899292E+02  0.20122153785E+02  0.28910845309E+02  0.00000000000E+00 0. -1.
</event>
<event>
 7    1  0.2584640E-011  0.5052887E+02  0.7816164E-02  0.1300439E+00
        -11   -1    0    0    0    0  0.00000000000E+00  0.00000000000E+00  0.45593999997E+02  0.45594000000E+02  0.51100000000E-03 0.  1.
         11   -1    0    0    0    0 -0.00000000000E+00 -0.00000000000E+00 -0.45593999997E+02  0.45594000000E+02  0.51100000000E-03 0. -1.
    9900012    2    1    2    0    0  0.24589011119E+02 -0.28509651339E+02 -0.15353992798E+02  0.50528870863E+02  0.30000033476E+02 0.  0.
        -12    1    1    2    0    0 -0.24589011119E+02  0.28509651339E+02  0.15353992798E+02  0.40659129137E+02  0.00000000000E+00 0.  1.
         11    1    3    3    0    0  0.10213131373E+02 -0.16582643109E+02  0.29056655044E+01  0.19690987715E+02  0.51100000000E-03 0. -1.
        -11    1    3    3    0    0  0.53435664827E+01  0.12733428393E+01  0.12259673706E+01  0.56283302138E+01  0.51100000000E-03 0.  1.
        -12    1    3    3    0    0  0.90323132632E+01 -0.13200351070E+02 -0.19485625674E+02  0.25209552934E+02  0.00000000000E+00 0.  1.
</event>
<event>
 7    1  0.2584640E-011  0.5052887E+02  0.7816164E-02  0.1300439E+00
        -11   -1    0    0    0    0  0.00000000000E+00  0.00000000000E+00  0.45593999997E+02  0.45594000000E+02  0.51100000000E-03 0.  1.
         11   -1    0    0    0    0 -0.00000000000E+00 -0.00000000000E+00 -0.45593999997E+02  0.45594000000E+02  0.51100000000E-03 0. -1.
    9900012    2    1    2    0    0  0.13592626617E+02  0.81129372248E+01 -0.37451104339E+02  0.50528874764E+02  0.30000045331E+02 0.  0.
        -12    1    1    2    0    0 -0.13592626617E+02 -0.81129372248E+01  0.37451104339E+02  0.40659125236E+02  0.00000000000E+00 0.  1.
         11    1    3    3    0    0  0.20843894119E+01 -0.80988532720E-01 -0.23155328520E+02  0.23249096273E+02  0.51100000000E-03 0. -1.
        -11    1    3    3    0    0 -0.16762722800E+01 -0.38844669461E+01  0.23804398681E+00  0.42374092808E+01  0.51100000000E-03 0.  1.
        -12    1    3    3    0    0  0.13184509485E+02  0.12078392704E+02 -0.14533819806E+02  0.23042369210E+02  0.00000000000E+00 0.  1.
</event>
<event>
 7    1  0.2584640E-011  0.5052886E+02  0.7816164E-02  0.1300439E+00
        -11   -1    0    0    0    0  0.00000000000E+00  0.00000000000E+00  0.45593999997E+02  0.45594000000E+02  0.51100000000E-03 0.  1.
         11   -1    0    0    0    0 -0.00000000000E+00 -0.00000000000E+00 -0.45593999997E+02  0.45594000000E+02  0.51100000000E-03 0. -1.
    9900012    2    1    2    0    0  0.37100473348E+02  0.13007861441E+02 -0.10368979246E+02  0.50528864341E+02  0.30000013651E+02 0.  0.
        -12    1    1    2    0    0 -0.37100473348E+02 -0.13007861441E+02  0.10368979246E+02  0.40659135659E+02  0.00000000000E+00 0.  1.
         11    1    3    3    0    0  0.38676730473E+01  0.96211511952E+01 -0.78415796556E+01  0.13000608327E+02  0.51100000000E-03 0. -1.
        -11    1    3    3    0    0  0.11978661743E+02  0.87241564087E+01  0.25423597070E+01  0.15035386105E+02  0.51100000000E-03 0.  1.
        -12    1    3    3    0    0  0.21254138558E+02 -0.53374461624E+01 -0.50697592971E+01  0.22492869908E+02  0.00000000000E+00 0.  1.
</event>
<event>
 7    1  0.3331666E-011  0.5052884E+02  0.7816164E-02  0.1300439E+00
        -11   -1    0    0    0    0  0.00000000000E+00  0.00000000000E+00  0.45593999997E+02  0.45594000000E+02  0.51100000000E-03 0. -1.
         11   -1    0    0    0    0 -0.00000000000E+00 -0.00000000000E+00 -0.45593999997E+02  0.45594000000E+02  0.51100000000E-03 0.  1.
    9900012    2    1    2    0    0  0.23248724834E+02  0.18182496608E+02  0.27965348556E+02  0.50528842247E+02  0.29999946493E+02 0.  0.
        -12    1    1    2    0    0 -0.23248724834E+02 -0.18182496608E+02 -0.27965348556E+02  0.40659157753E+02  0.00000000000E+00 0.  1.
         11    1    3    3    0    0  0.11127999845E+02  0.54413197078E+01  0.17960906467E+02  0.21818214916E+02  0.51100000000E-03 0. -1.
        -11    1    3    3    0    0  0.16335243919E+02  0.14864136733E+02  0.91915385700E+01  0.23922105598E+02  0.51100000000E-03 0.  1.
        -12    1    3    3    0    0 -0.42145189294E+01 -0.21229598324E+01  0.81290351896E+00  0.47885217330E+01  0.00000000000E+00 0.  1.
</event>
<event>
 7    1  0.2584640E-011  0.5052886E+02  0.7816164E-02  0.1300439E+00
        -11   -1    0    0    0    0  0.00000000000E+00  0.00000000000E+00  0.45593999997E+02  0.45594000000E+02  0.51100000000E-03 0.  1.
         11   -1    0    0    0    0 -0.00000000000E+00 -0.00000000000E+00 -0.45593999997E+02  0.45594000000E+02  0.51100000000E-03 0. -1.
    9900012    2    1    2    0    0  0.90054391513E+00 -0.38849581570E+02  0.11960967805E+02  0.50528859351E+02  0.29999998483E+02 0.  0.
        -12    1    1    2    0    0 -0.90054391513E+00  0.38849581570E+02 -0.11960967805E+02  0.40659140649E+02  0.00000000000E+00 0.  1.
         11    1    3    3    0    0  0.96533556319E+01 -0.22065676783E+02  0.37509322600E+01  0.24375209947E+02  0.51100000000E-03 0. -1.
        -11    1    3    3    0    0  0.23580548355E+01  0.14076914012E+01  0.32739877550E+01  0.42732907424E+01  0.51100000000E-03 0.  1.
         12    1    3    3    0    0 -0.11110866552E+02 -0.18191596188E+02  0.49360477899E+01  0.21880358662E+02  0.00000000000E+00 0. -1.
</event>
<event>
 7    1  0.2584640E-011  0.5052886E+02  0.7816164E-02  0.1300439E+00
        -11   -1    0    0    0    0  0.00000000000E+00  0.00000000000E+00  0.45593999997E+02  0.45594000000E+02  0.51100000000E-03 0. -1.
         11   -1    0    0    0    0 -0.00000000000E+00 -0.00000000000E+00 -0.45593999997E+02  0.45594000000E+02  0.51100000000E-03 0.  1.
    9900012    2    1    2    0    0 -0.10204880712E+02  0.20249375316E+02  0.33748911340E+02  0.50528858253E+02  0.29999995144E+02 0.  0.
        -12    1    1    2    0    0  0.10204880712E+02 -0.20249375316E+02 -0.33748911340E+02  0.40659141747E+02  0.00000000000E+00 0.  1.
         11    1    3    3    0    0 -0.30546696772E+01  0.21387200059E+02  0.20357329078E+02  0.29684409724E+02  0.51100000000E-03 0. -1.
        -11    1    3    3    0    0  0.23577106997E+01 -0.49012662678E+01  0.27814769482E+01  0.61088317251E+01  0.51100000000E-03 0.  1.
        -12    1    3    3    0    0 -0.95079217345E+01  0.37634415245E+01  0.10610105313E+02  0.14735616803E+02  0.00000000000E+00 0.  1.
</event>
<event>
 7    1  0.2584640E-011  0.5052886E+02  0.7816164E-02  0.1300439E+00
        -11   -1    0    0    0    0  0.00000000000E+00  0.00000000000E+00  0.45593999997E+02  0.45594000000E+02  0.51100000000E-03 0.  1.
         11   -1    0    0    0    0 -0.00000000000E+00 -0.00000000000E+00 -0.45593999997E+02  0.45594000000E+02  0.51100000000E-03 0. -1.
    9900012    2    1    2    0    0 -0.66973082457E+01 -0.33655900673E+02 -0.21808082727E+02  0.50528855149E+02  0.29999985710E+02 0.  0.
        -12    1    1    2    0    0  0.66973082457E+01  0.33655900673E+02  0.21808082727E+02  0.40659144851E+02  0.00000000000E+00 0.  1.
         11    1    3    3    0    0 -0.12146360194E+01 -0.15790251042E+02 -0.52617662217E+01  0.16688126098E+02  0.51100000000E-03 0. -1.
        -11    1    3    3    0    0 -0.10513181064E+02 -0.19689312244E+02 -0.17553624502E+02  0.28395875160E+02  0.51100000000E-03 0.  1.
         12    1    3    3    0    0  0.50305088373E+01  0.18236626133E+01  0.10073079968E+01  0.54448538905E+01  0.00000000000E+00 0. -1.
</event>
<event>
 7    1  0.2584640E-011  0.5052888E+02  0.7816164E-02  0.1300439E+00
        -11   -1    0    0    0    0  0.00000000000E+00  0.00000000000E+00  0.45593999997E+02  0.45594000000E+02  0.51100000000E-03 0.  1.
         11   -1    0    0    0    0 -0.00000000000E+00 -0.00000000000E+00 -0.45593999997E+02  0.45594000000E+02  0.51100000000E-03 0. -1.
    9900012    2    1    2    0    0  0.39523719038E+02  0.90789659189E+01 -0.29346478817E+01  0.50528878674E+02  0.30000057219E+02 0.  0.
        -12    1    1    2    0    0 -0.39523719038E+02 -0.90789659189E+01  0.29346478817E+01  0.40659121326E+02  0.00000000000E+00 0.  1.
         11    1    3    3    0    0  0.42689498856E+01  0.25942600287E+01  0.20682997984E+01  0.54066609417E+01  0.51100000000E-03 0. -1.
        -11    1    3    3    0    0 -0.83750254605E+00 -0.13312278985E+01 -0.79234664803E+01  0.80780504800E+01  0.51100000000E-03 0.  1.
        -12    1    3    3    0    0  0.36092271699E+02  0.78159337888E+01  0.29205188001E+01  0.37044167253E+02  0.00000000000E+00 0.  1.
</event>
<event>
 7    1  0.3870943E-011  0.5052891E+02  0.7816164E-02  0.1300439E+00
        -11   -1    0    0    0    0  0.00000000000E+00  0.00000000000E+00  0.45593999997E+02  0.45594000000E+02  0.51100000000E-03 0.  1.
         11   -1    0    0    0    0 -0.00000000000E+00 -0.00000000000E+00 -0.45593999997E+02  0.45594000000E+02  0.51100000000E-03 0. -1.
    9900012    2    1    2    0    0  0.33315223708E+02  0.32687037871E+01 -0.23077538127E+02  0.50528913424E+02  0.30000162844E+02 0.  0.
        -12    1    1    2    0    0 -0.33315223708E+02 -0.32687037871E+01  0.23077538127E+02  0.40659086576E+02  0.00000000000E+00 0.  1.
         11    1    3    3    0    0  0.23808321114E+02  0.23306479044E+01 -0.18106010990E+02  0.30001595094E+02  0.51100000000E-03 0. -1.
        -11    1    3    3    0    0  0.69045857824E+01 -0.51813071342E+01 -0.92246300308E+01  0.12633805757E+02  0.51100000000E-03 0.  1.
        -12    1    3    3    0    0  0.26023168115E+01  0.61193630170E+01  0.42531028940E+01  0.78935125735E+01  0.00000000000E+00 0.  1.
</event>
<event>
 7    1  0.2584640E-011  0.5052886E+02  0.7816164E-02  0.1300439E+00
        -11   -1    0    0    0    0  0.00000000000E+00  0.00000000000E+00  0.45593999997E+02  0.45594000000E+02  0.51100000000E-03 0. -1.
         11   -1    0    0    0    0 -0.00000000000E+00 -0.00000000000E+00 -0.45593999997E+02  0.45594000000E+02  0.51100000000E-03 0.  1.
    9900012    2    1    2    0    0  0.38587892158E+02 -0.10311234478E+02  0.76038631844E+01  0.50528859417E+02  0.29999998683E+02 0.  0.
        -12    1    1    2    0    0 -0.38587892158E+02  0.10311234478E+02 -0.76038631844E+01  0.40659140583E+02  0.00000000000E+00 0.  1.
         11    1    3    3    0    0  0.12315050299E+02 -0.13095572309E+02 -0.33523521466E+01  0.18286408700E+02  0.51100000000E-03 0. -1.
        -11    1    3    3    0    0  0.57246177311E+01 -0.23570070702E+01  0.90639567409E+01  0.10976431230E+02  0.51100000000E-03 0.  1.
         12    1    3    3    0    0  0.20548224128E+02  0.51413449012E+01  0.18922585901E+01  0.21266019486E+02  0.00000000000E+00 0. -1.
</event>
<event>
 7    1  0.2584640E-011  0.5052885E+02  0.7816164E-02  0.1300439E+00
        -11   -1    0    0    0    0  0.00000000000E+00  0.00000000000E+00  0.45593999997E+02  0.45594000000E+02  0.51100000000E-03 0. -1.
         11   -1    0    0    0    0 -0.00000000000E+00 -0.00000000000E+00 -0.45593999997E+02  0.45594000000E+02  0.51100000000E-03 0.  1.
    9900012    2    1    2    0    0  0.35858498745E+02 -0.19146949486E+02  0.85351106796E+00  0.50528854805E+02  0.29999984664E+02 0.  0.
        -12    1    1    2    0    0 -0.35858498745E+02  0.19146949486E+02 -0.85351106796E+00  0.40659145195E+02  0.00000000000E+00 0.  1.
         11    1    3    3    0    0  0.10344485832E+02 -0.17721425428E+02 -0.87012416310E+01  0.22288313362E+02  0.51100000000E-03 0. -1.
        -11    1    3    3    0    0  0.83864310539E+01 -0.36232594136E+01  0.18004836414E+01  0.93113895957E+01  0.51100000000E-03 0.  1.
        -12    1    3    3    0    0  0.17127581859E+02  0.21977353557E+01  0.77542690576E+01  0.18929151847E+02  0.00000000000E+00 0.  1.
</event>
<event>
 7    1  0.2584640E-011  0.5052886E+02  0.7816164E-02  0.1300439E+00
        -11   -1    0    0    0    0  0.00000000000E+00  0.00000000000E+00  0.45593999997E+02  0.45594000000E+02  0.51100000000E-03 0. -1.
         11   -1    0    0    0    0 -0.00000000000E+00 -0.00000000000E+00 -0.45593999997E+02  0.45594000000E+02  0.51100000000E-03 0.  1.
    9900012    2    1    2    0    0 -0.16759990040E+02  0.21750307560E+02 -0.29986536275E+02  0.50528862000E+02  0.30000006536E+02 0.  0.
        -12    1    1    2    0    0  0.16759990040E+02 -0.21750307560E+02  0.29986536275E+02  0.40659138000E+02  0.00000000000E+00 0.  1.
         11    1    3    3    0    0 -0.18167806041E+02  0.13662879443E+02 -0.28616480155E+02  0.36546496245E+02  0.51100000000E-03 0. -1.
        -11    1    3    3    0    0  0.37648034539E+01  0.13028439285E+00 -0.37841118205E+01  0.53394963808E+01  0.51100000000E-03 0.  1.
        -12    1    3    3    0    0 -0.23569874533E+01  0.79571437243E+01  0.24140557006E+01  0.86428693748E+01  0.00000000000E+00 0.  1.
</event>
<event>
 7    1  0.2584640E-011  0.5052886E+02  0.7816164E-02  0.1300439E+00
        -11   -1    0    0    0    0  0.00000000000E+00  0.00000000000E+00  0.45593999997E+02  0.45594000000E+02  0.51100000000E-03 0.  1.
         11   -1    0    0    0    0 -0.00000000000E+00 -0.00000000000E+00 -0.45593999997E+02  0.45594000000E+02  0.51100000000E-03 0. -1.
    9900012    2    1    2    0    0  0.50045429596E+01  0.81660023773E+01 -0.39515014554E+02  0.50528863016E+02  0.30000009625E+02 0.  0.
        -12    1    1    2    0    0 -0.50045429596E+01 -0.81660023773E+01  0.39515014554E+02  0.40659136984E+02  0.00000000000E+00 0.  1.
         11    1    3    3    0    0 -0.66822613841E+01 -0.48076932784E+01 -0.19382776245E+02  0.21058455477E+02  0.51100000000E-03 0. -1.
        -11    1    3    3    0    0 -0.66112476915E+00  0.19967901047E+01  0.12515946864E+01  0.24476000905E+01  0.51100000000E-03 0.  1.
         12    1    3    3    0    0  0.12347929113E+02  0.10976905551E+02 -0.21383832995E+02  0.27022807449E+02  0.00000000000E+00 0. -1.
</event>
<event>
 7    1  0.2584640E-011  0.5052886E+02  0.7816164E-02  0.1300439E+00
        -11   -1    0    0    0    0  0.00000000000E+00  0.00000000000E+00  0.45593999997E+02  0.45594000000E+02  0.51100000000E-03 0.  1.
         11   -1    0    0    0    0 -0.00000000000E+00 -0.00000000000E+00 -0.45593999997E+02  0.45594000000E+02  0.51100000000E-03 0. -1.
    9900012    2    1    2    0    0 -0.15436809129E+02 -0.27520777684E+02 -0.25641322884E+02  0.50528859334E+02  0.29999998433E+02 0.  0.
        -12    1    1    2    0    0  0.15436809129E+02  0.27520777684E+02  0.25641322884E+02  0.40659140666E+02  0.00000000000E+00 0.  1.
         11    1    3    3    0    0 -0.92078210479E+00 -0.15019076787E+02 -0.21189472003E+01  0.15195737715E+02  0.51100000000E-03 0. -1.
        -11    1    3    3    0    0  0.32161792130E+01 -0.15914870635E+01  0.41041564802E+00  0.36117974844E+01  0.51100000000E-03 0.  1.
         12    1    3    3    0    0 -0.17732206237E+02 -0.10910213834E+02 -0.23932791332E+02  0.31721324135E+02  0.00000000000E+00 0. -1.
</event>
<event>
 7    1  0.2584640E-011  0.5052887E+02  0.7816164E-02  0.1300439E+00
        -11   -1    0    0    0    0  0.00000000000E+00  0.00000000000E+00  0.45593999997E+02  0.45594000000E+02  0.51100000000E-03 0.  1.
         11   -1    0    0    0    0 -0.00000000000E+00 -0.00000000000E+00 -0.45593999997E+02  0.45594000000E+02  0.51100000000E-03 0. -1.
    9900012    2    1    2    0    0 -0.84731898276E+01  0.33549068288E+01 -0.39624667013E+02  0.50528873330E+02  0.30000040972E+02 0.  0.
        -12    1    1    2    0    0  0.84731898276E+01 -0.33549068288E+01  0.39624667013E+02  0.40659126670E+02  0.00000000000E+00 0.  1.
         11    1    3    3    0    0 -0.93619789849E+01  0.14501893166E+01 -0.51367623254E+01  0.10776642660E+02  0.51100000000E-03 0. -1.
        -11    1    3    3    0    0 -0.33872634704E+00 -0.88937705530E+01 -0.15326246078E+02  0.17723084080E+02  0.51100000000E-03 0.  1.
         12    1    3    3    0    0  0.12275155044E+01  0.10798488065E+02 -0.19161658610E+02  0.22029146590E+02  0.00000000000E+00 0. -1.
</event>
<event>
 7    1  0.2584640E-011  0.5052886E+02  0.7816164E-02  0.1300439E+00
        -11   -1    0    0    0    0  0.00000000000E+00  0.00000000000E+00  0.45593999997E+02  0.45594000000E+02  0.51100000000E-03 0. -1.
         11   -1    0    0    0    0 -0.00000000000E+00 -0.00000000000E+00 -0.45593999997E+02  0.45594000000E+02  0.51100000000E-03 0.  1.
    9900012    2    1    2    0    0 -0.37907245325E+02 -0.58516417596E+01  0.13489418863E+02  0.50528863503E+02  0.30000011103E+02 0.  0.
        -12    1    1    2    0    0  0.37907245325E+02  0.58516417596E+01 -0.13489418863E+02  0.40659136497E+02  0.00000000000E+00 0.  1.
         11    1    3    3    0    0 -0.12601983786E+02 -0.42200473448E+01 -0.25388590016E+01  0.13530136741E+02  0.51100000000E-03 0. -1.
        -11    1    3    3    0    0 -0.50621425396E+01  0.80355164545E+01  0.12039034583E+00  0.94978579627E+01  0.51100000000E-03 0.  1.
         12    1    3    3    0    0 -0.20243118999E+02 -0.96671108694E+01  0.15907887519E+02  0.27500868799E+02  0.00000000000E+00 0. -1.
</event>
<event>
 7    1  0.2584640E-011  0.5052886E+02  0.7816164E-02  0.1300439E+00
        -11   -1    0    0    0    0  0.00000000000E+00  0.00000000000E+00  0.45593999997E+02  0.45594000000E+02  0.51100000000E-03 0.  1.
         11   -1    0    0    0    0 -0.00000000000E+00 -0.00000000000E+00 -0.45593999997E+02  0.45594000000E+02  0.51100000000E-03 0. -1.
    9900012    2    1    2    0    0 -0.83852011276E+00  0.21761743994E+02 -0.34334950619E+02  0.50528862630E+02  0.30000008450E+02 0.  0.
        -12    1    1    2    0    0  0.83852011276E+00 -0.21761743994E+02  0.34334950619E+02  0.40659137370E+02  0.00000000000E+00 0.  1.
         11    1    3    3    0    0  0.37894944665E+00  0.17033708340E+02 -0.28961698398E+02  0.33601648722E+02  0.51100000000E-03 0. -1.
        -11    1    3    3    0    0  0.14618320002E+01  0.99784946711E+01 -0.26109297750E+01  0.10417497936E+02  0.51100000000E-03 0.  1.
        -12    1    3    3    0    0 -0.26793015596E+01 -0.52504590168E+01 -0.27623224463E+01  0.65097159717E+01  0.00000000000E+00 0.  1.
</event>
<event>
 7    1  0.2584640E-011  0.5052880E+02  0.7816164E-02  0.1300439E+00
        -11   -1    0    0    0    0  0.00000000000E+00  0.00000000000E+00  0.45593999997E+02  0.45594000000E+02  0.51100000000E-03 0. -1.
         11   -1    0    0    0    0 -0.00000000000E+00 -0.00000000000E+00 -0.45593999997E+02  0.45594000000E+02  0.51100000000E-03 0.  1.
    9900012    2    1    2    0    0  0.10222906289E+02 -0.53608653807E+01  0.38986198463E+02  0.50528802256E+02  0.29999824936E+02 0.  0.
        -12    1    1    2    0    0 -0.10222906289E+02  0.53608653807E+01 -0.38986198463E+02  0.40659197744E+02  0.00000000000E+00 0.  1.
         11    1    3    3    0    0  0.16239679892E+01 -0.12839316644E+02  0.11693751955E+02  0.17442166120E+02  0.51100000000E-03 0. -1.
        -11    1    3    3    0    0  0.21001650719E+01 -0.45582653720E+01  0.69479464965E+01  0.85710231192E+01  0.51100000000E-03 0.  1.
         12    1    3    3    0    0  0.64987732279E+01  0.12036716636E+02  0.20344500012E+02  0.24515613016E+02  0.00000000000E+00 0. -1.
</event>
<event>
 7    1  0.2584640E-011  0.5052886E+02  0.7816164E-02  0.1300439E+00
        -11   -1    0    0    0    0  0.00000000000E+00  0.00000000000E+00  0.45593999997E+02  0.45594000000E+02  0.51100000000E-03 0.  1.
         11   -1    0    0    0    0 -0.00000000000E+00 -0.00000000000E+00 -0.45593999997E+02  0.45594000000E+02  0.51100000000E-03 0. -1.
    9900012    2    1    2    0    0 -0.32565660863E+02  0.10890677921E+02 -0.21772378629E+02  0.50528860754E+02  0.30000002748E+02 0.  0.
        -12    1    1    2    0    0  0.32565660863E+02 -0.10890677921E+02  0.21772378629E+02  0.40659139246E+02  0.00000000000E+00 0.  1.
         11    1    3    3    0    0 -0.22470777914E+02  0.91936638893E+00 -0.45710739723E+01  0.22949418557E+02  0.51100000000E-03 0. -1.
        -11    1    3    3    0    0 -0.14945352008E+01 -0.26129343368E+01 -0.10510829911E+02  0.10933371254E+02  0.51100000000E-03 0.  1.
         12    1    3    3    0    0 -0.86003477487E+01  0.12584245869E+02 -0.66904747465E+01  0.16646070942E+02  0.00000000000E+00 0. -1.
</event>
<event>
 7    1  0.2584640E-011  0.5052886E+02  0.7816164E-02  0.1300439E+00
        -11   -1    0    0    0    0  0.00000000000E+00  0.00000000000E+00  0.45593999997E+02  0.45594000000E+02  0.51100000000E-03 0.  1.
         11   -1    0    0    0    0 -0.00000000000E+00 -0.00000000000E+00 -0.45593999997E+02  0.45594000000E+02  0.51100000000E-03 0. -1.
    9900012    2    1    2    0    0 -0.20620155728E+02  0.61026164219E+01 -0.34506996414E+02  0.50528861408E+02  0.30000004737E+02 0.  0.
        -12    1    1    2    0    0  0.20620155728E+02 -0.61026164219E+01  0.34506996414E+02  0.40659138592E+02  0.00000000000E+00 0.  1.
         11    1    3    3    0    0 -0.21732458401E+02  0.48902177776E+00 -0.18419975136E+02  0.28492707395E+02  0.51100000000E-03 0. -1.
        -11    1    3    3    0    0 -0.21090941533E+01 -0.16493771334E+01  0.12577685587E+01  0.29581590701E+01  0.51100000000E-03 0.  1.
        -12    1    3    3    0    0  0.32213968257E+01  0.72629717776E+01 -0.17344789837E+02  0.19077994943E+02  0.00000000000E+00 0.  1.
</event>
<event>
 7    1  0.2584640E-011  0.5052886E+02  0.7816164E-02  0.1300439E+00
        -11   -1    0    0    0    0  0.00000000000E+00  0.00000000000E+00  0.45593999997E+02  0.45594000000E+02  0.51100000000E-03 0. -1.
         11   -1    0    0    0    0 -0.00000000000E+00 -0.00000000000E+00 -0.45593999997E+02  0.45594000000E+02  0.51100000000E-03 0.  1.
    9900012    2    1    2    0    0 -0.26375532401E+02  0.30166946941E+02  0.68885876523E+01  0.50528855432E+02  0.29999986571E+02 0.  0.
        -12    1    1    2    0    0  0.26375532401E+02 -0.30166946941E+02 -0.68885876523E+01  0.40659144568E+02  0.00000000000E+00 0.  1.
         11    1    3    3    0    0 -0.15502421386E+02  0.75454383947E+00  0.60167680124E+01  0.16646197849E+02  0.51100000000E-03 0. -1.
        -11    1    3    3    0    0  0.26943959790E+01  0.79335942872E+01 -0.83613643681E+00  0.84202620153E+01  0.51100000000E-03 0.  1.
        -12    1    3    3    0    0 -0.13567506994E+02  0.21478808814E+02  0.17079560767E+01  0.25462395568E+02  0.00000000000E+00 0.  1.
</event>
<event>
 7    1  0.2584640E-011  0.5052886E+02  0.7816164E-02  0.1300439E+00
        -11   -1    0    0    0    0  0.00000000000E+00  0.00000000000E+00  0.45593999997E+02  0.45594000000E+02  0.51100000000E-03 0. -1.
         11   -1    0    0    0    0 -0.00000000000E+00 -0.00000000000E+00 -0.45593999997E+02  0.45594000000E+02  0.51100000000E-03 0.  1.
    9900012    2    1    2    0    0 -0.18882857429E+02  0.24178778924E+02  0.26683145450E+02  0.50528857042E+02  0.29999991466E+02 0.  0.
        -12    1    1    2    0    0  0.18882857429E+02 -0.24178778924E+02 -0.26683145450E+02  0.40659142958E+02  0.00000000000E+00 0.  1.
         11    1    3    3    0    0 -0.77680167351E+01  0.42364589966E+01  0.54879704285E+01  0.10411891687E+02  0.51100000000E-03 0. -1.
        -11    1    3    3    0    0  0.37181517310E+01 -0.41176010333E+01  0.53815369231E+01  0.77291804534E+01  0.51100000000E-03 0.  1.
         12    1    3    3    0    0 -0.14832992425E+02  0.24059920961E+02  0.15813638098E+02  0.32387784902E+02  0.00000000000E+00 0. -1.
</event>
<event>
 7    1  0.2744854E-011  0.5052885E+02  0.7816164E-02  0.1300439E+00
        -11   -1    0    0    0    0  0.00000000000E+00  0.00000000000E+00  0.45593999997E+02  0.45594000000E+02  0.51100000000E-03 0. -1.
         11   -1    0    0    0    0 -0.00000000000E+00 -0.00000000000E+00 -0.45593999997E+02  0.45594000000E+02  0.51100000000E-03 0.  1.
    9900012    2    1    2    0    0 -0.40554289043E+02  0.26338257453E+01  0.12567178427E+01  0.50528846817E+02  0.29999960385E+02 0.  0.
        -12    1    1    2    0    0  0.40554289043E+02 -0.26338257453E+01 -0.12567178427E+01  0.40659153183E+02  0.00000000000E+00 0.  1.
         11    1    3    3    0    0 -0.22801225218E+02 -0.54036262338E+00 -0.28857116821E+01  0.22989458354E+02  0.51100000000E-03 0.  1.
        -11    1    3    3    0    0 -0.17709322809E+02 -0.45155616530E+01  0.66542709035E+01  0.19449671794E+02  0.51100000000E-03 0. -1.
        -12    1    3    3    0    0 -0.43741015534E-01  0.76897500217E+01 -0.25118413787E+01  0.80897166690E+01  0.00000000000E+00 0.  1.
</event>
<event>
 7    1  0.2584640E-011  0.5052886E+02  0.7816164E-02  0.1300439E+00
        -11   -1    0    0    0    0  0.00000000000E+00  0.00000000000E+00  0.45593999997E+02  0.45594000000E+02  0.51100000000E-03 0.  1.
         11   -1    0    0    0    0 -0.00000000000E+00 -0.00000000000E+00 -0.45593999997E+02  0.45594000000E+02  0.51100000000E-03 0. -1.
    9900012    2    1    2    0    0 -0.12074059193E+02  0.38781862305E+02  0.18303466363E+01  0.50528856895E+02  0.29999991018E+02 0.  0.
        -12    1    1    2    0    0  0.12074059193E+02 -0.38781862305E+02 -0.18303466363E+01  0.40659143105E+02  0.00000000000E+00 0.  1.
         11    1    3    3    0    0  0.47503269884E+01  0.14414241503E+02  0.10269936466E+02  0.18325052794E+02  0.51100000000E-03 0. -1.
        -11    1    3    3    0    0 -0.78736927617E+01  0.56868110459E+01  0.30938301432E+00  0.97175395902E+01  0.51100000000E-03 0.  1.
        -12    1    3    3    0    0 -0.89506934195E+01  0.18680809756E+02 -0.87489728443E+01  0.22486264511E+02  0.00000000000E+00 0.  1.
</event>
<event>
 7    1  0.2584640E-011  0.5052886E+02  0.7816164E-02  0.1300439E+00
        -11   -1    0    0    0    0  0.00000000000E+00  0.00000000000E+00  0.45593999997E+02  0.45594000000E+02  0.51100000000E-03 0. -1.
         11   -1    0    0    0    0 -0.00000000000E+00 -0.00000000000E+00 -0.45593999997E+02  0.45594000000E+02  0.51100000000E-03 0.  1.
    9900012    2    1    2    0    0  0.19277961075E+02 -0.26257855192E+02  0.24332093047E+02  0.50528862103E+02  0.30000006847E+02 0.  0.
        -12    1    1    2    0    0 -0.19277961075E+02  0.26257855192E+02 -0.24332093047E+02  0.40659137897E+02  0.00000000000E+00 0.  1.
         11    1    3    3    0    0  0.37492139785E+01 -0.47594550041E+01  0.60832047759E+00  0.60892586952E+01  0.51100000000E-03 0.  1.
        -11    1    3    3    0    0  0.96227118715E+01 -0.55523108942E+01  0.25030061823E+02  0.27384826732E+02  0.51100000000E-03 0. -1.
         12    1    3    3    0    0  0.59060352249E+01 -0.15946089294E+02 -0.13062892530E+01  0.17054776676E+02  0.00000000000E+00 0. -1.
</event>
<event>
 7    1  0.2584640E-011  0.5052885E+02  0.7816164E-02  0.1300439E+00
        -11   -1    0    0    0    0  0.00000000000E+00  0.00000000000E+00  0.45593999997E+02  0.45594000000E+02  0.51100000000E-03 0.  1.
         11   -1    0    0    0    0 -0.00000000000E+00 -0.00000000000E+00 -0.45593999997E+02  0.45594000000E+02  0.51100000000E-03 0. -1.
    9900012    2    1    2    0    0  0.37520791753E+01 -0.29233040615E+02 -0.28009243791E+02  0.50528849745E+02  0.29999969284E+02 0.  0.
        -12    1    1    2    0    0 -0.37520791753E+01  0.29233040615E+02  0.28009243791E+02  0.40659150255E+02  0.00000000000E+00 0.  1.
         11    1    3    3    0    0  0.11732848273E+02 -0.19946564499E+02 -0.29820642259E+02  0.37746468297E+02  0.51100000000E-03 0. -1.
        -11    1    3    3    0    0 -0.17212536854E+01 -0.38904068802E+00  0.77440515140E-01  0.17663703465E+01  0.51100000000E-03 0.  1.
        -12    1    3    3    0    0 -0.62595154124E+01 -0.88974354281E+01  0.17339579528E+01  0.11016011101E+02  0.00000000000E+00 0.  1.
</event>
<event>
 7    1  0.2584640E-011  0.5052885E+02  0.7816164E-02  0.1300439E+00
        -11   -1    0    0    0    0  0.00000000000E+00  0.00000000000E+00  0.45593999997E+02  0.45594000000E+02  0.51100000000E-03 0.  1.
         11   -1    0    0    0    0 -0.00000000000E+00 -0.00000000000E+00 -0.45593999997E+02  0.45594000000E+02  0.51100000000E-03 0. -1.
    9900012    2    1    2    0    0  0.25632382964E+02 -0.16032364772E+02 -0.27186595580E+02  0.50528846592E+02  0.29999959702E+02 0.  0.
        -12    1    1    2    0    0 -0.25632382964E+02  0.16032364772E+02  0.27186595580E+02  0.40659153408E+02  0.00000000000E+00 0.  1.
         11    1    3    3    0    0  0.13818968954E+02 -0.24274489139E+01 -0.91364245887E+01  0.16743078143E+02  0.51100000000E-03 0. -1.
        -11    1    3    3    0    0  0.45753868970E+01  0.49074281169E+01  0.32390905762E+00  0.67172861573E+01  0.51100000000E-03 0.  1.
        -12    1    3    3    0    0  0.72380271124E+01 -0.18512343975E+02 -0.18374080049E+02  0.27068482292E+02  0.00000000000E+00 0.  1.
</event>
<event>
 7    1  0.2584640E-011  0.5052885E+02  0.7816164E-02  0.1300439E+00
        -11   -1    0    0    0    0  0.00000000000E+00  0.00000000000E+00  0.45593999997E+02  0.45594000000E+02  0.51100000000E-03 0.  1.
         11   -1    0    0    0    0 -0.00000000000E+00 -0.00000000000E+00 -0.45593999997E+02  0.45594000000E+02  0.51100000000E-03 0. -1.
    9900012    2    1    2    0    0  0.15586991775E+02 -0.11795509992E+02 -0.35652187545E+02  0.50528845492E+02  0.29999956358E+02 0.  0.
        -12    1    1    2    0    0 -0.15586991775E+02  0.11795509992E+02  0.35652187545E+02  0.40659154508E+02  0.00000000000E+00 0.  1.
         11    1    3    3    0    0  0.13427026605E+02  0.50846234416E+01 -0.18400207543E+02  0.23338939069E+02  0.51100000000E-03 0. -1.
        -11    1    3    3    0    0 -0.38733409876E+01 -0.10587546586E+01 -0.42002757169E+01  0.58108560637E+01  0.51100000000E-03 0.  1.
        -12    1    3    3    0    0  0.60333061572E+01 -0.15821378775E+02 -0.13051704285E+02  0.21379050360E+02  0.00000000000E+00 0.  1.
</event>
<event>
 7    1  0.2584640E-011  0.5052885E+02  0.7816164E-02  0.1300439E+00
        -11   -1    0    0    0    0  0.00000000000E+00  0.00000000000E+00  0.45593999997E+02  0.45594000000E+02  0.51100000000E-03 0. -1.
         11   -1    0    0    0    0 -0.00000000000E+00 -0.00000000000E+00 -0.45593999997E+02  0.45594000000E+02  0.51100000000E-03 0.  1.
    9900012    2    1    2    0    0 -0.22200091179E+02 -0.31790076000E+02  0.12235737605E+02  0.50528852749E+02  0.29999978416E+02 0.  0.
        -12    1    1    2    0    0  0.22200091179E+02  0.31790076000E+02 -0.12235737605E+02  0.40659147251E+02  0.00000000000E+00 0.  1.
         11    1    3    3    0    0 -0.98921592628E+01 -0.16421721821E+02  0.12646617653E+02  0.22966599678E+02  0.51100000000E-03 0. -1.
        -11    1    3    3    0    0 -0.14816566345E+02 -0.64559297531E+01 -0.54058211604E+01  0.17042082324E+02  0.51100000000E-03 0.  1.
         12    1    3    3    0    0  0.25086344288E+01 -0.89124244252E+01  0.49949411129E+01  0.10520170747E+02  0.00000000000E+00 0. -1.
</event>
<event>
 7    1  0.2584640E-011  0.5052885E+02  0.7816164E-02  0.1300439E+00
        -11   -1    0    0    0    0  0.00000000000E+00  0.00000000000E+00  0.45593999997E+02  0.45594000000E+02  0.51100000000E-03 0.  1.
         11   -1    0    0    0    0 -0.00000000000E+00 -0.00000000000E+00 -0.45593999997E+02  0.45594000000E+02  0.51100000000E-03 0. -1.
    9900012    2    1    2    0    0 -0.79611043264E+01  0.39692274462E+02 -0.37828950492E+01  0.50528854301E+02  0.29999983133E+02 0.  0.
        -12    1    1    2    0    0  0.79611043264E+01 -0.39692274462E+02  0.37828950492E+01  0.40659145699E+02  0.00000000000E+00 0.  1.
         11    1    3    3    0    0  0.10098419416E+01  0.33824938422E+02  0.50908698141E+01  0.34220800629E+02  0.51100000000E-03 0. -1.
        -11    1    3    3    0    0 -0.61701737556E+01  0.63170076282E+01 -0.22650143652E+01  0.91162448346E+01  0.51100000000E-03 0.  1.
        -12    1    3    3    0    0 -0.28007725124E+01 -0.44967158816E+00 -0.66087504981E+01  0.71918088371E+01  0.00000000000E+00 0.  1.
</event>
<event>
 7    1  0.2584640E-011  0.5052886E+02  0.7816164E-02  0.1300439E+00
        -11   -1    0    0    0    0  0.00000000000E+00  0.00000000000E+00  0.45593999997E+02  0.45594000000E+02  0.51100000000E-03 0. -1.
         11   -1    0    0    0    0 -0.00000000000E+00 -0.00000000000E+00 -0.45593999997E+02  0.45594000000E+02  0.51100000000E-03 0.  1.
    9900012    2    1    2    0    0 -0.31644470237E+02  0.21184916832E+02 -0.14247540999E+02  0.50528860532E+02  0.30000002074E+02 0.  0.
        -12    1    1    2    0    0  0.31644470237E+02 -0.21184916832E+02  0.14247540999E+02  0.40659139468E+02  0.00000000000E+00 0.  1.
         11    1    3    3    0    0 -0.76364352443E+01  0.56793340612E+01 -0.82620074452E+01  0.12602807064E+02  0.51100000000E-03 0.  1.
        -11    1    3    3    0    0  0.27788647238E+01 -0.14551911047E+01 -0.53653175389E+01  0.62150062638E+01  0.51100000000E-03 0. -1.
         12    1    3    3    0    0 -0.26786899716E+02  0.16960773875E+02 -0.62021601499E+00  0.31711047204E+02  0.00000000000E+00 0. -1.
</event>
<event>
 7    1  0.2584640E-011  0.5052886E+02  0.7816164E-02  0.1300439E+00
        -11   -1    0    0    0    0  0.00000000000E+00  0.00000000000E+00  0.45593999997E+02  0.45594000000E+02  0.51100000000E-03 0.  1.
         11   -1    0    0    0    0 -0.00000000000E+00 -0.00000000000E+00 -0.45593999997E+02  0.45594000000E+02  0.51100000000E-03 0. -1.
    9900012    2    1    2    0    0 -0.65976492518E+01 -0.13990494405E+02 -0.37601896655E+02  0.50528861526E+02  0.30000005096E+02 0.  0.
        -12    1    1    2    0    0  0.65976492518E+01  0.13990494405E+02  0.37601896655E+02  0.40659138474E+02  0.00000000000E+00 0.  1.
         11    1    3    3    0    0 -0.70306141260E+01 -0.15253074094E+02 -0.15863829119E+02  0.23102962556E+02  0.51100000000E-03 0. -1.
        -11    1    3    3    0    0  0.30940045211E+01 -0.41506630058E+01 -0.20659535293E+02  0.21298292564E+02  0.51100000000E-03 0.  1.
         12    1    3    3    0    0 -0.26610396470E+01  0.54132426943E+01 -0.10785322435E+01  0.61276064063E+01  0.00000000000E+00 0. -1.
</event>
<event>
 7    1  0.2584640E-011  0.5052886E+02  0.7816164E-02  0.1300439E+00
        -11   -1    0    0    0    0  0.00000000000E+00  0.00000000000E+00  0.45593999997E+02  0.45594000000E+02  0.51100000000E-03 0.  1.
         11   -1    0    0    0    0 -0.00000000000E+00 -0.00000000000E+00 -0.45593999997E+02  0.45594000000E+02  0.51100000000E-03 0. -1.
    9900012    2    1    2    0    0  0.72214565971E+01 -0.16056928109E+02 -0.36649574264E+02  0.50528859952E+02  0.30000000311E+02 0.  0.
        -12    1    1    2    0    0 -0.72214565971E+01  0.16056928109E+02  0.36649574264E+02  0.40659140048E+02  0.00000000000E+00 0.  1.
         11    1    3    3    0    0 -0.33011962828E+01  0.34891867680E+01 -0.24457084439E+01  0.53901587410E+01  0.51100000000E-03 0. -1.
        -11    1    3    3    0    0 -0.27458010185E+01 -0.93801149025E+01 -0.23069618279E+02  0.25054605696E+02  0.51100000000E-03 0.  1.
        -12    1    3    3    0    0  0.13268453898E+02 -0.10165999975E+02 -0.11134247541E+02  0.20084095515E+02  0.00000000000E+00 0.  1.
</event>
<event>
 7    1  0.2584640E-011  0.5052874E+02  0.7816164E-02  0.1300439E+00
        -11   -1    0    0    0    0  0.00000000000E+00  0.00000000000E+00  0.45593999997E+02  0.45594000000E+02  0.51100000000E-03 0.  1.
         11   -1    0    0    0    0 -0.00000000000E+00 -0.00000000000E+00 -0.45593999997E+02  0.45594000000E+02  0.51100000000E-03 0. -1.
    9900012    2    1    2    0    0 -0.25837628459E+02 -0.10900882466E+02 -0.29440836547E+02  0.50528743496E+02  0.29999646328E+02 0.  0.
        -12    1    1    2    0    0  0.25837628459E+02  0.10900882466E+02  0.29440836547E+02  0.40659256504E+02  0.00000000000E+00 0.  1.
         11    1    3    3    0    0 -0.13527090192E+02 -0.77671177068E+01 -0.26475098549E+02  0.30728506797E+02  0.51100000000E-03 0. -1.
        -11    1    3    3    0    0 -0.81138760244E+01  0.27799025387E+01 -0.73765609939E+01  0.11312669650E+02  0.51100000000E-03 0.  1.
        -12    1    3    3    0    0 -0.41966622420E+01 -0.59136672979E+01  0.44108229965E+01  0.84875670478E+01  0.00000000000E+00 0.  1.
</event>
<event>
 7    1  0.2584640E-011  0.5052886E+02  0.7816164E-02  0.1300439E+00
        -11   -1    0    0    0    0  0.00000000000E+00  0.00000000000E+00  0.45593999997E+02  0.45594000000E+02  0.51100000000E-03 0.  1.
         11   -1    0    0    0    0 -0.00000000000E+00 -0.00000000000E+00 -0.45593999997E+02  0.45594000000E+02  0.51100000000E-03 0. -1.
    9900012    2    1    2    0    0  0.40504796323E+02 -0.20949729400E+01  0.28527895436E+01  0.50528857794E+02  0.29999993750E+02 0.  0.
        -12    1    1    2    0    0 -0.40504796323E+02  0.20949729400E+01 -0.28527895436E+01  0.40659142206E+02  0.00000000000E+00 0.  1.
         11    1    3    3    0    0  0.29822689843E+02  0.60654247452E+01  0.64664851393E+01  0.31112660399E+02  0.51100000000E-03 0. -1.
        -11    1    3    3    0    0  0.11951370252E+02 -0.22648801799E+01 -0.51241538141E+01  0.13199313834E+02  0.51100000000E-03 0.  1.
        -12    1    3    3    0    0 -0.12692637716E+01 -0.58955175054E+01  0.15104582184E+01  0.62168835607E+01  0.00000000000E+00 0.  1.
</event>
<event>
 7    1  0.2584640E-011  0.5052886E+02  0.7816164E-02  0.1300439E+00
        -11   -1    0    0    0    0  0.00000000000E+00  0.00000000000E+00  0.45593999997E+02  0.45594000000E+02  0.51100000000E-03 0.  1.
         11   -1    0    0    0    0 -0.00000000000E+00 -0.00000000000E+00 -0.45593999997E+02  0.45594000000E+02  0.51100000000E-03 0. -1.
    9900012    2    1    2    0    0 -0.19805290446E+02  0.51840621657E+01 -0.35128930689E+02  0.50528858328E+02  0.29999995374E+02 0.  0.
        -12    1    1    2    0    0  0.19805290446E+02 -0.51840621657E+01  0.35128930689E+02  0.40659141672E+02  0.00000000000E+00 0.  1.
         11    1    3    3    0    0 -0.27360140758E+00  0.13311820788E+01  0.29084102182E+01  0.32102575777E+01  0.51100000000E-03 0. -1.
        -11    1    3    3    0    0  0.86184089102E+00  0.72654907582E+01 -0.12206065506E+02  0.14230887572E+02  0.51100000000E-03 0.  1.
         12    1    3    3    0    0 -0.20393529929E+02 -0.34126106712E+01 -0.25831275401E+02  0.33087713179E+02  0.00000000000E+00 0. -1.
</event>
<event>
 7    1  0.2584640E-011  0.5052887E+02  0.7816164E-02  0.1300439E+00
        -11   -1    0    0    0    0  0.00000000000E+00  0.00000000000E+00  0.45593999997E+02  0.45594000000E+02  0.51100000000E-03 0. -1.
         11   -1    0    0    0    0 -0.00000000000E+00 -0.00000000000E+00 -0.45593999997E+02  0.45594000000E+02  0.51100000000E-03 0.  1.
    9900012    2    1    2    0    0  0.26783779371E+02  0.24015341067E+02  0.18948803494E+02  0.50528873131E+02  0.30000040369E+02 0.  0.
        -12    1    1    2    0    0 -0.26783779371E+02 -0.24015341067E+02 -0.18948803494E+02  0.40659126869E+02  0.00000000000E+00 0.  1.
         11    1    3    3    0    0  0.13650813412E+02 -0.47414112476E+01  0.52842190660E+01  0.15386638971E+02  0.51100000000E-03 0. -1.
        -11    1    3    3    0    0  0.28643237804E+01  0.15232952957E+01  0.18152646602E+01  0.37175213953E+01  0.51100000000E-03 0.  1.
        -12    1    3    3    0    0  0.10268642178E+02  0.27233457019E+02  0.11849319767E+02  0.31424712764E+02  0.00000000000E+00 0.  1.
</event>
<event>
 7    1  0.2584640E-011  0.5052886E+02  0.7816164E-02  0.1300439E+00
        -11   -1    0    0    0    0  0.00000000000E+00  0.00000000000E+00  0.45593999997E+02  0.45594000000E+02  0.51100000000E-03 0.  1.
         11   -1    0    0    0    0 -0.00000000000E+00 -0.00000000000E+00 -0.45593999997E+02  0.45594000000E+02  0.51100000000E-03 0. -1.
    9900012    2    1    2    0    0 -0.12420636728E+02  0.10238411345E+01 -0.38702007994E+02  0.50528857237E+02  0.29999992058E+02 0.  0.
        -12    1    1    2    0    0  0.12420636728E+02 -0.10238411345E+01  0.38702007994E+02  0.40659142763E+02  0.00000000000E+00 0.  1.
         11    1    3    3    0    0 -0.53619839918E+00 -0.32367864280E+01  0.21645487793E+01  0.39305936934E+01  0.51100000000E-03 0. -1.
        -11    1    3    3    0    0  0.26647525354E+01 -0.27733938506E+01 -0.16548700684E+01  0.41870293443E+01  0.51100000000E-03 0.  1.
         12    1    3    3    0    0 -0.14549190865E+02  0.70340214131E+01 -0.39211686705E+02  0.42411234200E+02  0.00000000000E+00 0. -1.
</event>
<event>
 7    1  0.2584640E-011  0.5052886E+02  0.7816164E-02  0.1300439E+00
        -11   -1    0    0    0    0  0.00000000000E+00  0.00000000000E+00  0.45593999997E+02  0.45594000000E+02  0.51100000000E-03 0.  1.
         11   -1    0    0    0    0 -0.00000000000E+00 -0.00000000000E+00 -0.45593999997E+02  0.45594000000E+02  0.51100000000E-03 0. -1.
    9900012    2    1    2    0    0 -0.40039491170E+02  0.23212699732E+01 -0.66795677796E+01  0.50528858676E+02  0.29999996432E+02 0.  0.
        -12    1    1    2    0    0  0.40039491170E+02 -0.23212699732E+01  0.66795677796E+01  0.40659141324E+02  0.00000000000E+00 0.  1.
         11    1    3    3    0    0 -0.25898971771E+02 -0.58525062340E+01 -0.51358705620E+01  0.27044144185E+02  0.51100000000E-03 0. -1.
        -11    1    3    3    0    0 -0.36080795495E+01 -0.51193445480E+01  0.97592763677E+00  0.63386403628E+01  0.51100000000E-03 0.  1.
        -12    1    3    3    0    0 -0.10532439850E+02  0.13293120755E+02 -0.25196248544E+01  0.17146074128E+02  0.00000000000E+00 0.  1.
</event>
<event>
 7    1  0.2584640E-011  0.5052886E+02  0.7816164E-02  0.1300439E+00
        -11   -1    0    0    0    0  0.00000000000E+00  0.00000000000E+00  0.45593999997E+02  0.45594000000E+02  0.51100000000E-03 0.  1.
         11   -1    0    0    0    0 -0.00000000000E+00 -0.00000000000E+00 -0.45593999997E+02  0.45594000000E+02  0.51100000000E-03 0. -1.
    9900012    2    1    2    0    0 -0.79276451487E+01 -0.49749735260E+01 -0.39567251683E+02  0.50528864188E+02  0.30000013186E+02 0.  0.
        -12    1    1    2    0    0  0.79276451487E+01  0.49749735260E+01  0.39567251683E+02  0.40659135812E+02  0.00000000000E+00 0.  1.
         11    1    3    3    0    0 -0.22096210678E+01  0.82160986202E+01 -0.66216255734E+01  0.10781123656E+02  0.51100000000E-03 0. -1.
        -11    1    3    3    0    0 -0.10368352217E+02 -0.47577108824E+01 -0.24133837808E+02  0.26694206640E+02  0.51100000000E-03 0.  1.
         12    1    3    3    0    0  0.46503281359E+01 -0.84333612638E+01 -0.88117883018E+01  0.13053533891E+02  0.00000000000E+00 0. -1.
</event>
<event>
 7    1  0.2584640E-011  0.5052886E+02  0.7816164E-02  0.1300439E+00
        -11   -1    0    0    0    0  0.00000000000E+00  0.00000000000E+00  0.45593999997E+02  0.45594000000E+02  0.51100000000E-03 0.  1.
         11   -1    0    0    0    0 -0.00000000000E+00 -0.00000000000E+00 -0.45593999997E+02  0.45594000000E+02  0.51100000000E-03 0. -1.
    9900012    2    1    2    0    0 -0.37924822464E+02  0.30993862148E+01 -0.14327166092E+02  0.50528855370E+02  0.29999986381E+02 0.  0.
        -12    1    1    2    0    0  0.37924822464E+02 -0.30993862148E+01  0.14327166092E+02  0.40659144630E+02  0.00000000000E+00 0.  1.
         11    1    3    3    0    0 -0.24074305894E+02 -0.24938682789E+01 -0.21960621776E+02  0.32681194781E+02  0.51100000000E-03 0. -1.
        -11    1    3    3    0    0 -0.33755336368E+01  0.32135195732E+01 -0.15739480356E-01  0.46605990358E+01  0.51100000000E-03 0.  1.
        -12    1    3    3    0    0 -0.10474982933E+02  0.23797349205E+01  0.76491951638E+01  0.13187061553E+02  0.00000000000E+00 0.  1.
</event>
<event>
 7    1  0.2584640E-011  0.5052887E+02  0.7816164E-02  0.1300439E+00
        -11   -1    0    0    0    0  0.00000000000E+00  0.00000000000E+00  0.45593999997E+02  0.45594000000E+02  0.51100000000E-03 0. -1.
         11   -1    0    0    0    0 -0.00000000000E+00 -0.00000000000E+00 -0.45593999997E+02  0.45594000000E+02  0.51100000000E-03 0.  1.
    9900012    2    1    2    0    0 -0.38473322292E+02  0.11658437470E+02  0.60868157386E+01  0.50528867960E+02  0.30000024651E+02 0.  0.
        -12    1    1    2    0    0  0.38473322292E+02 -0.11658437470E+02 -0.60868157386E+01  0.40659132040E+02  0.00000000000E+00 0.  1.
         11    1    3    3    0    0 -0.51389470443E+01 -0.63526851105E+00  0.94117858641E+01  0.10742162549E+02  0.51100000000E-03 0. -1.
        -11    1    3    3    0    0  0.62104873811E+00 -0.86605955606E+00 -0.31971943092E+01  0.33701353684E+01  0.51100000000E-03 0.  1.
         12    1    3    3    0    0 -0.33955423986E+02  0.13159765537E+02 -0.12777581636E+00  0.36416570043E+02  0.00000000000E+00 0. -1.
</event>
<event>
 7    1  0.2584640E-011  0.5052886E+02  0.7816164E-02  0.1300439E+00
        -11   -1    0    0    0    0  0.00000000000E+00  0.00000000000E+00  0.45593999997E+02  0.45594000000E+02  0.51100000000E-03 0. -1.
         11   -1    0    0    0    0 -0.00000000000E+00 -0.00000000000E+00 -0.45593999997E+02  0.45594000000E+02  0.51100000000E-03 0.  1.
    9900012    2    1    2    0    0  0.11186292557E+02  0.93276407976E+01  0.37960869967E+02  0.50528859912E+02  0.30000000189E+02 0.  0.
        -12    1    1    2    0    0 -0.11186292557E+02 -0.93276407976E+01 -0.37960869967E+02  0.40659140088E+02  0.00000000000E+00 0.  1.
         11    1    3    3    0    0  0.31654970261E+01 -0.35999428348E+00  0.10623171455E+02  0.11090614921E+02  0.51100000000E-03 0. -1.
        -11    1    3    3    0    0  0.95108078545E+01 -0.63606677258E+01  0.16255526825E+02  0.19878523904E+02  0.51100000000E-03 0.  1.
        -12    1    3    3    0    0 -0.14900123241E+01  0.16048302807E+02  0.11082171687E+02  0.19559721087E+02  0.00000000000E+00 0.  1.
</event>
<event>
 7    1  0.3145982E-011  0.5052885E+02  0.7816164E-02  0.1300439E+00
        -11   -1    0    0    0    0  0.00000000000E+00  0.00000000000E+00  0.45593999997E+02  0.45594000000E+02  0.51100000000E-03 0.  1.
         11   -1    0    0    0    0 -0.00000000000E+00 -0.00000000000E+00 -0.45593999997E+02  0.45594000000E+02  0.51100000000E-03 0. -1.
    9900012    2    1    2    0    0  0.83866687075E+01  0.36667001805E+02 -0.15438939389E+02  0.50528854868E+02  0.29999984858E+02 0.  0.
        -12    1    1    2    0    0 -0.83866687075E+01 -0.36667001805E+02  0.15438939389E+02  0.40659145132E+02  0.00000000000E+00 0.  1.
         11    1    3    3    0    0  0.19679510247E+01  0.31901601137E+02 -0.12073054943E+02  0.34166411024E+02  0.51100000000E-03 0. -1.
        -11    1    3    3    0    0 -0.34361946937E+01  0.16508349508E+01  0.24222864888E+01  0.45166538613E+01  0.51100000000E-03 0.  1.
        -12    1    3    3    0    0  0.98549123765E+01  0.31145657172E+01 -0.57881709352E+01  0.11845789983E+02  0.00000000000E+00 0.  1.
</event>
<event>
 7    1  0.2584640E-011  0.5052886E+02  0.7816164E-02  0.1300439E+00
        -11   -1    0    0    0    0  0.00000000000E+00  0.00000000000E+00  0.45593999997E+02  0.45594000000E+02  0.51100000000E-03 0.  1.
         11   -1    0    0    0    0 -0.00000000000E+00 -0.00000000000E+00 -0.45593999997E+02  0.45594000000E+02  0.51100000000E-03 0. -1.
    9900012    2    1    2    0    0  0.27183954916E+02  0.68465068694E+00 -0.30227952483E+02  0.50528864954E+02  0.30000015513E+02 0.  0.
        -12    1    1    2    0    0 -0.27183954916E+02 -0.68465068694E+00  0.30227952483E+02  0.40659135046E+02  0.00000000000E+00 0.  1.
         11    1    3    3    0    0  0.17231517013E+02 -0.47211090773E+01 -0.89449310201E+01  0.19980636644E+02  0.51100000000E-03 0. -1.
        -11    1    3    3    0    0  0.58546313119E+00  0.76257150716E+01 -0.52433736016E+00  0.76661090104E+01  0.51100000000E-03 0.  1.
         12    1    3    3    0    0  0.93669747711E+01 -0.22199553073E+01 -0.20758684103E+02  0.22882119299E+02  0.00000000000E+00 0. -1.
</event>
<event>
 7    1  0.2584640E-011  0.5052884E+02  0.7816164E-02  0.1300439E+00
        -11   -1    0    0    0    0  0.00000000000E+00  0.00000000000E+00  0.45593999997E+02  0.45594000000E+02  0.51100000000E-03 0.  1.
         11   -1    0    0    0    0 -0.00000000000E+00 -0.00000000000E+00 -0.45593999997E+02  0.45594000000E+02  0.51100000000E-03 0. -1.
    9900012    2    1    2    0    0  0.35601589087E+02  0.10759751079E+01 -0.19609607101E+02  0.50528836720E+02  0.29999929695E+02 0.  0.
        -12    1    1    2    0    0 -0.35601589087E+02 -0.10759751079E+01  0.19609607101E+02  0.40659163280E+02  0.00000000000E+00 0.  1.
         11    1    3    3    0    0  0.18912030646E+01  0.66533370844E+01 -0.82498734797E+00  0.69659276321E+01  0.51100000000E-03 0. -1.
        -11    1    3    3    0    0 -0.11225431996E+01 -0.40857108209E+01 -0.72627637754E+00  0.42989084411E+01  0.51100000000E-03 0.  1.
         12    1    3    3    0    0  0.34832929222E+02 -0.14916511556E+01 -0.18058343376E+02  0.39264000647E+02  0.00000000000E+00 0. -1.
</event>
<event>
 7    1  0.2584640E-011  0.5052885E+02  0.7816164E-02  0.1300439E+00
        -11   -1    0    0    0    0  0.00000000000E+00  0.00000000000E+00  0.45593999997E+02  0.45594000000E+02  0.51100000000E-03 0.  1.
         11   -1    0    0    0    0 -0.00000000000E+00 -0.00000000000E+00 -0.45593999997E+02  0.45594000000E+02  0.51100000000E-03 0. -1.
    9900012    2    1    2    0    0  0.10250725995E+02  0.98498644676E+01 -0.38092901215E+02  0.50528851750E+02  0.29999975379E+02 0.  0.
        -12    1    1    2    0    0 -0.10250725995E+02 -0.98498644676E+01  0.38092901215E+02  0.40659148250E+02  0.00000000000E+00 0.  1.
         11    1    3    3    0    0  0.12887932815E+02  0.46737434070E+01 -0.29475312490E+02  0.32507487388E+02  0.51100000000E-03 0. -1.
        -11    1    3    3    0    0  0.41684358044E+01  0.62442146221E+01 -0.72117392827E+00  0.75422917868E+01  0.51100000000E-03 0.  1.
        -12    1    3    3    0    0 -0.68056426242E+01 -0.10680935615E+01 -0.78964147969E+01  0.10479072575E+02  0.00000000000E+00 0.  1.
</event>
<event>
 7    1  0.2584640E-011  0.5052886E+02  0.7816164E-02  0.1300439E+00
        -11   -1    0    0    0    0  0.00000000000E+00  0.00000000000E+00  0.45593999997E+02  0.45594000000E+02  0.51100000000E-03 0.  1.
         11   -1    0    0    0    0 -0.00000000000E+00 -0.00000000000E+00 -0.45593999997E+02  0.45594000000E+02  0.51100000000E-03 0. -1.
    9900012    2    1    2    0    0 -0.19965295531E+02 -0.27325757714E+02 -0.22535655077E+02  0.50528858223E+02  0.29999995056E+02 0.  0.
        -12    1    1    2    0    0  0.19965295531E+02  0.27325757714E+02  0.22535655077E+02  0.40659141777E+02  0.00000000000E+00 0.  1.
         11    1    3    3    0    0 -0.22855033347E+01 -0.19116466350E+02 -0.87713799599E+01  0.21156557325E+02  0.51100000000E-03 0. -1.
        -11    1    3    3    0    0 -0.13832363033E+02 -0.11815540981E+02 -0.45442314512E+01  0.18750768398E+02  0.51100000000E-03 0.  1.
         12    1    3    3    0    0 -0.38474291630E+01  0.36062496172E+01 -0.92200436656E+01  0.10621532501E+02  0.00000000000E+00 0. -1.
</event>
<event>
 7    1  0.2584640E-011  0.5052886E+02  0.7816164E-02  0.1300439E+00
        -11   -1    0    0    0    0  0.00000000000E+00  0.00000000000E+00  0.45593999997E+02  0.45594000000E+02  0.51100000000E-03 0.  1.
         11   -1    0    0    0    0 -0.00000000000E+00 -0.00000000000E+00 -0.45593999997E+02  0.45594000000E+02  0.51100000000E-03 0. -1.
    9900012    2    1    2    0    0  0.30769476068E+02  0.26062937401E+02  0.52084717697E+01  0.50528861524E+02  0.30000005089E+02 0.  0.
        -12    1    1    2    0    0 -0.30769476068E+02 -0.26062937401E+02 -0.52084717697E+01  0.40659138476E+02  0.00000000000E+00 0.  1.
         11    1    3    3    0    0  0.14845110327E+02  0.55141806838E+01  0.38086783784E+01  0.16287710720E+02  0.51100000000E-03 0. -1.
        -11    1    3    3    0    0  0.33702449571E+01 -0.39251867116E+01 -0.35754232275E+01  0.62888228873E+01  0.51100000000E-03 0.  1.
         12    1    3    3    0    0  0.12554120784E+02  0.24473943428E+02  0.49752166188E+01  0.27952327917E+02  0.00000000000E+00 0. -1.
</event>
<event>
 7    1  0.2584640E-011  0.5052883E+02  0.7816164E-02  0.1300439E+00
        -11   -1    0    0    0    0  0.00000000000E+00  0.00000000000E+00  0.45593999997E+02  0.45594000000E+02  0.51100000000E-03 0. -1.
         11   -1    0    0    0    0 -0.00000000000E+00 -0.00000000000E+00 -0.45593999997E+02  0.45594000000E+02  0.51100000000E-03 0.  1.
    9900012    2    1    2    0    0  0.39461048727E+02 -0.73616772706E+01 -0.64652388662E+01  0.50528831631E+02  0.29999914226E+02 0.  0.
        -12    1    1    2    0    0 -0.39461048727E+02  0.73616772706E+01  0.64652388662E+01  0.40659168369E+02  0.00000000000E+00 0.  1.
         11    1    3    3    0    0  0.10623604966E+02 -0.31568813674E+01 -0.13998534168E+02  0.17854574808E+02  0.51100000000E-03 0.  1.
        -11    1    3    3    0    0 -0.79597147722E+00 -0.48895882124E+00  0.21274047195E+01  0.23234677581E+01  0.51100000000E-03 0. -1.
        -12    1    3    3    0    0  0.29633415238E+02 -0.37158370819E+01  0.54058905826E+01  0.30350789065E+02  0.00000000000E+00 0.  1.
</event>
<event>
 7    1  0.2584640E-011  0.5052886E+02  0.7816164E-02  0.1300439E+00
        -11   -1    0    0    0    0  0.00000000000E+00  0.00000000000E+00  0.45593999997E+02  0.45594000000E+02  0.51100000000E-03 0.  1.
         11   -1    0    0    0    0 -0.00000000000E+00 -0.00000000000E+00 -0.45593999997E+02  0.45594000000E+02  0.51100000000E-03 0. -1.
    9900012    2    1    2    0    0  0.16347836778E+02 -0.74107021500E+01 -0.36482814258E+02  0.50528855766E+02  0.29999987587E+02 0.  0.
        -12    1    1    2    0    0 -0.16347836778E+02  0.74107021500E+01  0.36482814258E+02  0.40659144234E+02  0.00000000000E+00 0.  1.
         11    1    3    3    0    0 -0.36598876280E+01  0.62942946080E+01 -0.70565656659E+01  0.10139430029E+02  0.51100000000E-03 0. -1.
        -11    1    3    3    0    0  0.20423099835E+01 -0.20050704035E+01  0.11173791910E+01  0.30724377796E+01  0.51100000000E-03 0.  1.
        -12    1    3    3    0    0  0.17965414422E+02 -0.11699926354E+02 -0.30543627783E+02  0.37316987957E+02  0.00000000000E+00 0.  1.
</event>
<event>
 7    1  0.2584640E-011  0.5052885E+02  0.7816164E-02  0.1300439E+00
        -11   -1    0    0    0    0  0.00000000000E+00  0.00000000000E+00  0.45593999997E+02  0.45594000000E+02  0.51100000000E-03 0. -1.
         11   -1    0    0    0    0 -0.00000000000E+00 -0.00000000000E+00 -0.45593999997E+02  0.45594000000E+02  0.51100000000E-03 0.  1.
    9900012    2    1    2    0    0 -0.45988259589E+01  0.60131994514E+01  0.39948201009E+02  0.50528849348E+02  0.29999968079E+02 0.  0.
        -12    1    1    2    0    0  0.45988259589E+01 -0.60131994514E+01 -0.39948201009E+02  0.40659150652E+02  0.00000000000E+00 0.  1.
         11    1    3    3    0    0 -0.47797502236E+01  0.29207865504E+01  0.19420033198E+02  0.20211746484E+02  0.51100000000E-03 0. -1.
        -11    1    3    3    0    0 -0.10669302834E+02 -0.75715755483E+00  0.84527834893E+01  0.13632932902E+02  0.51100000000E-03 0.  1.
         12    1    3    3    0    0  0.10850227099E+02  0.38495704559E+01  0.12075384322E+02  0.16684169962E+02  0.00000000000E+00 0. -1.
</event>
<event>
 7    1  0.2584640E-011  0.5052887E+02  0.7816164E-02  0.1300439E+00
        -11   -1    0    0    0    0  0.00000000000E+00  0.00000000000E+00  0.45593999997E+02  0.45594000000E+02  0.51100000000E-03 0. -1.
         11   -1    0    0    0    0 -0.00000000000E+00 -0.00000000000E+00 -0.45593999997E+02  0.45594000000E+02  0.51100000000E-03 0.  1.
    9900012    2    1    2    0    0 -0.19771248467E+02  0.15279190153E+02  0.32075047260E+02  0.50528873418E+02  0.30000041241E+02 0.  0.
        -12    1    1    2    0    0  0.19771248467E+02 -0.15279190153E+02 -0.32075047260E+02  0.40659126582E+02  0.00000000000E+00 0.  1.
         11    1    3    3    0    0  0.12022396516E+01  0.77942973109E+01 -0.47485438158E+00  0.79007555142E+01  0.51100000000E-03 0. -1.
        -11    1    3    3    0    0 -0.50917876304E+00  0.54542396668E+01  0.20628089502E+01  0.58534754105E+01  0.51100000000E-03 0.  1.
         12    1    3    3    0    0 -0.20464309355E+02  0.20306531756E+01  0.30487092692E+02  0.36774642493E+02  0.00000000000E+00 0. -1.
</event>
<event>
 7    1  0.2584640E-011  0.5052885E+02  0.7816164E-02  0.1300439E+00
        -11   -1    0    0    0    0  0.00000000000E+00  0.00000000000E+00  0.45593999997E+02  0.45594000000E+02  0.51100000000E-03 0.  1.
         11   -1    0    0    0    0 -0.00000000000E+00 -0.00000000000E+00 -0.45593999997E+02  0.45594000000E+02  0.51100000000E-03 0. -1.
    9900012    2    1    2    0    0  0.41898472577E+00 -0.38738013772E+02 -0.12343291081E+02  0.50528854732E+02  0.29999984444E+02 0.  0.
        -12    1    1    2    0    0 -0.41898472577E+00  0.38738013772E+02  0.12343291081E+02  0.40659145268E+02  0.00000000000E+00 0.  1.
         11    1    3    3    0    0 -0.71105143230E+01 -0.18381767272E+02 -0.80558447471E+01  0.21291909657E+02  0.51100000000E-03 0. -1.
        -11    1    3    3    0    0 -0.13814469812E+01  0.18839457180E+01 -0.47283008325E+01  0.52739431409E+01  0.51100000000E-03 0.  1.
        -12    1    3    3    0    0  0.89109460300E+01 -0.22240192218E+02  0.44085449823E+00  0.23963001935E+02  0.00000000000E+00 0.  1.
</event>
<event>
 7    1  0.2584640E-011  0.5052884E+02  0.7816164E-02  0.1300439E+00
        -11   -1    0    0    0    0  0.00000000000E+00  0.00000000000E+00  0.45593999997E+02  0.45594000000E+02  0.51100000000E-03 0. -1.
         11   -1    0    0    0    0 -0.00000000000E+00 -0.00000000000E+00 -0.45593999997E+02  0.45594000000E+02  0.51100000000E-03 0.  1.
    9900012    2    1    2    0    0 -0.26799675900E+02  0.21234158657E+02  0.22001261111E+02  0.50528836055E+02  0.29999927673E+02 0.  0.
        -12    1    1    2    0    0  0.26799675900E+02 -0.21234158657E+02 -0.22001261111E+02  0.40659163945E+02  0.00000000000E+00 0.  1.
         11    1    3    3    0    0 -0.16472795386E+02  0.17071230208E+02  0.24909254915E+02  0.34398413762E+02  0.51100000000E-03 0. -1.
        -11    1    3    3    0    0 -0.64214966764E+00 -0.34687366067E+01 -0.86283092424E+00  0.36316617832E+01  0.51100000000E-03 0.  1.
        -12    1    3    3    0    0 -0.96847308462E+01  0.76316650555E+01 -0.20451628797E+01  0.12498760510E+02  0.00000000000E+00 0.  1.
</event>
<event>
 7    1  0.2584640E-011  0.5052888E+02  0.7816164E-02  0.1300439E+00
        -11   -1    0    0    0    0  0.00000000000E+00  0.00000000000E+00  0.45593999997E+02  0.45594000000E+02  0.51100000000E-03 0. -1.
         11   -1    0    0    0    0 -0.00000000000E+00 -0.00000000000E+00 -0.45593999997E+02  0.45594000000E+02  0.51100000000E-03 0.  1.
    9900012    2    1    2    0    0 -0.21660427793E+02  0.16899345982E+02  0.29973355567E+02  0.50528879612E+02  0.30000060069E+02 0.  0.
        -12    1    1    2    0    0  0.21660427793E+02 -0.16899345982E+02 -0.29973355567E+02  0.40659120388E+02  0.00000000000E+00 0.  1.
         11    1    3    3    0    0 -0.90289385400E+01  0.59376437034E+01  0.13009923036E+02  0.16912582345E+02  0.51100000000E-03 0. -1.
        -11    1    3    3    0    0 -0.15829314239E+02 -0.17389419703E+01  0.91856664988E+01  0.18383894521E+02  0.51100000000E-03 0.  1.
         12    1    3    3    0    0  0.31978249863E+01  0.12700644249E+02  0.77777660316E+01  0.15232402746E+02  0.00000000000E+00 0. -1.
</event>
<event>
 7    1  0.2584640E-011  0.5052886E+02  0.7816164E-02  0.1300439E+00
        -11   -1    0    0    0    0  0.00000000000E+00  0.00000000000E+00  0.45593999997E+02  0.45594000000E+02  0.51100000000E-03 0.  1.
         11   -1    0    0    0    0 -0.00000000000E+00 -0.00000000000E+00 -0.45593999997E+02  0.45594000000E+02  0.51100000000E-03 0. -1.
    9900012    2    1    2    0    0  0.26081590331E+02 -0.16500002653E+02 -0.26470104526E+02  0.50528857420E+02  0.29999992613E+02 0.  0.
        -12    1    1    2    0    0 -0.26081590331E+02  0.16500002653E+02  0.26470104526E+02  0.40659142580E+02  0.00000000000E+00 0.  1.
         11    1    3    3    0    0  0.94751843569E+01  0.38485960614E+01 -0.63721423091E+01  0.12049689129E+02  0.51100000000E-03 0. -1.
        -11    1    3    3    0    0  0.19508482797E+02 -0.11265834789E+02 -0.10179991910E+02  0.24721087559E+02  0.51100000000E-03 0.  1.
        -12    1    3    3    0    0 -0.29020768230E+01 -0.90827639254E+01 -0.99179703072E+01  0.13758080732E+02  0.00000000000E+00 0.  1.
</event>
<event>
 7    1  0.2584640E-011  0.5052885E+02  0.7816164E-02  0.1300439E+00
        -11   -1    0    0    0    0  0.00000000000E+00  0.00000000000E+00  0.45593999997E+02  0.45594000000E+02  0.51100000000E-03 0.  1.
         11   -1    0    0    0    0 -0.00000000000E+00 -0.00000000000E+00 -0.45593999997E+02  0.45594000000E+02  0.51100000000E-03 0. -1.
    9900012    2    1    2    0    0 -0.37250188146E+02  0.12654812851E+02 -0.10268660377E+02  0.50528853536E+02  0.29999980809E+02 0.  0.
        -12    1    1    2    0    0  0.37250188146E+02 -0.12654812851E+02  0.10268660377E+02  0.40659146464E+02  0.00000000000E+00 0.  1.
         11    1    3    3    0    0 -0.10610880469E+02  0.48558914592E+01 -0.60716016030E+01  0.13154269743E+02  0.51100000000E-03 0. -1.
        -11    1    3    3    0    0 -0.98342629367E+01  0.14527883700E+02  0.31757642089E+01  0.17828561661E+02  0.51100000000E-03 0.  1.
        -12    1    3    3    0    0 -0.16805044740E+02 -0.67289623081E+01 -0.73728229826E+01  0.19546022132E+02  0.00000000000E+00 0.  1.
</event>
<event>
 7    1  0.2584640E-011  0.5052885E+02  0.7816164E-02  0.1300439E+00
        -11   -1    0    0    0    0  0.00000000000E+00  0.00000000000E+00  0.45593999997E+02  0.45594000000E+02  0.51100000000E-03 0.  1.
         11   -1    0    0    0    0 -0.00000000000E+00 -0.00000000000E+00 -0.45593999997E+02  0.45594000000E+02  0.51100000000E-03 0. -1.
    9900012    2    1    2    0    0  0.23145056676E+02  0.27887768083E+02 -0.18432178560E+02  0.50528850185E+02  0.29999970623E+02 0.  0.
        -12    1    1    2    0    0 -0.23145056676E+02 -0.27887768083E+02  0.18432178560E+02  0.40659149815E+02  0.00000000000E+00 0.  1.
         11    1    3    3    0    0  0.21151374032E+02  0.12479787947E+02  0.21708428343E+01  0.24654376681E+02  0.51100000000E-03 0.  1.
        -11    1    3    3    0    0 -0.18058884699E+00  0.23377906065E+01 -0.23526486226E+01  0.33215708714E+01  0.51100000000E-03 0. -1.
        -12    1    3    3    0    0  0.21742714909E+01  0.13070189530E+02 -0.18250372772E+02  0.22552902633E+02  0.00000000000E+00 0.  1.
</event>
<event>
 7    1  0.2584640E-011  0.5052886E+02  0.7816164E-02  0.1300439E+00
        -11   -1    0    0    0    0  0.00000000000E+00  0.00000000000E+00  0.45593999997E+02  0.45594000000E+02  0.51100000000E-03 0. -1.
         11   -1    0    0    0    0 -0.00000000000E+00 -0.00000000000E+00 -0.45593999997E+02  0.45594000000E+02  0.51100000000E-03 0.  1.
    9900012    2    1    2    0    0 -0.39480222100E+02 -0.66180861517E+00  0.96974249980E+01  0.50528856142E+02  0.29999988728E+02 0.  0.
        -12    1    1    2    0    0  0.39480222100E+02  0.66180861517E+00 -0.96974249980E+01  0.40659143858E+02  0.00000000000E+00 0.  1.
         11    1    3    3    0    0 -0.76663705423E+01  0.49609240738E+01  0.99995633295E+01  0.13541612607E+02  0.51100000000E-03 0. -1.
        -11    1    3    3    0    0 -0.90317661683E+01  0.38074801405E+01 -0.62482734122E+01  0.11623709650E+02  0.51100000000E-03 0.  1.
         12    1    3    3    0    0 -0.22782085389E+02 -0.94302128294E+01  0.59461350807E+01  0.25363533884E+02  0.00000000000E+00 0. -1.
</event>
<event>
 7    1  0.2584640E-011  0.5052886E+02  0.7816164E-02  0.1300439E+00
        -11   -1    0    0    0    0  0.00000000000E+00  0.00000000000E+00  0.45593999997E+02  0.45594000000E+02  0.51100000000E-03 0. -1.
         11   -1    0    0    0    0 -0.00000000000E+00 -0.00000000000E+00 -0.45593999997E+02  0.45594000000E+02  0.51100000000E-03 0.  1.
    9900012    2    1    2    0    0 -0.33454213541E+02  0.23085827398E+02  0.10128639565E+01  0.50528859285E+02  0.29999998282E+02 0.  0.
        -12    1    1    2    0    0  0.33454213541E+02 -0.23085827398E+02 -0.10128639565E+01  0.40659140715E+02  0.00000000000E+00 0.  1.
         11    1    3    3    0    0 -0.22544478239E+02  0.10480971553E+02 -0.80940781509E+01  0.26146096557E+02  0.51100000000E-03 0. -1.
        -11    1    3    3    0    0  0.31611852197E+00  0.38414264356E+00 -0.35048288944E+01  0.35399607809E+01  0.51100000000E-03 0.  1.
         12    1    3    3    0    0 -0.11225853824E+02  0.12220713201E+02  0.12611771002E+02  0.20842801947E+02  0.00000000000E+00 0. -1.
</event>
<event>
 7    1  0.2584640E-011  0.5052887E+02  0.7816164E-02  0.1300439E+00
        -11   -1    0    0    0    0  0.00000000000E+00  0.00000000000E+00  0.45593999997E+02  0.45594000000E+02  0.51100000000E-03 0.  1.
         11   -1    0    0    0    0 -0.00000000000E+00 -0.00000000000E+00 -0.45593999997E+02  0.45594000000E+02  0.51100000000E-03 0. -1.
    9900012    2    1    2    0    0 -0.38167378183E+02 -0.13961478353E+02 -0.12220974222E+01  0.50528866250E+02  0.30000019454E+02 0.  0.
        -12    1    1    2    0    0  0.38167378183E+02  0.13961478353E+02  0.12220974222E+01  0.40659133750E+02  0.00000000000E+00 0.  1.
         11    1    3    3    0    0 -0.34102316155E+02 -0.11350075132E+02  0.39487775543E+00  0.35943679574E+02  0.51100000000E-03 0. -1.
        -11    1    3    3    0    0 -0.77413969102E+01 -0.26012175661E+01 -0.50111375004E+01  0.95815999842E+01  0.51100000000E-03 0.  1.
        -12    1    3    3    0    0  0.36763348820E+01 -0.10185655500E-01  0.33941623228E+01  0.50035866921E+01  0.00000000000E+00 0.  1.
</event>
<event>
 7    1  0.2584640E-011  0.5052888E+02  0.7816164E-02  0.1300439E+00
        -11   -1    0    0    0    0  0.00000000000E+00  0.00000000000E+00  0.45593999997E+02  0.45594000000E+02  0.51100000000E-03 0. -1.
         11   -1    0    0    0    0 -0.00000000000E+00 -0.00000000000E+00 -0.45593999997E+02  0.45594000000E+02  0.51100000000E-03 0.  1.
    9900012    2    1    2    0    0  0.76496307360E+01  0.17346816115E+02  0.35968528439E+02  0.50528881493E+02  0.30000065786E+02 0.  0.
        -12    1    1    2    0    0 -0.76496307360E+01 -0.17346816115E+02 -0.35968528439E+02  0.40659118507E+02  0.00000000000E+00 0.  1.
         11    1    3    3    0    0 -0.28366499308E+01  0.48094642130E+00 -0.11084968744E+01  0.30832868618E+01  0.51100000000E-03 0. -1.
        -11    1    3    3    0    0  0.53576167833E+01 -0.46809436701E+01  0.12322410606E+02  0.14228741850E+02  0.51100000000E-03 0.  1.
         12    1    3    3    0    0  0.51286638836E+01  0.21546813364E+02  0.24754614708E+02  0.33216852781E+02  0.00000000000E+00 0. -1.
</event>
<event>
 7    1  0.2584640E-011  0.5052885E+02  0.7816164E-02  0.1300439E+00
        -11   -1    0    0    0    0  0.00000000000E+00  0.00000000000E+00  0.45593999997E+02  0.45594000000E+02  0.51100000000E-03 0.  1.
         11   -1    0    0    0    0 -0.00000000000E+00 -0.00000000000E+00 -0.45593999997E+02  0.45594000000E+02  0.51100000000E-03 0. -1.
    9900012    2    1    2    0    0  0.18857766678E+02  0.32426231256E+02 -0.15687281259E+02  0.50528848129E+02  0.29999964373E+02 0.  0.
        -12    1    1    2    0    0 -0.18857766678E+02 -0.32426231256E+02  0.15687281259E+02  0.40659151871E+02  0.00000000000E+00 0.  1.
         11    1    3    3    0    0  0.16619678238E+01  0.53897813778E+00  0.40603251812E+00  0.17937383163E+01  0.51100000000E-03 0. -1.
        -11    1    3    3    0    0  0.10898726198E+02  0.11185644681E+01  0.37559789827E+01  0.11581916836E+02  0.51100000000E-03 0.  1.
         12    1    3    3    0    0  0.62970726565E+01  0.30768688650E+02 -0.19849292760E+02  0.37153192977E+02  0.00000000000E+00 0. -1.
</event>
<event>
 7    1  0.2584640E-011  0.5052886E+02  0.7816164E-02  0.1300439E+00
        -11   -1    0    0    0    0  0.00000000000E+00  0.00000000000E+00  0.45593999997E+02  0.45594000000E+02  0.51100000000E-03 0.  1.
         11   -1    0    0    0    0 -0.00000000000E+00 -0.00000000000E+00 -0.45593999997E+02  0.45594000000E+02  0.51100000000E-03 0. -1.
    9900012    2    1    2    0    0  0.20287013052E+02 -0.33939102312E+02 -0.94731263547E+01  0.50528859733E+02  0.29999999643E+02 0.  0.
        -12    1    1    2    0    0 -0.20287013052E+02  0.33939102312E+02  0.94731263547E+01  0.40659140267E+02  0.00000000000E+00 0.  1.
         11    1    3    3    0    0  0.13551053465E+02 -0.31154598148E+02 -0.66624578955E+01  0.34621212879E+02  0.51100000000E-03 0. -1.
        -11    1    3    3    0    0  0.56426030871E+01 -0.32996598780E+01  0.48581166736E+01  0.81442017893E+01  0.51100000000E-03 0.  1.
        -12    1    3    3    0    0  0.10933565006E+01  0.51515571352E+00 -0.76687851329E+01  0.77634450639E+01  0.00000000000E+00 0.  1.
</event>
<event>
 7    1  0.2584640E-011  0.5052886E+02  0.7816164E-02  0.1300439E+00
        -11   -1    0    0    0    0  0.00000000000E+00  0.00000000000E+00  0.45593999997E+02  0.45594000000E+02  0.51100000000E-03 0.  1.
         11   -1    0    0    0    0 -0.00000000000E+00 -0.00000000000E+00 -0.45593999997E+02  0.45594000000E+02  0.51100000000E-03 0. -1.
    9900012    2    1    2    0    0 -0.27806551449E+02 -0.97119994307E+01 -0.28029245699E+02  0.50528857721E+02  0.29999993528E+02 0.  0.
        -12    1    1    2    0    0  0.27806551449E+02  0.97119994307E+01  0.28029245699E+02  0.40659142279E+02  0.00000000000E+00 0.  1.
         11    1    3    3    0    0 -0.91688565468E+01  0.46030464038E+00 -0.16217725804E+01  0.93225510082E+01  0.51100000000E-03 0. -1.
        -11    1    3    3    0    0 -0.12999107621E+02  0.43107747434E+01 -0.20342244285E+02  0.24522774734E+02  0.51100000000E-03 0.  1.
        -12    1    3    3    0    0 -0.56385872806E+01 -0.14483078815E+02 -0.60652288338E+01  0.16683531978E+02  0.00000000000E+00 0.  1.
</event>
<event>
 7    1  0.2584640E-011  0.5052886E+02  0.7816164E-02  0.1300439E+00
        -11   -1    0    0    0    0  0.00000000000E+00  0.00000000000E+00  0.45593999997E+02  0.45594000000E+02  0.51100000000E-03 0.  1.
         11   -1    0    0    0    0 -0.00000000000E+00 -0.00000000000E+00 -0.45593999997E+02  0.45594000000E+02  0.51100000000E-03 0. -1.
    9900012    2    1    2    0    0 -0.23662905532E+02 -0.56079827939E+01 -0.32585008428E+02  0.50528863961E+02  0.30000012494E+02 0.  0.
        -12    1    1    2    0    0  0.23662905532E+02  0.56079827939E+01  0.32585008428E+02  0.40659136039E+02  0.00000000000E+00 0.  1.
         11    1    3    3    0    0  0.57679236118E+00  0.29091386424E+01 -0.86624614680E+01  0.91560917435E+01  0.51100000000E-03 0.  1.
        -11    1    3    3    0    0 -0.18286901056E+02 -0.15381391775E+02 -0.21046201271E+02  0.31842433189E+02  0.51100000000E-03 0. -1.
         12    1    3    3    0    0 -0.59527968364E+01  0.68642703391E+01 -0.28763456886E+01  0.95303390277E+01  0.00000000000E+00 0. -1.
</event>
<event>
 7    1  0.2584640E-011  0.5052886E+02  0.7816164E-02  0.1300439E+00
        -11   -1    0    0    0    0  0.00000000000E+00  0.00000000000E+00  0.45593999997E+02  0.45594000000E+02  0.51100000000E-03 0.  1.
         11   -1    0    0    0    0 -0.00000000000E+00 -0.00000000000E+00 -0.45593999997E+02  0.45594000000E+02  0.51100000000E-03 0. -1.
    9900012    2    1    2    0    0  0.50468910242E+01 -0.39714936199E+02  0.71005659599E+01  0.50528864455E+02  0.30000013998E+02 0.  0.
        -12    1    1    2    0    0 -0.50468910242E+01  0.39714936199E+02 -0.71005659599E+01  0.40659135545E+02  0.00000000000E+00 0.  1.
         11    1    3    3    0    0  0.30399155706E+00 -0.37742146590E+02  0.12371817889E+01  0.37763642027E+02  0.51100000000E-03 0. -1.
        -11    1    3    3    0    0  0.79162859749E+00 -0.19113097266E+01 -0.26603149475E+01  0.33700232326E+01  0.51100000000E-03 0.  1.
        -12    1    3    3    0    0  0.39512708697E+01 -0.61479882021E-01  0.85236991185E+01  0.93951991955E+01  0.00000000000E+00 0.  1.
</event>
<event>
 7    1  0.2584640E-011  0.5052886E+02  0.7816164E-02  0.1300439E+00
        -11   -1    0    0    0    0  0.00000000000E+00  0.00000000000E+00  0.45593999997E+02  0.45594000000E+02  0.51100000000E-03 0. -1.
         11   -1    0    0    0    0 -0.00000000000E+00 -0.00000000000E+00 -0.45593999997E+02  0.45594000000E+02  0.51100000000E-03 0.  1.
    9900012    2    1    2    0    0  0.16697336990E+01 -0.37123206038E+02  0.16499867148E+02  0.50528855234E+02  0.29999985970E+02 0.  0.
        -12    1    1    2    0    0 -0.16697336990E+01  0.37123206038E+02 -0.16499867148E+02  0.40659144766E+02  0.00000000000E+00 0.  1.
         11    1    3    3    0    0  0.93170007484E+01 -0.56439527035E+01  0.86297642104E+01  0.13897249212E+02  0.51100000000E-03 0. -1.
        -11    1    3    3    0    0 -0.37466284962E+01 -0.33889927892E+00  0.31263047569E+01  0.48914066999E+01  0.51100000000E-03 0.  1.
         12    1    3    3    0    0 -0.39006385532E+01 -0.31140354056E+02  0.47437981805E+01  0.31740199322E+02  0.00000000000E+00 0. -1.
</event>
<event>
 7    1  0.2584640E-011  0.5052886E+02  0.7816164E-02  0.1300439E+00
        -11   -1    0    0    0    0  0.00000000000E+00  0.00000000000E+00  0.45593999997E+02  0.45594000000E+02  0.51100000000E-03 0. -1.
         11   -1    0    0    0    0 -0.00000000000E+00 -0.00000000000E+00 -0.45593999997E+02  0.45594000000E+02  0.51100000000E-03 0.  1.
    9900012    2    1    2    0    0  0.22729724069E+01  0.39833584384E+02  0.78284870275E+01  0.50528855179E+02  0.29999985801E+02 0.  0.
        -12    1    1    2    0    0 -0.22729724069E+01 -0.39833584384E+02 -0.78284870275E+01  0.40659144821E+02  0.00000000000E+00 0.  1.
         11    1    3    3    0    0  0.62965017035E+01  0.14212111306E+02  0.89745953673E+01  0.17949189501E+02  0.51100000000E-03 0. -1.
        -11    1    3    3    0    0  0.51174619601E+00 -0.25464970946E+01 -0.30249988285E+01  0.39871229973E+01  0.51100000000E-03 0.  1.
         12    1    3    3    0    0 -0.45352754927E+01  0.28167970173E+02  0.18788904887E+01  0.28592542680E+02  0.00000000000E+00 0. -1.
</event>
<event>
 7    1  0.2584640E-011  0.5052885E+02  0.7816164E-02  0.1300439E+00
        -11   -1    0    0    0    0  0.00000000000E+00  0.00000000000E+00  0.45593999997E+02  0.45594000000E+02  0.51100000000E-03 0.  1.
         11   -1    0    0    0    0 -0.00000000000E+00 -0.00000000000E+00 -0.45593999997E+02  0.45594000000E+02  0.51100000000E-03 0. -1.
    9900012    2    1    2    0    0  0.80970948403E+01 -0.35456970921E+02  0.18177084658E+02  0.50528854185E+02  0.29999982781E+02 0.  0.
        -12    1    1    2    0    0 -0.80970948403E+01  0.35456970921E+02 -0.18177084658E+02  0.40659145815E+02  0.00000000000E+00 0.  1.
         11    1    3    3    0    0 -0.29504637558E+01 -0.13463887029E+02  0.34723894152E+01  0.14214041607E+02  0.51100000000E-03 0. -1.
        -11    1    3    3    0    0 -0.31918572925E+01 -0.76928280632E+00 -0.36042868126E+01  0.48755135833E+01  0.51100000000E-03 0.  1.
         12    1    3    3    0    0  0.14239415889E+02 -0.21223801085E+02  0.18308982056E+02  0.31439298995E+02  0.00000000000E+00 0. -1.
</event>
<event>
 7    1  0.2584640E-011  0.5052886E+02  0.7816164E-02  0.1300439E+00
        -11   -1    0    0    0    0  0.00000000000E+00  0.00000000000E+00  0.45593999997E+02  0.45594000000E+02  0.51100000000E-03 0.  1.
         11   -1    0    0    0    0 -0.00000000000E+00 -0.00000000000E+00 -0.45593999997E+02  0.45594000000E+02  0.51100000000E-03 0. -1.
    9900012    2    1    2    0    0  0.18840593194E+01  0.28830422023E+02 -0.28608092598E+02  0.50528857416E+02  0.29999992601E+02 0.  0.
        -12    1    1    2    0    0 -0.18840593194E+01 -0.28830422023E+02  0.28608092598E+02  0.40659142584E+02  0.00000000000E+00 0.  1.
         11    1    3    3    0    0 -0.15947520822E+01  0.38021197741E+01  0.17402605851E+01  0.44752492831E+01  0.51100000000E-03 0. -1.
        -11    1    3    3    0    0  0.10767100156E+02  0.30481546052E+01 -0.12778656903E+02  0.16985751816E+02  0.51100000000E-03 0.  1.
         12    1    3    3    0    0 -0.72882887546E+01  0.21980147644E+02 -0.17569696281E+02  0.29067856316E+02  0.00000000000E+00 0. -1.
</event>
<event>
 7    1  0.2584640E-011  0.5052887E+02  0.7816164E-02  0.1300439E+00
        -11   -1    0    0    0    0  0.00000000000E+00  0.00000000000E+00  0.45593999997E+02  0.45594000000E+02  0.51100000000E-03 0. -1.
         11   -1    0    0    0    0 -0.00000000000E+00 -0.00000000000E+00 -0.45593999997E+02  0.45594000000E+02  0.51100000000E-03 0.  1.
    9900012    2    1    2    0    0  0.23268020927E+02 -0.32909842965E+02  0.53577954063E+01  0.50528873922E+02  0.30000042773E+02 0.  0.
        -12    1    1    2    0    0 -0.23268020927E+02  0.32909842965E+02 -0.53577954063E+01  0.40659126078E+02  0.00000000000E+00 0.  1.
         11    1    3    3    0    0  0.22202503387E+02 -0.25619200508E+02  0.16419445674E+01  0.33940986631E+02  0.51100000000E-03 0. -1.
        -11    1    3    3    0    0  0.54805595798E+01 -0.27424780870E+01  0.71189638381E+01  0.93934746369E+01  0.51100000000E-03 0.  1.
         12    1    3    3    0    0 -0.44150420393E+01 -0.45481643698E+01 -0.34031129991E+01  0.71944126535E+01  0.00000000000E+00 0. -1.
</event>
<event>
 7    1  0.2584640E-011  0.5052884E+02  0.7816164E-02  0.1300439E+00
        -11   -1    0    0    0    0  0.00000000000E+00  0.00000000000E+00  0.45593999997E+02  0.45594000000E+02  0.51100000000E-03 0.  1.
         11   -1    0    0    0    0 -0.00000000000E+00 -0.00000000000E+00 -0.45593999997E+02  0.45594000000E+02  0.51100000000E-03 0. -1.
    9900012    2    1    2    0    0 -0.34041277814E+02 -0.14686415448E+02 -0.16693352991E+02  0.50528838327E+02  0.29999934577E+02 0.  0.
        -12    1    1    2    0    0  0.34041277814E+02  0.14686415448E+02  0.16693352991E+02  0.40659161673E+02  0.00000000000E+00 0.  1.
         11    1    3    3    0    0 -0.41862399619E+01  0.36148547238E+01 -0.23742047394E+00  0.55360769897E+01  0.51100000000E-03 0. -1.
        -11    1    3    3    0    0 -0.13716300309E+02 -0.61626594650E+01  0.46915606903E+01  0.15752015992E+02  0.51100000000E-03 0.  1.
         12    1    3    3    0    0 -0.16138737543E+02 -0.12138610707E+02 -0.21147493207E+02  0.29240745345E+02  0.00000000000E+00 0. -1.
</event>
<event>
 7    1  0.2584640E-011  0.5052886E+02  0.7816164E-02  0.1300439E+00
        -11   -1    0    0    0    0  0.00000000000E+00  0.00000000000E+00  0.45593999997E+02  0.45594000000E+02  0.51100000000E-03 0.  1.
         11   -1    0    0    0    0 -0.00000000000E+00 -0.00000000000E+00 -0.45593999997E+02  0.45594000000E+02  0.51100000000E-03 0. -1.
    9900012    2    1    2    0    0  0.97906474914E+01  0.24248415959E+02 -0.31133960117E+02  0.50528856780E+02  0.29999990669E+02 0.  0.
        -12    1    1    2    0    0 -0.97906474914E+01 -0.24248415959E+02  0.31133960117E+02  0.40659143220E+02  0.00000000000E+00 0.  1.
         11    1    3    3    0    0  0.62474482708E+00  0.92512142463E+01 -0.83176429191E+01  0.12456261683E+02  0.51100000000E-03 0. -1.
        -11    1    3    3    0    0  0.13518600469E+02  0.10713759192E+02 -0.25987732223E+02  0.31191335672E+02  0.51100000000E-03 0.  1.
        -12    1    3    3    0    0 -0.43526978048E+01  0.42834425212E+01  0.31714150249E+01  0.68812594249E+01  0.00000000000E+00 0.  1.
</event>
<event>
 7    1  0.2584640E-011  0.5052885E+02  0.7816164E-02  0.1300439E+00
        -11   -1    0    0    0    0  0.00000000000E+00  0.00000000000E+00  0.45593999997E+02  0.45594000000E+02  0.51100000000E-03 0.  1.
         11   -1    0    0    0    0 -0.00000000000E+00 -0.00000000000E+00 -0.45593999997E+02  0.45594000000E+02  0.51100000000E-03 0. -1.
    9900012    2    1    2    0    0  0.19426984034E+02  0.12142745566E+02 -0.33590365410E+02  0.50528848178E+02  0.29999964521E+02 0.  0.
        -12    1    1    2    0    0 -0.19426984034E+02 -0.12142745566E+02  0.33590365410E+02  0.40659151822E+02  0.00000000000E+00 0.  1.
         11    1    3    3    0    0  0.74318564530E+01  0.12642688700E+02 -0.17128371812E+02  0.22548862257E+02  0.51100000000E-03 0. -1.
        -11    1    3    3    0    0  0.52894849782E+01 -0.10211836361E+00 -0.19788865917E+02  0.20483854472E+02  0.51100000000E-03 0.  1.
        -12    1    3    3    0    0  0.67056426032E+01 -0.39782477083E+00  0.33268723187E+01  0.74961314486E+01  0.00000000000E+00 0.  1.
</event>
<event>
 7    1  0.2584640E-011  0.5052886E+02  0.7816164E-02  0.1300439E+00
        -11   -1    0    0    0    0  0.00000000000E+00  0.00000000000E+00  0.45593999997E+02  0.45594000000E+02  0.51100000000E-03 0.  1.
         11   -1    0    0    0    0 -0.00000000000E+00 -0.00000000000E+00 -0.45593999997E+02  0.45594000000E+02  0.51100000000E-03 0. -1.
    9900012    2    1    2    0    0 -0.57941161750E+01  0.32743135850E+02  0.23398315729E+02  0.50528857037E+02  0.29999991450E+02 0.  0.
        -12    1    1    2    0    0  0.57941161750E+01 -0.32743135850E+02 -0.23398315729E+02  0.40659142963E+02  0.00000000000E+00 0.  1.
         11    1    3    3    0    0  0.14024213079E+01  0.27711168883E+02  0.18257234356E+02  0.33214488901E+02  0.51100000000E-03 0. -1.
        -11    1    3    3    0    0 -0.43733286427E+01  0.71459352556E+01  0.88566372330E+01  0.12191407525E+02  0.51100000000E-03 0.  1.
         12    1    3    3    0    0 -0.28232088403E+01 -0.21139682884E+01 -0.37155558596E+01  0.51229606114E+01  0.00000000000E+00 0. -1.
</event>
<event>
 7    1  0.2584640E-011  0.5052886E+02  0.7816164E-02  0.1300439E+00
        -11   -1    0    0    0    0  0.00000000000E+00  0.00000000000E+00  0.45593999997E+02  0.45594000000E+02  0.51100000000E-03 0.  1.
         11   -1    0    0    0    0 -0.00000000000E+00 -0.00000000000E+00 -0.45593999997E+02  0.45594000000E+02  0.51100000000E-03 0. -1.
    9900012    2    1    2    0    0  0.40516419074E+02 -0.29461105285E+01 -0.17046069330E+01  0.50528862446E+02  0.30000007890E+02 0.  0.
        -12    1    1    2    0    0 -0.40516419074E+02  0.29461105285E+01  0.17046069330E+01  0.40659137554E+02  0.00000000000E+00 0.  1.
         11    1    3    3    0    0  0.13761499905E+02  0.38731775949E+01  0.26732457595E+01  0.14543955015E+02  0.51100000000E-03 0. -1.
        -11    1    3    3    0    0 -0.32084921718E+01  0.27051458756E+01  0.25609168059E+00  0.42044999030E+01  0.51100000000E-03 0.  1.
        -12    1    3    3    0    0  0.29963411341E+02 -0.95244339991E+01 -0.46339443730E+01  0.31780407528E+02  0.00000000000E+00 0.  1.
</event>
<event>
 7    1  0.2584640E-011  0.5052887E+02  0.7816164E-02  0.1300439E+00
        -11   -1    0    0    0    0  0.00000000000E+00  0.00000000000E+00  0.45593999997E+02  0.45594000000E+02  0.51100000000E-03 0. -1.
         11   -1    0    0    0    0 -0.00000000000E+00 -0.00000000000E+00 -0.45593999997E+02  0.45594000000E+02  0.51100000000E-03 0.  1.
    9900012    2    1    2    0    0 -0.21407798900E+02 -0.24621272789E+02  0.24262405722E+02  0.50528865000E+02  0.30000015655E+02 0.  0.
        -12    1    1    2    0    0  0.21407798900E+02  0.24621272789E+02 -0.24262405722E+02  0.40659135000E+02  0.00000000000E+00 0.  1.
         11    1    3    3    0    0  0.10601862420E+01 -0.14411596444E+02  0.57382638083E+01  0.15548176058E+02  0.51100000000E-03 0. -1.
        -11    1    3    3    0    0 -0.81819670650E+01 -0.88094674743E+01  0.62851684109E+00  0.12039366093E+02  0.51100000000E-03 0.  1.
        -12    1    3    3    0    0 -0.14286018077E+02 -0.14002088710E+01  0.17895625072E+02  0.22941322850E+02  0.00000000000E+00 0.  1.
</event>
<event>
 7    1  0.2584640E-011  0.5052887E+02  0.7816164E-02  0.1300439E+00
        -11   -1    0    0    0    0  0.00000000000E+00  0.00000000000E+00  0.45593999997E+02  0.45594000000E+02  0.51100000000E-03 0.  1.
         11   -1    0    0    0    0 -0.00000000000E+00 -0.00000000000E+00 -0.45593999997E+02  0.45594000000E+02  0.51100000000E-03 0. -1.
    9900012    2    1    2    0    0 -0.21239306673E+01  0.26656139391E+01 -0.40516021492E+02  0.50528873390E+02  0.30000041155E+02 0.  0.
        -12    1    1    2    0    0  0.21239306673E+01 -0.26656139391E+01  0.40516021492E+02  0.40659126610E+02  0.00000000000E+00 0.  1.
         11    1    3    3    0    0  0.58484840815E+01  0.72055314021E+01 -0.24385565818E+02  0.26091766314E+02  0.51100000000E-03 0. -1.
        -11    1    3    3    0    0  0.16380193673E+01 -0.30583037680E+01  0.18971549619E+01  0.39541783718E+01  0.51100000000E-03 0.  1.
        -12    1    3    3    0    0 -0.96104341161E+01 -0.14816136951E+01 -0.18027610636E+02  0.20482928704E+02  0.00000000000E+00 0.  1.
</event>
<event>
 7    1  0.2584640E-011  0.5052886E+02  0.7816164E-02  0.1300439E+00
        -11   -1    0    0    0    0  0.00000000000E+00  0.00000000000E+00  0.45593999997E+02  0.45594000000E+02  0.51100000000E-03 0.  1.
         11   -1    0    0    0    0 -0.00000000000E+00 -0.00000000000E+00 -0.45593999997E+02  0.45594000000E+02  0.51100000000E-03 0. -1.
    9900012    2    1    2    0    0 -0.20959789648E+02 -0.20747356688E+02 -0.27989281319E+02  0.50528862523E+02  0.30000008124E+02 0.  0.
        -12    1    1    2    0    0  0.20959789648E+02  0.20747356688E+02  0.27989281319E+02  0.40659137477E+02  0.00000000000E+00 0.  1.
         11    1    3    3    0    0 -0.14094219957E+02 -0.10229586512E+02 -0.17964569411E+01  0.17507676436E+02  0.51100000000E-03 0. -1.
        -11    1    3    3    0    0 -0.31881741772E+01  0.33673949466E+01 -0.23817196759E+01  0.52130981370E+01  0.51100000000E-03 0.  1.
         12    1    3    3    0    0 -0.36773955140E+01 -0.13885165123E+02 -0.23811104702E+02  0.27808087949E+02  0.00000000000E+00 0. -1.
</event>
<event>
 7    1  0.3533222E-011  0.5052890E+02  0.7816164E-02  0.1300439E+00
        -11   -1    0    0    0    0  0.00000000000E+00  0.00000000000E+00  0.45593999997E+02  0.45594000000E+02  0.51100000000E-03 0. -1.
         11   -1    0    0    0    0 -0.00000000000E+00 -0.00000000000E+00 -0.45593999997E+02  0.45594000000E+02  0.51100000000E-03 0.  1.
    9900012    2    1    2    0    0  0.28117259645E+02 -0.10135221538E+02  0.27565541322E+02  0.50528904167E+02  0.30000134707E+02 0.  0.
        -12    1    1    2    0    0 -0.28117259645E+02  0.10135221538E+02 -0.27565541322E+02  0.40659095833E+02  0.00000000000E+00 0.  1.
         11    1    3    3    0    0  0.18537626968E+02 -0.14889632552E+02  0.20106690574E+02  0.31138782526E+02  0.51100000000E-03 0. -1.
        -11    1    3    3    0    0  0.44494055537E+01  0.29066814913E+00  0.10894172860E+02  0.11771350828E+02  0.51100000000E-03 0.  1.
        -12    1    3    3    0    0  0.51302271235E+01  0.44637428644E+01 -0.34353221115E+01  0.76187708134E+01  0.00000000000E+00 0.  1.
</event>
<event>
 7    1  0.2584640E-011  0.5052886E+02  0.7816164E-02  0.1300439E+00
        -11   -1    0    0    0    0  0.00000000000E+00  0.00000000000E+00  0.45593999997E+02  0.45594000000E+02  0.51100000000E-03 0.  1.
         11   -1    0    0    0    0 -0.00000000000E+00 -0.00000000000E+00 -0.45593999997E+02  0.45594000000E+02  0.51100000000E-03 0. -1.
    9900012    2    1    2    0    0  0.25717121452E+02 -0.31375346204E+02  0.27171260321E+01  0.50528862540E+02  0.30000008175E+02 0.  0.
        -12    1    1    2    0    0 -0.25717121452E+02  0.31375346204E+02 -0.27171260321E+01  0.40659137460E+02  0.00000000000E+00 0.  1.
         11    1    3    3    0    0  0.15279604960E+02 -0.49991866032E+01 -0.68986416936E+01  0.17494269116E+02  0.51100000000E-03 0. -1.
        -11    1    3    3    0    0  0.12542255235E+02 -0.15178709988E+02  0.31687019631E+01  0.19943472007E+02  0.51100000000E-03 0.  1.
        -12    1    3    3    0    0 -0.21047387438E+01 -0.11197449612E+02  0.64470657626E+01  0.13091121417E+02  0.00000000000E+00 0.  1.
</event>
<event>
 7    1  0.2584640E-011  0.5052885E+02  0.7816164E-02  0.1300439E+00
        -11   -1    0    0    0    0  0.00000000000E+00  0.00000000000E+00  0.45593999997E+02  0.45594000000E+02  0.51100000000E-03 0.  1.
         11   -1    0    0    0    0 -0.00000000000E+00 -0.00000000000E+00 -0.45593999997E+02  0.45594000000E+02  0.51100000000E-03 0. -1.
    9900012    2    1    2    0    0  0.11746137582E+02 -0.91680162890E+01 -0.37830437144E+02  0.50528852871E+02  0.29999978786E+02 0.  0.
        -12    1    1    2    0    0 -0.11746137582E+02  0.91680162890E+01  0.37830437144E+02  0.40659147129E+02  0.00000000000E+00 0.  1.
         11    1    3    3    0    0 -0.24486380844E+01  0.80930476448E+01 -0.16784263064E+02  0.18793741924E+02  0.51100000000E-03 0. -1.
        -11    1    3    3    0    0  0.54155111189E+01 -0.46835694568E+01 -0.23144329564E+01  0.75246384435E+01  0.51100000000E-03 0.  1.
        -12    1    3    3    0    0  0.87792645477E+01 -0.12577494477E+02 -0.18731741124E+02  0.24210472504E+02  0.00000000000E+00 0.  1.
</event>
<event>
 7    1  0.2584640E-011  0.5052886E+02  0.7816164E-02  0.1300439E+00
        -11   -1    0    0    0    0  0.00000000000E+00  0.00000000000E+00  0.45593999997E+02  0.45594000000E+02  0.51100000000E-03 0.  1.
         11   -1    0    0    0    0 -0.00000000000E+00 -0.00000000000E+00 -0.45593999997E+02  0.45594000000E+02  0.51100000000E-03 0. -1.
    9900012    2    1    2    0    0 -0.71500574832E+00  0.28468930751E+02  0.29020241365E+02  0.50528860066E+02  0.30000000656E+02 0.  0.
        -12    1    1    2    0    0  0.71500574832E+00 -0.28468930751E+02 -0.29020241365E+02  0.40659139934E+02  0.00000000000E+00 0.  1.
         11    1    3    3    0    0 -0.10820825301E+02  0.92957740865E+01  0.64444826264E+01  0.15653530996E+02  0.51100000000E-03 0. -1.
        -11    1    3    3    0    0  0.23292111398E+01  0.12257961693E+01  0.12688537253E+02  0.12958656515E+02  0.51100000000E-03 0.  1.
         12    1    3    3    0    0  0.77766084133E+01  0.17947360495E+02  0.98872214849E+01  0.21916672554E+02  0.00000000000E+00 0. -1.
</event>
<event>
 7    1  0.2584640E-011  0.5052888E+02  0.7816164E-02  0.1300439E+00
        -11   -1    0    0    0    0  0.00000000000E+00  0.00000000000E+00  0.45593999997E+02  0.45594000000E+02  0.51100000000E-03 0.  1.
         11   -1    0    0    0    0 -0.00000000000E+00 -0.00000000000E+00 -0.45593999997E+02  0.45594000000E+02  0.51100000000E-03 0. -1.
    9900012    2    1    2    0    0  0.38044528918E+01  0.21526966398E+02 -0.34282356376E+02  0.50528879218E+02  0.30000058870E+02 0.  0.
        -12    1    1    2    0    0 -0.38044528918E+01 -0.21526966398E+02  0.34282356376E+02  0.40659120782E+02  0.00000000000E+00 0.  1.
         11    1    3    3    0    0  0.80482470032E+01  0.22546596997E+02 -0.18206341047E+02  0.30076472043E+02  0.51100000000E-03 0. -1.
        -11    1    3    3    0    0 -0.27221263349E+01  0.33109383438E+01 -0.62208011135E+00  0.43311971123E+01  0.51100000000E-03 0.  1.
        -12    1    3    3    0    0 -0.15216677765E+01 -0.43305689424E+01 -0.15453935217E+02  0.16121210062E+02  0.00000000000E+00 0.  1.
</event>
<event>
 7    1  0.2584640E-011  0.5052886E+02  0.7816164E-02  0.1300439E+00
        -11   -1    0    0    0    0  0.00000000000E+00  0.00000000000E+00  0.45593999997E+02  0.45594000000E+02  0.51100000000E-03 0.  1.
         11   -1    0    0    0    0 -0.00000000000E+00 -0.00000000000E+00 -0.45593999997E+02  0.45594000000E+02  0.51100000000E-03 0. -1.
    9900012    2    1    2    0    0  0.20562874939E+01  0.22721372025E+02 -0.33655259948E+02  0.50528860964E+02  0.30000003387E+02 0.  0.
        -12    1    1    2    0    0 -0.20562874939E+01 -0.22721372025E+02  0.33655259948E+02  0.40659139036E+02  0.00000000000E+00 0.  1.
         11    1    3    3    0    0 -0.57237292299E+01  0.19199614668E+01 -0.73740167073E+01  0.95301338392E+01  0.51100000000E-03 0. -1.
        -11    1    3    3    0    0  0.60033338851E+01 -0.22388504731E+01 -0.12621718674E+02  0.14154866715E+02  0.51100000000E-03 0.  1.
        -12    1    3    3    0    0  0.17766828388E+01  0.23040261031E+02 -0.13659524566E+02  0.26843860409E+02  0.00000000000E+00 0.  1.
</event>
<event>
 7    1  0.2584640E-011  0.5052887E+02  0.7816164E-02  0.1300439E+00
        -11   -1    0    0    0    0  0.00000000000E+00  0.00000000000E+00  0.45593999997E+02  0.45594000000E+02  0.51100000000E-03 0.  1.
         11   -1    0    0    0    0 -0.00000000000E+00 -0.00000000000E+00 -0.45593999997E+02  0.45594000000E+02  0.51100000000E-03 0. -1.
    9900012    2    1    2    0    0  0.32031269726E+02 -0.10449645289E+02 -0.22758892755E+02  0.50528874009E+02  0.30000043037E+02 0.  0.
        -12    1    1    2    0    0 -0.32031269726E+02  0.10449645289E+02  0.22758892755E+02  0.40659125991E+02  0.00000000000E+00 0.  1.
         11    1    3    3    0    0  0.10635101732E+02  0.62544851851E+01 -0.17767088613E+01  0.12465178235E+02  0.51100000000E-03 0. -1.
        -11    1    3    3    0    0 -0.21744486951E+01  0.37089523938E+00 -0.34215083320E+01  0.40709347739E+01  0.51100000000E-03 0.  1.
         12    1    3    3    0    0  0.23570616689E+02 -0.17075025714E+02 -0.17560675562E+02  0.33992761000E+02  0.00000000000E+00 0. -1.
</event>
<event>
 7    1  0.2584640E-011  0.5052885E+02  0.7816164E-02  0.1300439E+00
        -11   -1    0    0    0    0  0.00000000000E+00  0.00000000000E+00  0.45593999997E+02  0.45594000000E+02  0.51100000000E-03 0. -1.
         11   -1    0    0    0    0 -0.00000000000E+00 -0.00000000000E+00 -0.45593999997E+02  0.45594000000E+02  0.51100000000E-03 0.  1.
    9900012    2    1    2    0    0 -0.24099898656E+02  0.28048800293E+02  0.16900466579E+02  0.50528854858E+02  0.29999984825E+02 0.  0.
        -12    1    1    2    0    0  0.24099898656E+02 -0.28048800293E+02 -0.16900466579E+02  0.40659145142E+02  0.00000000000E+00 0.  1.
         11    1    3    3    0    0  0.40804126223E+01 -0.17870228763E+01  0.96928187201E+00  0.45588074688E+01  0.51100000000E-03 0. -1.
        -11    1    3    3    0    0 -0.24646548519E+01  0.92020730468E+01  0.42647518333E+00  0.95359610549E+01  0.51100000000E-03 0.  1.
         12    1    3    3    0    0 -0.25715656427E+02  0.20633750123E+02  0.15504709523E+02  0.36434086334E+02  0.00000000000E+00 0. -1.
</event>
<event>
 7    1  0.2584640E-011  0.5052886E+02  0.7816164E-02  0.1300439E+00
        -11   -1    0    0    0    0  0.00000000000E+00  0.00000000000E+00  0.45593999997E+02  0.45594000000E+02  0.51100000000E-03 0.  1.
         11   -1    0    0    0    0 -0.00000000000E+00 -0.00000000000E+00 -0.45593999997E+02  0.45594000000E+02  0.51100000000E-03 0. -1.
    9900012    2    1    2    0    0 -0.38615690228E+02  0.53965331972E+01 -0.11526980493E+02  0.50528863491E+02  0.30000011068E+02 0.  0.
        -12    1    1    2    0    0  0.38615690228E+02 -0.53965331972E+01  0.11526980493E+02  0.40659136509E+02  0.00000000000E+00 0.  1.
         11    1    3    3    0    0 -0.13435374723E+01 -0.18615571282E+01 -0.76534117984E+01  0.79903191612E+01  0.51100000000E-03 0. -1.
        -11    1    3    3    0    0 -0.89970650881E+01  0.10473747705E+02 -0.26181241876E+01  0.14053510085E+02  0.51100000000E-03 0.  1.
         12    1    3    3    0    0 -0.28275087668E+02 -0.32156573799E+01 -0.12554445073E+01  0.28485034245E+02  0.00000000000E+00 0. -1.
</event>
<event>
 7    1  0.2584640E-011  0.5052876E+02  0.7816164E-02  0.1300439E+00
        -11   -1    0    0    0    0  0.00000000000E+00  0.00000000000E+00  0.45593999997E+02  0.45594000000E+02  0.51100000000E-03 0.  1.
         11   -1    0    0    0    0 -0.00000000000E+00 -0.00000000000E+00 -0.45593999997E+02  0.45594000000E+02  0.51100000000E-03 0. -1.
    9900012    2    1    2    0    0  0.15044841804E+02  0.34688676862E+02 -0.14950651532E+02  0.50528763059E+02  0.29999705793E+02 0.  0.
        -12    1    1    2    0    0 -0.15044841804E+02 -0.34688676862E+02  0.14950651532E+02  0.40659236941E+02  0.00000000000E+00 0.  1.
         11    1    3    3    0    0  0.80879059094E+01  0.93328946239E+01 -0.13338193652E+01  0.12421602893E+02  0.51100000000E-03 0. -1.
        -11    1    3    3    0    0  0.24623744117E+01  0.45775678958E+01  0.68490326333E+01  0.85980616337E+01  0.51100000000E-03 0.  1.
         12    1    3    3    0    0  0.44945614830E+01  0.20778214343E+02 -0.20465864800E+02  0.29509098533E+02  0.00000000000E+00 0. -1.
</event>
<event>
 7    1  0.2584640E-011  0.5052886E+02  0.7816164E-02  0.1300439E+00
        -11   -1    0    0    0    0  0.00000000000E+00  0.00000000000E+00  0.45593999997E+02  0.45594000000E+02  0.51100000000E-03 0.  1.
         11   -1    0    0    0    0 -0.00000000000E+00 -0.00000000000E+00 -0.45593999997E+02  0.45594000000E+02  0.51100000000E-03 0. -1.
    9900012    2    1    2    0    0 -0.24461768632E+02  0.32449613132E+02 -0.13454160185E+01  0.50528860052E+02  0.30000000615E+02 0.  0.
        -12    1    1    2    0    0  0.24461768632E+02 -0.32449613132E+02  0.13454160185E+01  0.40659139948E+02  0.00000000000E+00 0.  1.
         11    1    3    3    0    0 -0.80510411839E+01 -0.21460462091E+01 -0.10888733806E+01  0.84030008911E+01  0.51100000000E-03 0. -1.
        -11    1    3    3    0    0 -0.40144491242E+01  0.18048630437E+02 -0.78677129171E+01  0.20094023222E+02  0.51100000000E-03 0.  1.
         12    1    3    3    0    0 -0.12396278324E+02  0.16547028904E+02  0.76111702793E+01  0.22031835939E+02  0.00000000000E+00 0. -1.
</event>
<event>
 7    1  0.2584640E-011  0.5052886E+02  0.7816164E-02  0.1300439E+00
        -11   -1    0    0    0    0  0.00000000000E+00  0.00000000000E+00  0.45593999997E+02  0.45594000000E+02  0.51100000000E-03 0.  1.
         11   -1    0    0    0    0 -0.00000000000E+00 -0.00000000000E+00 -0.45593999997E+02  0.45594000000E+02  0.51100000000E-03 0. -1.
    9900012    2    1    2    0    0 -0.32064015804E+01  0.13199918517E+02 -0.38322928186E+02  0.50528859765E+02  0.29999999741E+02 0.  0.
        -12    1    1    2    0    0  0.32064015804E+01 -0.13199918517E+02  0.38322928186E+02  0.40659140235E+02  0.00000000000E+00 0.  1.
         11    1    3    3    0    0  0.44404283367E+01  0.51556191486E+01 -0.77011986716E+01  0.10276491320E+02  0.51100000000E-03 0.  1.
        -11    1    3    3    0    0 -0.13685813170E+02  0.28556911261E+01 -0.28903622584E+02  0.32107255453E+02  0.51100000000E-03 0. -1.
         12    1    3    3    0    0  0.60389832534E+01  0.51886082422E+01 -0.17181069299E+01  0.81451129918E+01  0.00000000000E+00 0. -1.
</event>
<event>
 7    1  0.2584640E-011  0.5052884E+02  0.7816164E-02  0.1300439E+00
        -11   -1    0    0    0    0  0.00000000000E+00  0.00000000000E+00  0.45593999997E+02  0.45594000000E+02  0.51100000000E-03 0. -1.
         11   -1    0    0    0    0 -0.00000000000E+00 -0.00000000000E+00 -0.45593999997E+02  0.45594000000E+02  0.51100000000E-03 0.  1.
    9900012    2    1    2    0    0  0.19255147187E+02  0.35324530918E+02  0.58807930797E+01  0.50528844757E+02  0.29999954124E+02 0.  0.
        -12    1    1    2    0    0 -0.19255147187E+02 -0.35324530918E+02 -0.58807930797E+01  0.40659155243E+02  0.00000000000E+00 0.  1.
         11    1    3    3    0    0  0.60243047840E+01  0.17614925314E+02 -0.57328520126E+01  0.19479307852E+02  0.51100000000E-03 0. -1.
        -11    1    3    3    0    0 -0.23051745032E+01 -0.14171600611E+01 -0.15437756761E+01  0.31153516219E+01  0.51100000000E-03 0.  1.
         12    1    3    3    0    0  0.15536016907E+02  0.19126765665E+02  0.13157420768E+02  0.27934185283E+02  0.00000000000E+00 0. -1.
</event>
<event>
 7    1  0.2584640E-011  0.5052891E+02  0.7816164E-02  0.1300439E+00
        -11   -1    0    0    0    0  0.00000000000E+00  0.00000000000E+00  0.45593999997E+02  0.45594000000E+02  0.51100000000E-03 0.  1.
         11   -1    0    0    0    0 -0.00000000000E+00 -0.00000000000E+00 -0.45593999997E+02  0.45594000000E+02  0.51100000000E-03 0. -1.
    9900012    2    1    2    0    0  0.32555050360E+02  0.15922073617E+02 -0.18434148640E+02  0.50528910385E+02  0.30000153607E+02 0.  0.
        -12    1    1    2    0    0 -0.32555050360E+02 -0.15922073617E+02  0.18434148640E+02  0.40659089615E+02  0.00000000000E+00 0.  1.
         11    1    3    3    0    0  0.11296221826E+02  0.47625206619E+01 -0.52822412793E+01  0.13348719182E+02  0.51100000000E-03 0. -1.
        -11    1    3    3    0    0  0.58223198780E+01  0.19248515836E+01 -0.17610754997E+02  0.18647872645E+02  0.51100000000E-03 0.  1.
        -12    1    3    3    0    0  0.15436508656E+02  0.92347013715E+01  0.44588476362E+01  0.18532318558E+02  0.00000000000E+00 0.  1.
</event>
<event>
 7    1  0.2584640E-011  0.5052887E+02  0.7816164E-02  0.1300439E+00
        -11   -1    0    0    0    0  0.00000000000E+00  0.00000000000E+00  0.45593999997E+02  0.45594000000E+02  0.51100000000E-03 0. -1.
         11   -1    0    0    0    0 -0.00000000000E+00 -0.00000000000E+00 -0.45593999997E+02  0.45594000000E+02  0.51100000000E-03 0.  1.
    9900012    2    1    2    0    0 -0.22009457177E+02 -0.32342331072E+02  0.11077995968E+02  0.50528873361E+02  0.30000041069E+02 0.  0.
        -12    1    1    2    0    0  0.22009457177E+02  0.32342331072E+02 -0.11077995968E+02  0.40659126639E+02  0.00000000000E+00 0.  1.
         11    1    3    3    0    0 -0.41840267698E+01 -0.14243279854E+02  0.29821833924E+01  0.15141681514E+02  0.51100000000E-03 0. -1.
        -11    1    3    3    0    0 -0.32116147666E+00 -0.85033732854E+01 -0.64585223823E+01  0.10682837336E+02  0.51100000000E-03 0.  1.
         12    1    3    3    0    0 -0.17504268930E+02 -0.95956779321E+01  0.14554334958E+02  0.24704354511E+02  0.00000000000E+00 0. -1.
</event>
<event>
 7    1  0.2584640E-011  0.5052887E+02  0.7816164E-02  0.1300439E+00
        -11   -1    0    0    0    0  0.00000000000E+00  0.00000000000E+00  0.45593999997E+02  0.45594000000E+02  0.51100000000E-03 0.  1.
         11   -1    0    0    0    0 -0.00000000000E+00 -0.00000000000E+00 -0.45593999997E+02  0.45594000000E+02  0.51100000000E-03 0. -1.
    9900012    2    1    2    0    0  0.22974393668E+02  0.24862460712E+02 -0.22521098484E+02  0.50528873177E+02  0.30000040509E+02 0.  0.
        -12    1    1    2    0    0 -0.22974393668E+02 -0.24862460712E+02  0.22521098484E+02  0.40659126823E+02  0.00000000000E+00 0.  1.
         11    1    3    3    0    0  0.13099374047E+02  0.69319251577E+01 -0.48630015751E+01  0.15597883555E+02  0.51100000000E-03 0. -1.
        -11    1    3    3    0    0  0.16399252720E+02  0.10214916881E+02 -0.78658324917E+01  0.20860281343E+02  0.51100000000E-03 0.  1.
        -12    1    3    3    0    0 -0.65242330993E+01  0.77156186731E+01 -0.97922644173E+01  0.14070708279E+02  0.00000000000E+00 0.  1.
</event>
<event>
 7    1  0.2584640E-011  0.5052885E+02  0.7816164E-02  0.1300439E+00
        -11   -1    0    0    0    0  0.00000000000E+00  0.00000000000E+00  0.45593999997E+02  0.45594000000E+02  0.51100000000E-03 0.  1.
         11   -1    0    0    0    0 -0.00000000000E+00 -0.00000000000E+00 -0.45593999997E+02  0.45594000000E+02  0.51100000000E-03 0. -1.
    9900012    2    1    2    0    0 -0.18696599994E+02  0.83010768626E+01 -0.35138241448E+02  0.50528846782E+02  0.29999960278E+02 0.  0.
        -12    1    1    2    0    0  0.18696599994E+02 -0.83010768626E+01  0.35138241448E+02  0.40659153218E+02  0.00000000000E+00 0.  1.
         11    1    3    3    0    0 -0.24407865000E+01 -0.72340886823E+01 -0.15910628146E+02  0.17647593776E+02  0.51100000000E-03 0. -1.
        -11    1    3    3    0    0 -0.68385925981E+01  0.35012838576E+01  0.76157604594E+00  0.77204491910E+01  0.51100000000E-03 0.  1.
        -12    1    3    3    0    0 -0.94172208953E+01  0.12033881687E+02 -0.19989189347E+02  0.25160803815E+02  0.00000000000E+00 0.  1.
</event>
<event>
 7    1  0.2584640E-011  0.5052885E+02  0.7816164E-02  0.1300439E+00
        -11   -1    0    0    0    0  0.00000000000E+00  0.00000000000E+00  0.45593999997E+02  0.45594000000E+02  0.51100000000E-03 0. -1.
         11   -1    0    0    0    0 -0.00000000000E+00 -0.00000000000E+00 -0.45593999997E+02  0.45594000000E+02  0.51100000000E-03 0.  1.
    9900012    2    1    2    0    0  0.51424062793E+01  0.57093865919E+01  0.39926498596E+02  0.50528846938E+02  0.29999960752E+02 0.  0.
        -12    1    1    2    0    0 -0.51424062793E+01 -0.57093865919E+01 -0.39926498596E+02  0.40659153062E+02  0.00000000000E+00 0.  1.
         11    1    3    3    0    0  0.83385754211E+01  0.37928266076E+01  0.68875609075E+01  0.11461058819E+02  0.51100000000E-03 0. -1.
        -11    1    3    3    0    0 -0.30590946002E+01 -0.70808873393E+01  0.40452810195E+01  0.87098406457E+01  0.51100000000E-03 0.  1.
         12    1    3    3    0    0 -0.13707454154E+00  0.89974473236E+01  0.28993656669E+02  0.30357947474E+02  0.00000000000E+00 0. -1.
</event>
<event>
 7    1  0.2584640E-011  0.5052886E+02  0.7816164E-02  0.1300439E+00
        -11   -1    0    0    0    0  0.00000000000E+00  0.00000000000E+00  0.45593999997E+02  0.45594000000E+02  0.51100000000E-03 0. -1.
         11   -1    0    0    0    0 -0.00000000000E+00 -0.00000000000E+00 -0.45593999997E+02  0.45594000000E+02  0.51100000000E-03 0.  1.
    9900012    2    1    2    0    0 -0.60874819241E+01 -0.38360054267E+02  0.12025582216E+02  0.50528858012E+02  0.29999994414E+02 0.  0.
        -12    1    1    2    0    0  0.60874819241E+01  0.38360054267E+02 -0.12025582216E+02  0.40659141988E+02  0.00000000000E+00 0.  1.
         11    1    3    3    0    0  0.70107307530E+00  0.13733262262E+01  0.41534315384E+01  0.44304088057E+01  0.51100000000E-03 0. -1.
        -11    1    3    3    0    0 -0.58552494809E+01 -0.18958543062E+02 -0.64314715446E+01  0.20858430621E+02  0.51100000000E-03 0.  1.
         12    1    3    3    0    0 -0.93330551850E+00 -0.20774837432E+02  0.14303622222E+02  0.25240018585E+02  0.00000000000E+00 0. -1.
</event>
<event>
 7    1  0.2584640E-011  0.5052885E+02  0.7816164E-02  0.1300439E+00
        -11   -1    0    0    0    0  0.00000000000E+00  0.00000000000E+00  0.45593999997E+02  0.45594000000E+02  0.51100000000E-03 0.  1.
         11   -1    0    0    0    0 -0.00000000000E+00 -0.00000000000E+00 -0.45593999997E+02  0.45594000000E+02  0.51100000000E-03 0. -1.
    9900012    2    1    2    0    0 -0.39606554724E+01  0.80792370570E+01 -0.39651051062E+02  0.50528847113E+02  0.29999961284E+02 0.  0.
        -12    1    1    2    0    0  0.39606554724E+01 -0.80792370570E+01  0.39651051062E+02  0.40659152887E+02  0.00000000000E+00 0.  1.
         11    1    3    3    0    0  0.57545596200E+01  0.22958915122E+01 -0.24596151944E+02  0.25364478409E+02  0.51100000000E-03 0. -1.
        -11    1    3    3    0    0 -0.67529877986E+01 -0.30038974582E+01 -0.14000359672E+02  0.15831497572E+02  0.51100000000E-03 0.  1.
         12    1    3    3    0    0 -0.29622272938E+01  0.87872430030E+01 -0.10545394461E+01  0.93328711325E+01  0.00000000000E+00 0. -1.
</event>
<event>
 7    1  0.2584640E-011  0.5052886E+02  0.7816164E-02  0.1300439E+00
        -11   -1    0    0    0    0  0.00000000000E+00  0.00000000000E+00  0.45593999997E+02  0.45594000000E+02  0.51100000000E-03 0. -1.
         11   -1    0    0    0    0 -0.00000000000E+00 -0.00000000000E+00 -0.45593999997E+02  0.45594000000E+02  0.51100000000E-03 0.  1.
    9900012    2    1    2    0    0 -0.22063047088E+02 -0.30964426039E+02  0.14408062277E+02  0.50528856068E+02  0.29999988504E+02 0.  0.
        -12    1    1    2    0    0  0.22063047088E+02  0.30964426039E+02 -0.14408062277E+02  0.40659143932E+02  0.00000000000E+00 0.  1.
         11    1    3    3    0    0 -0.79925126074E+01 -0.14669677801E+02 -0.52969153121E+00  0.16714074247E+02  0.51100000000E-03 0. -1.
        -11    1    3    3    0    0 -0.55100254275E+01  0.26031384770E+01 -0.26225440365E+01  0.66343385221E+01  0.51100000000E-03 0.  1.
        -12    1    3    3    0    0 -0.85605090532E+01 -0.18897886715E+02  0.17560297844E+02  0.27180443299E+02  0.00000000000E+00 0.  1.
</event>
<event>
 7    1  0.2584640E-011  0.5052885E+02  0.7816164E-02  0.1300439E+00
        -11   -1    0    0    0    0  0.00000000000E+00  0.00000000000E+00  0.45593999997E+02  0.45594000000E+02  0.51100000000E-03 0.  1.
         11   -1    0    0    0    0 -0.00000000000E+00 -0.00000000000E+00 -0.45593999997E+02  0.45594000000E+02  0.51100000000E-03 0. -1.
    9900012    2    1    2    0    0 -0.19125664361E+02  0.22751945682E+02 -0.27743910783E+02  0.50528847831E+02  0.29999963468E+02 0.  0.
        -12    1    1    2    0    0  0.19125664361E+02 -0.22751945682E+02  0.27743910783E+02  0.40659152169E+02  0.00000000000E+00 0.  1.
         11    1    3    3    0    0 -0.13732922551E+02  0.81983832115E+01 -0.16666225429E+02  0.23099128109E+02  0.51100000000E-03 0. -1.
        -11    1    3    3    0    0 -0.20976438816E+00  0.27661303144E+01 -0.13961263251E+02  0.14234196494E+02  0.51100000000E-03 0.  1.
         12    1    3    3    0    0 -0.51829774215E+01  0.11787432156E+02  0.28835778969E+01  0.13195523229E+02  0.00000000000E+00 0. -1.
</event>
<event>
 7    1  0.2584640E-011  0.5052889E+02  0.7816164E-02  0.1300439E+00
        -11   -1    0    0    0    0  0.00000000000E+00  0.00000000000E+00  0.45593999997E+02  0.45594000000E+02  0.51100000000E-03 0.  1.
         11   -1    0    0    0    0 -0.00000000000E+00 -0.00000000000E+00 -0.45593999997E+02  0.45594000000E+02  0.51100000000E-03 0. -1.
    9900012    2    1    2    0    0  0.18520344486E+02 -0.31095370190E+02 -0.18526691720E+02  0.50528886468E+02  0.30000080907E+02 0.  0.
        -12    1    1    2    0    0 -0.18520344486E+02  0.31095370190E+02  0.18526691720E+02  0.40659113532E+02  0.00000000000E+00 0.  1.
         11    1    3    3    0    0  0.45900334209E+00 -0.15513670314E+02 -0.69615464743E+01  0.17010225756E+02  0.51100000000E-03 0.  1.
        -11    1    3    3    0    0 -0.34263156022E+01  0.85850800840E+00 -0.41815221317E+01  0.54737374988E+01  0.51100000000E-03 0. -1.
         12    1    3    3    0    0  0.21487656746E+02 -0.16440207884E+02 -0.73836231142E+01  0.28044923213E+02  0.00000000000E+00 0. -1.
</event>
<event>
 7    1  0.2584640E-011  0.5052886E+02  0.7816164E-02  0.1300439E+00
        -11   -1    0    0    0    0  0.00000000000E+00  0.00000000000E+00  0.45593999997E+02  0.45594000000E+02  0.51100000000E-03 0. -1.
         11   -1    0    0    0    0 -0.00000000000E+00 -0.00000000000E+00 -0.45593999997E+02  0.45594000000E+02  0.51100000000E-03 0.  1.
    9900012    2    1    2    0    0 -0.81557729118E+01 -0.19004806612E+02  0.35006660358E+02  0.50528861106E+02  0.30000003818E+02 0.  0.
        -12    1    1    2    0    0  0.81557729118E+01  0.19004806612E+02 -0.35006660358E+02  0.40659138894E+02  0.00000000000E+00 0.  1.
         11    1    3    3    0    0 -0.62574312051E+01 -0.15453084968E+02  0.11798828214E+02  0.20424632868E+02  0.51100000000E-03 0. -1.
        -11    1    3    3    0    0 -0.39585437617E+00 -0.29035821006E+01  0.26376079771E+02  0.26538369846E+02  0.51100000000E-03 0.  1.
         12    1    3    3    0    0 -0.15024873305E+01 -0.64813954338E+00 -0.31682476270E+01  0.35658583920E+01  0.00000000000E+00 0. -1.
</event>
<event>
 7    1  0.2584640E-011  0.5052886E+02  0.7816164E-02  0.1300439E+00
        -11   -1    0    0    0    0  0.00000000000E+00  0.00000000000E+00  0.45593999997E+02  0.45594000000E+02  0.51100000000E-03 0.  1.
         11   -1    0    0    0    0 -0.00000000000E+00 -0.00000000000E+00 -0.45593999997E+02  0.45594000000E+02  0.51100000000E-03 0. -1.
    9900012    2    1    2    0    0 -0.65328639086E+01 -0.24059892175E+02 -0.32118671998E+02  0.50528858183E+02  0.29999994934E+02 0.  0.
        -12    1    1    2    0    0  0.65328639086E+01  0.24059892175E+02  0.32118671998E+02  0.40659141817E+02  0.00000000000E+00 0.  1.
         11    1    3    3    0    0  0.41294449070E+01 -0.99186383525E+01  0.12168220516E+00  0.10744603707E+02  0.51100000000E-03 0. -1.
        -11    1    3    3    0    0  0.23961087300E+01 -0.24826002427E+01 -0.43235300966E+00  0.34772935449E+01  0.51100000000E-03 0.  1.
         12    1    3    3    0    0 -0.13058417546E+02 -0.11658653580E+02 -0.31808001194E+02  0.36306960931E+02  0.00000000000E+00 0. -1.
</event>
<event>
 7    1  0.2584640E-011  0.5052885E+02  0.7816164E-02  0.1300439E+00
        -11   -1    0    0    0    0  0.00000000000E+00  0.00000000000E+00  0.45593999997E+02  0.45594000000E+02  0.51100000000E-03 0.  1.
         11   -1    0    0    0    0 -0.00000000000E+00 -0.00000000000E+00 -0.45593999997E+02  0.45594000000E+02  0.51100000000E-03 0. -1.
    9900012    2    1    2    0    0 -0.15607377629E+02  0.18293518146E+01 -0.37499732308E+02  0.50528847430E+02  0.29999962249E+02 0.  0.
        -12    1    1    2    0    0  0.15607377629E+02 -0.18293518146E+01  0.37499732308E+02  0.40659152570E+02  0.00000000000E+00 0.  1.
         11    1    3    3    0    0  0.31835278380E+01 -0.19652246615E+00 -0.10417008623E+02  0.10894381097E+02  0.51100000000E-03 0. -1.
        -11    1    3    3    0    0 -0.91657791109E+01 -0.23945434127E+01  0.10906011152E+01  0.95359716820E+01  0.51100000000E-03 0.  1.
        -12    1    3    3    0    0 -0.96251263563E+01  0.44204176934E+01 -0.28173324800E+02  0.30098494651E+02  0.00000000000E+00 0.  1.
</event>
<event>
 7    1  0.2584640E-011  0.5052886E+02  0.7816164E-02  0.1300439E+00
        -11   -1    0    0    0    0  0.00000000000E+00  0.00000000000E+00  0.45593999997E+02  0.45594000000E+02  0.51100000000E-03 0. -1.
         11   -1    0    0    0    0 -0.00000000000E+00 -0.00000000000E+00 -0.45593999997E+02  0.45594000000E+02  0.51100000000E-03 0.  1.
    9900012    2    1    2    0    0  0.39823971259E+02  0.53805220943E+01 -0.61860182254E+01  0.50528861712E+02  0.30000005659E+02 0.  0.
        -12    1    1    2    0    0 -0.39823971259E+02 -0.53805220943E+01  0.61860182254E+01  0.40659138288E+02  0.00000000000E+00 0.  1.
         11    1    3    3    0    0  0.32146820693E+02 -0.21883470489E+01 -0.14595092827E+02  0.35372640252E+02  0.51100000000E-03 0. -1.
        -11    1    3    3    0    0  0.44065717599E+00 -0.11450630080E+01  0.12771912748E+01  0.17710352488E+01  0.51100000000E-03 0.  1.
         12    1    3    3    0    0  0.72364933901E+01  0.87139321511E+01  0.71318833273E+01  0.13385186211E+02  0.00000000000E+00 0. -1.
</event>
<event>
 7    1  0.2584640E-011  0.5052888E+02  0.7816164E-02  0.1300439E+00
        -11   -1    0    0    0    0  0.00000000000E+00  0.00000000000E+00  0.45593999997E+02  0.45594000000E+02  0.51100000000E-03 0.  1.
         11   -1    0    0    0    0 -0.00000000000E+00 -0.00000000000E+00 -0.45593999997E+02  0.45594000000E+02  0.51100000000E-03 0. -1.
    9900012    2    1    2    0    0 -0.22400417384E+02  0.13560317248E+02 -0.31104717660E+02  0.50528876011E+02  0.30000049122E+02 0.  0.
        -12    1    1    2    0    0  0.22400417384E+02 -0.13560317248E+02  0.31104717660E+02  0.40659123989E+02  0.00000000000E+00 0.  1.
         11    1    3    3    0    0 -0.90043857329E+01 -0.26618500661E+01 -0.91599342375E+00  0.94341641079E+01  0.51100000000E-03 0.  1.
        -11    1    3    3    0    0 -0.70025002632E+01 -0.24258130774E+01 -0.12884940686E+02  0.14864093506E+02  0.51100000000E-03 0. -1.
         12    1    3    3    0    0 -0.63935313883E+01  0.18647980391E+02 -0.17303783550E+02  0.26230618396E+02  0.00000000000E+00 0. -1.
</event>
<event>
 7    1  0.2584640E-011  0.5052890E+02  0.7816164E-02  0.1300439E+00
        -11   -1    0    0    0    0  0.00000000000E+00  0.00000000000E+00  0.45593999997E+02  0.45594000000E+02  0.51100000000E-03 0. -1.
         11   -1    0    0    0    0 -0.00000000000E+00 -0.00000000000E+00 -0.45593999997E+02  0.45594000000E+02  0.51100000000E-03 0.  1.
    9900012    2    1    2    0    0  0.30088166185E+02  0.81615831319E+01  0.26100822090E+02  0.50528903879E+02  0.30000133831E+02 0.  0.
        -12    1    1    2    0    0 -0.30088166185E+02 -0.81615831319E+01 -0.26100822090E+02  0.40659096121E+02  0.00000000000E+00 0.  1.
         11    1    3    3    0    0  0.55314357848E+01 -0.52179734348E+01  0.19854539718E+01  0.78591383970E+01  0.51100000000E-03 0. -1.
        -11    1    3    3    0    0 -0.25845282641E+01  0.43637707936E+01  0.89774611693E+01  0.10311017951E+02  0.51100000000E-03 0.  1.
        -12    1    3    3    0    0  0.27141258664E+02  0.90157857731E+01  0.15137906948E+02  0.32358747531E+02  0.00000000000E+00 0.  1.
</event>
<event>
 7    1  0.2584640E-011  0.5052886E+02  0.7816164E-02  0.1300439E+00
        -11   -1    0    0    0    0  0.00000000000E+00  0.00000000000E+00  0.45593999997E+02  0.45594000000E+02  0.51100000000E-03 0.  1.
         11   -1    0    0    0    0 -0.00000000000E+00 -0.00000000000E+00 -0.45593999997E+02  0.45594000000E+02  0.51100000000E-03 0. -1.
    9900012    2    1    2    0    0  0.17078446674E+02  0.31536424888E+02 -0.19155836454E+02  0.50528861965E+02  0.30000006428E+02 0.  0.
        -12    1    1    2    0    0 -0.17078446674E+02 -0.31536424888E+02  0.19155836454E+02  0.40659138035E+02  0.00000000000E+00 0.  1.
         11    1    3    3    0    0  0.43418260796E+01  0.16592954009E+02 -0.16399448176E+01  0.17229828661E+02  0.51100000000E-03 0. -1.
        -11    1    3    3    0    0  0.90157330061E+01  0.17327071137E+02 -0.51974341376E+01  0.20211980549E+02  0.51100000000E-03 0.  1.
         12    1    3    3    0    0  0.37208875878E+01 -0.23836002579E+01 -0.12318457499E+02  0.13087052754E+02  0.00000000000E+00 0. -1.
</event>
<event>
 7    1  0.2584640E-011  0.5052886E+02  0.7816164E-02  0.1300439E+00
        -11   -1    0    0    0    0  0.00000000000E+00  0.00000000000E+00  0.45593999997E+02  0.45594000000E+02  0.51100000000E-03 0.  1.
         11   -1    0    0    0    0 -0.00000000000E+00 -0.00000000000E+00 -0.45593999997E+02  0.45594000000E+02  0.51100000000E-03 0. -1.
    9900012    2    1    2    0    0  0.30498500010E+02  0.67934418090E+01 -0.26016463139E+02  0.50528859468E+02  0.29999998840E+02 0.  0.
        -12    1    1    2    0    0 -0.30498500010E+02 -0.67934418090E+01  0.26016463139E+02  0.40659140532E+02  0.00000000000E+00 0.  1.
         11    1    3    3    0    0  0.74766573584E+01  0.46395579287E+00 -0.21512838045E+02  0.22779768683E+02  0.51100000000E-03 0. -1.
        -11    1    3    3    0    0  0.42394193075E+01 -0.39753617034E+01  0.20032732211E+00  0.58151791060E+01  0.51100000000E-03 0.  1.
        -12    1    3    3    0    0  0.18782423344E+02  0.10304847719E+02 -0.47039524160E+01  0.21933911679E+02  0.00000000000E+00 0.  1.
</event>
<event>
 7    1  0.2584640E-011  0.5052887E+02  0.7816164E-02  0.1300439E+00
        -11   -1    0    0    0    0  0.00000000000E+00  0.00000000000E+00  0.45593999997E+02  0.45594000000E+02  0.51100000000E-03 0.  1.
         11   -1    0    0    0    0 -0.00000000000E+00 -0.00000000000E+00 -0.45593999997E+02  0.45594000000E+02  0.51100000000E-03 0. -1.
    9900012    2    1    2    0    0 -0.30724959795E+02  0.24241090497E+02 -0.11023215302E+02  0.50528869433E+02  0.30000029130E+02 0.  0.
        -12    1    1    2    0    0  0.30724959795E+02 -0.24241090497E+02  0.11023215302E+02  0.40659130567E+02  0.00000000000E+00 0.  1.
         11    1    3    3    0    0 -0.10863659472E+02  0.17230158146E+02 -0.68087195125E+01  0.21476873807E+02  0.51100000000E-03 0. -1.
        -11    1    3    3    0    0 -0.21620641351E+02  0.78177315019E+01 -0.83708112126E+01  0.24467111372E+02  0.51100000000E-03 0.  1.
        -12    1    3    3    0    0  0.17593410286E+01 -0.80679915159E+00  0.41563154234E+01  0.45848842542E+01  0.00000000000E+00 0.  1.
</event>
<event>
 7    1  0.2584640E-011  0.5052880E+02  0.7816164E-02  0.1300439E+00
        -11   -1    0    0    0    0  0.00000000000E+00  0.00000000000E+00  0.45593999997E+02  0.45594000000E+02  0.51100000000E-03 0. -1.
         11   -1    0    0    0    0 -0.00000000000E+00 -0.00000000000E+00 -0.45593999997E+02  0.45594000000E+02  0.51100000000E-03 0.  1.
    9900012    2    1    2    0    0 -0.82290242480E+01  0.38993392921E+02  0.80603522267E+01  0.50528796741E+02  0.29999808175E+02 0.  0.
        -12    1    1    2    0    0  0.82290242480E+01 -0.38993392921E+02 -0.80603522267E+01  0.40659203259E+02  0.00000000000E+00 0.  1.
         11    1    3    3    0    0  0.58956956895E+01  0.96702492794E+01 -0.10599810804E+01  0.11375258632E+02  0.51100000000E-03 0. -1.
        -11    1    3    3    0    0 -0.20759045395E+01 -0.25897137796E+01  0.30467564923E+01  0.45054103589E+01  0.51100000000E-03 0.  1.
         12    1    3    3    0    0 -0.12048815398E+02  0.31912857422E+02  0.60735768148E+01  0.34648127751E+02  0.00000000000E+00 0. -1.
</event>
<event>
 7    1  0.2584640E-011  0.5052886E+02  0.7816164E-02  0.1300439E+00
        -11   -1    0    0    0    0  0.00000000000E+00  0.00000000000E+00  0.45593999997E+02  0.45594000000E+02  0.51100000000E-03 0.  1.
         11   -1    0    0    0    0 -0.00000000000E+00 -0.00000000000E+00 -0.45593999997E+02  0.45594000000E+02  0.51100000000E-03 0. -1.
    9900012    2    1    2    0    0  0.31381514618E+02  0.11069884855E+02 -0.23362878750E+02  0.50528856946E+02  0.29999991173E+02 0.  0.
        -12    1    1    2    0    0 -0.31381514618E+02 -0.11069884855E+02  0.23362878750E+02  0.40659143054E+02  0.00000000000E+00 0.  1.
         11    1    3    3    0    0  0.10675919968E+02  0.60338044166E+01 -0.16769099837E+02  0.20774618468E+02  0.51100000000E-03 0. -1.
        -11    1    3    3    0    0  0.20644641737E+02  0.98640857846E+01 -0.87106712416E+01  0.24482181572E+02  0.51100000000E-03 0.  1.
        -12    1    3    3    0    0  0.60952912885E-01 -0.48280053463E+01  0.21168923285E+01  0.52720569052E+01  0.00000000000E+00 0.  1.
</event>
<event>
 7    1  0.2585437E-011  0.5052886E+02  0.7816164E-02  0.1300439E+00
        -11   -1    0    0    0    0  0.00000000000E+00  0.00000000000E+00  0.45593999997E+02  0.45594000000E+02  0.51100000000E-03 0.  1.
         11   -1    0    0    0    0 -0.00000000000E+00 -0.00000000000E+00 -0.45593999997E+02  0.45594000000E+02  0.51100000000E-03 0. -1.
    9900012    2    1    2    0    0 -0.20854366884E+02  0.31939581502E+02 -0.14075649344E+02  0.50528863400E+02  0.30000010790E+02 0.  0.
        -12    1    1    2    0    0  0.20854366884E+02 -0.31939581502E+02  0.14075649344E+02  0.40659136600E+02  0.00000000000E+00 0.  1.
         11    1    3    3    0    0 -0.21988315223E+02  0.27941694928E+02 -0.76188268026E+01  0.36363042280E+02  0.51100000000E-03 0. -1.
        -11    1    3    3    0    0  0.39959810922E+01  0.72438573413E+01 -0.44814404849E+01  0.94087535386E+01  0.51100000000E-03 0.  1.
        -12    1    3    3    0    0 -0.28620327533E+01 -0.32459707671E+01 -0.19753820565E+01  0.47570675810E+01  0.00000000000E+00 0.  1.
</event>
<event>
 7    1  0.2584640E-011  0.5052886E+02  0.7816164E-02  0.1300439E+00
        -11   -1    0    0    0    0  0.00000000000E+00  0.00000000000E+00  0.45593999997E+02  0.45594000000E+02  0.51100000000E-03 0. -1.
         11   -1    0    0    0    0 -0.00000000000E+00 -0.00000000000E+00 -0.45593999997E+02  0.45594000000E+02  0.51100000000E-03 0.  1.
    9900012    2    1    2    0    0  0.12513607351E+02  0.14339214143E+02  0.35929959054E+02  0.50528863403E+02  0.30000010800E+02 0.  0.
        -12    1    1    2    0    0 -0.12513607351E+02 -0.14339214143E+02 -0.35929959054E+02  0.40659136597E+02  0.00000000000E+00 0.  1.
         11    1    3    3    0    0  0.42843314106E+01 -0.57907552644E+00  0.50900530769E+01  0.66782830643E+01  0.51100000000E-03 0. -1.
        -11    1    3    3    0    0 -0.43986272361E+00  0.97234630093E+00 -0.46367151222E+01  0.47579474493E+01  0.51100000000E-03 0.  1.
        -12    1    3    3    0    0  0.86691386645E+01  0.13945943368E+02  0.35476621099E+02  0.39092632890E+02  0.00000000000E+00 0.  1.
</event>
<event>
 7    1  0.2584640E-011  0.5052886E+02  0.7816164E-02  0.1300439E+00
        -11   -1    0    0    0    0  0.00000000000E+00  0.00000000000E+00  0.45593999997E+02  0.45594000000E+02  0.51100000000E-03 0. -1.
         11   -1    0    0    0    0 -0.00000000000E+00 -0.00000000000E+00 -0.45593999997E+02  0.45594000000E+02  0.51100000000E-03 0.  1.
    9900012    2    1    2    0    0 -0.74665624776E+01 -0.31510114215E+02  0.24587171193E+02  0.50528857851E+02  0.29999993923E+02 0.  0.
        -12    1    1    2    0    0  0.74665624776E+01  0.31510114215E+02 -0.24587171193E+02  0.40659142149E+02  0.00000000000E+00 0.  1.
         11    1    3    3    0    0  0.58201016268E+00  0.28756883379E+01 -0.12675770749E+01  0.31961024933E+01  0.51100000000E-03 0. -1.
        -11    1    3    3    0    0 -0.31292276804E+01 -0.19556512576E+02  0.35822337881E+01  0.20126640286E+02  0.51100000000E-03 0.  1.
         12    1    3    3    0    0 -0.49193449599E+01 -0.14829289976E+02  0.22272514480E+02  0.27206115071E+02  0.00000000000E+00 0. -1.
</event>
<event>
 7    1  0.2584640E-011  0.5052886E+02  0.7816164E-02  0.1300439E+00
        -11   -1    0    0    0    0  0.00000000000E+00  0.00000000000E+00  0.45593999997E+02  0.45594000000E+02  0.51100000000E-03 0.  1.
         11   -1    0    0    0    0 -0.00000000000E+00 -0.00000000000E+00 -0.45593999997E+02  0.45594000000E+02  0.51100000000E-03 0. -1.
    9900012    2    1    2    0    0  0.65225754711E+01  0.29412587724E+02 -0.27304240615E+02  0.50528857572E+02  0.29999993076E+02 0.  0.
        -12    1    1    2    0    0 -0.65225754711E+01 -0.29412587724E+02  0.27304240615E+02  0.40659142428E+02  0.00000000000E+00 0.  1.
         11    1    3    3    0    0 -0.24100542877E+01 -0.15033316128E+00 -0.52039163725E+01  0.57368726326E+01  0.51100000000E-03 0. -1.
        -11    1    3    3    0    0 -0.33305556204E+01  0.25667247412E+02 -0.12529358612E+02  0.28755608461E+02  0.51100000000E-03 0.  1.
        -12    1    3    3    0    0  0.12263185379E+02  0.38956734731E+01 -0.95709656312E+01  0.16036376479E+02  0.00000000000E+00 0.  1.
</event>
<event>
 7    1  0.2584640E-011  0.5052886E+02  0.7816164E-02  0.1300439E+00
        -11   -1    0    0    0    0  0.00000000000E+00  0.00000000000E+00  0.45593999997E+02  0.45594000000E+02  0.51100000000E-03 0. -1.
         11   -1    0    0    0    0 -0.00000000000E+00 -0.00000000000E+00 -0.45593999997E+02  0.45594000000E+02  0.51100000000E-03 0.  1.
    9900012    2    1    2    0    0 -0.23982484430E+02 -0.21769009876E+02  0.24578774047E+02  0.50528862232E+02  0.30000007239E+02 0.  0.
        -12    1    1    2    0    0  0.23982484430E+02  0.21769009876E+02 -0.24578774047E+02  0.40659137768E+02  0.00000000000E+00 0.  1.
         11    1    3    3    0    0 -0.47285282048E+01 -0.84733176522E+01 -0.89236389290E-01  0.97038164869E+01  0.51100000000E-03 0. -1.
        -11    1    3    3    0    0  0.38742760909E+01  0.13019466908E+01  0.74771043123E+01  0.85212774613E+01  0.51100000000E-03 0.  1.
         12    1    3    3    0    0 -0.23128232316E+02 -0.14597638915E+02  0.17190906124E+02  0.32303768283E+02  0.00000000000E+00 0. -1.
</event>
<event>
 7    1  0.2584640E-011  0.5052886E+02  0.7816164E-02  0.1300439E+00
        -11   -1    0    0    0    0  0.00000000000E+00  0.00000000000E+00  0.45593999997E+02  0.45594000000E+02  0.51100000000E-03 0.  1.
         11   -1    0    0    0    0 -0.00000000000E+00 -0.00000000000E+00 -0.45593999997E+02  0.45594000000E+02  0.51100000000E-03 0. -1.
    9900012    2    1    2    0    0  0.17135511542E+02  0.35108836674E+02  0.11265424520E+02  0.50528856403E+02  0.29999989522E+02 0.  0.
        -12    1    1    2    0    0 -0.17135511542E+02 -0.35108836674E+02 -0.11265424520E+02  0.40659143597E+02  0.00000000000E+00 0.  1.
         11    1    3    3    0    0 -0.17337481380E+01  0.93524877983E+01 -0.54959349540E+01  0.10985454561E+02  0.51100000000E-03 0. -1.
        -11    1    3    3    0    0  0.13735936631E+02  0.16136283313E+02  0.21326598146E+01  0.21297977191E+02  0.51100000000E-03 0.  1.
         12    1    3    3    0    0  0.51333230499E+01  0.96200655627E+01  0.14628699660E+02  0.18245424651E+02  0.00000000000E+00 0. -1.
</event>
<event>
 7    1  0.2584640E-011  0.5052886E+02  0.7816164E-02  0.1300439E+00
        -11   -1    0    0    0    0  0.00000000000E+00  0.00000000000E+00  0.45593999997E+02  0.45594000000E+02  0.51100000000E-03 0. -1.
         11   -1    0    0    0    0 -0.00000000000E+00 -0.00000000000E+00 -0.45593999997E+02  0.45594000000E+02  0.51100000000E-03 0.  1.
    9900012    2    1    2    0    0 -0.24811221347E+02 -0.53849098184E+01  0.31758014676E+02  0.50528862593E+02  0.30000008339E+02 0.  0.
        -12    1    1    2    0    0  0.24811221347E+02  0.53849098184E+01 -0.31758014676E+02  0.40659137407E+02  0.00000000000E+00 0.  1.
         11    1    3    3    0    0 -0.11926579386E+02  0.17025352740E+01  0.21009379278E+02  0.24218504086E+02  0.51100000000E-03 0. -1.
        -11    1    3    3    0    0 -0.11321168300E+02  0.34725263504E+01  0.10186895545E+02  0.15620503578E+02  0.51100000000E-03 0.  1.
        -12    1    3    3    0    0 -0.15634736607E+01 -0.10559971443E+02  0.56173985279E+00  0.10689854930E+02  0.00000000000E+00 0.  1.
</event>
<event>
 7    1  0.2584640E-011  0.5052885E+02  0.7816164E-02  0.1300439E+00
        -11   -1    0    0    0    0  0.00000000000E+00  0.00000000000E+00  0.45593999997E+02  0.45594000000E+02  0.51100000000E-03 0. -1.
         11   -1    0    0    0    0 -0.00000000000E+00 -0.00000000000E+00 -0.45593999997E+02  0.45594000000E+02  0.51100000000E-03 0.  1.
    9900012    2    1    2    0    0 -0.13685750879E+02  0.21919466574E+02  0.31391135699E+02  0.50528853520E+02  0.29999980759E+02 0.  0.
        -12    1    1    2    0    0  0.13685750879E+02 -0.21919466574E+02 -0.31391135699E+02  0.40659146480E+02  0.00000000000E+00 0.  1.
         11    1    3    3    0    0 -0.50866693691E+01  0.45150516351E+01  0.50964464337E+01  0.84990389486E+01  0.51100000000E-03 0. -1.
        -11    1    3    3    0    0  0.23444709192E+01  0.18778628864E+01  0.22448630757E+02  0.22648707161E+02  0.51100000000E-03 0.  1.
        -12    1    3    3    0    0 -0.10943552430E+02  0.15526552052E+02  0.38460585081E+01  0.19381107411E+02  0.00000000000E+00 0.  1.
</event>
<event>
 7    1  0.2584640E-011  0.5052888E+02  0.7816164E-02  0.1300439E+00
        -11   -1    0    0    0    0  0.00000000000E+00  0.00000000000E+00  0.45593999997E+02  0.45594000000E+02  0.51100000000E-03 0.  1.
         11   -1    0    0    0    0 -0.00000000000E+00 -0.00000000000E+00 -0.45593999997E+02  0.45594000000E+02  0.51100000000E-03 0. -1.
    9900012    2    1    2    0    0 -0.19771379751E+02  0.34748412080E+02 -0.74030099251E+01  0.50528878572E+02  0.30000056907E+02 0.  0.
        -12    1    1    2    0    0  0.19771379751E+02 -0.34748412080E+02  0.74030099251E+01  0.40659121428E+02  0.00000000000E+00 0.  1.
         11    1    3    3    0    0 -0.18465727964E+01  0.10744378640E+01  0.58889850985E+01  0.62645345850E+01  0.51100000000E-03 0. -1.
        -11    1    3    3    0    0  0.12978836016E+00  0.14351437792E+02 -0.10268638770E+02  0.17647253445E+02  0.51100000000E-03 0.  1.
         12    1    3    3    0    0 -0.18054595315E+02  0.19322536424E+02 -0.30233562536E+01  0.26617090541E+02  0.00000000000E+00 0. -1.
</event>
<event>
 7    1  0.2584640E-011  0.5052886E+02  0.7816164E-02  0.1300439E+00
        -11   -1    0    0    0    0  0.00000000000E+00  0.00000000000E+00  0.45593999997E+02  0.45594000000E+02  0.51100000000E-03 0.  1.
         11   -1    0    0    0    0 -0.00000000000E+00 -0.00000000000E+00 -0.45593999997E+02  0.45594000000E+02  0.51100000000E-03 0. -1.
    9900012    2    1    2    0    0  0.31936658922E+02 -0.24717013409E+02  0.47206765122E+01  0.50528859309E+02  0.29999998356E+02 0.  0.
        -12    1    1    2    0    0 -0.31936658922E+02  0.24717013409E+02 -0.47206765122E+01  0.40659140691E+02  0.00000000000E+00 0.  1.
         11    1    3    3    0    0  0.76059806576E+01 -0.51038814094E+01 -0.20808404166E+01  0.93931062117E+01  0.51100000000E-03 0. -1.
        -11    1    3    3    0    0  0.10213596110E+02  0.50101894797E+01 -0.17096402605E+01  0.11504017307E+02  0.51100000000E-03 0.  1.
        -12    1    3    3    0    0  0.14117082155E+02 -0.24623321480E+02  0.85111571893E+01  0.29631735791E+02  0.00000000000E+00 0.  1.
</event>
<event>
 7    1  0.2584640E-011  0.5052886E+02  0.7816164E-02  0.1300439E+00
        -11   -1    0    0    0    0  0.00000000000E+00  0.00000000000E+00  0.45593999997E+02  0.45594000000E+02  0.51100000000E-03 0.  1.
         11   -1    0    0    0    0 -0.00000000000E+00 -0.00000000000E+00 -0.45593999997E+02  0.45594000000E+02  0.51100000000E-03 0. -1.
    9900012    2    1    2    0    0  0.33076076262E+02  0.19678823792E+02 -0.13110414640E+02  0.50528857131E+02  0.29999991737E+02 0.  0.
        -12    1    1    2    0    0 -0.33076076262E+02 -0.19678823792E+02  0.13110414640E+02  0.40659142869E+02  0.00000000000E+00 0.  1.
         11    1    3    3    0    0  0.64905115978E+01 -0.69854130618E+00 -0.10615169178E+01  0.66137371573E+01  0.51100000000E-03 0. -1.
        -11    1    3    3    0    0  0.11440760920E+02 -0.30567699051E+01  0.29962814009E+01  0.12215259112E+02  0.51100000000E-03 0.  1.
         12    1    3    3    0    0  0.15144803745E+02  0.23434135004E+02 -0.15045179123E+02  0.31699860862E+02  0.00000000000E+00 0. -1.
</event>
<event>
 7    1  0.2584640E-011  0.5052889E+02  0.7816164E-02  0.1300439E+00
        -11   -1    0    0    0    0  0.00000000000E+00  0.00000000000E+00  0.45593999997E+02  0.45594000000E+02  0.51100000000E-03 0.  1.
         11   -1    0    0    0    0 -0.00000000000E+00 -0.00000000000E+00 -0.45593999997E+02  0.45594000000E+02  0.51100000000E-03 0. -1.
    9900012    2    1    2    0    0  0.17367178378E+01 -0.69446222342E+01 -0.40023988046E+02  0.50528885574E+02  0.30000078190E+02 0.  0.
        -12    1    1    2    0    0 -0.17367178378E+01  0.69446222342E+01  0.40023988046E+02  0.40659114426E+02  0.00000000000E+00 0.  1.
         11    1    3    3    0    0  0.30088978486E+01 -0.14971684708E+02 -0.32478801228E+02  0.35889794353E+02  0.51100000000E-03 0. -1.
        -11    1    3    3    0    0 -0.11920226230E+01  0.34674357316E+00  0.20204999135E+01  0.23714065870E+01  0.51100000000E-03 0.  1.
        -12    1    3    3    0    0 -0.80157387856E-01  0.76803189003E+01 -0.95656867320E+01  0.12267684634E+02  0.00000000000E+00 0.  1.
</event>
<event>
 7    1  0.2584640E-011  0.5052883E+02  0.7816164E-02  0.1300439E+00
        -11   -1    0    0    0    0  0.00000000000E+00  0.00000000000E+00  0.45593999997E+02  0.45594000000E+02  0.51100000000E-03 0. -1.
         11   -1    0    0    0    0 -0.00000000000E+00 -0.00000000000E+00 -0.45593999997E+02  0.45594000000E+02  0.51100000000E-03 0.  1.
    9900012    2    1    2    0    0 -0.52264346951E+01 -0.34755174012E+02  0.20443338095E+02  0.50528833596E+02  0.29999920197E+02 0.  0.
        -12    1    1    2    0    0  0.52264346951E+01  0.34755174012E+02 -0.20443338095E+02  0.40659166404E+02  0.00000000000E+00 0.  1.
         11    1    3    3    0    0  0.37227299332E+00 -0.86710030474E+01  0.10839291056E+02  0.13885788127E+02  0.51100000000E-03 0. -1.
        -11    1    3    3    0    0 -0.72450081246E+01  0.29556236068E+00  0.70091409115E+01  0.10084917273E+02  0.51100000000E-03 0.  1.
         12    1    3    3    0    0  0.16463004361E+01 -0.26379733325E+02  0.25949061270E+01  0.26558128196E+02  0.00000000000E+00 0. -1.
</event>
<event>
 7    1  0.2584640E-011  0.5052886E+02  0.7816164E-02  0.1300439E+00
        -11   -1    0    0    0    0  0.00000000000E+00  0.00000000000E+00  0.45593999997E+02  0.45594000000E+02  0.51100000000E-03 0. -1.
         11   -1    0    0    0    0 -0.00000000000E+00 -0.00000000000E+00 -0.45593999997E+02  0.45594000000E+02  0.51100000000E-03 0.  1.
    9900012    2    1    2    0    0  0.91122668065E+01  0.39039212787E+02 -0.67876623556E+01  0.50528857097E+02  0.29999991631E+02 0.  0.
        -12    1    1    2    0    0 -0.91122668065E+01 -0.39039212787E+02  0.67876623556E+01  0.40659142903E+02  0.00000000000E+00 0.  1.
         11    1    3    3    0    0 -0.64717973478E+01  0.67276185796E+01 -0.35595215080E+01  0.99907560420E+01  0.51100000000E-03 0. -1.
        -11    1    3    3    0    0  0.20639867993E+01 -0.22909195450E+01  0.75639354965E+00  0.31749780050E+01  0.51100000000E-03 0.  1.
        -12    1    3    3    0    0  0.13520077355E+02  0.34602513752E+02 -0.39845343972E+01  0.37363123050E+02  0.00000000000E+00 0.  1.
</event>
<event>
 7    1  0.2584640E-011  0.5052877E+02  0.7816164E-02  0.1300439E+00
        -11   -1    0    0    0    0  0.00000000000E+00  0.00000000000E+00  0.45593999997E+02  0.45594000000E+02  0.51100000000E-03 0. -1.
         11   -1    0    0    0    0 -0.00000000000E+00 -0.00000000000E+00 -0.45593999997E+02  0.45594000000E+02  0.51100000000E-03 0.  1.
    9900012    2    1    2    0    0  0.41966996830E+01  0.32622892629E+02  0.23902043475E+02  0.50528768649E+02  0.29999722785E+02 0.  0.
        -12    1    1    2    0    0 -0.41966996830E+01 -0.32622892629E+02 -0.23902043475E+02  0.40659231351E+02  0.00000000000E+00 0.  1.
         11    1    3    3    0    0 -0.96272672152E+01  0.24314890404E+02  0.16787989853E+02  0.31076273473E+02  0.51100000000E-03 0.  1.
        -11    1    3    3    0    0  0.51849962900E+01  0.78276332712E+01  0.45145412753E+01  0.10418114625E+02  0.51100000000E-03 0. -1.
        -12    1    3    3    0    0  0.86389706081E+01  0.48036895429E+00  0.25995123466E+01  0.90343805510E+01  0.00000000000E+00 0.  1.
</event>
<event>
 7    1  0.2584640E-011  0.5052887E+02  0.7816164E-02  0.1300439E+00
        -11   -1    0    0    0    0  0.00000000000E+00  0.00000000000E+00  0.45593999997E+02  0.45594000000E+02  0.51100000000E-03 0.  1.
         11   -1    0    0    0    0 -0.00000000000E+00 -0.00000000000E+00 -0.45593999997E+02  0.45594000000E+02  0.51100000000E-03 0. -1.
    9900012    2    1    2    0    0  0.48545066027E+01  0.21940980662E+02 -0.33884987482E+02  0.50528865191E+02  0.30000016236E+02 0.  0.
        -12    1    1    2    0    0 -0.48545066027E+01 -0.21940980662E+02  0.33884987482E+02  0.40659134809E+02  0.00000000000E+00 0.  1.
         11    1    3    3    0    0 -0.74152615607E+01  0.10497537866E+02 -0.94914991193E+01  0.15977263879E+02  0.51100000000E-03 0. -1.
        -11    1    3    3    0    0 -0.34336596562E+01  0.56358684613E+01 -0.12090864272E+02  0.13774688056E+02  0.51100000000E-03 0.  1.
         12    1    3    3    0    0  0.15703427820E+02  0.58075743342E+01 -0.12302624090E+02  0.20776913256E+02  0.00000000000E+00 0. -1.
</event>
<event>
 7    1  0.2584640E-011  0.5052886E+02  0.7816164E-02  0.1300439E+00
        -11   -1    0    0    0    0  0.00000000000E+00  0.00000000000E+00  0.45593999997E+02  0.45594000000E+02  0.51100000000E-03 0.  1.
         11   -1    0    0    0    0 -0.00000000000E+00 -0.00000000000E+00 -0.45593999997E+02  0.45594000000E+02  0.51100000000E-03 0. -1.
    9900012    2    1    2    0    0  0.12865840182E+02  0.30730882317E+02 -0.23307689391E+02  0.50528863803E+02  0.30000012015E+02 0.  0.
        -12    1    1    2    0    0 -0.12865840182E+02 -0.30730882317E+02  0.23307689391E+02  0.40659136197E+02  0.00000000000E+00 0.  1.
         11    1    3    3    0    0  0.23680002155E+01  0.55922327584E+01 -0.44392261183E+01  0.75224478088E+01  0.51100000000E-03 0. -1.
        -11    1    3    3    0    0  0.93708870273E+01  0.42564263256E+01  0.48563121717E+01  0.11380441859E+02  0.51100000000E-03 0.  1.
        -12    1    3    3    0    0  0.11269529389E+01  0.20882223233E+02 -0.23724775444E+02  0.31625974135E+02  0.00000000000E+00 0.  1.
</event>
<event>
 7    1  0.2584640E-011  0.5052886E+02  0.7816164E-02  0.1300439E+00
        -11   -1    0    0    0    0  0.00000000000E+00  0.00000000000E+00  0.45593999997E+02  0.45594000000E+02  0.51100000000E-03 0.  1.
         11   -1    0    0    0    0 -0.00000000000E+00 -0.00000000000E+00 -0.45593999997E+02  0.45594000000E+02  0.51100000000E-03 0. -1.
    9900012    2    1    2    0    0 -0.31460111117E+02 -0.24667558900E+02 -0.74120330343E+01  0.50528864651E+02  0.30000014593E+02 0.  0.
        -12    1    1    2    0    0  0.31460111117E+02  0.24667558900E+02  0.74120330343E+01  0.40659135349E+02  0.00000000000E+00 0.  1.
         11    1    3    3    0    0 -0.31480646303E+02 -0.15971541046E+02 -0.90212117485E+01  0.36434921116E+02  0.51100000000E-03 0. -1.
        -11    1    3    3    0    0 -0.57057210795E+00  0.18262539696E+01  0.29021173807E+01  0.34760669793E+01  0.51100000000E-03 0.  1.
        -12    1    3    3    0    0  0.59110729330E+00 -0.10522271824E+02 -0.12929386665E+01  0.10617876556E+02  0.00000000000E+00 0.  1.
</event>
<event>
 7    1  0.3009506E-011  0.5052886E+02  0.7816164E-02  0.1300439E+00
        -11   -1    0    0    0    0  0.00000000000E+00  0.00000000000E+00  0.45593999997E+02  0.45594000000E+02  0.51100000000E-03 0. -1.
         11   -1    0    0    0    0 -0.00000000000E+00 -0.00000000000E+00 -0.45593999997E+02  0.45594000000E+02  0.51100000000E-03 0.  1.
    9900012    2    1    2    0    0 -0.27481640682E+02 -0.14611036637E+02  0.26161854298E+02  0.50528860972E+02  0.30000003411E+02 0.  0.
        -12    1    1    2    0    0  0.27481640682E+02  0.14611036637E+02 -0.26161854298E+02  0.40659139028E+02  0.00000000000E+00 0.  1.
         11    1    3    3    0    0 -0.23157906032E+02  0.78971408312E+00  0.20275016329E+02  0.30789422657E+02  0.51100000000E-03 0. -1.
        -11    1    3    3    0    0  0.52242972083E+00 -0.67810754499E+01  0.70342487273E+01  0.97845067576E+01  0.51100000000E-03 0.  1.
        -12    1    3    3    0    0 -0.48461643702E+01 -0.86196752707E+01 -0.11474107585E+01  0.99549315579E+01  0.00000000000E+00 0.  1.
</event>
<event>
 7    1  0.2584640E-011  0.5052886E+02  0.7816164E-02  0.1300439E+00
        -11   -1    0    0    0    0  0.00000000000E+00  0.00000000000E+00  0.45593999997E+02  0.45594000000E+02  0.51100000000E-03 0.  1.
         11   -1    0    0    0    0 -0.00000000000E+00 -0.00000000000E+00 -0.45593999997E+02  0.45594000000E+02  0.51100000000E-03 0. -1.
    9900012    2    1    2    0    0  0.28542265614E+02 -0.80522749954E+01 -0.27814837775E+02  0.50528864994E+02  0.30000015635E+02 0.  0.
        -12    1    1    2    0    0 -0.28542265614E+02  0.80522749954E+01  0.27814837775E+02  0.40659135006E+02  0.00000000000E+00 0.  1.
         11    1    3    3    0    0  0.41091090123E+01  0.20397966111E+01 -0.11438186237E+02  0.12323865130E+02  0.51100000000E-03 0. -1.
        -11    1    3    3    0    0 -0.19576636515E+01 -0.24100323055E+00  0.32995044633E+01  0.38441201196E+01  0.51100000000E-03 0.  1.
        -12    1    3    3    0    0  0.26390820253E+02 -0.98510683760E+01 -0.19676156002E+02  0.34360879744E+02  0.00000000000E+00 0.  1.
</event>
<event>
 7    1  0.2584640E-011  0.5052887E+02  0.7816164E-02  0.1300439E+00
        -11   -1    0    0    0    0  0.00000000000E+00  0.00000000000E+00  0.45593999997E+02  0.45594000000E+02  0.51100000000E-03 0.  1.
         11   -1    0    0    0    0 -0.00000000000E+00 -0.00000000000E+00 -0.45593999997E+02  0.45594000000E+02  0.51100000000E-03 0. -1.
    9900012    2    1    2    0    0 -0.79185728977E+01 -0.23388570438E+02 -0.32302257435E+02  0.50528869915E+02  0.30000030593E+02 0.  0.
        -12    1    1    2    0    0  0.79185728977E+01  0.23388570438E+02  0.32302257435E+02  0.40659130085E+02  0.00000000000E+00 0.  1.
         11    1    3    3    0    0  0.28940096479E+01 -0.55971373221E+01 -0.28187234910E+01  0.69027849759E+01  0.51100000000E-03 0. -1.
        -11    1    3    3    0    0 -0.27483245040E+01  0.12219820539E+01  0.35592084095E+01  0.46598811662E+01  0.51100000000E-03 0.  1.
         12    1    3    3    0    0 -0.80642580415E+01 -0.19013415170E+02 -0.33042742354E+02  0.38966203773E+02  0.00000000000E+00 0. -1.
</event>
<event>
 7    1  0.2584640E-011  0.5052886E+02  0.7816164E-02  0.1300439E+00
        -11   -1    0    0    0    0  0.00000000000E+00  0.00000000000E+00  0.45593999997E+02  0.45594000000E+02  0.51100000000E-03 0. -1.
         11   -1    0    0    0    0 -0.00000000000E+00 -0.00000000000E+00 -0.45593999997E+02  0.45594000000E+02  0.51100000000E-03 0.  1.
    9900012    2    1    2    0    0 -0.29825837526E+02  0.27624399944E+02  0.69119333071E+00  0.50528858290E+02  0.29999995257E+02 0.  0.
        -12    1    1    2    0    0  0.29825837526E+02 -0.27624399944E+02 -0.69119333071E+00  0.40659141710E+02  0.00000000000E+00 0.  1.
         11    1    3    3    0    0 -0.12741894231E+02  0.10237243345E+02  0.79306196375E+00  0.16364167178E+02  0.51100000000E-03 0. -1.
        -11    1    3    3    0    0 -0.17369383972E+02  0.60565901924E+00 -0.15910982801E+00  0.17380668531E+02  0.51100000000E-03 0.  1.
        -12    1    3    3    0    0  0.28544067657E+00  0.16781497580E+02  0.57241194969E-01  0.16784022580E+02  0.00000000000E+00 0.  1.
</event>
<event>
 7    1  0.2584640E-011  0.5052886E+02  0.7816164E-02  0.1300439E+00
        -11   -1    0    0    0    0  0.00000000000E+00  0.00000000000E+00  0.45593999997E+02  0.45594000000E+02  0.51100000000E-03 0.  1.
         11   -1    0    0    0    0 -0.00000000000E+00 -0.00000000000E+00 -0.45593999997E+02  0.45594000000E+02  0.51100000000E-03 0. -1.
    9900012    2    1    2    0    0 -0.10534173469E+02 -0.11607069470E+02 -0.37516295666E+02  0.50528864337E+02  0.30000013639E+02 0.  0.
        -12    1    1    2    0    0  0.10534173469E+02  0.11607069470E+02  0.37516295666E+02  0.40659135663E+02  0.00000000000E+00 0.  1.
         11    1    3    3    0    0 -0.92955940035E+00  0.65222717150E+01 -0.34961245657E+01  0.74583507724E+01  0.51100000000E-03 0. -1.
        -11    1    3    3    0    0  0.26321560449E+01 -0.55542466503E+01 -0.18370640007E+01  0.64150374668E+01  0.51100000000E-03 0.  1.
         12    1    3    3    0    0 -0.12236770113E+02 -0.12575094535E+02 -0.32183107100E+02  0.36655476098E+02  0.00000000000E+00 0. -1.
</event>
<event>
 7    1  0.2584640E-011  0.5052886E+02  0.7816164E-02  0.1300439E+00
        -11   -1    0    0    0    0  0.00000000000E+00  0.00000000000E+00  0.45593999997E+02  0.45594000000E+02  0.51100000000E-03 0. -1.
         11   -1    0    0    0    0 -0.00000000000E+00 -0.00000000000E+00 -0.45593999997E+02  0.45594000000E+02  0.51100000000E-03 0.  1.
    9900012    2    1    2    0    0  0.32335145339E+02 -0.24625570781E+02 -0.10886694051E+01  0.50528861280E+02  0.30000004346E+02 0.  0.
        -12    1    1    2    0    0 -0.32335145339E+02  0.24625570781E+02  0.10886694051E+01  0.40659138720E+02  0.00000000000E+00 0.  1.
         11    1    3    3    0    0  0.15215381910E+02  0.16418426981E+01 -0.14119855336E+01  0.15368708389E+02  0.51100000000E-03 0.  1.
        -11    1    3    3    0    0 -0.79142083478E+00 -0.10976809191E+02  0.31338801766E+01  0.11442809627E+02  0.51100000000E-03 0. -1.
        -12    1    3    3    0    0  0.17911184263E+02 -0.15290604289E+02 -0.28105640482E+01  0.23717343264E+02  0.00000000000E+00 0.  1.
</event>
<event>
 7    1  0.2584640E-011  0.5052889E+02  0.7816164E-02  0.1300439E+00
        -11   -1    0    0    0    0  0.00000000000E+00  0.00000000000E+00  0.45593999997E+02  0.45594000000E+02  0.51100000000E-03 0. -1.
         11   -1    0    0    0    0 -0.00000000000E+00 -0.00000000000E+00 -0.45593999997E+02  0.45594000000E+02  0.51100000000E-03 0.  1.
    9900012    2    1    2    0    0  0.31848296287E+02 -0.20407015078E+02  0.14913191157E+02  0.50528886492E+02  0.30000080980E+02 0.  0.
        -12    1    1    2    0    0 -0.31848296287E+02  0.20407015078E+02 -0.14913191157E+02  0.40659113508E+02  0.00000000000E+00 0.  1.
         11    1    3    3    0    0  0.36146931521E+01 -0.36412571900E+01  0.48650344125E+01  0.70705954915E+01  0.51100000000E-03 0. -1.
        -11    1    3    3    0    0 -0.41823183749E+01 -0.19748818547E+01  0.60329304149E+01  0.76018547067E+01  0.51100000000E-03 0.  1.
         12    1    3    3    0    0  0.32415921510E+02 -0.14790876033E+02  0.40152263294E+01  0.35856436293E+02  0.00000000000E+00 0. -1.
</event>
<event>
 7    1  0.2584640E-011  0.5052886E+02  0.7816164E-02  0.1300439E+00
        -11   -1    0    0    0    0  0.00000000000E+00  0.00000000000E+00  0.45593999997E+02  0.45594000000E+02  0.51100000000E-03 0.  1.
         11   -1    0    0    0    0 -0.00000000000E+00 -0.00000000000E+00 -0.45593999997E+02  0.45594000000E+02  0.51100000000E-03 0. -1.
    9900012    2    1    2    0    0  0.91020090090E+01 -0.28067709196E+02 -0.27973605561E+02  0.50528862336E+02  0.30000007558E+02 0.  0.
        -12    1    1    2    0    0 -0.91020090090E+01  0.28067709196E+02  0.27973605561E+02  0.40659137664E+02  0.00000000000E+00 0.  1.
         11    1    3    3    0    0  0.25625029290E+01 -0.65632191703E+01 -0.19621917066E+02  0.20848546634E+02  0.51100000000E-03 0. -1.
        -11    1    3    3    0    0  0.19052311436E+01  0.16106487786E+01  0.26716016756E+01  0.36553455340E+01  0.51100000000E-03 0.  1.
         12    1    3    3    0    0  0.46342749364E+01 -0.23115138804E+02 -0.11023290170E+02  0.26024970169E+02  0.00000000000E+00 0. -1.
</event>
<event>
 7    1  0.2584640E-011  0.5052887E+02  0.7816164E-02  0.1300439E+00
        -11   -1    0    0    0    0  0.00000000000E+00  0.00000000000E+00  0.45593999997E+02  0.45594000000E+02  0.51100000000E-03 0.  1.
         11   -1    0    0    0    0 -0.00000000000E+00 -0.00000000000E+00 -0.45593999997E+02  0.45594000000E+02  0.51100000000E-03 0. -1.
    9900012    2    1    2    0    0 -0.28630298112E+02 -0.13714747730E+01 -0.28837305889E+02  0.50528866660E+02  0.30000020699E+02 0.  0.
        -12    1    1    2    0    0  0.28630298112E+02  0.13714747730E+01  0.28837305889E+02  0.40659133340E+02  0.00000000000E+00 0.  1.
         11    1    3    3    0    0 -0.18188805835E+02  0.59280262814E+01 -0.22119707010E+02  0.29244753235E+02  0.51100000000E-03 0. -1.
        -11    1    3    3    0    0 -0.14239606037E+02 -0.39372577913E+01 -0.66739530758E+01  0.16211416623E+02  0.51100000000E-03 0.  1.
         12    1    3    3    0    0  0.37981137596E+01 -0.33622432631E+01 -0.43645803188E-01  0.50726968022E+01  0.00000000000E+00 0. -1.
</event>
<event>
 7    1  0.2584640E-011  0.5052886E+02  0.7816164E-02  0.1300439E+00
        -11   -1    0    0    0    0  0.00000000000E+00  0.00000000000E+00  0.45593999997E+02  0.45594000000E+02  0.51100000000E-03 0. -1.
         11   -1    0    0    0    0 -0.00000000000E+00 -0.00000000000E+00 -0.45593999997E+02  0.45594000000E+02  0.51100000000E-03 0.  1.
    9900012    2    1    2    0    0  0.35563419516E+02  0.16433040080E+02  0.10879535958E+02  0.50528856913E+02  0.29999991073E+02 0.  0.
        -12    1    1    2    0    0 -0.35563419516E+02 -0.16433040080E+02 -0.10879535958E+02  0.40659143087E+02  0.00000000000E+00 0.  1.
         11    1    3    3    0    0  0.82389431312E+01  0.11001689584E+02  0.26580125108E+01  0.13999371000E+02  0.51100000000E-03 0. -1.
        -11    1    3    3    0    0  0.58728500458E+01  0.22078631845E+01 -0.74709648474E+01  0.97560413854E+01  0.51100000000E-03 0.  1.
         12    1    3    3    0    0  0.21451626339E+02  0.32234873108E+01  0.15692488294E+02  0.26773444528E+02  0.00000000000E+00 0. -1.
</event>
<event>
 7    1  0.2584640E-011  0.5052886E+02  0.7816164E-02  0.1300439E+00
        -11   -1    0    0    0    0  0.00000000000E+00  0.00000000000E+00  0.45593999997E+02  0.45594000000E+02  0.51100000000E-03 0. -1.
         11   -1    0    0    0    0 -0.00000000000E+00 -0.00000000000E+00 -0.45593999997E+02  0.45594000000E+02  0.51100000000E-03 0.  1.
    9900012    2    1    2    0    0 -0.70666804176E+01  0.39491438566E+02  0.66071190382E+01  0.50528859403E+02  0.29999998641E+02 0.  0.
        -12    1    1    2    0    0  0.70666804176E+01 -0.39491438566E+02 -0.66071190382E+01  0.40659140597E+02  0.00000000000E+00 0.  1.
         11    1    3    3    0    0 -0.30845219796E+00 -0.14215878764E+01  0.27521447579E+01  0.31129336450E+01  0.51100000000E-03 0. -1.
        -11    1    3    3    0    0  0.70307332259E+01  0.20662573170E+02 -0.28611911734E+01  0.22012713483E+02  0.51100000000E-03 0.  1.
         12    1    3    3    0    0 -0.13788961446E+02  0.20250453272E+02  0.67161654536E+01  0.25403212275E+02  0.00000000000E+00 0. -1.
</event>
<event>
 7    1  0.2584640E-011  0.5052887E+02  0.7816164E-02  0.1300439E+00
        -11   -1    0    0    0    0  0.00000000000E+00  0.00000000000E+00  0.45593999997E+02  0.45594000000E+02  0.51100000000E-03 0.  1.
         11   -1    0    0    0    0 -0.00000000000E+00 -0.00000000000E+00 -0.45593999997E+02  0.45594000000E+02  0.51100000000E-03 0. -1.
    9900012    2    1    2    0    0  0.11581840354E+02  0.29419703766E+02 -0.25563784112E+02  0.50528867523E+02  0.30000023324E+02 0.  0.
        -12    1    1    2    0    0 -0.11581840354E+02 -0.29419703766E+02  0.25563784112E+02  0.40659132477E+02  0.00000000000E+00 0.  1.
         11    1    3    3    0    0 -0.10279854923E+01  0.76184672630E+01  0.78087508528E+00  0.77270669578E+01  0.51100000000E-03 0. -1.
        -11    1    3    3    0    0 -0.49119023132E+01  0.10214390345E+02 -0.15382697609E+02  0.19107274543E+02  0.51100000000E-03 0.  1.
        -12    1    3    3    0    0  0.17521728160E+02  0.11586846158E+02 -0.10961961588E+02  0.23694526023E+02  0.00000000000E+00 0.  1.
</event>
<event>
 7    1  0.2584640E-011  0.5052886E+02  0.7816164E-02  0.1300439E+00
        -11   -1    0    0    0    0  0.00000000000E+00  0.00000000000E+00  0.45593999997E+02  0.45594000000E+02  0.51100000000E-03 0. -1.
         11   -1    0    0    0    0 -0.00000000000E+00 -0.00000000000E+00 -0.45593999997E+02  0.45594000000E+02  0.51100000000E-03 0.  1.
    9900012    2    1    2    0    0 -0.28892260589E+02 -0.17411190233E+02  0.22699196455E+02  0.50528858507E+02  0.29999995917E+02 0.  0.
        -12    1    1    2    0    0  0.28892260589E+02  0.17411190233E+02 -0.22699196455E+02  0.40659141493E+02  0.00000000000E+00 0.  1.
         11    1    3    3    0    0 -0.30004587406E+01  0.40081318413E+01  0.25042365827E+01  0.55981313520E+01  0.51100000000E-03 0. -1.
        -11    1    3    3    0    0  0.24093927035E+01 -0.73305796322E+01  0.60714084667E+00  0.77402319870E+01  0.51100000000E-03 0.  1.
         12    1    3    3    0    0 -0.28301194551E+02 -0.14088742442E+02  0.19587819026E+02  0.37190495168E+02  0.00000000000E+00 0. -1.
</event>
<event>
 7    1  0.2584640E-011  0.5052887E+02  0.7816164E-02  0.1300439E+00
        -11   -1    0    0    0    0  0.00000000000E+00  0.00000000000E+00  0.45593999997E+02  0.45594000000E+02  0.51100000000E-03 0.  1.
         11   -1    0    0    0    0 -0.00000000000E+00 -0.00000000000E+00 -0.45593999997E+02  0.45594000000E+02  0.51100000000E-03 0. -1.
    9900012    2    1    2    0    0  0.89471915637E+01 -0.51571492376E+01 -0.39325774986E+02  0.50528868143E+02  0.30000025207E+02 0.  0.
        -12    1    1    2    0    0 -0.89471915637E+01  0.51571492376E+01  0.39325774986E+02  0.40659131857E+02  0.00000000000E+00 0.  1.
         11    1    3    3    0    0  0.15571935586E+01 -0.18551795613E+01 -0.20541877279E+02  0.20684179109E+02  0.51100000000E-03 0. -1.
        -11    1    3    3    0    0  0.14044817222E+02  0.20644571185E+01 -0.14463468730E+02  0.20266001134E+02  0.51100000000E-03 0.  1.
        -12    1    3    3    0    0 -0.66548192167E+01 -0.53664267949E+01 -0.43204289763E+01  0.95786879003E+01  0.00000000000E+00 0.  1.
</event>
<event>
 7    1  0.2584640E-011  0.5052886E+02  0.7816164E-02  0.1300439E+00
        -11   -1    0    0    0    0  0.00000000000E+00  0.00000000000E+00  0.45593999997E+02  0.45594000000E+02  0.51100000000E-03 0. -1.
         11   -1    0    0    0    0 -0.00000000000E+00 -0.00000000000E+00 -0.45593999997E+02  0.45594000000E+02  0.51100000000E-03 0.  1.
    9900012    2    1    2    0    0 -0.36726481783E+02  0.15495676683E+02  0.80134236312E+01  0.50528863040E+02  0.30000009697E+02 0.  0.
        -12    1    1    2    0    0  0.36726481783E+02 -0.15495676683E+02 -0.80134236312E+01  0.40659136960E+02  0.00000000000E+00 0.  1.
         11    1    3    3    0    0 -0.16549945740E+02  0.12353019105E+02  0.75943111072E+01  0.22003893893E+02  0.51100000000E-03 0. -1.
        -11    1    3    3    0    0 -0.19288740648E+02 -0.52505698383E+01  0.13364031255E+01  0.20035218316E+02  0.51100000000E-03 0.  1.
         12    1    3    3    0    0 -0.88779539522E+00  0.83932274165E+01 -0.91729060152E+00  0.84897508312E+01  0.00000000000E+00 0. -1.
</event>
<event>
 7    1  0.2584640E-011  0.5052885E+02  0.7816164E-02  0.1300439E+00
        -11   -1    0    0    0    0  0.00000000000E+00  0.00000000000E+00  0.45593999997E+02  0.45594000000E+02  0.51100000000E-03 0.  1.
         11   -1    0    0    0    0 -0.00000000000E+00 -0.00000000000E+00 -0.45593999997E+02  0.45594000000E+02  0.51100000000E-03 0. -1.
    9900012    2    1    2    0    0  0.21907339938E+01  0.10005071535E+02 -0.39348007168E+02  0.50528850477E+02  0.29999971509E+02 0.  0.
        -12    1    1    2    0    0 -0.21907339938E+01 -0.10005071535E+02  0.39348007168E+02  0.40659149523E+02  0.00000000000E+00 0.  1.
         11    1    3    3    0    0  0.32168185213E+01  0.13163678475E+02 -0.36104945683E+02  0.38564199142E+02  0.51100000000E-03 0.  1.
        -11    1    3    3    0    0 -0.21841577533E+01  0.14146357554E+01 -0.59722065351E+01  0.65145215151E+01  0.51100000000E-03 0. -1.
        -12    1    3    3    0    0  0.11580732258E+01 -0.45732426959E+01  0.27291450496E+01  0.54501298200E+01  0.00000000000E+00 0.  1.
</event>
<event>
 7    1  0.2584640E-011  0.5052887E+02  0.7816164E-02  0.1300439E+00
        -11   -1    0    0    0    0  0.00000000000E+00  0.00000000000E+00  0.45593999997E+02  0.45594000000E+02  0.51100000000E-03 0.  1.
         11   -1    0    0    0    0 -0.00000000000E+00 -0.00000000000E+00 -0.45593999997E+02  0.45594000000E+02  0.51100000000E-03 0. -1.
    9900012    2    1    2    0    0  0.31710313507E+01 -0.38854238149E+02 -0.11552378471E+02  0.50528871747E+02  0.30000036163E+02 0.  0.
        -12    1    1    2    0    0 -0.31710313507E+01  0.38854238149E+02  0.11552378471E+02  0.40659128253E+02  0.00000000000E+00 0.  1.
         11    1    3    3    0    0  0.43573589561E+01 -0.15846079089E+02 -0.10052451506E+01  0.16464972446E+02  0.51100000000E-03 0. -1.
        -11    1    3    3    0    0  0.41624515136E+01 -0.29596009359E+00  0.46266417643E+01  0.62305223903E+01  0.51100000000E-03 0.  1.
        -12    1    3    3    0    0 -0.53487791190E+01 -0.22712198966E+02 -0.15173775085E+02  0.27833376911E+02  0.00000000000E+00 0.  1.
</event>
<event>
 7    1  0.2584640E-011  0.5052886E+02  0.7816164E-02  0.1300439E+00
        -11   -1    0    0    0    0  0.00000000000E+00  0.00000000000E+00  0.45593999997E+02  0.45594000000E+02  0.51100000000E-03 0.  1.
         11   -1    0    0    0    0 -0.00000000000E+00 -0.00000000000E+00 -0.45593999997E+02  0.45594000000E+02  0.51100000000E-03 0. -1.
    9900012    2    1    2    0    0 -0.16432510254E+01 -0.33203866287E+02 -0.23408729485E+02  0.50528860481E+02  0.30000001917E+02 0.  0.
        -12    1    1    2    0    0  0.16432510254E+01  0.33203866287E+02  0.23408729485E+02  0.40659139519E+02  0.00000000000E+00 0.  1.
         11    1    3    3    0    0 -0.42523393059E+01 -0.11461991973E+02 -0.12765769375E+02  0.17675534435E+02  0.51100000000E-03 0. -1.
        -11    1    3    3    0    0  0.74960114048E+01 -0.86494888370E+01 -0.14388217739E+02  0.18385446802E+02  0.51100000000E-03 0.  1.
         12    1    3    3    0    0 -0.48869231244E+01 -0.13092385477E+02  0.37452576294E+01  0.14467879244E+02  0.00000000000E+00 0. -1.
</event>
<event>
 7    1  0.2584640E-011  0.5052886E+02  0.7816164E-02  0.1300439E+00
        -11   -1    0    0    0    0  0.00000000000E+00  0.00000000000E+00  0.45593999997E+02  0.45594000000E+02  0.51100000000E-03 0. -1.
         11   -1    0    0    0    0 -0.00000000000E+00 -0.00000000000E+00 -0.45593999997E+02  0.45594000000E+02  0.51100000000E-03 0.  1.
    9900012    2    1    2    0    0 -0.17381826592E+01  0.23243919086E+02  0.33314635280E+02  0.50528856166E+02  0.29999988804E+02 0.  0.
        -12    1    1    2    0    0  0.17381826592E+01 -0.23243919086E+02 -0.33314635280E+02  0.40659143834E+02  0.00000000000E+00 0.  1.
         11    1    3    3    0    0  0.10644553605E+01 -0.40512349396E+01  0.73717042467E+01  0.84786551712E+01  0.51100000000E-03 0. -1.
        -11    1    3    3    0    0 -0.58407276208E+01  0.66250835448E+01  0.17332918162E+02  0.19453428576E+02  0.51100000000E-03 0.  1.
         12    1    3    3    0    0  0.30380896011E+01  0.20670070481E+02  0.86100128717E+01  0.22596772419E+02  0.00000000000E+00 0. -1.
</event>
<event>
 7    1  0.2584640E-011  0.5052887E+02  0.7816164E-02  0.1300439E+00
        -11   -1    0    0    0    0  0.00000000000E+00  0.00000000000E+00  0.45593999997E+02  0.45594000000E+02  0.51100000000E-03 0.  1.
         11   -1    0    0    0    0 -0.00000000000E+00 -0.00000000000E+00 -0.45593999997E+02  0.45594000000E+02  0.51100000000E-03 0. -1.
    9900012    2    1    2    0    0 -0.28239169986E+02  0.97335965591E+01 -0.27585713979E+02  0.50528865243E+02  0.30000016392E+02 0.  0.
        -12    1    1    2    0    0  0.28239169986E+02 -0.97335965591E+01  0.27585713979E+02  0.40659134757E+02  0.00000000000E+00 0.  1.
         11    1    3    3    0    0 -0.16795168387E+02  0.18004522563E+02 -0.21764658693E+02  0.32862453988E+02  0.51100000000E-03 0. -1.
        -11    1    3    3    0    0 -0.40567554639E+00  0.10742866725E+01  0.11376505005E+01  0.16164508734E+01  0.51100000000E-03 0.  1.
         12    1    3    3    0    0 -0.11038326052E+02 -0.93452126761E+01 -0.69587057869E+01  0.16049960381E+02  0.00000000000E+00 0. -1.
</event>
<event>
 7    1  0.2584640E-011  0.5052892E+02  0.7816164E-02  0.1300439E+00
        -11   -1    0    0    0    0  0.00000000000E+00  0.00000000000E+00  0.45593999997E+02  0.45594000000E+02  0.51100000000E-03 0.  1.
         11   -1    0    0    0    0 -0.00000000000E+00 -0.00000000000E+00 -0.45593999997E+02  0.45594000000E+02  0.51100000000E-03 0. -1.
    9900012    2    1    2    0    0  0.30139127242E+02  0.29981588033E+01 -0.27125719687E+02  0.50528922100E+02  0.30000189215E+02 0.  0.
        -12    1    1    2    0    0 -0.30139127242E+02 -0.29981588033E+01  0.27125719687E+02  0.40659077900E+02  0.00000000000E+00 0.  1.
         11    1    3    3    0    0  0.25231544445E+02  0.55071927825E+00 -0.24066364675E+02  0.34872969987E+02  0.51100000000E-03 0. -1.
        -11    1    3    3    0    0  0.25258189486E+01  0.82186674332E+01 -0.37386889611E+01  0.93757160339E+01  0.51100000000E-03 0.  1.
        -12    1    3    3    0    0  0.23817638477E+01 -0.57712279082E+01  0.67933394851E+00  0.62802360790E+01  0.00000000000E+00 0.  1.
</event>
<event>
 7    1  0.2584640E-011  0.5052886E+02  0.7816164E-02  0.1300439E+00
        -11   -1    0    0    0    0  0.00000000000E+00  0.00000000000E+00  0.45593999997E+02  0.45594000000E+02  0.51100000000E-03 0.  1.
         11   -1    0    0    0    0 -0.00000000000E+00 -0.00000000000E+00 -0.45593999997E+02  0.45594000000E+02  0.51100000000E-03 0. -1.
    9900012    2    1    2    0    0 -0.49690728238E+01  0.26669685323E+02 -0.30285345010E+02  0.50528856843E+02  0.29999990859E+02 0.  0.
        -12    1    1    2    0    0  0.49690728238E+01 -0.26669685323E+02  0.30285345010E+02  0.40659143157E+02  0.00000000000E+00 0.  1.
         11    1    3    3    0    0 -0.40195955710E+01  0.62861423332E+01 -0.20453247072E+02  0.21771725932E+02  0.51100000000E-03 0. -1.
        -11    1    3    3    0    0  0.51503195012E+01  0.22608528163E-01 -0.45101077134E+01  0.68459750188E+01  0.51100000000E-03 0.  1.
         12    1    3    3    0    0 -0.60997967540E+01  0.20360934462E+02 -0.53219902240E+01  0.21911155892E+02  0.00000000000E+00 0. -1.
</event>
<event>
 7    1  0.2584640E-011  0.5052886E+02  0.7816164E-02  0.1300439E+00
        -11   -1    0    0    0    0  0.00000000000E+00  0.00000000000E+00  0.45593999997E+02  0.45594000000E+02  0.51100000000E-03 0. -1.
         11   -1    0    0    0    0 -0.00000000000E+00 -0.00000000000E+00 -0.45593999997E+02  0.45594000000E+02  0.51100000000E-03 0.  1.
    9900012    2    1    2    0    0 -0.17928988731E+02 -0.12522761010E+01  0.36471206243E+02  0.50528859365E+02  0.29999998526E+02 0.  0.
        -12    1    1    2    0    0  0.17928988731E+02  0.12522761010E+01 -0.36471206243E+02  0.40659140635E+02  0.00000000000E+00 0.  1.
         11    1    3    3    0    0 -0.84872312311E+00 -0.13482198432E+00 -0.18768585597E+01  0.20642447097E+01  0.51100000000E-03 0.  1.
        -11    1    3    3    0    0  0.39938374774E+01  0.16021891007E+01  0.19790556182E+02  0.20252996370E+02  0.51100000000E-03 0. -1.
         12    1    3    3    0    0 -0.21074103085E+02 -0.27196432173E+01  0.18557508620E+02  0.28211618285E+02  0.00000000000E+00 0. -1.
</event>
<event>
 7    1  0.2584640E-011  0.5052886E+02  0.7816164E-02  0.1300439E+00
        -11   -1    0    0    0    0  0.00000000000E+00  0.00000000000E+00  0.45593999997E+02  0.45594000000E+02  0.51100000000E-03 0. -1.
         11   -1    0    0    0    0 -0.00000000000E+00 -0.00000000000E+00 -0.45593999997E+02  0.45594000000E+02  0.51100000000E-03 0.  1.
    9900012    2    1    2    0    0  0.26721046422E+01 -0.84656174508E+01  0.39678190841E+02  0.50528860186E+02  0.30000001020E+02 0.  0.
        -12    1    1    2    0    0 -0.26721046422E+01  0.84656174508E+01 -0.39678190841E+02  0.40659139814E+02  0.00000000000E+00 0.  1.
         11    1    3    3    0    0  0.12677803824E+02 -0.15190167259E+01  0.29278259217E+02  0.31941361660E+02  0.51100000000E-03 0. -1.
        -11    1    3    3    0    0 -0.96770452366E+00  0.22847291993E+01  0.18594718138E+01  0.31006572281E+01  0.51100000000E-03 0.  1.
         12    1    3    3    0    0 -0.90379946584E+01 -0.92313299241E+01  0.85404598098E+01  0.15486841298E+02  0.00000000000E+00 0. -1.
</event>
<event>
 7    1  0.2584640E-011  0.5052886E+02  0.7816164E-02  0.1300439E+00
        -11   -1    0    0    0    0  0.00000000000E+00  0.00000000000E+00  0.45593999997E+02  0.45594000000E+02  0.51100000000E-03 0.  1.
         11   -1    0    0    0    0 -0.00000000000E+00 -0.00000000000E+00 -0.45593999997E+02  0.45594000000E+02  0.51100000000E-03 0. -1.
    9900012    2    1    2    0    0 -0.27925546347E+02 -0.32628562555E+01 -0.29371476538E+02  0.50528855840E+02  0.29999987813E+02 0.  0.
        -12    1    1    2    0    0  0.27925546347E+02  0.32628562555E+01  0.29371476538E+02  0.40659144160E+02  0.00000000000E+00 0.  1.
         11    1    3    3    0    0 -0.59447732475E+01 -0.67442433140E+01 -0.37942794198E+01  0.97581608625E+01  0.51100000000E-03 0.  1.
        -11    1    3    3    0    0 -0.25909726386E+02  0.32499378501E+01 -0.16531247854E+02  0.30905633358E+02  0.51100000000E-03 0. -1.
         12    1    3    3    0    0  0.39289532858E+01  0.23144920845E+00 -0.90459492648E+01  0.98650616197E+01  0.00000000000E+00 0. -1.
</event>
<event>
 7    1  0.4502781E-011  0.5052886E+02  0.7816164E-02  0.1300439E+00
        -11   -1    0    0    0    0  0.00000000000E+00  0.00000000000E+00  0.45593999997E+02  0.45594000000E+02  0.51100000000E-03 0.  1.
         11   -1    0    0    0    0 -0.00000000000E+00 -0.00000000000E+00 -0.45593999997E+02  0.45594000000E+02  0.51100000000E-03 0. -1.
    9900012    2    1    2    0    0  0.11488205282E+02 -0.33119629145E+02 -0.20597978813E+02  0.50528862940E+02  0.30000009391E+02 0.  0.
        -12    1    1    2    0    0 -0.11488205282E+02  0.33119629145E+02  0.20597978813E+02  0.40659137060E+02  0.00000000000E+00 0.  1.
         11    1    3    3    0    0  0.61531451860E+01 -0.13990160240E+02 -0.98606395692E+01  0.18188402684E+02  0.51100000000E-03 0. -1.
        -11    1    3    3    0    0 -0.40459428403E+01 -0.20310856779E+02 -0.95680559100E+01  0.22813334932E+02  0.51100000000E-03 0.  1.
        -12    1    3    3    0    0  0.93810029367E+01  0.11813878746E+01 -0.11692833341E+01  0.95271253232E+01  0.00000000000E+00 0.  1.
</event>
<event>
 7    1  0.2584640E-011  0.5052886E+02  0.7816164E-02  0.1300439E+00
        -11   -1    0    0    0    0  0.00000000000E+00  0.00000000000E+00  0.45593999997E+02  0.45594000000E+02  0.51100000000E-03 0.  1.
         11   -1    0    0    0    0 -0.00000000000E+00 -0.00000000000E+00 -0.45593999997E+02  0.45594000000E+02  0.51100000000E-03 0. -1.
    9900012    2    1    2    0    0 -0.26093584459E+01 -0.13081945732E+02 -0.38408587251E+02  0.50528860434E+02  0.30000001775E+02 0.  0.
        -12    1    1    2    0    0  0.26093584459E+01  0.13081945732E+02  0.38408587251E+02  0.40659139566E+02  0.00000000000E+00 0.  1.
         11    1    3    3    0    0  0.34241565504E+01 -0.37881378585E+00 -0.25492572071E+02  0.25724299388E+02  0.51100000000E-03 0. -1.
        -11    1    3    3    0    0  0.28499087978E+01 -0.66606441017E+01  0.90268278282E+00  0.73007531442E+01  0.51100000000E-03 0.  1.
         12    1    3    3    0    0 -0.88834237941E+01 -0.60424878445E+01 -0.13818697963E+02  0.17503807901E+02  0.00000000000E+00 0. -1.
</event>
<event>
 7    1  0.2584640E-011  0.5052886E+02  0.7816164E-02  0.1300439E+00
        -11   -1    0    0    0    0  0.00000000000E+00  0.00000000000E+00  0.45593999997E+02  0.45594000000E+02  0.51100000000E-03 0. -1.
         11   -1    0    0    0    0 -0.00000000000E+00 -0.00000000000E+00 -0.45593999997E+02  0.45594000000E+02  0.51100000000E-03 0.  1.
    9900012    2    1    2    0    0 -0.30619517338E+02 -0.25616235796E+02  0.77084017191E+01  0.50528857910E+02  0.29999994105E+02 0.  0.
        -12    1    1    2    0    0  0.30619517338E+02  0.25616235796E+02 -0.77084017191E+01  0.40659142090E+02  0.00000000000E+00 0.  1.
         11    1    3    3    0    0 -0.48490145276E+01  0.58085718348E+00  0.20466743555E+01  0.52952066188E+01  0.51100000000E-03 0. -1.
        -11    1    3    3    0    0 -0.17281003747E+02 -0.21887368356E+02  0.15196921265E+02  0.31759036513E+02  0.51100000000E-03 0.  1.
        -12    1    3    3    0    0 -0.84894990640E+01 -0.43097246240E+01 -0.95351939017E+01  0.13474614779E+02  0.00000000000E+00 0.  1.
</event>
<event>
 7    1  0.2584640E-011  0.5052887E+02  0.7816164E-02  0.1300439E+00
        -11   -1    0    0    0    0  0.00000000000E+00  0.00000000000E+00  0.45593999997E+02  0.45594000000E+02  0.51100000000E-03 0.  1.
         11   -1    0    0    0    0 -0.00000000000E+00 -0.00000000000E+00 -0.45593999997E+02  0.45594000000E+02  0.51100000000E-03 0. -1.
    9900012    2    1    2    0    0  0.34844628852E+02 -0.13174484852E+02 -0.16292635076E+02  0.50528866110E+02  0.30000019027E+02 0.  0.
        -12    1    1    2    0    0 -0.34844628852E+02  0.13174484852E+02  0.16292635076E+02  0.40659133890E+02  0.00000000000E+00 0.  1.
         11    1    3    3    0    0  0.81158961966E+01  0.16434271397E+01 -0.98063761923E+01  0.12834860269E+02  0.51100000000E-03 0. -1.
        -11    1    3    3    0    0  0.97985096981E+01  0.41509544818E+01 -0.60996443365E+01  0.12265678811E+02  0.51100000000E-03 0.  1.
        -12    1    3    3    0    0  0.16930222958E+02 -0.18968866474E+02 -0.38661454754E+00  0.25428327029E+02  0.00000000000E+00 0.  1.
</event>
<event>
 7    1  0.2584640E-011  0.5052886E+02  0.7816164E-02  0.1300439E+00
        -11   -1    0    0    0    0  0.00000000000E+00  0.00000000000E+00  0.45593999997E+02  0.45594000000E+02  0.51100000000E-03 0. -1.
         11   -1    0    0    0    0 -0.00000000000E+00 -0.00000000000E+00 -0.45593999997E+02  0.45594000000E+02  0.51100000000E-03 0.  1.
    9900012    2    1    2    0    0  0.20349256867E+02  0.32644092725E+02  0.13169535074E+02  0.50528859589E+02  0.29999999208E+02 0.  0.
        -12    1    1    2    0    0 -0.20349256867E+02 -0.32644092725E+02 -0.13169535074E+02  0.40659140411E+02  0.00000000000E+00 0.  1.
         11    1    3    3    0    0 -0.14294080565E+01  0.10039471362E+02  0.41364631888E+01  0.10951918580E+02  0.51100000000E-03 0. -1.
        -11    1    3    3    0    0  0.16751650037E+01 -0.22819615578E+01 -0.41098213579E+01  0.49904066163E+01  0.51100000000E-03 0.  1.
         12    1    3    3    0    0  0.20103499920E+02  0.24886582921E+02  0.13142893243E+02  0.34586534393E+02  0.00000000000E+00 0. -1.
</event>
<event>
 7    1  0.2584640E-011  0.5052890E+02  0.7816164E-02  0.1300439E+00
        -11   -1    0    0    0    0  0.00000000000E+00  0.00000000000E+00  0.45593999997E+02  0.45594000000E+02  0.51100000000E-03 0.  1.
         11   -1    0    0    0    0 -0.00000000000E+00 -0.00000000000E+00 -0.45593999997E+02  0.45594000000E+02  0.51100000000E-03 0. -1.
    9900012    2    1    2    0    0  0.19559630670E+02 -0.86328509803E+01 -0.34584063141E+02  0.50528896575E+02  0.30000111628E+02 0.  0.
        -12    1    1    2    0    0 -0.19559630670E+02  0.86328509803E+01  0.34584063141E+02  0.40659103425E+02  0.00000000000E+00 0.  1.
         11    1    3    3    0    0  0.84849448585E+01  0.71532502992E+01 -0.60060242050E+01  0.12618859144E+02  0.51100000000E-03 0. -1.
        -11    1    3    3    0    0  0.11667651275E+02 -0.31499013468E+01 -0.11733278086E+02  0.16844161590E+02  0.51100000000E-03 0.  1.
        -12    1    3    3    0    0 -0.59296546420E+00 -0.12636199933E+02 -0.16844760851E+02  0.21065875840E+02  0.00000000000E+00 0.  1.
</event>
<event>
 7    1  0.2584640E-011  0.5052887E+02  0.7816164E-02  0.1300439E+00
        -11   -1    0    0    0    0  0.00000000000E+00  0.00000000000E+00  0.45593999997E+02  0.45594000000E+02  0.51100000000E-03 0. -1.
         11   -1    0    0    0    0 -0.00000000000E+00 -0.00000000000E+00 -0.45593999997E+02  0.45594000000E+02  0.51100000000E-03 0.  1.
    9900012    2    1    2    0    0 -0.10810474029E+02 -0.37940334953E+02  0.98402111207E+01  0.50528866709E+02  0.30000020848E+02 0.  0.
        -12    1    1    2    0    0  0.10810474029E+02  0.37940334953E+02 -0.98402111207E+01  0.40659133291E+02  0.00000000000E+00 0.  1.
         11    1    3    3    0    0 -0.60322819840E+01  0.38558646707E+00  0.64641972701E-01  0.60449385194E+01  0.51100000000E-03 0.  1.
        -11    1    3    3    0    0  0.42177626891E+01 -0.33102680156E+01  0.61358820628E+01  0.81484014007E+01  0.51100000000E-03 0. -1.
         12    1    3    3    0    0 -0.89959547343E+01 -0.35015653405E+02  0.36396870852E+01  0.36335526789E+02  0.00000000000E+00 0. -1.
</event>
<event>
 7    1  0.2584640E-011  0.5052885E+02  0.7816164E-02  0.1300439E+00
        -11   -1    0    0    0    0  0.00000000000E+00  0.00000000000E+00  0.45593999997E+02  0.45594000000E+02  0.51100000000E-03 0. -1.
         11   -1    0    0    0    0 -0.00000000000E+00 -0.00000000000E+00 -0.45593999997E+02  0.45594000000E+02  0.51100000000E-03 0.  1.
    9900012    2    1    2    0    0 -0.32943851996E+01 -0.13569691156E+02  0.38186078816E+02  0.50528854568E+02  0.29999983945E+02 0.  0.
        -12    1    1    2    0    0  0.32943851996E+01  0.13569691156E+02 -0.38186078816E+02  0.40659145432E+02  0.00000000000E+00 0.  1.
         11    1    3    3    0    0  0.23030779713E+01 -0.16214858253E+02  0.13647121256E+02  0.21318295315E+02  0.51100000000E-03 0. -1.
        -11    1    3    3    0    0  0.10259250272E+01 -0.53248100311E+01  0.96691440584E+01  0.11085958286E+02  0.51100000000E-03 0.  1.
        -12    1    3    3    0    0 -0.66233881981E+01  0.79699771279E+01  0.14869813502E+02  0.18124600967E+02  0.00000000000E+00 0.  1.
</event>
<event>
 7    1  0.2584640E-011  0.5052887E+02  0.7816164E-02  0.1300439E+00
        -11   -1    0    0    0    0  0.00000000000E+00  0.00000000000E+00  0.45593999997E+02  0.45594000000E+02  0.51100000000E-03 0.  1.
         11   -1    0    0    0    0 -0.00000000000E+00 -0.00000000000E+00 -0.45593999997E+02  0.45594000000E+02  0.51100000000E-03 0. -1.
    9900012    2    1    2    0    0 -0.14424429485E+02 -0.17666563890E+01 -0.37973404944E+02  0.50528871581E+02  0.30000035659E+02 0.  0.
        -12    1    1    2    0    0  0.14424429485E+02  0.17666563890E+01  0.37973404944E+02  0.40659128419E+02  0.00000000000E+00 0.  1.
         11    1    3    3    0    0 -0.61915835805E+01 -0.83438268701E+00  0.78633906736E+00  0.62968429465E+01  0.51100000000E-03 0. -1.
        -11    1    3    3    0    0 -0.34007037980E+01  0.93283597123E+01 -0.16738245516E+02  0.19461550412E+02  0.51100000000E-03 0.  1.
         12    1    3    3    0    0 -0.48321421062E+01 -0.10260633414E+02 -0.22021498495E+02  0.24770478223E+02  0.00000000000E+00 0. -1.
</event>
<event>
 7    1  0.2584640E-011  0.5052886E+02  0.7816164E-02  0.1300439E+00
        -11   -1    0    0    0    0  0.00000000000E+00  0.00000000000E+00  0.45593999997E+02  0.45594000000E+02  0.51100000000E-03 0.  1.
         11   -1    0    0    0    0 -0.00000000000E+00 -0.00000000000E+00 -0.45593999997E+02  0.45594000000E+02  0.51100000000E-03 0. -1.
    9900012    2    1    2    0    0  0.19424007673E+01  0.85574311521E+00 -0.40603698565E+02  0.50528861369E+02  0.30000004618E+02 0.  0.
        -12    1    1    2    0    0 -0.19424007673E+01 -0.85574311521E+00  0.40603698565E+02  0.40659138631E+02  0.00000000000E+00 0.  1.
         11    1    3    3    0    0 -0.10755851584E+02  0.38127542895E+01 -0.19429840132E+02  0.22533178347E+02  0.51100000000E-03 0. -1.
        -11    1    3    3    0    0 -0.26560526711E+01 -0.94430676836E+00 -0.36038043113E+01  0.45753400792E+01  0.51100000000E-03 0.  1.
         12    1    3    3    0    0  0.15354305023E+02 -0.20127044059E+01 -0.17570054122E+02  0.23420342943E+02  0.00000000000E+00 0. -1.
</event>
<event>
 7    1  0.2584640E-011  0.5052886E+02  0.7816164E-02  0.1300439E+00
        -11   -1    0    0    0    0  0.00000000000E+00  0.00000000000E+00  0.45593999997E+02  0.45594000000E+02  0.51100000000E-03 0.  1.
         11   -1    0    0    0    0 -0.00000000000E+00 -0.00000000000E+00 -0.45593999997E+02  0.45594000000E+02  0.51100000000E-03 0. -1.
    9900012    2    1    2    0    0 -0.77152321651E+01  0.36322984315E+02  0.16561453347E+02  0.50528859160E+02  0.29999997902E+02 0.  0.
        -12    1    1    2    0    0  0.77152321651E+01 -0.36322984315E+02 -0.16561453347E+02  0.40659140840E+02  0.00000000000E+00 0.  1.
         11    1    3    3    0    0  0.10755697078E+01  0.10797196870E+02 -0.49319760596E+00  0.10861839373E+02  0.51100000000E-03 0. -1.
        -11    1    3    3    0    0  0.20720119365E+00 -0.21918539312E+01 -0.34090015834E+01  0.40581335669E+01  0.51100000000E-03 0.  1.
        -12    1    3    3    0    0 -0.89980030666E+01  0.27717641376E+02  0.20463652537E+02  0.35608886219E+02  0.00000000000E+00 0.  1.
</event>
<event>
 7    1  0.2584640E-011  0.5052886E+02  0.7816164E-02  0.1300439E+00
        -11   -1    0    0    0    0  0.00000000000E+00  0.00000000000E+00  0.45593999997E+02  0.45594000000E+02  0.51100000000E-03 0. -1.
         11   -1    0    0    0    0 -0.00000000000E+00 -0.00000000000E+00 -0.45593999997E+02  0.45594000000E+02  0.51100000000E-03 0.  1.
    9900012    2    1    2    0    0 -0.32222412166E+02 -0.24753672378E+02 -0.14621022348E+01  0.50528857302E+02  0.29999992254E+02 0.  0.
        -12    1    1    2    0    0  0.32222412166E+02  0.24753672378E+02  0.14621022348E+01  0.40659142698E+02  0.00000000000E+00 0.  1.
         11    1    3    3    0    0  0.36935439651E+00  0.14830954633E+01 -0.36270682438E+01  0.39359394215E+01  0.51100000000E-03 0. -1.
        -11    1    3    3    0    0 -0.21701885186E+02 -0.63564058176E+01 -0.43057181611E+01  0.23019881075E+02  0.51100000000E-03 0.  1.
         12    1    3    3    0    0 -0.10889881376E+02 -0.19880362024E+02  0.64706841700E+01  0.23573036805E+02  0.00000000000E+00 0. -1.
</event>
<event>
 7    1  0.2584640E-011  0.5052887E+02  0.7816164E-02  0.1300439E+00
        -11   -1    0    0    0    0  0.00000000000E+00  0.00000000000E+00  0.45593999997E+02  0.45594000000E+02  0.51100000000E-03 0.  1.
         11   -1    0    0    0    0 -0.00000000000E+00 -0.00000000000E+00 -0.45593999997E+02  0.45594000000E+02  0.51100000000E-03 0. -1.
    9900012    2    1    2    0    0 -0.52858615153E+01 -0.36130718653E+02 -0.17882836521E+02  0.50528868131E+02  0.30000025171E+02 0.  0.
        -12    1    1    2    0    0  0.52858615153E+01  0.36130718653E+02  0.17882836521E+02  0.40659131869E+02  0.00000000000E+00 0.  1.
         11    1    3    3    0    0 -0.10058361487E+02 -0.69579350818E+01 -0.32790673922E+01  0.12662376539E+02  0.51100000000E-03 0. -1.
        -11    1    3    3    0    0  0.29328137430E+00  0.70222375352E+00 -0.65613492192E+01  0.66053339055E+01  0.51100000000E-03 0.  1.
         12    1    3    3    0    0  0.44792185972E+01 -0.29875007325E+02 -0.80424199091E+01  0.31261157686E+02  0.00000000000E+00 0. -1.
</event>
<event>
 7    1  0.2584640E-011  0.5052885E+02  0.7816164E-02  0.1300439E+00
        -11   -1    0    0    0    0  0.00000000000E+00  0.00000000000E+00  0.45593999997E+02  0.45594000000E+02  0.51100000000E-03 0. -1.
         11   -1    0    0    0    0 -0.00000000000E+00 -0.00000000000E+00 -0.45593999997E+02  0.45594000000E+02  0.51100000000E-03 0.  1.
    9900012    2    1    2    0    0  0.12794051991E+02 -0.20379287969E+02  0.32774425665E+02  0.50528854385E+02  0.29999983389E+02 0.  0.
        -12    1    1    2    0    0 -0.12794051991E+02  0.20379287969E+02 -0.32774425665E+02  0.40659145615E+02  0.00000000000E+00 0.  1.
         11    1    3    3    0    0  0.11115133925E+02 -0.91809134471E+01  0.24382607187E+01  0.14621234198E+02  0.51100000000E-03 0. -1.
        -11    1    3    3    0    0  0.13258663614E+01  0.34592790669E+01  0.11222257690E+02  0.11817935572E+02  0.51100000000E-03 0.  1.
         12    1    3    3    0    0  0.35305170508E+00 -0.14657653588E+02  0.19113907257E+02  0.24089684615E+02  0.00000000000E+00 0. -1.
</event>
<event>
 7    1  0.2584640E-011  0.5052886E+02  0.7816164E-02  0.1300439E+00
        -11   -1    0    0    0    0  0.00000000000E+00  0.00000000000E+00  0.45593999997E+02  0.45594000000E+02  0.51100000000E-03 0. -1.
         11   -1    0    0    0    0 -0.00000000000E+00 -0.00000000000E+00 -0.45593999997E+02  0.45594000000E+02  0.51100000000E-03 0.  1.
    9900012    2    1    2    0    0  0.14180140811E+02 -0.13052867506E+02  0.35801004961E+02  0.50528859579E+02  0.29999999175E+02 0.  0.
        -12    1    1    2    0    0 -0.14180140811E+02  0.13052867506E+02 -0.35801004961E+02  0.40659140421E+02  0.00000000000E+00 0.  1.
         11    1    3    3    0    0  0.12910984661E+02 -0.10218359262E+02  0.28823770390E+02  0.33195152217E+02  0.51100000000E-03 0. -1.
        -11    1    3    3    0    0  0.53062457551E+00  0.32624490326E+01  0.99686876717E+01  0.10502374507E+02  0.51100000000E-03 0.  1.
         12    1    3    3    0    0  0.73853157446E+00 -0.60969572767E+01 -0.29914531004E+01  0.68313328547E+01  0.00000000000E+00 0. -1.
</event>
<event>
 7    1  0.2584640E-011  0.5052884E+02  0.7816164E-02  0.1300439E+00
        -11   -1    0    0    0    0  0.00000000000E+00  0.00000000000E+00  0.45593999997E+02  0.45594000000E+02  0.51100000000E-03 0.  1.
         11   -1    0    0    0    0 -0.00000000000E+00 -0.00000000000E+00 -0.45593999997E+02  0.45594000000E+02  0.51100000000E-03 0. -1.
    9900012    2    1    2    0    0 -0.32776038083E+02  0.16581071181E+02 -0.17434632645E+02  0.50528843474E+02  0.29999950222E+02 0.  0.
        -12    1    1    2    0    0  0.32776038083E+02 -0.16581071181E+02  0.17434632645E+02  0.40659156526E+02  0.00000000000E+00 0.  1.
         11    1    3    3    0    0 -0.62862419626E+01  0.93908195560E+01  0.26088848392E+01  0.11597870939E+02  0.51100000000E-03 0. -1.
        -11    1    3    3    0    0 -0.25768635081E+01  0.42192467173E+01 -0.12873337597E+02  0.13790035879E+02  0.51100000000E-03 0.  1.
         12    1    3    3    0    0 -0.23912932613E+02  0.29710049080E+01 -0.71701798872E+01  0.25140936656E+02  0.00000000000E+00 0. -1.
</event>
<event>
 7    1  0.2584640E-011  0.5052886E+02  0.7816164E-02  0.1300439E+00
        -11   -1    0    0    0    0  0.00000000000E+00  0.00000000000E+00  0.45593999997E+02  0.45594000000E+02  0.51100000000E-03 0.  1.
         11   -1    0    0    0    0 -0.00000000000E+00 -0.00000000000E+00 -0.45593999997E+02  0.45594000000E+02  0.51100000000E-03 0. -1.
    9900012    2    1    2    0    0  0.91379716446E+01 -0.30863869478E+02 -0.24841187339E+02  0.50528861379E+02  0.30000004649E+02 0.  0.
        -12    1    1    2    0    0 -0.91379716446E+01  0.30863869478E+02  0.24841187339E+02  0.40659138621E+02  0.00000000000E+00 0.  1.
         11    1    3    3    0    0  0.72081717256E+01 -0.99109877145E+01 -0.49487164212E+01  0.13216475006E+02  0.51100000000E-03 0. -1.
        -11    1    3    3    0    0 -0.13279148785E+00  0.48676087270E+01 -0.38302887716E+00  0.48844610430E+01  0.51100000000E-03 0.  1.
         12    1    3    3    0    0  0.20625914068E+01 -0.25820490491E+02 -0.19509442041E+02  0.32427925330E+02  0.00000000000E+00 0. -1.
</event>
<event>
 7    1  0.2584640E-011  0.5052890E+02  0.7816164E-02  0.1300439E+00
        -11   -1    0    0    0    0  0.00000000000E+00  0.00000000000E+00  0.45593999997E+02  0.45594000000E+02  0.51100000000E-03 0.  1.
         11   -1    0    0    0    0 -0.00000000000E+00 -0.00000000000E+00 -0.45593999997E+02  0.45594000000E+02  0.51100000000E-03 0. -1.
    9900012    2    1    2    0    0  0.11445166776E+01 -0.12672607104E+01 -0.40623226322E+02  0.50528900343E+02  0.30000123082E+02 0.  0.
        -12    1    1    2    0    0 -0.11445166776E+01  0.12672607104E+01  0.40623226322E+02  0.40659099657E+02  0.00000000000E+00 0.  1.
         11    1    3    3    0    0  0.48015243948E+00 -0.35336497781E+01 -0.28231326301E+02  0.28455667487E+02  0.51100000000E-03 0. -1.
        -11    1    3    3    0    0  0.68619061307E+01  0.32327449141E+01 -0.13705695882E+02  0.15664689441E+02  0.51100000000E-03 0.  1.
        -12    1    3    3    0    0 -0.61975418926E+01 -0.96635584634E+00  0.13137958615E+01  0.64085434147E+01  0.00000000000E+00 0.  1.
</event>
<event>
 7    1  0.2584640E-011  0.5052884E+02  0.7816164E-02  0.1300439E+00
        -11   -1    0    0    0    0  0.00000000000E+00  0.00000000000E+00  0.45593999997E+02  0.45594000000E+02  0.51100000000E-03 0.  1.
         11   -1    0    0    0    0 -0.00000000000E+00 -0.00000000000E+00 -0.45593999997E+02  0.45594000000E+02  0.51100000000E-03 0. -1.
    9900012    2    1    2    0    0  0.12635367224E+02  0.37358556581E+02 -0.98920840190E+01  0.50528836446E+02  0.29999928860E+02 0.  0.
        -12    1    1    2    0    0 -0.12635367224E+02 -0.37358556581E+02  0.98920840190E+01  0.40659163554E+02  0.00000000000E+00 0.  1.
         11    1    3    3    0    0  0.80027376368E+00  0.86088813441E+01  0.18781135227E+01  0.88476317034E+01  0.51100000000E-03 0. -1.
        -11    1    3    3    0    0  0.33173298734E+01  0.24278662102E+02  0.23269863941E+01  0.24614487135E+02  0.51100000000E-03 0.  1.
        -12    1    3    3    0    0  0.85177635868E+01  0.44710131346E+01 -0.14097183936E+02  0.17066717607E+02  0.00000000000E+00 0.  1.
</event>
<event>
 7    1  0.2584640E-011  0.5052887E+02  0.7816164E-02  0.1300439E+00
        -11   -1    0    0    0    0  0.00000000000E+00  0.00000000000E+00  0.45593999997E+02  0.45594000000E+02  0.51100000000E-03 0. -1.
         11   -1    0    0    0    0 -0.00000000000E+00 -0.00000000000E+00 -0.45593999997E+02  0.45594000000E+02  0.51100000000E-03 0.  1.
    9900012    2    1    2    0    0 -0.26772692944E+02 -0.13241921984E+02 -0.27586937879E+02  0.50528871543E+02  0.30000035543E+02 0.  0.
        -12    1    1    2    0    0  0.26772692944E+02  0.13241921984E+02  0.27586937879E+02  0.40659128457E+02  0.00000000000E+00 0.  1.
         11    1    3    3    0    0  0.19775067318E+01  0.29233664149E+01 -0.59679639305E+01  0.69334838146E+01  0.51100000000E-03 0. -1.
        -11    1    3    3    0    0 -0.18895360561E+02 -0.12930243059E+01 -0.16273843594E+02  0.24970873997E+02  0.51100000000E-03 0.  1.
        -12    1    3    3    0    0 -0.98548391146E+01 -0.14872264093E+02 -0.53451303547E+01  0.18624513732E+02  0.00000000000E+00 0.  1.
</event>
<event>
 7    1  0.2584640E-011  0.5052886E+02  0.7816164E-02  0.1300439E+00
        -11   -1    0    0    0    0  0.00000000000E+00  0.00000000000E+00  0.45593999997E+02  0.45594000000E+02  0.51100000000E-03 0.  1.
         11   -1    0    0    0    0 -0.00000000000E+00 -0.00000000000E+00 -0.45593999997E+02  0.45594000000E+02  0.51100000000E-03 0. -1.
    9900012    2    1    2    0    0  0.31739101394E+00  0.22297072771E+02 -0.33998606906E+02  0.50528862494E+02  0.30000008037E+02 0.  0.
        -12    1    1    2    0    0 -0.31739101394E+00 -0.22297072771E+02  0.33998606906E+02  0.40659137506E+02  0.00000000000E+00 0.  1.
         11    1    3    3    0    0  0.48145388911E+01 -0.41335071606E+01 -0.96855111279E+01  0.11579066985E+02  0.51100000000E-03 0. -1.
        -11    1    3    3    0    0  0.50746457298E+01  0.76999743782E+01 -0.55521638850E+01  0.10764207299E+02  0.51100000000E-03 0.  1.
        -12    1    3    3    0    0 -0.95717936070E+01  0.18730605553E+02 -0.18760931893E+02  0.28185588210E+02  0.00000000000E+00 0.  1.
</event>
<event>
 7    1  0.2584640E-011  0.5052888E+02  0.7816164E-02  0.1300439E+00
        -11   -1    0    0    0    0  0.00000000000E+00  0.00000000000E+00  0.45593999997E+02  0.45594000000E+02  0.51100000000E-03 0.  1.
         11   -1    0    0    0    0 -0.00000000000E+00 -0.00000000000E+00 -0.45593999997E+02  0.45594000000E+02  0.51100000000E-03 0. -1.
    9900012    2    1    2    0    0  0.20762732443E+02  0.31207496585E+02 -0.15753267818E+02  0.50528876195E+02  0.30000049684E+02 0.  0.
        -12    1    1    2    0    0 -0.20762732443E+02 -0.31207496585E+02  0.15753267818E+02  0.40659123805E+02  0.00000000000E+00 0.  1.
         11    1    3    3    0    0 -0.36005422325E+01  0.15374318435E+00  0.30253750508E+01  0.47053624509E+01  0.51100000000E-03 0.  1.
        -11    1    3    3    0    0  0.36301598418E+01  0.85321658799E+01  0.10792032297E+01  0.93349126911E+01  0.51100000000E-03 0. -1.
        -12    1    3    3    0    0  0.20733114834E+02  0.22521587521E+02 -0.19857846098E+02  0.36488601053E+02  0.00000000000E+00 0.  1.
</event>
<event>
 7    1  0.2584640E-011  0.5052886E+02  0.7816164E-02  0.1300439E+00
        -11   -1    0    0    0    0  0.00000000000E+00  0.00000000000E+00  0.45593999997E+02  0.45594000000E+02  0.51100000000E-03 0.  1.
         11   -1    0    0    0    0 -0.00000000000E+00 -0.00000000000E+00 -0.45593999997E+02  0.45594000000E+02  0.51100000000E-03 0. -1.
    9900012    2    1    2    0    0 -0.31792291343E+02  0.23040341320E+02  0.10562130106E+02  0.50528859461E+02  0.29999998818E+02 0.  0.
        -12    1    1    2    0    0  0.31792291343E+02 -0.23040341320E+02 -0.10562130106E+02  0.40659140539E+02  0.00000000000E+00 0.  1.
         11    1    3    3    0    0 -0.12241894754E+01  0.12998180828E+02  0.94537946539E-01  0.13056043903E+02  0.51100000000E-03 0. -1.
        -11    1    3    3    0    0 -0.17395154477E+02  0.71974036288E+01 -0.22296068455E+01  0.18956929214E+02  0.51100000000E-03 0.  1.
        -12    1    3    3    0    0 -0.13172947391E+02  0.28447568637E+01  0.12697199005E+02  0.18515886345E+02  0.00000000000E+00 0.  1.
</event>
<event>
 7    1  0.2584640E-011  0.5052886E+02  0.7816164E-02  0.1300439E+00
        -11   -1    0    0    0    0  0.00000000000E+00  0.00000000000E+00  0.45593999997E+02  0.45594000000E+02  0.51100000000E-03 0.  1.
         11   -1    0    0    0    0 -0.00000000000E+00 -0.00000000000E+00 -0.45593999997E+02  0.45594000000E+02  0.51100000000E-03 0. -1.
    9900012    2    1    2    0    0  0.11241499331E+00 -0.20942903166E+02 -0.34850364666E+02  0.50528858993E+02  0.29999997394E+02 0.  0.
        -12    1    1    2    0    0 -0.11241499331E+00  0.20942903166E+02  0.34850364666E+02  0.40659141007E+02  0.00000000000E+00 0.  1.
         11    1    3    3    0    0 -0.62095659743E+01 -0.24567561136E+01 -0.17912623145E+02  0.19116914720E+02  0.51100000000E-03 0. -1.
        -11    1    3    3    0    0  0.30604835635E+01  0.24371635021E+01  0.54697202877E+00  0.39503802652E+01  0.51100000000E-03 0.  1.
         12    1    3    3    0    0  0.32614974041E+01 -0.20923310554E+02 -0.17484713549E+02  0.27461564008E+02  0.00000000000E+00 0. -1.
</event>
<event>
 7    1  0.2584640E-011  0.5052885E+02  0.7816164E-02  0.1300439E+00
        -11   -1    0    0    0    0  0.00000000000E+00  0.00000000000E+00  0.45593999997E+02  0.45594000000E+02  0.51100000000E-03 0.  1.
         11   -1    0    0    0    0 -0.00000000000E+00 -0.00000000000E+00 -0.45593999997E+02  0.45594000000E+02  0.51100000000E-03 0. -1.
    9900012    2    1    2    0    0 -0.35286446467E+02 -0.18451322563E+02 -0.82207995709E+01  0.50528853992E+02  0.29999982193E+02 0.  0.
        -12    1    1    2    0    0  0.35286446467E+02  0.18451322563E+02  0.82207995709E+01  0.40659146008E+02  0.00000000000E+00 0.  1.
         11    1    3    3    0    0 -0.12437272891E+02 -0.16176771366E+02 -0.56197933882E+01  0.21164965551E+02  0.51100000000E-03 0. -1.
        -11    1    3    3    0    0 -0.53605028749E+01 -0.71300621568E+00  0.73937162268E+01  0.91602624874E+01  0.51100000000E-03 0.  1.
        -12    1    3    3    0    0 -0.17488670701E+02 -0.15615449810E+01 -0.99947224095E+01  0.20203625953E+02  0.00000000000E+00 0.  1.
</event>
<event>
 7    1  0.2584640E-011  0.5052887E+02  0.7816164E-02  0.1300439E+00
        -11   -1    0    0    0    0  0.00000000000E+00  0.00000000000E+00  0.45593999997E+02  0.45594000000E+02  0.51100000000E-03 0.  1.
         11   -1    0    0    0    0 -0.00000000000E+00 -0.00000000000E+00 -0.45593999997E+02  0.45594000000E+02  0.51100000000E-03 0. -1.
    9900012    2    1    2    0    0 -0.73623339305E+01  0.11830853920E+02 -0.38196753105E+02  0.50528868023E+02  0.30000024842E+02 0.  0.
        -12    1    1    2    0    0  0.73623339305E+01 -0.11830853920E+02  0.38196753105E+02  0.40659131977E+02  0.00000000000E+00 0.  1.
         11    1    3    3    0    0 -0.34599398521E+01  0.15631795573E+02 -0.12737880706E+02  0.20459174513E+02  0.51100000000E-03 0. -1.
        -11    1    3    3    0    0 -0.36249911263E+00  0.49428091535E+01 -0.15840041499E+02  0.16597279382E+02  0.51100000000E-03 0.  1.
         12    1    3    3    0    0 -0.35398949657E+01 -0.87437508067E+01 -0.96188309001E+01  0.13472414127E+02  0.00000000000E+00 0. -1.
</event>
<event>
 7    1  0.2584640E-011  0.5052886E+02  0.7816164E-02  0.1300439E+00
        -11   -1    0    0    0    0  0.00000000000E+00  0.00000000000E+00  0.45593999997E+02  0.45594000000E+02  0.51100000000E-03 0.  1.
         11   -1    0    0    0    0 -0.00000000000E+00 -0.00000000000E+00 -0.45593999997E+02  0.45594000000E+02  0.51100000000E-03 0. -1.
    9900012    2    1    2    0    0  0.23796015207E+02  0.29774104122E+02 -0.14156901277E+02  0.50528862407E+02  0.30000007773E+02 0.  0.
        -12    1    1    2    0    0 -0.23796015207E+02 -0.29774104122E+02  0.14156901277E+02  0.40659137593E+02  0.00000000000E+00 0.  1.
         11    1    3    3    0    0 -0.22130042879E+01  0.39271826260E+01 -0.66684551351E+01  0.80491270027E+01  0.51100000000E-03 0. -1.
        -11    1    3    3    0    0  0.12532833989E+01 -0.33184888830E+01 -0.92008747718E+00  0.36646485468E+01  0.51100000000E-03 0.  1.
         12    1    3    3    0    0  0.24755736096E+02  0.29165410379E+02 -0.65683586651E+01  0.38815086858E+02  0.00000000000E+00 0. -1.
</event>
<event>
 7    1  0.2584640E-011  0.5052886E+02  0.7816164E-02  0.1300439E+00
        -11   -1    0    0    0    0  0.00000000000E+00  0.00000000000E+00  0.45593999997E+02  0.45594000000E+02  0.51100000000E-03 0. -1.
         11   -1    0    0    0    0 -0.00000000000E+00 -0.00000000000E+00 -0.45593999997E+02  0.45594000000E+02  0.51100000000E-03 0.  1.
    9900012    2    1    2    0    0 -0.37791555660E+02 -0.13996412857E+02  0.53911446822E+01  0.50528859662E+02  0.29999999428E+02 0.  0.
        -12    1    1    2    0    0  0.37791555660E+02  0.13996412857E+02 -0.53911446822E+01  0.40659140338E+02  0.00000000000E+00 0.  1.
         11    1    3    3    0    0 -0.15262058112E+02 -0.21711303344E+01  0.12701238188E+02  0.19974125175E+02  0.51100000000E-03 0. -1.
        -11    1    3    3    0    0  0.34125351407E+00  0.23454471071E+01 -0.20642991279E+01  0.31430728982E+01  0.51100000000E-03 0.  1.
         12    1    3    3    0    0 -0.22870751062E+02 -0.14170729630E+02 -0.52457943782E+01  0.27411661589E+02  0.00000000000E+00 0. -1.
</event>
<event>
 7    1  0.2584640E-011  0.5052888E+02  0.7816164E-02  0.1300439E+00
        -11   -1    0    0    0    0  0.00000000000E+00  0.00000000000E+00  0.45593999997E+02  0.45594000000E+02  0.51100000000E-03 0. -1.
         11   -1    0    0    0    0 -0.00000000000E+00 -0.00000000000E+00 -0.45593999997E+02  0.45594000000E+02  0.51100000000E-03 0.  1.
    9900012    2    1    2    0    0  0.29863040010E+02 -0.14331212493E+02  0.23579215762E+02  0.50528877701E+02  0.30000054259E+02 0.  0.
        -12    1    1    2    0    0 -0.29863040010E+02  0.14331212493E+02 -0.23579215762E+02  0.40659122299E+02  0.00000000000E+00 0.  1.
         11    1    3    3    0    0  0.10004297329E+02  0.12404354586E+01  0.77579358903E+01  0.12720464407E+02  0.51100000000E-03 0. -1.
        -11    1    3    3    0    0 -0.23712891600E+00 -0.20744920824E+01  0.13307658289E+02  0.13470468326E+02  0.51100000000E-03 0.  1.
         12    1    3    3    0    0  0.20095871597E+02 -0.13497155870E+02  0.25136215828E+01  0.24337944968E+02  0.00000000000E+00 0. -1.
</event>
<event>
 7    1  0.2584640E-011  0.5052887E+02  0.7816164E-02  0.1300439E+00
        -11   -1    0    0    0    0  0.00000000000E+00  0.00000000000E+00  0.45593999997E+02  0.45594000000E+02  0.51100000000E-03 0.  1.
         11   -1    0    0    0    0 -0.00000000000E+00 -0.00000000000E+00 -0.45593999997E+02  0.45594000000E+02  0.51100000000E-03 0. -1.
    9900012    2    1    2    0    0  0.26323518204E+02 -0.60484805561E+01 -0.30391668154E+02  0.50528865468E+02  0.30000017077E+02 0.  0.
        -12    1    1    2    0    0 -0.26323518204E+02  0.60484805561E+01  0.30391668154E+02  0.40659134532E+02  0.00000000000E+00 0.  1.
         11    1    3    3    0    0  0.11763331632E+02 -0.51124294594E+01 -0.12012031122E+02  0.17572757268E+02  0.51100000000E-03 0. -1.
        -11    1    3    3    0    0  0.14938983386E+02  0.71101164581E+00 -0.46623691539E+00  0.14963159402E+02  0.51100000000E-03 0.  1.
        -12    1    3    3    0    0 -0.37879681402E+00 -0.16470627425E+01 -0.17913400117E+02  0.17992948798E+02  0.00000000000E+00 0.  1.
</event>
<event>
 7    1  0.2584640E-011  0.5052886E+02  0.7816164E-02  0.1300439E+00
        -11   -1    0    0    0    0  0.00000000000E+00  0.00000000000E+00  0.45593999997E+02  0.45594000000E+02  0.51100000000E-03 0. -1.
         11   -1    0    0    0    0 -0.00000000000E+00 -0.00000000000E+00 -0.45593999997E+02  0.45594000000E+02  0.51100000000E-03 0.  1.
    9900012    2    1    2    0    0 -0.91741637440E+00  0.24451287717E+02  0.32472428850E+02  0.50528858847E+02  0.29999996953E+02 0.  0.
        -12    1    1    2    0    0  0.91741637440E+00 -0.24451287717E+02 -0.32472428850E+02  0.40659141153E+02  0.00000000000E+00 0.  1.
         11    1    3    3    0    0 -0.35932085238E+01  0.16881317805E+02  0.89632341076E+01  0.19448125983E+02  0.51100000000E-03 0. -1.
        -11    1    3    3    0    0 -0.21436720980E+01 -0.55108366606E+01  0.41475851161E+01  0.72226804802E+01  0.51100000000E-03 0.  1.
         12    1    3    3    0    0  0.48194642474E+01  0.13080806572E+02  0.19361609626E+02  0.23858052384E+02  0.00000000000E+00 0. -1.
</event>
<event>
 7    1  0.2584640E-011  0.5052885E+02  0.7816164E-02  0.1300439E+00
        -11   -1    0    0    0    0  0.00000000000E+00  0.00000000000E+00  0.45593999997E+02  0.45594000000E+02  0.51100000000E-03 0. -1.
         11   -1    0    0    0    0 -0.00000000000E+00 -0.00000000000E+00 -0.45593999997E+02  0.45594000000E+02  0.51100000000E-03 0.  1.
    9900012    2    1    2    0    0  0.16235565384E+02  0.31053752452E+02  0.20621279345E+02  0.50528852364E+02  0.29999977246E+02 0.  0.
        -12    1    1    2    0    0 -0.16235565384E+02 -0.31053752452E+02 -0.20621279345E+02  0.40659147636E+02  0.00000000000E+00 0.  1.
         11    1    3    3    0    0  0.18914457815E+02  0.23748921621E+02  0.25639249606E+02  0.39738383374E+02  0.51100000000E-03 0. -1.
        -11    1    3    3    0    0  0.49910401728E+00  0.61280237310E+01 -0.29383749623E+01  0.68143838568E+01  0.51100000000E-03 0.  1.
        -12    1    3    3    0    0 -0.31779964487E+01  0.11768070995E+01 -0.20795952987E+01  0.39760851328E+01  0.00000000000E+00 0.  1.
</event>
<event>
 7    1  0.2584640E-011  0.5052886E+02  0.7816164E-02  0.1300439E+00
        -11   -1    0    0    0    0  0.00000000000E+00  0.00000000000E+00  0.45593999997E+02  0.45594000000E+02  0.51100000000E-03 0.  1.
         11   -1    0    0    0    0 -0.00000000000E+00 -0.00000000000E+00 -0.45593999997E+02  0.45594000000E+02  0.51100000000E-03 0. -1.
    9900012    2    1    2    0    0 -0.38608330852E+02 -0.10920826053E+02 -0.65801101984E+01  0.50528861998E+02  0.30000006528E+02 0.  0.
        -12    1    1    2    0    0  0.38608330852E+02  0.10920826053E+02  0.65801101984E+01  0.40659138002E+02  0.00000000000E+00 0.  1.
         11    1    3    3    0    0 -0.21346272182E+02  0.31752353755E+01  0.36005875569E-01  0.21581166615E+02  0.51100000000E-03 0. -1.
        -11    1    3    3    0    0  0.23019608428E+01 -0.22906484410E+01  0.27473482691E+01  0.42537062398E+01  0.51100000000E-03 0.  1.
         12    1    3    3    0    0 -0.19564019512E+02 -0.11805412988E+02 -0.93634643431E+01  0.24693989143E+02  0.00000000000E+00 0. -1.
</event>
<event>
 7    1  0.2584640E-011  0.5052885E+02  0.7816164E-02  0.1300439E+00
        -11   -1    0    0    0    0  0.00000000000E+00  0.00000000000E+00  0.45593999997E+02  0.45594000000E+02  0.51100000000E-03 0.  1.
         11   -1    0    0    0    0 -0.00000000000E+00 -0.00000000000E+00 -0.45593999997E+02  0.45594000000E+02  0.51100000000E-03 0. -1.
    9900012    2    1    2    0    0  0.72350892641E+01 -0.13807826893E+02 -0.37552147252E+02  0.50528851418E+02  0.29999974370E+02 0.  0.
        -12    1    1    2    0    0 -0.72350892641E+01  0.13807826893E+02  0.37552147252E+02  0.40659148582E+02  0.00000000000E+00 0.  1.
         11    1    3    3    0    0  0.10698234685E+02 -0.92467559410E+00 -0.28323421572E+02  0.30290649714E+02  0.51100000000E-03 0. -1.
        -11    1    3    3    0    0 -0.26579814199E+01 -0.10356063672E+01 -0.77662976633E+01  0.82736162246E+01  0.51100000000E-03 0.  1.
        -12    1    3    3    0    0 -0.80516400076E+00 -0.11847544932E+02 -0.14624280172E+01  0.11964585479E+02  0.00000000000E+00 0.  1.
</event>
<event>
 7    1  0.2584640E-011  0.5052885E+02  0.7816164E-02  0.1300439E+00
        -11   -1    0    0    0    0  0.00000000000E+00  0.00000000000E+00  0.45593999997E+02  0.45594000000E+02  0.51100000000E-03 0.  1.
         11   -1    0    0    0    0 -0.00000000000E+00 -0.00000000000E+00 -0.45593999997E+02  0.45594000000E+02  0.51100000000E-03 0. -1.
    9900012    2    1    2    0    0  0.18531765514E+02  0.30047748687E+02 -0.20171089089E+02  0.50528851346E+02  0.29999974152E+02 0.  0.
        -12    1    1    2    0    0 -0.18531765514E+02 -0.30047748687E+02  0.20171089089E+02  0.40659148654E+02  0.00000000000E+00 0.  1.
         11    1    3    3    0    0  0.31450656519E+01  0.16624164927E+02 -0.21067920902E+02  0.27020577138E+02  0.51100000000E-03 0. -1.
        -11    1    3    3    0    0 -0.92574071840E+00 -0.12354407830E+01 -0.15627165987E+00  0.15516864693E+01  0.51100000000E-03 0.  1.
         12    1    3    3    0    0  0.16312440580E+02  0.14659024543E+02  0.10531034724E+01  0.21956587739E+02  0.00000000000E+00 0. -1.
</event>
<event>
 7    1  0.2584640E-011  0.5052886E+02  0.7816164E-02  0.1300439E+00
        -11   -1    0    0    0    0  0.00000000000E+00  0.00000000000E+00  0.45593999997E+02  0.45594000000E+02  0.51100000000E-03 0.  1.
         11   -1    0    0    0    0 -0.00000000000E+00 -0.00000000000E+00 -0.45593999997E+02  0.45594000000E+02  0.51100000000E-03 0. -1.
    9900012    2    1    2    0    0  0.21918801082E+02 -0.29721224323E+02 -0.17011193884E+02  0.50528859164E+02  0.29999997915E+02 0.  0.
        -12    1    1    2    0    0 -0.21918801082E+02  0.29721224323E+02  0.17011193884E+02  0.40659140836E+02  0.00000000000E+00 0.  1.
         11    1    3    3    0    0  0.98745607790E+01  0.16822081010E+01 -0.48986360559E+01  0.11150489233E+02  0.51100000000E-03 0. -1.
        -11    1    3    3    0    0 -0.27741091654E+01 -0.10154014295E+02 -0.78340416048E+01  0.13121428889E+02  0.51100000000E-03 0.  1.
         12    1    3    3    0    0  0.14818349468E+02 -0.21249418129E+02 -0.42785162235E+01  0.26256941042E+02  0.00000000000E+00 0. -1.
</event>
<event>
 7    1  0.2584640E-011  0.5052884E+02  0.7816164E-02  0.1300439E+00
        -11   -1    0    0    0    0  0.00000000000E+00  0.00000000000E+00  0.45593999997E+02  0.45594000000E+02  0.51100000000E-03 0.  1.
         11   -1    0    0    0    0 -0.00000000000E+00 -0.00000000000E+00 -0.45593999997E+02  0.45594000000E+02  0.51100000000E-03 0. -1.
    9900012    2    1    2    0    0  0.36605766701E+02  0.28628623035E+01 -0.17463936346E+02  0.50528841019E+02  0.29999942763E+02 0.  0.
        -12    1    1    2    0    0 -0.36605766701E+02 -0.28628623035E+01  0.17463936346E+02  0.40659158981E+02  0.00000000000E+00 0.  1.
         11    1    3    3    0    0  0.12041912192E+02  0.76003962893E+01 -0.10282166650E+02  0.17564071973E+02  0.51100000000E-03 0. -1.
        -11    1    3    3    0    0  0.68967221585E+00 -0.72471904611E+01 -0.50594510948E+01  0.88654082245E+01  0.51100000000E-03 0.  1.
         12    1    3    3    0    0  0.23874182293E+02  0.25096564753E+01 -0.21223186009E+01  0.24099360822E+02  0.00000000000E+00 0. -1.
</event>
<event>
 7    1  0.2584640E-011  0.5052886E+02  0.7816164E-02  0.1300439E+00
        -11   -1    0    0    0    0  0.00000000000E+00  0.00000000000E+00  0.45593999997E+02  0.45594000000E+02  0.51100000000E-03 0.  1.
         11   -1    0    0    0    0 -0.00000000000E+00 -0.00000000000E+00 -0.45593999997E+02  0.45594000000E+02  0.51100000000E-03 0. -1.
    9900012    2    1    2    0    0  0.17185626286E+02  0.28681038615E+02 -0.23134781034E+02  0.50528858096E+02  0.29999994669E+02 0.  0.
        -12    1    1    2    0    0 -0.17185626286E+02 -0.28681038615E+02  0.23134781034E+02  0.40659141904E+02  0.00000000000E+00 0.  1.
         11    1    3    3    0    0  0.51897195333E+01  0.10805703340E+01 -0.91988980535E+01  0.10616993300E+02  0.51100000000E-03 0. -1.
        -11    1    3    3    0    0  0.17628737939E+02  0.18029460638E+02 -0.13927326395E+02  0.28806323490E+02  0.51100000000E-03 0.  1.
         12    1    3    3    0    0 -0.56328311867E+01  0.95710076426E+01 -0.85565857582E-02  0.11105541306E+02  0.00000000000E+00 0. -1.
</event>
<event>
 7    1  0.2584640E-011  0.5052886E+02  0.7816164E-02  0.1300439E+00
        -11   -1    0    0    0    0  0.00000000000E+00  0.00000000000E+00  0.45593999997E+02  0.45594000000E+02  0.51100000000E-03 0.  1.
         11   -1    0    0    0    0 -0.00000000000E+00 -0.00000000000E+00 -0.45593999997E+02  0.45594000000E+02  0.51100000000E-03 0. -1.
    9900012    2    1    2    0    0 -0.59112688346E+01  0.40156968637E+02  0.23749099311E+01  0.50528862939E+02  0.30000009390E+02 0.  0.
        -12    1    1    2    0    0  0.59112688346E+01 -0.40156968637E+02 -0.23749099311E+01  0.40659137061E+02  0.00000000000E+00 0.  1.
         11    1    3    3    0    0  0.59008030181E+01  0.25288055747E+02 -0.42502586287E+01  0.26312923410E+02  0.51100000000E-03 0. -1.
        -11    1    3    3    0    0 -0.11718390625E+01  0.11312891186E+02  0.62796974263E+01  0.12991894158E+02  0.51100000000E-03 0.  1.
        -12    1    3    3    0    0 -0.10640232790E+02  0.35560217037E+01  0.34547113352E+00  0.11224045371E+02  0.00000000000E+00 0.  1.
</event>
<event>
 7    1  0.2584640E-011  0.5052886E+02  0.7816164E-02  0.1300439E+00
        -11   -1    0    0    0    0  0.00000000000E+00  0.00000000000E+00  0.45593999997E+02  0.45594000000E+02  0.51100000000E-03 0.  1.
         11   -1    0    0    0    0 -0.00000000000E+00 -0.00000000000E+00 -0.45593999997E+02  0.45594000000E+02  0.51100000000E-03 0. -1.
    9900012    2    1    2    0    0  0.13364499222E+02 -0.24157287592E+02 -0.29849306032E+02  0.50528862603E+02  0.30000008369E+02 0.  0.
        -12    1    1    2    0    0 -0.13364499222E+02  0.24157287592E+02  0.29849306032E+02  0.40659137397E+02  0.00000000000E+00 0.  1.
         11    1    3    3    0    0  0.54197560131E+01 -0.14245669864E+02 -0.15830188122E+02  0.21975161463E+02  0.51100000000E-03 0. -1.
        -11    1    3    3    0    0  0.50080374945E+01 -0.15467851577E+02 -0.40272344309E+01  0.16749731024E+02  0.51100000000E-03 0.  1.
        -12    1    3    3    0    0  0.29367057140E+01  0.55562338488E+01 -0.99918834795E+01  0.11803970116E+02  0.00000000000E+00 0.  1.
</event>
<event>
 7    1  0.3376685E-011  0.5052881E+02  0.7816164E-02  0.1300439E+00
        -11   -1    0    0    0    0  0.00000000000E+00  0.00000000000E+00  0.45593999997E+02  0.45594000000E+02  0.51100000000E-03 0.  1.
         11   -1    0    0    0    0 -0.00000000000E+00 -0.00000000000E+00 -0.45593999997E+02  0.45594000000E+02  0.51100000000E-03 0. -1.
    9900012    2    1    2    0    0  0.13462534781E+02 -0.36548165044E+02 -0.11668817421E+02  0.50528812713E+02  0.29999856722E+02 0.  0.
        -12    1    1    2    0    0 -0.13462534781E+02  0.36548165044E+02  0.11668817421E+02  0.40659187287E+02  0.00000000000E+00 0.  1.
         11    1    3    3    0    0  0.14376426827E+02 -0.26477880882E+02 -0.30521746498E+01  0.30283256012E+02  0.51100000000E-03 0. -1.
        -11    1    3    3    0    0 -0.65892527777E+00 -0.34346892466E+01  0.44073538452E+01  0.56263701371E+01  0.51100000000E-03 0.  1.
        -12    1    3    3    0    0 -0.25496676803E+00 -0.66355949153E+01 -0.13023996616E+02  0.14619186564E+02  0.00000000000E+00 0.  1.
</event>
<event>
 7    1  0.2584640E-011  0.5052889E+02  0.7816164E-02  0.1300439E+00
        -11   -1    0    0    0    0  0.00000000000E+00  0.00000000000E+00  0.45593999997E+02  0.45594000000E+02  0.51100000000E-03 0. -1.
         11   -1    0    0    0    0 -0.00000000000E+00 -0.00000000000E+00 -0.45593999997E+02  0.45594000000E+02  0.51100000000E-03 0.  1.
    9900012    2    1    2    0    0 -0.17334860616E+02  0.34832631156E+02 -0.11804801538E+02  0.50528893699E+02  0.30000102888E+02 0.  0.
        -12    1    1    2    0    0  0.17334860616E+02 -0.34832631156E+02  0.11804801538E+02  0.40659106301E+02  0.00000000000E+00 0.  1.
         11    1    3    3    0    0 -0.43532922140E+01  0.18477312581E+02  0.17174957456E+00  0.18983986185E+02  0.51100000000E-03 0.  1.
        -11    1    3    3    0    0 -0.27909960129E+00  0.29780529720E+01  0.54187212711E+01  0.61894455783E+01  0.51100000000E-03 0. -1.
        -12    1    3    3    0    0 -0.12702468801E+02  0.13377265603E+02 -0.17395272383E+02  0.25355461935E+02  0.00000000000E+00 0.  1.
</event>
<event>
 7    1  0.2584640E-011  0.5052886E+02  0.7816164E-02  0.1300439E+00
        -11   -1    0    0    0    0  0.00000000000E+00  0.00000000000E+00  0.45593999997E+02  0.45594000000E+02  0.51100000000E-03 0.  1.
         11   -1    0    0    0    0 -0.00000000000E+00 -0.00000000000E+00 -0.45593999997E+02  0.45594000000E+02  0.51100000000E-03 0. -1.
    9900012    2    1    2    0    0 -0.23662539234E+01  0.17247426574E+02 -0.36743611644E+02  0.50528857391E+02  0.29999992525E+02 0.  0.
        -12    1    1    2    0    0  0.23662539234E+01 -0.17247426574E+02  0.36743611644E+02  0.40659142609E+02  0.00000000000E+00 0.  1.
         11    1    3    3    0    0 -0.53199568637E+01  0.98719057775E+01  0.12949922166E+01  0.11288643400E+02  0.51100000000E-03 0.  1.
        -11    1    3    3    0    0 -0.76325350204E+00  0.52824055629E+01 -0.22746228862E+02  0.23364017038E+02  0.51100000000E-03 0. -1.
        -12    1    3    3    0    0  0.37169564423E+01  0.20931152338E+01 -0.15292374999E+02  0.15876196953E+02  0.00000000000E+00 0.  1.
</event>
<event>
 7    1  0.2584640E-011  0.5052895E+02  0.7816164E-02  0.1300438E+00
        -11   -1    0    0    0    0  0.00000000000E+00  0.00000000000E+00  0.45593999997E+02  0.45594000000E+02  0.51100000000E-03 0.  1.
         11   -1    0    0    0    0 -0.00000000000E+00 -0.00000000000E+00 -0.45593999997E+02  0.45594000000E+02  0.51100000000E-03 0. -1.
    9900012    2    1    2    0    0 -0.25792753102E+02  0.11191483307E+02 -0.29370782459E+02  0.50528950903E+02  0.30000276765E+02 0.  0.
        -12    1    1    2    0    0  0.25792753102E+02 -0.11191483307E+02  0.29370782459E+02  0.40659049097E+02  0.00000000000E+00 0.  1.
         11    1    3    3    0    0 -0.11920660877E+01  0.71201881181E+01 -0.17786999243E+02  0.19196235119E+02  0.51100000000E-03 0. -1.
        -11    1    3    3    0    0 -0.85553192129E+01  0.88234034695E+01 -0.37045265586E+01  0.12836255408E+02  0.51100000000E-03 0.  1.
         12    1    3    3    0    0 -0.16045367801E+02 -0.47521082804E+01 -0.78792566568E+01  0.18496460376E+02  0.00000000000E+00 0. -1.
</event>
<event>
 7    1  0.2584640E-011  0.5052888E+02  0.7816164E-02  0.1300439E+00
        -11   -1    0    0    0    0  0.00000000000E+00  0.00000000000E+00  0.45593999997E+02  0.45594000000E+02  0.51100000000E-03 0. -1.
         11   -1    0    0    0    0 -0.00000000000E+00 -0.00000000000E+00 -0.45593999997E+02  0.45594000000E+02  0.51100000000E-03 0.  1.
    9900012    2    1    2    0    0  0.22718558196E+02  0.18879618688E+02  0.27939064599E+02  0.50528877789E+02  0.30000054529E+02 0.  0.
        -12    1    1    2    0    0 -0.22718558196E+02 -0.18879618688E+02 -0.27939064599E+02  0.40659122211E+02  0.00000000000E+00 0.  1.
         11    1    3    3    0    0  0.11439785662E+02  0.18028045372E+01  0.24552814991E+01  0.11838378593E+02  0.51100000000E-03 0.  1.
        -11    1    3    3    0    0  0.58401284274E+01  0.19842642038E+02  0.12055534827E+02  0.23941041400E+02  0.51100000000E-03 0. -1.
         12    1    3    3    0    0  0.54386441060E+01 -0.27658278879E+01  0.13428248273E+02  0.14749457796E+02  0.00000000000E+00 0. -1.
</event>
<event>
 7    1  0.2584640E-011  0.5052886E+02  0.7816164E-02  0.1300439E+00
        -11   -1    0    0    0    0  0.00000000000E+00  0.00000000000E+00  0.45593999997E+02  0.45594000000E+02  0.51100000000E-03 0.  1.
         11   -1    0    0    0    0 -0.00000000000E+00 -0.00000000000E+00 -0.45593999997E+02  0.45594000000E+02  0.51100000000E-03 0. -1.
    9900012    2    1    2    0    0 -0.16500488581E+02  0.37132341612E+02  0.14453418642E+01  0.50528856746E+02  0.29999990567E+02 0.  0.
        -12    1    1    2    0    0  0.16500488581E+02 -0.37132341612E+02 -0.14453418642E+01  0.40659143254E+02  0.00000000000E+00 0.  1.
         11    1    3    3    0    0 -0.89433408676E+01  0.95403690056E+01 -0.33119852787E+00  0.13080966301E+02  0.51100000000E-03 0. -1.
        -11    1    3    3    0    0 -0.72645968993E+01  0.31841195215E+02  0.35139335052E+01  0.32847888969E+02  0.51100000000E-03 0.  1.
         12    1    3    3    0    0 -0.29255081428E+00 -0.42492226082E+01 -0.17373931132E+01  0.46000014764E+01  0.00000000000E+00 0. -1.
</event>
<event>
 7    1  0.2584640E-011  0.5052886E+02  0.7816164E-02  0.1300439E+00
        -11   -1    0    0    0    0  0.00000000000E+00  0.00000000000E+00  0.45593999997E+02  0.45594000000E+02  0.51100000000E-03 0. -1.
         11   -1    0    0    0    0 -0.00000000000E+00 -0.00000000000E+00 -0.45593999997E+02  0.45594000000E+02  0.51100000000E-03 0.  1.
    9900012    2    1    2    0    0 -0.74967850135E+01  0.22120884100E+02  0.33281077155E+02  0.50528863321E+02  0.30000010551E+02 0.  0.
        -12    1    1    2    0    0  0.74967850135E+01 -0.22120884100E+02 -0.33281077155E+02  0.40659136679E+02  0.00000000000E+00 0.  1.
         11    1    3    3    0    0  0.33768768641E+01  0.43880523966E+01 -0.12954409496E+01  0.56865163946E+01  0.51100000000E-03 0. -1.
        -11    1    3    3    0    0 -0.33802573927E+01 -0.40395002714E+01  0.90002101372E+01  0.10428206234E+02  0.51100000000E-03 0.  1.
         12    1    3    3    0    0 -0.74934044850E+01  0.21772331975E+02  0.25576307967E+02  0.34414140693E+02  0.00000000000E+00 0. -1.
</event>
<event>
 7    1  0.2584640E-011  0.5052886E+02  0.7816164E-02  0.1300439E+00
        -11   -1    0    0    0    0  0.00000000000E+00  0.00000000000E+00  0.45593999997E+02  0.45594000000E+02  0.51100000000E-03 0.  1.
         11   -1    0    0    0    0 -0.00000000000E+00 -0.00000000000E+00 -0.45593999997E+02  0.45594000000E+02  0.51100000000E-03 0. -1.
    9900012    2    1    2    0    0  0.97814647425E+01  0.31671601067E+02 -0.23545665665E+02  0.50528859106E+02  0.29999997737E+02 0.  0.
        -12    1    1    2    0    0 -0.97814647425E+01 -0.31671601067E+02  0.23545665665E+02  0.40659140894E+02  0.00000000000E+00 0.  1.
         11    1    3    3    0    0 -0.12906855382E+01  0.26849353864E+02 -0.13615784979E+02  0.30132097055E+02  0.51100000000E-03 0. -1.
        -11    1    3    3    0    0 -0.23162946437E+01 -0.17847758091E-01  0.92486783748E+00  0.24941772585E+01  0.51100000000E-03 0.  1.
        -12    1    3    3    0    0  0.13388444924E+02  0.48400949611E+01 -0.10854748523E+02  0.17902584792E+02  0.00000000000E+00 0.  1.
</event>
<event>
 7    1  0.2584640E-011  0.5052886E+02  0.7816164E-02  0.1300439E+00
        -11   -1    0    0    0    0  0.00000000000E+00  0.00000000000E+00  0.45593999997E+02  0.45594000000E+02  0.51100000000E-03 0. -1.
         11   -1    0    0    0    0 -0.00000000000E+00 -0.00000000000E+00 -0.45593999997E+02  0.45594000000E+02  0.51100000000E-03 0.  1.
    9900012    2    1    2    0    0 -0.19930923572E+02  0.34761170784E+02  0.68981861005E+01  0.50528859820E+02  0.29999999908E+02 0.  0.
        -12    1    1    2    0    0  0.19930923572E+02 -0.34761170784E+02 -0.68981861005E+01  0.40659140180E+02  0.00000000000E+00 0.  1.
         11    1    3    3    0    0 -0.16874028412E+01  0.24474424265E+01  0.66660051199E+01  0.72988305433E+01  0.51100000000E-03 0. -1.
        -11    1    3    3    0    0 -0.16019184374E+02  0.80503193193E+01  0.45229089002E+01  0.18489959825E+02  0.51100000000E-03 0.  1.
        -12    1    3    3    0    0 -0.22243363576E+01  0.24263409038E+02 -0.42907279196E+01  0.24740069452E+02  0.00000000000E+00 0.  1.
</event>
<event>
 7    1  0.2584640E-011  0.5052885E+02  0.7816164E-02  0.1300439E+00
        -11   -1    0    0    0    0  0.00000000000E+00  0.00000000000E+00  0.45593999997E+02  0.45594000000E+02  0.51100000000E-03 0. -1.
         11   -1    0    0    0    0 -0.00000000000E+00 -0.00000000000E+00 -0.45593999997E+02  0.45594000000E+02  0.51100000000E-03 0.  1.
    9900012    2    1    2    0    0 -0.10454250649E+02 -0.37677592238E+02  0.11147829792E+02  0.50528850691E+02  0.29999972161E+02 0.  0.
        -12    1    1    2    0    0  0.10454250649E+02  0.37677592238E+02 -0.11147829792E+02  0.40659149309E+02  0.00000000000E+00 0.  1.
         11    1    3    3    0    0 -0.68030982414E+01 -0.30572997810E+01 -0.27086579489E+00  0.74634171914E+01  0.51100000000E-03 0. -1.
        -11    1    3    3    0    0  0.44845729618E+01  0.11980818431E+01  0.14721551111E+00  0.46441864110E+01  0.51100000000E-03 0.  1.
         12    1    3    3    0    0 -0.81357253693E+01 -0.35818374300E+02  0.11271480075E+02  0.38421247089E+02  0.00000000000E+00 0. -1.
</event>
<event>
 7    1  0.2584640E-011  0.5052886E+02  0.7816164E-02  0.1300439E+00
        -11   -1    0    0    0    0  0.00000000000E+00  0.00000000000E+00  0.45593999997E+02  0.45594000000E+02  0.51100000000E-03 0.  1.
         11   -1    0    0    0    0 -0.00000000000E+00 -0.00000000000E+00 -0.45593999997E+02  0.45594000000E+02  0.51100000000E-03 0. -1.
    9900012    2    1    2    0    0  0.17840497188E+02  0.27869561120E+02  0.23625625390E+02  0.50528856477E+02  0.29999989749E+02 0.  0.
        -12    1    1    2    0    0 -0.17840497188E+02 -0.27869561120E+02 -0.23625625390E+02  0.40659143523E+02  0.00000000000E+00 0.  1.
         11    1    3    3    0    0  0.33775488947E+01  0.18352187182E+02  0.14983207692E+02  0.23931300088E+02  0.51100000000E-03 0. -1.
        -11    1    3    3    0    0  0.38415712180E+01  0.26718894350E+01  0.12531276039E+02  0.13376454762E+02  0.51100000000E-03 0.  1.
         12    1    3    3    0    0  0.10621377075E+02  0.68454845027E+01 -0.38888583408E+01  0.13221101627E+02  0.00000000000E+00 0. -1.
</event>
<event>
 7    1  0.2584640E-011  0.5052886E+02  0.7816164E-02  0.1300439E+00
        -11   -1    0    0    0    0  0.00000000000E+00  0.00000000000E+00  0.45593999997E+02  0.45594000000E+02  0.51100000000E-03 0. -1.
         11   -1    0    0    0    0 -0.00000000000E+00 -0.00000000000E+00 -0.45593999997E+02  0.45594000000E+02  0.51100000000E-03 0.  1.
    9900012    2    1    2    0    0  0.36074994075E+01 -0.27705522444E+02  0.29539053101E+02  0.50528859774E+02  0.29999999768E+02 0.  0.
        -12    1    1    2    0    0 -0.36074994075E+01  0.27705522444E+02 -0.29539053101E+02  0.40659140226E+02  0.00000000000E+00 0.  1.
         11    1    3    3    0    0  0.20359143091E+01 -0.45534083623E+01 -0.37282307551E+01  0.62272128285E+01  0.51100000000E-03 0. -1.
        -11    1    3    3    0    0 -0.79747215640E+01 -0.76518181376E+01  0.12598862848E+02  0.16759410794E+02  0.51100000000E-03 0.  1.
         12    1    3    3    0    0  0.95463066625E+01 -0.15500295944E+02  0.20668421008E+02  0.27542236151E+02  0.00000000000E+00 0. -1.
</event>
<event>
 7    1  0.2584640E-011  0.5052886E+02  0.7816164E-02  0.1300439E+00
        -11   -1    0    0    0    0  0.00000000000E+00  0.00000000000E+00  0.45593999997E+02  0.45594000000E+02  0.51100000000E-03 0.  1.
         11   -1    0    0    0    0 -0.00000000000E+00 -0.00000000000E+00 -0.45593999997E+02  0.45594000000E+02  0.51100000000E-03 0. -1.
    9900012    2    1    2    0    0  0.28484261630E+02  0.24737093431E+02 -0.15162089843E+02  0.50528856865E+02  0.29999990928E+02 0.  0.
        -12    1    1    2    0    0 -0.28484261630E+02 -0.24737093431E+02  0.15162089843E+02  0.40659143135E+02  0.00000000000E+00 0.  1.
         11    1    3    3    0    0  0.12920568162E+02  0.49622116227E+01 -0.90448884605E+01  0.16534044676E+02  0.51100000000E-03 0. -1.
        -11    1    3    3    0    0 -0.95121487524E+00 -0.12994633554E+01  0.48130037995E+01  0.50752754198E+01  0.51100000000E-03 0.  1.
         12    1    3    3    0    0  0.16514908344E+02  0.21074345164E+02 -0.10930205182E+02  0.28919536770E+02  0.00000000000E+00 0. -1.
</event>
<event>
 7    1  0.2584640E-011  0.5052882E+02  0.7816164E-02  0.1300439E+00
        -11   -1    0    0    0    0  0.00000000000E+00  0.00000000000E+00  0.45593999997E+02  0.45594000000E+02  0.51100000000E-03 0.  1.
         11   -1    0    0    0    0 -0.00000000000E+00 -0.00000000000E+00 -0.45593999997E+02  0.45594000000E+02  0.51100000000E-03 0. -1.
    9900012    2    1    2    0    0 -0.31624140678E+02 -0.54703190172E+01 -0.24963132398E+02  0.50528823386E+02  0.29999889165E+02 0.  0.
        -12    1    1    2    0    0  0.31624140678E+02  0.54703190172E+01  0.24963132398E+02  0.40659176614E+02  0.00000000000E+00 0.  1.
         11    1    3    3    0    0 -0.15562453638E+02 -0.15171834423E+02 -0.15892680716E+02  0.26924929407E+02  0.51100000000E-03 0. -1.
        -11    1    3    3    0    0 -0.44393605775E+01  0.34978520949E+01 -0.87610741228E+01  0.10425896204E+02  0.51100000000E-03 0.  1.
        -12    1    3    3    0    0 -0.11622326462E+02  0.62036633109E+01 -0.30937755964E+00  0.13177997775E+02  0.00000000000E+00 0.  1.
</event>
<event>
 7    1  0.2584640E-011  0.5052886E+02  0.7816164E-02  0.1300439E+00
        -11   -1    0    0    0    0  0.00000000000E+00  0.00000000000E+00  0.45593999997E+02  0.45594000000E+02  0.51100000000E-03 0.  1.
         11   -1    0    0    0    0 -0.00000000000E+00 -0.00000000000E+00 -0.45593999997E+02  0.45594000000E+02  0.51100000000E-03 0. -1.
    9900012    2    1    2    0    0  0.11812922569E+02 -0.23621873140E+02 -0.30913231448E+02  0.50528857008E+02  0.29999991362E+02 0.  0.
        -12    1    1    2    0    0 -0.11812922569E+02  0.23621873140E+02  0.30913231448E+02  0.40659142992E+02  0.00000000000E+00 0.  1.
         11    1    3    3    0    0  0.11378545759E+02 -0.22138082394E+01 -0.74741105703E+01  0.13792555223E+02  0.51100000000E-03 0. -1.
        -11    1    3    3    0    0  0.23318482816E+01 -0.15403624432E+02 -0.25693580307E+02  0.30047782469E+02  0.51100000000E-03 0.  1.
         12    1    3    3    0    0 -0.18974714711E+01 -0.60044404683E+01  0.22544594291E+01  0.66885193159E+01  0.00000000000E+00 0. -1.
</event>
<event>
 7    1  0.2584640E-011  0.5052887E+02  0.7816164E-02  0.1300439E+00
        -11   -1    0    0    0    0  0.00000000000E+00  0.00000000000E+00  0.45593999997E+02  0.45594000000E+02  0.51100000000E-03 0. -1.
         11   -1    0    0    0    0 -0.00000000000E+00 -0.00000000000E+00 -0.45593999997E+02  0.45594000000E+02  0.51100000000E-03 0.  1.
    9900012    2    1    2    0    0 -0.29277035275E+01 -0.40498377819E+02  0.21153157478E+01  0.50528872923E+02  0.30000039738E+02 0.  0.
        -12    1    1    2    0    0  0.29277035275E+01  0.40498377819E+02 -0.21153157478E+01  0.40659127077E+02  0.00000000000E+00 0.  1.
         11    1    3    3    0    0 -0.62504815466E+01 -0.91736021839E+01 -0.73204523423E+00  0.11124719640E+02  0.51100000000E-03 0. -1.
        -11    1    3    3    0    0  0.34260887934E+01 -0.24728946662E+01 -0.76191271595E+01  0.87123126312E+01  0.51100000000E-03 0.  1.
         12    1    3    3    0    0 -0.10331077431E+00 -0.28851880969E+02  0.10466488142E+02  0.30691840652E+02  0.00000000000E+00 0. -1.
</event>
<event>
 7    1  0.2584640E-011  0.5052885E+02  0.7816164E-02  0.1300439E+00
        -11   -1    0    0    0    0  0.00000000000E+00  0.00000000000E+00  0.45593999997E+02  0.45594000000E+02  0.51100000000E-03 0. -1.
         11   -1    0    0    0    0 -0.00000000000E+00 -0.00000000000E+00 -0.45593999997E+02  0.45594000000E+02  0.51100000000E-03 0.  1.
    9900012    2    1    2    0    0  0.10213779453E+02  0.15154728816E+01  0.39326179493E+02  0.50528851677E+02  0.29999975159E+02 0.  0.
        -12    1    1    2    0    0 -0.10213779453E+02 -0.15154728816E+01 -0.39326179493E+02  0.40659148323E+02  0.00000000000E+00 0.  1.
         11    1    3    3    0    0  0.88256366093E+00 -0.10915913531E+02  0.13145221153E+02  0.17109439682E+02  0.51100000000E-03 0.  1.
        -11    1    3    3    0    0  0.75662332956E+01  0.41810597737E+00  0.15477811797E+02  0.17233263103E+02  0.51100000000E-03 0. -1.
        -12    1    3    3    0    0  0.17649824964E+01  0.12013280435E+02  0.10703146543E+02  0.16186148892E+02  0.00000000000E+00 0.  1.
</event>
<event>
 7    1  0.2584640E-011  0.5052886E+02  0.7816164E-02  0.1300439E+00
        -11   -1    0    0    0    0  0.00000000000E+00  0.00000000000E+00  0.45593999997E+02  0.45594000000E+02  0.51100000000E-03 0.  1.
         11   -1    0    0    0    0 -0.00000000000E+00 -0.00000000000E+00 -0.45593999997E+02  0.45594000000E+02  0.51100000000E-03 0. -1.
    9900012    2    1    2    0    0  0.40560993504E+02  0.26044630914E+01 -0.10899182747E+01  0.50528863956E+02  0.30000012481E+02 0.  0.
        -12    1    1    2    0    0 -0.40560993504E+02 -0.26044630914E+01  0.10899182747E+01  0.40659136044E+02  0.00000000000E+00 0.  1.
         11    1    3    3    0    0  0.10910747487E+02 -0.76247625756E+01  0.51649636576E+01  0.14277894274E+02  0.51100000000E-03 0. -1.
        -11    1    3    3    0    0  0.23067948426E+02  0.41773214445E+01  0.26977429254E+01  0.23597840499E+02  0.51100000000E-03 0.  1.
         12    1    3    3    0    0  0.65822975903E+01  0.60519042225E+01 -0.89526248577E+01  0.12653129183E+02  0.00000000000E+00 0. -1.
</event>
<event>
 7    1  0.2584640E-011  0.5052886E+02  0.7816164E-02  0.1300439E+00
        -11   -1    0    0    0    0  0.00000000000E+00  0.00000000000E+00  0.45593999997E+02  0.45594000000E+02  0.51100000000E-03 0.  1.
         11   -1    0    0    0    0 -0.00000000000E+00 -0.00000000000E+00 -0.45593999997E+02  0.45594000000E+02  0.51100000000E-03 0. -1.
    9900012    2    1    2    0    0 -0.33214795967E+02 -0.90652919498E+01 -0.21627841753E+02  0.50528859229E+02  0.29999998114E+02 0.  0.
        -12    1    1    2    0    0  0.33214795967E+02  0.90652919498E+01  0.21627841753E+02  0.40659140771E+02  0.00000000000E+00 0.  1.
         11    1    3    3    0    0 -0.29781647445E+01 -0.72242283324E+01 -0.27619624564E+01  0.82877848135E+01  0.51100000000E-03 0.  1.
        -11    1    3    3    0    0 -0.21198050285E+02 -0.81561250890E+01 -0.21087954095E+02  0.30993249596E+02  0.51100000000E-03 0. -1.
        -12    1    3    3    0    0 -0.90385809378E+01  0.63150614715E+01  0.22220747985E+01  0.11247824819E+02  0.00000000000E+00 0.  1.
</event>
<event>
 7    1  0.2584640E-011  0.5052886E+02  0.7816164E-02  0.1300439E+00
        -11   -1    0    0    0    0  0.00000000000E+00  0.00000000000E+00  0.45593999997E+02  0.45594000000E+02  0.51100000000E-03 0.  1.
         11   -1    0    0    0    0 -0.00000000000E+00 -0.00000000000E+00 -0.45593999997E+02  0.45594000000E+02  0.51100000000E-03 0. -1.
    9900012    2    1    2    0    0  0.34168919749E+02 -0.49838755936E+01 -0.21466529512E+02  0.50528856108E+02  0.29999988626E+02 0.  0.
        -12    1    1    2    0    0 -0.34168919749E+02  0.49838755936E+01  0.21466529512E+02  0.40659143892E+02  0.00000000000E+00 0.  1.
         11    1    3    3    0    0  0.20410193441E+02 -0.70774628411E+01 -0.58654677366E+01  0.22384597128E+02  0.51100000000E-03 0. -1.
        -11    1    3    3    0    0 -0.35617056331E+00 -0.42883463531E+01  0.19590678812E+01  0.47280777425E+01  0.51100000000E-03 0.  1.
         12    1    3    3    0    0  0.14114896871E+02  0.63819336006E+01 -0.17560129657E+02  0.23416181237E+02  0.00000000000E+00 0. -1.
</event>
<event>
 7    1  0.2584640E-011  0.5052886E+02  0.7816164E-02  0.1300439E+00
        -11   -1    0    0    0    0  0.00000000000E+00  0.00000000000E+00  0.45593999997E+02  0.45594000000E+02  0.51100000000E-03 0.  1.
         11   -1    0    0    0    0 -0.00000000000E+00 -0.00000000000E+00 -0.45593999997E+02  0.45594000000E+02  0.51100000000E-03 0. -1.
    9900012    2    1    2    0    0 -0.11539987910E+02  0.31092067872E+02 -0.23521857835E+02  0.50528858328E+02  0.29999995373E+02 0.  0.
        -12    1    1    2    0    0  0.11539987910E+02 -0.31092067872E+02  0.23521857835E+02  0.40659141672E+02  0.00000000000E+00 0.  1.
         11    1    3    3    0    0 -0.11876912248E+02  0.14042656172E+02 -0.89876133915E+01  0.20470330521E+02  0.51100000000E-03 0. -1.
        -11    1    3    3    0    0  0.18780624912E+01  0.15083080627E+02  0.11277256075E+00  0.15199972298E+02  0.51100000000E-03 0.  1.
        -12    1    3    3    0    0 -0.15411381534E+01  0.19663310724E+01 -0.14647017004E+02  0.14858555509E+02  0.00000000000E+00 0.  1.
</event>
<event>
 7    1  0.2584640E-011  0.5052887E+02  0.7816164E-02  0.1300439E+00
        -11   -1    0    0    0    0  0.00000000000E+00  0.00000000000E+00  0.45593999997E+02  0.45594000000E+02  0.51100000000E-03 0. -1.
         11   -1    0    0    0    0 -0.00000000000E+00 -0.00000000000E+00 -0.45593999997E+02  0.45594000000E+02  0.51100000000E-03 0.  1.
    9900012    2    1    2    0    0 -0.28954368385E+02 -0.25139691875E+02  0.13520561739E+02  0.50528866390E+02  0.30000019881E+02 0.  0.
        -12    1    1    2    0    0  0.28954368385E+02  0.25139691875E+02 -0.13520561739E+02  0.40659133610E+02  0.00000000000E+00 0.  1.
         11    1    3    3    0    0 -0.84298156870E+00 -0.12656764996E+02  0.45705662515E+01  0.13483115153E+02  0.51100000000E-03 0. -1.
        -11    1    3    3    0    0 -0.66879221961E+00  0.45659776026E+00 -0.39827141468E+01  0.40642067841E+01  0.51100000000E-03 0.  1.
         12    1    3    3    0    0 -0.27442594596E+02 -0.12939524639E+02  0.12932709635E+02  0.32981544454E+02  0.00000000000E+00 0. -1.
</event>
<event>
 7    1  0.2584640E-011  0.5052886E+02  0.7816164E-02  0.1300439E+00
        -11   -1    0    0    0    0  0.00000000000E+00  0.00000000000E+00  0.45593999997E+02  0.45594000000E+02  0.51100000000E-03 0.  1.
         11   -1    0    0    0    0 -0.00000000000E+00 -0.00000000000E+00 -0.45593999997E+02  0.45594000000E+02  0.51100000000E-03 0. -1.
    9900012    2    1    2    0    0  0.78761445087E+01  0.33856989222E+01 -0.39745046895E+02  0.50528863730E+02  0.30000011795E+02 0.  0.
        -12    1    1    2    0    0 -0.78761445087E+01 -0.33856989222E+01  0.39745046895E+02  0.40659136270E+02  0.00000000000E+00 0.  1.
         11    1    3    3    0    0  0.34658897275E+01 -0.70983446624E+01 -0.13092346268E+02  0.15290795258E+02  0.51100000000E-03 0. -1.
        -11    1    3    3    0    0  0.10294681534E+02  0.56851314576E+01 -0.24762494278E+02  0.27413177684E+02  0.51100000000E-03 0.  1.
        -12    1    3    3    0    0 -0.58844267531E+01  0.47989121270E+01 -0.18902063485E+01  0.78248907887E+01  0.00000000000E+00 0.  1.
</event>
<event>
 7    1  0.2584640E-011  0.5052887E+02  0.7816164E-02  0.1300439E+00
        -11   -1    0    0    0    0  0.00000000000E+00  0.00000000000E+00  0.45593999997E+02  0.45594000000E+02  0.51100000000E-03 0.  1.
         11   -1    0    0    0    0 -0.00000000000E+00 -0.00000000000E+00 -0.45593999997E+02  0.45594000000E+02  0.51100000000E-03 0. -1.
    9900012    2    1    2    0    0 -0.89049471508E+01  0.12542309042E+02 -0.37637182181E+02  0.50528867171E+02  0.30000022254E+02 0.  0.
        -12    1    1    2    0    0  0.89049471508E+01 -0.12542309042E+02  0.37637182181E+02  0.40659132829E+02  0.00000000000E+00 0.  1.
         11    1    3    3    0    0 -0.57361839641E+01 -0.14509155283E+01 -0.27057973468E+02  0.27697344472E+02  0.51100000000E-03 0. -1.
        -11    1    3    3    0    0 -0.20290748264E+01 -0.26590757520E+01 -0.64123312537E+00  0.34057317405E+01  0.51100000000E-03 0.  1.
        -12    1    3    3    0    0 -0.11396883603E+01  0.16652300323E+02 -0.99379755874E+01  0.19425790959E+02  0.00000000000E+00 0.  1.
</event>
<event>
 7    1  0.2584640E-011  0.5052885E+02  0.7816164E-02  0.1300439E+00
        -11   -1    0    0    0    0  0.00000000000E+00  0.00000000000E+00  0.45593999997E+02  0.45594000000E+02  0.51100000000E-03 0. -1.
         11   -1    0    0    0    0 -0.00000000000E+00 -0.00000000000E+00 -0.45593999997E+02  0.45594000000E+02  0.51100000000E-03 0.  1.
    9900012    2    1    2    0    0  0.21417039591E+02 -0.25017888309E+02  0.23844955757E+02  0.50528852993E+02  0.29999979157E+02 0.  0.
        -12    1    1    2    0    0 -0.21417039591E+02  0.25017888309E+02 -0.23844955757E+02  0.40659147007E+02  0.00000000000E+00 0.  1.
         11    1    3    3    0    0  0.42170125275E+01 -0.20342058140E+02  0.47523653887E+01  0.21311205998E+02  0.51100000000E-03 0. -1.
        -11    1    3    3    0    0  0.30652559586E+01  0.43054805315E+01  0.35260747662E+01  0.63534368823E+01  0.51100000000E-03 0.  1.
        -12    1    3    3    0    0  0.14134771105E+02 -0.89813107004E+01  0.15566515602E+02  0.22864210113E+02  0.00000000000E+00 0.  1.
</event>
<event>
 7    1  0.2584640E-011  0.5052886E+02  0.7816164E-02  0.1300439E+00
        -11   -1    0    0    0    0  0.00000000000E+00  0.00000000000E+00  0.45593999997E+02  0.45594000000E+02  0.51100000000E-03 0. -1.
         11   -1    0    0    0    0 -0.00000000000E+00 -0.00000000000E+00 -0.45593999997E+02  0.45594000000E+02  0.51100000000E-03 0.  1.
    9900012    2    1    2    0    0 -0.76284983260E+01 -0.38868123951E+02  0.91782743246E+01  0.50528858767E+02  0.29999996709E+02 0.  0.
        -12    1    1    2    0    0  0.76284983260E+01  0.38868123951E+02 -0.91782743246E+01  0.40659141233E+02  0.00000000000E+00 0.  1.
         11    1    3    3    0    0 -0.57717526033E+01  0.79483580941E+00  0.29194947242E-01  0.58262976824E+01  0.51100000000E-03 0. -1.
        -11    1    3    3    0    0 -0.39328948087E+01 -0.10768432510E+02  0.10714017455E+02  0.15691302387E+02  0.51100000000E-03 0.  1.
         12    1    3    3    0    0  0.20761490861E+01 -0.28894527250E+02 -0.15649380776E+01  0.29011258698E+02  0.00000000000E+00 0. -1.
</event>
<event>
 7    1  0.2584640E-011  0.5052886E+02  0.7816164E-02  0.1300439E+00
        -11   -1    0    0    0    0  0.00000000000E+00  0.00000000000E+00  0.45593999997E+02  0.45594000000E+02  0.51100000000E-03 0.  1.
         11   -1    0    0    0    0 -0.00000000000E+00 -0.00000000000E+00 -0.45593999997E+02  0.45594000000E+02  0.51100000000E-03 0. -1.
    9900012    2    1    2    0    0  0.20030681219E+02  0.20010411456E+02 -0.29180825642E+02  0.50528863980E+02  0.30000012554E+02 0.  0.
        -12    1    1    2    0    0 -0.20030681219E+02 -0.20010411456E+02  0.29180825642E+02  0.40659136020E+02  0.00000000000E+00 0.  1.
         11    1    3    3    0    0  0.16742752398E+02  0.12201272707E+02 -0.27520599803E+02  0.34446686739E+02  0.51100000000E-03 0. -1.
        -11    1    3    3    0    0 -0.33908654123E+01  0.31019767210E+01 -0.54044523605E+01  0.70942464998E+01  0.51100000000E-03 0.  1.
         12    1    3    3    0    0  0.66787942327E+01  0.47071620281E+01  0.37442265213E+01  0.89879307410E+01  0.00000000000E+00 0. -1.
</event>
<event>
 7    1  0.3828404E-011  0.5052885E+02  0.7816164E-02  0.1300439E+00
        -11   -1    0    0    0    0  0.00000000000E+00  0.00000000000E+00  0.45593999997E+02  0.45594000000E+02  0.51100000000E-03 0. -1.
         11   -1    0    0    0    0 -0.00000000000E+00 -0.00000000000E+00 -0.45593999997E+02  0.45594000000E+02  0.51100000000E-03 0.  1.
    9900012    2    1    2    0    0  0.21091054407E+02 -0.31879644834E+02  0.13857191098E+02  0.50528854954E+02  0.29999985119E+02 0.  0.
        -12    1    1    2    0    0 -0.21091054407E+02  0.31879644834E+02 -0.13857191098E+02  0.40659145046E+02  0.00000000000E+00 0.  1.
         11    1    3    3    0    0  0.26704191837E+01 -0.13030868327E+02  0.39166069924E+01  0.13866307315E+02  0.51100000000E-03 0. -1.
        -11    1    3    3    0    0  0.21116372829E+02 -0.22370438706E+02  0.77898217285E+01  0.31733563496E+02  0.51100000000E-03 0.  1.
        -12    1    3    3    0    0 -0.26957376060E+01  0.35216621982E+01  0.21507623770E+01  0.49289841429E+01  0.00000000000E+00 0.  1.
</event>
<event>
 7    1  0.2584640E-011  0.5052885E+02  0.7816164E-02  0.1300439E+00
        -11   -1    0    0    0    0  0.00000000000E+00  0.00000000000E+00  0.45593999997E+02  0.45594000000E+02  0.51100000000E-03 0. -1.
         11   -1    0    0    0    0 -0.00000000000E+00 -0.00000000000E+00 -0.45593999997E+02  0.45594000000E+02  0.51100000000E-03 0.  1.
    9900012    2    1    2    0    0  0.18097342362E+01  0.40151428140E+02 -0.61444693936E+01  0.50528845756E+02  0.29999957160E+02 0.  0.
        -12    1    1    2    0    0 -0.18097342362E+01 -0.40151428140E+02  0.61444693936E+01  0.40659154244E+02  0.00000000000E+00 0.  1.
         11    1    3    3    0    0 -0.58158743784E+01  0.25334123951E+02 -0.32107596959E+01  0.26190670271E+02  0.51100000000E-03 0. -1.
        -11    1    3    3    0    0  0.10137479915E+01 -0.18754133177E+01 -0.57789591381E+01  0.61596452076E+01  0.51100000000E-03 0.  1.
         12    1    3    3    0    0  0.66118606232E+01  0.16692717507E+02  0.28452494403E+01  0.18178530277E+02  0.00000000000E+00 0. -1.
</event>
<event>
 7    1  0.2584640E-011  0.5052889E+02  0.7816164E-02  0.1300439E+00
        -11   -1    0    0    0    0  0.00000000000E+00  0.00000000000E+00  0.45593999997E+02  0.45594000000E+02  0.51100000000E-03 0.  1.
         11   -1    0    0    0    0 -0.00000000000E+00 -0.00000000000E+00 -0.45593999997E+02  0.45594000000E+02  0.51100000000E-03 0. -1.
    9900012    2    1    2    0    0 -0.19707098972E+01 -0.13283549813E+01 -0.40589588946E+02  0.50528893330E+02  0.30000101765E+02 0.  0.
        -12    1    1    2    0    0  0.19707098972E+01  0.13283549813E+01  0.40589588946E+02  0.40659106670E+02  0.00000000000E+00 0.  1.
         11    1    3    3    0    0  0.56876550478E+01 -0.10629903783E+01 -0.31807978940E+01  0.66027906214E+01  0.51100000000E-03 0. -1.
        -11    1    3    3    0    0 -0.57390578437E+01  0.50238006080E+01 -0.17491325633E+01  0.78252682041E+01  0.51100000000E-03 0.  1.
         12    1    3    3    0    0 -0.19193071013E+01 -0.52891652109E+01 -0.35659658488E+02  0.36100834504E+02  0.00000000000E+00 0. -1.
</event>
<event>
 7    1  0.2584640E-011  0.5052886E+02  0.7816164E-02  0.1300439E+00
        -11   -1    0    0    0    0  0.00000000000E+00  0.00000000000E+00  0.45593999997E+02  0.45594000000E+02  0.51100000000E-03 0. -1.
         11   -1    0    0    0    0 -0.00000000000E+00 -0.00000000000E+00 -0.45593999997E+02  0.45594000000E+02  0.51100000000E-03 0.  1.
    9900012    2    1    2    0    0  0.14715953016E+01  0.24430906573E+02  0.32467379402E+02  0.50528861864E+02  0.30000006122E+02 0.  0.
        -12    1    1    2    0    0 -0.14715953016E+01 -0.24430906573E+02 -0.32467379402E+02  0.40659138136E+02  0.00000000000E+00 0.  1.
         11    1    3    3    0    0  0.76526845295E+01  0.32587562121E+01  0.12458296682E+02  0.14979727269E+02  0.51100000000E-03 0. -1.
        -11    1    3    3    0    0 -0.25136752063E+01  0.69030640653E+01 -0.32366346975E+01  0.80278677717E+01  0.51100000000E-03 0.  1.
         12    1    3    3    0    0 -0.36674140215E+01  0.14269086296E+02  0.23245717417E+02  0.27521266824E+02  0.00000000000E+00 0. -1.
</event>
<event>
 7    1  0.2584640E-011  0.5052884E+02  0.7816164E-02  0.1300439E+00
        -11   -1    0    0    0    0  0.00000000000E+00  0.00000000000E+00  0.45593999997E+02  0.45594000000E+02  0.51100000000E-03 0.  1.
         11   -1    0    0    0    0 -0.00000000000E+00 -0.00000000000E+00 -0.45593999997E+02  0.45594000000E+02  0.51100000000E-03 0. -1.
    9900012    2    1    2    0    0 -0.36138669551E+02  0.35006652842E+01 -0.18300524323E+02  0.50528840087E+02  0.29999939929E+02 0.  0.
        -12    1    1    2    0    0  0.36138669551E+02 -0.35006652842E+01  0.18300524323E+02  0.40659159913E+02  0.00000000000E+00 0.  1.
         11    1    3    3    0    0 -0.15204572987E+02 -0.67776236576E+01 -0.83519962818E+01  0.18624474873E+02  0.51100000000E-03 0. -1.
        -11    1    3    3    0    0 -0.51163660284E+01 -0.30430117751E+01  0.38081993386E+01  0.70667888368E+01  0.51100000000E-03 0.  1.
         12    1    3    3    0    0 -0.15817730535E+02  0.13321300717E+02 -0.13756727380E+02  0.24837576377E+02  0.00000000000E+00 0. -1.
</event>
<event>
 7    1  0.2584640E-011  0.5052887E+02  0.7816164E-02  0.1300439E+00
        -11   -1    0    0    0    0  0.00000000000E+00  0.00000000000E+00  0.45593999997E+02  0.45594000000E+02  0.51100000000E-03 0.  1.
         11   -1    0    0    0    0 -0.00000000000E+00 -0.00000000000E+00 -0.45593999997E+02  0.45594000000E+02  0.51100000000E-03 0. -1.
    9900012    2    1    2    0    0  0.33744322393E+01  0.39869664176E+02 -0.72241257927E+01  0.50528869317E+02  0.30000028776E+02 0.  0.
        -12    1    1    2    0    0 -0.33744322393E+01 -0.39869664176E+02  0.72241257927E+01  0.40659130683E+02  0.00000000000E+00 0.  1.
         11    1    3    3    0    0  0.60706479002E+01  0.23210404767E+02 -0.10687009527E+02  0.26263812142E+02  0.51100000000E-03 0. -1.
        -11    1    3    3    0    0  0.31198322239E+01  0.17741802171E+02  0.34904096702E+01  0.18349056033E+02  0.51100000000E-03 0.  1.
        -12    1    3    3    0    0 -0.58160478849E+01 -0.10825427618E+01 -0.27525936267E-01  0.59160011416E+01  0.00000000000E+00 0.  1.
</event>
<event>
 7    1  0.2584640E-011  0.5052887E+02  0.7816164E-02  0.1300439E+00
        -11   -1    0    0    0    0  0.00000000000E+00  0.00000000000E+00  0.45593999997E+02  0.45594000000E+02  0.51100000000E-03 0.  1.
         11   -1    0    0    0    0 -0.00000000000E+00 -0.00000000000E+00 -0.45593999997E+02  0.45594000000E+02  0.51100000000E-03 0. -1.
    9900012    2    1    2    0    0  0.29652351325E+02  0.24211757911E+02 -0.13700123474E+02  0.50528873798E+02  0.30000042398E+02 0.  0.
        -12    1    1    2    0    0 -0.29652351325E+02 -0.24211757911E+02  0.13700123474E+02  0.40659126202E+02  0.00000000000E+00 0.  1.
         11    1    3    3    0    0  0.80825372884E+01  0.37452491757E+01  0.28776626940E+01  0.93613697314E+01  0.51100000000E-03 0. -1.
        -11    1    3    3    0    0 -0.14031887663E+01 -0.35989012321E+01  0.27485336030E+00  0.38725409517E+01  0.51100000000E-03 0.  1.
         12    1    3    3    0    0  0.22973002803E+02  0.24065409968E+02 -0.16852639528E+02  0.37294963115E+02  0.00000000000E+00 0. -1.
</event>
<event>
 7    1  0.2584640E-011  0.5052887E+02  0.7816164E-02  0.1300439E+00
        -11   -1    0    0    0    0  0.00000000000E+00  0.00000000000E+00  0.45593999997E+02  0.45594000000E+02  0.51100000000E-03 0. -1.
         11   -1    0    0    0    0 -0.00000000000E+00 -0.00000000000E+00 -0.45593999997E+02  0.45594000000E+02  0.51100000000E-03 0.  1.
    9900012    2    1    2    0    0  0.67082999842E+01  0.13604032326E+02  0.37723919376E+02  0.50528867233E+02  0.30000022443E+02 0.  0.
        -12    1    1    2    0    0 -0.67082999842E+01 -0.13604032326E+02 -0.37723919376E+02  0.40659132767E+02  0.00000000000E+00 0.  1.
         11    1    3    3    0    0 -0.22497337440E+00 -0.25696563759E+01 -0.14577933437E+01  0.29629223081E+01  0.51100000000E-03 0. -1.
        -11    1    3    3    0    0  0.76148201768E+01  0.96167883355E+01  0.58527255386E+01  0.13591265604E+02  0.51100000000E-03 0.  1.
         12    1    3    3    0    0 -0.68154681817E+00  0.65569003668E+01  0.33328987181E+02  0.33974679322E+02  0.00000000000E+00 0. -1.
</event>
<event>
 7    1  0.2584640E-011  0.5052887E+02  0.7816164E-02  0.1300439E+00
        -11   -1    0    0    0    0  0.00000000000E+00  0.00000000000E+00  0.45593999997E+02  0.45594000000E+02  0.51100000000E-03 0.  1.
         11   -1    0    0    0    0 -0.00000000000E+00 -0.00000000000E+00 -0.45593999997E+02  0.45594000000E+02  0.51100000000E-03 0. -1.
    9900012    2    1    2    0    0  0.20792783096E+02 -0.22618861278E+02 -0.26631036107E+02  0.50528870662E+02  0.30000032864E+02 0.  0.
        -12    1    1    2    0    0 -0.20792783096E+02  0.22618861278E+02  0.26631036107E+02  0.40659129338E+02  0.00000000000E+00 0.  1.
         11    1    3    3    0    0  0.15538081334E+01 -0.19384746354E+02 -0.18311113896E+02  0.26711038978E+02  0.51100000000E-03 0. -1.
        -11    1    3    3    0    0  0.10347409987E+02 -0.70063884596E+01 -0.61075955244E+01  0.13909029299E+02  0.51100000000E-03 0.  1.
        -12    1    3    3    0    0  0.88915649757E+01  0.37722735354E+01 -0.22123266870E+01  0.99088023853E+01  0.00000000000E+00 0.  1.
</event>
<event>
 7    1  0.2584640E-011  0.5052886E+02  0.7816164E-02  0.1300439E+00
        -11   -1    0    0    0    0  0.00000000000E+00  0.00000000000E+00  0.45593999997E+02  0.45594000000E+02  0.51100000000E-03 0.  1.
         11   -1    0    0    0    0 -0.00000000000E+00 -0.00000000000E+00 -0.45593999997E+02  0.45594000000E+02  0.51100000000E-03 0. -1.
    9900012    2    1    2    0    0 -0.36462424058E+02  0.36635664968E+01 -0.17613514947E+02  0.50528855931E+02  0.29999988087E+02 0.  0.
        -12    1    1    2    0    0  0.36462424058E+02 -0.36635664968E+01  0.17613514947E+02  0.40659144069E+02  0.00000000000E+00 0.  1.
         11    1    3    3    0    0 -0.23129368876E+02  0.49642089050E+01 -0.50992052017E+01  0.24199441493E+02  0.51100000000E-03 0. -1.
        -11    1    3    3    0    0 -0.17090658626E+01  0.62956642573E+01  0.13995240565E+01  0.66719534178E+01  0.51100000000E-03 0.  1.
        -12    1    3    3    0    0 -0.11623989320E+02 -0.75963066654E+01 -0.13913833802E+02  0.19657461019E+02  0.00000000000E+00 0.  1.
</event>
<event>
 7    1  0.2584640E-011  0.5052886E+02  0.7816164E-02  0.1300439E+00
        -11   -1    0    0    0    0  0.00000000000E+00  0.00000000000E+00  0.45593999997E+02  0.45594000000E+02  0.51100000000E-03 0.  1.
         11   -1    0    0    0    0 -0.00000000000E+00 -0.00000000000E+00 -0.45593999997E+02  0.45594000000E+02  0.51100000000E-03 0. -1.
    9900012    2    1    2    0    0  0.40289813120E+02  0.22328960578E+01  0.49910940242E+01  0.50528857294E+02  0.29999992229E+02 0.  0.
        -12    1    1    2    0    0 -0.40289813120E+02 -0.22328960578E+01 -0.49910940242E+01  0.40659142706E+02  0.00000000000E+00 0.  1.
         11    1    3    3    0    0  0.59143560894E+01 -0.31194653951E+00 -0.53746450163E+01  0.79977326730E+01  0.51100000000E-03 0. -1.
        -11    1    3    3    0    0  0.14666611273E+02  0.11384574501E+02 -0.13063845942E-01  0.18566588102E+02  0.51100000000E-03 0.  1.
        -12    1    3    3    0    0  0.19708845757E+02 -0.88397319034E+01  0.10378802886E+02  0.23964536519E+02  0.00000000000E+00 0.  1.
</event>
<event>
 7    1  0.2584640E-011  0.5052886E+02  0.7816164E-02  0.1300439E+00
        -11   -1    0    0    0    0  0.00000000000E+00  0.00000000000E+00  0.45593999997E+02  0.45594000000E+02  0.51100000000E-03 0. -1.
         11   -1    0    0    0    0 -0.00000000000E+00 -0.00000000000E+00 -0.45593999997E+02  0.45594000000E+02  0.51100000000E-03 0.  1.
    9900012    2    1    2    0    0 -0.35878904877E+02  0.82972101656E+01  0.17234442973E+02  0.50528861589E+02  0.30000005286E+02 0.  0.
        -12    1    1    2    0    0  0.35878904877E+02 -0.82972101656E+01 -0.17234442973E+02  0.40659138411E+02  0.00000000000E+00 0.  1.
         11    1    3    3    0    0 -0.14270459337E+02  0.14805291780E+02 -0.20117275782E+01  0.20661309796E+02  0.51100000000E-03 0. -1.
        -11    1    3    3    0    0 -0.98783108297E+01 -0.47046061236E+01  0.84634669904E+01  0.13832737162E+02  0.51100000000E-03 0.  1.
        -12    1    3    3    0    0 -0.11730134711E+02 -0.18034754905E+01  0.10782703561E+02  0.16034814632E+02  0.00000000000E+00 0.  1.
</event>
<event>
 7    1  0.2584640E-011  0.5052882E+02  0.7816164E-02  0.1300439E+00
        -11   -1    0    0    0    0  0.00000000000E+00  0.00000000000E+00  0.45593999997E+02  0.45594000000E+02  0.51100000000E-03 0.  1.
         11   -1    0    0    0    0 -0.00000000000E+00 -0.00000000000E+00 -0.45593999997E+02  0.45594000000E+02  0.51100000000E-03 0. -1.
    9900012    2    1    2    0    0  0.20066487421E+02 -0.32783122128E+02  0.13257906362E+02  0.50528817827E+02  0.29999872267E+02 0.  0.
        -12    1    1    2    0    0 -0.20066487421E+02  0.32783122128E+02 -0.13257906362E+02  0.40659182173E+02  0.00000000000E+00 0.  1.
         11    1    3    3    0    0  0.81859711563E+01 -0.12427350434E+02  0.14452448001E+02  0.20744214038E+02  0.51100000000E-03 0. -1.
        -11    1    3    3    0    0 -0.40940083349E+01 -0.82860582719E+01  0.21411676336E+01  0.94870577646E+01  0.51100000000E-03 0.  1.
         12    1    3    3    0    0  0.15974524599E+02 -0.12069713422E+02 -0.33357092727E+01  0.20297546024E+02  0.00000000000E+00 0. -1.
</event>
<event>
 7    1  0.2584640E-011  0.5052888E+02  0.7816164E-02  0.1300439E+00
        -11   -1    0    0    0    0  0.00000000000E+00  0.00000000000E+00  0.45593999997E+02  0.45594000000E+02  0.51100000000E-03 0.  1.
         11   -1    0    0    0    0 -0.00000000000E+00 -0.00000000000E+00 -0.45593999997E+02  0.45594000000E+02  0.51100000000E-03 0. -1.
    9900012    2    1    2    0    0  0.43664427552E+01 -0.21783479619E+02 -0.34052582725E+02  0.50528878061E+02  0.30000055353E+02 0.  0.
        -12    1    1    2    0    0 -0.43664427552E+01  0.21783479619E+02  0.34052582725E+02  0.40659121939E+02  0.00000000000E+00 0.  1.
         11    1    3    3    0    0 -0.10949005114E+01 -0.29052250135E+01 -0.22263663730E+02  0.22479098346E+02  0.51100000000E-03 0. -1.
        -11    1    3    3    0    0  0.31685051228E+01  0.24443592407E+01 -0.16567215072E+01  0.43311711146E+01  0.51100000000E-03 0.  1.
        -12    1    3    3    0    0  0.22928381438E+01 -0.21322613846E+02 -0.10132197488E+02  0.23718608600E+02  0.00000000000E+00 0.  1.
</event>
<event>
 7    1  0.2584640E-011  0.5052886E+02  0.7816164E-02  0.1300439E+00
        -11   -1    0    0    0    0  0.00000000000E+00  0.00000000000E+00  0.45593999997E+02  0.45594000000E+02  0.51100000000E-03 0.  1.
         11   -1    0    0    0    0 -0.00000000000E+00 -0.00000000000E+00 -0.45593999997E+02  0.45594000000E+02  0.51100000000E-03 0. -1.
    9900012    2    1    2    0    0  0.22400361990E+02 -0.22113444038E+02 -0.25736843890E+02  0.50528858864E+02  0.29999997003E+02 0.  0.
        -12    1    1    2    0    0 -0.22400361990E+02  0.22113444038E+02  0.25736843890E+02  0.40659141136E+02  0.00000000000E+00 0.  1.
         11    1    3    3    0    0  0.12173855196E+02 -0.16072065187E+02 -0.13144287172E+02  0.24068367523E+02  0.51100000000E-03 0. -1.
        -11    1    3    3    0    0 -0.72073361808E+00 -0.73110479158E+01 -0.13534392066E+02  0.15399696342E+02  0.51100000000E-03 0.  1.
         12    1    3    3    0    0  0.10947240412E+02  0.12696690649E+01  0.94183534775E+00  0.11060794999E+02  0.00000000000E+00 0. -1.
</event>
<event>
 7    1  0.2584640E-011  0.5052886E+02  0.7816164E-02  0.1300439E+00
        -11   -1    0    0    0    0  0.00000000000E+00  0.00000000000E+00  0.45593999997E+02  0.45594000000E+02  0.51100000000E-03 0.  1.
         11   -1    0    0    0    0 -0.00000000000E+00 -0.00000000000E+00 -0.45593999997E+02  0.45594000000E+02  0.51100000000E-03 0. -1.
    9900012    2    1    2    0    0  0.30898199453E+02 -0.15342721259E+01 -0.26383956553E+02  0.50528857316E+02  0.29999992298E+02 0.  0.
        -12    1    1    2    0    0 -0.30898199453E+02  0.15342721259E+01  0.26383956553E+02  0.40659142684E+02  0.00000000000E+00 0.  1.
         11    1    3    3    0    0  0.76555591158E+01 -0.18972520240E+01 -0.67975656357E-01  0.78874439186E+01  0.51100000000E-03 0. -1.
        -11    1    3    3    0    0  0.14300359696E+02 -0.11162364431E+02 -0.98485922788E+01  0.20642030841E+02  0.51100000000E-03 0.  1.
        -12    1    3    3    0    0  0.89422806412E+01  0.11525344329E+02 -0.16467388618E+02  0.21999382556E+02  0.00000000000E+00 0.  1.
</event>
<event>
 7    1  0.2584640E-011  0.5052886E+02  0.7816164E-02  0.1300439E+00
        -11   -1    0    0    0    0  0.00000000000E+00  0.00000000000E+00  0.45593999997E+02  0.45594000000E+02  0.51100000000E-03 0. -1.
         11   -1    0    0    0    0 -0.00000000000E+00 -0.00000000000E+00 -0.45593999997E+02  0.45594000000E+02  0.51100000000E-03 0.  1.
    9900012    2    1    2    0    0 -0.26789187240E-01  0.27220202718E+02  0.30203067358E+02  0.50528862878E+02  0.30000009203E+02 0.  0.
        -12    1    1    2    0    0  0.26789187240E-01 -0.27220202718E+02 -0.30203067358E+02  0.40659137122E+02  0.00000000000E+00 0.  1.
         11    1    3    3    0    0 -0.11751901909E+02  0.77653136561E+01  0.17041094615E+02  0.22108961997E+02  0.51100000000E-03 0.  1.
        -11    1    3    3    0    0  0.65255426422E+01  0.19318135884E+01  0.47478509546E+01  0.82979937011E+01  0.51100000000E-03 0. -1.
        -12    1    3    3    0    0  0.51995700796E+01  0.17523075474E+02  0.84141217892E+01  0.20121907180E+02  0.00000000000E+00 0.  1.
</event>
<event>
 7    1  0.2584640E-011  0.5052886E+02  0.7816164E-02  0.1300439E+00
        -11   -1    0    0    0    0  0.00000000000E+00  0.00000000000E+00  0.45593999997E+02  0.45594000000E+02  0.51100000000E-03 0.  1.
         11   -1    0    0    0    0 -0.00000000000E+00 -0.00000000000E+00 -0.45593999997E+02  0.45594000000E+02  0.51100000000E-03 0. -1.
    9900012    2    1    2    0    0 -0.24210410339E+02 -0.19417338649E+02 -0.26267637589E+02  0.50528858426E+02  0.29999995671E+02 0.  0.
        -12    1    1    2    0    0  0.24210410339E+02  0.19417338649E+02  0.26267637589E+02  0.40659141574E+02  0.00000000000E+00 0.  1.
         11    1    3    3    0    0 -0.20793688191E+02 -0.96327871245E+01 -0.79210686915E+01  0.24246884044E+02  0.51100000000E-03 0. -1.
        -11    1    3    3    0    0 -0.29607784403E+01  0.24080593847E+01  0.48102527749E+00  0.38466016887E+01  0.51100000000E-03 0.  1.
        -12    1    3    3    0    0 -0.45594370843E+00 -0.12192610910E+02 -0.18827594175E+02  0.22435372693E+02  0.00000000000E+00 0.  1.
</event>
<event>
 7    1  0.2584640E-011  0.5052886E+02  0.7816164E-02  0.1300439E+00
        -11   -1    0    0    0    0  0.00000000000E+00  0.00000000000E+00  0.45593999997E+02  0.45594000000E+02  0.51100000000E-03 0.  1.
         11   -1    0    0    0    0 -0.00000000000E+00 -0.00000000000E+00 -0.45593999997E+02  0.45594000000E+02  0.51100000000E-03 0. -1.
    9900012    2    1    2    0    0 -0.39932363015E+02 -0.11620682432E+01 -0.75645186515E+01  0.50528856367E+02  0.29999989412E+02 0.  0.
        -12    1    1    2    0    0  0.39932363015E+02  0.11620682432E+01  0.75645186515E+01  0.40659143633E+02  0.00000000000E+00 0.  1.
         11    1    3    3    0    0 -0.11858289947E+02 -0.58160994209E+01 -0.86767688746E+01  0.15802922872E+02  0.51100000000E-03 0. -1.
        -11    1    3    3    0    0  0.55789126661E+00  0.59940302893E+01  0.69169340628E+00  0.60595446862E+01  0.51100000000E-03 0.  1.
         12    1    3    3    0    0 -0.28631964334E+02 -0.13399991116E+01  0.42055681679E+00  0.28666388808E+02  0.00000000000E+00 0. -1.
</event>
<event>
 7    1  0.2584640E-011  0.5052885E+02  0.7816164E-02  0.1300439E+00
        -11   -1    0    0    0    0  0.00000000000E+00  0.00000000000E+00  0.45593999997E+02  0.45594000000E+02  0.51100000000E-03 0.  1.
         11   -1    0    0    0    0 -0.00000000000E+00 -0.00000000000E+00 -0.45593999997E+02  0.45594000000E+02  0.51100000000E-03 0. -1.
    9900012    2    1    2    0    0  0.29312999533E+00 -0.37610759441E+02 -0.15443808838E+02  0.50528851185E+02  0.29999973663E+02 0.  0.
        -12    1    1    2    0    0 -0.29312999533E+00  0.37610759441E+02  0.15443808838E+02  0.40659148815E+02  0.00000000000E+00 0.  1.
         11    1    3    3    0    0 -0.29077985802E+01 -0.17817391332E+02 -0.18033186233E+02  0.25516867607E+02  0.51100000000E-03 0. -1.
        -11    1    3    3    0    0 -0.50617120653E+01 -0.49124016863E+01  0.36804998727E+01  0.79560479469E+01  0.51100000000E-03 0.  1.
         12    1    3    3    0    0  0.82626406408E+01 -0.14880966422E+02 -0.10911224774E+01  0.17055935632E+02  0.00000000000E+00 0. -1.
</event>
<event>
 7    1  0.2584640E-011  0.5052886E+02  0.7816164E-02  0.1300439E+00
        -11   -1    0    0    0    0  0.00000000000E+00  0.00000000000E+00  0.45593999997E+02  0.45594000000E+02  0.51100000000E-03 0.  1.
         11   -1    0    0    0    0 -0.00000000000E+00 -0.00000000000E+00 -0.45593999997E+02  0.45594000000E+02  0.51100000000E-03 0. -1.
    9900012    2    1    2    0    0  0.98494715584E+01  0.20795687634E+02 -0.33521528105E+02  0.50528861290E+02  0.30000004377E+02 0.  0.
        -12    1    1    2    0    0 -0.98494715584E+01 -0.20795687634E+02  0.33521528105E+02  0.40659138710E+02  0.00000000000E+00 0.  1.
         11    1    3    3    0    0  0.42090442584E+01  0.17326794944E+01 -0.89936708613E+00  0.46397298646E+01  0.51100000000E-03 0. -1.
        -11    1    3    3    0    0 -0.75664477179E+01  0.67000549097E+01 -0.19700106021E+01  0.10296737779E+02  0.51100000000E-03 0.  1.
         12    1    3    3    0    0  0.13206875018E+02  0.12362953230E+02 -0.30652150417E+02  0.35592393646E+02  0.00000000000E+00 0. -1.
</event>
<event>
 7    1  0.2584640E-011  0.5052886E+02  0.7816164E-02  0.1300439E+00
        -11   -1    0    0    0    0  0.00000000000E+00  0.00000000000E+00  0.45593999997E+02  0.45594000000E+02  0.51100000000E-03 0.  1.
         11   -1    0    0    0    0 -0.00000000000E+00 -0.00000000000E+00 -0.45593999997E+02  0.45594000000E+02  0.51100000000E-03 0. -1.
    9900012    2    1    2    0    0 -0.46118212060E+01 -0.25299303799E+02 -0.31493529021E+02  0.50528855423E+02  0.29999986543E+02 0.  0.
        -12    1    1    2    0    0  0.46118212060E+01  0.25299303799E+02  0.31493529021E+02  0.40659144577E+02  0.00000000000E+00 0.  1.
         11    1    3    3    0    0 -0.21703394842E+01 -0.12076919523E+02 -0.94667027915E+01  0.15497768247E+02  0.51100000000E-03 0. -1.
        -11    1    3    3    0    0  0.79938033713E+01  0.49040028108E+00 -0.13755058643E+02  0.15916752914E+02  0.51100000000E-03 0.  1.
         12    1    3    3    0    0 -0.10435285093E+02 -0.13712784557E+02 -0.82717675868E+01  0.19114334262E+02  0.00000000000E+00 0. -1.
</event>
<event>
 7    1  0.2584640E-011  0.5052890E+02  0.7816164E-02  0.1300439E+00
        -11   -1    0    0    0    0  0.00000000000E+00  0.00000000000E+00  0.45593999997E+02  0.45594000000E+02  0.51100000000E-03 0.  1.
         11   -1    0    0    0    0 -0.00000000000E+00 -0.00000000000E+00 -0.45593999997E+02  0.45594000000E+02  0.51100000000E-03 0. -1.
    9900012    2    1    2    0    0 -0.21029291567E+02 -0.22223366696E+02 -0.26777853835E+02  0.50528897857E+02  0.30000115524E+02 0.  0.
        -12    1    1    2    0    0  0.21029291567E+02  0.22223366696E+02  0.26777853835E+02  0.40659102143E+02  0.00000000000E+00 0.  1.
         11    1    3    3    0    0 -0.97937375361E+00  0.37227358581E+01 -0.22030382665E+01  0.44352354034E+01  0.51100000000E-03 0. -1.
        -11    1    3    3    0    0 -0.50326762566E+00 -0.15181716216E+02 -0.39216428287E+01  0.15688118699E+02  0.51100000000E-03 0.  1.
         12    1    3    3    0    0 -0.19546650188E+02 -0.10764386338E+02 -0.20653172740E+02  0.30405543755E+02  0.00000000000E+00 0. -1.
</event>
<event>
 7    1  0.2584640E-011  0.5052886E+02  0.7816164E-02  0.1300439E+00
        -11   -1    0    0    0    0  0.00000000000E+00  0.00000000000E+00  0.45593999997E+02  0.45594000000E+02  0.51100000000E-03 0.  1.
         11   -1    0    0    0    0 -0.00000000000E+00 -0.00000000000E+00 -0.45593999997E+02  0.45594000000E+02  0.51100000000E-03 0. -1.
    9900012    2    1    2    0    0 -0.21747401836E+02 -0.19449652187E+02 -0.28318318903E+02  0.50528860285E+02  0.30000001323E+02 0.  0.
        -12    1    1    2    0    0  0.21747401836E+02  0.19449652187E+02  0.28318318903E+02  0.40659139715E+02  0.00000000000E+00 0.  1.
         11    1    3    3    0    0 -0.14746216658E+02 -0.81314099170E+01 -0.20000553961E+02  0.26145609420E+02  0.51100000000E-03 0. -1.
        -11    1    3    3    0    0 -0.11289192514E+02 -0.13563206941E+02 -0.44806758267E+01  0.18206672026E+02  0.51100000000E-03 0.  1.
         12    1    3    3    0    0  0.42880073350E+01  0.22449646705E+01 -0.38370891155E+01  0.61765788392E+01  0.00000000000E+00 0. -1.
</event>
<event>
 7    1  0.2584640E-011  0.5052886E+02  0.7816164E-02  0.1300439E+00
        -11   -1    0    0    0    0  0.00000000000E+00  0.00000000000E+00  0.45593999997E+02  0.45594000000E+02  0.51100000000E-03 0.  1.
         11   -1    0    0    0    0 -0.00000000000E+00 -0.00000000000E+00 -0.45593999997E+02  0.45594000000E+02  0.51100000000E-03 0. -1.
    9900012    2    1    2    0    0  0.12478360000E+02 -0.24846863777E+02 -0.29666309316E+02  0.50528855686E+02  0.29999987344E+02 0.  0.
        -12    1    1    2    0    0 -0.12478360000E+02  0.24846863777E+02  0.29666309316E+02  0.40659144314E+02  0.00000000000E+00 0.  1.
         11    1    3    3    0    0  0.12781616464E+02 -0.80751738402E+01 -0.20042401801E+02  0.25105298688E+02  0.51100000000E-03 0. -1.
        -11    1    3    3    0    0 -0.74763098209E+00 -0.75183038508E+00  0.41552012422E+01  0.42883445101E+01  0.51100000000E-03 0.  1.
         12    1    3    3    0    0  0.44437451834E+00 -0.16019859552E+02 -0.13779108758E+02  0.21135212489E+02  0.00000000000E+00 0. -1.
</event>
<event>
 7    1  0.2584640E-011  0.5052888E+02  0.7816164E-02  0.1300439E+00
        -11   -1    0    0    0    0  0.00000000000E+00  0.00000000000E+00  0.45593999997E+02  0.45594000000E+02  0.51100000000E-03 0. -1.
         11   -1    0    0    0    0 -0.00000000000E+00 -0.00000000000E+00 -0.45593999997E+02  0.45594000000E+02  0.51100000000E-03 0.  1.
    9900012    2    1    2    0    0 -0.30684411299E+02 -0.26670304381E+02  0.57053721111E+00  0.50528883614E+02  0.30000072234E+02 0.  0.
        -12    1    1    2    0    0  0.30684411299E+02  0.26670304381E+02 -0.57053721111E+00  0.40659116386E+02  0.00000000000E+00 0.  1.
         11    1    3    3    0    0 -0.30430212358E+01 -0.13728959774E+01 -0.48909584999E+01  0.59216802442E+01  0.51100000000E-03 0.  1.
        -11    1    3    3    0    0  0.24656643772E+01 -0.29073358756E+01  0.59705506830E+01  0.70837545436E+01  0.51100000000E-03 0. -1.
        -12    1    3    3    0    0 -0.30107054440E+02 -0.22390072528E+02 -0.50905497198E+00  0.37523448827E+02  0.00000000000E+00 0.  1.
</event>
<event>
 7    1  0.2584640E-011  0.5052886E+02  0.7816164E-02  0.1300439E+00
        -11   -1    0    0    0    0  0.00000000000E+00  0.00000000000E+00  0.45593999997E+02  0.45594000000E+02  0.51100000000E-03 0. -1.
         11   -1    0    0    0    0 -0.00000000000E+00 -0.00000000000E+00 -0.45593999997E+02  0.45594000000E+02  0.51100000000E-03 0.  1.
    9900012    2    1    2    0    0  0.35717151566E+02  0.17662100309E+02  0.80932600205E+01  0.50528861285E+02  0.30000004361E+02 0.  0.
        -12    1    1    2    0    0 -0.35717151566E+02 -0.17662100309E+02 -0.80932600205E+01  0.40659138715E+02  0.00000000000E+00 0.  1.
         11    1    3    3    0    0  0.12052118218E+02  0.86990760868E+01  0.56813429007E+00  0.14874483357E+02  0.51100000000E-03 0. -1.
        -11    1    3    3    0    0  0.13567458375E+02  0.77560303052E+01 -0.76397781012E+01  0.17395348302E+02  0.51100000000E-03 0.  1.
         12    1    3    3    0    0  0.10097574973E+02  0.12069939174E+01  0.15164903832E+02  0.18259029626E+02  0.00000000000E+00 0. -1.
</event>
<event>
 7    1  0.2584640E-011  0.5052886E+02  0.7816164E-02  0.1300439E+00
        -11   -1    0    0    0    0  0.00000000000E+00  0.00000000000E+00  0.45593999997E+02  0.45594000000E+02  0.51100000000E-03 0. -1.
         11   -1    0    0    0    0 -0.00000000000E+00 -0.00000000000E+00 -0.45593999997E+02  0.45594000000E+02  0.51100000000E-03 0.  1.
    9900012    2    1    2    0    0  0.33409706632E+02  0.73906816266E+00  0.23160549958E+02  0.50528858428E+02  0.29999995679E+02 0.  0.
        -12    1    1    2    0    0 -0.33409706632E+02 -0.73906816266E+00 -0.23160549958E+02  0.40659141572E+02  0.00000000000E+00 0.  1.
         11    1    3    3    0    0  0.18971981409E+02 -0.39916806653E+01  0.76306330760E+00  0.19402367356E+02  0.51100000000E-03 0. -1.
        -11    1    3    3    0    0 -0.37454355304E+00  0.28680435906E+01 -0.12579725704E+01  0.31541167004E+01  0.51100000000E-03 0.  1.
         12    1    3    3    0    0  0.14812268776E+02  0.18627052373E+01  0.23655459221E+02  0.27972374372E+02  0.00000000000E+00 0. -1.
</event>
<event>
 7    1  0.2584640E-011  0.5052886E+02  0.7816164E-02  0.1300439E+00
        -11   -1    0    0    0    0  0.00000000000E+00  0.00000000000E+00  0.45593999997E+02  0.45594000000E+02  0.51100000000E-03 0.  1.
         11   -1    0    0    0    0 -0.00000000000E+00 -0.00000000000E+00 -0.45593999997E+02  0.45594000000E+02  0.51100000000E-03 0. -1.
    9900012    2    1    2    0    0 -0.74411379168E+01 -0.16294243445E+02 -0.36500580395E+02  0.50528864838E+02  0.30000015162E+02 0.  0.
        -12    1    1    2    0    0  0.74411379168E+01  0.16294243445E+02  0.36500580395E+02  0.40659135162E+02  0.00000000000E+00 0.  1.
         11    1    3    3    0    0 -0.54174591610E+01 -0.42577027938E+01 -0.13303378300E+02  0.14981881434E+02  0.51100000000E-03 0. -1.
        -11    1    3    3    0    0 -0.77397032717E+01  0.27245175967E+01 -0.16364002064E+02  0.18305916166E+02  0.51100000000E-03 0.  1.
        -12    1    3    3    0    0  0.57160245159E+01 -0.14761058248E+02 -0.68332000310E+01  0.17241067238E+02  0.00000000000E+00 0.  1.
</event>
<event>
 7    1  0.2584640E-011  0.5052885E+02  0.7816164E-02  0.1300439E+00
        -11   -1    0    0    0    0  0.00000000000E+00  0.00000000000E+00  0.45593999997E+02  0.45594000000E+02  0.51100000000E-03 0.  1.
         11   -1    0    0    0    0 -0.00000000000E+00 -0.00000000000E+00 -0.45593999997E+02  0.45594000000E+02  0.51100000000E-03 0. -1.
    9900012    2    1    2    0    0  0.34218193122E+01  0.24412289500E+02 -0.32334160349E+02  0.50528847875E+02  0.29999963600E+02 0.  0.
        -12    1    1    2    0    0 -0.34218193122E+01 -0.24412289500E+02  0.32334160349E+02  0.40659152125E+02  0.00000000000E+00 0.  1.
         11    1    3    3    0    0  0.47738643696E+01  0.56014732604E+01  0.53850620026E+00  0.73794493626E+01  0.51100000000E-03 0.  1.
        -11    1    3    3    0    0 -0.18185069741E+01 -0.42978965655E+01 -0.38660933622E+01  0.60601617676E+01  0.51100000000E-03 0. -1.
         12    1    3    3    0    0  0.46646191676E+00  0.23108712805E+02 -0.29006573187E+02  0.37089236745E+02  0.00000000000E+00 0. -1.
</event>
<event>
 7    1  0.2584640E-011  0.5052886E+02  0.7816164E-02  0.1300439E+00
        -11   -1    0    0    0    0  0.00000000000E+00  0.00000000000E+00  0.45593999997E+02  0.45594000000E+02  0.51100000000E-03 0.  1.
         11   -1    0    0    0    0 -0.00000000000E+00 -0.00000000000E+00 -0.45593999997E+02  0.45594000000E+02  0.51100000000E-03 0. -1.
    9900012    2    1    2    0    0 -0.25201049899E+00 -0.10721670905E+02 -0.39219227212E+02  0.50528861797E+02  0.30000005919E+02 0.  0.
        -12    1    1    2    0    0  0.25201049899E+00  0.10721670905E+02  0.39219227212E+02  0.40659138203E+02  0.00000000000E+00 0.  1.
         11    1    3    3    0    0 -0.72312968596E+01 -0.70419241535E+01 -0.85670223079E+01  0.13239117098E+02  0.51100000000E-03 0. -1.
        -11    1    3    3    0    0  0.33180694396E+01 -0.11468438330E+02 -0.12994126366E+02  0.17646018894E+02  0.51100000000E-03 0.  1.
         12    1    3    3    0    0  0.36612169210E+01  0.77886915788E+01 -0.17658078538E+02  0.19643725805E+02  0.00000000000E+00 0. -1.
</event>
<event>
 7    1  0.4135867E-011  0.5052900E+02  0.7816164E-02  0.1300438E+00
        -11   -1    0    0    0    0  0.00000000000E+00  0.00000000000E+00  0.45593999997E+02  0.45594000000E+02  0.51100000000E-03 0. -1.
         11   -1    0    0    0    0 -0.00000000000E+00 -0.00000000000E+00 -0.45593999997E+02  0.45594000000E+02  0.51100000000E-03 0.  1.
    9900012    2    1    2    0    0  0.14184354708E+02  0.22554942215E+02  0.30712102062E+02  0.50528996694E+02  0.30000415947E+02 0.  0.
        -12    1    1    2    0    0 -0.14184354708E+02 -0.22554942215E+02 -0.30712102062E+02  0.40659003306E+02  0.00000000000E+00 0.  1.
         11    1    3    3    0    0  0.50131581675E+01  0.67656301768E+01  0.70263786476E+01  0.10967018905E+02  0.51100000000E-03 0. -1.
        -11    1    3    3    0    0  0.13186970469E+02 -0.19225084539E+01  0.12242323282E+02  0.18096041239E+02  0.51100000000E-03 0.  1.
        -12    1    3    3    0    0 -0.40157739281E+01  0.17711820492E+02  0.11443400132E+02  0.21465936550E+02  0.00000000000E+00 0.  1.
</event>
<event>
 7    1  0.3084402E-011  0.5052888E+02  0.7816164E-02  0.1300439E+00
        -11   -1    0    0    0    0  0.00000000000E+00  0.00000000000E+00  0.45593999997E+02  0.45594000000E+02  0.51100000000E-03 0. -1.
         11   -1    0    0    0    0 -0.00000000000E+00 -0.00000000000E+00 -0.45593999997E+02  0.45594000000E+02  0.51100000000E-03 0.  1.
    9900012    2    1    2    0    0 -0.40559097126E+02 -0.28331059477E+01 -0.31183694064E+00  0.50528879360E+02  0.30000059302E+02 0.  0.
        -12    1    1    2    0    0  0.40559097126E+02  0.28331059477E+01  0.31183694064E+00  0.40659120640E+02  0.00000000000E+00 0.  1.
         11    1    3    3    0    0 -0.22763594999E+02 -0.76006614807E+01  0.20167839101E+01  0.24083578012E+02  0.51100000000E-03 0. -1.
        -11    1    3    3    0    0  0.12600420877E+01 -0.17824638853E+01 -0.56194213154E+01  0.60284973041E+01  0.51100000000E-03 0.  1.
         12    1    3    3    0    0 -0.19055544214E+02  0.65500194183E+01  0.32908004646E+01  0.20416804044E+02  0.00000000000E+00 0. -1.
</event>
<event>
 7    1  0.2584640E-011  0.5052885E+02  0.7816164E-02  0.1300439E+00
        -11   -1    0    0    0    0  0.00000000000E+00  0.00000000000E+00  0.45593999997E+02  0.45594000000E+02  0.51100000000E-03 0.  1.
         11   -1    0    0    0    0 -0.00000000000E+00 -0.00000000000E+00 -0.45593999997E+02  0.45594000000E+02  0.51100000000E-03 0. -1.
    9900012    2    1    2    0    0  0.53659412793E+00 -0.24649526388E+02 -0.32330778445E+02  0.50528851961E+02  0.29999976022E+02 0.  0.
        -12    1    1    2    0    0 -0.53659412793E+00  0.24649526388E+02  0.32330778445E+02  0.40659148039E+02  0.00000000000E+00 0.  1.
         11    1    3    3    0    0 -0.11711000101E+01 -0.17585880536E+02 -0.20490782590E+01  0.17743545063E+02  0.51100000000E-03 0. -1.
        -11    1    3    3    0    0 -0.34834882789E+01 -0.15927450484E+01 -0.44317282258E+01  0.58576226156E+01  0.51100000000E-03 0.  1.
         12    1    3    3    0    0  0.51911824169E+01 -0.54709008036E+01 -0.25849971960E+02  0.26927684282E+02  0.00000000000E+00 0. -1.
</event>
<event>
 7    1  0.2584640E-011  0.5052885E+02  0.7816164E-02  0.1300439E+00
        -11   -1    0    0    0    0  0.00000000000E+00  0.00000000000E+00  0.45593999997E+02  0.45594000000E+02  0.51100000000E-03 0.  1.
         11   -1    0    0    0    0 -0.00000000000E+00 -0.00000000000E+00 -0.45593999997E+02  0.45594000000E+02  0.51100000000E-03 0. -1.
    9900012    2    1    2    0    0 -0.34767236860E+02  0.27935359561E+00 -0.21079073155E+02  0.50528854382E+02  0.29999983379E+02 0.  0.
        -12    1    1    2    0    0  0.34767236860E+02 -0.27935359561E+00  0.21079073155E+02  0.40659145618E+02  0.00000000000E+00 0.  1.
         11    1    3    3    0    0 -0.14179540337E+02  0.25406606748E+01 -0.77422779876E+01  0.16354118428E+02  0.51100000000E-03 0. -1.
        -11    1    3    3    0    0 -0.17257624552E+02 -0.59934213162E-01  0.28601359170E+01  0.17493129366E+02  0.51100000000E-03 0.  1.
         12    1    3    3    0    0 -0.33300719712E+01 -0.22013728660E+01 -0.16196931084E+02  0.16681606588E+02  0.00000000000E+00 0. -1.
</event>
<event>
 7    1  0.2584640E-011  0.5052886E+02  0.7816164E-02  0.1300439E+00
        -11   -1    0    0    0    0  0.00000000000E+00  0.00000000000E+00  0.45593999997E+02  0.45594000000E+02  0.51100000000E-03 0.  1.
         11   -1    0    0    0    0 -0.00000000000E+00 -0.00000000000E+00 -0.45593999997E+02  0.45594000000E+02  0.51100000000E-03 0. -1.
    9900012    2    1    2    0    0  0.99593777818E-01  0.75875264316E+01 -0.39944777875E+02  0.50528858891E+02  0.29999997084E+02 0.  0.
        -12    1    1    2    0    0 -0.99593777818E-01 -0.75875264316E+01  0.39944777875E+02  0.40659141109E+02  0.00000000000E+00 0.  1.
         11    1    3    3    0    0 -0.10308606952E+01  0.53137161265E+01 -0.17696592658E+02  0.18505881357E+02  0.51100000000E-03 0. -1.
        -11    1    3    3    0    0  0.22832196574E+01 -0.10216172854E+02 -0.10805046197E+02  0.15044344564E+02  0.51100000000E-03 0.  1.
         12    1    3    3    0    0 -0.11527651843E+01  0.12489983159E+02 -0.11443139020E+02  0.16978632969E+02  0.00000000000E+00 0. -1.
</event>
<event>
 7    1  0.2584640E-011  0.5052887E+02  0.7816164E-02  0.1300439E+00
        -11   -1    0    0    0    0  0.00000000000E+00  0.00000000000E+00  0.45593999997E+02  0.45594000000E+02  0.51100000000E-03 0.  1.
         11   -1    0    0    0    0 -0.00000000000E+00 -0.00000000000E+00 -0.45593999997E+02  0.45594000000E+02  0.51100000000E-03 0. -1.
    9900012    2    1    2    0    0  0.13420881082E+02 -0.28281867668E+01 -0.38275924228E+02  0.50528867386E+02  0.30000022907E+02 0.  0.
        -12    1    1    2    0    0 -0.13420881082E+02  0.28281867668E+01  0.38275924228E+02  0.40659132614E+02  0.00000000000E+00 0.  1.
         11    1    3    3    0    0  0.38475440283E-01 -0.23991789008E+00 -0.27825546904E+02  0.27826607802E+02  0.51100000000E-03 0. -1.
        -11    1    3    3    0    0  0.11708371715E+02  0.45861794598E+01 -0.81483517828E+01  0.14983812842E+02  0.51100000000E-03 0.  1.
        -12    1    3    3    0    0  0.16740339263E+01 -0.71744483366E+01 -0.23020255410E+01  0.77184467422E+01  0.00000000000E+00 0.  1.
</event>
<event>
 7    1  0.2584640E-011  0.5052886E+02  0.7816164E-02  0.1300439E+00
        -11   -1    0    0    0    0  0.00000000000E+00  0.00000000000E+00  0.45593999997E+02  0.45594000000E+02  0.51100000000E-03 0. -1.
         11   -1    0    0    0    0 -0.00000000000E+00 -0.00000000000E+00 -0.45593999997E+02  0.45594000000E+02  0.51100000000E-03 0.  1.
    9900012    2    1    2    0    0 -0.15750269933E+02  0.27750176076E+02  0.25199642833E+02  0.50528864813E+02  0.30000015086E+02 0.  0.
        -12    1    1    2    0    0  0.15750269933E+02 -0.27750176076E+02 -0.25199642833E+02  0.40659135187E+02  0.00000000000E+00 0.  1.
         11    1    3    3    0    0  0.17618008034E+01  0.79354407571E+01 -0.50517480836E-01  0.81288199856E+01  0.51100000000E-03 0. -1.
        -11    1    3    3    0    0 -0.15439488391E+02  0.23924546639E+02  0.17606822092E+02  0.33477782455E+02  0.51100000000E-03 0.  1.
        -12    1    3    3    0    0 -0.20725823448E+01 -0.41098113200E+01  0.76433382219E+01  0.89222623721E+01  0.00000000000E+00 0.  1.
</event>
<event>
 7    1  0.2584640E-011  0.5052896E+02  0.7816164E-02  0.1300438E+00
        -11   -1    0    0    0    0  0.00000000000E+00  0.00000000000E+00  0.45593999997E+02  0.45594000000E+02  0.51100000000E-03 0.  1.
         11   -1    0    0    0    0 -0.00000000000E+00 -0.00000000000E+00 -0.45593999997E+02  0.45594000000E+02  0.51100000000E-03 0. -1.
    9900012    2    1    2    0    0  0.48697092030E+01 -0.39255058375E+02 -0.94066002306E+01  0.50528956681E+02  0.30000294325E+02 0.  0.
        -12    1    1    2    0    0 -0.48697092030E+01  0.39255058375E+02  0.94066002306E+01  0.40659043319E+02  0.00000000000E+00 0.  1.
         11    1    3    3    0    0  0.54047880374E+01 -0.13324519982E+02  0.79908958426E+01  0.16450197054E+02  0.51100000000E-03 0. -1.
        -11    1    3    3    0    0  0.32297700480E+00 -0.19577282636E+02 -0.51358984417E+01  0.20242326018E+02  0.51100000000E-03 0.  1.
         12    1    3    3    0    0 -0.85805583925E+00 -0.63532557568E+01 -0.12261597632E+02  0.13836433609E+02  0.00000000000E+00 0. -1.
</event>
<event>
 7    1  0.2584640E-011  0.5052886E+02  0.7816164E-02  0.1300439E+00
        -11   -1    0    0    0    0  0.00000000000E+00  0.00000000000E+00  0.45593999997E+02  0.45594000000E+02  0.51100000000E-03 0. -1.
         11   -1    0    0    0    0 -0.00000000000E+00 -0.00000000000E+00 -0.45593999997E+02  0.45594000000E+02  0.51100000000E-03 0.  1.
    9900012    2    1    2    0    0  0.27706637961E+02 -0.21020941258E+02  0.21062485501E+02  0.50528855224E+02  0.29999985938E+02 0.  0.
        -12    1    1    2    0    0 -0.27706637961E+02  0.21020941258E+02 -0.21062485501E+02  0.40659144776E+02  0.00000000000E+00 0.  1.
         11    1    3    3    0    0 -0.48899732874E+01 -0.75965723805E+01  0.49644442243E+01  0.10308513831E+02  0.51100000000E-03 0. -1.
        -11    1    3    3    0    0  0.41373653571E+01  0.13970551876E+01  0.40186159113E+01  0.59345454248E+01  0.51100000000E-03 0.  1.
         12    1    3    3    0    0  0.28459245891E+02 -0.14821424065E+02  0.12079425365E+02  0.34285795968E+02  0.00000000000E+00 0. -1.
</event>
<event>
 7    1  0.2584640E-011  0.5052885E+02  0.7816164E-02  0.1300439E+00
        -11   -1    0    0    0    0  0.00000000000E+00  0.00000000000E+00  0.45593999997E+02  0.45594000000E+02  0.51100000000E-03 0. -1.
         11   -1    0    0    0    0 -0.00000000000E+00 -0.00000000000E+00 -0.45593999997E+02  0.45594000000E+02  0.51100000000E-03 0.  1.
    9900012    2    1    2    0    0 -0.22704160163E+02  0.33648632597E+02  0.23360220035E+01  0.50528851421E+02  0.29999974380E+02 0.  0.
        -12    1    1    2    0    0  0.22704160163E+02 -0.33648632597E+02 -0.23360220035E+01  0.40659148579E+02  0.00000000000E+00 0.  1.
         11    1    3    3    0    0 -0.16653899717E+02  0.95608855103E+01 -0.37801468833E+01  0.19571724969E+02  0.51100000000E-03 0. -1.
        -11    1    3    3    0    0  0.18518459773E+01  0.44359683419E+01 -0.50843706573E+01  0.69969974915E+01  0.51100000000E-03 0.  1.
        -12    1    3    3    0    0 -0.79021064230E+01  0.19651778745E+02  0.11200539544E+02  0.23960128961E+02  0.00000000000E+00 0.  1.
</event>
<event>
 7    1  0.2584640E-011  0.5052886E+02  0.7816164E-02  0.1300439E+00
        -11   -1    0    0    0    0  0.00000000000E+00  0.00000000000E+00  0.45593999997E+02  0.45594000000E+02  0.51100000000E-03 0.  1.
         11   -1    0    0    0    0 -0.00000000000E+00 -0.00000000000E+00 -0.45593999997E+02  0.45594000000E+02  0.51100000000E-03 0. -1.
    9900012    2    1    2    0    0  0.29035971990E+01  0.13646429672E+01 -0.40532364267E+02  0.50528859820E+02  0.29999999909E+02 0.  0.
        -12    1    1    2    0    0 -0.29035971990E+01 -0.13646429672E+01  0.40532364267E+02  0.40659140180E+02  0.00000000000E+00 0.  1.
         11    1    3    3    0    0 -0.17818330933E+00  0.32137888265E+01 -0.29459849706E+01  0.43633720470E+01  0.51100000000E-03 0. -1.
        -11    1    3    3    0    0 -0.14889283356E+01  0.11693916117E+02 -0.22386749975E+02  0.25300813356E+02  0.51100000000E-03 0.  1.
        -12    1    3    3    0    0  0.45707088439E+01 -0.13543061977E+02 -0.15199629321E+02  0.20864674417E+02  0.00000000000E+00 0.  1.
</event>
<event>
 7    1  0.2584640E-011  0.5052886E+02  0.7816164E-02  0.1300439E+00
        -11   -1    0    0    0    0  0.00000000000E+00  0.00000000000E+00  0.45593999997E+02  0.45594000000E+02  0.51100000000E-03 0.  1.
         11   -1    0    0    0    0 -0.00000000000E+00 -0.00000000000E+00 -0.45593999997E+02  0.45594000000E+02  0.51100000000E-03 0. -1.
    9900012    2    1    2    0    0 -0.22558516426E+02  0.24165662166E+02  0.23670653181E+02  0.50528859413E+02  0.29999998670E+02 0.  0.
        -12    1    1    2    0    0  0.22558516426E+02 -0.24165662166E+02 -0.23670653181E+02  0.40659140587E+02  0.00000000000E+00 0.  1.
         11    1    3    3    0    0 -0.31788798137E+01  0.24706140636E+00 -0.34250037096E+01  0.46794195025E+01  0.51100000000E-03 0. -1.
        -11    1    3    3    0    0  0.43195856945E+01  0.53444977662E+01  0.47762817523E+01  0.83687122416E+01  0.51100000000E-03 0.  1.
         12    1    3    3    0    0 -0.23699222307E+02  0.18574102994E+02  0.22319375138E+02  0.37480727668E+02  0.00000000000E+00 0. -1.
</event>
<event>
 7    1  0.2584640E-011  0.5052886E+02  0.7816164E-02  0.1300439E+00
        -11   -1    0    0    0    0  0.00000000000E+00  0.00000000000E+00  0.45593999997E+02  0.45594000000E+02  0.51100000000E-03 0. -1.
         11   -1    0    0    0    0 -0.00000000000E+00 -0.00000000000E+00 -0.45593999997E+02  0.45594000000E+02  0.51100000000E-03 0.  1.
    9900012    2    1    2    0    0 -0.28532281969E+02 -0.28226884817E+02 -0.65051882875E+01  0.50528860616E+02  0.30000002327E+02 0.  0.
        -12    1    1    2    0    0  0.28532281969E+02  0.28226884817E+02  0.65051882875E+01  0.40659139384E+02  0.00000000000E+00 0.  1.
         11    1    3    3    0    0 -0.63475220512E+01 -0.15812087478E+02 -0.89093222167E+01  0.19227302703E+02  0.51100000000E-03 0. -1.
        -11    1    3    3    0    0 -0.16038160158E+02 -0.16745185287E+02 -0.62583733754E+00  0.23195160793E+02  0.51100000000E-03 0.  1.
        -12    1    3    3    0    0 -0.61465997592E+01  0.43303879485E+01  0.30299712668E+01  0.81063971197E+01  0.00000000000E+00 0.  1.
</event>
<event>
 7    1  0.2584640E-011  0.5052885E+02  0.7816164E-02  0.1300439E+00
        -11   -1    0    0    0    0  0.00000000000E+00  0.00000000000E+00  0.45593999997E+02  0.45594000000E+02  0.51100000000E-03 0.  1.
         11   -1    0    0    0    0 -0.00000000000E+00 -0.00000000000E+00 -0.45593999997E+02  0.45594000000E+02  0.51100000000E-03 0. -1.
    9900012    2    1    2    0    0  0.79514140654E+01  0.15387730283E+02 -0.36785312242E+02  0.50528850653E+02  0.29999972044E+02 0.  0.
        -12    1    1    2    0    0 -0.79514140654E+01 -0.15387730283E+02  0.36785312242E+02  0.40659149347E+02  0.00000000000E+00 0.  1.
         11    1    3    3    0    0 -0.94684763822E+00  0.13951760989E+01 -0.22037027361E+02  0.22101439138E+02  0.51100000000E-03 0. -1.
        -11    1    3    3    0    0 -0.39258834528E+01  0.98812155942E+01 -0.83410326193E+01  0.13513837646E+02  0.51100000000E-03 0.  1.
         12    1    3    3    0    0  0.12824145156E+02  0.41113385897E+01 -0.64072522615E+01  0.14913573869E+02  0.00000000000E+00 0. -1.
</event>
<event>
 7    1  0.2584640E-011  0.5052885E+02  0.7816164E-02  0.1300439E+00
        -11   -1    0    0    0    0  0.00000000000E+00  0.00000000000E+00  0.45593999997E+02  0.45594000000E+02  0.51100000000E-03 0.  1.
         11   -1    0    0    0    0 -0.00000000000E+00 -0.00000000000E+00 -0.45593999997E+02  0.45594000000E+02  0.51100000000E-03 0. -1.
    9900012    2    1    2    0    0  0.21682114398E+01 -0.19140933683E+02 -0.35806286869E+02  0.50528847740E+02  0.29999963191E+02 0.  0.
        -12    1    1    2    0    0 -0.21682114398E+01  0.19140933683E+02  0.35806286869E+02  0.40659152260E+02  0.00000000000E+00 0.  1.
         11    1    3    3    0    0  0.40257358515E+01 -0.46583104544E+01 -0.13233046061E+02  0.14595201737E+02  0.51100000000E-03 0. -1.
        -11    1    3    3    0    0 -0.82543248450E+01 -0.84159823866E+01 -0.24246435643E+02  0.26960198068E+02  0.51100000000E-03 0.  1.
        -12    1    3    3    0    0  0.63968004333E+01 -0.60666408422E+01  0.16731948349E+01  0.89734479353E+01  0.00000000000E+00 0.  1.
</event>
<event>
 7    1  0.2584640E-011  0.5052886E+02  0.7816164E-02  0.1300439E+00
        -11   -1    0    0    0    0  0.00000000000E+00  0.00000000000E+00  0.45593999997E+02  0.45594000000E+02  0.51100000000E-03 0. -1.
         11   -1    0    0    0    0 -0.00000000000E+00 -0.00000000000E+00 -0.45593999997E+02  0.45594000000E+02  0.51100000000E-03 0.  1.
    9900012    2    1    2    0    0  0.16953971808E+02  0.33280753175E+02 -0.16066119352E+02  0.50528857327E+02  0.29999992330E+02 0.  0.
        -12    1    1    2    0    0 -0.16953971808E+02 -0.33280753175E+02  0.16066119352E+02  0.40659142673E+02  0.00000000000E+00 0.  1.
         11    1    3    3    0    0  0.79055521412E+01  0.18816140972E+02 -0.46237639650E+01  0.20926636357E+02  0.51100000000E-03 0. -1.
        -11    1    3    3    0    0  0.12487932120E+02  0.67531060589E+01  0.13644436479E+01  0.14262348923E+02  0.51100000000E-03 0.  1.
        -12    1    3    3    0    0 -0.34395124532E+01  0.77115061436E+01 -0.12806799034E+02  0.15339872047E+02  0.00000000000E+00 0.  1.
</event>
<event>
 7    1  0.2584640E-011  0.5052886E+02  0.7816164E-02  0.1300439E+00
        -11   -1    0    0    0    0  0.00000000000E+00  0.00000000000E+00  0.45593999997E+02  0.45594000000E+02  0.51100000000E-03 0. -1.
         11   -1    0    0    0    0 -0.00000000000E+00 -0.00000000000E+00 -0.45593999997E+02  0.45594000000E+02  0.51100000000E-03 0.  1.
    9900012    2    1    2    0    0 -0.39786587898E+02 -0.70394071175E+01 -0.45430943845E+01  0.50528861597E+02  0.30000005309E+02 0.  0.
        -12    1    1    2    0    0  0.39786587898E+02  0.70394071175E+01  0.45430943845E+01  0.40659138403E+02  0.00000000000E+00 0.  1.
         11    1    3    3    0    0 -0.88788484505E+01  0.49576291645E+01 -0.69827687771E+01  0.12335764946E+02  0.51100000000E-03 0. -1.
        -11    1    3    3    0    0 -0.10950366792E+02 -0.38756597915E+00  0.90122446860E+01  0.14187363913E+02  0.51100000000E-03 0.  1.
         12    1    3    3    0    0 -0.19957372656E+02 -0.11609470303E+02 -0.65725702933E+01  0.24005732738E+02  0.00000000000E+00 0. -1.
</event>
<event>
 7    1  0.2584640E-011  0.5052891E+02  0.7816164E-02  0.1300439E+00
        -11   -1    0    0    0    0  0.00000000000E+00  0.00000000000E+00  0.45593999997E+02  0.45594000000E+02  0.51100000000E-03 0. -1.
         11   -1    0    0    0    0 -0.00000000000E+00 -0.00000000000E+00 -0.45593999997E+02  0.45594000000E+02  0.51100000000E-03 0.  1.
    9900012    2    1    2    0    0  0.20047820346E+02 -0.34357507554E+02  0.84147724868E+01  0.50528907266E+02  0.30000144124E+02 0.  0.
        -12    1    1    2    0    0 -0.20047820346E+02  0.34357507554E+02 -0.84147724868E+01  0.40659092734E+02  0.00000000000E+00 0.  1.
         11    1    3    3    0    0  0.66388081605E+01  0.20408283577E+01  0.64716271444E+01  0.94931929473E+01  0.51100000000E-03 0. -1.
        -11    1    3    3    0    0  0.39275394835E+01 -0.36268285397E+01 -0.36383475055E+01  0.64666084220E+01  0.51100000000E-03 0.  1.
         12    1    3    3    0    0  0.94814727024E+01 -0.32771507372E+02  0.55814928479E+01  0.34569105896E+02  0.00000000000E+00 0. -1.
</event>
<event>
 7    1  0.2584640E-011  0.5052881E+02  0.7816164E-02  0.1300439E+00
        -11   -1    0    0    0    0  0.00000000000E+00  0.00000000000E+00  0.45593999997E+02  0.45594000000E+02  0.51100000000E-03 0.  1.
         11   -1    0    0    0    0 -0.00000000000E+00 -0.00000000000E+00 -0.45593999997E+02  0.45594000000E+02  0.51100000000E-03 0. -1.
    9900012    2    1    2    0    0 -0.71566488040E+01  0.38919565113E+02 -0.93391210310E+01  0.50528814662E+02  0.29999862646E+02 0.  0.
        -12    1    1    2    0    0  0.71566488040E+01 -0.38919565113E+02  0.93391210310E+01  0.40659185338E+02  0.00000000000E+00 0.  1.
         11    1    3    3    0    0  0.44674633341E+01  0.51989353140E+01  0.30016905372E+01  0.74831345961E+01  0.51100000000E-03 0. -1.
        -11    1    3    3    0    0 -0.76535339710E+01  0.47283318829E+01  0.36383948244E+01  0.97042063972E+01  0.51100000000E-03 0.  1.
         12    1    3    3    0    0 -0.39705781670E+01  0.28992297917E+02 -0.15979206393E+02  0.33341473669E+02  0.00000000000E+00 0. -1.
</event>
<event>
 7    1  0.2584640E-011  0.5052886E+02  0.7816164E-02  0.1300439E+00
        -11   -1    0    0    0    0  0.00000000000E+00  0.00000000000E+00  0.45593999997E+02  0.45594000000E+02  0.51100000000E-03 0. -1.
         11   -1    0    0    0    0 -0.00000000000E+00 -0.00000000000E+00 -0.45593999997E+02  0.45594000000E+02  0.51100000000E-03 0.  1.
    9900012    2    1    2    0    0 -0.15688565270E+02 -0.33998091144E+02  0.15848164266E+02  0.50528860901E+02  0.30000003194E+02 0.  0.
        -12    1    1    2    0    0  0.15688565270E+02  0.33998091144E+02 -0.15848164266E+02  0.40659139099E+02  0.00000000000E+00 0.  1.
         11    1    3    3    0    0 -0.20631834904E+02 -0.22359211272E+02  0.16848764117E+02  0.34777691021E+02  0.51100000000E-03 0. -1.
        -11    1    3    3    0    0 -0.49500015205E-01  0.13318856234E+01  0.10571506693E+01  0.17011576540E+01  0.51100000000E-03 0.  1.
        -12    1    3    3    0    0  0.49927696501E+01 -0.12970765496E+02 -0.20577505204E+01  0.14050012225E+02  0.00000000000E+00 0.  1.
</event>
<event>
 7    1  0.2584640E-011  0.5052886E+02  0.7816164E-02  0.1300439E+00
        -11   -1    0    0    0    0  0.00000000000E+00  0.00000000000E+00  0.45593999997E+02  0.45594000000E+02  0.51100000000E-03 0.  1.
         11   -1    0    0    0    0 -0.00000000000E+00 -0.00000000000E+00 -0.45593999997E+02  0.45594000000E+02  0.51100000000E-03 0. -1.
    9900012    2    1    2    0    0 -0.26866347281E+02  0.30259657420E+02  0.39646128649E+01  0.50528860332E+02  0.30000001464E+02 0.  0.
        -12    1    1    2    0    0  0.26866347281E+02 -0.30259657420E+02 -0.39646128649E+01  0.40659139668E+02  0.00000000000E+00 0.  1.
         11    1    3    3    0    0 -0.60573655055E+00  0.10794872378E+02  0.57120547185E+01  0.12227990669E+02  0.51100000000E-03 0. -1.
        -11    1    3    3    0    0  0.20863172806E+01  0.52425636552E+01  0.27361197823E+01  0.62708488419E+01  0.51100000000E-03 0.  1.
         12    1    3    3    0    0 -0.28346928011E+02  0.14222221387E+02 -0.44835616359E+01  0.32030020821E+02  0.00000000000E+00 0. -1.
</event>
<event>
 7    1  0.2584640E-011  0.5052887E+02  0.7816164E-02  0.1300439E+00
        -11   -1    0    0    0    0  0.00000000000E+00  0.00000000000E+00  0.45593999997E+02  0.45594000000E+02  0.51100000000E-03 0.  1.
         11   -1    0    0    0    0 -0.00000000000E+00 -0.00000000000E+00 -0.45593999997E+02  0.45594000000E+02  0.51100000000E-03 0. -1.
    9900012    2    1    2    0    0 -0.27052619723E+02 -0.16939021733E+02 -0.25187102292E+02  0.50528870484E+02  0.30000032323E+02 0.  0.
        -12    1    1    2    0    0  0.27052619723E+02  0.16939021733E+02  0.25187102292E+02  0.40659129516E+02  0.00000000000E+00 0.  1.
         11    1    3    3    0    0 -0.32276938813E+01 -0.20894308678E+01 -0.11888153232E+02  0.12494475446E+02  0.51100000000E-03 0. -1.
        -11    1    3    3    0    0  0.30474609230E+01 -0.69381293797E+01 -0.20765279795E+01  0.78572658144E+01  0.51100000000E-03 0.  1.
        -12    1    3    3    0    0 -0.26872386765E+02 -0.79114614850E+01 -0.11222421080E+02  0.30177129224E+02  0.00000000000E+00 0.  1.
</event>
<event>
 7    1  0.2584640E-011  0.5052885E+02  0.7816164E-02  0.1300439E+00
        -11   -1    0    0    0    0  0.00000000000E+00  0.00000000000E+00  0.45593999997E+02  0.45594000000E+02  0.51100000000E-03 0.  1.
         11   -1    0    0    0    0 -0.00000000000E+00 -0.00000000000E+00 -0.45593999997E+02  0.45594000000E+02  0.51100000000E-03 0. -1.
    9900012    2    1    2    0    0  0.22948458086E+02  0.33060522973E+02  0.57910785120E+01  0.50528849762E+02  0.29999969335E+02 0.  0.
        -12    1    1    2    0    0 -0.22948458086E+02 -0.33060522973E+02 -0.57910785120E+01  0.40659150238E+02  0.00000000000E+00 0.  1.
         11    1    3    3    0    0  0.56782633662E+01  0.13525389364E+01  0.62952614843E+01  0.85850075042E+01  0.51100000000E-03 0. -1.
        -11    1    3    3    0    0  0.11679840521E+02  0.45071540589E+01 -0.55933691145E+01  0.13711998054E+02  0.51100000000E-03 0.  1.
         12    1    3    3    0    0  0.55903541986E+01  0.27200829978E+02  0.50891861422E+01  0.28231844204E+02  0.00000000000E+00 0. -1.
</event>
<event>
 7    1  0.2584640E-011  0.5052887E+02  0.7816164E-02  0.1300439E+00
        -11   -1    0    0    0    0  0.00000000000E+00  0.00000000000E+00  0.45593999997E+02  0.45594000000E+02  0.51100000000E-03 0.  1.
         11   -1    0    0    0    0 -0.00000000000E+00 -0.00000000000E+00 -0.45593999997E+02  0.45594000000E+02  0.51100000000E-03 0. -1.
    9900012    2    1    2    0    0  0.23737413484E+02 -0.29794627348E+02 -0.14211988968E+02  0.50528865133E+02  0.30000016059E+02 0.  0.
        -12    1    1    2    0    0 -0.23737413484E+02  0.29794627348E+02  0.14211988968E+02  0.40659134867E+02  0.00000000000E+00 0.  1.
         11    1    3    3    0    0  0.20146021094E+01 -0.10558753192E+01 -0.62907143457E+01  0.66892885712E+01  0.51100000000E-03 0. -1.
        -11    1    3    3    0    0 -0.30848612942E+01 -0.13371867878E+02 -0.45809361542E+01  0.14467487552E+02  0.51100000000E-03 0.  1.
        -12    1    3    3    0    0  0.24807672669E+02 -0.15366884150E+02 -0.33403384680E+01  0.29372089010E+02  0.00000000000E+00 0.  1.
</event>
<event>
 7    1  0.2584640E-011  0.5052886E+02  0.7816164E-02  0.1300439E+00
        -11   -1    0    0    0    0  0.00000000000E+00  0.00000000000E+00  0.45593999997E+02  0.45594000000E+02  0.51100000000E-03 0. -1.
         11   -1    0    0    0    0 -0.00000000000E+00 -0.00000000000E+00 -0.45593999997E+02  0.45594000000E+02  0.51100000000E-03 0.  1.
    9900012    2    1    2    0    0  0.28272817542E+02  0.25999664075E+02 -0.13335334297E+02  0.50528857307E+02  0.29999992269E+02 0.  0.
        -12    1    1    2    0    0 -0.28272817542E+02 -0.25999664075E+02  0.13335334297E+02  0.40659142693E+02  0.00000000000E+00 0.  1.
         11    1    3    3    0    0  0.73300240513E+01 -0.26305112638E+01 -0.25577638147E+01  0.81970115344E+01  0.51100000000E-03 0. -1.
        -11    1    3    3    0    0  0.45224250690E+01  0.35004947085E+01  0.57114750456E+01  0.80824958501E+01  0.51100000000E-03 0.  1.
         12    1    3    3    0    0  0.16420368422E+02  0.25129680630E+02 -0.16489045528E+02  0.34249349922E+02  0.00000000000E+00 0. -1.
</event>
<event>
 7    1  0.2584640E-011  0.5052885E+02  0.7816164E-02  0.1300439E+00
        -11   -1    0    0    0    0  0.00000000000E+00  0.00000000000E+00  0.45593999997E+02  0.45594000000E+02  0.51100000000E-03 0.  1.
         11   -1    0    0    0    0 -0.00000000000E+00 -0.00000000000E+00 -0.45593999997E+02  0.45594000000E+02  0.51100000000E-03 0. -1.
    9900012    2    1    2    0    0 -0.22055918012E+01 -0.40165064883E+02 -0.59219321123E+01  0.50528851556E+02  0.29999974788E+02 0.  0.
        -12    1    1    2    0    0  0.22055918012E+01  0.40165064883E+02  0.59219321123E+01  0.40659148444E+02  0.00000000000E+00 0.  1.
         11    1    3    3    0    0 -0.51765647593E+00 -0.17552069814E+02 -0.30876194694E+01  0.17829091879E+02  0.51100000000E-03 0. -1.
        -11    1    3    3    0    0 -0.50242402774E+01 -0.25663682403E+02 -0.64225736694E+01  0.26927997283E+02  0.51100000000E-03 0.  1.
        -12    1    3    3    0    0  0.33363049521E+01  0.30506873335E+01  0.35882610264E+01  0.57717623941E+01  0.00000000000E+00 0.  1.
</event>
<event>
 7    1  0.2584640E-011  0.5052874E+02  0.7816164E-02  0.1300439E+00
        -11   -1    0    0    0    0  0.00000000000E+00  0.00000000000E+00  0.45593999997E+02  0.45594000000E+02  0.51100000000E-03 0. -1.
         11   -1    0    0    0    0 -0.00000000000E+00 -0.00000000000E+00 -0.45593999997E+02  0.45594000000E+02  0.51100000000E-03 0.  1.
    9900012    2    1    2    0    0  0.85520277156E+01  0.13946790583E+02  0.37222642360E+02  0.50528742138E+02  0.29999642201E+02 0.  0.
        -12    1    1    2    0    0 -0.85520277156E+01 -0.13946790583E+02 -0.37222642360E+02  0.40659257862E+02  0.00000000000E+00 0.  1.
         11    1    3    3    0    0 -0.71086999962E+01 -0.19810456942E+00  0.75291894238E+01  0.10356715440E+02  0.51100000000E-03 0. -1.
        -11    1    3    3    0    0  0.27641257602E+01  0.75686974382E+01  0.11126951946E+01  0.81341049284E+01  0.51100000000E-03 0.  1.
         12    1    3    3    0    0  0.12896601952E+02  0.65761977146E+01  0.28580757741E+02  0.32037921770E+02  0.00000000000E+00 0. -1.
</event>
<event>
 7    1  0.2584640E-011  0.5052885E+02  0.7816164E-02  0.1300439E+00
        -11   -1    0    0    0    0  0.00000000000E+00  0.00000000000E+00  0.45593999997E+02  0.45594000000E+02  0.51100000000E-03 0.  1.
         11   -1    0    0    0    0 -0.00000000000E+00 -0.00000000000E+00 -0.45593999997E+02  0.45594000000E+02  0.51100000000E-03 0. -1.
    9900012    2    1    2    0    0  0.17694538199E+02 -0.19756604836E+02 -0.30817953803E+02  0.50528851050E+02  0.29999973252E+02 0.  0.
        -12    1    1    2    0    0 -0.17694538199E+02  0.19756604836E+02  0.30817953803E+02  0.40659148950E+02  0.00000000000E+00 0.  1.
         11    1    3    3    0    0  0.81308220999E+01 -0.10577228951E+02 -0.29731716673E+02  0.32587774041E+02  0.51100000000E-03 0.  1.
        -11    1    3    3    0    0  0.90652391674E+01 -0.64825392104E+01 -0.57425754037E+01  0.12537106855E+02  0.51100000000E-03 0. -1.
        -12    1    3    3    0    0  0.49847693207E+00 -0.26968366745E+01  0.46563382745E+01  0.54039701541E+01  0.00000000000E+00 0.  1.
</event>
<event>
 7    1  0.2584640E-011  0.5052886E+02  0.7816164E-02  0.1300439E+00
        -11   -1    0    0    0    0  0.00000000000E+00  0.00000000000E+00  0.45593999997E+02  0.45594000000E+02  0.51100000000E-03 0. -1.
         11   -1    0    0    0    0 -0.00000000000E+00 -0.00000000000E+00 -0.45593999997E+02  0.45594000000E+02  0.51100000000E-03 0.  1.
    9900012    2    1    2    0    0 -0.22395855559E+02  0.31516698578E+02  0.12581290222E+02  0.50528862046E+02  0.30000006675E+02 0.  0.
        -12    1    1    2    0    0  0.22395855559E+02 -0.31516698578E+02 -0.12581290222E+02  0.40659137954E+02  0.00000000000E+00 0.  1.
         11    1    3    3    0    0 -0.12428220496E+01  0.11901600789E+01  0.91696825578E+01  0.93297463059E+01  0.51100000000E-03 0. -1.
        -11    1    3    3    0    0 -0.79455411108E+00  0.13056520803E+02  0.59726275197E+01  0.14379719450E+02  0.51100000000E-03 0.  1.
        -12    1    3    3    0    0 -0.20358479399E+02  0.17270017696E+02 -0.25610198558E+01  0.26819396290E+02  0.00000000000E+00 0.  1.
</event>
<event>
 7    1  0.2584640E-011  0.5052885E+02  0.7816164E-02  0.1300439E+00
        -11   -1    0    0    0    0  0.00000000000E+00  0.00000000000E+00  0.45593999997E+02  0.45594000000E+02  0.51100000000E-03 0.  1.
         11   -1    0    0    0    0 -0.00000000000E+00 -0.00000000000E+00 -0.45593999997E+02  0.45594000000E+02  0.51100000000E-03 0. -1.
    9900012    2    1    2    0    0 -0.11059231183E+02  0.19311214865E+02 -0.34028472269E+02  0.50528849260E+02  0.29999967810E+02 0.  0.
        -12    1    1    2    0    0  0.11059231183E+02 -0.19311214865E+02  0.34028472269E+02  0.40659150740E+02  0.00000000000E+00 0.  1.
         11    1    3    3    0    0  0.36396451698E+01  0.12414724033E+01  0.83531094045E+00  0.39352274799E+01  0.51100000000E-03 0. -1.
        -11    1    3    3    0    0  0.13871755085E+00 -0.32437306040E+01 -0.10477722636E+02  0.10969216139E+02  0.51100000000E-03 0.  1.
         12    1    3    3    0    0 -0.14837593904E+02  0.21313473066E+02 -0.24386060574E+02  0.35624405641E+02  0.00000000000E+00 0. -1.
</event>
<event>
 7    1  0.2584640E-011  0.5052886E+02  0.7816164E-02  0.1300439E+00
        -11   -1    0    0    0    0  0.00000000000E+00  0.00000000000E+00  0.45593999997E+02  0.45594000000E+02  0.51100000000E-03 0. -1.
         11   -1    0    0    0    0 -0.00000000000E+00 -0.00000000000E+00 -0.45593999997E+02  0.45594000000E+02  0.51100000000E-03 0.  1.
    9900012    2    1    2    0    0 -0.24182404815E+02  0.49072302006E+01  0.32315570746E+02  0.50528859287E+02  0.29999998289E+02 0.  0.
        -12    1    1    2    0    0  0.24182404815E+02 -0.49072302006E+01 -0.32315570746E+02  0.40659140713E+02  0.00000000000E+00 0.  1.
         11    1    3    3    0    0 -0.94894223978E+01 -0.17420022817E+01 -0.42184178488E+01  0.10529898328E+02  0.51100000000E-03 0.  1.
        -11    1    3    3    0    0 -0.38679678796E+01  0.13084762868E+01  0.11579769616E+02  0.12278613535E+02  0.51100000000E-03 0. -1.
        -12    1    3    3    0    0 -0.10825014537E+02  0.53407561955E+01  0.24954218979E+02  0.27720347424E+02  0.00000000000E+00 0.  1.
</event>
<event>
 7    1  0.2584640E-011  0.5052886E+02  0.7816164E-02  0.1300439E+00
        -11   -1    0    0    0    0  0.00000000000E+00  0.00000000000E+00  0.45593999997E+02  0.45594000000E+02  0.51100000000E-03 0. -1.
         11   -1    0    0    0    0 -0.00000000000E+00 -0.00000000000E+00 -0.45593999997E+02  0.45594000000E+02  0.51100000000E-03 0.  1.
    9900012    2    1    2    0    0 -0.28559604965E+02  0.18285629804E+02  0.22431016548E+02  0.50528858390E+02  0.29999995563E+02 0.  0.
        -12    1    1    2    0    0  0.28559604965E+02 -0.18285629804E+02 -0.22431016548E+02  0.40659141610E+02  0.00000000000E+00 0.  1.
         11    1    3    3    0    0 -0.13704905614E+02  0.16807990915E+02  0.17892871005E+02  0.28115615404E+02  0.51100000000E-03 0. -1.
        -11    1    3    3    0    0 -0.69513899409E-01  0.47271131187E+01 -0.29003089262E+01  0.55463702318E+01  0.51100000000E-03 0.  1.
        -12    1    3    3    0    0 -0.14785185451E+02 -0.32494742302E+01  0.74384544692E+01  0.16866872754E+02  0.00000000000E+00 0.  1.
</event>
<event>
 7    1  0.2584640E-011  0.5052885E+02  0.7816164E-02  0.1300439E+00
        -11   -1    0    0    0    0  0.00000000000E+00  0.00000000000E+00  0.45593999997E+02  0.45594000000E+02  0.51100000000E-03 0. -1.
         11   -1    0    0    0    0 -0.00000000000E+00 -0.00000000000E+00 -0.45593999997E+02  0.45594000000E+02  0.51100000000E-03 0.  1.
    9900012    2    1    2    0    0 -0.75722588815E+01  0.37794967850E+02  0.12937080397E+02  0.50528846682E+02  0.29999959973E+02 0.  0.
        -12    1    1    2    0    0  0.75722588815E+01 -0.37794967850E+02 -0.12937080397E+02  0.40659153318E+02  0.00000000000E+00 0.  1.
         11    1    3    3    0    0 -0.37833512745E+01  0.34624035496E+02  0.19250157797E+02  0.39795805763E+02  0.51100000000E-03 0. -1.
        -11    1    3    3    0    0 -0.51913509003E+01  0.29810107984E+01 -0.21908974267E+01  0.63746828428E+01  0.51100000000E-03 0.  1.
        -12    1    3    3    0    0  0.14024432934E+01  0.18992155608E+00 -0.41221799726E+01  0.43583580756E+01  0.00000000000E+00 0.  1.
</event>
<event>
 7    1  0.2584640E-011  0.5052893E+02  0.7816164E-02  0.1300439E+00
        -11   -1    0    0    0    0  0.00000000000E+00  0.00000000000E+00  0.45593999997E+02  0.45594000000E+02  0.51100000000E-03 0.  1.
         11   -1    0    0    0    0 -0.00000000000E+00 -0.00000000000E+00 -0.45593999997E+02  0.45594000000E+02  0.51100000000E-03 0. -1.
    9900012    2    1    2    0    0  0.26550419310E+02 -0.14179670066E+02 -0.27334444318E+02  0.50528933915E+02  0.30000225129E+02 0.  0.
        -12    1    1    2    0    0 -0.26550419310E+02  0.14179670066E+02  0.27334444318E+02  0.40659066085E+02  0.00000000000E+00 0.  1.
         11    1    3    3    0    0  0.16995737101E+01 -0.12208546160E+01  0.23975134121E+01  0.31823116773E+01  0.51100000000E-03 0. -1.
        -11    1    3    3    0    0  0.15026972103E+02  0.42186816799E+01 -0.19781252340E+02  0.25197323471E+02  0.51100000000E-03 0.  1.
         12    1    3    3    0    0  0.98238734970E+01 -0.17177497130E+02 -0.99507053897E+01  0.22149298767E+02  0.00000000000E+00 0. -1.
</event>
<event>
 7    1  0.2584640E-011  0.5052885E+02  0.7816164E-02  0.1300439E+00
        -11   -1    0    0    0    0  0.00000000000E+00  0.00000000000E+00  0.45593999997E+02  0.45594000000E+02  0.51100000000E-03 0. -1.
         11   -1    0    0    0    0 -0.00000000000E+00 -0.00000000000E+00 -0.45593999997E+02  0.45594000000E+02  0.51100000000E-03 0.  1.
    9900012    2    1    2    0    0 -0.33214659458E+02 -0.11759717981E+02  0.20289450715E+02  0.50528851212E+02  0.29999973743E+02 0.  0.
        -12    1    1    2    0    0  0.33214659458E+02  0.11759717981E+02 -0.20289450715E+02  0.40659148788E+02  0.00000000000E+00 0.  1.
         11    1    3    3    0    0 -0.51540908629E+01  0.39904704133E+01 -0.18028307780E-01  0.65183458043E+01  0.51100000000E-03 0.  1.
        -11    1    3    3    0    0  0.14265929706E+01 -0.79417546460E+01  0.71846960607E+01  0.10804003522E+02  0.51100000000E-03 0. -1.
         12    1    3    3    0    0 -0.29487161565E+02 -0.78084337487E+01  0.13122782962E+02  0.33206501885E+02  0.00000000000E+00 0. -1.
</event>
<event>
 7    1  0.2584640E-011  0.5052893E+02  0.7816164E-02  0.1300439E+00
        -11   -1    0    0    0    0  0.00000000000E+00  0.00000000000E+00  0.45593999997E+02  0.45594000000E+02  0.51100000000E-03 0.  1.
         11   -1    0    0    0    0 -0.00000000000E+00 -0.00000000000E+00 -0.45593999997E+02  0.45594000000E+02  0.51100000000E-03 0. -1.
    9900012    2    1    2    0    0 -0.26148256043E+02 -0.14734120976E+02 -0.27428720137E+02  0.50528925941E+02  0.30000200888E+02 0.  0.
        -12    1    1    2    0    0  0.26148256043E+02  0.14734120976E+02  0.27428720137E+02  0.40659074059E+02  0.00000000000E+00 0.  1.
         11    1    3    3    0    0 -0.16307997590E+02 -0.12710640337E+02 -0.12771867084E+02  0.24302916537E+02  0.51100000000E-03 0. -1.
        -11    1    3    3    0    0 -0.98294159887E+01 -0.93177926333E+01 -0.12941113426E+02  0.18732621151E+02  0.51100000000E-03 0.  1.
        -12    1    3    3    0    0 -0.10842464664E-01  0.72943119940E+01 -0.17157396274E+01  0.74933882520E+01  0.00000000000E+00 0.  1.
</event>
<event>
 7    1  0.2584640E-011  0.5052894E+02  0.7816164E-02  0.1300438E+00
        -11   -1    0    0    0    0  0.00000000000E+00  0.00000000000E+00  0.45593999997E+02  0.45594000000E+02  0.51100000000E-03 0.  1.
         11   -1    0    0    0    0 -0.00000000000E+00 -0.00000000000E+00 -0.45593999997E+02  0.45594000000E+02  0.51100000000E-03 0. -1.
    9900012    2    1    2    0    0  0.22172534505E+02 -0.29778731139E+02 -0.16576030907E+02  0.50528943010E+02  0.30000252774E+02 0.  0.
        -12    1    1    2    0    0 -0.22172534505E+02  0.29778731139E+02  0.16576030907E+02  0.40659056990E+02  0.00000000000E+00 0.  1.
         11    1    3    3    0    0  0.13100071469E+02 -0.11620070948E+02 -0.12591765648E+01  0.17556293664E+02  0.51100000000E-03 0. -1.
        -11    1    3    3    0    0  0.13097999122E+02 -0.53467941699E+01 -0.13253633729E+02  0.19385680184E+02  0.51100000000E-03 0.  1.
         12    1    3    3    0    0 -0.40255360863E+01 -0.12811866021E+02 -0.20632206131E+01  0.13586969163E+02  0.00000000000E+00 0. -1.
</event>
<event>
 7    1  0.2584640E-011  0.5052888E+02  0.7816164E-02  0.1300439E+00
        -11   -1    0    0    0    0  0.00000000000E+00  0.00000000000E+00  0.45593999997E+02  0.45594000000E+02  0.51100000000E-03 0.  1.
         11   -1    0    0    0    0 -0.00000000000E+00 -0.00000000000E+00 -0.45593999997E+02  0.45594000000E+02  0.51100000000E-03 0. -1.
    9900012    2    1    2    0    0  0.21770763574E+02 -0.92302498820E+01 -0.33075682599E+02  0.50528875084E+02  0.30000046306E+02 0.  0.
        -12    1    1    2    0    0 -0.21770763574E+02  0.92302498820E+01  0.33075682599E+02  0.40659124916E+02  0.00000000000E+00 0.  1.
         11    1    3    3    0    0 -0.20851911089E+01 -0.12909568701E+01 -0.22258618746E+01  0.33119560605E+01  0.51100000000E-03 0.  1.
        -11    1    3    3    0    0  0.14350592220E+02  0.36907866257E+01 -0.28351617013E+02  0.31990242114E+02  0.51100000000E-03 0. -1.
         12    1    3    3    0    0  0.95053624630E+01 -0.11630079638E+02 -0.24982037118E+01  0.15226676910E+02  0.00000000000E+00 0. -1.
</event>
<event>
 7    1  0.2584640E-011  0.5052886E+02  0.7816164E-02  0.1300439E+00
        -11   -1    0    0    0    0  0.00000000000E+00  0.00000000000E+00  0.45593999997E+02  0.45594000000E+02  0.51100000000E-03 0. -1.
         11   -1    0    0    0    0 -0.00000000000E+00 -0.00000000000E+00 -0.45593999997E+02  0.45594000000E+02  0.51100000000E-03 0.  1.
    9900012    2    1    2    0    0 -0.24369725178E+02 -0.28613842154E+02  0.15509028611E+02  0.50528862816E+02  0.30000009016E+02 0.  0.
        -12    1    1    2    0    0  0.24369725178E+02  0.28613842154E+02 -0.15509028611E+02  0.40659137184E+02  0.00000000000E+00 0.  1.
         11    1    3    3    0    0 -0.13405184451E+02 -0.88292583934E+01  0.32753276442E+01  0.16382385217E+02  0.51100000000E-03 0. -1.
        -11    1    3    3    0    0 -0.69017935437E+01 -0.23470129274E+02  0.48365410776E+01  0.24937398664E+02  0.51100000000E-03 0.  1.
        -12    1    3    3    0    0 -0.40627471829E+01  0.36855455136E+01  0.73971598895E+01  0.92090789353E+01  0.00000000000E+00 0.  1.
</event>
<event>
 7    1  0.2584640E-011  0.5052886E+02  0.7816164E-02  0.1300439E+00
        -11   -1    0    0    0    0  0.00000000000E+00  0.00000000000E+00  0.45593999997E+02  0.45594000000E+02  0.51100000000E-03 0. -1.
         11   -1    0    0    0    0 -0.00000000000E+00 -0.00000000000E+00 -0.45593999997E+02  0.45594000000E+02  0.51100000000E-03 0.  1.
    9900012    2    1    2    0    0 -0.36396089214E+02 -0.15532242174E+02  0.93402267056E+01  0.50528859676E+02  0.29999999471E+02 0.  0.
        -12    1    1    2    0    0  0.36396089214E+02  0.15532242174E+02 -0.93402267056E+01  0.40659140324E+02  0.00000000000E+00 0.  1.
         11    1    3    3    0    0 -0.39547348626E+01 -0.77396973495E+01  0.64130372469E+01  0.10801383702E+02  0.51100000000E-03 0.  1.
        -11    1    3    3    0    0 -0.32336713294E+02 -0.87641399187E+01 -0.30769540869E+01  0.33644328228E+02  0.51100000000E-03 0. -1.
         12    1    3    3    0    0 -0.10464105693E+00  0.97159509463E+00  0.60041435457E+01  0.60831477457E+01  0.00000000000E+00 0. -1.
</event>
<event>
 7    1  0.2584640E-011  0.5052887E+02  0.7816164E-02  0.1300439E+00
        -11   -1    0    0    0    0  0.00000000000E+00  0.00000000000E+00  0.45593999997E+02  0.45594000000E+02  0.51100000000E-03 0.  1.
         11   -1    0    0    0    0 -0.00000000000E+00 -0.00000000000E+00 -0.45593999997E+02  0.45594000000E+02  0.51100000000E-03 0. -1.
    9900012    2    1    2    0    0  0.75446272166E+01  0.19988478423E+02 -0.34593415910E+02  0.50528867030E+02  0.30000021826E+02 0.  0.
        -12    1    1    2    0    0 -0.75446272166E+01 -0.19988478423E+02  0.34593415910E+02  0.40659132970E+02  0.00000000000E+00 0.  1.
         11    1    3    3    0    0  0.11089972218E+02  0.22660218655E+02 -0.18205202092E+02  0.31111129468E+02  0.51100000000E-03 0. -1.
        -11    1    3    3    0    0  0.30462040014E+01 -0.36339385133E+00 -0.75757788829E+01  0.81733616005E+01  0.51100000000E-03 0.  1.
         12    1    3    3    0    0 -0.65915490032E+01 -0.23083463813E+01 -0.88124349359E+01  0.11244375962E+02  0.00000000000E+00 0. -1.
</event>
<event>
 7    1  0.2584640E-011  0.5052886E+02  0.7816164E-02  0.1300439E+00
        -11   -1    0    0    0    0  0.00000000000E+00  0.00000000000E+00  0.45593999997E+02  0.45594000000E+02  0.51100000000E-03 0.  1.
         11   -1    0    0    0    0 -0.00000000000E+00 -0.00000000000E+00 -0.45593999997E+02  0.45594000000E+02  0.51100000000E-03 0. -1.
    9900012    2    1    2    0    0  0.21263326509E+02  0.10022066750E+02 -0.33175212120E+02  0.50528861109E+02  0.30000003826E+02 0.  0.
        -12    1    1    2    0    0 -0.21263326509E+02 -0.10022066750E+02  0.33175212120E+02  0.40659138891E+02  0.00000000000E+00 0.  1.
         11    1    3    3    0    0  0.54515904599E+01  0.10072955763E+02 -0.10694691405E+02  0.15670376538E+02  0.51100000000E-03 0. -1.
        -11    1    3    3    0    0  0.12447075196E+01  0.30420173632E+01 -0.19368025119E+02  0.19644937355E+02  0.51100000000E-03 0.  1.
        -12    1    3    3    0    0  0.14567028529E+02 -0.30929063762E+01 -0.31124955971E+01  0.15213547215E+02  0.00000000000E+00 0.  1.
</event>
<event>
 7    1  0.2584640E-011  0.5052884E+02  0.7816164E-02  0.1300439E+00
        -11   -1    0    0    0    0  0.00000000000E+00  0.00000000000E+00  0.45593999997E+02  0.45594000000E+02  0.51100000000E-03 0.  1.
         11   -1    0    0    0    0 -0.00000000000E+00 -0.00000000000E+00 -0.45593999997E+02  0.45594000000E+02  0.51100000000E-03 0. -1.
    9900012    2    1    2    0    0  0.25821916036E+02  0.31404384759E+02 -0.40055558417E+00  0.50528841442E+02  0.29999944046E+02 0.  0.
        -12    1    1    2    0    0 -0.25821916036E+02 -0.31404384759E+02  0.40055558417E+00  0.40659158558E+02  0.00000000000E+00 0.  1.
         11    1    3    3    0    0 -0.17720439869E+01  0.25365343559E+01 -0.68700606853E+01  0.75347117072E+01  0.51100000000E-03 0. -1.
        -11    1    3    3    0    0  0.17394518301E+01  0.20460810336E+01  0.50421761924E+01  0.57127647668E+01  0.51100000000E-03 0.  1.
         12    1    3    3    0    0  0.25854508193E+02  0.26821769370E+02  0.14273289087E+01  0.37281364968E+02  0.00000000000E+00 0. -1.
</event>
<event>
 7    1  0.2584640E-011  0.5052874E+02  0.7816164E-02  0.1300439E+00
        -11   -1    0    0    0    0  0.00000000000E+00  0.00000000000E+00  0.45593999997E+02  0.45594000000E+02  0.51100000000E-03 0.  1.
         11   -1    0    0    0    0 -0.00000000000E+00 -0.00000000000E+00 -0.45593999997E+02  0.45594000000E+02  0.51100000000E-03 0. -1.
    9900012    2    1    2    0    0 -0.22598953645E+02 -0.16787788294E+02 -0.29336541196E+02  0.50528742862E+02  0.29999644400E+02 0.  0.
        -12    1    1    2    0    0  0.22598953645E+02  0.16787788294E+02  0.29336541196E+02  0.40659257138E+02  0.00000000000E+00 0.  1.
         11    1    3    3    0    0 -0.15653880081E+01  0.48205478343E+01 -0.40854312848E+00  0.50847840453E+01  0.51100000000E-03 0. -1.
        -11    1    3    3    0    0 -0.19014448964E+01  0.18056824861E+01  0.10876869716E+01  0.28388457415E+01  0.51100000000E-03 0.  1.
         12    1    3    3    0    0 -0.19132120741E+02 -0.23414018615E+02 -0.30015685039E+02  0.42605113075E+02  0.00000000000E+00 0. -1.
</event>
<event>
 7    1  0.2584640E-011  0.5052886E+02  0.7816164E-02  0.1300439E+00
        -11   -1    0    0    0    0  0.00000000000E+00  0.00000000000E+00  0.45593999997E+02  0.45594000000E+02  0.51100000000E-03 0. -1.
         11   -1    0    0    0    0 -0.00000000000E+00 -0.00000000000E+00 -0.45593999997E+02  0.45594000000E+02  0.51100000000E-03 0.  1.
    9900012    2    1    2    0    0 -0.80841697627E+01 -0.39576538964E+02 -0.46378323075E+01  0.50528859261E+02  0.29999998210E+02 0.  0.
        -12    1    1    2    0    0  0.80841697627E+01  0.39576538964E+02  0.46378323075E+01  0.40659140739E+02  0.00000000000E+00 0.  1.
         11    1    3    3    0    0 -0.82104957802E+00  0.15500483468E+00 -0.12822401535E+01  0.15304538479E+01  0.51100000000E-03 0. -1.
        -11    1    3    3    0    0  0.85747806225E+01 -0.58158830438E+01 -0.50550261137E+01  0.11528427801E+02  0.51100000000E-03 0.  1.
         12    1    3    3    0    0 -0.15837900807E+02 -0.33915660755E+02  0.16994339596E+01  0.37469977612E+02  0.00000000000E+00 0. -1.
</event>
<event>
 7    1  0.2584640E-011  0.5052885E+02  0.7816164E-02  0.1300439E+00
        -11   -1    0    0    0    0  0.00000000000E+00  0.00000000000E+00  0.45593999997E+02  0.45594000000E+02  0.51100000000E-03 0.  1.
         11   -1    0    0    0    0 -0.00000000000E+00 -0.00000000000E+00 -0.45593999997E+02  0.45594000000E+02  0.51100000000E-03 0. -1.
    9900012    2    1    2    0    0 -0.10628065122E+00 -0.34216284409E+02 -0.21963633039E+02  0.50528848624E+02  0.29999965878E+02 0.  0.
        -12    1    1    2    0    0  0.10628065122E+00  0.34216284409E+02  0.21963633039E+02  0.40659151376E+02  0.00000000000E+00 0.  1.
         11    1    3    3    0    0 -0.27846355823E-01 -0.47835261608E+00 -0.45547258325E+01  0.45798607310E+01  0.51100000000E-03 0. -1.
        -11    1    3    3    0    0 -0.11532595289E+02 -0.10640766160E+02 -0.11620221691E+02  0.19525783236E+02  0.51100000000E-03 0.  1.
         12    1    3    3    0    0  0.11454160994E+02 -0.23097165633E+02 -0.57886855154E+01  0.26423204657E+02  0.00000000000E+00 0. -1.
</event>
<event>
 7    1  0.2584640E-011  0.5052887E+02  0.7816164E-02  0.1300439E+00
        -11   -1    0    0    0    0  0.00000000000E+00  0.00000000000E+00  0.45593999997E+02  0.45594000000E+02  0.51100000000E-03 0.  1.
         11   -1    0    0    0    0 -0.00000000000E+00 -0.00000000000E+00 -0.45593999997E+02  0.45594000000E+02  0.51100000000E-03 0. -1.
    9900012    2    1    2    0    0 -0.51064276486E+00 -0.23239359265E+02 -0.33359205893E+02  0.50528865812E+02  0.30000018124E+02 0.  0.
        -12    1    1    2    0    0  0.51064276486E+00  0.23239359265E+02  0.33359205893E+02  0.40659134188E+02  0.00000000000E+00 0.  1.
         11    1    3    3    0    0 -0.50049481360E+01 -0.40995799236E+01 -0.17061894108E+02  0.18247309177E+02  0.51100000000E-03 0. -1.
        -11    1    3    3    0    0 -0.28815457530E+01  0.81014827676E+00 -0.94871505854E+01  0.99481492072E+01  0.51100000000E-03 0.  1.
         12    1    3    3    0    0  0.73758511241E+01 -0.19949927618E+02 -0.68101611989E+01  0.22333407428E+02  0.00000000000E+00 0. -1.
</event>
<event>
 7    1  0.2584640E-011  0.5052886E+02  0.7816164E-02  0.1300439E+00
        -11   -1    0    0    0    0  0.00000000000E+00  0.00000000000E+00  0.45593999997E+02  0.45594000000E+02  0.51100000000E-03 0. -1.
         11   -1    0    0    0    0 -0.00000000000E+00 -0.00000000000E+00 -0.45593999997E+02  0.45594000000E+02  0.51100000000E-03 0.  1.
    9900012    2    1    2    0    0  0.14451945634E+02 -0.35863317640E+02 -0.12574936573E+02  0.50528864316E+02  0.30000013574E+02 0.  0.
        -12    1    1    2    0    0 -0.14451945634E+02  0.35863317640E+02  0.12574936573E+02  0.40659135684E+02  0.00000000000E+00 0.  1.
         11    1    3    3    0    0  0.56921543356E+01 -0.13643520878E+02  0.14343153406E+01  0.14852728493E+02  0.51100000000E-03 0.  1.
        -11    1    3    3    0    0 -0.28789268411E+00 -0.23544078879E+02 -0.86952262101E+01  0.25100069553E+02  0.51100000000E-03 0. -1.
        -12    1    3    3    0    0  0.90476839821E+01  0.13242821166E+01 -0.53140257034E+01  0.10576066270E+02  0.00000000000E+00 0.  1.
</event>
<event>
 7    1  0.2584640E-011  0.5052886E+02  0.7816164E-02  0.1300439E+00
        -11   -1    0    0    0    0  0.00000000000E+00  0.00000000000E+00  0.45593999997E+02  0.45594000000E+02  0.51100000000E-03 0. -1.
         11   -1    0    0    0    0 -0.00000000000E+00 -0.00000000000E+00 -0.45593999997E+02  0.45594000000E+02  0.51100000000E-03 0.  1.
    9900012    2    1    2    0    0 -0.26847738777E+02 -0.38635664749E+01  0.30289229093E+02  0.50528860530E+02  0.30000002069E+02 0.  0.
        -12    1    1    2    0    0  0.26847738777E+02  0.38635664749E+01 -0.30289229093E+02  0.40659139470E+02  0.00000000000E+00 0.  1.
         11    1    3    3    0    0 -0.19809605834E+02  0.13116964569E+01  0.91000716715E+01  0.21839238439E+02  0.51100000000E-03 0. -1.
        -11    1    3    3    0    0  0.10395456715E+01  0.51710288230E+01  0.24629806779E+01  0.58212084976E+01  0.51100000000E-03 0.  1.
         12    1    3    3    0    0 -0.80776786142E+01 -0.10346291755E+02  0.18726176744E+02  0.22868413594E+02  0.00000000000E+00 0. -1.
</event>
<event>
 7    1  0.2584640E-011  0.5052885E+02  0.7816164E-02  0.1300439E+00
        -11   -1    0    0    0    0  0.00000000000E+00  0.00000000000E+00  0.45593999997E+02  0.45594000000E+02  0.51100000000E-03 0.  1.
         11   -1    0    0    0    0 -0.00000000000E+00 -0.00000000000E+00 -0.45593999997E+02  0.45594000000E+02  0.51100000000E-03 0. -1.
    9900012    2    1    2    0    0 -0.32029479212E+02  0.79135610910E+01 -0.23762460045E+02  0.50528849798E+02  0.29999969447E+02 0.  0.
        -12    1    1    2    0    0  0.32029479212E+02 -0.79135610910E+01  0.23762460045E+02  0.40659150202E+02  0.00000000000E+00 0.  1.
         11    1    3    3    0    0 -0.11496591025E+02  0.12710711974E+02 -0.78691486414E+01  0.18858878670E+02  0.51100000000E-03 0. -1.
        -11    1    3    3    0    0 -0.21633807545E+01 -0.37842504948E+01  0.30058739244E+01  0.52949075919E+01  0.51100000000E-03 0.  1.
         12    1    3    3    0    0 -0.18369507432E+02 -0.10129003878E+01 -0.18899185328E+02  0.26375063537E+02  0.00000000000E+00 0. -1.
</event>
<event>
 7    1  0.2584640E-011  0.5052886E+02  0.7816164E-02  0.1300439E+00
        -11   -1    0    0    0    0  0.00000000000E+00  0.00000000000E+00  0.45593999997E+02  0.45594000000E+02  0.51100000000E-03 0.  1.
         11   -1    0    0    0    0 -0.00000000000E+00 -0.00000000000E+00 -0.45593999997E+02  0.45594000000E+02  0.51100000000E-03 0. -1.
    9900012    2    1    2    0    0  0.39348107789E+02  0.71951527144E+01  0.72884852158E+01  0.50528858028E+02  0.29999994462E+02 0.  0.
        -12    1    1    2    0    0 -0.39348107789E+02 -0.71951527144E+01 -0.72884852158E+01  0.40659141972E+02  0.00000000000E+00 0.  1.
         11    1    3    3    0    0  0.31154007916E+02 -0.19676389424E+00  0.49174847963E+01  0.31540332627E+02  0.51100000000E-03 0.  1.
        -11    1    3    3    0    0  0.12361035037E+02  0.29323945481E+01  0.10781688280E+01  0.12749767576E+02  0.51100000000E-03 0. -1.
        -12    1    3    3    0    0 -0.41669351639E+01  0.44595220605E+01  0.12928315915E+01  0.62387578245E+01  0.00000000000E+00 0.  1.
</event>
<event>
 7    1  0.2584640E-011  0.5052884E+02  0.7816164E-02  0.1300439E+00
        -11   -1    0    0    0    0  0.00000000000E+00  0.00000000000E+00  0.45593999997E+02  0.45594000000E+02  0.51100000000E-03 0.  1.
         11   -1    0    0    0    0 -0.00000000000E+00 -0.00000000000E+00 -0.45593999997E+02  0.45594000000E+02  0.51100000000E-03 0. -1.
    9900012    2    1    2    0    0  0.36958989615E+02  0.16343240405E+02  0.44831368880E+01  0.50528844369E+02  0.29999952944E+02 0.  0.
        -12    1    1    2    0    0 -0.36958989615E+02 -0.16343240405E+02 -0.44831368880E+01  0.40659155631E+02  0.00000000000E+00 0.  1.
         11    1    3    3    0    0  0.10167519886E+02  0.10813296478E+02 -0.96112047078E+00  0.14873788830E+02  0.51100000000E-03 0. -1.
        -11    1    3    3    0    0  0.39520968021E+01  0.28919008508E+01 -0.77345591596E+01  0.91545379631E+01  0.51100000000E-03 0.  1.
        -12    1    3    3    0    0  0.22839372926E+02  0.26380430765E+01  0.13178816518E+02  0.26500517576E+02  0.00000000000E+00 0.  1.
</event>
<event>
 7    1  0.2584640E-011  0.5052887E+02  0.7816164E-02  0.1300439E+00
        -11   -1    0    0    0    0  0.00000000000E+00  0.00000000000E+00  0.45593999997E+02  0.45594000000E+02  0.51100000000E-03 0. -1.
         11   -1    0    0    0    0 -0.00000000000E+00 -0.00000000000E+00 -0.45593999997E+02  0.45594000000E+02  0.51100000000E-03 0.  1.
    9900012    2    1    2    0    0 -0.26967803191E+02  0.29380647986E-01  0.30428633122E+02  0.50528868359E+02  0.30000025863E+02 0.  0.
        -12    1    1    2    0    0  0.26967803191E+02 -0.29380647986E-01 -0.30428633122E+02  0.40659131641E+02  0.00000000000E+00 0.  1.
         11    1    3    3    0    0 -0.50316738445E+01  0.92358271716E+00  0.19417137262E+02  0.20079740198E+02  0.51100000000E-03 0. -1.
        -11    1    3    3    0    0  0.21621991857E+01 -0.32032974293E+01  0.26808412562E-01  0.38648335917E+01  0.51100000000E-03 0.  1.
         12    1    3    3    0    0 -0.24098328532E+02  0.23090953602E+01  0.10984687447E+02  0.26584294569E+02  0.00000000000E+00 0. -1.
</event>
<event>
 7    1  0.2584640E-011  0.5052887E+02  0.7816164E-02  0.1300439E+00
        -11   -1    0    0    0    0  0.00000000000E+00  0.00000000000E+00  0.45593999997E+02  0.45594000000E+02  0.51100000000E-03 0.  1.
         11   -1    0    0    0    0 -0.00000000000E+00 -0.00000000000E+00 -0.45593999997E+02  0.45594000000E+02  0.51100000000E-03 0. -1.
    9900012    2    1    2    0    0  0.77931300514E+01  0.29754255323E+02 -0.26591662453E+02  0.50528866981E+02  0.30000021674E+02 0.  0.
        -12    1    1    2    0    0 -0.77931300514E+01 -0.29754255323E+02  0.26591662453E+02  0.40659133019E+02  0.00000000000E+00 0.  1.
         11    1    3    3    0    0 -0.25043453211E+01  0.20062492179E+01 -0.67301292810E+01  0.74559655184E+01  0.51100000000E-03 0. -1.
        -11    1    3    3    0    0  0.47501459820E+01 -0.28971933207E+01  0.91042814794E+00  0.56379513710E+01  0.51100000000E-03 0.  1.
         12    1    3    3    0    0  0.55473293906E+01  0.30645199426E+02 -0.20771961320E+02  0.37434950091E+02  0.00000000000E+00 0. -1.
</event>
<event>
 7    1  0.2584640E-011  0.5052886E+02  0.7816164E-02  0.1300439E+00
        -11   -1    0    0    0    0  0.00000000000E+00  0.00000000000E+00  0.45593999997E+02  0.45594000000E+02  0.51100000000E-03 0. -1.
         11   -1    0    0    0    0 -0.00000000000E+00 -0.00000000000E+00 -0.45593999997E+02  0.45594000000E+02  0.51100000000E-03 0.  1.
    9900012    2    1    2    0    0 -0.13129960920E+02 -0.38244371339E+02  0.42589018477E+01  0.50528855176E+02  0.29999985792E+02 0.  0.
        -12    1    1    2    0    0  0.13129960920E+02  0.38244371339E+02 -0.42589018477E+01  0.40659144824E+02  0.00000000000E+00 0.  1.
         11    1    3    3    0    0  0.43214836315E+01 -0.11620469459E+02  0.33428826044E+01  0.12840770834E+02  0.51100000000E-03 0. -1.
        -11    1    3    3    0    0 -0.70641238743E+01 -0.29997635795E+00  0.55799876271E+01  0.90071135280E+01  0.51100000000E-03 0.  1.
         12    1    3    3    0    0 -0.10387320677E+02 -0.26323925522E+02 -0.46639683839E+01  0.28680970814E+02  0.00000000000E+00 0. -1.
</event>
<event>
 7    1  0.2584640E-011  0.5052886E+02  0.7816164E-02  0.1300439E+00
        -11   -1    0    0    0    0  0.00000000000E+00  0.00000000000E+00  0.45593999997E+02  0.45594000000E+02  0.51100000000E-03 0. -1.
         11   -1    0    0    0    0 -0.00000000000E+00 -0.00000000000E+00 -0.45593999997E+02  0.45594000000E+02  0.51100000000E-03 0.  1.
    9900012    2    1    2    0    0 -0.33255249149E+02 -0.21581091875E+02  0.90283040145E+01  0.50528863317E+02  0.30000010537E+02 0.  0.
        -12    1    1    2    0    0  0.33255249149E+02  0.21581091875E+02 -0.90283040145E+01  0.40659136683E+02  0.00000000000E+00 0.  1.
         11    1    3    3    0    0 -0.87524446380E+01 -0.82329215484E+01 -0.73553467793E+01  0.14088556025E+02  0.51100000000E-03 0. -1.
        -11    1    3    3    0    0 -0.10084196725E+02 -0.11653888272E+02  0.15558430394E+02  0.21899061441E+02  0.51100000000E-03 0.  1.
         12    1    3    3    0    0 -0.14418607786E+02 -0.16942820545E+01  0.82522040014E+00  0.14541245850E+02  0.00000000000E+00 0. -1.
</event>
<event>
 7    1  0.2584640E-011  0.5052886E+02  0.7816164E-02  0.1300439E+00
        -11   -1    0    0    0    0  0.00000000000E+00  0.00000000000E+00  0.45593999997E+02  0.45594000000E+02  0.51100000000E-03 0. -1.
         11   -1    0    0    0    0 -0.00000000000E+00 -0.00000000000E+00 -0.45593999997E+02  0.45594000000E+02  0.51100000000E-03 0.  1.
    9900012    2    1    2    0    0  0.66078174720E+01 -0.38267585605E+02 -0.12045500475E+02  0.50528862755E+02  0.30000008831E+02 0.  0.
        -12    1    1    2    0    0 -0.66078174720E+01  0.38267585605E+02  0.12045500475E+02  0.40659137245E+02  0.00000000000E+00 0.  1.
         11    1    3    3    0    0  0.73308471647E+01 -0.13739437314E+02 -0.33724097890E+01  0.15933819564E+02  0.51100000000E-03 0. -1.
        -11    1    3    3    0    0  0.29172949064E+01 -0.76824548473E+01 -0.14276324350E+02  0.16472527409E+02  0.51100000000E-03 0.  1.
         12    1    3    3    0    0 -0.36403245991E+01 -0.16845693443E+02  0.56032336633E+01  0.18122515782E+02  0.00000000000E+00 0. -1.
</event>
<event>
 7    1  0.2584640E-011  0.5052883E+02  0.7816164E-02  0.1300439E+00
        -11   -1    0    0    0    0  0.00000000000E+00  0.00000000000E+00  0.45593999997E+02  0.45594000000E+02  0.51100000000E-03 0.  1.
         11   -1    0    0    0    0 -0.00000000000E+00 -0.00000000000E+00 -0.45593999997E+02  0.45594000000E+02  0.51100000000E-03 0. -1.
    9900012    2    1    2    0    0  0.76268172409E+01 -0.32130146542E+02 -0.23720312183E+02  0.50528832914E+02  0.29999918127E+02 0.  0.
        -12    1    1    2    0    0 -0.76268172409E+01  0.32130146542E+02  0.23720312183E+02  0.40659167086E+02  0.00000000000E+00 0.  1.
         11    1    3    3    0    0  0.30058858010E+01 -0.11148712218E+02 -0.46581460015E+01  0.12451002289E+02  0.51100000000E-03 0. -1.
        -11    1    3    3    0    0  0.12866467600E+02 -0.15876741833E+02 -0.50729226699E+01  0.21055912813E+02  0.51100000000E-03 0.  1.
         12    1    3    3    0    0 -0.82455361597E+01 -0.51046924913E+01 -0.13989243511E+02  0.17021917812E+02  0.00000000000E+00 0. -1.
</event>
