<event>
 7    1  0.6515090E-012  0.5930195E+02  0.7816164E-02  0.1266605E+00
        -11   -1    0    0    0    0  0.00000000000E+00  0.00000000000E+00  0.45593999997E+02  0.45594000000E+02  0.51100000000E-03 0.  1.
         11   -1    0    0    0    0 -0.00000000000E+00 -0.00000000000E+00 -0.45593999997E+02  0.45594000000E+02  0.51100000000E-03 0. -1.
    9900012    2    1    2    0    0  0.78488227368E+01  0.42531131642E+01 -0.30610902159E+02  0.59301947863E+02  0.50000006994E+02 0.  0.
        -12    1    1    2    0    0 -0.78488227368E+01 -0.42531131642E+01  0.30610902159E+02  0.31886052137E+02  0.00000000000E+00 0.  1.
         11    1    3    3    0    0 -0.10559944758E+02  0.12877755670E+02 -0.13856921387E+02  0.21664793905E+02  0.51100000000E-03 0. -1.
        -11    1    3    3    0    0 -0.27740059498E+01  0.30283108345E+01  0.40308191076E+01  0.57544138241E+01  0.51100000000E-03 0.  1.
         12    1    3    3    0    0  0.21182773445E+02 -0.11652953340E+02 -0.20784799879E+02  0.31882740133E+02  0.00000000000E+00 0. -1.
</event>
<event>
 7    1  0.6515090E-012  0.5930194E+02  0.7816164E-02  0.1266605E+00
        -11   -1    0    0    0    0  0.00000000000E+00  0.00000000000E+00  0.45593999997E+02  0.45594000000E+02  0.51100000000E-03 0.  1.
         11   -1    0    0    0    0 -0.00000000000E+00 -0.00000000000E+00 -0.45593999997E+02  0.45594000000E+02  0.51100000000E-03 0. -1.
    9900012    2    1    2    0    0 -0.24551777140E+02  0.40041744868E+01 -0.19947365300E+02  0.59301944169E+02  0.50000000258E+02 0.  0.
        -12    1    1    2    0    0  0.24551777140E+02 -0.40041744868E+01  0.19947365300E+02  0.31886055831E+02  0.00000000000E+00 0.  1.
         11    1    3    3    0    0 -0.12250460890E+02 -0.11313403246E+02 -0.68197126540E+01  0.18015975299E+02  0.51100000000E-03 0. -1.
        -11    1    3    3    0    0 -0.74120153766E+00  0.32206985697E+01  0.11246085598E+02  0.11721634722E+02  0.51100000000E-03 0.  1.
         12    1    3    3    0    0 -0.11560114712E+02  0.12096879163E+02 -0.24373738244E+02  0.29564334149E+02  0.00000000000E+00 0. -1.
</event>
<event>
 7    1  0.6515090E-012  0.5930200E+02  0.7816164E-02  0.1266605E+00
        -11   -1    0    0    0    0  0.00000000000E+00  0.00000000000E+00  0.45593999997E+02  0.45594000000E+02  0.51100000000E-03 0.  1.
         11   -1    0    0    0    0 -0.00000000000E+00 -0.00000000000E+00 -0.45593999997E+02  0.45594000000E+02  0.51100000000E-03 0. -1.
    9900012    2    1    2    0    0 -0.57621847951E+00 -0.22833209917E+02 -0.22249252333E+02  0.59302004136E+02  0.50000109623E+02 0.  0.
        -12    1    1    2    0    0  0.57621847951E+00  0.22833209917E+02  0.22249252333E+02  0.31885995864E+02  0.00000000000E+00 0.  1.
         11    1    3    3    0    0 -0.12870438360E+02 -0.15533132203E+02 -0.88246065846E+01  0.22018175702E+02  0.51100000000E-03 0. -1.
        -11    1    3    3    0    0 -0.10609049254E+02 -0.45406983391E+00 -0.62692615391E+01  0.12331331882E+02  0.51100000000E-03 0.  1.
        -12    1    3    3    0    0  0.22903269135E+02 -0.68460078804E+01 -0.71553842094E+01  0.24952496551E+02  0.00000000000E+00 0.  1.
</event>
<event>
 7    1  0.6515090E-012  0.5930197E+02  0.7816164E-02  0.1266605E+00
        -11   -1    0    0    0    0  0.00000000000E+00  0.00000000000E+00  0.45593999997E+02  0.45594000000E+02  0.51100000000E-03 0.  1.
         11   -1    0    0    0    0 -0.00000000000E+00 -0.00000000000E+00 -0.45593999997E+02  0.45594000000E+02  0.51100000000E-03 0. -1.
    9900012    2    1    2    0    0 -0.28592107209E+02 -0.29984251780E+01 -0.13792017649E+02  0.59301970159E+02  0.50000047656E+02 0.  0.
        -12    1    1    2    0    0  0.28592107209E+02  0.29984251780E+01  0.13792017649E+02  0.31886029841E+02  0.00000000000E+00 0.  1.
         11    1    3    3    0    0  0.24026733074E+01 -0.17836439448E+01 -0.11682697091E+02  0.12059835668E+02  0.51100000000E-03 0. -1.
        -11    1    3    3    0    0 -0.24153780273E+02  0.38138014209E+01 -0.17221183340E+02  0.29908516155E+02  0.51100000000E-03 0.  1.
        -12    1    3    3    0    0 -0.68410002441E+01 -0.50285826542E+01  0.15111862782E+02  0.17333618335E+02  0.00000000000E+00 0.  1.
</event>
<event>
 7    1  0.6515090E-012  0.5930194E+02  0.7816164E-02  0.1266605E+00
        -11   -1    0    0    0    0  0.00000000000E+00  0.00000000000E+00  0.45593999997E+02  0.45594000000E+02  0.51100000000E-03 0.  1.
         11   -1    0    0    0    0 -0.00000000000E+00 -0.00000000000E+00 -0.45593999997E+02  0.45594000000E+02  0.51100000000E-03 0. -1.
    9900012    2    1    2    0    0 -0.23026835259E+02  0.17659291614E+02 -0.13214948023E+02  0.59301943900E+02  0.49999999767E+02 0.  0.
        -12    1    1    2    0    0  0.23026835259E+02 -0.17659291614E+02  0.13214948023E+02  0.31886056100E+02  0.00000000000E+00 0.  1.
         11    1    3    3    0    0  0.17031270489E+01  0.15081646753E+02 -0.14177528273E+02  0.20769184353E+02  0.51100000000E-03 0.  1.
        -11    1    3    3    0    0 -0.79042797706E+01  0.76090468575E+01  0.13172703631E+02  0.17143376388E+02  0.51100000000E-03 0. -1.
         12    1    3    3    0    0 -0.16825682538E+02 -0.50314019965E+01 -0.12210123381E+02  0.21389383158E+02  0.00000000000E+00 0. -1.
</event>
<event>
 7    1  0.6515090E-012  0.5930197E+02  0.7816164E-02  0.1266605E+00
        -11   -1    0    0    0    0  0.00000000000E+00  0.00000000000E+00  0.45593999997E+02  0.45594000000E+02  0.51100000000E-03 0.  1.
         11   -1    0    0    0    0 -0.00000000000E+00 -0.00000000000E+00 -0.45593999997E+02  0.45594000000E+02  0.51100000000E-03 0. -1.
    9900012    2    1    2    0    0  0.17921381311E+02  0.14902763254E+02 -0.21758928341E+02  0.59301965074E+02  0.50000038384E+02 0.  0.
        -12    1    1    2    0    0 -0.17921381311E+02 -0.14902763254E+02  0.21758928341E+02  0.31886034926E+02  0.00000000000E+00 0.  1.
         11    1    3    3    0    0  0.10562235101E+02  0.16480864199E+02 -0.34046877263E+02  0.39273012957E+02  0.51100000000E-03 0. -1.
        -11    1    3    3    0    0  0.81693620699E+01  0.46965171730E+01  0.82430147285E+01  0.12519706157E+02  0.51100000000E-03 0.  1.
        -12    1    3    3    0    0 -0.81021585984E+00 -0.62746181175E+01  0.40449341937E+01  0.75092459602E+01  0.00000000000E+00 0.  1.
</event>
<event>
 7    1  0.6515090E-012  0.5930194E+02  0.7816164E-02  0.1266605E+00
        -11   -1    0    0    0    0  0.00000000000E+00  0.00000000000E+00  0.45593999997E+02  0.45594000000E+02  0.51100000000E-03 0. -1.
         11   -1    0    0    0    0 -0.00000000000E+00 -0.00000000000E+00 -0.45593999997E+02  0.45594000000E+02  0.51100000000E-03 0.  1.
    9900012    2    1    2    0    0 -0.18512339787E+02 -0.25229035284E+02  0.61245132895E+01  0.59301943349E+02  0.49999998761E+02 0.  0.
        -12    1    1    2    0    0  0.18512339787E+02  0.25229035284E+02 -0.61245132895E+01  0.31886056651E+02  0.00000000000E+00 0.  1.
         11    1    3    3    0    0 -0.17662962036E+02  0.35335486982E+00 -0.11387088324E+00  0.17666863173E+02  0.51100000000E-03 0. -1.
        -11    1    3    3    0    0 -0.90289923841E+01  0.16330745162E+01 -0.57102113466E+01  0.10807226736E+02  0.51100000000E-03 0.  1.
         12    1    3    3    0    0  0.81796146334E+01 -0.27215464670E+02  0.11948595519E+02  0.30827853439E+02  0.00000000000E+00 0. -1.
</event>
<event>
 7    1  0.6515090E-012  0.5930194E+02  0.7816164E-02  0.1266605E+00
        -11   -1    0    0    0    0  0.00000000000E+00  0.00000000000E+00  0.45593999997E+02  0.45594000000E+02  0.51100000000E-03 0.  1.
         11   -1    0    0    0    0 -0.00000000000E+00 -0.00000000000E+00 -0.45593999997E+02  0.45594000000E+02  0.51100000000E-03 0. -1.
    9900012    2    1    2    0    0 -0.25978119311E+02 -0.11975518004E+02 -0.14087052651E+02  0.59301940871E+02  0.49999994242E+02 0.  0.
        -12    1    1    2    0    0  0.25978119311E+02  0.11975518004E+02  0.14087052651E+02  0.31886059129E+02  0.00000000000E+00 0.  1.
         11    1    3    3    0    0 -0.36314319968E+01 -0.10873064954E+02  0.28958051781E+01  0.11823558167E+02  0.51100000000E-03 0. -1.
        -11    1    3    3    0    0  0.24718448866E+01 -0.71977999229E+01  0.84856888473E+01  0.11398476054E+02  0.51100000000E-03 0.  1.
         12    1    3    3    0    0 -0.24818532201E+02  0.60953468723E+01 -0.25468546676E+02  0.36079906650E+02  0.00000000000E+00 0. -1.
</event>
<event>
 7    1  0.6515090E-012  0.5930191E+02  0.7816164E-02  0.1266605E+00
        -11   -1    0    0    0    0  0.00000000000E+00  0.00000000000E+00  0.45593999997E+02  0.45594000000E+02  0.51100000000E-03 0.  1.
         11   -1    0    0    0    0 -0.00000000000E+00 -0.00000000000E+00 -0.45593999997E+02  0.45594000000E+02  0.51100000000E-03 0. -1.
    9900012    2    1    2    0    0 -0.47673284768E+01 -0.81961696310E+01 -0.30443682501E+02  0.59301914922E+02  0.49999946917E+02 0.  0.
        -12    1    1    2    0    0  0.47673284768E+01  0.81961696310E+01  0.30443682501E+02  0.31886085078E+02  0.00000000000E+00 0.  1.
         11    1    3    3    0    0  0.10674873081E+02 -0.13695307821E+02 -0.24078345057E+01  0.17530317706E+02  0.51100000000E-03 0. -1.
        -11    1    3    3    0    0  0.48839430217E+01  0.90510214305E+01 -0.10419733979E+02  0.14640517232E+02  0.51100000000E-03 0.  1.
        -12    1    3    3    0    0 -0.20326144580E+02 -0.35518832409E+01 -0.17616114017E+02  0.27131079984E+02  0.00000000000E+00 0.  1.
</event>
<event>
 7    1  0.6515090E-012  0.5930173E+02  0.7816164E-02  0.1266606E+00
        -11   -1    0    0    0    0  0.00000000000E+00  0.00000000000E+00  0.45593999997E+02  0.45594000000E+02  0.51100000000E-03 0. -1.
         11   -1    0    0    0    0 -0.00000000000E+00 -0.00000000000E+00 -0.45593999997E+02  0.45594000000E+02  0.51100000000E-03 0.  1.
    9900012    2    1    2    0    0  0.95213598561E+01  0.28612216999E+02  0.10364314660E+02  0.59301729076E+02  0.49999607977E+02 0.  0.
        -12    1    1    2    0    0 -0.95213598561E+01 -0.28612216999E+02 -0.10364314660E+02  0.31886270924E+02  0.00000000000E+00 0.  1.
         11    1    3    3    0    0 -0.18444416716E+01  0.85996147793E+01  0.62389666226E+01  0.10783322503E+02  0.51100000000E-03 0. -1.
        -11    1    3    3    0    0  0.19594675827E+02  0.29572451260E+02  0.52210295235E+01  0.35857221642E+02  0.51100000000E-03 0.  1.
        -12    1    3    3    0    0 -0.82288742994E+01 -0.95598490410E+01 -0.10956814859E+01  0.12661184930E+02  0.00000000000E+00 0.  1.
</event>
<event>
 7    1  0.6515090E-012  0.5930194E+02  0.7816164E-02  0.1266605E+00
        -11   -1    0    0    0    0  0.00000000000E+00  0.00000000000E+00  0.45593999997E+02  0.45594000000E+02  0.51100000000E-03 0.  1.
         11   -1    0    0    0    0 -0.00000000000E+00 -0.00000000000E+00 -0.45593999997E+02  0.45594000000E+02  0.51100000000E-03 0. -1.
    9900012    2    1    2    0    0 -0.17182034229E+02 -0.26822582411E+02 -0.14308885992E+01  0.59301942394E+02  0.49999997021E+02 0.  0.
        -12    1    1    2    0    0  0.17182034229E+02  0.26822582411E+02  0.14308885992E+01  0.31886057606E+02  0.00000000000E+00 0.  1.
         11    1    3    3    0    0 -0.70558694378E+01 -0.16257928091E+02 -0.47859723820E+01  0.18357860748E+02  0.51100000000E-03 0. -1.
        -11    1    3    3    0    0 -0.58985262660E+01  0.44704503177E+01 -0.15070496333E+02  0.16789800420E+02  0.51100000000E-03 0.  1.
        -12    1    3    3    0    0 -0.42276385252E+01 -0.15035104637E+02  0.18425580116E+02  0.24154281226E+02  0.00000000000E+00 0.  1.
</event>
<event>
 7    1  0.6515090E-012  0.5930197E+02  0.7816164E-02  0.1266605E+00
        -11   -1    0    0    0    0  0.00000000000E+00  0.00000000000E+00  0.45593999997E+02  0.45594000000E+02  0.51100000000E-03 0.  1.
         11   -1    0    0    0    0 -0.00000000000E+00 -0.00000000000E+00 -0.45593999997E+02  0.45594000000E+02  0.51100000000E-03 0. -1.
    9900012    2    1    2    0    0  0.14448728354E+01 -0.62683127060E+01 -0.31230424679E+02  0.59301971284E+02  0.50000049708E+02 0.  0.
        -12    1    1    2    0    0 -0.14448728354E+01  0.62683127060E+01  0.31230424679E+02  0.31886028716E+02  0.00000000000E+00 0.  1.
         11    1    3    3    0    0  0.73679218095E+01 -0.41795955741E+01 -0.64106564117E+01  0.10623173106E+02  0.51100000000E-03 0. -1.
        -11    1    3    3    0    0  0.93794204834E+01  0.15008066516E+02 -0.50834361347E+01  0.18413498102E+02  0.51100000000E-03 0.  1.
         12    1    3    3    0    0 -0.15302469457E+02 -0.17096783648E+02 -0.19736332132E+02  0.30265300075E+02  0.00000000000E+00 0. -1.
</event>
<event>
 7    1  0.6515090E-012  0.5930194E+02  0.7816164E-02  0.1266605E+00
        -11   -1    0    0    0    0  0.00000000000E+00  0.00000000000E+00  0.45593999997E+02  0.45594000000E+02  0.51100000000E-03 0. -1.
         11   -1    0    0    0    0 -0.00000000000E+00 -0.00000000000E+00 -0.45593999997E+02  0.45594000000E+02  0.51100000000E-03 0.  1.
    9900012    2    1    2    0    0 -0.36306050363E+01 -0.81792255017E+01  0.30604568433E+02  0.59301942989E+02  0.49999998106E+02 0.  0.
        -12    1    1    2    0    0  0.36306050363E+01  0.81792255017E+01 -0.30604568433E+02  0.31886057011E+02  0.00000000000E+00 0.  1.
         11    1    3    3    0    0 -0.13362971679E+02 -0.20315431730E+01  0.52000946330E+01  0.14482305210E+02  0.51100000000E-03 0. -1.
        -11    1    3    3    0    0 -0.11204434272E+02 -0.79633857437E+01  0.29386709828E+01  0.14056694037E+02  0.51100000000E-03 0.  1.
         12    1    3    3    0    0  0.20936800914E+02  0.18157034150E+01  0.22465802817E+02  0.30762943741E+02  0.00000000000E+00 0. -1.
</event>
<event>
 7    1  0.6515090E-012  0.5930195E+02  0.7816164E-02  0.1266605E+00
        -11   -1    0    0    0    0  0.00000000000E+00  0.00000000000E+00  0.45593999997E+02  0.45594000000E+02  0.51100000000E-03 0.  1.
         11   -1    0    0    0    0 -0.00000000000E+00 -0.00000000000E+00 -0.45593999997E+02  0.45594000000E+02  0.51100000000E-03 0. -1.
    9900012    2    1    2    0    0  0.13039909212E+02 -0.48667883486E+01 -0.28687891023E+02  0.59301953641E+02  0.50000017532E+02 0.  0.
        -12    1    1    2    0    0 -0.13039909212E+02  0.48667883486E+01  0.28687891023E+02  0.31886046359E+02  0.00000000000E+00 0.  1.
         11    1    3    3    0    0 -0.26293859116E+01 -0.88493019468E+01  0.21424358338E+00  0.92341602645E+01  0.51100000000E-03 0.  1.
        -11    1    3    3    0    0  0.20606158386E+02  0.17154324328E+02 -0.19318426685E+02  0.33046727772E+02  0.51100000000E-03 0. -1.
         12    1    3    3    0    0 -0.49368632621E+01 -0.13171810730E+02 -0.95837079208E+01  0.17021065604E+02  0.00000000000E+00 0. -1.
</event>
<event>
 7    1  0.6515090E-012  0.5930192E+02  0.7816164E-02  0.1266605E+00
        -11   -1    0    0    0    0  0.00000000000E+00  0.00000000000E+00  0.45593999997E+02  0.45594000000E+02  0.51100000000E-03 0.  1.
         11   -1    0    0    0    0 -0.00000000000E+00 -0.00000000000E+00 -0.45593999997E+02  0.45594000000E+02  0.51100000000E-03 0. -1.
    9900012    2    1    2    0    0 -0.31511733274E+02 -0.40501851118E+01 -0.27071110505E+01  0.59301924926E+02  0.49999965163E+02 0.  0.
        -12    1    1    2    0    0  0.31511733274E+02  0.40501851118E+01  0.27071110505E+01  0.31886075074E+02  0.00000000000E+00 0.  1.
         11    1    3    3    0    0 -0.24957394116E+02  0.39390077432E+01 -0.11593982939E+02  0.27799419845E+02  0.51100000000E-03 0. -1.
        -11    1    3    3    0    0 -0.17494464645E+02 -0.71958496428E+01  0.33337611224E+01  0.19208084464E+02  0.51100000000E-03 0.  1.
         12    1    3    3    0    0  0.10940125487E+02 -0.79334321212E+00  0.55531107665E+01  0.12294420617E+02  0.00000000000E+00 0. -1.
</event>
<event>
 7    1  0.6515090E-012  0.5930194E+02  0.7816164E-02  0.1266605E+00
        -11   -1    0    0    0    0  0.00000000000E+00  0.00000000000E+00  0.45593999997E+02  0.45594000000E+02  0.51100000000E-03 0.  1.
         11   -1    0    0    0    0 -0.00000000000E+00 -0.00000000000E+00 -0.45593999997E+02  0.45594000000E+02  0.51100000000E-03 0. -1.
    9900012    2    1    2    0    0  0.11260579507E+02  0.22527023894E+02 -0.19556412908E+02  0.59301941257E+02  0.49999994946E+02 0.  0.
        -12    1    1    2    0    0 -0.11260579507E+02 -0.22527023894E+02  0.19556412908E+02  0.31886058743E+02  0.00000000000E+00 0.  1.
         11    1    3    3    0    0 -0.94863893517E+01  0.11310447899E+02 -0.10031081741E+01  0.14796081944E+02  0.51100000000E-03 0.  1.
        -11    1    3    3    0    0 -0.89836049770E+01  0.17338461748E+01 -0.55328513382E+01  0.10692232000E+02  0.51100000000E-03 0. -1.
        -12    1    3    3    0    0  0.29730573836E+02  0.94827298195E+01 -0.13020453396E+02  0.33813627313E+02  0.00000000000E+00 0.  1.
</event>
<event>
 7    1  0.6515090E-012  0.5930194E+02  0.7816164E-02  0.1266605E+00
        -11   -1    0    0    0    0  0.00000000000E+00  0.00000000000E+00  0.45593999997E+02  0.45594000000E+02  0.51100000000E-03 0.  1.
         11   -1    0    0    0    0 -0.00000000000E+00 -0.00000000000E+00 -0.45593999997E+02  0.45594000000E+02  0.51100000000E-03 0. -1.
    9900012    2    1    2    0    0 -0.41321951428E+01  0.31613983995E+02 -0.44953655875E+00  0.59301935585E+02  0.49999984602E+02 0.  0.
        -12    1    1    2    0    0  0.41321951428E+01 -0.31613983995E+02  0.44953655875E+00  0.31886064415E+02  0.00000000000E+00 0.  1.
         11    1    3    3    0    0  0.18680190756E+02  0.78192911256E+01  0.45237824421E+01  0.20749830077E+02  0.51100000000E-03 0. -1.
        -11    1    3    3    0    0 -0.13718800853E+02  0.12311608896E+01 -0.28199790031E+00  0.13776820281E+02  0.51100000000E-03 0.  1.
        -12    1    3    3    0    0 -0.90935850454E+01  0.22563531980E+02 -0.46913211006E+01  0.24775285227E+02  0.00000000000E+00 0.  1.
</event>
<event>
 7    1  0.6515090E-012  0.5930202E+02  0.7816164E-02  0.1266604E+00
        -11   -1    0    0    0    0  0.00000000000E+00  0.00000000000E+00  0.45593999997E+02  0.45594000000E+02  0.51100000000E-03 0.  1.
         11   -1    0    0    0    0 -0.00000000000E+00 -0.00000000000E+00 -0.45593999997E+02  0.45594000000E+02  0.51100000000E-03 0. -1.
    9900012    2    1    2    0    0 -0.48429001486E+01  0.31356321579E+02 -0.31690619134E+01  0.59302022859E+02  0.50000143770E+02 0.  0.
        -12    1    1    2    0    0  0.48429001486E+01 -0.31356321579E+02  0.31690619134E+01  0.31885977141E+02  0.00000000000E+00 0.  1.
         11    1    3    3    0    0 -0.36654423346E+01 -0.81695587875E+01  0.15416117349E+01  0.90859080610E+01  0.51100000000E-03 0. -1.
        -11    1    3    3    0    0 -0.55446782279E+01 -0.69193233336E+00  0.61700515624E+01  0.83241674387E+01  0.51100000000E-03 0.  1.
         12    1    3    3    0    0  0.43672204139E+01  0.40217812700E+02 -0.10880725211E+02  0.41891947360E+02  0.00000000000E+00 0. -1.
</event>
<event>
 7    1  0.6515090E-012  0.5930194E+02  0.7816164E-02  0.1266605E+00
        -11   -1    0    0    0    0  0.00000000000E+00  0.00000000000E+00  0.45593999997E+02  0.45594000000E+02  0.51100000000E-03 0.  1.
         11   -1    0    0    0    0 -0.00000000000E+00 -0.00000000000E+00 -0.45593999997E+02  0.45594000000E+02  0.51100000000E-03 0. -1.
    9900012    2    1    2    0    0  0.20693809370E+02 -0.17559130557E+01 -0.24195126317E+02  0.59301935420E+02  0.49999984302E+02 0.  0.
        -12    1    1    2    0    0 -0.20693809370E+02  0.17559130557E+01  0.24195126317E+02  0.31886064580E+02  0.00000000000E+00 0.  1.
         11    1    3    3    0    0  0.12464124269E+02  0.85695025829E+01 -0.36567478840E+01  0.15561573624E+02  0.51100000000E-03 0. -1.
        -11    1    3    3    0    0  0.86477973233E+01  0.80218176754E+01  0.45616468093E+01  0.12646840682E+02  0.51100000000E-03 0.  1.
         12    1    3    3    0    0 -0.41811222298E+00 -0.18347233314E+02 -0.25100025242E+02  0.31093521114E+02  0.00000000000E+00 0. -1.
</event>
<event>
 7    1  0.6515090E-012  0.5930194E+02  0.7816164E-02  0.1266605E+00
        -11   -1    0    0    0    0  0.00000000000E+00  0.00000000000E+00  0.45593999997E+02  0.45594000000E+02  0.51100000000E-03 0.  1.
         11   -1    0    0    0    0 -0.00000000000E+00 -0.00000000000E+00 -0.45593999997E+02  0.45594000000E+02  0.51100000000E-03 0. -1.
    9900012    2    1    2    0    0  0.86495543240E+01  0.23090478107E+02 -0.20217217503E+02  0.59301939523E+02  0.49999991784E+02 0.  0.
        -12    1    1    2    0    0 -0.86495543240E+01 -0.23090478107E+02  0.20217217503E+02  0.31886060477E+02  0.00000000000E+00 0.  1.
         11    1    3    3    0    0 -0.97200079314E+01 -0.56087404386E+01 -0.42074691540E+01  0.11984962263E+02  0.51100000000E-03 0.  1.
        -11    1    3    3    0    0  0.15964199455E+02  0.33242870312E+02 -0.18879478661E+02  0.41429202329E+02  0.51100000000E-03 0. -1.
         12    1    3    3    0    0  0.24053628004E+01 -0.45436517667E+01  0.28697303117E+01  0.58877749312E+01  0.00000000000E+00 0. -1.
</event>
<event>
 7    1  0.6515090E-012  0.5930190E+02  0.7816164E-02  0.1266605E+00
        -11   -1    0    0    0    0  0.00000000000E+00  0.00000000000E+00  0.45593999997E+02  0.45594000000E+02  0.51100000000E-03 0. -1.
         11   -1    0    0    0    0 -0.00000000000E+00 -0.00000000000E+00 -0.45593999997E+02  0.45594000000E+02  0.51100000000E-03 0.  1.
    9900012    2    1    2    0    0  0.14568979014E+02 -0.27894454013E+02  0.51349379396E+01  0.59301901119E+02  0.49999921745E+02 0.  0.
        -12    1    1    2    0    0 -0.14568979014E+02  0.27894454013E+02 -0.51349379396E+01  0.31886098881E+02  0.00000000000E+00 0.  1.
         11    1    3    3    0    0 -0.63597243126E+01  0.23996202464E+01 -0.10858004119E+01  0.68835480280E+01  0.51100000000E-03 0. -1.
        -11    1    3    3    0    0 -0.44426020915E+00 -0.17949790779E+02  0.17686701984E+02  0.25203408172E+02  0.51100000000E-03 0.  1.
        -12    1    3    3    0    0  0.21372963536E+02 -0.12344283480E+02 -0.11465963633E+02  0.27214944919E+02  0.00000000000E+00 0.  1.
</event>
<event>
 7    1  0.6515090E-012  0.5930194E+02  0.7816164E-02  0.1266605E+00
        -11   -1    0    0    0    0  0.00000000000E+00  0.00000000000E+00  0.45593999997E+02  0.45594000000E+02  0.51100000000E-03 0. -1.
         11   -1    0    0    0    0 -0.00000000000E+00 -0.00000000000E+00 -0.45593999997E+02  0.45594000000E+02  0.51100000000E-03 0.  1.
    9900012    2    1    2    0    0  0.11124652198E+02  0.13569437843E+02  0.26623926970E+02  0.59301936944E+02  0.49999987081E+02 0.  0.
        -12    1    1    2    0    0 -0.11124652198E+02 -0.13569437843E+02 -0.26623926970E+02  0.31886063056E+02  0.00000000000E+00 0.  1.
         11    1    3    3    0    0 -0.49385931858E+00  0.11012600884E+02 -0.44608154377E+01  0.11892020429E+02  0.51100000000E-03 0. -1.
        -11    1    3    3    0    0  0.85429810688E+01 -0.39539587160E+01 -0.49686957016E+01  0.10644447017E+02  0.51100000000E-03 0.  1.
         12    1    3    3    0    0  0.30755304474E+01  0.65107956747E+01  0.36053438110E+02  0.36765469497E+02  0.00000000000E+00 0. -1.
</event>
<event>
 7    1  0.6515090E-012  0.5930194E+02  0.7816164E-02  0.1266605E+00
        -11   -1    0    0    0    0  0.00000000000E+00  0.00000000000E+00  0.45593999997E+02  0.45594000000E+02  0.51100000000E-03 0.  1.
         11   -1    0    0    0    0 -0.00000000000E+00 -0.00000000000E+00 -0.45593999997E+02  0.45594000000E+02  0.51100000000E-03 0. -1.
    9900012    2    1    2    0    0  0.29863961734E+01 -0.31336368355E+02 -0.50827158342E+01  0.59301944363E+02  0.50000000612E+02 0.  0.
        -12    1    1    2    0    0 -0.29863961734E+01  0.31336368355E+02  0.50827158342E+01  0.31886055637E+02  0.00000000000E+00 0.  1.
         11    1    3    3    0    0  0.10825619921E+02 -0.13667235048E+02  0.43129194284E+01  0.17960752623E+02  0.51100000000E-03 0.  1.
        -11    1    3    3    0    0  0.66225642758E+01 -0.23182524168E+02 -0.20139276167E+01  0.24193877099E+02  0.51100000000E-03 0. -1.
        -12    1    3    3    0    0 -0.14461788024E+02  0.55133908606E+01 -0.73817076458E+01  0.17147314641E+02  0.00000000000E+00 0.  1.
</event>
<event>
 7    1  0.6515090E-012  0.5930194E+02  0.7816164E-02  0.1266605E+00
        -11   -1    0    0    0    0  0.00000000000E+00  0.00000000000E+00  0.45593999997E+02  0.45594000000E+02  0.51100000000E-03 0. -1.
         11   -1    0    0    0    0 -0.00000000000E+00 -0.00000000000E+00 -0.45593999997E+02  0.45594000000E+02  0.51100000000E-03 0.  1.
    9900012    2    1    2    0    0  0.16613738241E+02  0.13123824388E+02 -0.23842609742E+02  0.59301935580E+02  0.49999984593E+02 0.  0.
        -12    1    1    2    0    0 -0.16613738241E+02 -0.13123824388E+02  0.23842609742E+02  0.31886064420E+02  0.00000000000E+00 0.  1.
         11    1    3    3    0    0  0.77433660037E+01  0.45935274755E+01  0.54927260170E+01  0.10546575325E+02  0.51100000000E-03 0. -1.
        -11    1    3    3    0    0 -0.70976739501E+01 -0.75685096680E+01 -0.22968772330E+02  0.25203646893E+02  0.51100000000E-03 0.  1.
         12    1    3    3    0    0  0.15968046187E+02  0.16098806581E+02 -0.63665634286E+01  0.23551713361E+02  0.00000000000E+00 0. -1.
</event>
<event>
 7    1  0.6515090E-012  0.5930195E+02  0.7816164E-02  0.1266605E+00
        -11   -1    0    0    0    0  0.00000000000E+00  0.00000000000E+00  0.45593999997E+02  0.45594000000E+02  0.51100000000E-03 0.  1.
         11   -1    0    0    0    0 -0.00000000000E+00 -0.00000000000E+00 -0.45593999997E+02  0.45594000000E+02  0.51100000000E-03 0. -1.
    9900012    2    1    2    0    0 -0.30713756028E+02 -0.12527230377E+01 -0.84744512942E+01  0.59301945852E+02  0.50000003328E+02 0.  0.
        -12    1    1    2    0    0  0.30713756028E+02  0.12527230377E+01  0.84744512942E+01  0.31886054148E+02  0.00000000000E+00 0.  1.
         11    1    3    3    0    0 -0.19008315981E+02 -0.31991991739E+01 -0.16657650734E+02  0.25476033443E+02  0.51100000000E-03 0. -1.
        -11    1    3    3    0    0 -0.26061840482E+01 -0.12818457272E+02 -0.26918295800E+01  0.13354811451E+02  0.51100000000E-03 0.  1.
        -12    1    3    3    0    0 -0.90992559993E+01  0.14764933408E+02  0.10875029019E+02  0.20471100959E+02  0.00000000000E+00 0.  1.
</event>
<event>
 7    1  0.6515090E-012  0.5930199E+02  0.7816164E-02  0.1266605E+00
        -11   -1    0    0    0    0  0.00000000000E+00  0.00000000000E+00  0.45593999997E+02  0.45594000000E+02  0.51100000000E-03 0. -1.
         11   -1    0    0    0    0 -0.00000000000E+00 -0.00000000000E+00 -0.45593999997E+02  0.45594000000E+02  0.51100000000E-03 0.  1.
    9900012    2    1    2    0    0  0.22379923009E+01 -0.30032044081E+02  0.10477840733E+02  0.59301993231E+02  0.50000089736E+02 0.  0.
        -12    1    1    2    0    0 -0.22379923009E+01  0.30032044081E+02 -0.10477840733E+02  0.31886006769E+02  0.00000000000E+00 0.  1.
         11    1    3    3    0    0  0.25659044178E+01  0.34900764389E+01 -0.41520193079E+01  0.60003136272E+01  0.51100000000E-03 0. -1.
        -11    1    3    3    0    0  0.10692158106E+02 -0.16750977288E+00 -0.62999076953E+01  0.12411250611E+02  0.51100000000E-03 0.  1.
         12    1    3    3    0    0 -0.11020070223E+02 -0.33354610747E+02  0.20929767736E+02  0.40890428994E+02  0.00000000000E+00 0. -1.
</event>
<event>
 7    1  0.6515090E-012  0.5930194E+02  0.7816164E-02  0.1266605E+00
        -11   -1    0    0    0    0  0.00000000000E+00  0.00000000000E+00  0.45593999997E+02  0.45594000000E+02  0.51100000000E-03 0.  1.
         11   -1    0    0    0    0 -0.00000000000E+00 -0.00000000000E+00 -0.45593999997E+02  0.45594000000E+02  0.51100000000E-03 0. -1.
    9900012    2    1    2    0    0 -0.57407751689E+01 -0.98697786366E+00 -0.31349480539E+02  0.59301944194E+02  0.50000000303E+02 0.  0.
        -12    1    1    2    0    0  0.57407751689E+01  0.98697786366E+00  0.31349480539E+02  0.31886055806E+02  0.00000000000E+00 0.  1.
         11    1    3    3    0    0 -0.10352721069E+02  0.17639726825E+02 -0.92870671905E+01  0.22463045503E+02  0.51100000000E-03 0. -1.
        -11    1    3    3    0    0  0.58323348042E+01  0.31770895736E+01 -0.96660480434E+01  0.11727851997E+02  0.51100000000E-03 0.  1.
         12    1    3    3    0    0 -0.12203889038E+01 -0.21803794262E+02 -0.12396365305E+02  0.25111046694E+02  0.00000000000E+00 0. -1.
</event>
<event>
 7    1  0.6515090E-012  0.5930195E+02  0.7816164E-02  0.1266605E+00
        -11   -1    0    0    0    0  0.00000000000E+00  0.00000000000E+00  0.45593999997E+02  0.45594000000E+02  0.51100000000E-03 0.  1.
         11   -1    0    0    0    0 -0.00000000000E+00 -0.00000000000E+00 -0.45593999997E+02  0.45594000000E+02  0.51100000000E-03 0. -1.
    9900012    2    1    2    0    0 -0.14417558181E+02 -0.17091047525E+02 -0.22732147291E+02  0.59301946468E+02  0.50000004451E+02 0.  0.
        -12    1    1    2    0    0  0.14417558181E+02  0.17091047525E+02  0.22732147291E+02  0.31886053532E+02  0.00000000000E+00 0.  1.
         11    1    3    3    0    0 -0.15999259025E+02 -0.12685785467E+01 -0.83853222033E+01  0.18107987452E+02  0.51100000000E-03 0. -1.
        -11    1    3    3    0    0 -0.49933437742E+01 -0.25726349461E+02 -0.12928287990E+02  0.29221895374E+02  0.51100000000E-03 0.  1.
         12    1    3    3    0    0  0.65750446182E+01  0.99038804829E+01 -0.14185370970E+01  0.11972063642E+02  0.00000000000E+00 0. -1.
</event>
<event>
 7    1  0.6515090E-012  0.5930198E+02  0.7816164E-02  0.1266605E+00
        -11   -1    0    0    0    0  0.00000000000E+00  0.00000000000E+00  0.45593999997E+02  0.45594000000E+02  0.51100000000E-03 0.  1.
         11   -1    0    0    0    0 -0.00000000000E+00 -0.00000000000E+00 -0.45593999997E+02  0.45594000000E+02  0.51100000000E-03 0. -1.
    9900012    2    1    2    0    0 -0.26667816819E+02  0.86538967047E+01 -0.15187364931E+02  0.59301977425E+02  0.50000060909E+02 0.  0.
        -12    1    1    2    0    0  0.26667816819E+02 -0.86538967047E+01  0.15187364931E+02  0.31886022575E+02  0.00000000000E+00 0.  1.
         11    1    3    3    0    0  0.84008103393E+01 -0.75787299034E+01 -0.25005509798E+00  0.11316946988E+02  0.51100000000E-03 0. -1.
        -11    1    3    3    0    0 -0.10932321264E+01  0.10808429596E+02 -0.61145509779E+01  0.12466155812E+02  0.51100000000E-03 0.  1.
         12    1    3    3    0    0 -0.33975395032E+02  0.54241970119E+01 -0.88227588553E+01  0.35518874625E+02  0.00000000000E+00 0. -1.
</event>
<event>
 7    1  0.6515090E-012  0.5930193E+02  0.7816164E-02  0.1266605E+00
        -11   -1    0    0    0    0  0.00000000000E+00  0.00000000000E+00  0.45593999997E+02  0.45594000000E+02  0.51100000000E-03 0.  1.
         11   -1    0    0    0    0 -0.00000000000E+00 -0.00000000000E+00 -0.45593999997E+02  0.45594000000E+02  0.51100000000E-03 0. -1.
    9900012    2    1    2    0    0 -0.18466076604E-02  0.71892898942E+01 -0.31065020597E+02  0.59301930984E+02  0.49999976212E+02 0.  0.
        -12    1    1    2    0    0  0.18466076604E-02 -0.71892898942E+01  0.31065020597E+02  0.31886069016E+02  0.00000000000E+00 0.  1.
         11    1    3    3    0    0 -0.24587592564E+01 -0.51478344287E+01 -0.23819839714E+02  0.24493477921E+02  0.51100000000E-03 0. -1.
        -11    1    3    3    0    0  0.11435968668E+02 -0.97313232423E+00 -0.13373202662E+02  0.17623022317E+02  0.51100000000E-03 0.  1.
        -12    1    3    3    0    0 -0.89790560196E+01  0.13310256647E+02  0.61280217790E+01  0.17185430746E+02  0.00000000000E+00 0.  1.
</event>
<event>
 7    1  0.6515090E-012  0.5930195E+02  0.7816164E-02  0.1266605E+00
        -11   -1    0    0    0    0  0.00000000000E+00  0.00000000000E+00  0.45593999997E+02  0.45594000000E+02  0.51100000000E-03 0.  1.
         11   -1    0    0    0    0 -0.00000000000E+00 -0.00000000000E+00 -0.45593999997E+02  0.45594000000E+02  0.51100000000E-03 0. -1.
    9900012    2    1    2    0    0  0.11196091622E+02  0.29846809988E+02  0.73168201057E+00  0.59301954578E+02  0.50000019241E+02 0.  0.
        -12    1    1    2    0    0 -0.11196091622E+02 -0.29846809988E+02 -0.73168201057E+00  0.31886045422E+02  0.00000000000E+00 0.  1.
         11    1    3    3    0    0  0.34130000688E+01  0.16600973542E+02 -0.64945366845E+01  0.18149928348E+02  0.51100000000E-03 0. -1.
        -11    1    3    3    0    0  0.11686001998E+02  0.18311645772E+02  0.18273972574E+02  0.28386917541E+02  0.51100000000E-03 0.  1.
        -12    1    3    3    0    0 -0.39029104441E+01 -0.50658093263E+01 -0.11047753879E+02  0.12765108689E+02  0.00000000000E+00 0.  1.
</event>
<event>
 7    1  0.6515090E-012  0.5930196E+02  0.7816164E-02  0.1266605E+00
        -11   -1    0    0    0    0  0.00000000000E+00  0.00000000000E+00  0.45593999997E+02  0.45594000000E+02  0.51100000000E-03 0.  1.
         11   -1    0    0    0    0 -0.00000000000E+00 -0.00000000000E+00 -0.45593999997E+02  0.45594000000E+02  0.51100000000E-03 0. -1.
    9900012    2    1    2    0    0  0.42741034033E+01  0.19386832610E+02 -0.24951997885E+02  0.59301961723E+02  0.50000032272E+02 0.  0.
        -12    1    1    2    0    0 -0.42741034033E+01 -0.19386832610E+02  0.24951997885E+02  0.31886038277E+02  0.00000000000E+00 0.  1.
         11    1    3    3    0    0  0.14017613013E+02 -0.70036527832E+01 -0.12249085128E+02  0.19889311542E+02  0.51100000000E-03 0.  1.
        -11    1    3    3    0    0 -0.28049463871E+01  0.20005491560E+02 -0.19272973336E+02  0.27920152547E+02  0.51100000000E-03 0. -1.
        -12    1    3    3    0    0 -0.69385632229E+01  0.63849938336E+01  0.65700605786E+01  0.11492497634E+02  0.00000000000E+00 0.  1.
</event>
<event>
 7    1  0.6515090E-012  0.5930195E+02  0.7816164E-02  0.1266605E+00
        -11   -1    0    0    0    0  0.00000000000E+00  0.00000000000E+00  0.45593999997E+02  0.45594000000E+02  0.51100000000E-03 0.  1.
         11   -1    0    0    0    0 -0.00000000000E+00 -0.00000000000E+00 -0.45593999997E+02  0.45594000000E+02  0.51100000000E-03 0. -1.
    9900012    2    1    2    0    0 -0.13792625013E+02 -0.35109432767E+01 -0.28533435119E+02  0.59301950587E+02  0.50000011963E+02 0.  0.
        -12    1    1    2    0    0  0.13792625013E+02  0.35109432767E+01  0.28533435119E+02  0.31886049413E+02  0.00000000000E+00 0.  1.
         11    1    3    3    0    0 -0.14235699667E+02  0.11324239175E+02 -0.94514951007E+01  0.20499373107E+02  0.51100000000E-03 0. -1.
        -11    1    3    3    0    0 -0.23882373583E+01 -0.37248241788E+01  0.81398727481E+01  0.92647461627E+01  0.51100000000E-03 0.  1.
         12    1    3    3    0    0  0.28313120116E+01 -0.11110358273E+02 -0.27221812766E+02  0.29537831317E+02  0.00000000000E+00 0. -1.
</event>
<event>
 7    1  0.6515090E-012  0.5930194E+02  0.7816164E-02  0.1266605E+00
        -11   -1    0    0    0    0  0.00000000000E+00  0.00000000000E+00  0.45593999997E+02  0.45594000000E+02  0.51100000000E-03 0. -1.
         11   -1    0    0    0    0 -0.00000000000E+00 -0.00000000000E+00 -0.45593999997E+02  0.45594000000E+02  0.51100000000E-03 0.  1.
    9900012    2    1    2    0    0 -0.15780903471E+02  0.44833040765E+01  0.27341985793E+02  0.59301935380E+02  0.49999984229E+02 0.  0.
        -12    1    1    2    0    0  0.15780903471E+02 -0.44833040765E+01 -0.27341985793E+02  0.31886064620E+02  0.00000000000E+00 0.  1.
         11    1    3    3    0    0  0.65021810449E+01 -0.61317074227E+01  0.14487706794E+02  0.17022627373E+02  0.51100000000E-03 0. -1.
        -11    1    3    3    0    0 -0.11920270836E+01 -0.81515991351E+01  0.11327566148E+02  0.14006543189E+02  0.51100000000E-03 0.  1.
        -12    1    3    3    0    0 -0.21091057433E+02  0.18766610634E+02  0.15267128518E+01  0.28272764818E+02  0.00000000000E+00 0.  1.
</event>
<event>
 7    1  0.6515090E-012  0.5930194E+02  0.7816164E-02  0.1266605E+00
        -11   -1    0    0    0    0  0.00000000000E+00  0.00000000000E+00  0.45593999997E+02  0.45594000000E+02  0.51100000000E-03 0. -1.
         11   -1    0    0    0    0 -0.00000000000E+00 -0.00000000000E+00 -0.45593999997E+02  0.45594000000E+02  0.51100000000E-03 0.  1.
    9900012    2    1    2    0    0  0.22540856446E+02  0.99289510676E+01  0.20249602487E+02  0.59301942240E+02  0.49999996739E+02 0.  0.
        -12    1    1    2    0    0 -0.22540856446E+02 -0.99289510676E+01 -0.20249602487E+02  0.31886057760E+02  0.00000000000E+00 0.  1.
         11    1    3    3    0    0 -0.65300045825E+01 -0.99293488189E+01 -0.94272676197E+00  0.11921479012E+02  0.51100000000E-03 0.  1.
        -11    1    3    3    0    0 -0.29450536265E+01  0.54612958783E+01  0.74176172931E+01  0.96705811667E+01  0.51100000000E-03 0. -1.
         12    1    3    3    0    0  0.32015914655E+02  0.14397004008E+02  0.13774711956E+02  0.37709882061E+02  0.00000000000E+00 0. -1.
</event>
<event>
 7    1  0.6515090E-012  0.5930203E+02  0.7816164E-02  0.1266604E+00
        -11   -1    0    0    0    0  0.00000000000E+00  0.00000000000E+00  0.45593999997E+02  0.45594000000E+02  0.51100000000E-03 0.  1.
         11   -1    0    0    0    0 -0.00000000000E+00 -0.00000000000E+00 -0.45593999997E+02  0.45594000000E+02  0.51100000000E-03 0. -1.
    9900012    2    1    2    0    0 -0.15829674364E+02 -0.71394715814E+01 -0.26742553252E+02  0.59302034445E+02  0.50000164900E+02 0.  0.
        -12    1    1    2    0    0  0.15829674364E+02  0.71394715814E+01  0.26742553252E+02  0.31885965555E+02  0.00000000000E+00 0.  1.
         11    1    3    3    0    0  0.50831855856E+01 -0.12799144798E+01 -0.10170352180E+02  0.11441722794E+02  0.51100000000E-03 0. -1.
        -11    1    3    3    0    0  0.58314440991E+01  0.11579234988E+02 -0.51774970960E+01  0.13960333077E+02  0.51100000000E-03 0.  1.
        -12    1    3    3    0    0 -0.26744304049E+02 -0.17438792090E+02 -0.11394703976E+02  0.33899978574E+02  0.00000000000E+00 0.  1.
</event>
<event>
 7    1  0.6515090E-012  0.5930197E+02  0.7816164E-02  0.1266605E+00
        -11   -1    0    0    0    0  0.00000000000E+00  0.00000000000E+00  0.45593999997E+02  0.45594000000E+02  0.51100000000E-03 0.  1.
         11   -1    0    0    0    0 -0.00000000000E+00 -0.00000000000E+00 -0.45593999997E+02  0.45594000000E+02  0.51100000000E-03 0. -1.
    9900012    2    1    2    0    0 -0.24924270468E+02 -0.13409693588E+02 -0.14686049957E+02  0.59301965379E+02  0.50000038940E+02 0.  0.
        -12    1    1    2    0    0  0.24924270468E+02  0.13409693588E+02  0.14686049957E+02  0.31886034621E+02  0.00000000000E+00 0.  1.
         11    1    3    3    0    0  0.51969126919E+01 -0.33540492440E+01 -0.14776056215E+02  0.16018407705E+02  0.51100000000E-03 0. -1.
        -11    1    3    3    0    0 -0.17833619045E+02  0.82883777475E+01 -0.56677596335E+01  0.20466037073E+02  0.51100000000E-03 0.  1.
        -12    1    3    3    0    0 -0.12287564115E+02 -0.18344022091E+02  0.57577658917E+01  0.22817520602E+02  0.00000000000E+00 0.  1.
</event>
<event>
 7    1  0.6515090E-012  0.5930199E+02  0.7816164E-02  0.1266605E+00
        -11   -1    0    0    0    0  0.00000000000E+00  0.00000000000E+00  0.45593999997E+02  0.45594000000E+02  0.51100000000E-03 0.  1.
         11   -1    0    0    0    0 -0.00000000000E+00 -0.00000000000E+00 -0.45593999997E+02  0.45594000000E+02  0.51100000000E-03 0. -1.
    9900012    2    1    2    0    0 -0.20510032342E+02  0.28991800163E+01 -0.24241519594E+02  0.59301985140E+02  0.50000074978E+02 0.  0.
        -12    1    1    2    0    0  0.20510032342E+02 -0.28991800163E+01  0.24241519594E+02  0.31886014860E+02  0.00000000000E+00 0.  1.
         11    1    3    3    0    0  0.74439886810E+01 -0.94039979504E+01 -0.90498509628E+00  0.12027765512E+02  0.51100000000E-03 0. -1.
        -11    1    3    3    0    0 -0.39932569001E+01  0.15305552172E+02 -0.39413031282E+01  0.16301530559E+02  0.51100000000E-03 0.  1.
         12    1    3    3    0    0 -0.23960764123E+02 -0.30023742055E+01 -0.19395231370E+02  0.30972689068E+02  0.00000000000E+00 0. -1.
</event>
<event>
 7    1  0.6515090E-012  0.5930194E+02  0.7816164E-02  0.1266605E+00
        -11   -1    0    0    0    0  0.00000000000E+00  0.00000000000E+00  0.45593999997E+02  0.45594000000E+02  0.51100000000E-03 0. -1.
         11   -1    0    0    0    0 -0.00000000000E+00 -0.00000000000E+00 -0.45593999997E+02  0.45594000000E+02  0.51100000000E-03 0.  1.
    9900012    2    1    2    0    0 -0.22551389505E+02 -0.21265918479E+02 -0.74777375389E+01  0.59301936962E+02  0.49999987113E+02 0.  0.
        -12    1    1    2    0    0  0.22551389505E+02  0.21265918479E+02  0.74777375389E+01  0.31886063038E+02  0.00000000000E+00 0.  1.
         11    1    3    3    0    0 -0.88270565980E+01 -0.20719724967E+02 -0.74586042182E+01  0.23724559175E+02  0.51100000000E-03 0. -1.
        -11    1    3    3    0    0  0.77904905339E+01  0.36466581940E-01 -0.93060291682E+01  0.12136525521E+02  0.51100000000E-03 0.  1.
         12    1    3    3    0    0 -0.21514823441E+02 -0.58266009429E+00  0.92868958475E+01  0.23440852266E+02  0.00000000000E+00 0. -1.
</event>
<event>
 7    1  0.6515090E-012  0.5930191E+02  0.7816164E-02  0.1266605E+00
        -11   -1    0    0    0    0  0.00000000000E+00  0.00000000000E+00  0.45593999997E+02  0.45594000000E+02  0.51100000000E-03 0. -1.
         11   -1    0    0    0    0 -0.00000000000E+00 -0.00000000000E+00 -0.45593999997E+02  0.45594000000E+02  0.51100000000E-03 0.  1.
    9900012    2    1    2    0    0  0.19773342051E+02  0.33963974857E+01 -0.24783107968E+02  0.59301905659E+02  0.49999930025E+02 0.  0.
        -12    1    1    2    0    0 -0.19773342051E+02 -0.33963974857E+01  0.24783107968E+02  0.31886094341E+02  0.00000000000E+00 0.  1.
         11    1    3    3    0    0  0.73268694271E+01  0.68708723993E+01  0.25843903751E+01  0.10371642927E+02  0.51100000000E-03 0. -1.
        -11    1    3    3    0    0 -0.58942961492E+01 -0.10646498791E+02  0.31865955958E+01  0.12579549092E+02  0.51100000000E-03 0.  1.
         12    1    3    3    0    0  0.18340768774E+02  0.71720238778E+01 -0.30554093939E+02  0.36350713640E+02  0.00000000000E+00 0. -1.
</event>
<event>
 7    1  0.6515090E-012  0.5930196E+02  0.7816164E-02  0.1266605E+00
        -11   -1    0    0    0    0  0.00000000000E+00  0.00000000000E+00  0.45593999997E+02  0.45594000000E+02  0.51100000000E-03 0.  1.
         11   -1    0    0    0    0 -0.00000000000E+00 -0.00000000000E+00 -0.45593999997E+02  0.45594000000E+02  0.51100000000E-03 0. -1.
    9900012    2    1    2    0    0 -0.40203843334E+01 -0.17534896744E+02 -0.26326481678E+02  0.59301957104E+02  0.50000023848E+02 0.  0.
        -12    1    1    2    0    0  0.40203843334E+01  0.17534896744E+02  0.26326481678E+02  0.31886042896E+02  0.00000000000E+00 0.  1.
         11    1    3    3    0    0 -0.67025053018E+01 -0.67879919529E+01 -0.34170690548E+02  0.35477267438E+02  0.51100000000E-03 0. -1.
        -11    1    3    3    0    0 -0.22992658880E+01  0.51557204713E+01  0.68211929605E+00  0.56862434169E+01  0.51100000000E-03 0.  1.
        -12    1    3    3    0    0  0.49813868564E+01 -0.15902625263E+02  0.71620895742E+01  0.18138446249E+02  0.00000000000E+00 0.  1.
</event>
<event>
 7    1  0.6515090E-012  0.5930194E+02  0.7816164E-02  0.1266605E+00
        -11   -1    0    0    0    0  0.00000000000E+00  0.00000000000E+00  0.45593999997E+02  0.45594000000E+02  0.51100000000E-03 0. -1.
         11   -1    0    0    0    0 -0.00000000000E+00 -0.00000000000E+00 -0.45593999997E+02  0.45594000000E+02  0.51100000000E-03 0.  1.
    9900012    2    1    2    0    0 -0.70627826869E+01  0.21569330204E+02  0.22396469427E+02  0.59301941173E+02  0.49999994794E+02 0.  0.
        -12    1    1    2    0    0  0.70627826869E+01 -0.21569330204E+02 -0.22396469427E+02  0.31886058827E+02  0.00000000000E+00 0.  1.
         11    1    3    3    0    0  0.13938001838E+02  0.20910250905E+02  0.27064823364E+02  0.36932521605E+02  0.51100000000E-03 0. -1.
        -11    1    3    3    0    0 -0.95006245605E+01  0.33285127067E+01 -0.23654837652E+01  0.10341004670E+02  0.51100000000E-03 0.  1.
        -12    1    3    3    0    0 -0.11500159964E+02 -0.26694334081E+01 -0.23028701718E+01  0.12028414898E+02  0.00000000000E+00 0.  1.
</event>
<event>
 7    1  0.6515090E-012  0.5930225E+02  0.7816164E-02  0.1266604E+00
        -11   -1    0    0    0    0  0.00000000000E+00  0.00000000000E+00  0.45593999997E+02  0.45594000000E+02  0.51100000000E-03 0.  1.
         11   -1    0    0    0    0 -0.00000000000E+00 -0.00000000000E+00 -0.45593999997E+02  0.45594000000E+02  0.51100000000E-03 0. -1.
    9900012    2    1    2    0    0  0.29006396554E+02 -0.36197965930E+01 -0.12736838672E+02  0.59302250396E+02  0.50000558740E+02 0.  0.
        -12    1    1    2    0    0 -0.29006396554E+02  0.36197965930E+01  0.12736838672E+02  0.31885749604E+02  0.00000000000E+00 0.  1.
         11    1    3    3    0    0  0.85396902023E+01  0.77280142206E+01 -0.24765551463E+01  0.11780570368E+02  0.51100000000E-03 0. -1.
        -11    1    3    3    0    0  0.27608857069E+02 -0.20346088779E+02 -0.10980548720E+02  0.36010897902E+02  0.51100000000E-03 0.  1.
         12    1    3    3    0    0 -0.71421507175E+01  0.89982779650E+01  0.72026519451E+00  0.11510782126E+02  0.00000000000E+00 0. -1.
</event>
<event>
 7    1  0.6515090E-012  0.5930193E+02  0.7816164E-02  0.1266605E+00
        -11   -1    0    0    0    0  0.00000000000E+00  0.00000000000E+00  0.45593999997E+02  0.45594000000E+02  0.51100000000E-03 0. -1.
         11   -1    0    0    0    0 -0.00000000000E+00 -0.00000000000E+00 -0.45593999997E+02  0.45594000000E+02  0.51100000000E-03 0.  1.
    9900012    2    1    2    0    0 -0.13946424708E+02  0.26945639814E+02 -0.98056780866E+01  0.59301927964E+02  0.49999970704E+02 0.  0.
        -12    1    1    2    0    0  0.13946424708E+02 -0.26945639814E+02  0.98056780866E+01  0.31886072036E+02  0.00000000000E+00 0.  1.
         11    1    3    3    0    0 -0.34815679265E+01 -0.26339845049E+01 -0.76124479393E+01  0.87754517541E+01  0.51100000000E-03 0. -1.
        -11    1    3    3    0    0  0.11789959126E+02 -0.18576600377E+01 -0.12110019318E+01  0.11996689667E+02  0.51100000000E-03 0.  1.
         12    1    3    3    0    0 -0.22254815908E+02  0.31437284357E+02 -0.98222821554E+00  0.38529786544E+02  0.00000000000E+00 0. -1.
</event>
<event>
 7    1  0.6515090E-012  0.5930196E+02  0.7816164E-02  0.1266605E+00
        -11   -1    0    0    0    0  0.00000000000E+00  0.00000000000E+00  0.45593999997E+02  0.45594000000E+02  0.51100000000E-03 0.  1.
         11   -1    0    0    0    0 -0.00000000000E+00 -0.00000000000E+00 -0.45593999997E+02  0.45594000000E+02  0.51100000000E-03 0. -1.
    9900012    2    1    2    0    0 -0.22107770029E+02 -0.20680249382E+02 -0.10014670418E+02  0.59301955502E+02  0.50000020926E+02 0.  0.
        -12    1    1    2    0    0  0.22107770029E+02  0.20680249382E+02  0.10014670418E+02  0.31886044498E+02  0.00000000000E+00 0.  1.
         11    1    3    3    0    0 -0.25078358774E+02 -0.17128377364E+02  0.71418400950E+01  0.31197936953E+02  0.51100000000E-03 0. -1.
        -11    1    3    3    0    0 -0.40967745397E+01 -0.70603480571E+01  0.10797833215E+01  0.82339546149E+01  0.51100000000E-03 0.  1.
         12    1    3    3    0    0  0.70673632842E+01  0.35084760394E+01 -0.18236293835E+02  0.19870063934E+02  0.00000000000E+00 0. -1.
</event>
<event>
 7    1  0.6515090E-012  0.5930193E+02  0.7816164E-02  0.1266605E+00
        -11   -1    0    0    0    0  0.00000000000E+00  0.00000000000E+00  0.45593999997E+02  0.45594000000E+02  0.51100000000E-03 0.  1.
         11   -1    0    0    0    0 -0.00000000000E+00 -0.00000000000E+00 -0.45593999997E+02  0.45594000000E+02  0.51100000000E-03 0. -1.
    9900012    2    1    2    0    0 -0.60489874081E+01  0.64540544669E+01 -0.30634564097E+02  0.59301928038E+02  0.49999970839E+02 0.  0.
        -12    1    1    2    0    0  0.60489874081E+01 -0.64540544669E+01  0.30634564097E+02  0.31886071962E+02  0.00000000000E+00 0.  1.
         11    1    3    3    0    0  0.90807339602E+01  0.47656010514E+01 -0.19559379732E+02  0.22084836843E+02  0.51100000000E-03 0. -1.
        -11    1    3    3    0    0 -0.15683859906E+02 -0.90044530031E+01 -0.17135582517E+02  0.24913687481E+02  0.51100000000E-03 0.  1.
         12    1    3    3    0    0  0.55413853759E+00  0.10692906419E+02  0.60603981515E+01  0.12303403714E+02  0.00000000000E+00 0. -1.
</event>
<event>
 7    1  0.6515090E-012  0.5930196E+02  0.7816164E-02  0.1266605E+00
        -11   -1    0    0    0    0  0.00000000000E+00  0.00000000000E+00  0.45593999997E+02  0.45594000000E+02  0.51100000000E-03 0. -1.
         11   -1    0    0    0    0 -0.00000000000E+00 -0.00000000000E+00 -0.45593999997E+02  0.45594000000E+02  0.51100000000E-03 0.  1.
    9900012    2    1    2    0    0  0.24367451371E+02  0.89091973950E+01  0.18535729792E+02  0.59301956604E+02  0.50000022936E+02 0.  0.
        -12    1    1    2    0    0 -0.24367451371E+02 -0.89091973950E+01 -0.18535729792E+02  0.31886043396E+02  0.00000000000E+00 0.  1.
         11    1    3    3    0    0  0.18940214547E+02 -0.90971483069E+01  0.14164485621E+02  0.25340135903E+02  0.51100000000E-03 0.  1.
        -11    1    3    3    0    0  0.13363993568E+02  0.34095162847E+00 -0.21222839528E+01  0.13535754930E+02  0.51100000000E-03 0. -1.
        -12    1    3    3    0    0 -0.79367567438E+01  0.17665394073E+02  0.64935281237E+01  0.20426065771E+02  0.00000000000E+00 0.  1.
</event>
<event>
 7    1  0.6515090E-012  0.5930193E+02  0.7816164E-02  0.1266605E+00
        -11   -1    0    0    0    0  0.00000000000E+00  0.00000000000E+00  0.45593999997E+02  0.45594000000E+02  0.51100000000E-03 0. -1.
         11   -1    0    0    0    0 -0.00000000000E+00 -0.00000000000E+00 -0.45593999997E+02  0.45594000000E+02  0.51100000000E-03 0.  1.
    9900012    2    1    2    0    0 -0.29414547887E+02 -0.10036518695E+02  0.71255810884E+01  0.59301933438E+02  0.49999980688E+02 0.  0.
        -12    1    1    2    0    0  0.29414547887E+02  0.10036518695E+02 -0.71255810884E+01  0.31886066562E+02  0.00000000000E+00 0.  1.
         11    1    3    3    0    0 -0.25439042976E+02  0.11333860231E+02  0.13053951421E+02  0.30757225871E+02  0.51100000000E-03 0. -1.
        -11    1    3    3    0    0  0.16391228459E+00 -0.68976102570E+01  0.61517448210E+01  0.92438011174E+01  0.51100000000E-03 0.  1.
        -12    1    3    3    0    0 -0.41394171952E+01 -0.14472768670E+02 -0.12080115154E+02  0.19300906450E+02  0.00000000000E+00 0.  1.
</event>
<event>
 7    1  0.6515090E-012  0.5930222E+02  0.7816164E-02  0.1266604E+00
        -11   -1    0    0    0    0  0.00000000000E+00  0.00000000000E+00  0.45593999997E+02  0.45594000000E+02  0.51100000000E-03 0. -1.
         11   -1    0    0    0    0 -0.00000000000E+00 -0.00000000000E+00 -0.45593999997E+02  0.45594000000E+02  0.51100000000E-03 0.  1.
    9900012    2    1    2    0    0 -0.21623971051E+02  0.23365394378E+02 -0.17791563598E+01  0.59302216713E+02  0.50000497309E+02 0.  0.
        -12    1    1    2    0    0  0.21623971051E+02 -0.23365394378E+02  0.17791563598E+01  0.31885783287E+02  0.00000000000E+00 0.  1.
         11    1    3    3    0    0 -0.51083205096E+01 -0.24153446946E+01 -0.10941196693E+02  0.12314163136E+02  0.51100000000E-03 0. -1.
        -11    1    3    3    0    0  0.49464212031E+00 -0.78375821665E+01  0.44265915160E+01  0.90148254422E+01  0.51100000000E-03 0.  1.
         12    1    3    3    0    0 -0.17010292662E+02  0.33618321240E+02  0.47354488169E+01  0.37973228134E+02  0.00000000000E+00 0. -1.
</event>
<event>
 7    1  0.6515090E-012  0.5930210E+02  0.7816164E-02  0.1266604E+00
        -11   -1    0    0    0    0  0.00000000000E+00  0.00000000000E+00  0.45593999997E+02  0.45594000000E+02  0.51100000000E-03 0.  1.
         11   -1    0    0    0    0 -0.00000000000E+00 -0.00000000000E+00 -0.45593999997E+02  0.45594000000E+02  0.51100000000E-03 0. -1.
    9900012    2    1    2    0    0  0.27035767228E+02 -0.92915888975E+01 -0.14122479687E+02  0.59302097686E+02  0.50000280236E+02 0.  0.
        -12    1    1    2    0    0 -0.27035767228E+02  0.92915888975E+01  0.14122479687E+02  0.31885902314E+02  0.00000000000E+00 0.  1.
         11    1    3    3    0    0 -0.55096424381E+01  0.66625228030E+01  0.91019374101E+00  0.86933205856E+01  0.51100000000E-03 0.  1.
        -11    1    3    3    0    0  0.34196778379E+02 -0.20733200705E+01 -0.12037613566E+02  0.36312841368E+02  0.51100000000E-03 0. -1.
         12    1    3    3    0    0 -0.16513687126E+01 -0.13880791630E+02 -0.29950598615E+01  0.14295935733E+02  0.00000000000E+00 0. -1.
</event>
<event>
 7    1  0.6515090E-012  0.5930193E+02  0.7816164E-02  0.1266605E+00
        -11   -1    0    0    0    0  0.00000000000E+00  0.00000000000E+00  0.45593999997E+02  0.45594000000E+02  0.51100000000E-03 0.  1.
         11   -1    0    0    0    0 -0.00000000000E+00 -0.00000000000E+00 -0.45593999997E+02  0.45594000000E+02  0.51100000000E-03 0. -1.
    9900012    2    1    2    0    0 -0.91608658280E+01  0.27479841214E+02 -0.13328848405E+02  0.59301931950E+02  0.49999977974E+02 0.  0.
        -12    1    1    2    0    0  0.91608658280E+01 -0.27479841214E+02  0.13328848405E+02  0.31886068050E+02  0.00000000000E+00 0.  1.
         11    1    3    3    0    0 -0.10076349280E+02  0.26614171861E+02 -0.41450195323E+01  0.28758097049E+02  0.51100000000E-03 0. -1.
        -11    1    3    3    0    0 -0.93605601429E+01  0.98289136370E+01  0.87209547965E+00  0.13601036000E+02  0.51100000000E-03 0.  1.
         12    1    3    3    0    0  0.10276043595E+02 -0.89632442842E+01 -0.10055924352E+02  0.16942798902E+02  0.00000000000E+00 0. -1.
</event>
<event>
 7    1  0.6515090E-012  0.5930195E+02  0.7816164E-02  0.1266605E+00
        -11   -1    0    0    0    0  0.00000000000E+00  0.00000000000E+00  0.45593999997E+02  0.45594000000E+02  0.51100000000E-03 0.  1.
         11   -1    0    0    0    0 -0.00000000000E+00 -0.00000000000E+00 -0.45593999997E+02  0.45594000000E+02  0.51100000000E-03 0. -1.
    9900012    2    1    2    0    0 -0.22037167139E+02  0.14375631363E+02 -0.18011792565E+02  0.59301950010E+02  0.50000010910E+02 0.  0.
        -12    1    1    2    0    0  0.22037167139E+02 -0.14375631363E+02  0.18011792565E+02  0.31886049990E+02  0.00000000000E+00 0.  1.
         11    1    3    3    0    0 -0.72709405523E+01  0.39504779160E+01 -0.85988280717E+01  0.11933679095E+02  0.51100000000E-03 0. -1.
        -11    1    3    3    0    0 -0.27771680521E+02  0.16028478681E+02 -0.45020084863E+01  0.32379722798E+02  0.51100000000E-03 0.  1.
        -12    1    3    3    0    0  0.13005453935E+02 -0.56033252338E+01 -0.49109560067E+01  0.14988548116E+02  0.00000000000E+00 0.  1.
</event>
<event>
 7    1  0.6515090E-012  0.5930193E+02  0.7816164E-02  0.1266605E+00
        -11   -1    0    0    0    0  0.00000000000E+00  0.00000000000E+00  0.45593999997E+02  0.45594000000E+02  0.51100000000E-03 0. -1.
         11   -1    0    0    0    0 -0.00000000000E+00 -0.00000000000E+00 -0.45593999997E+02  0.45594000000E+02  0.51100000000E-03 0.  1.
    9900012    2    1    2    0    0  0.20030824108E+02  0.15060323408E+02  0.19714814291E+02  0.59301934734E+02  0.49999983051E+02 0.  0.
        -12    1    1    2    0    0 -0.20030824108E+02 -0.15060323408E+02 -0.19714814291E+02  0.31886065266E+02  0.00000000000E+00 0.  1.
         11    1    3    3    0    0 -0.16481342676E+01 -0.11486074283E+02  0.29042275452E+01  0.11961638135E+02  0.51100000000E-03 0. -1.
        -11    1    3    3    0    0  0.86973477769E+01  0.93475975216E+01 -0.75371849069E+01  0.14826685211E+02  0.51100000000E-03 0.  1.
         12    1    3    3    0    0  0.12981610598E+02  0.17198800169E+02  0.24347771653E+02  0.32513611387E+02  0.00000000000E+00 0. -1.
</event>
<event>
 7    1  0.6515090E-012  0.5930193E+02  0.7816164E-02  0.1266605E+00
        -11   -1    0    0    0    0  0.00000000000E+00  0.00000000000E+00  0.45593999997E+02  0.45594000000E+02  0.51100000000E-03 0.  1.
         11   -1    0    0    0    0 -0.00000000000E+00 -0.00000000000E+00 -0.45593999997E+02  0.45594000000E+02  0.51100000000E-03 0. -1.
    9900012    2    1    2    0    0  0.21250004466E+02  0.16524272961E+02 -0.17091144654E+02  0.59301929181E+02  0.49999972924E+02 0.  0.
        -12    1    1    2    0    0 -0.21250004466E+02 -0.16524272961E+02  0.17091144654E+02  0.31886070819E+02  0.00000000000E+00 0.  1.
         11    1    3    3    0    0  0.14539628975E+02  0.10283536017E+02  0.46618194147E-01  0.17808820771E+02  0.51100000000E-03 0. -1.
        -11    1    3    3    0    0  0.10639290454E+02  0.11495091148E+02  0.65025984945E+01  0.16959227851E+02  0.51100000000E-03 0.  1.
        -12    1    3    3    0    0 -0.39289149628E+01 -0.52543542048E+01 -0.23640361342E+02  0.24533880559E+02  0.00000000000E+00 0.  1.
</event>
<event>
 7    1  0.6515090E-012  0.5930195E+02  0.7816164E-02  0.1266605E+00
        -11   -1    0    0    0    0  0.00000000000E+00  0.00000000000E+00  0.45593999997E+02  0.45594000000E+02  0.51100000000E-03 0.  1.
         11   -1    0    0    0    0 -0.00000000000E+00 -0.00000000000E+00 -0.45593999997E+02  0.45594000000E+02  0.51100000000E-03 0. -1.
    9900012    2    1    2    0    0  0.80622257462E+01 -0.26127150228E+02 -0.16404045499E+02  0.59301950201E+02  0.50000011259E+02 0.  0.
        -12    1    1    2    0    0 -0.80622257462E+01  0.26127150228E+02  0.16404045499E+02  0.31886049799E+02  0.00000000000E+00 0.  1.
         11    1    3    3    0    0  0.76093259647E+01 -0.17816282938E+02  0.78008405046E+01  0.20884800506E+02  0.51100000000E-03 0. -1.
        -11    1    3    3    0    0  0.89445118018E+01  0.56373820826E+01 -0.18504159518E+01  0.10733517950E+02  0.51100000000E-03 0.  1.
        -12    1    3    3    0    0 -0.84916120203E+01 -0.13948249373E+02 -0.22354470052E+02  0.27683631745E+02  0.00000000000E+00 0.  1.
</event>
<event>
 7    1  0.6515090E-012  0.5930194E+02  0.7816164E-02  0.1266605E+00
        -11   -1    0    0    0    0  0.00000000000E+00  0.00000000000E+00  0.45593999997E+02  0.45594000000E+02  0.51100000000E-03 0.  1.
         11   -1    0    0    0    0 -0.00000000000E+00 -0.00000000000E+00 -0.45593999997E+02  0.45594000000E+02  0.51100000000E-03 0. -1.
    9900012    2    1    2    0    0 -0.40696468884E+01  0.31567317826E+02  0.19139501062E+01  0.59301940577E+02  0.49999993706E+02 0.  0.
        -12    1    1    2    0    0  0.40696468884E+01 -0.31567317826E+02 -0.19139501062E+01  0.31886059423E+02  0.00000000000E+00 0.  1.
         11    1    3    3    0    0  0.44394398352E+01  0.95317973946E+01 -0.55636223700E+01  0.11896120450E+02  0.51100000000E-03 0. -1.
        -11    1    3    3    0    0 -0.54612674380E+00  0.21701789163E+02 -0.13088770877E+02  0.25349197830E+02  0.51100000000E-03 0.  1.
        -12    1    3    3    0    0 -0.79629599799E+01  0.33373126866E+00  0.20566343353E+02  0.22056622296E+02  0.00000000000E+00 0.  1.
</event>
<event>
 7    1  0.6515090E-012  0.5930195E+02  0.7816164E-02  0.1266605E+00
        -11   -1    0    0    0    0  0.00000000000E+00  0.00000000000E+00  0.45593999997E+02  0.45594000000E+02  0.51100000000E-03 0.  1.
         11   -1    0    0    0    0 -0.00000000000E+00 -0.00000000000E+00 -0.45593999997E+02  0.45594000000E+02  0.51100000000E-03 0. -1.
    9900012    2    1    2    0    0  0.23469599529E+02 -0.21378470080E+01 -0.21478544726E+02  0.59301947008E+02  0.50000005435E+02 0.  0.
        -12    1    1    2    0    0 -0.23469599529E+02  0.21378470080E+01  0.21478544726E+02  0.31886052992E+02  0.00000000000E+00 0.  1.
         11    1    3    3    0    0  0.34307501943E+01 -0.76153108694E+01 -0.26311083381E+02  0.27605001639E+02  0.51100000000E-03 0. -1.
        -11    1    3    3    0    0 -0.28562466413E+01 -0.99476320763E+00 -0.50880996941E+01  0.59191602000E+01  0.51100000000E-03 0.  1.
         12    1    3    3    0    0  0.22895095976E+02  0.64722270691E+01  0.99206383488E+01  0.25777785169E+02  0.00000000000E+00 0. -1.
</event>
<event>
 7    1  0.6515090E-012  0.5930195E+02  0.7816164E-02  0.1266605E+00
        -11   -1    0    0    0    0  0.00000000000E+00  0.00000000000E+00  0.45593999997E+02  0.45594000000E+02  0.51100000000E-03 0. -1.
         11   -1    0    0    0    0 -0.00000000000E+00 -0.00000000000E+00 -0.45593999997E+02  0.45594000000E+02  0.51100000000E-03 0.  1.
    9900012    2    1    2    0    0 -0.16825083100E+01 -0.27805661837E+02  0.15515616448E+02  0.59301952609E+02  0.50000015651E+02 0.  0.
        -12    1    1    2    0    0  0.16825083100E+01  0.27805661837E+02 -0.15515616448E+02  0.31886047391E+02  0.00000000000E+00 0.  1.
         11    1    3    3    0    0 -0.86037133691E+01 -0.25033344483E+00  0.43211450495E+01  0.96311393599E+01  0.51100000000E-03 0.  1.
        -11    1    3    3    0    0  0.17183754402E+01 -0.13313820377E+02  0.25504786848E+02  0.28821949615E+02  0.51100000000E-03 0. -1.
        -12    1    3    3    0    0  0.52028296189E+01 -0.14241508016E+02 -0.14310315449E+02  0.20848863635E+02  0.00000000000E+00 0.  1.
</event>
<event>
 7    1  0.6515090E-012  0.5930192E+02  0.7816164E-02  0.1266605E+00
        -11   -1    0    0    0    0  0.00000000000E+00  0.00000000000E+00  0.45593999997E+02  0.45594000000E+02  0.51100000000E-03 0.  1.
         11   -1    0    0    0    0 -0.00000000000E+00 -0.00000000000E+00 -0.45593999997E+02  0.45594000000E+02  0.51100000000E-03 0. -1.
    9900012    2    1    2    0    0 -0.90953650526E+01  0.28012809316E+02  0.12217985804E+02  0.59301916385E+02  0.49999949586E+02 0.  0.
        -12    1    1    2    0    0  0.90953650526E+01 -0.28012809316E+02 -0.12217985804E+02  0.31886083615E+02  0.00000000000E+00 0.  1.
         11    1    3    3    0    0  0.64031909196E+01 -0.21932663435E+01  0.77109936993E+01  0.10260150842E+02  0.51100000000E-03 0. -1.
        -11    1    3    3    0    0 -0.96887205853E+01 -0.43065738951E+01  0.88030412279E+01  0.13780835258E+02  0.51100000000E-03 0.  1.
         12    1    3    3    0    0 -0.58098353869E+01  0.34512649554E+02 -0.42960491227E+01  0.35260930285E+02  0.00000000000E+00 0. -1.
</event>
<event>
 7    1  0.6515090E-012  0.5930190E+02  0.7816164E-02  0.1266605E+00
        -11   -1    0    0    0    0  0.00000000000E+00  0.00000000000E+00  0.45593999997E+02  0.45594000000E+02  0.51100000000E-03 0.  1.
         11   -1    0    0    0    0 -0.00000000000E+00 -0.00000000000E+00 -0.45593999997E+02  0.45594000000E+02  0.51100000000E-03 0. -1.
    9900012    2    1    2    0    0  0.45185449737E+01  0.29064272218E+02 -0.12311554802E+02  0.59301897230E+02  0.49999914652E+02 0.  0.
        -12    1    1    2    0    0 -0.45185449737E+01 -0.29064272218E+02  0.12311554802E+02  0.31886102770E+02  0.00000000000E+00 0.  1.
         11    1    3    3    0    0  0.14060572361E+02  0.94864490941E+01 -0.12625289336E+02  0.21144510933E+02  0.51100000000E-03 0. -1.
        -11    1    3    3    0    0  0.10556895945E+02  0.12626525547E+02 -0.26984090438E+01  0.16678087750E+02  0.51100000000E-03 0.  1.
         12    1    3    3    0    0 -0.20098923332E+02  0.69512975767E+01  0.30121435779E+01  0.21479298546E+02  0.00000000000E+00 0. -1.
</event>
<event>
 7    1  0.6515090E-012  0.5930194E+02  0.7816164E-02  0.1266605E+00
        -11   -1    0    0    0    0  0.00000000000E+00  0.00000000000E+00  0.45593999997E+02  0.45594000000E+02  0.51100000000E-03 0. -1.
         11   -1    0    0    0    0 -0.00000000000E+00 -0.00000000000E+00 -0.45593999997E+02  0.45594000000E+02  0.51100000000E-03 0.  1.
    9900012    2    1    2    0    0  0.10297121477E+02 -0.10880412689E+02  0.28147940553E+02  0.59301942728E+02  0.49999997630E+02 0.  0.
        -12    1    1    2    0    0 -0.10297121477E+02  0.10880412689E+02 -0.28147940553E+02  0.31886057272E+02  0.00000000000E+00 0.  1.
         11    1    3    3    0    0 -0.72562567529E+01 -0.17719076142E+01  0.37218802331E+01  0.83453766474E+01  0.51100000000E-03 0. -1.
        -11    1    3    3    0    0  0.25793483146E+02 -0.16054507977E+02  0.81848459190E+01  0.31464944020E+02  0.51100000000E-03 0.  1.
         12    1    3    3    0    0 -0.82401049163E+01  0.69460029026E+01  0.16241214401E+02  0.19491622061E+02  0.00000000000E+00 0. -1.
</event>
<event>
 7    1  0.6515090E-012  0.5930193E+02  0.7816164E-02  0.1266605E+00
        -11   -1    0    0    0    0  0.00000000000E+00  0.00000000000E+00  0.45593999997E+02  0.45594000000E+02  0.51100000000E-03 0. -1.
         11   -1    0    0    0    0 -0.00000000000E+00 -0.00000000000E+00 -0.45593999997E+02  0.45594000000E+02  0.51100000000E-03 0.  1.
    9900012    2    1    2    0    0  0.26499275009E+02 -0.10539313252E+02  0.14262979462E+02  0.59301932777E+02  0.49999979481E+02 0.  0.
        -12    1    1    2    0    0 -0.26499275009E+02  0.10539313252E+02 -0.14262979462E+02  0.31886067223E+02  0.00000000000E+00 0.  1.
         11    1    3    3    0    0  0.14739745481E+02  0.37239535983E+01  0.17010440434E+02  0.22814096766E+02  0.51100000000E-03 0. -1.
        -11    1    3    3    0    0 -0.98529549327E+00  0.93463024782E+01 -0.22010327492E+01  0.96523946587E+01  0.51100000000E-03 0.  1.
        -12    1    3    3    0    0  0.12744825022E+02 -0.23609569329E+02 -0.54642822316E+00  0.26835441351E+02  0.00000000000E+00 0.  1.
</event>
<event>
 7    1  0.6515090E-012  0.5930197E+02  0.7816164E-02  0.1266605E+00
        -11   -1    0    0    0    0  0.00000000000E+00  0.00000000000E+00  0.45593999997E+02  0.45594000000E+02  0.51100000000E-03 0. -1.
         11   -1    0    0    0    0 -0.00000000000E+00 -0.00000000000E+00 -0.45593999997E+02  0.45594000000E+02  0.51100000000E-03 0.  1.
    9900012    2    1    2    0    0 -0.72877333676E+01 -0.19501341755E+02  0.24151724452E+02  0.59301965723E+02  0.50000039568E+02 0.  0.
        -12    1    1    2    0    0  0.72877333676E+01  0.19501341755E+02 -0.24151724452E+02  0.31886034277E+02  0.00000000000E+00 0.  1.
         11    1    3    3    0    0 -0.15723794762E+02 -0.67209105491E+01  0.21475779230E+02  0.27452093802E+02  0.51100000000E-03 0. -1.
        -11    1    3    3    0    0  0.43681975663E+01 -0.21309816935E+02  0.45308906112E+01  0.22219775377E+02  0.51100000000E-03 0.  1.
        -12    1    3    3    0    0  0.40678638285E+01  0.85293857299E+01 -0.18549453890E+01  0.96300965443E+01  0.00000000000E+00 0.  1.
</event>
<event>
 7    1  0.6515090E-012  0.5930192E+02  0.7816164E-02  0.1266605E+00
        -11   -1    0    0    0    0  0.00000000000E+00  0.00000000000E+00  0.45593999997E+02  0.45594000000E+02  0.51100000000E-03 0. -1.
         11   -1    0    0    0    0 -0.00000000000E+00 -0.00000000000E+00 -0.45593999997E+02  0.45594000000E+02  0.51100000000E-03 0.  1.
    9900012    2    1    2    0    0  0.12239245604E+02 -0.29046934432E+02 -0.48165133664E+01  0.59301916298E+02  0.49999949427E+02 0.  0.
        -12    1    1    2    0    0 -0.12239245604E+02  0.29046934432E+02  0.48165133664E+01  0.31886083702E+02  0.00000000000E+00 0.  1.
         11    1    3    3    0    0 -0.90156674809E+00  0.16042640964E+01 -0.15298379417E+01  0.23930922008E+01  0.51100000000E-03 0. -1.
        -11    1    3    3    0    0  0.13370670633E+02  0.17869436826E+01  0.14589747847E+02  0.19870298020E+02  0.51100000000E-03 0.  1.
         12    1    3    3    0    0 -0.22985828179E+00 -0.32438142211E+02 -0.17876423272E+02  0.37038526077E+02  0.00000000000E+00 0. -1.
</event>
<event>
 7    1  0.6515090E-012  0.5930194E+02  0.7816164E-02  0.1266605E+00
        -11   -1    0    0    0    0  0.00000000000E+00  0.00000000000E+00  0.45593999997E+02  0.45594000000E+02  0.51100000000E-03 0.  1.
         11   -1    0    0    0    0 -0.00000000000E+00 -0.00000000000E+00 -0.45593999997E+02  0.45594000000E+02  0.51100000000E-03 0. -1.
    9900012    2    1    2    0    0  0.16132423126E+01  0.70949095332E+00 -0.31837321988E+02  0.59301937221E+02  0.49999987586E+02 0.  0.
        -12    1    1    2    0    0 -0.16132423126E+01 -0.70949095332E+00  0.31837321988E+02  0.31886062779E+02  0.00000000000E+00 0.  1.
         11    1    3    3    0    0  0.43834425835E+01  0.11377746895E+02 -0.11202867869E+02  0.16558138242E+02  0.51100000000E-03 0. -1.
        -11    1    3    3    0    0  0.95477373810E+01  0.97112443703E+01 -0.73105728899E+01  0.15456779501E+02  0.51100000000E-03 0.  1.
         12    1    3    3    0    0 -0.12317937652E+02 -0.20379500312E+02 -0.13323881229E+02  0.27287019477E+02  0.00000000000E+00 0. -1.
</event>
<event>
 7    1  0.6515090E-012  0.5930195E+02  0.7816164E-02  0.1266605E+00
        -11   -1    0    0    0    0  0.00000000000E+00  0.00000000000E+00  0.45593999997E+02  0.45594000000E+02  0.51100000000E-03 0.  1.
         11   -1    0    0    0    0 -0.00000000000E+00 -0.00000000000E+00 -0.45593999997E+02  0.45594000000E+02  0.51100000000E-03 0. -1.
    9900012    2    1    2    0    0  0.28802005169E+02  0.22589137748E+01 -0.13493025129E+02  0.59301954144E+02  0.50000018450E+02 0.  0.
        -12    1    1    2    0    0 -0.28802005169E+02 -0.22589137748E+01  0.13493025129E+02  0.31886045856E+02  0.00000000000E+00 0.  1.
         11    1    3    3    0    0  0.65378065517E+01  0.16589805404E+02 -0.48473111705E+01  0.18478662930E+02  0.51100000000E-03 0. -1.
        -11    1    3    3    0    0 -0.61283987167E+01 -0.70949353067E+01 -0.65730882753E+01  0.11449928715E+02  0.51100000000E-03 0.  1.
         12    1    3    3    0    0  0.28392597334E+02 -0.72359563222E+01 -0.20726256832E+01  0.29373362499E+02  0.00000000000E+00 0. -1.
</event>
<event>
 7    1  0.6515090E-012  0.5930196E+02  0.7816164E-02  0.1266605E+00
        -11   -1    0    0    0    0  0.00000000000E+00  0.00000000000E+00  0.45593999997E+02  0.45594000000E+02  0.51100000000E-03 0. -1.
         11   -1    0    0    0    0 -0.00000000000E+00 -0.00000000000E+00 -0.45593999997E+02  0.45594000000E+02  0.51100000000E-03 0.  1.
    9900012    2    1    2    0    0  0.11011828728E+02  0.27249572891E+02 -0.12366082012E+02  0.59301959497E+02  0.50000028211E+02 0.  0.
        -12    1    1    2    0    0 -0.11011828728E+02 -0.27249572891E+02  0.12366082012E+02  0.31886040503E+02  0.00000000000E+00 0.  1.
         11    1    3    3    0    0  0.14202688663E+02 -0.31978747255E+01 -0.13587178761E+01  0.14621521212E+02  0.51100000000E-03 0. -1.
        -11    1    3    3    0    0 -0.33744163056E+01  0.44091704036E+01 -0.17065560992E+02  0.17946053641E+02  0.51100000000E-03 0.  1.
         12    1    3    3    0    0  0.18355637008E+00  0.26038277213E+02  0.60581968557E+01  0.26734384644E+02  0.00000000000E+00 0. -1.
</event>
<event>
 7    1  0.6515090E-012  0.5930182E+02  0.7816164E-02  0.1266605E+00
        -11   -1    0    0    0    0  0.00000000000E+00  0.00000000000E+00  0.45593999997E+02  0.45594000000E+02  0.51100000000E-03 0.  1.
         11   -1    0    0    0    0 -0.00000000000E+00 -0.00000000000E+00 -0.45593999997E+02  0.45594000000E+02  0.51100000000E-03 0. -1.
    9900012    2    1    2    0    0  0.45005305269E+01 -0.17763696702E+02 -0.26094537647E+02  0.59301818188E+02  0.49999770498E+02 0.  0.
        -12    1    1    2    0    0 -0.45005305269E+01  0.17763696702E+02  0.26094537647E+02  0.31886181812E+02  0.00000000000E+00 0.  1.
         11    1    3    3    0    0  0.32579732319E+01 -0.15272578774E+02 -0.15861969392E+02  0.22259113307E+02  0.51100000000E-03 0. -1.
        -11    1    3    3    0    0  0.12908274705E+02  0.71349605216E+01 -0.15145358771E+02  0.21140319536E+02  0.51100000000E-03 0.  1.
        -12    1    3    3    0    0 -0.11665717410E+02 -0.96260784497E+01  0.49127905154E+01  0.15902385345E+02  0.00000000000E+00 0.  1.
</event>
<event>
 7    1  0.6515090E-012  0.5930200E+02  0.7816164E-02  0.1266605E+00
        -11   -1    0    0    0    0  0.00000000000E+00  0.00000000000E+00  0.45593999997E+02  0.45594000000E+02  0.51100000000E-03 0. -1.
         11   -1    0    0    0    0 -0.00000000000E+00 -0.00000000000E+00 -0.45593999997E+02  0.45594000000E+02  0.51100000000E-03 0.  1.
    9900012    2    1    2    0    0  0.49080705957E+01 -0.11612533109E+02  0.29287827567E+02  0.59302001101E+02  0.50000104088E+02 0.  0.
        -12    1    1    2    0    0 -0.49080705957E+01  0.11612533109E+02 -0.29287827567E+02  0.31885998899E+02  0.00000000000E+00 0.  1.
         11    1    3    3    0    0  0.11979459477E+02  0.10607876395E+01  0.83376039755E+01  0.14633808803E+02  0.51100000000E-03 0. -1.
        -11    1    3    3    0    0 -0.34879225494E+01  0.12984803778E+02  0.56803911083E+01  0.14595806805E+02  0.51100000000E-03 0.  1.
        -12    1    3    3    0    0 -0.35834663319E+01 -0.25658124527E+02  0.15269832483E+02  0.30072385493E+02  0.00000000000E+00 0.  1.
</event>
<event>
 7    1  0.6515090E-012  0.5930192E+02  0.7816164E-02  0.1266605E+00
        -11   -1    0    0    0    0  0.00000000000E+00  0.00000000000E+00  0.45593999997E+02  0.45594000000E+02  0.51100000000E-03 0.  1.
         11   -1    0    0    0    0 -0.00000000000E+00 -0.00000000000E+00 -0.45593999997E+02  0.45594000000E+02  0.51100000000E-03 0. -1.
    9900012    2    1    2    0    0  0.20293723004E+02 -0.87451659580E+01  0.22987147701E+02  0.59301920272E+02  0.49999956675E+02 0.  0.
        -12    1    1    2    0    0 -0.20293723004E+02  0.87451659580E+01 -0.22987147701E+02  0.31886079728E+02  0.00000000000E+00 0.  1.
         11    1    3    3    0    0  0.27301248010E+02 -0.15775817536E+02  0.24330201614E+02  0.39827041977E+02  0.51100000000E-03 0. -1.
        -11    1    3    3    0    0 -0.23605509523E+01 -0.51643869766E+01 -0.28220858563E+01  0.63409196876E+01  0.51100000000E-03 0.  1.
        -12    1    3    3    0    0 -0.46469740536E+01  0.12195038555E+02  0.14790319432E+01  0.13133958607E+02  0.00000000000E+00 0.  1.
</event>
<event>
 7    1  0.6515090E-012  0.5930194E+02  0.7816164E-02  0.1266605E+00
        -11   -1    0    0    0    0  0.00000000000E+00  0.00000000000E+00  0.45593999997E+02  0.45594000000E+02  0.51100000000E-03 0. -1.
         11   -1    0    0    0    0 -0.00000000000E+00 -0.00000000000E+00 -0.45593999997E+02  0.45594000000E+02  0.51100000000E-03 0.  1.
    9900012    2    1    2    0    0  0.25881152086E+02  0.48194759461E+01  0.17990533750E+02  0.59301942133E+02  0.49999996544E+02 0.  0.
        -12    1    1    2    0    0 -0.25881152086E+02 -0.48194759461E+01 -0.17990533750E+02  0.31886057867E+02  0.00000000000E+00 0.  1.
         11    1    3    3    0    0  0.14950286461E+01  0.69144580528E+01 -0.13675662735E+02  0.15397031932E+02  0.51100000000E-03 0. -1.
        -11    1    3    3    0    0  0.34411832038E+01  0.39219832260E+01 -0.28984597631E+00  0.52256774889E+01  0.51100000000E-03 0.  1.
         12    1    3    3    0    0  0.20944940236E+02 -0.60169653327E+01  0.31956042462E+02  0.38679232711E+02  0.00000000000E+00 0. -1.
</event>
<event>
 7    1  0.6515090E-012  0.5930194E+02  0.7816164E-02  0.1266605E+00
        -11   -1    0    0    0    0  0.00000000000E+00  0.00000000000E+00  0.45593999997E+02  0.45594000000E+02  0.51100000000E-03 0. -1.
         11   -1    0    0    0    0 -0.00000000000E+00 -0.00000000000E+00 -0.45593999997E+02  0.45594000000E+02  0.51100000000E-03 0.  1.
    9900012    2    1    2    0    0  0.34393228543E+01 -0.20653643928E+02  0.24048259190E+02  0.59301941615E+02  0.49999995601E+02 0.  0.
        -12    1    1    2    0    0 -0.34393228543E+01  0.20653643928E+02 -0.24048259190E+02  0.31886058385E+02  0.00000000000E+00 0.  1.
         11    1    3    3    0    0  0.15247091966E+01  0.41661195972E+00 -0.91200647716E+00  0.18248451262E+01  0.51100000000E-03 0. -1.
        -11    1    3    3    0    0  0.15251033935E+02 -0.24304477249E+02 -0.33943591798E+00  0.28695241199E+02  0.51100000000E-03 0.  1.
         12    1    3    3    0    0 -0.13336420278E+02  0.32342213611E+01  0.25299701586E+02  0.28781855290E+02  0.00000000000E+00 0. -1.
</event>
<event>
 7    1  0.6515090E-012  0.5930194E+02  0.7816164E-02  0.1266605E+00
        -11   -1    0    0    0    0  0.00000000000E+00  0.00000000000E+00  0.45593999997E+02  0.45594000000E+02  0.51100000000E-03 0. -1.
         11   -1    0    0    0    0 -0.00000000000E+00 -0.00000000000E+00 -0.45593999997E+02  0.45594000000E+02  0.51100000000E-03 0.  1.
    9900012    2    1    2    0    0  0.21436399379E+02 -0.77564391519E+01  0.22294384189E+02  0.59301935128E+02  0.49999983769E+02 0.  0.
        -12    1    1    2    0    0 -0.21436399379E+02  0.77564391519E+01 -0.22294384189E+02  0.31886064872E+02  0.00000000000E+00 0.  1.
         11    1    3    3    0    0  0.15931182884E+02 -0.18805268963E+02  0.22428310276E+02  0.33323712742E+02  0.51100000000E-03 0. -1.
        -11    1    3    3    0    0  0.31646726312E+00 -0.70973078322E+01 -0.26445305505E-02  0.71043604391E+01  0.51100000000E-03 0.  1.
         12    1    3    3    0    0  0.51887492317E+01  0.18146137643E+02 -0.13128155655E+00  0.18873861947E+02  0.00000000000E+00 0. -1.
</event>
<event>
 7    1  0.6515090E-012  0.5930194E+02  0.7816164E-02  0.1266605E+00
        -11   -1    0    0    0    0  0.00000000000E+00  0.00000000000E+00  0.45593999997E+02  0.45594000000E+02  0.51100000000E-03 0.  1.
         11   -1    0    0    0    0 -0.00000000000E+00 -0.00000000000E+00 -0.45593999997E+02  0.45594000000E+02  0.51100000000E-03 0. -1.
    9900012    2    1    2    0    0  0.98221133399E+01 -0.16575995296E+02 -0.25406359928E+02  0.59301942619E+02  0.49999997431E+02 0.  0.
        -12    1    1    2    0    0 -0.98221133399E+01  0.16575995296E+02  0.25406359928E+02  0.31886057381E+02  0.00000000000E+00 0.  1.
         11    1    3    3    0    0 -0.69107143472E+01 -0.81779398222E+01 -0.68297837515E+01  0.12699709401E+02  0.51100000000E-03 0. -1.
        -11    1    3    3    0    0 -0.12115215338E+02 -0.65058508012E+01 -0.46835295555E+01  0.14527215380E+02  0.51100000000E-03 0.  1.
         12    1    3    3    0    0  0.28848043025E+02 -0.18922046724E+01 -0.13893046621E+02  0.32075017838E+02  0.00000000000E+00 0. -1.
</event>
<event>
 7    1  0.6515090E-012  0.5930207E+02  0.7816164E-02  0.1266604E+00
        -11   -1    0    0    0    0  0.00000000000E+00  0.00000000000E+00  0.45593999997E+02  0.45594000000E+02  0.51100000000E-03 0.  1.
         11   -1    0    0    0    0 -0.00000000000E+00 -0.00000000000E+00 -0.45593999997E+02  0.45594000000E+02  0.51100000000E-03 0. -1.
    9900012    2    1    2    0    0 -0.56977338171E+00  0.25113461101E+02 -0.19639293774E+02  0.59302071597E+02  0.50000232655E+02 0.  0.
        -12    1    1    2    0    0  0.56977338171E+00 -0.25113461101E+02  0.19639293774E+02  0.31885928403E+02  0.00000000000E+00 0.  1.
         11    1    3    3    0    0  0.21580371399E+01  0.38660308816E+02 -0.13196360643E+02  0.40907463091E+02  0.51100000000E-03 0. -1.
        -11    1    3    3    0    0 -0.51172652550E+01 -0.23511236368E+01 -0.32830768148E+01  0.65186486083E+01  0.51100000000E-03 0.  1.
        -12    1    3    3    0    0  0.23894547334E+01 -0.11195724078E+02 -0.31598563163E+01  0.11875959898E+02  0.00000000000E+00 0.  1.
</event>
<event>
 7    1  0.6515090E-012  0.5930197E+02  0.7816164E-02  0.1266605E+00
        -11   -1    0    0    0    0  0.00000000000E+00  0.00000000000E+00  0.45593999997E+02  0.45594000000E+02  0.51100000000E-03 0. -1.
         11   -1    0    0    0    0 -0.00000000000E+00 -0.00000000000E+00 -0.45593999997E+02  0.45594000000E+02  0.51100000000E-03 0.  1.
    9900012    2    1    2    0    0 -0.10403340851E+02 -0.22823487836E+02  0.19687001896E+02  0.59301966357E+02  0.50000040723E+02 0.  0.
        -12    1    1    2    0    0  0.10403340851E+02  0.22823487836E+02 -0.19687001896E+02  0.31886033643E+02  0.00000000000E+00 0.  1.
         11    1    3    3    0    0 -0.18054227269E+01 -0.81849890053E+01  0.19356550686E+02  0.21093355612E+02  0.51100000000E-03 0. -1.
        -11    1    3    3    0    0 -0.21520826563E+02 -0.12261557368E+02 -0.20560519909E+01  0.24853955723E+02  0.51100000000E-03 0.  1.
         12    1    3    3    0    0  0.12922908439E+02 -0.23769414626E+01  0.23865032006E+01  0.13354655022E+02  0.00000000000E+00 0. -1.
</event>
<event>
 7    1  0.6515090E-012  0.5930191E+02  0.7816164E-02  0.1266605E+00
        -11   -1    0    0    0    0  0.00000000000E+00  0.00000000000E+00  0.45593999997E+02  0.45594000000E+02  0.51100000000E-03 0. -1.
         11   -1    0    0    0    0 -0.00000000000E+00 -0.00000000000E+00 -0.45593999997E+02  0.45594000000E+02  0.51100000000E-03 0.  1.
    9900012    2    1    2    0    0  0.23841192500E+02  0.71767075179E+01 -0.19920219258E+02  0.59301910150E+02  0.49999938215E+02 0.  0.
        -12    1    1    2    0    0 -0.23841192500E+02 -0.71767075179E+01  0.19920219258E+02  0.31886089850E+02  0.00000000000E+00 0.  1.
         11    1    3    3    0    0  0.17120881813E+02  0.11943755776E+02 -0.43303400277E+01  0.21319703120E+02  0.51100000000E-03 0. -1.
        -11    1    3    3    0    0 -0.64933268069E+01  0.11780599496E+02 -0.56680316928E+01  0.14596999727E+02  0.51100000000E-03 0.  1.
        -12    1    3    3    0    0  0.13213637494E+02 -0.16547647754E+02 -0.99218475378E+01  0.23385207303E+02  0.00000000000E+00 0.  1.
</event>
<event>
 7    1  0.6515090E-012  0.5930191E+02  0.7816164E-02  0.1266605E+00
        -11   -1    0    0    0    0  0.00000000000E+00  0.00000000000E+00  0.45593999997E+02  0.45594000000E+02  0.51100000000E-03 0.  1.
         11   -1    0    0    0    0 -0.00000000000E+00 -0.00000000000E+00 -0.45593999997E+02  0.45594000000E+02  0.51100000000E-03 0. -1.
    9900012    2    1    2    0    0 -0.30244244123E+02 -0.70961576671E+01  0.71870151750E+01  0.59301906741E+02  0.49999931998E+02 0.  0.
        -12    1    1    2    0    0  0.30244244123E+02  0.70961576671E+01 -0.71870151750E+01  0.31886093259E+02  0.00000000000E+00 0.  1.
         11    1    3    3    0    0  0.15561007265E+01 -0.37624446681E+01  0.18867327805E+01  0.44874491861E+01  0.51100000000E-03 0.  1.
        -11    1    3    3    0    0 -0.11840851769E+02 -0.21886931657E+02  0.10608536392E+02  0.27051517381E+02  0.51100000000E-03 0. -1.
         12    1    3    3    0    0 -0.19959493080E+02  0.18553218658E+02 -0.53082539975E+01  0.27762940174E+02  0.00000000000E+00 0. -1.
</event>
<event>
 7    1  0.6515090E-012  0.5930197E+02  0.7816164E-02  0.1266605E+00
        -11   -1    0    0    0    0  0.00000000000E+00  0.00000000000E+00  0.45593999997E+02  0.45594000000E+02  0.51100000000E-03 0. -1.
         11   -1    0    0    0    0 -0.00000000000E+00 -0.00000000000E+00 -0.45593999997E+02  0.45594000000E+02  0.51100000000E-03 0.  1.
    9900012    2    1    2    0    0  0.20120985182E+02  0.24564041264E+02 -0.29108476438E+01  0.59301965410E+02  0.50000038995E+02 0.  0.
        -12    1    1    2    0    0 -0.20120985182E+02 -0.24564041264E+02  0.29108476438E+01  0.31886034590E+02  0.00000000000E+00 0.  1.
         11    1    3    3    0    0  0.12139055070E+02 -0.38706526548E+01  0.66086715707E+01  0.14353158194E+02  0.51100000000E-03 0. -1.
        -11    1    3    3    0    0  0.96910697882E+01  0.87044125542E+00 -0.13919676255E+02  0.16983282631E+02  0.51100000000E-03 0.  1.
        -12    1    3    3    0    0 -0.17091396760E+01  0.27564252663E+02  0.44001570404E+01  0.27965524585E+02  0.00000000000E+00 0.  1.
</event>
<event>
 7    1  0.6515090E-012  0.5930196E+02  0.7816164E-02  0.1266605E+00
        -11   -1    0    0    0    0  0.00000000000E+00  0.00000000000E+00  0.45593999997E+02  0.45594000000E+02  0.51100000000E-03 0.  1.
         11   -1    0    0    0    0 -0.00000000000E+00 -0.00000000000E+00 -0.45593999997E+02  0.45594000000E+02  0.51100000000E-03 0. -1.
    9900012    2    1    2    0    0  0.60773288012E+01 -0.23639563506E+00 -0.31300637315E+02  0.59301957528E+02  0.50000024620E+02 0.  0.
        -12    1    1    2    0    0 -0.60773288012E+01  0.23639563506E+00  0.31300637315E+02  0.31886042472E+02  0.00000000000E+00 0.  1.
         11    1    3    3    0    0  0.14978948546E+02 -0.12527831272E+02 -0.44335294328E+01  0.20024276252E+02  0.51100000000E-03 0. -1.
        -11    1    3    3    0    0  0.42850541744E+01 -0.35666817000E+01 -0.21747578089E+00  0.55794447397E+01  0.51100000000E-03 0.  1.
        -12    1    3    3    0    0 -0.13186673919E+02  0.15858117337E+02 -0.26649632101E+02  0.33698236536E+02  0.00000000000E+00 0.  1.
</event>
<event>
 7    1  0.6515090E-012  0.5930199E+02  0.7816164E-02  0.1266605E+00
        -11   -1    0    0    0    0  0.00000000000E+00  0.00000000000E+00  0.45593999997E+02  0.45594000000E+02  0.51100000000E-03 0. -1.
         11   -1    0    0    0    0 -0.00000000000E+00 -0.00000000000E+00 -0.45593999997E+02  0.45594000000E+02  0.51100000000E-03 0.  1.
    9900012    2    1    2    0    0  0.13895373528E+02  0.28531763314E+02  0.30942798177E+01  0.59301992240E+02  0.50000087928E+02 0.  0.
        -12    1    1    2    0    0 -0.13895373528E+02 -0.28531763314E+02 -0.30942798177E+01  0.31886007760E+02  0.00000000000E+00 0.  1.
         11    1    3    3    0    0 -0.16336275770E+02  0.15089030608E+02  0.34428800353E-01  0.22238568667E+02  0.51100000000E-03 0. -1.
        -11    1    3    3    0    0 -0.15718789977E+01  0.11362088749E+01  0.22249861362E+01  0.29516669457E+01  0.51100000000E-03 0.  1.
         12    1    3    3    0    0  0.31803528296E+02  0.12306523830E+02  0.83486488113E+00  0.34111756628E+02  0.00000000000E+00 0. -1.
</event>
<event>
 7    1  0.6515090E-012  0.5930200E+02  0.7816164E-02  0.1266605E+00
        -11   -1    0    0    0    0  0.00000000000E+00  0.00000000000E+00  0.45593999997E+02  0.45594000000E+02  0.51100000000E-03 0.  1.
         11   -1    0    0    0    0 -0.00000000000E+00 -0.00000000000E+00 -0.45593999997E+02  0.45594000000E+02  0.51100000000E-03 0. -1.
    9900012    2    1    2    0    0 -0.26340176092E+02  0.65501819317E+01 -0.16733423368E+02  0.59301996526E+02  0.50000095745E+02 0.  0.
        -12    1    1    2    0    0  0.26340176092E+02 -0.65501819317E+01  0.16733423368E+02  0.31886003474E+02  0.00000000000E+00 0.  1.
         11    1    3    3    0    0 -0.24350111233E+02  0.10509823610E+02 -0.72880704200E+01  0.27504550170E+02  0.51100000000E-03 0. -1.
        -11    1    3    3    0    0 -0.26030842873E+01  0.11884623023E+02  0.18817816048E+01  0.12311028165E+02  0.51100000000E-03 0.  1.
        -12    1    3    3    0    0  0.61301942799E+00 -0.15844264701E+02 -0.11327134553E+02  0.19486418191E+02  0.00000000000E+00 0.  1.
</event>
<event>
 7    1  0.6515090E-012  0.5930197E+02  0.7816164E-02  0.1266605E+00
        -11   -1    0    0    0    0  0.00000000000E+00  0.00000000000E+00  0.45593999997E+02  0.45594000000E+02  0.51100000000E-03 0. -1.
         11   -1    0    0    0    0 -0.00000000000E+00 -0.00000000000E+00 -0.45593999997E+02  0.45594000000E+02  0.51100000000E-03 0.  1.
    9900012    2    1    2    0    0  0.19160252852E+02  0.18605966071E+02 -0.17419010490E+02  0.59301965609E+02  0.50000039358E+02 0.  0.
        -12    1    1    2    0    0 -0.19160252852E+02 -0.18605966071E+02  0.17419010490E+02  0.31886034391E+02  0.00000000000E+00 0.  1.
         11    1    3    3    0    0  0.19019248388E+01 -0.10618340112E+01 -0.86766097893E+01  0.89458575473E+01  0.51100000000E-03 0. -1.
        -11    1    3    3    0    0 -0.84118512014E+01  0.14403125740E+01 -0.15921583707E+02  0.18064622026E+02  0.51100000000E-03 0.  1.
         12    1    3    3    0    0  0.25670179214E+02  0.18227487508E+02  0.71791830061E+01  0.32291486036E+02  0.00000000000E+00 0. -1.
</event>
<event>
 7    1  0.6515090E-012  0.5930197E+02  0.7816164E-02  0.1266605E+00
        -11   -1    0    0    0    0  0.00000000000E+00  0.00000000000E+00  0.45593999997E+02  0.45594000000E+02  0.51100000000E-03 0.  1.
         11   -1    0    0    0    0 -0.00000000000E+00 -0.00000000000E+00 -0.45593999997E+02  0.45594000000E+02  0.51100000000E-03 0. -1.
    9900012    2    1    2    0    0  0.31039092113E+02  0.13187132513E+01 -0.71801781567E+01  0.59301965404E+02  0.50000038986E+02 0.  0.
        -12    1    1    2    0    0 -0.31039092113E+02 -0.13187132513E+01  0.71801781567E+01  0.31886034596E+02  0.00000000000E+00 0.  1.
         11    1    3    3    0    0  0.14913576686E+02  0.13552743377E+02  0.15919445457E+02  0.25681128607E+02  0.51100000000E-03 0.  1.
        -11    1    3    3    0    0  0.24841920442E+01  0.26933119090E+01 -0.13034830529E+01  0.38889854052E+01  0.51100000000E-03 0. -1.
        -12    1    3    3    0    0  0.13641323384E+02 -0.14927342035E+02 -0.21796140560E+02  0.29731851392E+02  0.00000000000E+00 0.  1.
</event>
<event>
 7    1  0.6515090E-012  0.5930195E+02  0.7816164E-02  0.1266605E+00
        -11   -1    0    0    0    0  0.00000000000E+00  0.00000000000E+00  0.45593999997E+02  0.45594000000E+02  0.51100000000E-03 0.  1.
         11   -1    0    0    0    0 -0.00000000000E+00 -0.00000000000E+00 -0.45593999997E+02  0.45594000000E+02  0.51100000000E-03 0. -1.
    9900012    2    1    2    0    0 -0.81422833190E+01  0.23401514743E+01 -0.30739993234E+02  0.59301948652E+02  0.50000008434E+02 0.  0.
        -12    1    1    2    0    0  0.81422833190E+01 -0.23401514743E+01  0.30739993234E+02  0.31886051348E+02  0.00000000000E+00 0.  1.
         11    1    3    3    0    0  0.77047079532E+01 -0.14227190788E+02 -0.23842468291E+02  0.28813864316E+02  0.51100000000E-03 0. -1.
        -11    1    3    3    0    0 -0.68288719863E+01 -0.11732297722E+01 -0.79666291933E+01  0.10558273612E+02  0.51100000000E-03 0.  1.
        -12    1    3    3    0    0 -0.90181192859E+01  0.17740572035E+02  0.10691042510E+01  0.19929810723E+02  0.00000000000E+00 0.  1.
</event>
<event>
 7    1  0.6515090E-012  0.5930200E+02  0.7816164E-02  0.1266605E+00
        -11   -1    0    0    0    0  0.00000000000E+00  0.00000000000E+00  0.45593999997E+02  0.45594000000E+02  0.51100000000E-03 0.  1.
         11   -1    0    0    0    0 -0.00000000000E+00 -0.00000000000E+00 -0.45593999997E+02  0.45594000000E+02  0.51100000000E-03 0. -1.
    9900012    2    1    2    0    0 -0.26623705643E+02 -0.17082247865E+02 -0.40114943817E+01  0.59302000228E+02  0.50000102496E+02 0.  0.
        -12    1    1    2    0    0  0.26623705643E+02  0.17082247865E+02  0.40114943817E+01  0.31885999772E+02  0.00000000000E+00 0.  1.
         11    1    3    3    0    0 -0.11972103792E+02 -0.23668735806E+00  0.54825335368E+01  0.13169869565E+02  0.51100000000E-03 0.  1.
        -11    1    3    3    0    0 -0.24198186905E+02 -0.92899853111E+01 -0.17756069575E+02  0.31418690036E+02  0.51100000000E-03 0. -1.
        -12    1    3    3    0    0  0.95465850547E+01 -0.75555751959E+01  0.82620416566E+01  0.14713440627E+02  0.00000000000E+00 0.  1.
</event>
<event>
 7    1  0.6515090E-012  0.5930196E+02  0.7816164E-02  0.1266605E+00
        -11   -1    0    0    0    0  0.00000000000E+00  0.00000000000E+00  0.45593999997E+02  0.45594000000E+02  0.51100000000E-03 0.  1.
         11   -1    0    0    0    0 -0.00000000000E+00 -0.00000000000E+00 -0.45593999997E+02  0.45594000000E+02  0.51100000000E-03 0. -1.
    9900012    2    1    2    0    0 -0.29557177353E+02  0.59892291315E+01 -0.10354788126E+02  0.59301964878E+02  0.50000038027E+02 0.  0.
        -12    1    1    2    0    0  0.29557177353E+02 -0.59892291315E+01  0.10354788126E+02  0.31886035122E+02  0.00000000000E+00 0.  1.
         11    1    3    3    0    0 -0.19032099002E+02 -0.43780012852E+01 -0.16301979547E+02  0.25438990253E+02  0.51100000000E-03 0. -1.
        -11    1    3    3    0    0  0.62631282935E+01  0.10807368198E+02 -0.53859383680E+01  0.13602731923E+02  0.51100000000E-03 0.  1.
        -12    1    3    3    0    0 -0.16788206644E+02 -0.44013778161E+00  0.11333129789E+02  0.20260242703E+02  0.00000000000E+00 0.  1.
</event>
<event>
 7    1  0.6515090E-012  0.5930194E+02  0.7816164E-02  0.1266605E+00
        -11   -1    0    0    0    0  0.00000000000E+00  0.00000000000E+00  0.45593999997E+02  0.45594000000E+02  0.51100000000E-03 0.  1.
         11   -1    0    0    0    0 -0.00000000000E+00 -0.00000000000E+00 -0.45593999997E+02  0.45594000000E+02  0.51100000000E-03 0. -1.
    9900012    2    1    2    0    0  0.10275170993E+02 -0.14452359093E+02 -0.26500392296E+02  0.59301943264E+02  0.49999998608E+02 0.  0.
        -12    1    1    2    0    0 -0.10275170993E+02  0.14452359093E+02  0.26500392296E+02  0.31886056736E+02  0.00000000000E+00 0.  1.
         11    1    3    3    0    0  0.17311865086E+02 -0.10337062072E+02 -0.22861963938E+02  0.30483190785E+02  0.51100000000E-03 0. -1.
        -11    1    3    3    0    0  0.74792552160E+01  0.70463319132E+01 -0.14444148600E+01  0.10376723306E+02  0.51100000000E-03 0.  1.
        -12    1    3    3    0    0 -0.14515949309E+02 -0.11161628935E+02 -0.21940134982E+01  0.18442029174E+02  0.00000000000E+00 0.  1.
</event>
<event>
 7    1  0.6515090E-012  0.5930193E+02  0.7816164E-02  0.1266605E+00
        -11   -1    0    0    0    0  0.00000000000E+00  0.00000000000E+00  0.45593999997E+02  0.45594000000E+02  0.51100000000E-03 0. -1.
         11   -1    0    0    0    0 -0.00000000000E+00 -0.00000000000E+00 -0.45593999997E+02  0.45594000000E+02  0.51100000000E-03 0.  1.
    9900012    2    1    2    0    0  0.26180927333E+02 -0.10253750729E+02  0.15037998817E+02  0.59301925164E+02  0.49999965597E+02 0.  0.
        -12    1    1    2    0    0 -0.26180927333E+02  0.10253750729E+02 -0.15037998817E+02  0.31886074836E+02  0.00000000000E+00 0.  1.
         11    1    3    3    0    0  0.11788844884E+01  0.24738727152E+01  0.12096881794E+01  0.29955234268E+01  0.51100000000E-03 0. -1.
        -11    1    3    3    0    0  0.36693387025E+02 -0.18938902353E+02  0.11502021891E+02  0.42864707879E+02  0.51100000000E-03 0.  1.
         12    1    3    3    0    0 -0.11691344181E+02  0.62112789092E+01  0.23262887472E+01  0.13441693858E+02  0.00000000000E+00 0. -1.
</event>
<event>
 7    1  0.6515090E-012  0.5930193E+02  0.7816164E-02  0.1266605E+00
        -11   -1    0    0    0    0  0.00000000000E+00  0.00000000000E+00  0.45593999997E+02  0.45594000000E+02  0.51100000000E-03 0.  1.
         11   -1    0    0    0    0 -0.00000000000E+00 -0.00000000000E+00 -0.45593999997E+02  0.45594000000E+02  0.51100000000E-03 0. -1.
    9900012    2    1    2    0    0  0.24001029127E+02 -0.95026415959E+01 -0.18718220607E+02  0.59301931268E+02  0.49999976730E+02 0.  0.
        -12    1    1    2    0    0 -0.24001029127E+02  0.95026415959E+01  0.18718220607E+02  0.31886068732E+02  0.00000000000E+00 0.  1.
         11    1    3    3    0    0  0.73910892696E+01  0.53140163606E+01  0.46050210248E+01  0.10201626800E+02  0.51100000000E-03 0. -1.
        -11    1    3    3    0    0  0.27286828745E+02 -0.68369009841E+01 -0.21988114683E+02  0.35704221397E+02  0.51100000000E-03 0.  1.
        -12    1    3    3    0    0 -0.10676888888E+02 -0.79797569724E+01 -0.13351269495E+01  0.13396083071E+02  0.00000000000E+00 0.  1.
</event>
<event>
 7    1  0.6515090E-012  0.5930198E+02  0.7816164E-02  0.1266605E+00
        -11   -1    0    0    0    0  0.00000000000E+00  0.00000000000E+00  0.45593999997E+02  0.45594000000E+02  0.51100000000E-03 0. -1.
         11   -1    0    0    0    0 -0.00000000000E+00 -0.00000000000E+00 -0.45593999997E+02  0.45594000000E+02  0.51100000000E-03 0.  1.
    9900012    2    1    2    0    0  0.19302085480E+02  0.18541386655E+02 -0.17331041446E+02  0.59301976094E+02  0.50000058481E+02 0.  0.
        -12    1    1    2    0    0 -0.19302085480E+02 -0.18541386655E+02  0.17331041446E+02  0.31886023906E+02  0.00000000000E+00 0.  1.
         11    1    3    3    0    0  0.20020532533E+02  0.20923940668E+00 -0.11614586406E+01  0.20055285848E+02  0.51100000000E-03 0. -1.
        -11    1    3    3    0    0  0.27378899662E+01 -0.40563619133E+01 -0.15852523494E+02  0.16590738827E+02  0.51100000000E-03 0.  1.
        -12    1    3    3    0    0 -0.34563370190E+01  0.22388509161E+02 -0.31705931080E+00  0.22655951418E+02  0.00000000000E+00 0.  1.
</event>
<event>
 7    1  0.6515090E-012  0.5930193E+02  0.7816164E-02  0.1266605E+00
        -11   -1    0    0    0    0  0.00000000000E+00  0.00000000000E+00  0.45593999997E+02  0.45594000000E+02  0.51100000000E-03 0. -1.
         11   -1    0    0    0    0 -0.00000000000E+00 -0.00000000000E+00 -0.45593999997E+02  0.45594000000E+02  0.51100000000E-03 0.  1.
    9900012    2    1    2    0    0  0.19540089705E+02  0.24925188612E+02  0.36934256873E+01  0.59301928961E+02  0.49999972521E+02 0.  0.
        -12    1    1    2    0    0 -0.19540089705E+02 -0.24925188612E+02 -0.36934256873E+01  0.31886071039E+02  0.00000000000E+00 0.  1.
         11    1    3    3    0    0  0.14496404770E+01  0.12732582902E+02 -0.66819801179E+01  0.14452300281E+02  0.51100000000E-03 0. -1.
        -11    1    3    3    0    0  0.19679787228E+02 -0.14287483914E+01 -0.85280567303E+01  0.21495653029E+02  0.51100000000E-03 0.  1.
         12    1    3    3    0    0 -0.15893379997E+01  0.13621354101E+02  0.18903462536E+02  0.23353975650E+02  0.00000000000E+00 0. -1.
</event>
<event>
 7    1  0.6515090E-012  0.5930195E+02  0.7816164E-02  0.1266605E+00
        -11   -1    0    0    0    0  0.00000000000E+00  0.00000000000E+00  0.45593999997E+02  0.45594000000E+02  0.51100000000E-03 0. -1.
         11   -1    0    0    0    0 -0.00000000000E+00 -0.00000000000E+00 -0.45593999997E+02  0.45594000000E+02  0.51100000000E-03 0.  1.
    9900012    2    1    2    0    0  0.18739270987E+02  0.22735984971E+02  0.12191579687E+02  0.59301954385E+02  0.50000018889E+02 0.  0.
        -12    1    1    2    0    0 -0.18739270987E+02 -0.22735984971E+02 -0.12191579687E+02  0.31886045615E+02  0.00000000000E+00 0.  1.
         11    1    3    3    0    0 -0.17513710388E+01  0.36953952773E+00  0.13494815646E+02  0.13613005163E+02  0.51100000000E-03 0.  1.
        -11    1    3    3    0    0  0.28328132882E+02  0.21289757559E+02 -0.67640308912E+01  0.36076155611E+02  0.51100000000E-03 0. -1.
         12    1    3    3    0    0 -0.78374908565E+01  0.10766878846E+01  0.54607949321E+01  0.96127936115E+01  0.00000000000E+00 0. -1.
</event>
<event>
 7    1  0.6515090E-012  0.5930193E+02  0.7816164E-02  0.1266605E+00
        -11   -1    0    0    0    0  0.00000000000E+00  0.00000000000E+00  0.45593999997E+02  0.45594000000E+02  0.51100000000E-03 0. -1.
         11   -1    0    0    0    0 -0.00000000000E+00 -0.00000000000E+00 -0.45593999997E+02  0.45594000000E+02  0.51100000000E-03 0.  1.
    9900012    2    1    2    0    0 -0.16393828056E+02 -0.18915792490E+02  0.19752382814E+02  0.59301930461E+02  0.49999975257E+02 0.  0.
        -12    1    1    2    0    0  0.16393828056E+02  0.18915792490E+02 -0.19752382814E+02  0.31886069539E+02  0.00000000000E+00 0.  1.
         11    1    3    3    0    0  0.47155527565E+01  0.35940480517E+01 -0.75274843903E+01  0.95821000154E+01  0.51100000000E-03 0. -1.
        -11    1    3    3    0    0 -0.54098961753E+01 -0.57121682358E+01 -0.55582142004E+01  0.96327352264E+01  0.51100000000E-03 0.  1.
         12    1    3    3    0    0 -0.15699484637E+02 -0.16797672306E+02  0.32838081405E+02  0.40087095219E+02  0.00000000000E+00 0. -1.
</event>
<event>
 7    1  0.6515090E-012  0.5930210E+02  0.7816164E-02  0.1266604E+00
        -11   -1    0    0    0    0  0.00000000000E+00  0.00000000000E+00  0.45593999997E+02  0.45594000000E+02  0.51100000000E-03 0. -1.
         11   -1    0    0    0    0 -0.00000000000E+00 -0.00000000000E+00 -0.45593999997E+02  0.45594000000E+02  0.51100000000E-03 0.  1.
    9900012    2    1    2    0    0  0.15188713827E+02 -0.91215867585E+01  0.26510569639E+02  0.59302099114E+02  0.50000282839E+02 0.  0.
        -12    1    1    2    0    0 -0.15188713827E+02  0.91215867585E+01 -0.26510569639E+02  0.31885900886E+02  0.00000000000E+00 0.  1.
         11    1    3    3    0    0 -0.59013951680E+01  0.21948869388E+01 -0.61149473961E+01  0.87770482237E+01  0.51100000000E-03 0. -1.
        -11    1    3    3    0    0  0.18969160756E+02  0.57605366810E+01  0.10310120523E+02  0.22345277534E+02  0.51100000000E-03 0.  1.
         12    1    3    3    0    0  0.21209482397E+01 -0.17077010378E+02  0.22315396512E+02  0.28179773356E+02  0.00000000000E+00 0. -1.
</event>
<event>
 7    1  0.6515090E-012  0.5930194E+02  0.7816164E-02  0.1266605E+00
        -11   -1    0    0    0    0  0.00000000000E+00  0.00000000000E+00  0.45593999997E+02  0.45594000000E+02  0.51100000000E-03 0.  1.
         11   -1    0    0    0    0 -0.00000000000E+00 -0.00000000000E+00 -0.45593999997E+02  0.45594000000E+02  0.51100000000E-03 0. -1.
    9900012    2    1    2    0    0 -0.11865373991E+02 -0.28518960391E+02 -0.79121823979E+01  0.59301939848E+02  0.49999992377E+02 0.  0.
        -12    1    1    2    0    0  0.11865373991E+02  0.28518960391E+02  0.79121823979E+01  0.31886060152E+02  0.00000000000E+00 0.  1.
         11    1    3    3    0    0 -0.12209990660E+02 -0.92321682626E+01 -0.23800376632E+02  0.28297963369E+02  0.51100000000E-03 0. -1.
        -11    1    3    3    0    0 -0.44946466110E+01 -0.80808473725E+00 -0.18585905352E+01  0.49304369116E+01  0.51100000000E-03 0.  1.
        -12    1    3    3    0    0  0.48392632803E+01 -0.18478707391E+02  0.17746784769E+02  0.26073539568E+02  0.00000000000E+00 0.  1.
</event>
<event>
 7    1  0.6515090E-012  0.5930194E+02  0.7816164E-02  0.1266605E+00
        -11   -1    0    0    0    0  0.00000000000E+00  0.00000000000E+00  0.45593999997E+02  0.45594000000E+02  0.51100000000E-03 0.  1.
         11   -1    0    0    0    0 -0.00000000000E+00 -0.00000000000E+00 -0.45593999997E+02  0.45594000000E+02  0.51100000000E-03 0. -1.
    9900012    2    1    2    0    0  0.16222758645E+01  0.28217254634E+02 -0.14760606373E+02  0.59301941314E+02  0.49999995050E+02 0.  0.
        -12    1    1    2    0    0 -0.16222758645E+01 -0.28217254634E+02  0.14760606373E+02  0.31886058686E+02  0.00000000000E+00 0.  1.
         11    1    3    3    0    0  0.14442361960E+01  0.10276034235E+02 -0.22841518008E+02  0.25088197284E+02  0.51100000000E-03 0. -1.
        -11    1    3    3    0    0 -0.96240512782E+01 -0.29880854241E+01  0.33844995312E+01  0.10630421198E+02  0.51100000000E-03 0.  1.
        -12    1    3    3    0    0  0.98020909468E+01  0.20929305823E+02  0.46964121029E+01  0.23583322832E+02  0.00000000000E+00 0.  1.
</event>
<event>
 7    1  0.6515090E-012  0.5930196E+02  0.7816164E-02  0.1266605E+00
        -11   -1    0    0    0    0  0.00000000000E+00  0.00000000000E+00  0.45593999997E+02  0.45594000000E+02  0.51100000000E-03 0.  1.
         11   -1    0    0    0    0 -0.00000000000E+00 -0.00000000000E+00 -0.45593999997E+02  0.45594000000E+02  0.51100000000E-03 0. -1.
    9900012    2    1    2    0    0 -0.92089921865E+01 -0.26361426950E+02  0.15394458182E+02  0.59301957432E+02  0.50000024447E+02 0.  0.
        -12    1    1    2    0    0  0.92089921865E+01  0.26361426950E+02 -0.15394458182E+02  0.31886042568E+02  0.00000000000E+00 0.  1.
         11    1    3    3    0    0  0.11293016925E+02 -0.80159821574E+01 -0.85294172537E+01  0.16264659854E+02  0.51100000000E-03 0. -1.
        -11    1    3    3    0    0 -0.14169525868E+01 -0.82652351712E+01 -0.26573681718E+01  0.87967876483E+01  0.51100000000E-03 0.  1.
        -12    1    3    3    0    0 -0.19085056525E+02 -0.10080209621E+02  0.26581243607E+02  0.34240509930E+02  0.00000000000E+00 0.  1.
</event>
<event>
 7    1  0.6515090E-012  0.5930179E+02  0.7816164E-02  0.1266605E+00
        -11   -1    0    0    0    0  0.00000000000E+00  0.00000000000E+00  0.45593999997E+02  0.45594000000E+02  0.51100000000E-03 0. -1.
         11   -1    0    0    0    0 -0.00000000000E+00 -0.00000000000E+00 -0.45593999997E+02  0.45594000000E+02  0.51100000000E-03 0.  1.
    9900012    2    1    2    0    0 -0.89563842679E+01 -0.30595991698E+02 -0.63150193071E+00  0.59301791040E+02  0.49999720986E+02 0.  0.
        -12    1    1    2    0    0  0.89563842679E+01  0.30595991698E+02  0.63150193071E+00  0.31886208960E+02  0.00000000000E+00 0.  1.
         11    1    3    3    0    0  0.61331180176E+01 -0.30794752803E+02 -0.74133293962E+01  0.32262817450E+02  0.51100000000E-03 0. -1.
        -11    1    3    3    0    0 -0.12203823020E+01 -0.81625573179E+01 -0.21715542967E+01  0.85341855649E+01  0.51100000000E-03 0.  1.
        -12    1    3    3    0    0 -0.13869119984E+02  0.83613184226E+01  0.89533817622E+01  0.18504788025E+02  0.00000000000E+00 0.  1.
</event>
<event>
 7    1  0.6515090E-012  0.5930186E+02  0.7816164E-02  0.1266605E+00
        -11   -1    0    0    0    0  0.00000000000E+00  0.00000000000E+00  0.45593999997E+02  0.45594000000E+02  0.51100000000E-03 0.  1.
         11   -1    0    0    0    0 -0.00000000000E+00 -0.00000000000E+00 -0.45593999997E+02  0.45594000000E+02  0.51100000000E-03 0. -1.
    9900012    2    1    2    0    0 -0.27846981574E+02  0.85492090769E+01 -0.12968517765E+02  0.59301861764E+02  0.49999849970E+02 0.  0.
        -12    1    1    2    0    0  0.27846981574E+02 -0.85492090769E+01  0.12968517765E+02  0.31886138236E+02  0.00000000000E+00 0.  1.
         11    1    3    3    0    0 -0.10678869841E+02 -0.51983381482E+01 -0.42803716447E+01  0.12624680680E+02  0.51100000000E-03 0. -1.
        -11    1    3    3    0    0 -0.14997699138E+02 -0.11412952820E+02 -0.10103130159E+02  0.21383631843E+02  0.51100000000E-03 0.  1.
        -12    1    3    3    0    0 -0.21704125945E+01  0.25160500046E+02  0.14149840391E+01  0.25293549241E+02  0.00000000000E+00 0.  1.
</event>
<event>
 7    1  0.6515090E-012  0.5930194E+02  0.7816164E-02  0.1266605E+00
        -11   -1    0    0    0    0  0.00000000000E+00  0.00000000000E+00  0.45593999997E+02  0.45594000000E+02  0.51100000000E-03 0.  1.
         11   -1    0    0    0    0 -0.00000000000E+00 -0.00000000000E+00 -0.45593999997E+02  0.45594000000E+02  0.51100000000E-03 0. -1.
    9900012    2    1    2    0    0  0.13889448561E+01  0.11662733377E+02 -0.29644090698E+02  0.59301943001E+02  0.49999998128E+02 0.  0.
        -12    1    1    2    0    0 -0.13889448561E+01 -0.11662733377E+02  0.29644090698E+02  0.31886056999E+02  0.00000000000E+00 0.  1.
         11    1    3    3    0    0  0.11762127662E+02  0.73385338875E+01 -0.29202753948E+02  0.32326499427E+02  0.51100000000E-03 0. -1.
        -11    1    3    3    0    0  0.80350996118E+01  0.23835952830E+01  0.82615098386E+00  0.84218096603E+01  0.51100000000E-03 0.  1.
        -12    1    3    3    0    0 -0.18408282418E+02  0.19406042062E+01 -0.12674877334E+01  0.18553633914E+02  0.00000000000E+00 0.  1.
</event>
<event>
 7    1  0.6515090E-012  0.5930193E+02  0.7816164E-02  0.1266605E+00
        -11   -1    0    0    0    0  0.00000000000E+00  0.00000000000E+00  0.45593999997E+02  0.45594000000E+02  0.51100000000E-03 0.  1.
         11   -1    0    0    0    0 -0.00000000000E+00 -0.00000000000E+00 -0.45593999997E+02  0.45594000000E+02  0.51100000000E-03 0. -1.
    9900012    2    1    2    0    0 -0.29583363713E+02  0.44054344792E+00 -0.11889145261E+02  0.59301933103E+02  0.49999980077E+02 0.  0.
        -12    1    1    2    0    0  0.29583363713E+02 -0.44054344792E+00  0.11889145261E+02  0.31886066897E+02  0.00000000000E+00 0.  1.
         11    1    3    3    0    0 -0.43501958701E+01  0.10024503504E+02 -0.13517899674E+02  0.17382418890E+02  0.51100000000E-03 0. -1.
        -11    1    3    3    0    0 -0.47011244355E+00  0.91130212942E+01  0.54932291882E+01  0.10650996667E+02  0.51100000000E-03 0.  1.
         12    1    3    3    0    0 -0.24763055399E+02 -0.18696981350E+02 -0.38644747752E+01  0.31268517547E+02  0.00000000000E+00 0. -1.
</event>
<event>
 7    1  0.6515090E-012  0.5930199E+02  0.7816164E-02  0.1266605E+00
        -11   -1    0    0    0    0  0.00000000000E+00  0.00000000000E+00  0.45593999997E+02  0.45594000000E+02  0.51100000000E-03 0.  1.
         11   -1    0    0    0    0 -0.00000000000E+00 -0.00000000000E+00 -0.45593999997E+02  0.45594000000E+02  0.51100000000E-03 0. -1.
    9900012    2    1    2    0    0 -0.36259311711E+01 -0.13457708995E+02 -0.28678572855E+02  0.59301986620E+02  0.50000077679E+02 0.  0.
        -12    1    1    2    0    0  0.36259311711E+01  0.13457708995E+02  0.28678572855E+02  0.31886013380E+02  0.00000000000E+00 0.  1.
         11    1    3    3    0    0 -0.90432482714E+01 -0.31836107367E+01  0.17450797646E+01  0.97447945215E+01  0.51100000000E-03 0.  1.
        -11    1    3    3    0    0  0.45981319791E+01  0.13713734321E+02 -0.71912451244E+01  0.16153121477E+02  0.51100000000E-03 0. -1.
         12    1    3    3    0    0  0.81918512117E+00 -0.23987832580E+02 -0.23232407495E+02  0.33404070622E+02  0.00000000000E+00 0. -1.
</event>
<event>
 7    1  0.6515090E-012  0.5930194E+02  0.7816164E-02  0.1266605E+00
        -11   -1    0    0    0    0  0.00000000000E+00  0.00000000000E+00  0.45593999997E+02  0.45594000000E+02  0.51100000000E-03 0. -1.
         11   -1    0    0    0    0 -0.00000000000E+00 -0.00000000000E+00 -0.45593999997E+02  0.45594000000E+02  0.51100000000E-03 0.  1.
    9900012    2    1    2    0    0 -0.28600712023E+01 -0.21538318835E+02  0.23337559562E+02  0.59301939224E+02  0.49999991239E+02 0.  0.
        -12    1    1    2    0    0  0.28600712023E+01  0.21538318835E+02 -0.23337559562E+02  0.31886060776E+02  0.00000000000E+00 0.  1.
         11    1    3    3    0    0 -0.61470693659E+01 -0.26082616733E+02 -0.42821396664E+01  0.27137171514E+02  0.51100000000E-03 0. -1.
        -11    1    3    3    0    0 -0.26100800266E+01  0.16762131278E+01 -0.62885822442E+00  0.31650704767E+01  0.51100000000E-03 0.  1.
        -12    1    3    3    0    0  0.58970781901E+01  0.28680847705E+01  0.28248557453E+02  0.28999697233E+02  0.00000000000E+00 0.  1.
</event>
<event>
 7    1  0.6515090E-012  0.5930190E+02  0.7816164E-02  0.1266605E+00
        -11   -1    0    0    0    0  0.00000000000E+00  0.00000000000E+00  0.45593999997E+02  0.45594000000E+02  0.51100000000E-03 0.  1.
         11   -1    0    0    0    0 -0.00000000000E+00 -0.00000000000E+00 -0.45593999997E+02  0.45594000000E+02  0.51100000000E-03 0. -1.
    9900012    2    1    2    0    0 -0.21605794657E+02 -0.23039719602E+02 -0.43685551239E+01  0.59301900898E+02  0.49999921341E+02 0.  0.
        -12    1    1    2    0    0  0.21605794657E+02  0.23039719602E+02  0.43685551239E+01  0.31886099102E+02  0.00000000000E+00 0.  1.
         11    1    3    3    0    0 -0.96274714380E+01 -0.13994172749E+02  0.73499689228E+01  0.18508028545E+02  0.51100000000E-03 0. -1.
        -11    1    3    3    0    0 -0.17202090042E+02 -0.85197293930E+01  0.76963333753E+01  0.20681664305E+02  0.51100000000E-03 0.  1.
        -12    1    3    3    0    0  0.52237668230E+01 -0.52581746017E+00 -0.19414857422E+02  0.20112208047E+02  0.00000000000E+00 0.  1.
</event>
<event>
 7    1  0.6515090E-012  0.5930192E+02  0.7816164E-02  0.1266605E+00
        -11   -1    0    0    0    0  0.00000000000E+00  0.00000000000E+00  0.45593999997E+02  0.45594000000E+02  0.51100000000E-03 0. -1.
         11   -1    0    0    0    0 -0.00000000000E+00 -0.00000000000E+00 -0.45593999997E+02  0.45594000000E+02  0.51100000000E-03 0.  1.
    9900012    2    1    2    0    0  0.24318474672E+02 -0.17773284798E+02 -0.10461556094E+02  0.59301921238E+02  0.49999958438E+02 0.  0.
        -12    1    1    2    0    0 -0.24318474672E+02  0.17773284798E+02  0.10461556094E+02  0.31886078762E+02  0.00000000000E+00 0.  1.
         11    1    3    3    0    0  0.13035710165E+02 -0.55963415176E+01  0.11237344776E+02  0.18097698632E+02  0.51100000000E-03 0. -1.
        -11    1    3    3    0    0  0.31751426041E+01 -0.90214684309E+01  0.65855564814E+01  0.11611975613E+02  0.51100000000E-03 0.  1.
        -12    1    3    3    0    0  0.81076219035E+01 -0.31554748494E+01 -0.28284457352E+02  0.29592246994E+02  0.00000000000E+00 0.  1.
</event>
<event>
 7    1  0.6515090E-012  0.5930174E+02  0.7816164E-02  0.1266605E+00
        -11   -1    0    0    0    0  0.00000000000E+00  0.00000000000E+00  0.45593999997E+02  0.45594000000E+02  0.51100000000E-03 0.  1.
         11   -1    0    0    0    0 -0.00000000000E+00 -0.00000000000E+00 -0.45593999997E+02  0.45594000000E+02  0.51100000000E-03 0. -1.
    9900012    2    1    2    0    0  0.30198533850E+02 -0.90575697135E+01 -0.47689052253E+01  0.59301741630E+02  0.49999630873E+02 0.  0.
        -12    1    1    2    0    0 -0.30198533850E+02  0.90575697135E+01  0.47689052253E+01  0.31886258370E+02  0.00000000000E+00 0.  1.
         11    1    3    3    0    0  0.34015676737E+02 -0.41916549964E+01 -0.17564199521E+02  0.38511522179E+02  0.51100000000E-03 0. -1.
        -11    1    3    3    0    0 -0.18174166446E+01 -0.57266483013E+01 -0.16109957770E+01  0.62203546267E+01  0.51100000000E-03 0.  1.
        -12    1    3    3    0    0 -0.19997262417E+01  0.86073358425E+00  0.14406290072E+02  0.14569864824E+02  0.00000000000E+00 0.  1.
</event>
<event>
 7    1  0.6515090E-012  0.5930193E+02  0.7816164E-02  0.1266605E+00
        -11   -1    0    0    0    0  0.00000000000E+00  0.00000000000E+00  0.45593999997E+02  0.45594000000E+02  0.51100000000E-03 0. -1.
         11   -1    0    0    0    0 -0.00000000000E+00 -0.00000000000E+00 -0.45593999997E+02  0.45594000000E+02  0.51100000000E-03 0.  1.
    9900012    2    1    2    0    0  0.13418266908E+02  0.27508539331E+02 -0.89415701586E+01  0.59301932512E+02  0.49999978998E+02 0.  0.
        -12    1    1    2    0    0 -0.13418266908E+02 -0.27508539331E+02  0.89415701586E+01  0.31886067488E+02  0.00000000000E+00 0.  1.
         11    1    3    3    0    0  0.19954009742E+02 -0.27807185743E+01 -0.32264140580E+01  0.20403544998E+02  0.51100000000E-03 0.  1.
        -11    1    3    3    0    0  0.80071031593E+01  0.10275701402E+02  0.15384053199E+01  0.13117561949E+02  0.51100000000E-03 0. -1.
        -12    1    3    3    0    0 -0.14542845993E+02  0.20013556503E+02 -0.72535614205E+01  0.25780825564E+02  0.00000000000E+00 0.  1.
</event>
<event>
 7    1  0.6515090E-012  0.5930195E+02  0.7816164E-02  0.1266605E+00
        -11   -1    0    0    0    0  0.00000000000E+00  0.00000000000E+00  0.45593999997E+02  0.45594000000E+02  0.51100000000E-03 0.  1.
         11   -1    0    0    0    0 -0.00000000000E+00 -0.00000000000E+00 -0.45593999997E+02  0.45594000000E+02  0.51100000000E-03 0. -1.
    9900012    2    1    2    0    0 -0.53357035281E+01  0.19800571573E+02  0.24416955761E+02  0.59301951399E+02  0.50000013443E+02 0.  0.
        -12    1    1    2    0    0  0.53357035281E+01 -0.19800571573E+02 -0.24416955761E+02  0.31886048601E+02  0.00000000000E+00 0.  1.
         11    1    3    3    0    0 -0.58383577437E+01  0.85702929656E+01  0.67817632714E+01  0.12390668101E+02  0.51100000000E-03 0.  1.
        -11    1    3    3    0    0 -0.10362073687E+02 -0.12104816558E+02  0.41073314858E+00  0.15939506171E+02  0.51100000000E-03 0. -1.
         12    1    3    3    0    0  0.10864727903E+02  0.23335095166E+02  0.17224459341E+02  0.30971777127E+02  0.00000000000E+00 0. -1.
</event>
<event>
 7    1  0.6515090E-012  0.5930195E+02  0.7816164E-02  0.1266605E+00
        -11   -1    0    0    0    0  0.00000000000E+00  0.00000000000E+00  0.45593999997E+02  0.45594000000E+02  0.51100000000E-03 0. -1.
         11   -1    0    0    0    0 -0.00000000000E+00 -0.00000000000E+00 -0.45593999997E+02  0.45594000000E+02  0.51100000000E-03 0.  1.
    9900012    2    1    2    0    0 -0.30533376966E+02  0.46052426422E+01  0.79514171205E+01  0.59301946576E+02  0.50000004647E+02 0.  0.
        -12    1    1    2    0    0  0.30533376966E+02 -0.46052426422E+01 -0.79514171205E+01  0.31886053424E+02  0.00000000000E+00 0.  1.
         11    1    3    3    0    0  0.18870956107E+01 -0.24557052291E+01  0.83231542111E+01  0.88806820852E+01  0.51100000000E-03 0. -1.
        -11    1    3    3    0    0  0.85391646648E+01  0.44443903703E+00  0.22691873622E+01  0.88466982980E+01  0.51100000000E-03 0.  1.
         12    1    3    3    0    0 -0.40959637242E+02  0.66165088342E+01 -0.26409244528E+01  0.41574566192E+02  0.00000000000E+00 0. -1.
</event>
<event>
 7    1  0.6515090E-012  0.5930200E+02  0.7816164E-02  0.1266605E+00
        -11   -1    0    0    0    0  0.00000000000E+00  0.00000000000E+00  0.45593999997E+02  0.45594000000E+02  0.51100000000E-03 0.  1.
         11   -1    0    0    0    0 -0.00000000000E+00 -0.00000000000E+00 -0.45593999997E+02  0.45594000000E+02  0.51100000000E-03 0. -1.
    9900012    2    1    2    0    0  0.10531718267E+02  0.10125153074E+02 -0.28342218622E+02  0.59301997259E+02  0.50000097080E+02 0.  0.
        -12    1    1    2    0    0 -0.10531718267E+02 -0.10125153074E+02  0.28342218622E+02  0.31886002741E+02  0.00000000000E+00 0.  1.
         11    1    3    3    0    0  0.21757540760E+02  0.80216366280E+01 -0.24543645098E+01  0.23318686488E+02  0.51100000000E-03 0. -1.
        -11    1    3    3    0    0  0.21709378414E+01  0.72233849582E+00  0.31971657366E+01  0.39314899240E+01  0.51100000000E-03 0.  1.
         12    1    3    3    0    0 -0.13396760334E+02  0.13811779499E+01 -0.29085019849E+02  0.32051820847E+02  0.00000000000E+00 0. -1.
</event>
<event>
 7    1  0.6515090E-012  0.5930194E+02  0.7816164E-02  0.1266605E+00
        -11   -1    0    0    0    0  0.00000000000E+00  0.00000000000E+00  0.45593999997E+02  0.45594000000E+02  0.51100000000E-03 0.  1.
         11   -1    0    0    0    0 -0.00000000000E+00 -0.00000000000E+00 -0.45593999997E+02  0.45594000000E+02  0.51100000000E-03 0. -1.
    9900012    2    1    2    0    0 -0.25378841922E+02 -0.89989614737E+01 -0.17077872059E+02  0.59301942875E+02  0.49999997898E+02 0.  0.
        -12    1    1    2    0    0  0.25378841922E+02  0.89989614737E+01  0.17077872059E+02  0.31886057125E+02  0.00000000000E+00 0.  1.
         11    1    3    3    0    0 -0.62719915338E+00  0.80352918893E+01 -0.41292040482E+01  0.90559163455E+01  0.51100000000E-03 0. -1.
        -11    1    3    3    0    0 -0.24760478114E+02 -0.84640446362E+00  0.58315559966E+01  0.25452008222E+02  0.51100000000E-03 0.  1.
         12    1    3    3    0    0  0.88353448579E-02 -0.16187848899E+02 -0.18780224008E+02  0.24794018307E+02  0.00000000000E+00 0. -1.
</event>
<event>
 7    1  0.6515090E-012  0.5930194E+02  0.7816164E-02  0.1266605E+00
        -11   -1    0    0    0    0  0.00000000000E+00  0.00000000000E+00  0.45593999997E+02  0.45594000000E+02  0.51100000000E-03 0.  1.
         11   -1    0    0    0    0 -0.00000000000E+00 -0.00000000000E+00 -0.45593999997E+02  0.45594000000E+02  0.51100000000E-03 0. -1.
    9900012    2    1    2    0    0  0.16625817160E+02  0.19687598800E+02 -0.18780355653E+02  0.59301935627E+02  0.49999984679E+02 0.  0.
        -12    1    1    2    0    0 -0.16625817160E+02 -0.19687598800E+02  0.18780355653E+02  0.31886064373E+02  0.00000000000E+00 0.  1.
         11    1    3    3    0    0  0.98186810121E+01 -0.68837292882E+01 -0.23268979689E+01  0.12215018631E+02  0.51100000000E-03 0.  1.
        -11    1    3    3    0    0 -0.26863720587E+01  0.26880026498E+02 -0.23059130655E+02  0.35517262369E+02  0.51100000000E-03 0. -1.
         12    1    3    3    0    0  0.94935082070E+01 -0.30869840962E+00  0.66056729717E+01  0.11569654627E+02  0.00000000000E+00 0. -1.
</event>
<event>
 7    1  0.6515090E-012  0.5930196E+02  0.7816164E-02  0.1266605E+00
        -11   -1    0    0    0    0  0.00000000000E+00  0.00000000000E+00  0.45593999997E+02  0.45594000000E+02  0.51100000000E-03 0.  1.
         11   -1    0    0    0    0 -0.00000000000E+00 -0.00000000000E+00 -0.45593999997E+02  0.45594000000E+02  0.51100000000E-03 0. -1.
    9900012    2    1    2    0    0  0.28929952612E+02  0.81699030400E+01 -0.10631556335E+02  0.59301961301E+02  0.50000031502E+02 0.  0.
        -12    1    1    2    0    0 -0.28929952612E+02 -0.81699030400E+01  0.10631556335E+02  0.31886038699E+02  0.00000000000E+00 0.  1.
         11    1    3    3    0    0  0.12827956649E+02  0.25377353071E+01 -0.12364438364E+02  0.17996552687E+02  0.51100000000E-03 0. -1.
        -11    1    3    3    0    0 -0.61284507726E+01 -0.22506993527E+01 -0.12253105173E+02  0.13883880693E+02  0.51100000000E-03 0.  1.
        -12    1    3    3    0    0  0.22230446735E+02  0.78828670856E+01  0.13985987202E+02  0.27421527922E+02  0.00000000000E+00 0.  1.
</event>
<event>
 7    1  0.6515090E-012  0.5930193E+02  0.7816164E-02  0.1266605E+00
        -11   -1    0    0    0    0  0.00000000000E+00  0.00000000000E+00  0.45593999997E+02  0.45594000000E+02  0.51100000000E-03 0.  1.
         11   -1    0    0    0    0 -0.00000000000E+00 -0.00000000000E+00 -0.45593999997E+02  0.45594000000E+02  0.51100000000E-03 0. -1.
    9900012    2    1    2    0    0 -0.45379338642E+00 -0.31852167866E+02  0.13982062390E+01  0.59301929265E+02  0.49999973077E+02 0.  0.
        -12    1    1    2    0    0  0.45379338642E+00  0.31852167866E+02 -0.13982062390E+01  0.31886070735E+02  0.00000000000E+00 0.  1.
         11    1    3    3    0    0 -0.12291118493E+01  0.16721431656E+01 -0.10951070400E+02  0.11145973348E+02  0.51100000000E-03 0. -1.
        -11    1    3    3    0    0  0.38133649430E+01 -0.56700608391E+01  0.18280314274E+02  0.19515666330E+02  0.51100000000E-03 0.  1.
         12    1    3    3    0    0 -0.30380464800E+01 -0.27854250193E+02 -0.59310376349E+01  0.28640289587E+02  0.00000000000E+00 0. -1.
</event>
<event>
 7    1  0.6515090E-012  0.5930194E+02  0.7816164E-02  0.1266605E+00
        -11   -1    0    0    0    0  0.00000000000E+00  0.00000000000E+00  0.45593999997E+02  0.45594000000E+02  0.51100000000E-03 0.  1.
         11   -1    0    0    0    0 -0.00000000000E+00 -0.00000000000E+00 -0.45593999997E+02  0.45594000000E+02  0.51100000000E-03 0. -1.
    9900012    2    1    2    0    0  0.25237715937E+02 -0.68171553691E+01 -0.18256643398E+02  0.59301938136E+02  0.49999989254E+02 0.  0.
        -12    1    1    2    0    0 -0.25237715937E+02  0.68171553691E+01  0.18256643398E+02  0.31886061864E+02  0.00000000000E+00 0.  1.
         11    1    3    3    0    0  0.22377533127E+02  0.69143259909E+00 -0.44977983122E+01  0.22835548118E+02  0.51100000000E-03 0. -1.
        -11    1    3    3    0    0  0.16564885419E+02 -0.50323471211E+01 -0.14409602975E+02  0.22524577791E+02  0.51100000000E-03 0.  1.
        -12    1    3    3    0    0 -0.13704702610E+02 -0.24762408470E+01  0.65075788839E+00  0.13941812227E+02  0.00000000000E+00 0.  1.
</event>
<event>
 7    1  0.6515090E-012  0.5930195E+02  0.7816164E-02  0.1266605E+00
        -11   -1    0    0    0    0  0.00000000000E+00  0.00000000000E+00  0.45593999997E+02  0.45594000000E+02  0.51100000000E-03 0. -1.
         11   -1    0    0    0    0 -0.00000000000E+00 -0.00000000000E+00 -0.45593999997E+02  0.45594000000E+02  0.51100000000E-03 0.  1.
    9900012    2    1    2    0    0  0.31327010521E+02 -0.59066780258E+01  0.67059259155E+00  0.59301950889E+02  0.50000012513E+02 0.  0.
        -12    1    1    2    0    0 -0.31327010521E+02  0.59066780258E+01 -0.67059259155E+00  0.31886049111E+02  0.00000000000E+00 0.  1.
         11    1    3    3    0    0  0.24282423854E+02  0.47892822125E+01  0.48224099196E+01  0.25215649308E+02  0.51100000000E-03 0. -1.
        -11    1    3    3    0    0 -0.21206491457E+01  0.10473858869E+02 -0.23905717511E+01  0.10950511676E+02  0.51100000000E-03 0.  1.
        -12    1    3    3    0    0  0.91652358133E+01 -0.21169819107E+02 -0.17612455770E+01  0.23135789905E+02  0.00000000000E+00 0.  1.
</event>
<event>
 7    1  0.6515090E-012  0.5930190E+02  0.7816164E-02  0.1266605E+00
        -11   -1    0    0    0    0  0.00000000000E+00  0.00000000000E+00  0.45593999997E+02  0.45594000000E+02  0.51100000000E-03 0.  1.
         11   -1    0    0    0    0 -0.00000000000E+00 -0.00000000000E+00 -0.45593999997E+02  0.45594000000E+02  0.51100000000E-03 0. -1.
    9900012    2    1    2    0    0 -0.25312166950E+02  0.12758080520E+02 -0.14603035772E+02  0.59301904786E+02  0.49999928432E+02 0.  0.
        -12    1    1    2    0    0  0.25312166950E+02 -0.12758080520E+02  0.14603035772E+02  0.31886095214E+02  0.00000000000E+00 0.  1.
         11    1    3    3    0    0 -0.77657261565E+01  0.15627720718E+02  0.17481000097E+01  0.17538187235E+02  0.51100000000E-03 0.  1.
        -11    1    3    3    0    0 -0.32136232784E+01  0.91384377684E+01  0.69247277706E+01  0.11907572145E+02  0.51100000000E-03 0. -1.
         12    1    3    3    0    0 -0.14332817515E+02 -0.12008077967E+02 -0.23275863553E+02  0.29856145406E+02  0.00000000000E+00 0. -1.
</event>
<event>
 7    1  0.6515090E-012  0.5930198E+02  0.7816164E-02  0.1266605E+00
        -11   -1    0    0    0    0  0.00000000000E+00  0.00000000000E+00  0.45593999997E+02  0.45594000000E+02  0.51100000000E-03 0.  1.
         11   -1    0    0    0    0 -0.00000000000E+00 -0.00000000000E+00 -0.45593999997E+02  0.45594000000E+02  0.51100000000E-03 0. -1.
    9900012    2    1    2    0    0  0.13431423905E+02 -0.20761775570E+02 -0.20131169371E+02  0.59301977150E+02  0.50000060407E+02 0.  0.
        -12    1    1    2    0    0 -0.13431423905E+02  0.20761775570E+02  0.20131169371E+02  0.31886022850E+02  0.00000000000E+00 0.  1.
         11    1    3    3    0    0  0.16852074145E+02 -0.15503071353E+02 -0.10008713294E+02  0.24990237422E+02  0.51100000000E-03 0. -1.
        -11    1    3    3    0    0 -0.35844001786E+01 -0.10564172461E+02  0.90833095081E+01  0.14385971511E+02  0.51100000000E-03 0.  1.
         12    1    3    3    0    0  0.16374993916E+00  0.53054682438E+01 -0.19205765585E+02  0.19925768217E+02  0.00000000000E+00 0. -1.
</event>
<event>
 7    1  0.6515090E-012  0.5930202E+02  0.7816164E-02  0.1266605E+00
        -11   -1    0    0    0    0  0.00000000000E+00  0.00000000000E+00  0.45593999997E+02  0.45594000000E+02  0.51100000000E-03 0. -1.
         11   -1    0    0    0    0 -0.00000000000E+00 -0.00000000000E+00 -0.45593999997E+02  0.45594000000E+02  0.51100000000E-03 0.  1.
    9900012    2    1    2    0    0 -0.21882659938E+02 -0.10172170162E+02  0.20842075251E+02  0.59302016362E+02  0.50000131920E+02 0.  0.
        -12    1    1    2    0    0  0.21882659938E+02  0.10172170162E+02 -0.20842075251E+02  0.31885983638E+02  0.00000000000E+00 0.  1.
         11    1    3    3    0    0  0.37775877848E+00  0.25196067579E+01 -0.37358404234E+01  0.45219048906E+01  0.51100000000E-03 0. -1.
        -11    1    3    3    0    0 -0.11998542838E+01 -0.20600658420E+02 -0.10708014193E+01  0.20663334523E+02  0.51100000000E-03 0.  1.
         12    1    3    3    0    0 -0.21060564433E+02  0.79088815003E+01  0.25648717094E+02  0.34116776949E+02  0.00000000000E+00 0. -1.
</event>
<event>
 7    1  0.6515090E-012  0.5930194E+02  0.7816164E-02  0.1266605E+00
        -11   -1    0    0    0    0  0.00000000000E+00  0.00000000000E+00  0.45593999997E+02  0.45594000000E+02  0.51100000000E-03 0.  1.
         11   -1    0    0    0    0 -0.00000000000E+00 -0.00000000000E+00 -0.45593999997E+02  0.45594000000E+02  0.51100000000E-03 0. -1.
    9900012    2    1    2    0    0 -0.15607383626E+01  0.10477838485E+02 -0.30074905426E+02  0.59301938156E+02  0.49999989291E+02 0.  0.
        -12    1    1    2    0    0  0.15607383626E+01 -0.10477838485E+02  0.30074905426E+02  0.31886061844E+02  0.00000000000E+00 0.  1.
         11    1    3    3    0    0 -0.31150924768E+01 -0.97846011956E+01 -0.32884300361E+01  0.10782207291E+02  0.51100000000E-03 0.  1.
        -11    1    3    3    0    0 -0.90628432758E+01 -0.68319560960E+01 -0.78825030103E+01  0.13818270742E+02  0.51100000000E-03 0. -1.
         12    1    3    3    0    0  0.10617197390E+02  0.27094395777E+02 -0.18903972379E+02  0.34701460123E+02  0.00000000000E+00 0. -1.
</event>
<event>
 7    1  0.6515090E-012  0.5930200E+02  0.7816164E-02  0.1266605E+00
        -11   -1    0    0    0    0  0.00000000000E+00  0.00000000000E+00  0.45593999997E+02  0.45594000000E+02  0.51100000000E-03 0.  1.
         11   -1    0    0    0    0 -0.00000000000E+00 -0.00000000000E+00 -0.45593999997E+02  0.45594000000E+02  0.51100000000E-03 0. -1.
    9900012    2    1    2    0    0 -0.40535564764E+01 -0.46480658273E+01 -0.31283881612E+02  0.59301998609E+02  0.50000099542E+02 0.  0.
        -12    1    1    2    0    0  0.40535564764E+01  0.46480658273E+01  0.31283881612E+02  0.31886001391E+02  0.00000000000E+00 0.  1.
         11    1    3    3    0    0 -0.46733235476E+01 -0.21140532244E+02 -0.13518345754E+02  0.25524649434E+02  0.51100000000E-03 0.  1.
        -11    1    3    3    0    0 -0.10243845098E+02  0.27241173349E+01 -0.10085802051E+02  0.14631492778E+02  0.51100000000E-03 0. -1.
        -12    1    3    3    0    0  0.10863612169E+02  0.13768349082E+02 -0.76797338071E+01  0.19145856397E+02  0.00000000000E+00 0.  1.
</event>
<event>
 7    1  0.6515090E-012  0.5930194E+02  0.7816164E-02  0.1266605E+00
        -11   -1    0    0    0    0  0.00000000000E+00  0.00000000000E+00  0.45593999997E+02  0.45594000000E+02  0.51100000000E-03 0. -1.
         11   -1    0    0    0    0 -0.00000000000E+00 -0.00000000000E+00 -0.45593999997E+02  0.45594000000E+02  0.51100000000E-03 0.  1.
    9900012    2    1    2    0    0 -0.40127164357E+01 -0.24540690704E+02  0.19959291725E+02  0.59301941611E+02  0.49999995592E+02 0.  0.
        -12    1    1    2    0    0  0.40127164357E+01  0.24540690704E+02 -0.19959291725E+02  0.31886058389E+02  0.00000000000E+00 0.  1.
         11    1    3    3    0    0 -0.51763117047E+01 -0.18928718408E+02 -0.33394867227E+01  0.19905847264E+02  0.51100000000E-03 0. -1.
        -11    1    3    3    0    0 -0.89230423424E+01 -0.70187094828E+01 -0.25307319214E+01  0.11631318574E+02  0.51100000000E-03 0.  1.
         12    1    3    3    0    0  0.10086637611E+02  0.14067371870E+01  0.25829510369E+02  0.27764775773E+02  0.00000000000E+00 0. -1.
</event>
<event>
 7    1  0.6515090E-012  0.5930196E+02  0.7816164E-02  0.1266605E+00
        -11   -1    0    0    0    0  0.00000000000E+00  0.00000000000E+00  0.45593999997E+02  0.45594000000E+02  0.51100000000E-03 0.  1.
         11   -1    0    0    0    0 -0.00000000000E+00 -0.00000000000E+00 -0.45593999997E+02  0.45594000000E+02  0.51100000000E-03 0. -1.
    9900012    2    1    2    0    0 -0.12714016979E+02  0.29232358518E+02 -0.73663507284E+00  0.59301958485E+02  0.50000026367E+02 0.  0.
        -12    1    1    2    0    0  0.12714016979E+02 -0.29232358518E+02  0.73663507284E+00  0.31886041515E+02  0.00000000000E+00 0.  1.
         11    1    3    3    0    0  0.14282404951E+01  0.82918304433E+01 -0.17851087531E+02  0.19734630712E+02  0.51100000000E-03 0. -1.
        -11    1    3    3    0    0 -0.32161097960E+01  0.23901911603E+02  0.94821470956E+01  0.25914394732E+02  0.51100000000E-03 0.  1.
         12    1    3    3    0    0 -0.10926147679E+02 -0.29613835290E+01  0.76323053629E+01  0.13652933042E+02  0.00000000000E+00 0. -1.
</event>
<event>
 7    1  0.6515090E-012  0.5930180E+02  0.7816164E-02  0.1266605E+00
        -11   -1    0    0    0    0  0.00000000000E+00  0.00000000000E+00  0.45593999997E+02  0.45594000000E+02  0.51100000000E-03 0. -1.
         11   -1    0    0    0    0 -0.00000000000E+00 -0.00000000000E+00 -0.45593999997E+02  0.45594000000E+02  0.51100000000E-03 0.  1.
    9900012    2    1    2    0    0 -0.31577869556E+02  0.42916113971E+01  0.10724752804E+01  0.59301796443E+02  0.49999730840E+02 0.  0.
        -12    1    1    2    0    0  0.31577869556E+02 -0.42916113971E+01 -0.10724752804E+01  0.31886203557E+02  0.00000000000E+00 0.  1.
         11    1    3    3    0    0 -0.18958937926E+02  0.88235273317E+01  0.46124804971E+01  0.21414269505E+02  0.51100000000E-03 0. -1.
        -11    1    3    3    0    0 -0.17202306159E+02  0.10256638385E+02  0.43734014428E+01  0.20499868502E+02  0.51100000000E-03 0.  1.
         12    1    3    3    0    0  0.45833745291E+01 -0.14788554319E+02 -0.79134066596E+01  0.17387658436E+02  0.00000000000E+00 0. -1.
</event>
<event>
 7    1  0.6515090E-012  0.5930195E+02  0.7816164E-02  0.1266605E+00
        -11   -1    0    0    0    0  0.00000000000E+00  0.00000000000E+00  0.45593999997E+02  0.45594000000E+02  0.51100000000E-03 0.  1.
         11   -1    0    0    0    0 -0.00000000000E+00 -0.00000000000E+00 -0.45593999997E+02  0.45594000000E+02  0.51100000000E-03 0. -1.
    9900012    2    1    2    0    0  0.26436203890E+01 -0.20901813278E+02 -0.23934196195E+02  0.59301948589E+02  0.50000008319E+02 0.  0.
        -12    1    1    2    0    0 -0.26436203890E+01  0.20901813278E+02  0.23934196195E+02  0.31886051411E+02  0.00000000000E+00 0.  1.
         11    1    3    3    0    0  0.17782308781E+02 -0.26771737675E+02 -0.18701017879E+02  0.37184197096E+02  0.51100000000E-03 0. -1.
        -11    1    3    3    0    0 -0.45584540145E+01 -0.21381848968E+01 -0.71144319478E+01  0.87158751630E+01  0.51100000000E-03 0.  1.
        -12    1    3    3    0    0 -0.10580234378E+02  0.80081092934E+01  0.18812536317E+01  0.13401876330E+02  0.00000000000E+00 0.  1.
</event>
<event>
 7    1  0.6515090E-012  0.5930201E+02  0.7816164E-02  0.1266605E+00
        -11   -1    0    0    0    0  0.00000000000E+00  0.00000000000E+00  0.45593999997E+02  0.45594000000E+02  0.51100000000E-03 0.  1.
         11   -1    0    0    0    0 -0.00000000000E+00 -0.00000000000E+00 -0.45593999997E+02  0.45594000000E+02  0.51100000000E-03 0. -1.
    9900012    2    1    2    0    0  0.97243844439E+01 -0.29530074962E+02  0.70800515648E+01  0.59302013889E+02  0.50000127411E+02 0.  0.
        -12    1    1    2    0    0 -0.97243844439E+01  0.29530074962E+02 -0.70800515648E+01  0.31885986111E+02  0.00000000000E+00 0.  1.
         11    1    3    3    0    0  0.13503457608E+01  0.30219823804E+01 -0.30480479568E+01  0.44996008477E+01  0.51100000000E-03 0. -1.
        -11    1    3    3    0    0 -0.60036581860E+01  0.30113323549E+01 -0.95612838522E+01  0.11684613101E+02  0.51100000000E-03 0.  1.
         12    1    3    3    0    0  0.14377696869E+02 -0.35563389698E+02  0.19689383374E+02  0.43117799940E+02  0.00000000000E+00 0. -1.
</event>
<event>
 7    1  0.6515090E-012  0.5930194E+02  0.7816164E-02  0.1266605E+00
        -11   -1    0    0    0    0  0.00000000000E+00  0.00000000000E+00  0.45593999997E+02  0.45594000000E+02  0.51100000000E-03 0. -1.
         11   -1    0    0    0    0 -0.00000000000E+00 -0.00000000000E+00 -0.45593999997E+02  0.45594000000E+02  0.51100000000E-03 0.  1.
    9900012    2    1    2    0    0 -0.14844446750E+02 -0.20181711856E+02 -0.19724647556E+02  0.59301940131E+02  0.49999992894E+02 0.  0.
        -12    1    1    2    0    0  0.14844446750E+02  0.20181711856E+02  0.19724647556E+02  0.31886059869E+02  0.00000000000E+00 0.  1.
         11    1    3    3    0    0 -0.20915529407E+02 -0.18316937719E+01 -0.17123479228E+02  0.27092951364E+02  0.51100000000E-03 0. -1.
        -11    1    3    3    0    0 -0.10501187514E+01  0.22074415782E+01 -0.91642468253E+01  0.94846701497E+01  0.51100000000E-03 0.  1.
         12    1    3    3    0    0  0.71212014088E+01 -0.20557459662E+02  0.65630784978E+01  0.22724318618E+02  0.00000000000E+00 0. -1.
</event>
<event>
 7    1  0.6515090E-012  0.5930197E+02  0.7816164E-02  0.1266605E+00
        -11   -1    0    0    0    0  0.00000000000E+00  0.00000000000E+00  0.45593999997E+02  0.45594000000E+02  0.51100000000E-03 0.  1.
         11   -1    0    0    0    0 -0.00000000000E+00 -0.00000000000E+00 -0.45593999997E+02  0.45594000000E+02  0.51100000000E-03 0. -1.
    9900012    2    1    2    0    0 -0.29529402848E+02 -0.32109390718E+01 -0.11594103172E+02  0.59301968722E+02  0.50000045036E+02 0.  0.
        -12    1    1    2    0    0  0.29529402848E+02  0.32109390718E+01  0.11594103172E+02  0.31886031278E+02  0.00000000000E+00 0.  1.
         11    1    3    3    0    0 -0.86083264327E+01  0.28690891009E+01  0.51177266118E+01  0.10417585237E+02  0.51100000000E-03 0. -1.
        -11    1    3    3    0    0 -0.32938506393E+02 -0.29825857421E+01 -0.90101930331E+01  0.34278631826E+02  0.51100000000E-03 0.  1.
        -12    1    3    3    0    0  0.12017429977E+02 -0.30974424307E+01 -0.77016367509E+01  0.14605751659E+02  0.00000000000E+00 0.  1.
</event>
<event>
 7    1  0.6515090E-012  0.5930173E+02  0.7816164E-02  0.1266605E+00
        -11   -1    0    0    0    0  0.00000000000E+00  0.00000000000E+00  0.45593999997E+02  0.45594000000E+02  0.51100000000E-03 0.  1.
         11   -1    0    0    0    0 -0.00000000000E+00 -0.00000000000E+00 -0.45593999997E+02  0.45594000000E+02  0.51100000000E-03 0. -1.
    9900012    2    1    2    0    0  0.16944042718E+02 -0.45751657140E+01 -0.26621442563E+02  0.59301734475E+02  0.49999617826E+02 0.  0.
        -12    1    1    2    0    0 -0.16944042718E+02  0.45751657140E+01  0.26621442563E+02  0.31886265525E+02  0.00000000000E+00 0.  1.
         11    1    3    3    0    0  0.29323145716E+02  0.13819315673E+01 -0.64799319243E+01  0.30062370624E+02  0.51100000000E-03 0. -1.
        -11    1    3    3    0    0  0.63884232942E+00 -0.71896984999E+01 -0.33515870701E+01  0.79582045834E+01  0.51100000000E-03 0.  1.
        -12    1    3    3    0    0 -0.13017945328E+02  0.12326012186E+01 -0.16789923569E+02  0.21281159268E+02  0.00000000000E+00 0.  1.
</event>
<event>
 7    1  0.6515090E-012  0.5930198E+02  0.7816164E-02  0.1266605E+00
        -11   -1    0    0    0    0  0.00000000000E+00  0.00000000000E+00  0.45593999997E+02  0.45594000000E+02  0.51100000000E-03 0. -1.
         11   -1    0    0    0    0 -0.00000000000E+00 -0.00000000000E+00 -0.45593999997E+02  0.45594000000E+02  0.51100000000E-03 0.  1.
    9900012    2    1    2    0    0  0.17878940962E+02 -0.65470831004E+01 -0.25577277957E+02  0.59301984652E+02  0.50000074089E+02 0.  0.
        -12    1    1    2    0    0 -0.17878940962E+02  0.65470831004E+01  0.25577277957E+02  0.31886015348E+02  0.00000000000E+00 0.  1.
         11    1    3    3    0    0  0.14058995766E+02 -0.17778486521E+02 -0.66842707825E+01  0.23630688122E+02  0.51100000000E-03 0. -1.
        -11    1    3    3    0    0  0.17900790057E+00  0.31993926817E+00  0.71717723765E+01  0.71811366959E+01  0.51100000000E-03 0.  1.
         12    1    3    3    0    0  0.36409372951E+01  0.10911464153E+02 -0.26064779551E+02  0.28490159835E+02  0.00000000000E+00 0. -1.
</event>
<event>
 7    1  0.6515090E-012  0.5930194E+02  0.7816164E-02  0.1266605E+00
        -11   -1    0    0    0    0  0.00000000000E+00  0.00000000000E+00  0.45593999997E+02  0.45594000000E+02  0.51100000000E-03 0.  1.
         11   -1    0    0    0    0 -0.00000000000E+00 -0.00000000000E+00 -0.45593999997E+02  0.45594000000E+02  0.51100000000E-03 0. -1.
    9900012    2    1    2    0    0 -0.25916342997E+01  0.28541292608E+02 -0.13978515061E+02  0.59301939795E+02  0.49999992280E+02 0.  0.
        -12    1    1    2    0    0  0.25916342997E+01 -0.28541292608E+02  0.13978515061E+02  0.31886060205E+02  0.00000000000E+00 0.  1.
         11    1    3    3    0    0  0.15119179737E+01 -0.78957605610E+01 -0.96544574954E+00  0.80969757658E+01  0.51100000000E-03 0. -1.
        -11    1    3    3    0    0 -0.10322468686E+02  0.76351364161E+01  0.78973045601E+01  0.15073688581E+02  0.51100000000E-03 0.  1.
         12    1    3    3    0    0  0.62189164125E+01  0.28801916753E+02 -0.20910373872E+02  0.36131275448E+02  0.00000000000E+00 0. -1.
</event>
<event>
 7    1  0.6515090E-012  0.5930195E+02  0.7816164E-02  0.1266605E+00
        -11   -1    0    0    0    0  0.00000000000E+00  0.00000000000E+00  0.45593999997E+02  0.45594000000E+02  0.51100000000E-03 0.  1.
         11   -1    0    0    0    0 -0.00000000000E+00 -0.00000000000E+00 -0.45593999997E+02  0.45594000000E+02  0.51100000000E-03 0. -1.
    9900012    2    1    2    0    0 -0.14358705123E+02  0.22853622230E+02 -0.16978206574E+02  0.59301953517E+02  0.50000017306E+02 0.  0.
        -12    1    1    2    0    0  0.14358705123E+02 -0.22853622230E+02  0.16978206574E+02  0.31886046483E+02  0.00000000000E+00 0.  1.
         11    1    3    3    0    0  0.11996435589E+00  0.99130552156E+00 -0.11872458155E+02  0.11914375392E+02  0.51100000000E-03 0. -1.
        -11    1    3    3    0    0 -0.11563068175E+02  0.69627578051E+01 -0.21282859230E+02  0.25202076088E+02  0.51100000000E-03 0.  1.
         12    1    3    3    0    0 -0.29156013040E+01  0.14899558903E+02  0.16177110810E+02  0.22185502037E+02  0.00000000000E+00 0. -1.
</event>
<event>
 7    1  0.6515090E-012  0.5930194E+02  0.7816164E-02  0.1266605E+00
        -11   -1    0    0    0    0  0.00000000000E+00  0.00000000000E+00  0.45593999997E+02  0.45594000000E+02  0.51100000000E-03 0. -1.
         11   -1    0    0    0    0 -0.00000000000E+00 -0.00000000000E+00 -0.45593999997E+02  0.45594000000E+02  0.51100000000E-03 0.  1.
    9900012    2    1    2    0    0 -0.23820620719E+02  0.84084794427E+01  0.19457550646E+02  0.59301940740E+02  0.49999994004E+02 0.  0.
        -12    1    1    2    0    0  0.23820620719E+02 -0.84084794427E+01 -0.19457550646E+02  0.31886059260E+02  0.00000000000E+00 0.  1.
         11    1    3    3    0    0 -0.43184982554E+01  0.47592541180E+01 -0.76424641392E+01  0.99853485328E+01  0.51100000000E-03 0. -1.
        -11    1    3    3    0    0  0.79325199952E+01 -0.22677672756E+00  0.18779074935E+02  0.20387004607E+02  0.51100000000E-03 0.  1.
         12    1    3    3    0    0 -0.27434642459E+02  0.38760020523E+01  0.83209398499E+01  0.28929587600E+02  0.00000000000E+00 0. -1.
</event>
<event>
 7    1  0.6515090E-012  0.5930195E+02  0.7816164E-02  0.1266605E+00
        -11   -1    0    0    0    0  0.00000000000E+00  0.00000000000E+00  0.45593999997E+02  0.45594000000E+02  0.51100000000E-03 0. -1.
         11   -1    0    0    0    0 -0.00000000000E+00 -0.00000000000E+00 -0.45593999997E+02  0.45594000000E+02  0.51100000000E-03 0.  1.
    9900012    2    1    2    0    0 -0.66513916201E+01 -0.20103269423E+01  0.31119733212E+02  0.59301949443E+02  0.50000009876E+02 0.  0.
        -12    1    1    2    0    0  0.66513916201E+01  0.20103269423E+01 -0.31119733212E+02  0.31886050557E+02  0.00000000000E+00 0.  1.
         11    1    3    3    0    0 -0.16998637376E+01  0.60652782458E+01 -0.90675234767E+00  0.63639089408E+01  0.51100000000E-03 0. -1.
        -11    1    3    3    0    0 -0.35109925522E+01  0.16717599939E+02  0.10346283749E+02  0.19971249438E+02  0.51100000000E-03 0.  1.
         12    1    3    3    0    0 -0.14405353303E+01 -0.24793205127E+02  0.21680201811E+02  0.32966791064E+02  0.00000000000E+00 0. -1.
</event>
<event>
 7    1  0.6515090E-012  0.5930196E+02  0.7816164E-02  0.1266605E+00
        -11   -1    0    0    0    0  0.00000000000E+00  0.00000000000E+00  0.45593999997E+02  0.45594000000E+02  0.51100000000E-03 0. -1.
         11   -1    0    0    0    0 -0.00000000000E+00 -0.00000000000E+00 -0.45593999997E+02  0.45594000000E+02  0.51100000000E-03 0.  1.
    9900012    2    1    2    0    0  0.12510312092E+02 -0.28486854180E+02  0.69793132630E+01  0.59301959429E+02  0.50000028088E+02 0.  0.
        -12    1    1    2    0    0 -0.12510312092E+02  0.28486854180E+02 -0.69793132630E+01  0.31886040571E+02  0.00000000000E+00 0.  1.
         11    1    3    3    0    0  0.16662857757E+02  0.35986406996E+01 -0.10234177839E+01  0.17077717287E+02  0.51100000000E-03 0. -1.
        -11    1    3    3    0    0  0.98679231358E+01 -0.52549055128E+01  0.18387937854E+01  0.11330097167E+02  0.51100000000E-03 0.  1.
         12    1    3    3    0    0 -0.14020468801E+02 -0.26830589366E+02  0.61639372615E+01  0.30894144975E+02  0.00000000000E+00 0. -1.
</event>
<event>
 7    1  0.6515090E-012  0.5930189E+02  0.7816164E-02  0.1266605E+00
        -11   -1    0    0    0    0  0.00000000000E+00  0.00000000000E+00  0.45593999997E+02  0.45594000000E+02  0.51100000000E-03 0.  1.
         11   -1    0    0    0    0 -0.00000000000E+00 -0.00000000000E+00 -0.45593999997E+02  0.45594000000E+02  0.51100000000E-03 0. -1.
    9900012    2    1    2    0    0 -0.29941047912E+02  0.70275104900E+01  0.84185375217E+01  0.59301889737E+02  0.49999900986E+02 0.  0.
        -12    1    1    2    0    0  0.29941047912E+02 -0.70275104900E+01 -0.84185375217E+01  0.31886110263E+02  0.00000000000E+00 0.  1.
         11    1    3    3    0    0 -0.22136200878E+02 -0.17259140878E+02 -0.43914572843E+01  0.28410811859E+02  0.51100000000E-03 0. -1.
        -11    1    3    3    0    0 -0.18288804740E+01  0.94494797751E+00 -0.17817313839E+01  0.27225534805E+01  0.51100000000E-03 0.  1.
        -12    1    3    3    0    0 -0.59759665598E+01  0.23341703391E+02  0.14591726190E+02  0.28168524397E+02  0.00000000000E+00 0.  1.
</event>
<event>
 7    1  0.6515090E-012  0.5930194E+02  0.7816164E-02  0.1266605E+00
        -11   -1    0    0    0    0  0.00000000000E+00  0.00000000000E+00  0.45593999997E+02  0.45594000000E+02  0.51100000000E-03 0.  1.
         11   -1    0    0    0    0 -0.00000000000E+00 -0.00000000000E+00 -0.45593999997E+02  0.45594000000E+02  0.51100000000E-03 0. -1.
    9900012    2    1    2    0    0  0.12796415819E+02  0.25097726835E+02 -0.14935758904E+02  0.59301936522E+02  0.49999986311E+02 0.  0.
        -12    1    1    2    0    0 -0.12796415819E+02 -0.25097726835E+02  0.14935758904E+02  0.31886063478E+02  0.00000000000E+00 0.  1.
         11    1    3    3    0    0  0.20011154550E+02  0.66054871566E+01 -0.16286781004E+02  0.26633400135E+02  0.51100000000E-03 0. -1.
        -11    1    3    3    0    0 -0.12795577405E-01  0.21921295134E+02 -0.49858799212E+01  0.22481155284E+02  0.51100000000E-03 0.  1.
        -12    1    3    3    0    0 -0.72019431539E+01 -0.34290554555E+01  0.63369020209E+01  0.10187381103E+02  0.00000000000E+00 0.  1.
</event>
<event>
 7    1  0.6515090E-012  0.5930195E+02  0.7816164E-02  0.1266605E+00
        -11   -1    0    0    0    0  0.00000000000E+00  0.00000000000E+00  0.45593999997E+02  0.45594000000E+02  0.51100000000E-03 0.  1.
         11   -1    0    0    0    0 -0.00000000000E+00 -0.00000000000E+00 -0.45593999997E+02  0.45594000000E+02  0.51100000000E-03 0. -1.
    9900012    2    1    2    0    0 -0.17188523467E+02  0.22397505742E+02  0.14819813665E+02  0.59301945375E+02  0.50000002458E+02 0.  0.
        -12    1    1    2    0    0  0.17188523467E+02 -0.22397505742E+02 -0.14819813665E+02  0.31886054625E+02  0.00000000000E+00 0.  1.
         11    1    3    3    0    0  0.10017575112E+02  0.11378340382E+02  0.42869956903E+01  0.15754262068E+02  0.51100000000E-03 0. -1.
        -11    1    3    3    0    0 -0.85646042081E+01  0.14208600689E+02  0.16812662317E+02  0.23619957520E+02  0.51100000000E-03 0.  1.
         12    1    3    3    0    0 -0.18641494371E+02 -0.31894353289E+01 -0.62798443422E+01  0.19927725788E+02  0.00000000000E+00 0. -1.
</event>
<event>
 7    1  0.6515090E-012  0.5930191E+02  0.7816164E-02  0.1266605E+00
        -11   -1    0    0    0    0  0.00000000000E+00  0.00000000000E+00  0.45593999997E+02  0.45594000000E+02  0.51100000000E-03 0. -1.
         11   -1    0    0    0    0 -0.00000000000E+00 -0.00000000000E+00 -0.45593999997E+02  0.45594000000E+02  0.51100000000E-03 0.  1.
    9900012    2    1    2    0    0  0.75898449384E+01  0.13454715113E+02  0.27894217009E+02  0.59301914516E+02  0.49999946177E+02 0.  0.
        -12    1    1    2    0    0 -0.75898449384E+01 -0.13454715113E+02 -0.27894217009E+02  0.31886085484E+02  0.00000000000E+00 0.  1.
         11    1    3    3    0    0 -0.10978729768E+02 -0.49168882154E+01  0.16752647156E+02  0.20624245053E+02  0.51100000000E-03 0. -1.
        -11    1    3    3    0    0 -0.58981802370E+01  0.65789088683E+01 -0.10661703479E+01  0.88998478345E+01  0.51100000000E-03 0.  1.
        -12    1    3    3    0    0  0.24466754943E+02  0.11792694460E+02  0.12207740201E+02  0.29777821628E+02  0.00000000000E+00 0.  1.
</event>
<event>
 7    1  0.6515090E-012  0.5930156E+02  0.7816164E-02  0.1266606E+00
        -11   -1    0    0    0    0  0.00000000000E+00  0.00000000000E+00  0.45593999997E+02  0.45594000000E+02  0.51100000000E-03 0. -1.
         11   -1    0    0    0    0 -0.00000000000E+00 -0.00000000000E+00 -0.45593999997E+02  0.45594000000E+02  0.51100000000E-03 0.  1.
    9900012    2    1    2    0    0 -0.71841145022E+01 -0.27533330246E+02  0.14389203060E+02  0.59301561812E+02  0.49999302925E+02 0.  0.
        -12    1    1    2    0    0  0.71841145022E+01  0.27533330246E+02 -0.14389203060E+02  0.31886438188E+02  0.00000000000E+00 0.  1.
         11    1    3    3    0    0 -0.28918832600E+01 -0.15116101102E+02 -0.91961010154E+01  0.17928406941E+02  0.51100000000E-03 0. -1.
        -11    1    3    3    0    0  0.22522532683E+01 -0.14455494951E+02 -0.21082135390E+01  0.14781019709E+02  0.51100000000E-03 0.  1.
         12    1    3    3    0    0 -0.65444845105E+01  0.20382658062E+01  0.25693517615E+02  0.26592135161E+02  0.00000000000E+00 0. -1.
</event>
<event>
 7    1  0.6515090E-012  0.5930197E+02  0.7816164E-02  0.1266605E+00
        -11   -1    0    0    0    0  0.00000000000E+00  0.00000000000E+00  0.45593999997E+02  0.45594000000E+02  0.51100000000E-03 0. -1.
         11   -1    0    0    0    0 -0.00000000000E+00 -0.00000000000E+00 -0.45593999997E+02  0.45594000000E+02  0.51100000000E-03 0.  1.
    9900012    2    1    2    0    0  0.13447827506E+02 -0.27554662712E+02  0.87530394157E+01  0.59301965427E+02  0.50000039027E+02 0.  0.
        -12    1    1    2    0    0 -0.13447827506E+02  0.27554662712E+02 -0.87530394157E+01  0.31886034573E+02  0.00000000000E+00 0.  1.
         11    1    3    3    0    0  0.93575759653E+01 -0.77092416123E+00 -0.32030172470E+01  0.99205781966E+01  0.51100000000E-03 0. -1.
        -11    1    3    3    0    0  0.56555763487E+01  0.81626966261E+01 -0.42825784605E+01  0.10814603024E+02  0.51100000000E-03 0.  1.
         12    1    3    3    0    0 -0.15653248077E+01 -0.34946435177E+02  0.16238635123E+02  0.38566784206E+02  0.00000000000E+00 0. -1.
</event>
<event>
 7    1  0.6515090E-012  0.5930196E+02  0.7816164E-02  0.1266605E+00
        -11   -1    0    0    0    0  0.00000000000E+00  0.00000000000E+00  0.45593999997E+02  0.45594000000E+02  0.51100000000E-03 0.  1.
         11   -1    0    0    0    0 -0.00000000000E+00 -0.00000000000E+00 -0.45593999997E+02  0.45594000000E+02  0.51100000000E-03 0. -1.
    9900012    2    1    2    0    0 -0.12114081619E+02 -0.33946558309E+01 -0.29299227081E+02  0.59301962786E+02  0.50000034210E+02 0.  0.
        -12    1    1    2    0    0  0.12114081619E+02  0.33946558309E+01  0.29299227081E+02  0.31886037214E+02  0.00000000000E+00 0.  1.
         11    1    3    3    0    0  0.23896748911E+01  0.42728889232E+01  0.17806656768E+01  0.52095005853E+01  0.51100000000E-03 0. -1.
        -11    1    3    3    0    0 -0.46038973845E+01  0.10892319583E+02  0.45877243261E+01  0.12684073154E+02  0.51100000000E-03 0.  1.
         12    1    3    3    0    0 -0.98998591258E+01 -0.18559864337E+02 -0.35667617084E+02  0.41408389046E+02  0.00000000000E+00 0. -1.
</event>
<event>
 7    1  0.6515090E-012  0.5930194E+02  0.7816164E-02  0.1266605E+00
        -11   -1    0    0    0    0  0.00000000000E+00  0.00000000000E+00  0.45593999997E+02  0.45594000000E+02  0.51100000000E-03 0. -1.
         11   -1    0    0    0    0 -0.00000000000E+00 -0.00000000000E+00 -0.45593999997E+02  0.45594000000E+02  0.51100000000E-03 0.  1.
    9900012    2    1    2    0    0 -0.28944749126E+01  0.12995559008E+02  0.28973401345E+02  0.59301944671E+02  0.50000001173E+02 0.  0.
        -12    1    1    2    0    0  0.28944749126E+01 -0.12995559008E+02 -0.28973401345E+02  0.31886055329E+02  0.00000000000E+00 0.  1.
         11    1    3    3    0    0  0.56477472819E+00  0.28041333246E+01  0.61803068632E+01  0.68101635355E+01  0.51100000000E-03 0. -1.
        -11    1    3    3    0    0 -0.18611012699E+02 -0.95144461904E+01  0.17063296928E+02  0.26982412463E+02  0.51100000000E-03 0.  1.
         12    1    3    3    0    0  0.15151763059E+02  0.19705871873E+02  0.57297975536E+01  0.25509368673E+02  0.00000000000E+00 0. -1.
</event>
<event>
 7    1  0.6515090E-012  0.5930194E+02  0.7816164E-02  0.1266605E+00
        -11   -1    0    0    0    0  0.00000000000E+00  0.00000000000E+00  0.45593999997E+02  0.45594000000E+02  0.51100000000E-03 0. -1.
         11   -1    0    0    0    0 -0.00000000000E+00 -0.00000000000E+00 -0.45593999997E+02  0.45594000000E+02  0.51100000000E-03 0.  1.
    9900012    2    1    2    0    0 -0.75947223887E+01  0.65950934398E+01  0.30257986075E+02  0.59301940554E+02  0.49999993666E+02 0.  0.
        -12    1    1    2    0    0  0.75947223887E+01 -0.65950934398E+01 -0.30257986075E+02  0.31886059446E+02  0.00000000000E+00 0.  1.
         11    1    3    3    0    0 -0.60736486961E+01  0.11957505508E+02  0.50944989927E+01  0.14346604710E+02  0.51100000000E-03 0. -1.
        -11    1    3    3    0    0 -0.19034045274E+01  0.14502643147E+01 -0.94127968545E+01  0.97122067659E+01  0.51100000000E-03 0.  1.
        -12    1    3    3    0    0  0.38233083485E+00 -0.68126763830E+01  0.34576283937E+02  0.35243129079E+02  0.00000000000E+00 0.  1.
</event>
<event>
 7    1  0.6515090E-012  0.5930194E+02  0.7816164E-02  0.1266605E+00
        -11   -1    0    0    0    0  0.00000000000E+00  0.00000000000E+00  0.45593999997E+02  0.45594000000E+02  0.51100000000E-03 0.  1.
         11   -1    0    0    0    0 -0.00000000000E+00 -0.00000000000E+00 -0.45593999997E+02  0.45594000000E+02  0.51100000000E-03 0. -1.
    9900012    2    1    2    0    0 -0.51549727346E+00 -0.29421503314E+02 -0.12281290779E+02  0.59301941951E+02  0.49999996213E+02 0.  0.
        -12    1    1    2    0    0  0.51549727346E+00  0.29421503314E+02  0.12281290779E+02  0.31886058049E+02  0.00000000000E+00 0.  1.
         11    1    3    3    0    0  0.15059917652E+02 -0.77956449580E+00  0.63332852710E+01  0.16356018558E+02  0.51100000000E-03 0. -1.
        -11    1    3    3    0    0  0.50896805975E+01 -0.48862347140E+01 -0.49709835414E+01  0.86308062135E+01  0.51100000000E-03 0.  1.
        -12    1    3    3    0    0 -0.20665095523E+02 -0.23755704104E+02 -0.13643592509E+02  0.34315117179E+02  0.00000000000E+00 0.  1.
</event>
<event>
 7    1  0.6515090E-012  0.5930190E+02  0.7816164E-02  0.1266605E+00
        -11   -1    0    0    0    0  0.00000000000E+00  0.00000000000E+00  0.45593999997E+02  0.45594000000E+02  0.51100000000E-03 0.  1.
         11   -1    0    0    0    0 -0.00000000000E+00 -0.00000000000E+00 -0.45593999997E+02  0.45594000000E+02  0.51100000000E-03 0. -1.
    9900012    2    1    2    0    0 -0.31176481669E+02 -0.53552847345E+01 -0.40088706746E+01  0.59301903846E+02  0.49999926718E+02 0.  0.
        -12    1    1    2    0    0  0.31176481669E+02  0.53552847345E+01  0.40088706746E+01  0.31886096154E+02  0.00000000000E+00 0.  1.
         11    1    3    3    0    0 -0.16798624257E+02 -0.45614021043E+01 -0.82722489774E+01  0.19272526288E+02  0.51100000000E-03 0. -1.
        -11    1    3    3    0    0 -0.22178946366E+02  0.10744892626E+01 -0.94579211804E+01  0.24135294952E+02  0.51100000000E-03 0.  1.
        -12    1    3    3    0    0  0.78010889545E+01 -0.18683718928E+01  0.13721299483E+02  0.15894082607E+02  0.00000000000E+00 0.  1.
</event>
<event>
 7    1  0.6515090E-012  0.5930193E+02  0.7816164E-02  0.1266605E+00
        -11   -1    0    0    0    0  0.00000000000E+00  0.00000000000E+00  0.45593999997E+02  0.45594000000E+02  0.51100000000E-03 0. -1.
         11   -1    0    0    0    0 -0.00000000000E+00 -0.00000000000E+00 -0.45593999997E+02  0.45594000000E+02  0.51100000000E-03 0.  1.
    9900012    2    1    2    0    0 -0.27582618043E+02 -0.34843332961E+01  0.15613448213E+02  0.59301934678E+02  0.49999982949E+02 0.  0.
        -12    1    1    2    0    0  0.27582618043E+02  0.34843332961E+01 -0.15613448213E+02  0.31886065322E+02  0.00000000000E+00 0.  1.
         11    1    3    3    0    0 -0.16355849643E+02 -0.55678316003E-01  0.72418917020E+01  0.17887479233E+02  0.51100000000E-03 0. -1.
        -11    1    3    3    0    0 -0.13239414448E+02 -0.10264406863E+02 -0.11489494179E+02  0.20313754452E+02  0.51100000000E-03 0.  1.
         12    1    3    3    0    0  0.20126460479E+01  0.68357518834E+01  0.19861050690E+02  0.21100700994E+02  0.00000000000E+00 0. -1.
</event>
<event>
 7    1  0.6515090E-012  0.5930195E+02  0.7816164E-02  0.1266605E+00
        -11   -1    0    0    0    0  0.00000000000E+00  0.00000000000E+00  0.45593999997E+02  0.45594000000E+02  0.51100000000E-03 0. -1.
         11   -1    0    0    0    0 -0.00000000000E+00 -0.00000000000E+00 -0.45593999997E+02  0.45594000000E+02  0.51100000000E-03 0.  1.
    9900012    2    1    2    0    0 -0.11762727851E+02  0.79883904120E+01  0.28540219457E+02  0.59301948590E+02  0.50000008320E+02 0.  0.
        -12    1    1    2    0    0  0.11762727851E+02 -0.79883904120E+01 -0.28540219457E+02  0.31886051410E+02  0.00000000000E+00 0.  1.
         11    1    3    3    0    0 -0.10687377326E+02 -0.22799823979E+01  0.81432956559E+01  0.13628338793E+02  0.51100000000E-03 0. -1.
        -11    1    3    3    0    0 -0.95288899732E+01  0.77180693796E+01  0.30131407219E+02  0.32531062699E+02  0.51100000000E-03 0.  1.
        -12    1    3    3    0    0  0.84535394486E+01  0.25503034303E+01 -0.97344834184E+01  0.13142547098E+02  0.00000000000E+00 0.  1.
</event>
<event>
 7    1  0.6515090E-012  0.5930196E+02  0.7816164E-02  0.1266605E+00
        -11   -1    0    0    0    0  0.00000000000E+00  0.00000000000E+00  0.45593999997E+02  0.45594000000E+02  0.51100000000E-03 0. -1.
         11   -1    0    0    0    0 -0.00000000000E+00 -0.00000000000E+00 -0.45593999997E+02  0.45594000000E+02  0.51100000000E-03 0.  1.
    9900012    2    1    2    0    0 -0.27841431597E+02 -0.64498482580E+01  0.14141198823E+02  0.59301962929E+02  0.50000034472E+02 0.  0.
        -12    1    1    2    0    0  0.27841431597E+02  0.64498482580E+01 -0.14141198823E+02  0.31886037071E+02  0.00000000000E+00 0.  1.
         11    1    3    3    0    0 -0.80491235658E+00 -0.13002344139E+01 -0.55241750101E+01  0.57319284047E+01  0.51100000000E-03 0. -1.
        -11    1    3    3    0    0 -0.65325032721E+01 -0.12841593621E+02 -0.93815047170E+01  0.17192811194E+02  0.51100000000E-03 0.  1.
         12    1    3    3    0    0 -0.20504015969E+02  0.76919797773E+01  0.29046878550E+02  0.36377223330E+02  0.00000000000E+00 0. -1.
</event>
<event>
 7    1  0.6515090E-012  0.5930194E+02  0.7816164E-02  0.1266605E+00
        -11   -1    0    0    0    0  0.00000000000E+00  0.00000000000E+00  0.45593999997E+02  0.45594000000E+02  0.51100000000E-03 0.  1.
         11   -1    0    0    0    0 -0.00000000000E+00 -0.00000000000E+00 -0.45593999997E+02  0.45594000000E+02  0.51100000000E-03 0. -1.
    9900012    2    1    2    0    0  0.24475439866E+02 -0.16475104904E+02 -0.12093152237E+02  0.59301943968E+02  0.49999999891E+02 0.  0.
        -12    1    1    2    0    0 -0.24475439866E+02  0.16475104904E+02  0.12093152237E+02  0.31886056032E+02  0.00000000000E+00 0.  1.
         11    1    3    3    0    0 -0.35214517944E+01  0.11114960022E-01 -0.13761985759E+01  0.37808291503E+01  0.51100000000E-03 0. -1.
        -11    1    3    3    0    0 -0.67035574662E+00  0.13192381260E+02 -0.29096500662E+01  0.13526062395E+02  0.51100000000E-03 0.  1.
         12    1    3    3    0    0  0.28667247407E+02 -0.29678601124E+02 -0.78073035951E+01  0.41995052423E+02  0.00000000000E+00 0. -1.
</event>
<event>
 7    1  0.6515090E-012  0.5930194E+02  0.7816164E-02  0.1266605E+00
        -11   -1    0    0    0    0  0.00000000000E+00  0.00000000000E+00  0.45593999997E+02  0.45594000000E+02  0.51100000000E-03 0. -1.
         11   -1    0    0    0    0 -0.00000000000E+00 -0.00000000000E+00 -0.45593999997E+02  0.45594000000E+02  0.51100000000E-03 0.  1.
    9900012    2    1    2    0    0 -0.10408649427E+02  0.29263360073E+02  0.72136282553E+01  0.59301942573E+02  0.49999997346E+02 0.  0.
        -12    1    1    2    0    0  0.10408649427E+02 -0.29263360073E+02 -0.72136282553E+01  0.31886057427E+02  0.00000000000E+00 0.  1.
         11    1    3    3    0    0 -0.29218372456E+01  0.51136462756E+01  0.10578841127E+02  0.12107782249E+02  0.51100000000E-03 0. -1.
        -11    1    3    3    0    0 -0.99874310943E+01 -0.66870316299E+00  0.13702900715E+02  0.16969544250E+02  0.51100000000E-03 0.  1.
        -12    1    3    3    0    0  0.25006189128E+01  0.24818416960E+02 -0.17068113588E+02  0.30224616074E+02  0.00000000000E+00 0.  1.
</event>
<event>
 7    1  0.6515090E-012  0.5930195E+02  0.7816164E-02  0.1266605E+00
        -11   -1    0    0    0    0  0.00000000000E+00  0.00000000000E+00  0.45593999997E+02  0.45594000000E+02  0.51100000000E-03 0.  1.
         11   -1    0    0    0    0 -0.00000000000E+00 -0.00000000000E+00 -0.45593999997E+02  0.45594000000E+02  0.51100000000E-03 0. -1.
    9900012    2    1    2    0    0  0.98440317757E+01 -0.80508766165E+01 -0.29240356656E+02  0.59301952373E+02  0.50000015220E+02 0.  0.
        -12    1    1    2    0    0 -0.98440317757E+01  0.80508766165E+01  0.29240356656E+02  0.31886047627E+02  0.00000000000E+00 0.  1.
         11    1    3    3    0    0  0.17808383608E+02 -0.60071264402E+01 -0.17558550930E+02  0.25720163410E+02  0.51100000000E-03 0. -1.
        -11    1    3    3    0    0  0.72041702484E+01 -0.72474006745E+01 -0.14048339911E+02  0.17371837555E+02  0.51100000000E-03 0.  1.
        -12    1    3    3    0    0 -0.15168522081E+02  0.52036504983E+01  0.23665341849E+01  0.16209951409E+02  0.00000000000E+00 0.  1.
</event>
<event>
 7    1  0.6515090E-012  0.5930193E+02  0.7816164E-02  0.1266605E+00
        -11   -1    0    0    0    0  0.00000000000E+00  0.00000000000E+00  0.45593999997E+02  0.45594000000E+02  0.51100000000E-03 0. -1.
         11   -1    0    0    0    0 -0.00000000000E+00 -0.00000000000E+00 -0.45593999997E+02  0.45594000000E+02  0.51100000000E-03 0.  1.
    9900012    2    1    2    0    0 -0.21668776342E+02 -0.17477471087E+02  0.15547467723E+02  0.59301927549E+02  0.49999969946E+02 0.  0.
        -12    1    1    2    0    0  0.21668776342E+02  0.17477471087E+02 -0.15547467723E+02  0.31886072451E+02  0.00000000000E+00 0.  1.
         11    1    3    3    0    0 -0.30882589329E+02 -0.46878591529E+01  0.12057578080E+02  0.33482764768E+02  0.51100000000E-03 0. -1.
        -11    1    3    3    0    0 -0.39379560033E-01  0.50922726585E+01  0.24683984675E+01  0.56591326927E+01  0.51100000000E-03 0.  1.
         12    1    3    3    0    0  0.92531925474E+01 -0.17881884593E+02  0.10214911759E+01  0.20160030088E+02  0.00000000000E+00 0. -1.
</event>
<event>
 7    1  0.6515090E-012  0.5930191E+02  0.7816164E-02  0.1266605E+00
        -11   -1    0    0    0    0  0.00000000000E+00  0.00000000000E+00  0.45593999997E+02  0.45594000000E+02  0.51100000000E-03 0. -1.
         11   -1    0    0    0    0 -0.00000000000E+00 -0.00000000000E+00 -0.45593999997E+02  0.45594000000E+02  0.51100000000E-03 0.  1.
    9900012    2    1    2    0    0  0.13174245566E+02 -0.25328165188E+02  0.14200218721E+02  0.59301907268E+02  0.49999932959E+02 0.  0.
        -12    1    1    2    0    0 -0.13174245566E+02  0.25328165188E+02 -0.14200218721E+02  0.31886092732E+02  0.00000000000E+00 0.  1.
         11    1    3    3    0    0  0.13033550313E+02 -0.82136927667E+01 -0.12970161353E+02  0.20138601451E+02  0.51100000000E-03 0. -1.
        -11    1    3    3    0    0  0.69879566456E+01 -0.42317892969E+01 -0.17296229733E+00  0.81712603037E+01  0.51100000000E-03 0.  1.
        -12    1    3    3    0    0 -0.68472613927E+01 -0.12882683124E+02  0.27343342371E+02  0.30992045513E+02  0.00000000000E+00 0.  1.
</event>
<event>
 7    1  0.6515090E-012  0.5930193E+02  0.7816164E-02  0.1266605E+00
        -11   -1    0    0    0    0  0.00000000000E+00  0.00000000000E+00  0.45593999997E+02  0.45594000000E+02  0.51100000000E-03 0. -1.
         11   -1    0    0    0    0 -0.00000000000E+00 -0.00000000000E+00 -0.45593999997E+02  0.45594000000E+02  0.51100000000E-03 0.  1.
    9900012    2    1    2    0    0  0.29316805520E+02  0.11306013601E+02 -0.54240476307E+01  0.59301932162E+02  0.49999978360E+02 0.  0.
        -12    1    1    2    0    0 -0.29316805520E+02 -0.11306013601E+02  0.54240476307E+01  0.31886067838E+02  0.00000000000E+00 0.  1.
         11    1    3    3    0    0  0.13988950666E+02  0.97756042186E+01  0.18260015213E+02  0.24993625876E+02  0.51100000000E-03 0. -1.
        -11    1    3    3    0    0  0.10185445128E+02 -0.54530948054E+01 -0.30851519736E+01  0.11958164507E+02  0.51100000000E-03 0.  1.
        -12    1    3    3    0    0  0.51424097268E+01  0.69835041876E+01 -0.20598910870E+02  0.22350141780E+02  0.00000000000E+00 0.  1.
</event>
<event>
 7    1  0.6515090E-012  0.5930191E+02  0.7816164E-02  0.1266605E+00
        -11   -1    0    0    0    0  0.00000000000E+00  0.00000000000E+00  0.45593999997E+02  0.45594000000E+02  0.51100000000E-03 0. -1.
         11   -1    0    0    0    0 -0.00000000000E+00 -0.00000000000E+00 -0.45593999997E+02  0.45594000000E+02  0.51100000000E-03 0.  1.
    9900012    2    1    2    0    0 -0.12067922078E+02 -0.13445990017E+02  0.26273431395E+02  0.59301912312E+02  0.49999942158E+02 0.  0.
        -12    1    1    2    0    0  0.12067922078E+02  0.13445990017E+02 -0.26273431395E+02  0.31886087688E+02  0.00000000000E+00 0.  1.
         11    1    3    3    0    0  0.41815316930E+01 -0.17925549098E+02  0.13364344921E+02  0.22746785118E+02  0.51100000000E-03 0. -1.
        -11    1    3    3    0    0  0.82924891189E+01  0.46439485265E+01  0.51806673830E+01  0.10824553039E+02  0.51100000000E-03 0.  1.
        -12    1    3    3    0    0 -0.24541942890E+02 -0.16438944547E+00  0.77284190904E+01  0.25730574155E+02  0.00000000000E+00 0.  1.
</event>
<event>
 7    1  0.6515090E-012  0.5930195E+02  0.7816164E-02  0.1266605E+00
        -11   -1    0    0    0    0  0.00000000000E+00  0.00000000000E+00  0.45593999997E+02  0.45594000000E+02  0.51100000000E-03 0.  1.
         11   -1    0    0    0    0 -0.00000000000E+00 -0.00000000000E+00 -0.45593999997E+02  0.45594000000E+02  0.51100000000E-03 0. -1.
    9900012    2    1    2    0    0 -0.15769073766E+02  0.10481092845E+02  0.25655473127E+02  0.59301948252E+02  0.50000007705E+02 0.  0.
        -12    1    1    2    0    0  0.15769073766E+02 -0.10481092845E+02 -0.25655473127E+02  0.31886051748E+02  0.00000000000E+00 0.  1.
         11    1    3    3    0    0 -0.88322425863E+01 -0.93817093754E+01 -0.16616673196E+01  0.12991771182E+02  0.51100000000E-03 0. -1.
        -11    1    3    3    0    0  0.98344761087E+01  0.26187374260E+01  0.17673444314E+02  0.20394247724E+02  0.51100000000E-03 0.  1.
         12    1    3    3    0    0 -0.16771307288E+02  0.17244064794E+02  0.96436961332E+01  0.25915929347E+02  0.00000000000E+00 0. -1.
</event>
<event>
 7    1  0.6515090E-012  0.5930196E+02  0.7816164E-02  0.1266605E+00
        -11   -1    0    0    0    0  0.00000000000E+00  0.00000000000E+00  0.45593999997E+02  0.45594000000E+02  0.51100000000E-03 0.  1.
         11   -1    0    0    0    0 -0.00000000000E+00 -0.00000000000E+00 -0.45593999997E+02  0.45594000000E+02  0.51100000000E-03 0. -1.
    9900012    2    1    2    0    0 -0.17351340933E+02 -0.11847642067E+02 -0.23985077110E+02  0.59301959501E+02  0.50000028220E+02 0.  0.
        -12    1    1    2    0    0  0.17351340933E+02  0.11847642067E+02  0.23985077110E+02  0.31886040499E+02  0.00000000000E+00 0.  1.
         11    1    3    3    0    0 -0.63935892464E+01  0.24312020919E+01 -0.33242585450E+02  0.33939036739E+02  0.51100000000E-03 0. -1.
        -11    1    3    3    0    0 -0.37733735377E+01 -0.59829466461E+01 -0.40208637134E+01  0.81364208156E+01  0.51100000000E-03 0.  1.
        -12    1    3    3    0    0 -0.71843781493E+01 -0.82958975125E+01  0.13278372054E+02  0.17226501947E+02  0.00000000000E+00 0.  1.
</event>
<event>
 7    1  0.6515090E-012  0.5930195E+02  0.7816164E-02  0.1266605E+00
        -11   -1    0    0    0    0  0.00000000000E+00  0.00000000000E+00  0.45593999997E+02  0.45594000000E+02  0.51100000000E-03 0.  1.
         11   -1    0    0    0    0 -0.00000000000E+00 -0.00000000000E+00 -0.45593999997E+02  0.45594000000E+02  0.51100000000E-03 0. -1.
    9900012    2    1    2    0    0 -0.24017485900E+02  0.20783652182E+02 -0.28142942138E+01  0.59301951657E+02  0.50000013914E+02 0.  0.
        -12    1    1    2    0    0  0.24017485900E+02 -0.20783652182E+02  0.28142942138E+01  0.31886048343E+02  0.00000000000E+00 0.  1.
         11    1    3    3    0    0 -0.27183810862E+02  0.80113645016E+01  0.44323841616E+01  0.28684273806E+02  0.51100000000E-03 0. -1.
        -11    1    3    3    0    0 -0.30226577946E+01 -0.10484088594E+01 -0.13764488478E+02  0.14131410567E+02  0.51100000000E-03 0.  1.
        -12    1    3    3    0    0  0.61889827567E+01  0.13820696540E+02  0.65178101031E+01  0.16486267284E+02  0.00000000000E+00 0.  1.
</event>
<event>
 7    1  0.6515090E-012  0.5930194E+02  0.7816164E-02  0.1266605E+00
        -11   -1    0    0    0    0  0.00000000000E+00  0.00000000000E+00  0.45593999997E+02  0.45594000000E+02  0.51100000000E-03 0. -1.
         11   -1    0    0    0    0 -0.00000000000E+00 -0.00000000000E+00 -0.45593999997E+02  0.45594000000E+02  0.51100000000E-03 0.  1.
    9900012    2    1    2    0    0 -0.38154962014E+01  0.24784027361E+02  0.19695544685E+02  0.59301944993E+02  0.50000001760E+02 0.  0.
        -12    1    1    2    0    0  0.38154962014E+01 -0.24784027361E+02 -0.19695544685E+02  0.31886055007E+02  0.00000000000E+00 0.  1.
         11    1    3    3    0    0 -0.16906363553E+01 -0.30302125412E-01 -0.41122898373E+01  0.44463577759E+01  0.51100000000E-03 0. -1.
        -11    1    3    3    0    0  0.48969253879E+01  0.67508094763E+01 -0.11720668973E+02  0.14384970917E+02  0.51100000000E-03 0.  1.
         12    1    3    3    0    0 -0.70217852340E+01  0.18063520010E+02  0.35528503496E+02  0.40470616300E+02  0.00000000000E+00 0. -1.
</event>
<event>
 7    1  0.6515090E-012  0.5930194E+02  0.7816164E-02  0.1266605E+00
        -11   -1    0    0    0    0  0.00000000000E+00  0.00000000000E+00  0.45593999997E+02  0.45594000000E+02  0.51100000000E-03 0.  1.
         11   -1    0    0    0    0 -0.00000000000E+00 -0.00000000000E+00 -0.45593999997E+02  0.45594000000E+02  0.51100000000E-03 0. -1.
    9900012    2    1    2    0    0 -0.23274802915E+02  0.59584146720E+01 -0.20964302353E+02  0.59301935186E+02  0.49999983875E+02 0.  0.
        -12    1    1    2    0    0  0.23274802915E+02 -0.59584146720E+01  0.20964302353E+02  0.31886064814E+02  0.00000000000E+00 0.  1.
         11    1    3    3    0    0 -0.60937502566E+01  0.12373830668E+02  0.10056632593E+02  0.17069895635E+02  0.51100000000E-03 0. -1.
        -11    1    3    3    0    0 -0.10127417572E+02  0.41419195378E+01 -0.28118228257E+01  0.11297186907E+02  0.51100000000E-03 0.  1.
         12    1    3    3    0    0 -0.70536350863E+01 -0.10557335534E+02 -0.28209112121E+02  0.30934852645E+02  0.00000000000E+00 0. -1.
</event>
<event>
 7    1  0.6515090E-012  0.5930190E+02  0.7816164E-02  0.1266605E+00
        -11   -1    0    0    0    0  0.00000000000E+00  0.00000000000E+00  0.45593999997E+02  0.45594000000E+02  0.51100000000E-03 0. -1.
         11   -1    0    0    0    0 -0.00000000000E+00 -0.00000000000E+00 -0.45593999997E+02  0.45594000000E+02  0.51100000000E-03 0.  1.
    9900012    2    1    2    0    0  0.43754151422E+01  0.28562079457E+02  0.13482837710E+02  0.59301897177E+02  0.49999914555E+02 0.  0.
        -12    1    1    2    0    0 -0.43754151422E+01 -0.28562079457E+02 -0.13482837710E+02  0.31886102823E+02  0.00000000000E+00 0.  1.
         11    1    3    3    0    0 -0.27000976691E+01 -0.53967050923E+01 -0.30824645164E+01  0.67761745131E+01  0.51100000000E-03 0. -1.
        -11    1    3    3    0    0 -0.43066098426E+01 -0.63521305912E+01  0.59490425702E+00  0.76974257203E+01  0.51100000000E-03 0.  1.
        -12    1    3    3    0    0  0.11382122654E+02  0.40310915140E+02  0.15970397969E+02  0.44828296943E+02  0.00000000000E+00 0.  1.
</event>
<event>
 7    1  0.6515090E-012  0.5930194E+02  0.7816164E-02  0.1266605E+00
        -11   -1    0    0    0    0  0.00000000000E+00  0.00000000000E+00  0.45593999997E+02  0.45594000000E+02  0.51100000000E-03 0. -1.
         11   -1    0    0    0    0 -0.00000000000E+00 -0.00000000000E+00 -0.45593999997E+02  0.45594000000E+02  0.51100000000E-03 0.  1.
    9900012    2    1    2    0    0  0.58392883536E+01 -0.30779858213E+02 -0.59349631593E+01  0.59301941169E+02  0.49999994786E+02 0.  0.
        -12    1    1    2    0    0 -0.58392883536E+01  0.30779858213E+02  0.59349631593E+01  0.31886058831E+02  0.00000000000E+00 0.  1.
         11    1    3    3    0    0 -0.10736502412E+01 -0.40648553726E+01 -0.40914207518E+01  0.58664723702E+01  0.51100000000E-03 0. -1.
        -11    1    3    3    0    0  0.14371255615E+02 -0.25157925259E+02 -0.19010742252E+02  0.34653463211E+02  0.51100000000E-03 0.  1.
         12    1    3    3    0    0 -0.74583170203E+01 -0.15570775812E+01  0.17167199845E+02  0.18782005587E+02  0.00000000000E+00 0. -1.
</event>
<event>
 7    1  0.6515090E-012  0.5930194E+02  0.7816164E-02  0.1266605E+00
        -11   -1    0    0    0    0  0.00000000000E+00  0.00000000000E+00  0.45593999997E+02  0.45594000000E+02  0.51100000000E-03 0.  1.
         11   -1    0    0    0    0 -0.00000000000E+00 -0.00000000000E+00 -0.45593999997E+02  0.45594000000E+02  0.51100000000E-03 0. -1.
    9900012    2    1    2    0    0 -0.17042095098E+02 -0.26001053556E+02  0.70875378082E+01  0.59301937472E+02  0.49999988044E+02 0.  0.
        -12    1    1    2    0    0  0.17042095098E+02  0.26001053556E+02 -0.70875378082E+01  0.31886062528E+02  0.00000000000E+00 0.  1.
         11    1    3    3    0    0 -0.17514298022E+02  0.46842239314E+01 -0.50851485520E+01  0.18829533321E+02  0.51100000000E-03 0. -1.
        -11    1    3    3    0    0  0.76808461104E+01 -0.91895203663E+00  0.42981471455E+01  0.88495163124E+01  0.51100000000E-03 0.  1.
         12    1    3    3    0    0 -0.72086431866E+01 -0.29766325451E+02  0.78745392146E+01  0.31622887839E+02  0.00000000000E+00 0. -1.
</event>
<event>
 7    1  0.6515090E-012  0.5930196E+02  0.7816164E-02  0.1266605E+00
        -11   -1    0    0    0    0  0.00000000000E+00  0.00000000000E+00  0.45593999997E+02  0.45594000000E+02  0.51100000000E-03 0. -1.
         11   -1    0    0    0    0 -0.00000000000E+00 -0.00000000000E+00 -0.45593999997E+02  0.45594000000E+02  0.51100000000E-03 0.  1.
    9900012    2    1    2    0    0 -0.15306053391E+02 -0.70570608643E+01  0.27067361414E+02  0.59301961796E+02  0.50000032405E+02 0.  0.
        -12    1    1    2    0    0  0.15306053391E+02  0.70570608643E+01 -0.27067361414E+02  0.31886038204E+02  0.00000000000E+00 0.  1.
         11    1    3    3    0    0 -0.24965704632E+02 -0.80073699548E+01  0.23590967079E+02  0.35269506792E+02  0.51100000000E-03 0. -1.
        -11    1    3    3    0    0  0.22377968539E+01 -0.11011832667E+01  0.12167750034E+02  0.12420727857E+02  0.51100000000E-03 0.  1.
        -12    1    3    3    0    0  0.74218543879E+01  0.20514923573E+01 -0.86913556991E+01  0.11611727147E+02  0.00000000000E+00 0.  1.
</event>
<event>
 7    1  0.6515090E-012  0.5930197E+02  0.7816164E-02  0.1266605E+00
        -11   -1    0    0    0    0  0.00000000000E+00  0.00000000000E+00  0.45593999997E+02  0.45594000000E+02  0.51100000000E-03 0.  1.
         11   -1    0    0    0    0 -0.00000000000E+00 -0.00000000000E+00 -0.45593999997E+02  0.45594000000E+02  0.51100000000E-03 0. -1.
    9900012    2    1    2    0    0 -0.18097161917E+02 -0.20251994135E+02 -0.16705336154E+02  0.59301971839E+02  0.50000050721E+02 0.  0.
        -12    1    1    2    0    0  0.18097161917E+02  0.20251994135E+02  0.16705336154E+02  0.31886028161E+02  0.00000000000E+00 0.  1.
         11    1    3    3    0    0  0.37572382692E+01 -0.12708364891E+02 -0.67351918313E+01  0.14865469615E+02  0.51100000000E-03 0. -1.
        -11    1    3    3    0    0 -0.10701992160E+01  0.95616769551E+01  0.76263882204E+01  0.12277328297E+02  0.51100000000E-03 0.  1.
         12    1    3    3    0    0 -0.20784200970E+02 -0.17105306200E+02 -0.17596532543E+02  0.32159173927E+02  0.00000000000E+00 0. -1.
</event>
<event>
 7    1  0.6515090E-012  0.5930194E+02  0.7816164E-02  0.1266605E+00
        -11   -1    0    0    0    0  0.00000000000E+00  0.00000000000E+00  0.45593999997E+02  0.45594000000E+02  0.51100000000E-03 0.  1.
         11   -1    0    0    0    0 -0.00000000000E+00 -0.00000000000E+00 -0.45593999997E+02  0.45594000000E+02  0.51100000000E-03 0. -1.
    9900012    2    1    2    0    0  0.92980995167E+01  0.16449896616E+02 -0.25683989055E+02  0.59301936476E+02  0.49999986227E+02 0.  0.
        -12    1    1    2    0    0 -0.92980995167E+01 -0.16449896616E+02  0.25683989055E+02  0.31886063524E+02  0.00000000000E+00 0.  1.
         11    1    3    3    0    0  0.36188086766E+01 -0.66604877525E+01  0.38035674349E+01  0.84808607365E+01  0.51100000000E-03 0. -1.
        -11    1    3    3    0    0 -0.67192896285E+01  0.22341261704E+02 -0.57476167259E+01  0.24027399483E+02  0.51100000000E-03 0.  1.
         12    1    3    3    0    0  0.12398580469E+02  0.76912266466E+00 -0.23739939764E+02  0.26793676256E+02  0.00000000000E+00 0. -1.
</event>
<event>
 7    1  0.6515090E-012  0.5930197E+02  0.7816164E-02  0.1266605E+00
        -11   -1    0    0    0    0  0.00000000000E+00  0.00000000000E+00  0.45593999997E+02  0.45594000000E+02  0.51100000000E-03 0.  1.
         11   -1    0    0    0    0 -0.00000000000E+00 -0.00000000000E+00 -0.45593999997E+02  0.45594000000E+02  0.51100000000E-03 0. -1.
    9900012    2    1    2    0    0 -0.28104148206E+02 -0.12040028508E+02 -0.90506226411E+01  0.59301965391E+02  0.50000038962E+02 0.  0.
        -12    1    1    2    0    0  0.28104148206E+02  0.12040028508E+02  0.90506226411E+01  0.31886034609E+02  0.00000000000E+00 0.  1.
         11    1    3    3    0    0 -0.17728155274E+02 -0.12743528927E+02 -0.79782640680E+01  0.23245165448E+02  0.51100000000E-03 0. -1.
        -11    1    3    3    0    0 -0.14471168140E+02 -0.14130439887E+02 -0.33465978405E+01  0.20500823303E+02  0.51100000000E-03 0.  1.
         12    1    3    3    0    0  0.40951752080E+01  0.14833940306E+02  0.22742392675E+01  0.15555976640E+02  0.00000000000E+00 0. -1.
</event>
<event>
 7    1  0.6515090E-012  0.5930194E+02  0.7816164E-02  0.1266605E+00
        -11   -1    0    0    0    0  0.00000000000E+00  0.00000000000E+00  0.45593999997E+02  0.45594000000E+02  0.51100000000E-03 0. -1.
         11   -1    0    0    0    0 -0.00000000000E+00 -0.00000000000E+00 -0.45593999997E+02  0.45594000000E+02  0.51100000000E-03 0.  1.
    9900012    2    1    2    0    0 -0.15129342468E+02 -0.28065297777E+02 -0.40352268909E+00  0.59301940767E+02  0.49999994054E+02 0.  0.
        -12    1    1    2    0    0  0.15129342468E+02  0.28065297777E+02  0.40352268909E+00  0.31886059233E+02  0.00000000000E+00 0.  1.
         11    1    3    3    0    0 -0.27531624523E+01 -0.17727100105E+01 -0.11960147587E+01  0.34860946393E+01  0.51100000000E-03 0. -1.
        -11    1    3    3    0    0 -0.93506918407E+01 -0.10032386387E+01 -0.20541353055E+02  0.22591793007E+02  0.51100000000E-03 0.  1.
         12    1    3    3    0    0 -0.30254881745E+01 -0.25289349128E+02  0.21333845124E+02  0.33224053121E+02  0.00000000000E+00 0. -1.
</event>
<event>
 7    1  0.6515090E-012  0.5930192E+02  0.7816164E-02  0.1266605E+00
        -11   -1    0    0    0    0  0.00000000000E+00  0.00000000000E+00  0.45593999997E+02  0.45594000000E+02  0.51100000000E-03 0.  1.
         11   -1    0    0    0    0 -0.00000000000E+00 -0.00000000000E+00 -0.45593999997E+02  0.45594000000E+02  0.51100000000E-03 0. -1.
    9900012    2    1    2    0    0 -0.93384591504E+01 -0.21740002734E+02 -0.21374926817E+02  0.59301920990E+02  0.49999957986E+02 0.  0.
        -12    1    1    2    0    0  0.93384591504E+01  0.21740002734E+02  0.21374926817E+02  0.31886079010E+02  0.00000000000E+00 0.  1.
         11    1    3    3    0    0 -0.20059378949E+02 -0.11451293960E+02 -0.48428671363E+01  0.23600088549E+02  0.51100000000E-03 0.  1.
        -11    1    3    3    0    0 -0.83645229793E+01 -0.27437179258E+01 -0.11657998956E+02  0.14608291230E+02  0.51100000000E-03 0. -1.
        -12    1    3    3    0    0  0.19085442777E+02 -0.75449908480E+01 -0.48740607242E+01  0.21093541212E+02  0.00000000000E+00 0.  1.
</event>
<event>
 7    1  0.6515090E-012  0.5930194E+02  0.7816164E-02  0.1266605E+00
        -11   -1    0    0    0    0  0.00000000000E+00  0.00000000000E+00  0.45593999997E+02  0.45594000000E+02  0.51100000000E-03 0. -1.
         11   -1    0    0    0    0 -0.00000000000E+00 -0.00000000000E+00 -0.45593999997E+02  0.45594000000E+02  0.51100000000E-03 0.  1.
    9900012    2    1    2    0    0  0.90475431819E+01 -0.24695935272E+02  0.18027021289E+02  0.59301941085E+02  0.49999994632E+02 0.  0.
        -12    1    1    2    0    0 -0.90475431819E+01  0.24695935272E+02 -0.18027021289E+02  0.31886058915E+02  0.00000000000E+00 0.  1.
         11    1    3    3    0    0 -0.13486857024E+01 -0.20672005264E+02  0.12603020254E+02  0.24248440662E+02  0.51100000000E-03 0. -1.
        -11    1    3    3    0    0  0.28652115937E+01 -0.13969710546E+02 -0.83053525315E+01  0.16502761319E+02  0.51100000000E-03 0.  1.
        -12    1    3    3    0    0  0.75310172906E+01  0.99457805376E+01  0.13729353567E+02  0.18550739104E+02  0.00000000000E+00 0.  1.
</event>
<event>
 7    1  0.6515090E-012  0.5930193E+02  0.7816164E-02  0.1266605E+00
        -11   -1    0    0    0    0  0.00000000000E+00  0.00000000000E+00  0.45593999997E+02  0.45594000000E+02  0.51100000000E-03 0. -1.
         11   -1    0    0    0    0 -0.00000000000E+00 -0.00000000000E+00 -0.45593999997E+02  0.45594000000E+02  0.51100000000E-03 0.  1.
    9900012    2    1    2    0    0  0.12058785936E+01 -0.24552764798E+02  0.20308357121E+02  0.59301925118E+02  0.49999965513E+02 0.  0.
        -12    1    1    2    0    0 -0.12058785936E+01  0.24552764798E+02 -0.20308357121E+02  0.31886074882E+02  0.00000000000E+00 0.  1.
         11    1    3    3    0    0 -0.73182408186E+01 -0.93876058897E+01  0.17216270346E+02  0.20930450495E+02  0.51100000000E-03 0. -1.
        -11    1    3    3    0    0 -0.49030358823E+01 -0.22410880442E+02  0.91189076079E+00  0.22959069408E+02  0.51100000000E-03 0.  1.
        -12    1    3    3    0    0  0.13427155295E+02  0.72457215339E+01  0.21801960136E+01  0.15412405215E+02  0.00000000000E+00 0.  1.
</event>
<event>
 7    1  0.6515090E-012  0.5930196E+02  0.7816164E-02  0.1266605E+00
        -11   -1    0    0    0    0  0.00000000000E+00  0.00000000000E+00  0.45593999997E+02  0.45594000000E+02  0.51100000000E-03 0.  1.
         11   -1    0    0    0    0 -0.00000000000E+00 -0.00000000000E+00 -0.45593999997E+02  0.45594000000E+02  0.51100000000E-03 0. -1.
    9900012    2    1    2    0    0  0.95246584482E+01  0.26146259618E+02  0.15568354547E+02  0.59301958009E+02  0.50000025498E+02 0.  0.
        -12    1    1    2    0    0 -0.95246584482E+01 -0.26146259618E+02 -0.15568354547E+02  0.31886041991E+02  0.00000000000E+00 0.  1.
         11    1    3    3    0    0  0.36826257946E+01  0.95723477447E+01 -0.66058544187E+01  0.12199544539E+02  0.51100000000E-03 0. -1.
        -11    1    3    3    0    0 -0.10207971372E+02  0.19659854774E+02  0.37389482876E+01  0.22465357861E+02  0.51100000000E-03 0.  1.
        -12    1    3    3    0    0  0.16050004025E+02 -0.30859429011E+01  0.18435260678E+02  0.24637055609E+02  0.00000000000E+00 0.  1.
</event>
<event>
 7    1  0.6515090E-012  0.5930193E+02  0.7816164E-02  0.1266605E+00
        -11   -1    0    0    0    0  0.00000000000E+00  0.00000000000E+00  0.45593999997E+02  0.45594000000E+02  0.51100000000E-03 0.  1.
         11   -1    0    0    0    0 -0.00000000000E+00 -0.00000000000E+00 -0.45593999997E+02  0.45594000000E+02  0.51100000000E-03 0. -1.
    9900012    2    1    2    0    0 -0.22756588300E+02  0.55678014828E+01 -0.21630038662E+02  0.59301932558E+02  0.49999979082E+02 0.  0.
        -12    1    1    2    0    0  0.22756588300E+02 -0.55678014828E+01  0.21630038662E+02  0.31886067442E+02  0.00000000000E+00 0.  1.
         11    1    3    3    0    0 -0.15603706992E+02 -0.14831913399E+02 -0.18313386892E+01  0.21605904948E+02  0.51100000000E-03 0. -1.
        -11    1    3    3    0    0 -0.69451661169E+01  0.12804193460E+02  0.19144568815E+01  0.14691761227E+02  0.51100000000E-03 0.  1.
        -12    1    3    3    0    0 -0.20771519142E+00  0.75955214219E+01 -0.21713156854E+02  0.23004266383E+02  0.00000000000E+00 0.  1.
</event>
<event>
 7    1  0.6515090E-012  0.5930192E+02  0.7816164E-02  0.1266605E+00
        -11   -1    0    0    0    0  0.00000000000E+00  0.00000000000E+00  0.45593999997E+02  0.45594000000E+02  0.51100000000E-03 0. -1.
         11   -1    0    0    0    0 -0.00000000000E+00 -0.00000000000E+00 -0.45593999997E+02  0.45594000000E+02  0.51100000000E-03 0.  1.
    9900012    2    1    2    0    0  0.20912034470E+02  0.69920067595E+00  0.24060756988E+02  0.59301920058E+02  0.49999956284E+02 0.  0.
        -12    1    1    2    0    0 -0.20912034470E+02 -0.69920067595E+00 -0.24060756988E+02  0.31886079942E+02  0.00000000000E+00 0.  1.
         11    1    3    3    0    0 -0.45277344105E+01 -0.70488059237E+01  0.13471637817E+02  0.15864144149E+02  0.51100000000E-03 0. -1.
        -11    1    3    3    0    0  0.21459512383E+02  0.19844171050E+02  0.55940735077E+01  0.29758955880E+02  0.51100000000E-03 0.  1.
         12    1    3    3    0    0  0.39802564977E+01 -0.12096164451E+02  0.49950456634E+01  0.13678820029E+02  0.00000000000E+00 0. -1.
</event>
<event>
 7    1  0.6515090E-012  0.5930193E+02  0.7816164E-02  0.1266605E+00
        -11   -1    0    0    0    0  0.00000000000E+00  0.00000000000E+00  0.45593999997E+02  0.45594000000E+02  0.51100000000E-03 0.  1.
         11   -1    0    0    0    0 -0.00000000000E+00 -0.00000000000E+00 -0.45593999997E+02  0.45594000000E+02  0.51100000000E-03 0. -1.
    9900012    2    1    2    0    0  0.94324267374E+01 -0.13944944044E+02 -0.27079310814E+02  0.59301933878E+02  0.49999981490E+02 0.  0.
        -12    1    1    2    0    0 -0.94324267374E+01  0.13944944044E+02  0.27079310814E+02  0.31886066122E+02  0.00000000000E+00 0.  1.
         11    1    3    3    0    0  0.30094565310E+01 -0.50919124292E+01 -0.46274351389E+01  0.75098306922E+01  0.51100000000E-03 0. -1.
        -11    1    3    3    0    0 -0.54918297925E+01  0.15978506530E+02 -0.16496044945E+02  0.23613393752E+02  0.51100000000E-03 0.  1.
         12    1    3    3    0    0  0.11914799999E+02 -0.24831538145E+02 -0.59558307306E+01  0.28178709434E+02  0.00000000000E+00 0. -1.
</event>
<event>
 7    1  0.6515090E-012  0.5930189E+02  0.7816164E-02  0.1266605E+00
        -11   -1    0    0    0    0  0.00000000000E+00  0.00000000000E+00  0.45593999997E+02  0.45594000000E+02  0.51100000000E-03 0. -1.
         11   -1    0    0    0    0 -0.00000000000E+00 -0.00000000000E+00 -0.45593999997E+02  0.45594000000E+02  0.51100000000E-03 0.  1.
    9900012    2    1    2    0    0 -0.18670671003E+02  0.23163205637E+02  0.11471535898E+02  0.59301887240E+02  0.49999896433E+02 0.  0.
        -12    1    1    2    0    0  0.18670671003E+02 -0.23163205637E+02 -0.11471535898E+02  0.31886112760E+02  0.00000000000E+00 0.  1.
         11    1    3    3    0    0  0.37848450638E+01  0.12621273506E+01  0.36867848264E+01  0.54323475794E+01  0.51100000000E-03 0.  1.
        -11    1    3    3    0    0 -0.18494587990E+02 -0.62503071922E+01  0.14906292844E+02  0.24562444738E+02  0.51100000000E-03 0. -1.
         12    1    3    3    0    0 -0.39609280772E+01  0.28151385478E+02 -0.71215417721E+01  0.29307094923E+02  0.00000000000E+00 0. -1.
</event>
<event>
 7    1  0.6515090E-012  0.5930196E+02  0.7816164E-02  0.1266605E+00
        -11   -1    0    0    0    0  0.00000000000E+00  0.00000000000E+00  0.45593999997E+02  0.45594000000E+02  0.51100000000E-03 0.  1.
         11   -1    0    0    0    0 -0.00000000000E+00 -0.00000000000E+00 -0.45593999997E+02  0.45594000000E+02  0.51100000000E-03 0. -1.
    9900012    2    1    2    0    0 -0.22050337117E+01 -0.88880279403E+01 -0.30542765563E+02  0.59301956931E+02  0.50000023533E+02 0.  0.
        -12    1    1    2    0    0  0.22050337117E+01  0.88880279403E+01  0.30542765563E+02  0.31886043069E+02  0.00000000000E+00 0.  1.
         11    1    3    3    0    0 -0.96446408715E+01 -0.54112447197E+00  0.40282106016E+00  0.96682045025E+01  0.51100000000E-03 0.  1.
        -11    1    3    3    0    0  0.18476176138E+02 -0.15991934765E+02 -0.14538986982E+02  0.28434014928E+02  0.51100000000E-03 0. -1.
         12    1    3    3    0    0 -0.11036568978E+02  0.76450312963E+01 -0.16406599641E+02  0.21199737501E+02  0.00000000000E+00 0. -1.
</event>
<event>
 7    1  0.6515090E-012  0.5930197E+02  0.7816164E-02  0.1266605E+00
        -11   -1    0    0    0    0  0.00000000000E+00  0.00000000000E+00  0.45593999997E+02  0.45594000000E+02  0.51100000000E-03 0.  1.
         11   -1    0    0    0    0 -0.00000000000E+00 -0.00000000000E+00 -0.45593999997E+02  0.45594000000E+02  0.51100000000E-03 0. -1.
    9900012    2    1    2    0    0 -0.15140742033E+02  0.88043954132E+01 -0.26645063962E+02  0.59301970434E+02  0.50000048159E+02 0.  0.
        -12    1    1    2    0    0  0.15140742033E+02 -0.88043954132E+01  0.26645063962E+02  0.31886029566E+02  0.00000000000E+00 0.  1.
         11    1    3    3    0    0 -0.17068589696E+01  0.13724801460E+02  0.75490064062E+01  0.15756618947E+02  0.51100000000E-03 0. -1.
        -11    1    3    3    0    0 -0.72863106954E+00  0.33601810720E+01  0.22246370742E+01  0.40952082298E+01  0.51100000000E-03 0.  1.
         12    1    3    3    0    0 -0.12705251994E+02 -0.82805871187E+01 -0.36418707443E+02  0.39450143258E+02  0.00000000000E+00 0. -1.
</event>
<event>
 7    1  0.6515090E-012  0.5930195E+02  0.7816164E-02  0.1266605E+00
        -11   -1    0    0    0    0  0.00000000000E+00  0.00000000000E+00  0.45593999997E+02  0.45594000000E+02  0.51100000000E-03 0. -1.
         11   -1    0    0    0    0 -0.00000000000E+00 -0.00000000000E+00 -0.45593999997E+02  0.45594000000E+02  0.51100000000E-03 0.  1.
    9900012    2    1    2    0    0  0.45479830514E+01 -0.10277399482E+02  0.29839759032E+02  0.59301948049E+02  0.50000007334E+02 0.  0.
        -12    1    1    2    0    0 -0.45479830514E+01  0.10277399482E+02 -0.29839759032E+02  0.31886051951E+02  0.00000000000E+00 0.  1.
         11    1    3    3    0    0 -0.25520836000E+01 -0.75414809357E+01  0.41041538301E+00  0.79721707490E+01  0.51100000000E-03 0. -1.
        -11    1    3    3    0    0 -0.39804580229E+01 -0.17672922613E+02  0.20501805996E+01  0.18231277533E+02  0.51100000000E-03 0.  1.
         12    1    3    3    0    0  0.11080524674E+02  0.14937004066E+02  0.27379163049E+02  0.33098499767E+02  0.00000000000E+00 0. -1.
</event>
<event>
 7    1  0.6515090E-012  0.5930194E+02  0.7816164E-02  0.1266605E+00
        -11   -1    0    0    0    0  0.00000000000E+00  0.00000000000E+00  0.45593999997E+02  0.45594000000E+02  0.51100000000E-03 0.  1.
         11   -1    0    0    0    0 -0.00000000000E+00 -0.00000000000E+00 -0.45593999997E+02  0.45594000000E+02  0.51100000000E-03 0. -1.
    9900012    2    1    2    0    0 -0.28632222508E+02  0.12426263236E+02  0.65195780797E+01  0.59301935926E+02  0.49999985224E+02 0.  0.
        -12    1    1    2    0    0  0.28632222508E+02 -0.12426263236E+02 -0.65195780797E+01  0.31886064074E+02  0.00000000000E+00 0.  1.
         11    1    3    3    0    0  0.39872776373E+01  0.51824557274E+01  0.79394149915E+01  0.10285452882E+02  0.51100000000E-03 0. -1.
        -11    1    3    3    0    0  0.47654379451E+01  0.54347815201E+01 -0.82512565716E+01  0.10969479671E+02  0.51100000000E-03 0.  1.
         12    1    3    3    0    0 -0.37384938091E+02  0.18090259889E+01  0.68314196597E+01  0.38047003373E+02  0.00000000000E+00 0. -1.
</event>
<event>
 7    1  0.6515090E-012  0.5930195E+02  0.7816164E-02  0.1266605E+00
        -11   -1    0    0    0    0  0.00000000000E+00  0.00000000000E+00  0.45593999997E+02  0.45594000000E+02  0.51100000000E-03 0. -1.
         11   -1    0    0    0    0 -0.00000000000E+00 -0.00000000000E+00 -0.45593999997E+02  0.45594000000E+02  0.51100000000E-03 0.  1.
    9900012    2    1    2    0    0 -0.20513836044E+02  0.23114265782E+02  0.78506881978E+01  0.59301952000E+02  0.50000014540E+02 0.  0.
        -12    1    1    2    0    0  0.20513836044E+02 -0.23114265782E+02 -0.78506881978E+01  0.31886048000E+02  0.00000000000E+00 0.  1.
         11    1    3    3    0    0 -0.24369694494E+00 -0.19841717194E+01  0.51450976399E+01  0.55198148156E+01  0.51100000000E-03 0. -1.
        -11    1    3    3    0    0  0.67546359072E+01 -0.59477116247E+01  0.83000434144E+01  0.12243002114E+02  0.51100000000E-03 0.  1.
        -12    1    3    3    0    0 -0.27024775006E+02  0.31046149126E+02 -0.55944528565E+01  0.41539135071E+02  0.00000000000E+00 0.  1.
</event>
<event>
 7    1  0.6515090E-012  0.5930193E+02  0.7816164E-02  0.1266605E+00
        -11   -1    0    0    0    0  0.00000000000E+00  0.00000000000E+00  0.45593999997E+02  0.45594000000E+02  0.51100000000E-03 0. -1.
         11   -1    0    0    0    0 -0.00000000000E+00 -0.00000000000E+00 -0.45593999997E+02  0.45594000000E+02  0.51100000000E-03 0.  1.
    9900012    2    1    2    0    0 -0.18243414118E+02 -0.23106882666E+02  0.12246276802E+02  0.59301929676E+02  0.49999973826E+02 0.  0.
        -12    1    1    2    0    0  0.18243414118E+02  0.23106882666E+02 -0.12246276802E+02  0.31886070324E+02  0.00000000000E+00 0.  1.
         11    1    3    3    0    0 -0.85795725784E+01 -0.21449328807E+02 -0.25019274685E+01  0.23236660974E+02  0.51100000000E-03 0. -1.
        -11    1    3    3    0    0 -0.18803002844E+02  0.54379959532E+01  0.34150858456E+01  0.19869260870E+02  0.51100000000E-03 0.  1.
        -12    1    3    3    0    0  0.91391613041E+01 -0.70955498122E+01  0.11333118425E+02  0.16196007832E+02  0.00000000000E+00 0.  1.
</event>
<event>
 7    1  0.6515090E-012  0.5930194E+02  0.7816164E-02  0.1266605E+00
        -11   -1    0    0    0    0  0.00000000000E+00  0.00000000000E+00  0.45593999997E+02  0.45594000000E+02  0.51100000000E-03 0. -1.
         11   -1    0    0    0    0 -0.00000000000E+00 -0.00000000000E+00 -0.45593999997E+02  0.45594000000E+02  0.51100000000E-03 0.  1.
    9900012    2    1    2    0    0 -0.47795847984E+01  0.17375142901E+02  0.26305530768E+02  0.59301937674E+02  0.49999988413E+02 0.  0.
        -12    1    1    2    0    0  0.47795847984E+01 -0.17375142901E+02 -0.26305530768E+02  0.31886062326E+02  0.00000000000E+00 0.  1.
         11    1    3    3    0    0 -0.58109707864E+01  0.11503055831E+02  0.19854733180E+02  0.23670616909E+02  0.51100000000E-03 0.  1.
        -11    1    3    3    0    0 -0.63491310567E+01  0.13124890235E+02  0.15932294800E+02  0.21596579051E+02  0.51100000000E-03 0. -1.
        -12    1    3    3    0    0  0.73805170446E+01 -0.72528031657E+01 -0.94814972120E+01  0.14034741714E+02  0.00000000000E+00 0.  1.
</event>
<event>
 7    1  0.6515090E-012  0.5930194E+02  0.7816164E-02  0.1266605E+00
        -11   -1    0    0    0    0  0.00000000000E+00  0.00000000000E+00  0.45593999997E+02  0.45594000000E+02  0.51100000000E-03 0.  1.
         11   -1    0    0    0    0 -0.00000000000E+00 -0.00000000000E+00 -0.45593999997E+02  0.45594000000E+02  0.51100000000E-03 0. -1.
    9900012    2    1    2    0    0  0.37842768827E+01  0.65235402683E+01 -0.30981340455E+02  0.59301940577E+02  0.49999993706E+02 0.  0.
        -12    1    1    2    0    0 -0.37842768827E+01 -0.65235402683E+01  0.30981340455E+02  0.31886059423E+02  0.00000000000E+00 0.  1.
         11    1    3    3    0    0 -0.10352107688E+02  0.31856315952E+01 -0.11775180011E+02  0.15999038933E+02  0.51100000000E-03 0. -1.
        -11    1    3    3    0    0  0.13884463097E+02 -0.13938361273E+02 -0.16775116632E+02  0.25854608269E+02  0.51100000000E-03 0.  1.
         12    1    3    3    0    0  0.25192147361E+00  0.17276269946E+02 -0.24310438127E+01  0.17448293375E+02  0.00000000000E+00 0. -1.
</event>
<event>
 7    1  0.6515090E-012  0.5930189E+02  0.7816164E-02  0.1266605E+00
        -11   -1    0    0    0    0  0.00000000000E+00  0.00000000000E+00  0.45593999997E+02  0.45594000000E+02  0.51100000000E-03 0. -1.
         11   -1    0    0    0    0 -0.00000000000E+00 -0.00000000000E+00 -0.45593999997E+02  0.45594000000E+02  0.51100000000E-03 0.  1.
    9900012    2    1    2    0    0 -0.57872619838E+01 -0.55977827187E+01  0.30852821524E+02  0.59301887527E+02  0.49999896957E+02 0.  0.
        -12    1    1    2    0    0  0.57872619838E+01  0.55977827187E+01 -0.30852821524E+02  0.31886112473E+02  0.00000000000E+00 0.  1.
         11    1    3    3    0    0 -0.50294834837E+01  0.98229341553E+00 -0.13665441557E+01  0.53035881870E+01  0.51100000000E-03 0. -1.
        -11    1    3    3    0    0 -0.10738777761E+01  0.47969387724E+01 -0.95312312293E+01  0.10724187805E+02  0.51100000000E-03 0.  1.
         12    1    3    3    0    0  0.31609927601E+00 -0.11377014907E+02  0.41750596909E+02  0.43274111536E+02  0.00000000000E+00 0. -1.
</event>
<event>
 7    1  0.6515090E-012  0.5930173E+02  0.7816164E-02  0.1266605E+00
        -11   -1    0    0    0    0  0.00000000000E+00  0.00000000000E+00  0.45593999997E+02  0.45594000000E+02  0.51100000000E-03 0. -1.
         11   -1    0    0    0    0 -0.00000000000E+00 -0.00000000000E+00 -0.45593999997E+02  0.45594000000E+02  0.51100000000E-03 0.  1.
    9900012    2    1    2    0    0 -0.61408966207E+01  0.31040009284E+02  0.39422516315E+01  0.59301731238E+02  0.49999611920E+02 0.  0.
        -12    1    1    2    0    0  0.61408966207E+01 -0.31040009284E+02 -0.39422516315E+01  0.31886268762E+02  0.00000000000E+00 0.  1.
         11    1    3    3    0    0  0.10926540029E+02  0.26745324423E+02 -0.12790556697E+01  0.28919502747E+02  0.51100000000E-03 0. -1.
        -11    1    3    3    0    0 -0.45609926927E+01  0.11383756225E+02 -0.44611763900E+01  0.13049699429E+02  0.51100000000E-03 0.  1.
        -12    1    3    3    0    0 -0.12506443957E+02 -0.70890713638E+01  0.96824836912E+01  0.17332529062E+02  0.00000000000E+00 0.  1.
</event>
<event>
 7    1  0.6515090E-012  0.5930197E+02  0.7816164E-02  0.1266605E+00
        -11   -1    0    0    0    0  0.00000000000E+00  0.00000000000E+00  0.45593999997E+02  0.45594000000E+02  0.51100000000E-03 0. -1.
         11   -1    0    0    0    0 -0.00000000000E+00 -0.00000000000E+00 -0.45593999997E+02  0.45594000000E+02  0.51100000000E-03 0.  1.
    9900012    2    1    2    0    0  0.13381472670E+01  0.37822679113E+01  0.31632625193E+02  0.59301965984E+02  0.50000040044E+02 0.  0.
        -12    1    1    2    0    0 -0.13381472670E+01 -0.37822679113E+01 -0.31632625193E+02  0.31886034016E+02  0.00000000000E+00 0.  1.
         11    1    3    3    0    0 -0.80883944151E+01 -0.65102476056E+01  0.19053189300E+02  0.21698605275E+02  0.51100000000E-03 0. -1.
        -11    1    3    3    0    0 -0.52776465118E+01 -0.30947940306E+01 -0.72731968874E+01  0.95042462100E+01  0.51100000000E-03 0.  1.
         12    1    3    3    0    0  0.14704188194E+02  0.13387309548E+02  0.19852632780E+02  0.28099114500E+02  0.00000000000E+00 0. -1.
</event>
<event>
 7    1  0.6515090E-012  0.5930199E+02  0.7816164E-02  0.1266605E+00
        -11   -1    0    0    0    0  0.00000000000E+00  0.00000000000E+00  0.45593999997E+02  0.45594000000E+02  0.51100000000E-03 0. -1.
         11   -1    0    0    0    0 -0.00000000000E+00 -0.00000000000E+00 -0.45593999997E+02  0.45594000000E+02  0.51100000000E-03 0.  1.
    9900012    2    1    2    0    0  0.30960414634E+02 -0.32529077928E+01 -0.68984520561E+01  0.59301994854E+02  0.50000092695E+02 0.  0.
        -12    1    1    2    0    0 -0.30960414634E+02  0.32529077928E+01  0.68984520561E+01  0.31886005146E+02  0.00000000000E+00 0.  1.
         11    1    3    3    0    0  0.35066528324E+01 -0.41487341961E-01  0.48022141511E+01  0.59463935541E+01  0.51100000000E-03 0. -1.
        -11    1    3    3    0    0 -0.79991022343E+00 -0.16821317763E+02 -0.14015341446E+02  0.21909504417E+02  0.51100000000E-03 0.  1.
         12    1    3    3    0    0  0.28253672025E+02  0.13609897313E+02  0.23146752390E+01  0.31446096883E+02  0.00000000000E+00 0. -1.
</event>
<event>
 7    1  0.6515090E-012  0.5930194E+02  0.7816164E-02  0.1266605E+00
        -11   -1    0    0    0    0  0.00000000000E+00  0.00000000000E+00  0.45593999997E+02  0.45594000000E+02  0.51100000000E-03 0. -1.
         11   -1    0    0    0    0 -0.00000000000E+00 -0.00000000000E+00 -0.45593999997E+02  0.45594000000E+02  0.51100000000E-03 0.  1.
    9900012    2    1    2    0    0  0.16857358717E+02  0.28151009186E+01  0.26918867849E+02  0.59301940626E+02  0.49999993797E+02 0.  0.
        -12    1    1    2    0    0 -0.16857358717E+02 -0.28151009186E+01 -0.26918867849E+02  0.31886059374E+02  0.00000000000E+00 0.  1.
         11    1    3    3    0    0 -0.52611986808E+01 -0.52004129321E+01  0.19412577074E+00  0.74001480593E+01  0.51100000000E-03 0. -1.
        -11    1    3    3    0    0  0.44797387900E+01  0.39046767576E+01 -0.96124625424E+01  0.11301061747E+02  0.51100000000E-03 0.  1.
         12    1    3    3    0    0  0.17638818608E+02  0.41108370932E+01  0.36337204621E+02  0.40600730820E+02  0.00000000000E+00 0. -1.
</event>
<event>
 7    1  0.6515090E-012  0.5930191E+02  0.7816164E-02  0.1266605E+00
        -11   -1    0    0    0    0  0.00000000000E+00  0.00000000000E+00  0.45593999997E+02  0.45594000000E+02  0.51100000000E-03 0.  1.
         11   -1    0    0    0    0 -0.00000000000E+00 -0.00000000000E+00 -0.45593999997E+02  0.45594000000E+02  0.51100000000E-03 0. -1.
    9900012    2    1    2    0    0  0.14281562087E+02  0.16725131684E+02 -0.23087436508E+02  0.59301909459E+02  0.49999936955E+02 0.  0.
        -12    1    1    2    0    0 -0.14281562087E+02 -0.16725131684E+02  0.23087436508E+02  0.31886090541E+02  0.00000000000E+00 0.  1.
         11    1    3    3    0    0  0.61143446686E+00  0.49744934740E+01  0.58300727684E+01  0.76882498774E+01  0.51100000000E-03 0. -1.
        -11    1    3    3    0    0  0.54255996976E+01  0.10286306473E+02  0.77676052831E+01  0.13985025028E+02  0.51100000000E-03 0.  1.
         12    1    3    3    0    0  0.82445279224E+01  0.14643317365E+01 -0.36685114560E+02  0.37628634554E+02  0.00000000000E+00 0. -1.
</event>
<event>
 7    1  0.6515090E-012  0.5930195E+02  0.7816164E-02  0.1266605E+00
        -11   -1    0    0    0    0  0.00000000000E+00  0.00000000000E+00  0.45593999997E+02  0.45594000000E+02  0.51100000000E-03 0.  1.
         11   -1    0    0    0    0 -0.00000000000E+00 -0.00000000000E+00 -0.45593999997E+02  0.45594000000E+02  0.51100000000E-03 0. -1.
    9900012    2    1    2    0    0 -0.15951146328E+02  0.42755265567E+01 -0.27276386852E+02  0.59301945427E+02  0.50000002553E+02 0.  0.
        -12    1    1    2    0    0  0.15951146328E+02 -0.42755265567E+01  0.27276386852E+02  0.31886054573E+02  0.00000000000E+00 0.  1.
         11    1    3    3    0    0  0.23855393534E+01 -0.50210115883E+01 -0.35592716559E+01  0.66007401372E+01  0.51100000000E-03 0. -1.
        -11    1    3    3    0    0  0.10523965193E+02 -0.34807953302E+01  0.28506800452E+01  0.11445355237E+02  0.51100000000E-03 0.  1.
         12    1    3    3    0    0 -0.28860650874E+02  0.12777333475E+02 -0.26567795241E+02  0.41255850053E+02  0.00000000000E+00 0. -1.
</event>
<event>
 7    1  0.6515090E-012  0.5930193E+02  0.7816164E-02  0.1266605E+00
        -11   -1    0    0    0    0  0.00000000000E+00  0.00000000000E+00  0.45593999997E+02  0.45594000000E+02  0.51100000000E-03 0.  1.
         11   -1    0    0    0    0 -0.00000000000E+00 -0.00000000000E+00 -0.45593999997E+02  0.45594000000E+02  0.51100000000E-03 0. -1.
    9900012    2    1    2    0    0 -0.94306672699E+01 -0.30099827575E+02  0.46673529825E+01  0.59301932681E+02  0.49999979306E+02 0.  0.
        -12    1    1    2    0    0  0.94306672699E+01  0.30099827575E+02 -0.46673529825E+01  0.31886067319E+02  0.00000000000E+00 0.  1.
         11    1    3    3    0    0 -0.28426152028E+01  0.15000271905E+01 -0.97664837935E+01  0.10281767782E+02  0.51100000000E-03 0. -1.
        -11    1    3    3    0    0  0.58112352736E+01  0.22609207590E+01 -0.50585038919E+01  0.80293636092E+01  0.51100000000E-03 0.  1.
         12    1    3    3    0    0 -0.12399287341E+02 -0.33860775525E+02  0.19492340668E+02  0.40990801290E+02  0.00000000000E+00 0. -1.
</event>
<event>
 7    1  0.6515090E-012  0.5930199E+02  0.7816164E-02  0.1266605E+00
        -11   -1    0    0    0    0  0.00000000000E+00  0.00000000000E+00  0.45593999997E+02  0.45594000000E+02  0.51100000000E-03 0.  1.
         11   -1    0    0    0    0 -0.00000000000E+00 -0.00000000000E+00 -0.45593999997E+02  0.45594000000E+02  0.51100000000E-03 0. -1.
    9900012    2    1    2    0    0  0.17967479638E+02  0.10568652324E+02 -0.24128632999E+02  0.59301989479E+02  0.50000082893E+02 0.  0.
        -12    1    1    2    0    0 -0.17967479638E+02 -0.10568652324E+02  0.24128632999E+02  0.31886010521E+02  0.00000000000E+00 0.  1.
         11    1    3    3    0    0  0.19854676283E+02 -0.31894175146E+00  0.91912213220E+01  0.21881234970E+02  0.51100000000E-03 0. -1.
        -11    1    3    3    0    0  0.20694328613E+01 -0.23238951228E+01 -0.45005043011E+01  0.54715244800E+01  0.51100000000E-03 0.  1.
        -12    1    3    3    0    0 -0.39566295061E+01  0.13211489199E+02 -0.28819350020E+02  0.31949230029E+02  0.00000000000E+00 0.  1.
</event>
<event>
 7    1  0.6515090E-012  0.5930196E+02  0.7816164E-02  0.1266605E+00
        -11   -1    0    0    0    0  0.00000000000E+00  0.00000000000E+00  0.45593999997E+02  0.45594000000E+02  0.51100000000E-03 0.  1.
         11   -1    0    0    0    0 -0.00000000000E+00 -0.00000000000E+00 -0.45593999997E+02  0.45594000000E+02  0.51100000000E-03 0. -1.
    9900012    2    1    2    0    0  0.17893837588E+01  0.15827273122E+02 -0.27622732469E+02  0.59301955752E+02  0.50000021383E+02 0.  0.
        -12    1    1    2    0    0 -0.17893837588E+01 -0.15827273122E+02  0.27622732469E+02  0.31886044248E+02  0.00000000000E+00 0.  1.
         11    1    3    3    0    0 -0.19225973582E+01 -0.92870382089E+01 -0.21007287006E+01  0.97138314083E+01  0.51100000000E-03 0. -1.
        -11    1    3    3    0    0  0.12871990633E+01  0.15884017080E+02  0.57118529777E+01  0.16928796317E+02  0.51100000000E-03 0.  1.
         12    1    3    3    0    0  0.24247820538E+01  0.92302942505E+01 -0.31233856746E+02  0.32659328027E+02  0.00000000000E+00 0. -1.
</event>
<event>
 7    1  0.6515090E-012  0.5930193E+02  0.7816164E-02  0.1266605E+00
        -11   -1    0    0    0    0  0.00000000000E+00  0.00000000000E+00  0.45593999997E+02  0.45594000000E+02  0.51100000000E-03 0.  1.
         11   -1    0    0    0    0 -0.00000000000E+00 -0.00000000000E+00 -0.45593999997E+02  0.45594000000E+02  0.51100000000E-03 0. -1.
    9900012    2    1    2    0    0  0.12656538466E+02 -0.79274362676E+00 -0.29255850636E+02  0.59301934001E+02  0.49999981714E+02 0.  0.
        -12    1    1    2    0    0 -0.12656538466E+02  0.79274362676E+00  0.29255850636E+02  0.31886065999E+02  0.00000000000E+00 0.  1.
         11    1    3    3    0    0 -0.15731889866E+01  0.47324262296E+01 -0.62048395257E+00  0.50255131283E+01  0.51100000000E-03 0. -1.
        -11    1    3    3    0    0 -0.14508540937E+01 -0.11767812137E+02  0.77515023019E+01  0.14165880427E+02  0.51100000000E-03 0.  1.
         12    1    3    3    0    0  0.15680581546E+02  0.62426422802E+01 -0.36386868986E+02  0.40110540446E+02  0.00000000000E+00 0. -1.
</event>
<event>
 7    1  0.6515090E-012  0.5930195E+02  0.7816164E-02  0.1266605E+00
        -11   -1    0    0    0    0  0.00000000000E+00  0.00000000000E+00  0.45593999997E+02  0.45594000000E+02  0.51100000000E-03 0. -1.
         11   -1    0    0    0    0 -0.00000000000E+00 -0.00000000000E+00 -0.45593999997E+02  0.45594000000E+02  0.51100000000E-03 0.  1.
    9900012    2    1    2    0    0  0.15555060670E+02 -0.23754319648E+02  0.14508358616E+02  0.59301951576E+02  0.50000013766E+02 0.  0.
        -12    1    1    2    0    0 -0.15555060670E+02  0.23754319648E+02 -0.14508358616E+02  0.31886048424E+02  0.00000000000E+00 0.  1.
         11    1    3    3    0    0  0.12795245100E+02 -0.95115981211E+01  0.71593401354E+01  0.17476983362E+02  0.51100000000E-03 0. -1.
        -11    1    3    3    0    0  0.16644362423E+02  0.17893763826E+01 -0.47587623672E+01  0.17403519409E+02  0.51100000000E-03 0.  1.
        -12    1    3    3    0    0 -0.13884546853E+02 -0.16032097909E+02  0.12107780848E+02  0.24421448805E+02  0.00000000000E+00 0.  1.
</event>
<event>
 7    1  0.6515090E-012  0.5930189E+02  0.7816164E-02  0.1266605E+00
        -11   -1    0    0    0    0  0.00000000000E+00  0.00000000000E+00  0.45593999997E+02  0.45594000000E+02  0.51100000000E-03 0.  1.
         11   -1    0    0    0    0 -0.00000000000E+00 -0.00000000000E+00 -0.45593999997E+02  0.45594000000E+02  0.51100000000E-03 0. -1.
    9900012    2    1    2    0    0  0.13977384110E+02 -0.24668416718E+02 -0.14588562300E+02  0.59301887037E+02  0.49999896062E+02 0.  0.
        -12    1    1    2    0    0 -0.13977384110E+02  0.24668416718E+02  0.14588562300E+02  0.31886112963E+02  0.00000000000E+00 0.  1.
         11    1    3    3    0    0 -0.19904939157E+00 -0.80521538512E+01 -0.12941027754E+02  0.15242932851E+02  0.51100000000E-03 0. -1.
        -11    1    3    3    0    0 -0.10660351422E+02  0.37603607845E+01 -0.36280544949E+01  0.11872075865E+02  0.51100000000E-03 0.  1.
         12    1    3    3    0    0  0.24836784924E+02 -0.20376623651E+02  0.19805199488E+01  0.32186878321E+02  0.00000000000E+00 0. -1.
</event>
<event>
 7    1  0.6515090E-012  0.5930200E+02  0.7816164E-02  0.1266605E+00
        -11   -1    0    0    0    0  0.00000000000E+00  0.00000000000E+00  0.45593999997E+02  0.45594000000E+02  0.51100000000E-03 0.  1.
         11   -1    0    0    0    0 -0.00000000000E+00 -0.00000000000E+00 -0.45593999997E+02  0.45594000000E+02  0.51100000000E-03 0. -1.
    9900012    2    1    2    0    0  0.21222077146E+02 -0.22306287970E+02 -0.82927549651E+01  0.59302002661E+02  0.50000106933E+02 0.  0.
        -12    1    1    2    0    0 -0.21222077146E+02  0.22306287970E+02  0.82927549651E+01  0.31885997339E+02  0.00000000000E+00 0.  1.
         11    1    3    3    0    0 -0.10382209648E+01  0.11986934492E+02 -0.22742605700E+01  0.12244866789E+02  0.51100000000E-03 0. -1.
        -11    1    3    3    0    0  0.44541292255E+01 -0.69121643949E+01 -0.11295873294E+02  0.13971901714E+02  0.51100000000E-03 0.  1.
        -12    1    3    3    0    0  0.17806168886E+02 -0.27381058067E+02  0.52773788985E+01  0.33085234158E+02  0.00000000000E+00 0.  1.
</event>
<event>
 7    1  0.6515090E-012  0.5930193E+02  0.7816164E-02  0.1266605E+00
        -11   -1    0    0    0    0  0.00000000000E+00  0.00000000000E+00  0.45593999997E+02  0.45594000000E+02  0.51100000000E-03 0.  1.
         11   -1    0    0    0    0 -0.00000000000E+00 -0.00000000000E+00 -0.45593999997E+02  0.45594000000E+02  0.51100000000E-03 0. -1.
    9900012    2    1    2    0    0  0.21987348673E+02  0.15339031129E+02 -0.17262444903E+02  0.59301931229E+02  0.49999976657E+02 0.  0.
        -12    1    1    2    0    0 -0.21987348673E+02 -0.15339031129E+02  0.17262444903E+02  0.31886068771E+02  0.00000000000E+00 0.  1.
         11    1    3    3    0    0  0.72119401479E+00 -0.15127875504E+01 -0.45345153718E+01  0.48343021107E+01  0.51100000000E-03 0. -1.
        -11    1    3    3    0    0 -0.62994930334E+01 -0.10379809800E+02 -0.98100980698E+01  0.15609679316E+02  0.51100000000E-03 0.  1.
         12    1    3    3    0    0  0.27565647692E+02  0.27231628480E+02 -0.29178314617E+01  0.38857949801E+02  0.00000000000E+00 0. -1.
</event>
<event>
 7    1  0.6515090E-012  0.5930193E+02  0.7816164E-02  0.1266605E+00
        -11   -1    0    0    0    0  0.00000000000E+00  0.00000000000E+00  0.45593999997E+02  0.45594000000E+02  0.51100000000E-03 0. -1.
         11   -1    0    0    0    0 -0.00000000000E+00 -0.00000000000E+00 -0.45593999997E+02  0.45594000000E+02  0.51100000000E-03 0.  1.
    9900012    2    1    2    0    0 -0.16437761384E+02  0.27252866949E+02 -0.19499855375E+01  0.59301934080E+02  0.49999981858E+02 0.  0.
        -12    1    1    2    0    0  0.16437761384E+02 -0.27252866949E+02  0.19499855375E+01  0.31886065920E+02  0.00000000000E+00 0.  1.
         11    1    3    3    0    0 -0.15377092710E+02 -0.25690617830E+01 -0.95947750290E+01  0.18306140139E+02  0.51100000000E-03 0. -1.
        -11    1    3    3    0    0 -0.11003982972E+02  0.43797927725E+01 -0.20313228379E+01  0.12016509423E+02  0.51100000000E-03 0.  1.
         12    1    3    3    0    0  0.99433142983E+01  0.25442135959E+02  0.96761123294E+01  0.28979284519E+02  0.00000000000E+00 0. -1.
</event>
<event>
 7    1  0.6515090E-012  0.5930195E+02  0.7816164E-02  0.1266605E+00
        -11   -1    0    0    0    0  0.00000000000E+00  0.00000000000E+00  0.45593999997E+02  0.45594000000E+02  0.51100000000E-03 0. -1.
         11   -1    0    0    0    0 -0.00000000000E+00 -0.00000000000E+00 -0.45593999997E+02  0.45594000000E+02  0.51100000000E-03 0.  1.
    9900012    2    1    2    0    0  0.30837504047E+02 -0.20582814355E+01 -0.78442493821E+01  0.59301946204E+02  0.50000003968E+02 0.  0.
        -12    1    1    2    0    0 -0.30837504047E+02  0.20582814355E+01  0.78442493821E+01  0.31886053796E+02  0.00000000000E+00 0.  1.
         11    1    3    3    0    0 -0.14945127157E+01 -0.63119308789E+00 -0.53970789373E+00  0.17097537376E+01  0.51100000000E-03 0. -1.
        -11    1    3    3    0    0 -0.19244783086E+01  0.15710439274E+02  0.61689190859E+01  0.16987556678E+02  0.51100000000E-03 0.  1.
         12    1    3    3    0    0  0.34256495072E+02 -0.17137527622E+02 -0.13473460574E+02  0.40604635788E+02  0.00000000000E+00 0. -1.
</event>
<event>
 7    1  0.6515090E-012  0.5930197E+02  0.7816164E-02  0.1266605E+00
        -11   -1    0    0    0    0  0.00000000000E+00  0.00000000000E+00  0.45593999997E+02  0.45594000000E+02  0.51100000000E-03 0. -1.
         11   -1    0    0    0    0 -0.00000000000E+00 -0.00000000000E+00 -0.45593999997E+02  0.45594000000E+02  0.51100000000E-03 0.  1.
    9900012    2    1    2    0    0  0.11654452799E+02 -0.29677600462E+02 -0.36410508803E+00  0.59301971527E+02  0.50000050153E+02 0.  0.
        -12    1    1    2    0    0 -0.11654452799E+02  0.29677600462E+02  0.36410508803E+00  0.31886028473E+02  0.00000000000E+00 0.  1.
         11    1    3    3    0    0  0.12794234124E+02 -0.72772237610E+01 -0.69348805871E+01  0.16270924421E+02  0.51100000000E-03 0. -1.
        -11    1    3    3    0    0  0.17350582468E+02 -0.90075466071E+01  0.12574820634E+01  0.19589789924E+02  0.51100000000E-03 0.  1.
        -12    1    3    3    0    0 -0.18490363794E+02 -0.13392830094E+02  0.53132934356E+01  0.23441257182E+02  0.00000000000E+00 0.  1.
</event>
<event>
 7    1  0.6515090E-012  0.5930196E+02  0.7816164E-02  0.1266605E+00
        -11   -1    0    0    0    0  0.00000000000E+00  0.00000000000E+00  0.45593999997E+02  0.45594000000E+02  0.51100000000E-03 0.  1.
         11   -1    0    0    0    0 -0.00000000000E+00 -0.00000000000E+00 -0.45593999997E+02  0.45594000000E+02  0.51100000000E-03 0. -1.
    9900012    2    1    2    0    0 -0.72984612743E+01  0.14030935009E+02 -0.27687274078E+02  0.59301955716E+02  0.50000021317E+02 0.  0.
        -12    1    1    2    0    0  0.72984612743E+01 -0.14030935009E+02  0.27687274078E+02  0.31886044284E+02  0.00000000000E+00 0.  1.
         11    1    3    3    0    0 -0.56569290662E+01 -0.26006157823E+01 -0.17521514410E+02  0.18594824989E+02  0.51100000000E-03 0. -1.
        -11    1    3    3    0    0  0.14748786334E+02  0.25264508148E+01 -0.11749467581E+02  0.19025236943E+02  0.51100000000E-03 0.  1.
         12    1    3    3    0    0 -0.16390318542E+02  0.14105099977E+02  0.15837079133E+01  0.21681893783E+02  0.00000000000E+00 0. -1.
</event>
<event>
 7    1  0.6515090E-012  0.5930235E+02  0.7816164E-02  0.1266603E+00
        -11   -1    0    0    0    0  0.00000000000E+00  0.00000000000E+00  0.45593999997E+02  0.45594000000E+02  0.51100000000E-03 0. -1.
         11   -1    0    0    0    0 -0.00000000000E+00 -0.00000000000E+00 -0.45593999997E+02  0.45594000000E+02  0.51100000000E-03 0.  1.
    9900012    2    1    2    0    0 -0.31345245483E+02 -0.56356097167E+01  0.15525043660E+01  0.59302348351E+02  0.50000737384E+02 0.  0.
        -12    1    1    2    0    0  0.31345245483E+02  0.56356097167E+01 -0.15525043660E+01  0.31885651649E+02  0.00000000000E+00 0.  1.
         11    1    3    3    0    0 -0.81935207818E+01 -0.20339920450E+02  0.25785136810E+01  0.22079286215E+02  0.51100000000E-03 0. -1.
        -11    1    3    3    0    0  0.51985433270E+01  0.33939051740E+01 -0.24316446178E+01  0.66675588382E+01  0.51100000000E-03 0.  1.
         12    1    3    3    0    0 -0.28350268028E+02  0.11310405559E+02  0.14056353028E+01  0.30555503298E+02  0.00000000000E+00 0. -1.
</event>
<event>
 7    1  0.6515090E-012  0.5930196E+02  0.7816164E-02  0.1266605E+00
        -11   -1    0    0    0    0  0.00000000000E+00  0.00000000000E+00  0.45593999997E+02  0.45594000000E+02  0.51100000000E-03 0. -1.
         11   -1    0    0    0    0 -0.00000000000E+00 -0.00000000000E+00 -0.45593999997E+02  0.45594000000E+02  0.51100000000E-03 0.  1.
    9900012    2    1    2    0    0  0.30420608196E+02 -0.75986862811E+01  0.57936509245E+01  0.59301955604E+02  0.50000021112E+02 0.  0.
        -12    1    1    2    0    0 -0.30420608196E+02  0.75986862811E+01 -0.57936509245E+01  0.31886044396E+02  0.00000000000E+00 0.  1.
         11    1    3    3    0    0  0.23581714156E+02 -0.11049030155E+02  0.24860666279E+01  0.26160253008E+02  0.51100000000E-03 0. -1.
        -11    1    3    3    0    0 -0.47134783940E+00 -0.11966482984E+02  0.91883220556E+01  0.15094507155E+02  0.51100000000E-03 0.  1.
        -12    1    3    3    0    0  0.73102418786E+01  0.15416826858E+02 -0.58807377589E+01  0.18047195441E+02  0.00000000000E+00 0.  1.
</event>
<event>
 7    1  0.6515090E-012  0.5930187E+02  0.7816164E-02  0.1266605E+00
        -11   -1    0    0    0    0  0.00000000000E+00  0.00000000000E+00  0.45593999997E+02  0.45594000000E+02  0.51100000000E-03 0.  1.
         11   -1    0    0    0    0 -0.00000000000E+00 -0.00000000000E+00 -0.45593999997E+02  0.45594000000E+02  0.51100000000E-03 0. -1.
    9900012    2    1    2    0    0  0.10952972595E+02  0.15944903812E+02 -0.25347929583E+02  0.59301872916E+02  0.49999870309E+02 0.  0.
        -12    1    1    2    0    0 -0.10952972595E+02 -0.15944903812E+02  0.25347929583E+02  0.31886127084E+02  0.00000000000E+00 0.  1.
         11    1    3    3    0    0 -0.20817209725E+01  0.20518698378E+02 -0.80367828667E+01  0.22134597905E+02  0.51100000000E-03 0. -1.
        -11    1    3    3    0    0 -0.93453711637E+01 -0.43710662665E+01 -0.73626359842E+01  0.12674801434E+02  0.51100000000E-03 0.  1.
        -12    1    3    3    0    0  0.22380064731E+02 -0.20272829873E+00 -0.99485107324E+01  0.24492473577E+02  0.00000000000E+00 0.  1.
</event>
<event>
 7    1  0.6515090E-012  0.5930180E+02  0.7816164E-02  0.1266605E+00
        -11   -1    0    0    0    0  0.00000000000E+00  0.00000000000E+00  0.45593999997E+02  0.45594000000E+02  0.51100000000E-03 0. -1.
         11   -1    0    0    0    0 -0.00000000000E+00 -0.00000000000E+00 -0.45593999997E+02  0.45594000000E+02  0.51100000000E-03 0.  1.
    9900012    2    1    2    0    0 -0.57836526863E+01  0.31115609580E+02  0.38855737690E+01  0.59301804218E+02  0.49999745021E+02 0.  0.
        -12    1    1    2    0    0  0.57836526863E+01 -0.31115609580E+02 -0.38855737690E+01  0.31886195782E+02  0.00000000000E+00 0.  1.
         11    1    3    3    0    0  0.15186160378E+02  0.80659269474E+01  0.72834425835E+01  0.18674238423E+02  0.51100000000E-03 0. -1.
        -11    1    3    3    0    0 -0.55639367174E+01  0.23052260965E+02  0.30834540635E+01  0.23913841528E+02  0.51100000000E-03 0.  1.
        -12    1    3    3    0    0 -0.15405876347E+02 -0.25783326494E-02 -0.64813228780E+01  0.16713724268E+02  0.00000000000E+00 0.  1.
</event>
<event>
 7    1  0.6515090E-012  0.5930189E+02  0.7816164E-02  0.1266605E+00
        -11   -1    0    0    0    0  0.00000000000E+00  0.00000000000E+00  0.45593999997E+02  0.45594000000E+02  0.51100000000E-03 0. -1.
         11   -1    0    0    0    0 -0.00000000000E+00 -0.00000000000E+00 -0.45593999997E+02  0.45594000000E+02  0.51100000000E-03 0.  1.
    9900012    2    1    2    0    0 -0.19982825563E+02 -0.93238544695E+01 -0.23032075967E+02  0.59301888557E+02  0.49999898834E+02 0.  0.
        -12    1    1    2    0    0  0.19982825563E+02  0.93238544695E+01  0.23032075967E+02  0.31886111443E+02  0.00000000000E+00 0.  1.
         11    1    3    3    0    0 -0.71958803054E+01  0.41861028498E+01  0.24379770944E+01  0.86745537644E+01  0.51100000000E-03 0.  1.
        -11    1    3    3    0    0 -0.21464616279E+02 -0.64137070228E+01 -0.30904233556E+02  0.38169844665E+02  0.51100000000E-03 0. -1.
         12    1    3    3    0    0  0.86776710222E+01 -0.70962502965E+01  0.54341804947E+01  0.12457490128E+02  0.00000000000E+00 0. -1.
</event>
<event>
 7    1  0.6515090E-012  0.5930194E+02  0.7816164E-02  0.1266605E+00
        -11   -1    0    0    0    0  0.00000000000E+00  0.00000000000E+00  0.45593999997E+02  0.45594000000E+02  0.51100000000E-03 0.  1.
         11   -1    0    0    0    0 -0.00000000000E+00 -0.00000000000E+00 -0.45593999997E+02  0.45594000000E+02  0.51100000000E-03 0. -1.
    9900012    2    1    2    0    0  0.23990126021E+02  0.24193401348E+01 -0.20864838085E+02  0.59301940013E+02  0.49999992678E+02 0.  0.
        -12    1    1    2    0    0 -0.23990126021E+02 -0.24193401348E+01  0.20864838085E+02  0.31886059987E+02  0.00000000000E+00 0.  1.
         11    1    3    3    0    0  0.26378452219E+01  0.12809468814E+02 -0.21155386608E+02  0.24871491742E+02  0.51100000000E-03 0. -1.
        -11    1    3    3    0    0  0.20719780818E+01  0.50069755603E+01  0.70078866963E+01  0.88585198336E+01  0.51100000000E-03 0.  1.
         12    1    3    3    0    0  0.19280302718E+02 -0.15397104239E+02 -0.67173381737E+01  0.25571928437E+02  0.00000000000E+00 0. -1.
</event>
<event>
 7    1  0.6515090E-012  0.5930195E+02  0.7816164E-02  0.1266605E+00
        -11   -1    0    0    0    0  0.00000000000E+00  0.00000000000E+00  0.45593999997E+02  0.45594000000E+02  0.51100000000E-03 0.  1.
         11   -1    0    0    0    0 -0.00000000000E+00 -0.00000000000E+00 -0.45593999997E+02  0.45594000000E+02  0.51100000000E-03 0. -1.
    9900012    2    1    2    0    0 -0.87302440024E+01 -0.64877153034E+01 -0.29973531459E+02  0.59301949785E+02  0.50000010499E+02 0.  0.
        -12    1    1    2    0    0  0.87302440024E+01  0.64877153034E+01  0.29973531459E+02  0.31886050215E+02  0.00000000000E+00 0.  1.
         11    1    3    3    0    0  0.75285513783E+01  0.15311242037E+01 -0.28156753896E+02  0.29186062040E+02  0.51100000000E-03 0. -1.
        -11    1    3    3    0    0  0.42878902397E+00  0.72609812595E+01  0.89167095724E+00  0.73280820298E+01  0.51100000000E-03 0.  1.
        -12    1    3    3    0    0 -0.16687584405E+02 -0.15279820767E+02 -0.27084485209E+01  0.22787805715E+02  0.00000000000E+00 0.  1.
</event>
<event>
 7    1  0.6515090E-012  0.5930192E+02  0.7816164E-02  0.1266605E+00
        -11   -1    0    0    0    0  0.00000000000E+00  0.00000000000E+00  0.45593999997E+02  0.45594000000E+02  0.51100000000E-03 0. -1.
         11   -1    0    0    0    0 -0.00000000000E+00 -0.00000000000E+00 -0.45593999997E+02  0.45594000000E+02  0.51100000000E-03 0.  1.
    9900012    2    1    2    0    0  0.21709211246E+02  0.37004054849E+01  0.23059468898E+02  0.59301922168E+02  0.49999960133E+02 0.  0.
        -12    1    1    2    0    0 -0.21709211246E+02 -0.37004054849E+01 -0.23059468898E+02  0.31886077832E+02  0.00000000000E+00 0.  1.
         11    1    3    3    0    0 -0.22575985639E+00  0.16816239319E+02  0.92448910404E+01  0.19191271009E+02  0.51100000000E-03 0. -1.
        -11    1    3    3    0    0 -0.16468455765E-01  0.74148090614E+01  0.11854278378E+01  0.75089882173E+01  0.51100000000E-03 0.  1.
        -12    1    3    3    0    0  0.21951439558E+02 -0.20530642895E+02  0.12629150020E+02  0.32601662942E+02  0.00000000000E+00 0.  1.
</event>
<event>
 7    1  0.6515090E-012  0.5930195E+02  0.7816164E-02  0.1266605E+00
        -11   -1    0    0    0    0  0.00000000000E+00  0.00000000000E+00  0.45593999997E+02  0.45594000000E+02  0.51100000000E-03 0. -1.
         11   -1    0    0    0    0 -0.00000000000E+00 -0.00000000000E+00 -0.45593999997E+02  0.45594000000E+02  0.51100000000E-03 0.  1.
    9900012    2    1    2    0    0 -0.14959963656E+02  0.25038281726E+02  0.12884269628E+02  0.59301945553E+02  0.50000002781E+02 0.  0.
        -12    1    1    2    0    0  0.14959963656E+02 -0.25038281726E+02 -0.12884269628E+02  0.31886054447E+02  0.00000000000E+00 0.  1.
         11    1    3    3    0    0  0.75265338862E+01  0.90408874054E+01  0.71293803799E+01  0.13755523337E+02  0.51100000000E-03 0. -1.
        -11    1    3    3    0    0 -0.22315018940E+02  0.96165823842E+01 -0.11694160698E+02  0.26966499990E+02  0.51100000000E-03 0.  1.
         12    1    3    3    0    0 -0.17147860291E+00  0.63808119362E+01  0.17449049946E+02  0.18579922225E+02  0.00000000000E+00 0. -1.
</event>
<event>
 7    1  0.6515090E-012  0.5930191E+02  0.7816164E-02  0.1266605E+00
        -11   -1    0    0    0    0  0.00000000000E+00  0.00000000000E+00  0.45593999997E+02  0.45594000000E+02  0.51100000000E-03 0. -1.
         11   -1    0    0    0    0 -0.00000000000E+00 -0.00000000000E+00 -0.45593999997E+02  0.45594000000E+02  0.51100000000E-03 0.  1.
    9900012    2    1    2    0    0 -0.19968235918E+02 -0.17287844843E+02  0.17864004064E+02  0.59301911087E+02  0.49999939924E+02 0.  0.
        -12    1    1    2    0    0  0.19968235918E+02  0.17287844843E+02 -0.17864004064E+02  0.31886088913E+02  0.00000000000E+00 0.  1.
         11    1    3    3    0    0 -0.11840231559E+01  0.13254768320E+00 -0.62844462702E+01  0.63963853000E+01  0.51100000000E-03 0. -1.
        -11    1    3    3    0    0  0.92493672101E+01 -0.34965731165E+00 -0.35942958756E+01  0.99293512943E+01  0.51100000000E-03 0.  1.
         12    1    3    3    0    0 -0.28033579972E+02 -0.17070735214E+02  0.27742746210E+02  0.42976174493E+02  0.00000000000E+00 0. -1.
</event>
<event>
 7    1  0.6515090E-012  0.5930200E+02  0.7816164E-02  0.1266605E+00
        -11   -1    0    0    0    0  0.00000000000E+00  0.00000000000E+00  0.45593999997E+02  0.45594000000E+02  0.51100000000E-03 0.  1.
         11   -1    0    0    0    0 -0.00000000000E+00 -0.00000000000E+00 -0.45593999997E+02  0.45594000000E+02  0.51100000000E-03 0. -1.
    9900012    2    1    2    0    0 -0.79943044314E+01 -0.22689072880E+02 -0.20928791784E+02  0.59301995906E+02  0.50000094614E+02 0.  0.
        -12    1    1    2    0    0  0.79943044314E+01  0.22689072880E+02  0.20928791784E+02  0.31886004094E+02  0.00000000000E+00 0.  1.
         11    1    3    3    0    0 -0.15149829118E+01  0.90422445063E+01  0.93960883599E+00  0.92163020763E+01  0.51100000000E-03 0.  1.
        -11    1    3    3    0    0 -0.16656164937E+02 -0.17805511120E+02 -0.21995772722E+02  0.32837144738E+02  0.51100000000E-03 0. -1.
        -12    1    3    3    0    0  0.10176843418E+02 -0.13925806266E+02  0.12737210143E+00  0.17248549092E+02  0.00000000000E+00 0.  1.
</event>
<event>
 7    1  0.6515090E-012  0.5930194E+02  0.7816164E-02  0.1266605E+00
        -11   -1    0    0    0    0  0.00000000000E+00  0.00000000000E+00  0.45593999997E+02  0.45594000000E+02  0.51100000000E-03 0. -1.
         11   -1    0    0    0    0 -0.00000000000E+00 -0.00000000000E+00 -0.45593999997E+02  0.45594000000E+02  0.51100000000E-03 0.  1.
    9900012    2    1    2    0    0  0.19220136489E+02  0.12254471340E+02  0.22296531430E+02  0.59301936770E+02  0.49999986765E+02 0.  0.
        -12    1    1    2    0    0 -0.19220136489E+02 -0.12254471340E+02 -0.22296531430E+02  0.31886063230E+02  0.00000000000E+00 0.  1.
         11    1    3    3    0    0 -0.29834838428E+01  0.15716837926E+02  0.74745607627E+01  0.17657554448E+02  0.51100000000E-03 0. -1.
        -11    1    3    3    0    0 -0.16885722330E+00  0.79682384607E+01 -0.52019059130E+01  0.95174136359E+01  0.51100000000E-03 0.  1.
        -12    1    3    3    0    0  0.22372477555E+02 -0.11430605047E+02  0.20023876580E+02  0.32126968686E+02  0.00000000000E+00 0.  1.
</event>
<event>
 7    1  0.6515090E-012  0.5930195E+02  0.7816164E-02  0.1266605E+00
        -11   -1    0    0    0    0  0.00000000000E+00  0.00000000000E+00  0.45593999997E+02  0.45594000000E+02  0.51100000000E-03 0.  1.
         11   -1    0    0    0    0 -0.00000000000E+00 -0.00000000000E+00 -0.45593999997E+02  0.45594000000E+02  0.51100000000E-03 0. -1.
    9900012    2    1    2    0    0  0.87466640739E+01  0.17795400859E+02 -0.24970783488E+02  0.59301945805E+02  0.50000003241E+02 0.  0.
        -12    1    1    2    0    0 -0.87466640739E+01 -0.17795400859E+02  0.24970783488E+02  0.31886054195E+02  0.00000000000E+00 0.  1.
         11    1    3    3    0    0 -0.13604401580E+02 -0.23114899648E+00 -0.78932122018E+01  0.15730097627E+02  0.51100000000E-03 0. -1.
        -11    1    3    3    0    0 -0.51672391417E+01  0.10267382862E+02 -0.48585260177E+01  0.12478973776E+02  0.51100000000E-03 0.  1.
         12    1    3    3    0    0  0.27518304796E+02  0.77591669930E+01 -0.12219045268E+02  0.31092874402E+02  0.00000000000E+00 0. -1.
</event>
<event>
 7    1  0.6515090E-012  0.5930204E+02  0.7816164E-02  0.1266604E+00
        -11   -1    0    0    0    0  0.00000000000E+00  0.00000000000E+00  0.45593999997E+02  0.45594000000E+02  0.51100000000E-03 0. -1.
         11   -1    0    0    0    0 -0.00000000000E+00 -0.00000000000E+00 -0.45593999997E+02  0.45594000000E+02  0.51100000000E-03 0.  1.
    9900012    2    1    2    0    0 -0.19806237846E+02 -0.10599555188E+02  0.22629115424E+02  0.59302039254E+02  0.50000173670E+02 0.  0.
        -12    1    1    2    0    0  0.19806237846E+02  0.10599555188E+02 -0.22629115424E+02  0.31885960746E+02  0.00000000000E+00 0.  1.
         11    1    3    3    0    0 -0.11816239576E+02 -0.14541009585E+02  0.66324529007E+01  0.19875963101E+02  0.51100000000E-03 0. -1.
        -11    1    3    3    0    0 -0.91357470120E+01 -0.13796689516E+02  0.17371012451E+01  0.16638150020E+02  0.51100000000E-03 0.  1.
         12    1    3    3    0    0  0.11457487415E+01  0.17738143913E+02  0.14259561278E+02  0.22787926134E+02  0.00000000000E+00 0. -1.
</event>
<event>
 7    1  0.6515090E-012  0.5930196E+02  0.7816164E-02  0.1266605E+00
        -11   -1    0    0    0    0  0.00000000000E+00  0.00000000000E+00  0.45593999997E+02  0.45594000000E+02  0.51100000000E-03 0.  1.
         11   -1    0    0    0    0 -0.00000000000E+00 -0.00000000000E+00 -0.45593999997E+02  0.45594000000E+02  0.51100000000E-03 0. -1.
    9900012    2    1    2    0    0  0.22438359199E+02  0.10976200784E+02  0.19818238418E+02  0.59301960403E+02  0.50000029865E+02 0.  0.
        -12    1    1    2    0    0 -0.22438359199E+02 -0.10976200784E+02 -0.19818238418E+02  0.31886039597E+02  0.00000000000E+00 0.  1.
         11    1    3    3    0    0  0.27620044990E+00  0.14344460913E+02 -0.26002521526E+01  0.14580848983E+02  0.51100000000E-03 0. -1.
        -11    1    3    3    0    0 -0.32433069494E+01 -0.57722814781E+01  0.17529251892E+02  0.18738008048E+02  0.51100000000E-03 0.  1.
         12    1    3    3    0    0  0.25405465698E+02  0.24040213492E+01  0.48892386781E+01  0.25983103372E+02  0.00000000000E+00 0. -1.
</event>
<event>
 7    1  0.6515090E-012  0.5930194E+02  0.7816164E-02  0.1266605E+00
        -11   -1    0    0    0    0  0.00000000000E+00  0.00000000000E+00  0.45593999997E+02  0.45594000000E+02  0.51100000000E-03 0. -1.
         11   -1    0    0    0    0 -0.00000000000E+00 -0.00000000000E+00 -0.45593999997E+02  0.45594000000E+02  0.51100000000E-03 0.  1.
    9900012    2    1    2    0    0 -0.19045716466E+02  0.25556198127E+02 -0.92840238361E+00  0.59301944907E+02  0.50000001603E+02 0.  0.
        -12    1    1    2    0    0  0.19045716466E+02 -0.25556198127E+02  0.92840238361E+00  0.31886055093E+02  0.00000000000E+00 0.  1.
         11    1    3    3    0    0 -0.24459153917E+02  0.51362977163E+01 -0.77739791884E+01  0.26173775373E+02  0.51100000000E-03 0. -1.
        -11    1    3    3    0    0 -0.92269849993E+01  0.31225442925E+01  0.24494633047E+01  0.10044272287E+02  0.51100000000E-03 0.  1.
        -12    1    3    3    0    0  0.14640422450E+02  0.17297356118E+02  0.43961135001E+01  0.23083897247E+02  0.00000000000E+00 0.  1.
</event>
<event>
 7    1  0.6515090E-012  0.5930194E+02  0.7816164E-02  0.1266605E+00
        -11   -1    0    0    0    0  0.00000000000E+00  0.00000000000E+00  0.45593999997E+02  0.45594000000E+02  0.51100000000E-03 0.  1.
         11   -1    0    0    0    0 -0.00000000000E+00 -0.00000000000E+00 -0.45593999997E+02  0.45594000000E+02  0.51100000000E-03 0. -1.
    9900012    2    1    2    0    0 -0.15784101963E+02  0.22320630333E+02 -0.16412559904E+02  0.59301944492E+02  0.50000000846E+02 0.  0.
        -12    1    1    2    0    0  0.15784101963E+02 -0.22320630333E+02  0.16412559904E+02  0.31886055508E+02  0.00000000000E+00 0.  1.
         11    1    3    3    0    0  0.20570081208E+01  0.24127055594E+02 -0.16639362100E+02  0.29380511660E+02  0.51100000000E-03 0. -1.
        -11    1    3    3    0    0  0.14967576587E+01 -0.54890289361E+01  0.70750246281E+01  0.90788598348E+01  0.51100000000E-03 0.  1.
        -12    1    3    3    0    0 -0.19337867743E+02  0.36826036759E+01 -0.68482224320E+01  0.20842572997E+02  0.00000000000E+00 0.  1.
</event>
<event>
 7    1  0.6515090E-012  0.5930194E+02  0.7816164E-02  0.1266605E+00
        -11   -1    0    0    0    0  0.00000000000E+00  0.00000000000E+00  0.45593999997E+02  0.45594000000E+02  0.51100000000E-03 0.  1.
         11   -1    0    0    0    0 -0.00000000000E+00 -0.00000000000E+00 -0.45593999997E+02  0.45594000000E+02  0.51100000000E-03 0. -1.
    9900012    2    1    2    0    0  0.28209113530E+01 -0.43424682998E+01 -0.31462773450E+02  0.59301942154E+02  0.49999996582E+02 0.  0.
        -12    1    1    2    0    0 -0.28209113530E+01  0.43424682998E+01  0.31462773450E+02  0.31886057846E+02  0.00000000000E+00 0.  1.
         11    1    3    3    0    0 -0.30443858802E+00  0.62512565728E+01 -0.16881122817E+02  0.18003977322E+02  0.51100000000E-03 0. -1.
        -11    1    3    3    0    0  0.81732679239E+01 -0.69006736947E+00  0.10815909824E+02  0.13574328975E+02  0.51100000000E-03 0.  1.
         12    1    3    3    0    0 -0.50479179828E+01 -0.99036575032E+01 -0.25397560458E+02  0.27723635856E+02  0.00000000000E+00 0. -1.
</event>
<event>
 7    1  0.6515090E-012  0.5930192E+02  0.7816164E-02  0.1266605E+00
        -11   -1    0    0    0    0  0.00000000000E+00  0.00000000000E+00  0.45593999997E+02  0.45594000000E+02  0.51100000000E-03 0. -1.
         11   -1    0    0    0    0 -0.00000000000E+00 -0.00000000000E+00 -0.45593999997E+02  0.45594000000E+02  0.51100000000E-03 0.  1.
    9900012    2    1    2    0    0 -0.19909302231E+02  0.24504492446E+02  0.44577715988E+01  0.59301918507E+02  0.49999953457E+02 0.  0.
        -12    1    1    2    0    0  0.19909302231E+02 -0.24504492446E+02 -0.44577715988E+01  0.31886081493E+02  0.00000000000E+00 0.  1.
         11    1    3    3    0    0  0.69599390658E+01  0.14250000273E+02 -0.71710816925E+00  0.15875059180E+02  0.51100000000E-03 0. -1.
        -11    1    3    3    0    0 -0.72515328538E+01  0.15539522756E+02 -0.82960599094E+01  0.19049569720E+02  0.51100000000E-03 0.  1.
         12    1    3    3    0    0 -0.19617708443E+02 -0.52850305838E+01  0.13470939677E+02  0.24377289607E+02  0.00000000000E+00 0. -1.
</event>
<event>
 7    1  0.6515090E-012  0.5930194E+02  0.7816164E-02  0.1266605E+00
        -11   -1    0    0    0    0  0.00000000000E+00  0.00000000000E+00  0.45593999997E+02  0.45594000000E+02  0.51100000000E-03 0.  1.
         11   -1    0    0    0    0 -0.00000000000E+00 -0.00000000000E+00 -0.45593999997E+02  0.45594000000E+02  0.51100000000E-03 0. -1.
    9900012    2    1    2    0    0 -0.82265490766E+01 -0.26513589461E+02 -0.15686745904E+02  0.59301944539E+02  0.50000000933E+02 0.  0.
        -12    1    1    2    0    0  0.82265490766E+01  0.26513589461E+02  0.15686745904E+02  0.31886055461E+02  0.00000000000E+00 0.  1.
         11    1    3    3    0    0  0.28736929793E+01 -0.49042402587E+01 -0.63546980465E+01  0.85259528135E+01  0.51100000000E-03 0. -1.
        -11    1    3    3    0    0 -0.78877436648E+01 -0.32719902967E+02 -0.16170121180E+02  0.37340077256E+02  0.51100000000E-03 0.  1.
        -12    1    3    3    0    0 -0.32124983910E+01  0.11110553765E+02  0.68380733222E+01  0.13435914470E+02  0.00000000000E+00 0.  1.
</event>
<event>
 7    1  0.6515090E-012  0.5930195E+02  0.7816164E-02  0.1266605E+00
        -11   -1    0    0    0    0  0.00000000000E+00  0.00000000000E+00  0.45593999997E+02  0.45594000000E+02  0.51100000000E-03 0.  1.
         11   -1    0    0    0    0 -0.00000000000E+00 -0.00000000000E+00 -0.45593999997E+02  0.45594000000E+02  0.51100000000E-03 0. -1.
    9900012    2    1    2    0    0  0.26887876588E+02 -0.13819710851E+02 -0.10137926778E+02  0.59301954858E+02  0.50000019752E+02 0.  0.
        -12    1    1    2    0    0 -0.26887876588E+02  0.13819710851E+02  0.10137926778E+02  0.31886045142E+02  0.00000000000E+00 0.  1.
         11    1    3    3    0    0  0.24018847091E+02  0.65288502294E+01  0.45885169923E+01  0.25309788409E+02  0.51100000000E-03 0. -1.
        -11    1    3    3    0    0  0.20541699727E+01 -0.18977760038E+02  0.91330119067E-01  0.19088827408E+02  0.51100000000E-03 0.  1.
         12    1    3    3    0    0  0.81485952493E+00 -0.13708010420E+01 -0.14817773889E+02  0.14903339041E+02  0.00000000000E+00 0. -1.
</event>
<event>
 7    1  0.6515090E-012  0.5930198E+02  0.7816164E-02  0.1266605E+00
        -11   -1    0    0    0    0  0.00000000000E+00  0.00000000000E+00  0.45593999997E+02  0.45594000000E+02  0.51100000000E-03 0.  1.
         11   -1    0    0    0    0 -0.00000000000E+00 -0.00000000000E+00 -0.45593999997E+02  0.45594000000E+02  0.51100000000E-03 0. -1.
    9900012    2    1    2    0    0 -0.89267385792E+01 -0.99699159539E+01 -0.28941883504E+02  0.59301976313E+02  0.50000058881E+02 0.  0.
        -12    1    1    2    0    0  0.89267385792E+01  0.99699159539E+01  0.28941883504E+02  0.31886023687E+02  0.00000000000E+00 0.  1.
         11    1    3    3    0    0 -0.12112504995E+02  0.70382950652E+01 -0.10768049402E+02  0.17669217947E+02  0.51100000000E-03 0. -1.
        -11    1    3    3    0    0  0.25336963710E+01  0.62583337225E+01  0.52940249434E+01  0.85798052802E+01  0.51100000000E-03 0.  1.
        -12    1    3    3    0    0  0.65207004429E+00 -0.23266544742E+02 -0.23467859045E+02  0.33052953086E+02  0.00000000000E+00 0.  1.
</event>
<event>
 7    1  0.6515090E-012  0.5930190E+02  0.7816164E-02  0.1266605E+00
        -11   -1    0    0    0    0  0.00000000000E+00  0.00000000000E+00  0.45593999997E+02  0.45594000000E+02  0.51100000000E-03 0. -1.
         11   -1    0    0    0    0 -0.00000000000E+00 -0.00000000000E+00 -0.45593999997E+02  0.45594000000E+02  0.51100000000E-03 0.  1.
    9900012    2    1    2    0    0  0.12846040451E+02  0.26626582920E+02  0.11946859902E+02  0.59301903738E+02  0.49999926522E+02 0.  0.
        -12    1    1    2    0    0 -0.12846040451E+02 -0.26626582920E+02 -0.11946859902E+02  0.31886096262E+02  0.00000000000E+00 0.  1.
         11    1    3    3    0    0  0.85992108430E+01 -0.78232101342E+01  0.12921144396E+02  0.17381168450E+02  0.51100000000E-03 0. -1.
        -11    1    3    3    0    0  0.12571001057E+01 -0.34347045684E+01 -0.13993341468E+01  0.39160736029E+01  0.51100000000E-03 0.  1.
         12    1    3    3    0    0  0.29897295020E+01  0.37884497623E+02  0.42504965337E+00  0.38004661686E+02  0.00000000000E+00 0. -1.
</event>
<event>
 7    1  0.6515090E-012  0.5930221E+02  0.7816164E-02  0.1266604E+00
        -11   -1    0    0    0    0  0.00000000000E+00  0.00000000000E+00  0.45593999997E+02  0.45594000000E+02  0.51100000000E-03 0.  1.
         11   -1    0    0    0    0 -0.00000000000E+00 -0.00000000000E+00 -0.45593999997E+02  0.45594000000E+02  0.51100000000E-03 0. -1.
    9900012    2    1    2    0    0  0.19046827709E+02  0.14175543245E+02 -0.21283225773E+02  0.59302213647E+02  0.50000491718E+02 0.  0.
        -12    1    1    2    0    0 -0.19046827709E+02 -0.14175543245E+02  0.21283225773E+02  0.31885786353E+02  0.00000000000E+00 0.  1.
         11    1    3    3    0    0 -0.11606622653E+01  0.79584214299E+01 -0.29488608236E+02  0.30565693588E+02  0.51100000000E-03 0. -1.
        -11    1    3    3    0    0  0.14578739291E+00 -0.30596257726E+00  0.76254651225E+01  0.76329932306E+01  0.51100000000E-03 0.  1.
        -12    1    3    3    0    0  0.20061702582E+02  0.65230843921E+01  0.57991734060E+00  0.21103526828E+02  0.00000000000E+00 0.  1.
</event>
<event>
 7    1  0.6515090E-012  0.5930198E+02  0.7816164E-02  0.1266605E+00
        -11   -1    0    0    0    0  0.00000000000E+00  0.00000000000E+00  0.45593999997E+02  0.45594000000E+02  0.51100000000E-03 0. -1.
         11   -1    0    0    0    0 -0.00000000000E+00 -0.00000000000E+00 -0.45593999997E+02  0.45594000000E+02  0.51100000000E-03 0.  1.
    9900012    2    1    2    0    0  0.25218650282E+02  0.98049307839E+01  0.16870139007E+02  0.59301975164E+02  0.50000056786E+02 0.  0.
        -12    1    1    2    0    0 -0.25218650282E+02 -0.98049307839E+01 -0.16870139007E+02  0.31886024836E+02  0.00000000000E+00 0.  1.
         11    1    3    3    0    0  0.92224144488E+01 -0.48051946852E+01 -0.91859982602E+01  0.13875351834E+02  0.51100000000E-03 0. -1.
        -11    1    3    3    0    0  0.57090208339E+01  0.12525701670E+02 -0.33806843717E+01  0.14174454074E+02  0.51100000000E-03 0.  1.
         12    1    3    3    0    0  0.10287214999E+02  0.20844237989E+01  0.29436821639E+02  0.31252169256E+02  0.00000000000E+00 0. -1.
</event>
<event>
 7    1  0.6515090E-012  0.5930191E+02  0.7816164E-02  0.1266605E+00
        -11   -1    0    0    0    0  0.00000000000E+00  0.00000000000E+00  0.45593999997E+02  0.45594000000E+02  0.51100000000E-03 0. -1.
         11   -1    0    0    0    0 -0.00000000000E+00 -0.00000000000E+00 -0.45593999997E+02  0.45594000000E+02  0.51100000000E-03 0.  1.
    9900012    2    1    2    0    0 -0.10786701889E+02  0.18673018658E+02  0.23488045806E+02  0.59301908060E+02  0.49999934403E+02 0.  0.
        -12    1    1    2    0    0  0.10786701889E+02 -0.18673018658E+02 -0.23488045806E+02  0.31886091940E+02  0.00000000000E+00 0.  1.
         11    1    3    3    0    0 -0.53783542492E+01 -0.74474830215E+01  0.24743724377E+01  0.95138959952E+01  0.51100000000E-03 0. -1.
        -11    1    3    3    0    0  0.66727122885E+01 -0.29184448430E+01 -0.51142906017E+01  0.88993470663E+01  0.51100000000E-03 0.  1.
         12    1    3    3    0    0 -0.12081059929E+02  0.29038946522E+02  0.26127963970E+02  0.40888664998E+02  0.00000000000E+00 0. -1.
</event>
<event>
 7    1  0.6515090E-012  0.5930209E+02  0.7816164E-02  0.1266604E+00
        -11   -1    0    0    0    0  0.00000000000E+00  0.00000000000E+00  0.45593999997E+02  0.45594000000E+02  0.51100000000E-03 0. -1.
         11   -1    0    0    0    0 -0.00000000000E+00 -0.00000000000E+00 -0.45593999997E+02  0.45594000000E+02  0.51100000000E-03 0.  1.
    9900012    2    1    2    0    0 -0.19747919134E+02 -0.23486393301E+02 -0.86672132773E+01  0.59302085141E+02  0.50000257355E+02 0.  0.
        -12    1    1    2    0    0  0.19747919134E+02  0.23486393301E+02  0.86672132773E+01  0.31885914859E+02  0.00000000000E+00 0.  1.
         11    1    3    3    0    0 -0.41330692092E+01  0.35689480284E+01  0.12695367174E+02  0.13819985494E+02  0.51100000000E-03 0. -1.
        -11    1    3    3    0    0  0.42719064228E+01 -0.14047523039E+02 -0.14758962737E+02  0.20818479035E+02  0.51100000000E-03 0.  1.
         12    1    3    3    0    0 -0.19886756348E+02 -0.13007818291E+02 -0.66036177149E+01  0.24663620611E+02  0.00000000000E+00 0. -1.
</event>
<event>
 7    1  0.6515090E-012  0.5930194E+02  0.7816164E-02  0.1266605E+00
        -11   -1    0    0    0    0  0.00000000000E+00  0.00000000000E+00  0.45593999997E+02  0.45594000000E+02  0.51100000000E-03 0.  1.
         11   -1    0    0    0    0 -0.00000000000E+00 -0.00000000000E+00 -0.45593999997E+02  0.45594000000E+02  0.51100000000E-03 0. -1.
    9900012    2    1    2    0    0  0.20153870593E+02 -0.16789857759E+02 -0.18128508162E+02  0.59301942991E+02  0.49999998109E+02 0.  0.
        -12    1    1    2    0    0 -0.20153870593E+02  0.16789857759E+02  0.18128508162E+02  0.31886057009E+02  0.00000000000E+00 0.  1.
         11    1    3    3    0    0  0.26384440395E+02 -0.17705538018E+02 -0.24670135456E+02  0.40227358292E+02  0.51100000000E-03 0. -1.
        -11    1    3    3    0    0 -0.19535542129E+01  0.71257645434E+01 -0.20259034438E+01  0.76614084486E+01  0.51100000000E-03 0.  1.
         12    1    3    3    0    0 -0.42770155895E+01 -0.62100842845E+01  0.85675307380E+01  0.11413176250E+02  0.00000000000E+00 0. -1.
</event>
<event>
 7    1  0.6515090E-012  0.5930195E+02  0.7816164E-02  0.1266605E+00
        -11   -1    0    0    0    0  0.00000000000E+00  0.00000000000E+00  0.45593999997E+02  0.45594000000E+02  0.51100000000E-03 0. -1.
         11   -1    0    0    0    0 -0.00000000000E+00 -0.00000000000E+00 -0.45593999997E+02  0.45594000000E+02  0.51100000000E-03 0.  1.
    9900012    2    1    2    0    0 -0.38505061684E+00 -0.31883472548E+02 -0.12760029393E+00  0.59301947132E+02  0.50000005661E+02 0.  0.
        -12    1    1    2    0    0  0.38505061684E+00  0.31883472548E+02  0.12760029393E+00  0.31886052868E+02  0.00000000000E+00 0.  1.
         11    1    3    3    0    0  0.98537397772E+01 -0.24458411498E+02 -0.27502582654E+01  0.26511770997E+02  0.51100000000E-03 0. -1.
        -11    1    3    3    0    0 -0.90506850479E+00 -0.13823918397E+02 -0.90380102282E+01  0.16541024696E+02  0.51100000000E-03 0.  1.
        -12    1    3    3    0    0 -0.93337218893E+01  0.63988573467E+01  0.11660668200E+02  0.16249151440E+02  0.00000000000E+00 0.  1.
</event>
<event>
 7    1  0.6515090E-012  0.5930196E+02  0.7816164E-02  0.1266605E+00
        -11   -1    0    0    0    0  0.00000000000E+00  0.00000000000E+00  0.45593999997E+02  0.45594000000E+02  0.51100000000E-03 0.  1.
         11   -1    0    0    0    0 -0.00000000000E+00 -0.00000000000E+00 -0.45593999997E+02  0.45594000000E+02  0.51100000000E-03 0. -1.
    9900012    2    1    2    0    0 -0.23815232102E+01 -0.96559548541E+01 -0.30295387037E+02  0.59301959282E+02  0.50000027820E+02 0.  0.
        -12    1    1    2    0    0  0.23815232102E+01  0.96559548541E+01  0.30295387037E+02  0.31886040718E+02  0.00000000000E+00 0.  1.
         11    1    3    3    0    0  0.13511651734E+02  0.10238596023E+02 -0.13430455085E+02  0.21628007424E+02  0.51100000000E-03 0. -1.
        -11    1    3    3    0    0  0.95081709049E+00  0.41908484609E+01 -0.21588998177E+01  0.48091696420E+01  0.51100000000E-03 0.  1.
         12    1    3    3    0    0 -0.16843992034E+02 -0.24085399338E+02 -0.14706032135E+02  0.32864782216E+02  0.00000000000E+00 0. -1.
</event>
<event>
 7    1  0.6515090E-012  0.5930181E+02  0.7816164E-02  0.1266605E+00
        -11   -1    0    0    0    0  0.00000000000E+00  0.00000000000E+00  0.45593999997E+02  0.45594000000E+02  0.51100000000E-03 0. -1.
         11   -1    0    0    0    0 -0.00000000000E+00 -0.00000000000E+00 -0.45593999997E+02  0.45594000000E+02  0.51100000000E-03 0.  1.
    9900012    2    1    2    0    0  0.12231460814E+02  0.29033549339E+01  0.29303434831E+02  0.59301805552E+02  0.49999747453E+02 0.  0.
        -12    1    1    2    0    0 -0.12231460814E+02 -0.29033549339E+01 -0.29303434831E+02  0.31886194448E+02  0.00000000000E+00 0.  1.
         11    1    3    3    0    0 -0.55704252268E+01 -0.88733827095E+01  0.73556427232E+01  0.12801251425E+02  0.51100000000E-03 0. -1.
        -11    1    3    3    0    0  0.86581706125E+01 -0.12413284475E+02  0.81446862256E+01  0.17186898027E+02  0.51100000000E-03 0.  1.
        -12    1    3    3    0    0  0.91437154282E+01  0.24190022119E+02  0.13803105882E+02  0.29313656100E+02  0.00000000000E+00 0.  1.
</event>
<event>
 7    1  0.6515090E-012  0.5930190E+02  0.7816164E-02  0.1266605E+00
        -11   -1    0    0    0    0  0.00000000000E+00  0.00000000000E+00  0.45593999997E+02  0.45594000000E+02  0.51100000000E-03 0.  1.
         11   -1    0    0    0    0 -0.00000000000E+00 -0.00000000000E+00 -0.45593999997E+02  0.45594000000E+02  0.51100000000E-03 0. -1.
    9900012    2    1    2    0    0  0.46037902313E+01 -0.31316399449E+02 -0.38485928336E+01  0.59301899176E+02  0.49999918201E+02 0.  0.
        -12    1    1    2    0    0 -0.46037902313E+01  0.31316399449E+02  0.38485928336E+01  0.31886100824E+02  0.00000000000E+00 0.  1.
         11    1    3    3    0    0  0.28825143428E+01 -0.17900043644E+02  0.89708864741E+00  0.18152829523E+02  0.51100000000E-03 0. -1.
        -11    1    3    3    0    0  0.13209922462E+02 -0.19559238530E+02  0.58958243149E+01  0.24327486675E+02  0.51100000000E-03 0.  1.
        -12    1    3    3    0    0 -0.11488646574E+02  0.61428827244E+01 -0.10641505796E+02  0.16821582977E+02  0.00000000000E+00 0.  1.
</event>
<event>
 7    1  0.6515090E-012  0.5930214E+02  0.7816164E-02  0.1266604E+00
        -11   -1    0    0    0    0  0.00000000000E+00  0.00000000000E+00  0.45593999997E+02  0.45594000000E+02  0.51100000000E-03 0.  1.
         11   -1    0    0    0    0 -0.00000000000E+00 -0.00000000000E+00 -0.45593999997E+02  0.45594000000E+02  0.51100000000E-03 0. -1.
    9900012    2    1    2    0    0 -0.16653893280E+02 -0.20046705117E+02 -0.18370785515E+02  0.59302136237E+02  0.50000350543E+02 0.  0.
        -12    1    1    2    0    0  0.16653893280E+02  0.20046705117E+02  0.18370785515E+02  0.31885863763E+02  0.00000000000E+00 0.  1.
         11    1    3    3    0    0 -0.59551744924E+01 -0.18566273287E+02 -0.20695168617E+01  0.19607486001E+02  0.51100000000E-03 0. -1.
        -11    1    3    3    0    0  0.43489024064E+01 -0.14882172852E+02 -0.10501308001E+02  0.18726171284E+02  0.51100000000E-03 0.  1.
         12    1    3    3    0    0 -0.15047621194E+02  0.13401741022E+02 -0.57999606527E+01  0.20968478953E+02  0.00000000000E+00 0. -1.
</event>
<event>
 7    1  0.6515090E-012  0.5930196E+02  0.7816164E-02  0.1266605E+00
        -11   -1    0    0    0    0  0.00000000000E+00  0.00000000000E+00  0.45593999997E+02  0.45594000000E+02  0.51100000000E-03 0. -1.
         11   -1    0    0    0    0 -0.00000000000E+00 -0.00000000000E+00 -0.45593999997E+02  0.45594000000E+02  0.51100000000E-03 0.  1.
    9900012    2    1    2    0    0 -0.18670758935E+02  0.25847868308E+02  0.98693530166E-01  0.59301964252E+02  0.50000036884E+02 0.  0.
        -12    1    1    2    0    0  0.18670758935E+02 -0.25847868308E+02 -0.98693530166E-01  0.31886035748E+02  0.00000000000E+00 0.  1.
         11    1    3    3    0    0 -0.17077610251E+01 -0.53869670897E+01  0.63670252124E+01  0.85132175152E+01  0.51100000000E-03 0. -1.
        -11    1    3    3    0    0 -0.18555073412E+02  0.13460879682E+00  0.17329497118E+01  0.18636308213E+02  0.51100000000E-03 0.  1.
        -12    1    3    3    0    0  0.15920755019E+01  0.31100226601E+02 -0.80012813940E+01  0.32152438523E+02  0.00000000000E+00 0.  1.
</event>
<event>
 7    1  0.6515090E-012  0.5930196E+02  0.7816164E-02  0.1266605E+00
        -11   -1    0    0    0    0  0.00000000000E+00  0.00000000000E+00  0.45593999997E+02  0.45594000000E+02  0.51100000000E-03 0.  1.
         11   -1    0    0    0    0 -0.00000000000E+00 -0.00000000000E+00 -0.45593999997E+02  0.45594000000E+02  0.51100000000E-03 0. -1.
    9900012    2    1    2    0    0 -0.21132332299E+02  0.23009315647E+02  0.63808679900E+01  0.59301959931E+02  0.50000029005E+02 0.  0.
        -12    1    1    2    0    0  0.21132332299E+02 -0.23009315647E+02 -0.63808679900E+01  0.31886040069E+02  0.00000000000E+00 0.  1.
         11    1    3    3    0    0 -0.10236911374E+02  0.16635827355E+02  0.15616938790E+00  0.19533803916E+02  0.51100000000E-03 0. -1.
        -11    1    3    3    0    0 -0.13250370116E+02  0.15880819743E+02 -0.82696884385E+01  0.22274660290E+02  0.51100000000E-03 0.  1.
        -12    1    3    3    0    0  0.23549491908E+01 -0.95073314513E+01  0.14494387041E+02  0.17493495725E+02  0.00000000000E+00 0.  1.
</event>
<event>
 7    1  0.6515090E-012  0.5930194E+02  0.7816164E-02  0.1266605E+00
        -11   -1    0    0    0    0  0.00000000000E+00  0.00000000000E+00  0.45593999997E+02  0.45594000000E+02  0.51100000000E-03 0.  1.
         11   -1    0    0    0    0 -0.00000000000E+00 -0.00000000000E+00 -0.45593999997E+02  0.45594000000E+02  0.51100000000E-03 0. -1.
    9900012    2    1    2    0    0  0.23340748659E+00 -0.11385104755E+02 -0.29783314509E+02  0.59301938586E+02  0.49999990075E+02 0.  0.
        -12    1    1    2    0    0 -0.23340748659E+00  0.11385104755E+02  0.29783314509E+02  0.31886061414E+02  0.00000000000E+00 0.  1.
         11    1    3    3    0    0 -0.16379146141E+02  0.11172956126E+02 -0.68856130643E+01  0.20988640843E+02  0.51100000000E-03 0.  1.
        -11    1    3    3    0    0  0.14908269435E+02 -0.10320306498E+02 -0.11285386199E+02  0.21357087013E+02  0.51100000000E-03 0. -1.
        -12    1    3    3    0    0  0.17042841929E+01 -0.12237754383E+02 -0.11612315246E+02  0.16956210730E+02  0.00000000000E+00 0.  1.
</event>
<event>
 7    1  0.6515090E-012  0.5930197E+02  0.7816164E-02  0.1266605E+00
        -11   -1    0    0    0    0  0.00000000000E+00  0.00000000000E+00  0.45593999997E+02  0.45594000000E+02  0.51100000000E-03 0. -1.
         11   -1    0    0    0    0 -0.00000000000E+00 -0.00000000000E+00 -0.45593999997E+02  0.45594000000E+02  0.51100000000E-03 0.  1.
    9900012    2    1    2    0    0  0.71245381199E+01 -0.30939708317E+02  0.29485841510E+01  0.59301972611E+02  0.50000052128E+02 0.  0.
        -12    1    1    2    0    0 -0.71245381199E+01  0.30939708317E+02 -0.29485841510E+01  0.31886027389E+02  0.00000000000E+00 0.  1.
         11    1    3    3    0    0  0.19301047640E+02 -0.19043580131E+01 -0.20578579156E+01  0.19503635531E+02  0.51100000000E-03 0. -1.
        -11    1    3    3    0    0 -0.55346696151E+01 -0.45561499088E+00  0.86005659835E+01  0.10237670060E+02  0.51100000000E-03 0.  1.
        -12    1    3    3    0    0 -0.66418399053E+01 -0.28579735313E+02 -0.35941239169E+01  0.29560667020E+02  0.00000000000E+00 0.  1.
</event>
<event>
 7    1  0.6515090E-012  0.5930198E+02  0.7816164E-02  0.1266605E+00
        -11   -1    0    0    0    0  0.00000000000E+00  0.00000000000E+00  0.45593999997E+02  0.45594000000E+02  0.51100000000E-03 0. -1.
         11   -1    0    0    0    0 -0.00000000000E+00 -0.00000000000E+00 -0.45593999997E+02  0.45594000000E+02  0.51100000000E-03 0.  1.
    9900012    2    1    2    0    0 -0.12617363995E+01 -0.22681459832E+02  0.22375828607E+02  0.59301979478E+02  0.50000064653E+02 0.  0.
        -12    1    1    2    0    0  0.12617363995E+01  0.22681459832E+02 -0.22375828607E+02  0.31886020522E+02  0.00000000000E+00 0.  1.
         11    1    3    3    0    0 -0.93837003945E+01 -0.22482294772E+02  0.15509374980E+02  0.28879891341E+02  0.51100000000E-03 0. -1.
        -11    1    3    3    0    0 -0.77789351758E+00 -0.13555325996E+02  0.27595549475E+01  0.13855220133E+02  0.51100000000E-03 0.  1.
        -12    1    3    3    0    0  0.88998575126E+01  0.13356160936E+02  0.41068986801E+01  0.16566868004E+02  0.00000000000E+00 0.  1.
</event>
<event>
 7    1  0.6515090E-012  0.5930193E+02  0.7816164E-02  0.1266605E+00
        -11   -1    0    0    0    0  0.00000000000E+00  0.00000000000E+00  0.45593999997E+02  0.45594000000E+02  0.51100000000E-03 0.  1.
         11   -1    0    0    0    0 -0.00000000000E+00 -0.00000000000E+00 -0.45593999997E+02  0.45594000000E+02  0.51100000000E-03 0. -1.
    9900012    2    1    2    0    0 -0.72624100269E+01  0.25125850605E+02  0.18239249948E+02  0.59301933973E+02  0.49999981663E+02 0.  0.
        -12    1    1    2    0    0  0.72624100269E+01 -0.25125850605E+02 -0.18239249948E+02  0.31886066027E+02  0.00000000000E+00 0.  1.
         11    1    3    3    0    0 -0.68919516218E+00  0.91925397243E+01 -0.80442816925E+01  0.12234714740E+02  0.51100000000E-03 0. -1.
        -11    1    3    3    0    0  0.54444790092E+01  0.15226563387E+02 -0.20329465747E+01  0.16297958655E+02  0.51100000000E-03 0.  1.
        -12    1    3    3    0    0 -0.12017693874E+02  0.70674749352E+00  0.28316478215E+02  0.30769260579E+02  0.00000000000E+00 0.  1.
</event>
<event>
 7    1  0.6515090E-012  0.5930194E+02  0.7816164E-02  0.1266605E+00
        -11   -1    0    0    0    0  0.00000000000E+00  0.00000000000E+00  0.45593999997E+02  0.45594000000E+02  0.51100000000E-03 0.  1.
         11   -1    0    0    0    0 -0.00000000000E+00 -0.00000000000E+00 -0.45593999997E+02  0.45594000000E+02  0.51100000000E-03 0. -1.
    9900012    2    1    2    0    0 -0.21827659253E+02  0.19794108352E+02  0.12184715363E+02  0.59301941567E+02  0.49999995513E+02 0.  0.
        -12    1    1    2    0    0  0.21827659253E+02 -0.19794108352E+02 -0.12184715363E+02  0.31886058433E+02  0.00000000000E+00 0.  1.
         11    1    3    3    0    0 -0.24731960564E+02  0.29090241849E+02  0.15655065882E+02  0.41267337353E+02  0.51100000000E-03 0. -1.
        -11    1    3    3    0    0  0.52346529923E+01 -0.33771612415E+01  0.46107399044E+01  0.77502085603E+01  0.51100000000E-03 0.  1.
        -12    1    3    3    0    0 -0.23303516815E+01 -0.59189722559E+01 -0.80810904240E+01  0.10284395654E+02  0.00000000000E+00 0.  1.
</event>
<event>
 7    1  0.6515090E-012  0.5930195E+02  0.7816164E-02  0.1266605E+00
        -11   -1    0    0    0    0  0.00000000000E+00  0.00000000000E+00  0.45593999997E+02  0.45594000000E+02  0.51100000000E-03 0.  1.
         11   -1    0    0    0    0 -0.00000000000E+00 -0.00000000000E+00 -0.45593999997E+02  0.45594000000E+02  0.51100000000E-03 0. -1.
    9900012    2    1    2    0    0 -0.19182859309E+02  0.19571561804E+02 -0.16300071223E+02  0.59301945923E+02  0.50000003456E+02 0.  0.
        -12    1    1    2    0    0  0.19182859309E+02 -0.19571561804E+02  0.16300071223E+02  0.31886054077E+02  0.00000000000E+00 0.  1.
         11    1    3    3    0    0 -0.33580006906E+01  0.21054113536E+02  0.24505087371E+01  0.21460588500E+02  0.51100000000E-03 0. -1.
        -11    1    3    3    0    0 -0.20940493864E+02  0.48286580965E+01 -0.53100951613E+01  0.22136335134E+02  0.51100000000E-03 0.  1.
        -12    1    3    3    0    0  0.51156352452E+01 -0.63112098285E+01 -0.13440484799E+02  0.15705022289E+02  0.00000000000E+00 0.  1.
</event>
<event>
 7    1  0.6515090E-012  0.5930196E+02  0.7816164E-02  0.1266605E+00
        -11   -1    0    0    0    0  0.00000000000E+00  0.00000000000E+00  0.45593999997E+02  0.45594000000E+02  0.51100000000E-03 0. -1.
         11   -1    0    0    0    0 -0.00000000000E+00 -0.00000000000E+00 -0.45593999997E+02  0.45594000000E+02  0.51100000000E-03 0.  1.
    9900012    2    1    2    0    0 -0.89842963825E+01 -0.16926445662E+02  0.25485240176E+02  0.59301958993E+02  0.50000027294E+02 0.  0.
        -12    1    1    2    0    0  0.89842963825E+01  0.16926445662E+02 -0.25485240176E+02  0.31886041007E+02  0.00000000000E+00 0.  1.
         11    1    3    3    0    0  0.90168555574E+01  0.44640287561E+01 -0.46282018638E+00  0.10072012692E+02  0.51100000000E-03 0.  1.
        -11    1    3    3    0    0  0.26421092988E+01  0.57412926432E+01 -0.10769556203E+00  0.63209794618E+01  0.51100000000E-03 0. -1.
        -12    1    3    3    0    0 -0.20643261239E+02 -0.27131767062E+02  0.26055755924E+02  0.42908966840E+02  0.00000000000E+00 0.  1.
</event>
<event>
 7    1  0.6515090E-012  0.5930194E+02  0.7816164E-02  0.1266605E+00
        -11   -1    0    0    0    0  0.00000000000E+00  0.00000000000E+00  0.45593999997E+02  0.45594000000E+02  0.51100000000E-03 0. -1.
         11   -1    0    0    0    0 -0.00000000000E+00 -0.00000000000E+00 -0.45593999997E+02  0.45594000000E+02  0.51100000000E-03 0.  1.
    9900012    2    1    2    0    0  0.24962875831E+02 -0.11035381193E+02  0.16486237155E+02  0.59301939983E+02  0.49999992624E+02 0.  0.
        -12    1    1    2    0    0 -0.24962875831E+02  0.11035381193E+02 -0.16486237155E+02  0.31886060017E+02  0.00000000000E+00 0.  1.
         11    1    3    3    0    0 -0.50405886507E+01  0.25862320588E+01  0.15273065787E+02  0.16289956077E+02  0.51100000000E-03 0. -1.
        -11    1    3    3    0    0  0.10758195933E+02 -0.54588440748E+01  0.14020200030E+02  0.18496047348E+02  0.51100000000E-03 0.  1.
        -12    1    3    3    0    0  0.19245268549E+02 -0.81627691770E+01 -0.12807028661E+02  0.24515936558E+02  0.00000000000E+00 0.  1.
</event>
<event>
 7    1  0.6515090E-012  0.5930210E+02  0.7816164E-02  0.1266604E+00
        -11   -1    0    0    0    0  0.00000000000E+00  0.00000000000E+00  0.45593999997E+02  0.45594000000E+02  0.51100000000E-03 0. -1.
         11   -1    0    0    0    0 -0.00000000000E+00 -0.00000000000E+00 -0.45593999997E+02  0.45594000000E+02  0.51100000000E-03 0.  1.
    9900012    2    1    2    0    0 -0.27064573983E+02 -0.45859057757E+01 -0.16223108118E+02  0.59302095063E+02  0.50000275451E+02 0.  0.
        -12    1    1    2    0    0  0.27064573983E+02  0.45859057757E+01  0.16223108118E+02  0.31885904937E+02  0.00000000000E+00 0.  1.
         11    1    3    3    0    0 -0.35550239946E+01 -0.12938616725E+02 -0.38165979513E+01  0.13950355499E+02  0.51100000000E-03 0. -1.
        -11    1    3    3    0    0 -0.18092797513E+02 -0.46739018884E+01 -0.21562537605E+02  0.28533098481E+02  0.51100000000E-03 0.  1.
         12    1    3    3    0    0 -0.54167524751E+01  0.13026612838E+02  0.91560274388E+01  0.16818641083E+02  0.00000000000E+00 0. -1.
</event>
<event>
 7    1  0.6515090E-012  0.5930196E+02  0.7816164E-02  0.1266605E+00
        -11   -1    0    0    0    0  0.00000000000E+00  0.00000000000E+00  0.45593999997E+02  0.45594000000E+02  0.51100000000E-03 0. -1.
         11   -1    0    0    0    0 -0.00000000000E+00 -0.00000000000E+00 -0.45593999997E+02  0.45594000000E+02  0.51100000000E-03 0.  1.
    9900012    2    1    2    0    0  0.63910364086E+01 -0.46552482093E+01  0.30890169561E+02  0.59301964533E+02  0.50000037398E+02 0.  0.
        -12    1    1    2    0    0 -0.63910364086E+01  0.46552482093E+01 -0.30890169561E+02  0.31886035467E+02  0.00000000000E+00 0.  1.
         11    1    3    3    0    0  0.20462891307E+02  0.54743018308E+00  0.20101040562E+02  0.28689395818E+02  0.51100000000E-03 0. -1.
        -11    1    3    3    0    0  0.66248032719E+01  0.42226445596E-01  0.55146792261E+01  0.86198311289E+01  0.51100000000E-03 0.  1.
        -12    1    3    3    0    0 -0.20696658170E+02 -0.52449048380E+01  0.52744497728E+01  0.21992737587E+02  0.00000000000E+00 0.  1.
</event>
<event>
 7    1  0.6515090E-012  0.5930194E+02  0.7816164E-02  0.1266605E+00
        -11   -1    0    0    0    0  0.00000000000E+00  0.00000000000E+00  0.45593999997E+02  0.45594000000E+02  0.51100000000E-03 0. -1.
         11   -1    0    0    0    0 -0.00000000000E+00 -0.00000000000E+00 -0.45593999997E+02  0.45594000000E+02  0.51100000000E-03 0.  1.
    9900012    2    1    2    0    0  0.28806761737E+02  0.12712792299E+02 -0.50275204131E+01  0.59301943936E+02  0.49999999833E+02 0.  0.
        -12    1    1    2    0    0 -0.28806761737E+02 -0.12712792299E+02  0.50275204131E+01  0.31886056064E+02  0.00000000000E+00 0.  1.
         11    1    3    3    0    0  0.28889172778E+02  0.10174759494E+02 -0.12720563543E+02  0.33165083622E+02  0.51100000000E-03 0. -1.
        -11    1    3    3    0    0 -0.41197908343E+01  0.10956160064E+02 -0.28572129057E+01  0.12048808477E+02  0.51100000000E-03 0.  1.
         12    1    3    3    0    0  0.40373797930E+01 -0.84181272590E+01  0.10550256036E+02  0.14088051837E+02  0.00000000000E+00 0. -1.
</event>
<event>
 7    1  0.6515090E-012  0.5930195E+02  0.7816164E-02  0.1266605E+00
        -11   -1    0    0    0    0  0.00000000000E+00  0.00000000000E+00  0.45593999997E+02  0.45594000000E+02  0.51100000000E-03 0. -1.
         11   -1    0    0    0    0 -0.00000000000E+00 -0.00000000000E+00 -0.45593999997E+02  0.45594000000E+02  0.51100000000E-03 0.  1.
    9900012    2    1    2    0    0  0.13369283338E+02  0.24022621782E+02  0.16152287824E+02  0.59301945114E+02  0.50000001982E+02 0.  0.
        -12    1    1    2    0    0 -0.13369283338E+02 -0.24022621782E+02 -0.16152287824E+02  0.31886054886E+02  0.00000000000E+00 0.  1.
         11    1    3    3    0    0  0.74889820125E+00 -0.11312154053E+02  0.43734282027E+01  0.12151236659E+02  0.51100000000E-03 0. -1.
        -11    1    3    3    0    0  0.78610303920E+01  0.21304855990E+01 -0.50899576204E+01  0.96042926106E+01  0.51100000000E-03 0.  1.
         12    1    3    3    0    0  0.47593547443E+01  0.33204290236E+02  0.16868817241E+02  0.37546415845E+02  0.00000000000E+00 0. -1.
</event>
<event>
 7    1  0.6515090E-012  0.5930196E+02  0.7816164E-02  0.1266605E+00
        -11   -1    0    0    0    0  0.00000000000E+00  0.00000000000E+00  0.45593999997E+02  0.45594000000E+02  0.51100000000E-03 0.  1.
         11   -1    0    0    0    0 -0.00000000000E+00 -0.00000000000E+00 -0.45593999997E+02  0.45594000000E+02  0.51100000000E-03 0. -1.
    9900012    2    1    2    0    0  0.15101457279E+02 -0.26931528424E+02 -0.79597861505E+01  0.59301961821E+02  0.50000032451E+02 0.  0.
        -12    1    1    2    0    0 -0.15101457279E+02  0.26931528424E+02  0.79597861505E+01  0.31886038179E+02  0.00000000000E+00 0.  1.
         11    1    3    3    0    0 -0.51611147434E+01 -0.76092499095E+01 -0.25280104536E+01  0.95356503026E+01  0.51100000000E-03 0. -1.
        -11    1    3    3    0    0 -0.68666564332E+01 -0.20658651577E+02 -0.60574573153E+01  0.22596983094E+02  0.51100000000E-03 0.  1.
         12    1    3    3    0    0  0.27129228455E+02  0.13363730631E+01  0.62568161841E+00  0.27169328424E+02  0.00000000000E+00 0. -1.
</event>
<event>
 7    1  0.6515090E-012  0.5930196E+02  0.7816164E-02  0.1266605E+00
        -11   -1    0    0    0    0  0.00000000000E+00  0.00000000000E+00  0.45593999997E+02  0.45594000000E+02  0.51100000000E-03 0.  1.
         11   -1    0    0    0    0 -0.00000000000E+00 -0.00000000000E+00 -0.45593999997E+02  0.45594000000E+02  0.51100000000E-03 0. -1.
    9900012    2    1    2    0    0 -0.87042713376E+01  0.16931236724E+02 -0.25579065628E+02  0.59301957365E+02  0.50000024324E+02 0.  0.
        -12    1    1    2    0    0  0.87042713376E+01 -0.16931236724E+02  0.25579065628E+02  0.31886042635E+02  0.00000000000E+00 0.  1.
         11    1    3    3    0    0  0.85605274514E+00 -0.91213167942E+01 -0.22687703464E+02  0.24467593569E+02  0.51100000000E-03 0. -1.
        -11    1    3    3    0    0 -0.21722599109E+01  0.71305966794E+01  0.86920809341E+01  0.11450606680E+02  0.51100000000E-03 0.  1.
         12    1    3    3    0    0 -0.73880641718E+01  0.18921956839E+02 -0.11583443099E+02  0.23383757115E+02  0.00000000000E+00 0. -1.
</event>
<event>
 7    1  0.6515090E-012  0.5930195E+02  0.7816164E-02  0.1266605E+00
        -11   -1    0    0    0    0  0.00000000000E+00  0.00000000000E+00  0.45593999997E+02  0.45594000000E+02  0.51100000000E-03 0.  1.
         11   -1    0    0    0    0 -0.00000000000E+00 -0.00000000000E+00 -0.45593999997E+02  0.45594000000E+02  0.51100000000E-03 0. -1.
    9900012    2    1    2    0    0  0.16394350341E+02 -0.76011699297E+01 -0.26271047215E+02  0.59301946165E+02  0.50000003898E+02 0.  0.
        -12    1    1    2    0    0 -0.16394350341E+02  0.76011699297E+01  0.26271047215E+02  0.31886053835E+02  0.00000000000E+00 0.  1.
         11    1    3    3    0    0 -0.31514255106E-01  0.64107138608E+01 -0.22215190957E+02  0.23121698788E+02  0.51100000000E-03 0. -1.
        -11    1    3    3    0    0  0.19101742251E+01 -0.35104572148E+00 -0.13839886842E+02  0.13975495224E+02  0.51100000000E-03 0.  1.
         12    1    3    3    0    0  0.14515690371E+02 -0.13660838069E+02  0.97840305845E+01  0.22204752153E+02  0.00000000000E+00 0. -1.
</event>
<event>
 7    1  0.6515090E-012  0.5930198E+02  0.7816164E-02  0.1266605E+00
        -11   -1    0    0    0    0  0.00000000000E+00  0.00000000000E+00  0.45593999997E+02  0.45594000000E+02  0.51100000000E-03 0.  1.
         11   -1    0    0    0    0 -0.00000000000E+00 -0.00000000000E+00 -0.45593999997E+02  0.45594000000E+02  0.51100000000E-03 0. -1.
    9900012    2    1    2    0    0 -0.12938643264E+02 -0.28569375060E+02 -0.57532991774E+01  0.59301982183E+02  0.50000069586E+02 0.  0.
        -12    1    1    2    0    0  0.12938643264E+02  0.28569375060E+02  0.57532991774E+01  0.31886017817E+02  0.00000000000E+00 0.  1.
         11    1    3    3    0    0 -0.42581018263E+00 -0.73956844841E+01  0.33364176376E+01  0.81246012957E+01  0.51100000000E-03 0. -1.
        -11    1    3    3    0    0 -0.27257576050E+02 -0.85520681221E+01 -0.12986579260E+02  0.31380958597E+02  0.51100000000E-03 0.  1.
         12    1    3    3    0    0  0.14744742969E+02 -0.12621622453E+02  0.38968624451E+01  0.19796422291E+02  0.00000000000E+00 0. -1.
</event>
<event>
 7    1  0.6515090E-012  0.5930193E+02  0.7816164E-02  0.1266605E+00
        -11   -1    0    0    0    0  0.00000000000E+00  0.00000000000E+00  0.45593999997E+02  0.45594000000E+02  0.51100000000E-03 0.  1.
         11   -1    0    0    0    0 -0.00000000000E+00 -0.00000000000E+00 -0.45593999997E+02  0.45594000000E+02  0.51100000000E-03 0. -1.
    9900012    2    1    2    0    0 -0.28644629775E+02 -0.13934194496E+02 -0.14299449479E+01  0.59301931981E+02  0.49999978029E+02 0.  0.
        -12    1    1    2    0    0  0.28644629775E+02  0.13934194496E+02  0.14299449479E+01  0.31886068019E+02  0.00000000000E+00 0.  1.
         11    1    3    3    0    0  0.30421405316E+01  0.69218225331E+01  0.71472873874E+01  0.10404324267E+02  0.51100000000E-03 0.  1.
        -11    1    3    3    0    0 -0.23519085086E+02 -0.17796806335E+02 -0.19170039105E+02  0.35176186242E+02  0.51100000000E-03 0. -1.
         12    1    3    3    0    0 -0.81676852203E+01 -0.30592106943E+01  0.10592806770E+02  0.13721421471E+02  0.00000000000E+00 0. -1.
</event>
<event>
 7    1  0.6515090E-012  0.5930193E+02  0.7816164E-02  0.1266605E+00
        -11   -1    0    0    0    0  0.00000000000E+00  0.00000000000E+00  0.45593999997E+02  0.45594000000E+02  0.51100000000E-03 0.  1.
         11   -1    0    0    0    0 -0.00000000000E+00 -0.00000000000E+00 -0.45593999997E+02  0.45594000000E+02  0.51100000000E-03 0. -1.
    9900012    2    1    2    0    0 -0.20316572483E+02  0.22707400861E+02 -0.93985090847E+01  0.59301934951E+02  0.49999983446E+02 0.  0.
        -12    1    1    2    0    0  0.20316572483E+02 -0.22707400861E+02  0.93985090847E+01  0.31886065049E+02  0.00000000000E+00 0.  1.
         11    1    3    3    0    0 -0.31550862967E+01 -0.64782148445E+01  0.72657858125E+01  0.10232960512E+02  0.51100000000E-03 0. -1.
        -11    1    3    3    0    0 -0.15334668629E+02  0.29041369092E+01  0.33758960673E+01  0.15968179222E+02  0.51100000000E-03 0.  1.
         12    1    3    3    0    0 -0.18268175573E+01  0.26281478796E+02 -0.20040190965E+02  0.33100795217E+02  0.00000000000E+00 0. -1.
</event>
<event>
 7    1  0.6515090E-012  0.5930194E+02  0.7816164E-02  0.1266605E+00
        -11   -1    0    0    0    0  0.00000000000E+00  0.00000000000E+00  0.45593999997E+02  0.45594000000E+02  0.51100000000E-03 0.  1.
         11   -1    0    0    0    0 -0.00000000000E+00 -0.00000000000E+00 -0.45593999997E+02  0.45594000000E+02  0.51100000000E-03 0. -1.
    9900012    2    1    2    0    0  0.80861432085E+01  0.22372601589E+02 -0.21232097949E+02  0.59301937259E+02  0.49999987655E+02 0.  0.
        -12    1    1    2    0    0 -0.80861432085E+01 -0.22372601589E+02  0.21232097949E+02  0.31886062741E+02  0.00000000000E+00 0.  1.
         11    1    3    3    0    0  0.69502924132E+01  0.14702504242E+02 -0.22207297755E+02  0.27525157029E+02  0.51100000000E-03 0. -1.
        -11    1    3    3    0    0 -0.58382727582E+01 -0.93133812952E+01 -0.55223835515E+01  0.12301269052E+02  0.51100000000E-03 0.  1.
        -12    1    3    3    0    0  0.69741235536E+01  0.16983478642E+02  0.64975833578E+01  0.19475511177E+02  0.00000000000E+00 0.  1.
</event>
<event>
 7    1  0.6515090E-012  0.5930199E+02  0.7816164E-02  0.1266605E+00
        -11   -1    0    0    0    0  0.00000000000E+00  0.00000000000E+00  0.45593999997E+02  0.45594000000E+02  0.51100000000E-03 0. -1.
         11   -1    0    0    0    0 -0.00000000000E+00 -0.00000000000E+00 -0.45593999997E+02  0.45594000000E+02  0.51100000000E-03 0.  1.
    9900012    2    1    2    0    0 -0.29372657886E+02 -0.12361233973E+02  0.10792245048E+01  0.59301986418E+02  0.50000077310E+02 0.  0.
        -12    1    1    2    0    0  0.29372657886E+02  0.12361233973E+02 -0.10792245048E+01  0.31886013582E+02  0.00000000000E+00 0.  1.
         11    1    3    3    0    0 -0.46462866925E+01  0.98923737143E+01  0.12915470008E+02  0.16919113556E+02  0.51100000000E-03 0. -1.
        -11    1    3    3    0    0 -0.19688172495E+00  0.79260829436E+00  0.47785827147E+01  0.48478699801E+01  0.51100000000E-03 0.  1.
        -12    1    3    3    0    0 -0.24529489469E+02 -0.23046215981E+02 -0.16614828218E+02  0.37535002882E+02  0.00000000000E+00 0.  1.
</event>
<event>
 7    1  0.6515090E-012  0.5930197E+02  0.7816164E-02  0.1266605E+00
        -11   -1    0    0    0    0  0.00000000000E+00  0.00000000000E+00  0.45593999997E+02  0.45594000000E+02  0.51100000000E-03 0.  1.
         11   -1    0    0    0    0 -0.00000000000E+00 -0.00000000000E+00 -0.45593999997E+02  0.45594000000E+02  0.51100000000E-03 0. -1.
    9900012    2    1    2    0    0 -0.48357052303E+01  0.12765827656E+02 -0.28816115151E+02  0.59301970250E+02  0.50000047823E+02 0.  0.
        -12    1    1    2    0    0  0.48357052303E+01 -0.12765827656E+02  0.28816115151E+02  0.31886029750E+02  0.00000000000E+00 0.  1.
         11    1    3    3    0    0 -0.12835899315E+02  0.17618986907E+02 -0.38356370459E+00  0.21802204756E+02  0.51100000000E-03 0. -1.
        -11    1    3    3    0    0 -0.49821983351E-01  0.47640498722E+01  0.15416407921E+01  0.50075253377E+01  0.51100000000E-03 0.  1.
        -12    1    3    3    0    0  0.80500160678E+01 -0.96172091234E+01 -0.29974192239E+02  0.32492240156E+02  0.00000000000E+00 0.  1.
</event>
<event>
 7    1  0.6515090E-012  0.5930195E+02  0.7816164E-02  0.1266605E+00
        -11   -1    0    0    0    0  0.00000000000E+00  0.00000000000E+00  0.45593999997E+02  0.45594000000E+02  0.51100000000E-03 0.  1.
         11   -1    0    0    0    0 -0.00000000000E+00 -0.00000000000E+00 -0.45593999997E+02  0.45594000000E+02  0.51100000000E-03 0. -1.
    9900012    2    1    2    0    0 -0.17528600356E+02  0.23495824848E+02  0.12546497353E+02  0.59301949577E+02  0.50000010121E+02 0.  0.
        -12    1    1    2    0    0  0.17528600356E+02 -0.23495824848E+02 -0.12546497353E+02  0.31886050423E+02  0.00000000000E+00 0.  1.
         11    1    3    3    0    0  0.16954317155E+01 -0.42547674039E+01  0.13178913027E+02  0.13952106766E+02  0.51100000000E-03 0. -1.
        -11    1    3    3    0    0 -0.18775263378E+02  0.42969754698E+01  0.72842027668E+01  0.20592088853E+02  0.51100000000E-03 0.  1.
         12    1    3    3    0    0 -0.44876869285E+00  0.23453616783E+02 -0.79166184410E+01  0.24757753958E+02  0.00000000000E+00 0. -1.
</event>
<event>
 7    1  0.6515090E-012  0.5930197E+02  0.7816164E-02  0.1266605E+00
        -11   -1    0    0    0    0  0.00000000000E+00  0.00000000000E+00  0.45593999997E+02  0.45594000000E+02  0.51100000000E-03 0. -1.
         11   -1    0    0    0    0 -0.00000000000E+00 -0.00000000000E+00 -0.45593999997E+02  0.45594000000E+02  0.51100000000E-03 0.  1.
    9900012    2    1    2    0    0 -0.24476052969E+01  0.24149522084E+02  0.20676768923E+02  0.59301969176E+02  0.50000045865E+02 0.  0.
        -12    1    1    2    0    0  0.24476052969E+01 -0.24149522084E+02 -0.20676768923E+02  0.31886030824E+02  0.00000000000E+00 0.  1.
         11    1    3    3    0    0  0.64489021521E+01 -0.38402454868E+01  0.54456212644E+01  0.92731125078E+01  0.51100000000E-03 0. -1.
        -11    1    3    3    0    0  0.75081144212E+01 -0.36857164511E+01 -0.42528696491E+01  0.93831331884E+01  0.51100000000E-03 0.  1.
         12    1    3    3    0    0 -0.16404621870E+02  0.31675484022E+02  0.19484017308E+02  0.40645723480E+02  0.00000000000E+00 0. -1.
</event>
<event>
 7    1  0.6515090E-012  0.5930195E+02  0.7816164E-02  0.1266605E+00
        -11   -1    0    0    0    0  0.00000000000E+00  0.00000000000E+00  0.45593999997E+02  0.45594000000E+02  0.51100000000E-03 0.  1.
         11   -1    0    0    0    0 -0.00000000000E+00 -0.00000000000E+00 -0.45593999997E+02  0.45594000000E+02  0.51100000000E-03 0. -1.
    9900012    2    1    2    0    0  0.14865490102E+02  0.25123568755E+02  0.12827456633E+02  0.59301950595E+02  0.50000011977E+02 0.  0.
        -12    1    1    2    0    0 -0.14865490102E+02 -0.25123568755E+02 -0.12827456633E+02  0.31886049405E+02  0.00000000000E+00 0.  1.
         11    1    3    3    0    0  0.12915423116E+02 -0.24958279357E+01 -0.42702494834E+01  0.13830124448E+02  0.51100000000E-03 0. -1.
        -11    1    3    3    0    0  0.42827688807E+01 -0.64336806909E+01  0.12117135449E+01  0.78232094753E+01  0.51100000000E-03 0.  1.
        -12    1    3    3    0    0 -0.23327018942E+01  0.34053077382E+02  0.15885992572E+02  0.37648616671E+02  0.00000000000E+00 0.  1.
</event>
<event>
 7    1  0.6515090E-012  0.5930195E+02  0.7816164E-02  0.1266605E+00
        -11   -1    0    0    0    0  0.00000000000E+00  0.00000000000E+00  0.45593999997E+02  0.45594000000E+02  0.51100000000E-03 0.  1.
         11   -1    0    0    0    0 -0.00000000000E+00 -0.00000000000E+00 -0.45593999997E+02  0.45594000000E+02  0.51100000000E-03 0. -1.
    9900012    2    1    2    0    0 -0.64427505137E+01 -0.11329496980E+02 -0.29100751956E+02  0.59301948184E+02  0.50000007579E+02 0.  0.
        -12    1    1    2    0    0  0.64427505137E+01  0.11329496980E+02  0.29100751956E+02  0.31886051816E+02  0.00000000000E+00 0.  1.
         11    1    3    3    0    0  0.35805933219E-02 -0.98256890698E+01  0.16890138226E+01  0.99698017268E+01  0.51100000000E-03 0. -1.
        -11    1    3    3    0    0  0.61622450446E+01  0.15314059136E+02 -0.19231219874E+02  0.25344298951E+02  0.51100000000E-03 0.  1.
         12    1    3    3    0    0 -0.12608576152E+02 -0.16817867046E+02 -0.11558545905E+02  0.23987847506E+02  0.00000000000E+00 0. -1.
</event>
<event>
 7    1  0.6515090E-012  0.5930199E+02  0.7816164E-02  0.1266605E+00
        -11   -1    0    0    0    0  0.00000000000E+00  0.00000000000E+00  0.45593999997E+02  0.45594000000E+02  0.51100000000E-03 0. -1.
         11   -1    0    0    0    0 -0.00000000000E+00 -0.00000000000E+00 -0.45593999997E+02  0.45594000000E+02  0.51100000000E-03 0.  1.
    9900012    2    1    2    0    0  0.31481145056E+02 -0.32055946519E+01 -0.39216764350E+01  0.59301986183E+02  0.50000076881E+02 0.  0.
        -12    1    1    2    0    0 -0.31481145056E+02  0.32055946519E+01  0.39216764350E+01  0.31886013817E+02  0.00000000000E+00 0.  1.
         11    1    3    3    0    0  0.37344031802E+00 -0.13186089108E+02  0.96298510668E+01  0.16332373847E+02  0.51100000000E-03 0. -1.
        -11    1    3    3    0    0  0.88375642419E+01 -0.26518295345E+01 -0.14682752065E+02  0.17341221124E+02  0.51100000000E-03 0.  1.
        -12    1    3    3    0    0  0.22270140496E+02  0.12632323991E+02  0.11312245633E+01  0.25628391212E+02  0.00000000000E+00 0.  1.
</event>
<event>
 7    1  0.6515090E-012  0.5930192E+02  0.7816164E-02  0.1266605E+00
        -11   -1    0    0    0    0  0.00000000000E+00  0.00000000000E+00  0.45593999997E+02  0.45594000000E+02  0.51100000000E-03 0. -1.
         11   -1    0    0    0    0 -0.00000000000E+00 -0.00000000000E+00 -0.45593999997E+02  0.45594000000E+02  0.51100000000E-03 0.  1.
    9900012    2    1    2    0    0 -0.26291274165E+02  0.13063641449E+02  0.12443163875E+02  0.59301919144E+02  0.49999954618E+02 0.  0.
        -12    1    1    2    0    0  0.26291274165E+02 -0.13063641449E+02 -0.12443163875E+02  0.31886080856E+02  0.00000000000E+00 0.  1.
         11    1    3    3    0    0 -0.28200278823E+02  0.56422840569E+01 -0.66568181138E+01  0.29519558309E+02  0.51100000000E-03 0. -1.
        -11    1    3    3    0    0 -0.65213274759E+01 -0.86061814565E+00 -0.81167221836E+00  0.66277588740E+01  0.51100000000E-03 0.  1.
        -12    1    3    3    0    0  0.84303321341E+01  0.82819755378E+01  0.19911654207E+02  0.23154601961E+02  0.00000000000E+00 0.  1.
</event>
<event>
 7    1  0.6515090E-012  0.5930200E+02  0.7816164E-02  0.1266605E+00
        -11   -1    0    0    0    0  0.00000000000E+00  0.00000000000E+00  0.45593999997E+02  0.45594000000E+02  0.51100000000E-03 0.  1.
         11   -1    0    0    0    0 -0.00000000000E+00 -0.00000000000E+00 -0.45593999997E+02  0.45594000000E+02  0.51100000000E-03 0. -1.
    9900012    2    1    2    0    0 -0.15130971171E+02  0.26016428856E+02 -0.10531672372E+02  0.59302000220E+02  0.50000102481E+02 0.  0.
        -12    1    1    2    0    0  0.15130971171E+02 -0.26016428856E+02  0.10531672372E+02  0.31885999780E+02  0.00000000000E+00 0.  1.
         11    1    3    3    0    0  0.12004646312E+01  0.90537987294E+01 -0.49443034736E+01  0.10385495841E+02  0.51100000000E-03 0. -1.
        -11    1    3    3    0    0  0.13051325725E+02  0.13865659125E+02 -0.17318948275E+01  0.19120488124E+02  0.51100000000E-03 0.  1.
         12    1    3    3    0    0 -0.29382761527E+02  0.30969710024E+01 -0.38554740709E+01  0.29796016255E+02  0.00000000000E+00 0. -1.
</event>
<event>
 7    1  0.6515090E-012  0.5930193E+02  0.7816164E-02  0.1266605E+00
        -11   -1    0    0    0    0  0.00000000000E+00  0.00000000000E+00  0.45593999997E+02  0.45594000000E+02  0.51100000000E-03 0. -1.
         11   -1    0    0    0    0 -0.00000000000E+00 -0.00000000000E+00 -0.45593999997E+02  0.45594000000E+02  0.51100000000E-03 0.  1.
    9900012    2    1    2    0    0 -0.29086936159E+01  0.29672279262E+02  0.11305611197E+02  0.59301929378E+02  0.49999973283E+02 0.  0.
        -12    1    1    2    0    0  0.29086936159E+01 -0.29672279262E+02 -0.11305611197E+02  0.31886070622E+02  0.00000000000E+00 0.  1.
         11    1    3    3    0    0  0.55721960009E+01  0.93277578026E+01  0.94840527310E+01  0.14422333042E+02  0.51100000000E-03 0. -1.
        -11    1    3    3    0    0  0.36644982218E+01 -0.10796005654E+02 -0.65851882066E-01  0.11401167573E+02  0.51100000000E-03 0.  1.
         12    1    3    3    0    0 -0.12145387839E+02  0.31140527113E+02  0.18874103484E+01  0.33478428763E+02  0.00000000000E+00 0. -1.
</event>
<event>
 7    1  0.6515090E-012  0.5930196E+02  0.7816164E-02  0.1266605E+00
        -11   -1    0    0    0    0  0.00000000000E+00  0.00000000000E+00  0.45593999997E+02  0.45594000000E+02  0.51100000000E-03 0.  1.
         11   -1    0    0    0    0 -0.00000000000E+00 -0.00000000000E+00 -0.45593999997E+02  0.45594000000E+02  0.51100000000E-03 0. -1.
    9900012    2    1    2    0    0 -0.13629583823E+01 -0.10566518832E+02 -0.30053461957E+02  0.59301959930E+02  0.50000029002E+02 0.  0.
        -12    1    1    2    0    0  0.13629583823E+01  0.10566518832E+02  0.30053461957E+02  0.31886040070E+02  0.00000000000E+00 0.  1.
         11    1    3    3    0    0  0.61551151260E+01 -0.94871396324E+01 -0.14368676145E+02  0.18285243095E+02  0.51100000000E-03 0.  1.
        -11    1    3    3    0    0  0.12051955678E+02  0.97323180498E+01 -0.74637412959E+01  0.17195205281E+02  0.51100000000E-03 0. -1.
         12    1    3    3    0    0 -0.19570029186E+02 -0.10811697250E+02 -0.82210445157E+01  0.23821511553E+02  0.00000000000E+00 0. -1.
</event>
<event>
 7    1  0.6515090E-012  0.5930194E+02  0.7816164E-02  0.1266605E+00
        -11   -1    0    0    0    0  0.00000000000E+00  0.00000000000E+00  0.45593999997E+02  0.45594000000E+02  0.51100000000E-03 0. -1.
         11   -1    0    0    0    0 -0.00000000000E+00 -0.00000000000E+00 -0.45593999997E+02  0.45594000000E+02  0.51100000000E-03 0.  1.
    9900012    2    1    2    0    0 -0.11325286733E+02  0.22748696440E+02  0.19260205046E+02  0.59301940229E+02  0.49999993071E+02 0.  0.
        -12    1    1    2    0    0  0.11325286733E+02 -0.22748696440E+02 -0.19260205046E+02  0.31886059771E+02  0.00000000000E+00 0.  1.
         11    1    3    3    0    0  0.52332772153E+01  0.21593204441E+02 -0.28575823424E+01  0.22401326870E+02  0.51100000000E-03 0.  1.
        -11    1    3    3    0    0 -0.19116026363E+02  0.53989014859E+01  0.71128955114E+01  0.21098907175E+02  0.51100000000E-03 0. -1.
        -12    1    3    3    0    0  0.25574624143E+01 -0.42434094862E+01  0.15004891877E+02  0.15801706184E+02  0.00000000000E+00 0.  1.
</event>
<event>
 7    1  0.6515090E-012  0.5930231E+02  0.7816164E-02  0.1266603E+00
        -11   -1    0    0    0    0  0.00000000000E+00  0.00000000000E+00  0.45593999997E+02  0.45594000000E+02  0.51100000000E-03 0.  1.
         11   -1    0    0    0    0 -0.00000000000E+00 -0.00000000000E+00 -0.45593999997E+02  0.45594000000E+02  0.51100000000E-03 0. -1.
    9900012    2    1    2    0    0  0.97900102506E+01  0.23314651598E+02 -0.19423688945E+02  0.59302313995E+02  0.50000674726E+02 0.  0.
        -12    1    1    2    0    0 -0.97900102506E+01 -0.23314651598E+02  0.19423688945E+02  0.31885686005E+02  0.00000000000E+00 0.  1.
         11    1    3    3    0    0  0.49774216939E+01 -0.60622876994E+01 -0.12352494891E+02  0.14632504542E+02  0.51100000000E-03 0. -1.
        -11    1    3    3    0    0 -0.13445926036E+02  0.15871528905E+02 -0.70362752016E+01  0.21959224161E+02  0.51100000000E-03 0.  1.
         12    1    3    3    0    0  0.18258514593E+02  0.13505410392E+02 -0.34918851507E-01  0.22710585292E+02  0.00000000000E+00 0. -1.
</event>
<event>
 7    1  0.6515090E-012  0.5930196E+02  0.7816164E-02  0.1266605E+00
        -11   -1    0    0    0    0  0.00000000000E+00  0.00000000000E+00  0.45593999997E+02  0.45594000000E+02  0.51100000000E-03 0.  1.
         11   -1    0    0    0    0 -0.00000000000E+00 -0.00000000000E+00 -0.45593999997E+02  0.45594000000E+02  0.51100000000E-03 0. -1.
    9900012    2    1    2    0    0 -0.29261973441E+02 -0.31451705603E+01  0.12270460159E+02  0.59301962616E+02  0.50000033901E+02 0.  0.
        -12    1    1    2    0    0  0.29261973441E+02  0.31451705603E+01 -0.12270460159E+02  0.31886037384E+02  0.00000000000E+00 0.  1.
         11    1    3    3    0    0 -0.10561726523E+02 -0.84134078894E+01  0.90208954170E+01  0.16239213461E+02  0.51100000000E-03 0. -1.
        -11    1    3    3    0    0  0.65748875611E+01 -0.10273687878E+02  0.53458968730E+01  0.13317523144E+02  0.51100000000E-03 0.  1.
        -12    1    3    3    0    0 -0.25275134479E+02  0.15541925207E+02 -0.20963321309E+01  0.29745226012E+02  0.00000000000E+00 0.  1.
</event>
<event>
 7    1  0.6515090E-012  0.5930196E+02  0.7816164E-02  0.1266605E+00
        -11   -1    0    0    0    0  0.00000000000E+00  0.00000000000E+00  0.45593999997E+02  0.45594000000E+02  0.51100000000E-03 0.  1.
         11   -1    0    0    0    0 -0.00000000000E+00 -0.00000000000E+00 -0.45593999997E+02  0.45594000000E+02  0.51100000000E-03 0. -1.
    9900012    2    1    2    0    0  0.25613982365E+01  0.26818535828E+02 -0.17056521017E+02  0.59301960201E+02  0.50000029497E+02 0.  0.
        -12    1    1    2    0    0 -0.25613982365E+01 -0.26818535828E+02  0.17056521017E+02  0.31886039799E+02  0.00000000000E+00 0.  1.
         11    1    3    3    0    0 -0.81896426668E+01  0.64411278935E+01 -0.52041160616E+01  0.11646510198E+02  0.51100000000E-03 0. -1.
        -11    1    3    3    0    0 -0.81904921794E+01  0.20723133743E+02  0.43779387005E+01  0.22709002219E+02  0.51100000000E-03 0.  1.
        -12    1    3    3    0    0  0.18941533083E+02 -0.34572580878E+00 -0.16230343656E+02  0.24946447784E+02  0.00000000000E+00 0.  1.
</event>
<event>
 7    1  0.6515090E-012  0.5930193E+02  0.7816164E-02  0.1266605E+00
        -11   -1    0    0    0    0  0.00000000000E+00  0.00000000000E+00  0.45593999997E+02  0.45594000000E+02  0.51100000000E-03 0. -1.
         11   -1    0    0    0    0 -0.00000000000E+00 -0.00000000000E+00 -0.45593999997E+02  0.45594000000E+02  0.51100000000E-03 0.  1.
    9900012    2    1    2    0    0 -0.92390441571E+01  0.30290989288E+02 -0.37171751715E+01  0.59301931565E+02  0.49999977271E+02 0.  0.
        -12    1    1    2    0    0  0.92390441571E+01 -0.30290989288E+02  0.37171751715E+01  0.31886068435E+02  0.00000000000E+00 0.  1.
         11    1    3    3    0    0 -0.45069848746E+01  0.82578583032E+01 -0.34642949638E+01  0.10025291830E+02  0.51100000000E-03 0. -1.
        -11    1    3    3    0    0  0.19328997400E+02  0.13087323628E+02 -0.26593463795E+01  0.23493835439E+02  0.51100000000E-03 0.  1.
         12    1    3    3    0    0 -0.24061056682E+02  0.89458073571E+01  0.24064661718E+01  0.25782804296E+02  0.00000000000E+00 0. -1.
</event>
<event>
 7    1  0.6515090E-012  0.5930196E+02  0.7816164E-02  0.1266605E+00
        -11   -1    0    0    0    0  0.00000000000E+00  0.00000000000E+00  0.45593999997E+02  0.45594000000E+02  0.51100000000E-03 0. -1.
         11   -1    0    0    0    0 -0.00000000000E+00 -0.00000000000E+00 -0.45593999997E+02  0.45594000000E+02  0.51100000000E-03 0.  1.
    9900012    2    1    2    0    0  0.20068211226E+02  0.33569624928E+01  0.24550303081E+02  0.59301957907E+02  0.50000025312E+02 0.  0.
        -12    1    1    2    0    0 -0.20068211226E+02 -0.33569624928E+01 -0.24550303081E+02  0.31886042093E+02  0.00000000000E+00 0.  1.
         11    1    3    3    0    0 -0.32855478739E+01  0.53137274455E+01  0.41926517208E+01  0.75238854929E+01  0.51100000000E-03 0. -1.
        -11    1    3    3    0    0  0.27058811651E+01 -0.77080583357E+01  0.27887965481E+02  0.29059844720E+02  0.51100000000E-03 0.  1.
         12    1    3    3    0    0  0.20647877935E+02  0.57512933830E+01 -0.75303141210E+01  0.22718227694E+02  0.00000000000E+00 0. -1.
</event>
<event>
 7    1  0.6515090E-012  0.5930192E+02  0.7816164E-02  0.1266605E+00
        -11   -1    0    0    0    0  0.00000000000E+00  0.00000000000E+00  0.45593999997E+02  0.45594000000E+02  0.51100000000E-03 0.  1.
         11   -1    0    0    0    0 -0.00000000000E+00 -0.00000000000E+00 -0.45593999997E+02  0.45594000000E+02  0.51100000000E-03 0. -1.
    9900012    2    1    2    0    0  0.30684907553E+02 -0.27602332917E+01 -0.82182361418E+01  0.59301923969E+02  0.49999963418E+02 0.  0.
        -12    1    1    2    0    0 -0.30684907553E+02  0.27602332917E+01  0.82182361418E+01  0.31886076031E+02  0.00000000000E+00 0.  1.
         11    1    3    3    0    0  0.18753099505E+02  0.78086372031E+01  0.14751561806E+02  0.25105022047E+02  0.51100000000E-03 0. -1.
        -11    1    3    3    0    0 -0.53382329175E+01 -0.37802403204E+01 -0.40366267388E+01  0.76864363167E+01  0.51100000000E-03 0.  1.
        -12    1    3    3    0    0  0.17270040965E+02 -0.67886301744E+01 -0.18933171209E+02  0.26510465605E+02  0.00000000000E+00 0.  1.
</event>
<event>
 7    1  0.6515090E-012  0.5930195E+02  0.7816164E-02  0.1266605E+00
        -11   -1    0    0    0    0  0.00000000000E+00  0.00000000000E+00  0.45593999997E+02  0.45594000000E+02  0.51100000000E-03 0. -1.
         11   -1    0    0    0    0 -0.00000000000E+00 -0.00000000000E+00 -0.45593999997E+02  0.45594000000E+02  0.51100000000E-03 0.  1.
    9900012    2    1    2    0    0  0.12232767996E+02 -0.13418792701E+02  0.26210985324E+02  0.59301947217E+02  0.50000005817E+02 0.  0.
        -12    1    1    2    0    0 -0.12232767996E+02  0.13418792701E+02 -0.26210985324E+02  0.31886052783E+02  0.00000000000E+00 0.  1.
         11    1    3    3    0    0  0.89415602534E+01  0.42641018219E+01 -0.12408117167E+01  0.99836705720E+01  0.51100000000E-03 0. -1.
        -11    1    3    3    0    0  0.17222325766E+02  0.11474935896E+01  0.87911126132E+01  0.19370309951E+02  0.51100000000E-03 0.  1.
         12    1    3    3    0    0 -0.13931118024E+02 -0.18830388112E+02  0.18660684428E+02  0.29947966695E+02  0.00000000000E+00 0. -1.
</event>
<event>
 7    1  0.6515090E-012  0.5930194E+02  0.7816164E-02  0.1266605E+00
        -11   -1    0    0    0    0  0.00000000000E+00  0.00000000000E+00  0.45593999997E+02  0.45594000000E+02  0.51100000000E-03 0.  1.
         11   -1    0    0    0    0 -0.00000000000E+00 -0.00000000000E+00 -0.45593999997E+02  0.45594000000E+02  0.51100000000E-03 0. -1.
    9900012    2    1    2    0    0  0.29049230338E+02 -0.12666503762E+02 -0.35245666600E+01  0.59301942374E+02  0.49999996985E+02 0.  0.
        -12    1    1    2    0    0 -0.29049230338E+02  0.12666503762E+02  0.35245666600E+01  0.31886057626E+02  0.00000000000E+00 0.  1.
         11    1    3    3    0    0  0.33724146437E+01 -0.41200849077E+01 -0.37772089576E+00  0.53376917776E+01  0.51100000000E-03 0. -1.
        -11    1    3    3    0    0  0.28545987580E+02 -0.24443659450E+02 -0.39612802443E+01  0.37789649848E+02  0.51100000000E-03 0.  1.
        -12    1    3    3    0    0 -0.28691718860E+01  0.15897240596E+02  0.81443447999E+00  0.16174600749E+02  0.00000000000E+00 0.  1.
</event>
<event>
 7    1  0.6515090E-012  0.5930201E+02  0.7816164E-02  0.1266605E+00
        -11   -1    0    0    0    0  0.00000000000E+00  0.00000000000E+00  0.45593999997E+02  0.45594000000E+02  0.51100000000E-03 0.  1.
         11   -1    0    0    0    0 -0.00000000000E+00 -0.00000000000E+00 -0.45593999997E+02  0.45594000000E+02  0.51100000000E-03 0. -1.
    9900012    2    1    2    0    0 -0.10240502504E+02  0.20767315980E+02 -0.21921841020E+02  0.59302009060E+02  0.50000118602E+02 0.  0.
        -12    1    1    2    0    0  0.10240502504E+02 -0.20767315980E+02  0.21921841020E+02  0.31885990940E+02  0.00000000000E+00 0.  1.
         11    1    3    3    0    0 -0.13865959096E+02  0.21007718668E+02 -0.10854565125E+02  0.27411870596E+02  0.51100000000E-03 0. -1.
        -11    1    3    3    0    0  0.64237444564E+01  0.13094506611E+02 -0.10993843485E+02  0.18264588445E+02  0.51100000000E-03 0.  1.
         12    1    3    3    0    0 -0.27982878646E+01 -0.13334909299E+02 -0.73432409917E-01  0.13625550018E+02  0.00000000000E+00 0. -1.
</event>
<event>
 7    1  0.6515090E-012  0.5930207E+02  0.7816164E-02  0.1266604E+00
        -11   -1    0    0    0    0  0.00000000000E+00  0.00000000000E+00  0.45593999997E+02  0.45594000000E+02  0.51100000000E-03 0.  1.
         11   -1    0    0    0    0 -0.00000000000E+00 -0.00000000000E+00 -0.45593999997E+02  0.45594000000E+02  0.51100000000E-03 0. -1.
    9900012    2    1    2    0    0  0.19455198882E+02 -0.17733034073E+02 -0.17992981516E+02  0.59302068230E+02  0.50000226515E+02 0.  0.
        -12    1    1    2    0    0 -0.19455198882E+02  0.17733034073E+02  0.17992981516E+02  0.31885931770E+02  0.00000000000E+00 0.  1.
         11    1    3    3    0    0  0.76118870858E+01 -0.45335846090E+01 -0.31366898885E+02  0.32594118493E+02  0.51100000000E-03 0. -1.
        -11    1    3    3    0    0  0.11222120963E+02 -0.79474669605E+01  0.16544622932E+01  0.13850468430E+02  0.51100000000E-03 0.  1.
        -12    1    3    3    0    0  0.62119083405E+00 -0.52519825039E+01  0.11719455076E+02  0.12857481307E+02  0.00000000000E+00 0.  1.
</event>
<event>
 7    1  0.6515090E-012  0.5930194E+02  0.7816164E-02  0.1266605E+00
        -11   -1    0    0    0    0  0.00000000000E+00  0.00000000000E+00  0.45593999997E+02  0.45594000000E+02  0.51100000000E-03 0.  1.
         11   -1    0    0    0    0 -0.00000000000E+00 -0.00000000000E+00 -0.45593999997E+02  0.45594000000E+02  0.51100000000E-03 0. -1.
    9900012    2    1    2    0    0 -0.84467491062E+00 -0.17765651799E+02 -0.26464864939E+02  0.59301938221E+02  0.49999989409E+02 0.  0.
        -12    1    1    2    0    0  0.84467491062E+00  0.17765651799E+02  0.26464864939E+02  0.31886061779E+02  0.00000000000E+00 0.  1.
         11    1    3    3    0    0  0.27584406404E+01  0.28904114560E+01 -0.14292151480E+02  0.14840116824E+02  0.51100000000E-03 0. -1.
        -11    1    3    3    0    0 -0.12883989553E+02  0.58888839676E+01 -0.99434041218E+00  0.14200875125E+02  0.51100000000E-03 0.  1.
         12    1    3    3    0    0  0.92808740021E+01 -0.26544947223E+02 -0.11178373046E+02  0.30260946272E+02  0.00000000000E+00 0. -1.
</event>
<event>
 7    1  0.6515090E-012  0.5930195E+02  0.7816164E-02  0.1266605E+00
        -11   -1    0    0    0    0  0.00000000000E+00  0.00000000000E+00  0.45593999997E+02  0.45594000000E+02  0.51100000000E-03 0. -1.
         11   -1    0    0    0    0 -0.00000000000E+00 -0.00000000000E+00 -0.45593999997E+02  0.45594000000E+02  0.51100000000E-03 0.  1.
    9900012    2    1    2    0    0 -0.27782816897E+02 -0.13327522534E+02  0.81983245872E+01  0.59301948227E+02  0.50000007658E+02 0.  0.
        -12    1    1    2    0    0  0.27782816897E+02  0.13327522534E+02 -0.81983245872E+01  0.31886051773E+02  0.00000000000E+00 0.  1.
         11    1    3    3    0    0  0.59398361260E+00 -0.63002235470E+00 -0.75275288402E+01  0.75771653935E+01  0.51100000000E-03 0. -1.
        -11    1    3    3    0    0 -0.64331250499E+01  0.37381122903E+01 -0.11102974190E+02  0.13365426201E+02  0.51100000000E-03 0.  1.
         12    1    3    3    0    0 -0.21943675460E+02 -0.16435612470E+02  0.26828827617E+02  0.38359356633E+02  0.00000000000E+00 0. -1.
</event>
<event>
 7    1  0.6515090E-012  0.5930195E+02  0.7816164E-02  0.1266605E+00
        -11   -1    0    0    0    0  0.00000000000E+00  0.00000000000E+00  0.45593999997E+02  0.45594000000E+02  0.51100000000E-03 0.  1.
         11   -1    0    0    0    0 -0.00000000000E+00 -0.00000000000E+00 -0.45593999997E+02  0.45594000000E+02  0.51100000000E-03 0. -1.
    9900012    2    1    2    0    0  0.69563952171E+01  0.11826409455E+02 -0.28783068741E+02  0.59301945977E+02  0.50000003555E+02 0.  0.
        -12    1    1    2    0    0 -0.69563952171E+01 -0.11826409455E+02  0.28783068741E+02  0.31886054023E+02  0.00000000000E+00 0.  1.
         11    1    3    3    0    0  0.58427641695E+00  0.72530534489E+01 -0.21755199159E+02  0.22939852963E+02  0.51100000000E-03 0. -1.
        -11    1    3    3    0    0 -0.23759402497E+01  0.38578484178E+01 -0.20106789787E+02  0.20610945691E+02  0.51100000000E-03 0.  1.
        -12    1    3    3    0    0  0.87480590498E+01  0.71550758810E+00  0.13078920205E+02  0.15751147323E+02  0.00000000000E+00 0.  1.
</event>
<event>
 7    1  0.6515090E-012  0.5930193E+02  0.7816164E-02  0.1266605E+00
        -11   -1    0    0    0    0  0.00000000000E+00  0.00000000000E+00  0.45593999997E+02  0.45594000000E+02  0.51100000000E-03 0.  1.
         11   -1    0    0    0    0 -0.00000000000E+00 -0.00000000000E+00 -0.45593999997E+02  0.45594000000E+02  0.51100000000E-03 0. -1.
    9900012    2    1    2    0    0 -0.30883662019E+02  0.41714113692E+01 -0.67468557132E+01  0.59301932282E+02  0.49999978579E+02 0.  0.
        -12    1    1    2    0    0  0.30883662019E+02 -0.41714113692E+01  0.67468557132E+01  0.31886067718E+02  0.00000000000E+00 0.  1.
         11    1    3    3    0    0 -0.18013168348E+02  0.25612141237E+01  0.75223504075E+01  0.19688062567E+02  0.51100000000E-03 0. -1.
        -11    1    3    3    0    0 -0.20560460643E+02 -0.56993440187E+01 -0.18453420063E+02  0.28208930791E+02  0.51100000000E-03 0.  1.
        -12    1    3    3    0    0  0.76899669728E+01  0.73095412641E+01  0.41842139424E+01  0.11404938924E+02  0.00000000000E+00 0.  1.
</event>
<event>
 7    1  0.6515090E-012  0.5930184E+02  0.7816164E-02  0.1266605E+00
        -11   -1    0    0    0    0  0.00000000000E+00  0.00000000000E+00  0.45593999997E+02  0.45594000000E+02  0.51100000000E-03 0.  1.
         11   -1    0    0    0    0 -0.00000000000E+00 -0.00000000000E+00 -0.45593999997E+02  0.45594000000E+02  0.51100000000E-03 0. -1.
    9900012    2    1    2    0    0 -0.16800804317E+02  0.25758323687E+02 -0.84242873316E+01  0.59301844981E+02  0.49999819362E+02 0.  0.
        -12    1    1    2    0    0  0.16800804317E+02 -0.25758323687E+02  0.84242873316E+01  0.31886155019E+02  0.00000000000E+00 0.  1.
         11    1    3    3    0    0 -0.11573725710E+02  0.43780759239E+01  0.13769547696E+02  0.18512674567E+02  0.51100000000E-03 0.  1.
        -11    1    3    3    0    0 -0.13607756747E+02  0.20179163619E+02 -0.10883757748E+02  0.26661317878E+02  0.51100000000E-03 0. -1.
        -12    1    3    3    0    0  0.83806781396E+01  0.12010841442E+01 -0.11310077280E+02  0.14127852536E+02  0.00000000000E+00 0.  1.
</event>
<event>
 7    1  0.6515090E-012  0.5930191E+02  0.7816164E-02  0.1266605E+00
        -11   -1    0    0    0    0  0.00000000000E+00  0.00000000000E+00  0.45593999997E+02  0.45594000000E+02  0.51100000000E-03 0. -1.
         11   -1    0    0    0    0 -0.00000000000E+00 -0.00000000000E+00 -0.45593999997E+02  0.45594000000E+02  0.51100000000E-03 0.  1.
    9900012    2    1    2    0    0  0.83381640757E+01  0.27690052207E+02  0.13433488706E+02  0.59301912279E+02  0.49999942097E+02 0.  0.
        -12    1    1    2    0    0 -0.83381640757E+01 -0.27690052207E+02 -0.13433488706E+02  0.31886087721E+02  0.00000000000E+00 0.  1.
         11    1    3    3    0    0  0.96011725496E+01  0.45014860229E+01  0.73520583322E+01  0.12903435694E+02  0.51100000000E-03 0. -1.
        -11    1    3    3    0    0 -0.71277108844E+01  0.32200479936E+02 -0.18587493807E+01  0.33032258780E+02  0.51100000000E-03 0.  1.
         12    1    3    3    0    0  0.58647024106E+01 -0.90119137527E+01  0.79401797549E+01  0.13366217804E+02  0.00000000000E+00 0. -1.
</event>
<event>
 7    1  0.6515090E-012  0.5930195E+02  0.7816164E-02  0.1266605E+00
        -11   -1    0    0    0    0  0.00000000000E+00  0.00000000000E+00  0.45593999997E+02  0.45594000000E+02  0.51100000000E-03 0. -1.
         11   -1    0    0    0    0 -0.00000000000E+00 -0.00000000000E+00 -0.45593999997E+02  0.45594000000E+02  0.51100000000E-03 0.  1.
    9900012    2    1    2    0    0  0.27821733968E+02 -0.14961872996E+02  0.43374609395E+01  0.59301951453E+02  0.50000013541E+02 0.  0.
        -12    1    1    2    0    0 -0.27821733968E+02  0.14961872996E+02 -0.43374609395E+01  0.31886048547E+02  0.00000000000E+00 0.  1.
         11    1    3    3    0    0 -0.46109260527E+00 -0.13034739789E+02  0.49158731473E+01  0.13938538547E+02  0.51100000000E-03 0. -1.
        -11    1    3    3    0    0 -0.64423704162E+01 -0.47135459613E+01 -0.61590554129E+01  0.10082440972E+02  0.51100000000E-03 0.  1.
        -12    1    3    3    0    0  0.34725196990E+02  0.27864127542E+01  0.55806432051E+01  0.35280971934E+02  0.00000000000E+00 0.  1.
</event>
<event>
 7    1  0.6515090E-012  0.5930195E+02  0.7816164E-02  0.1266605E+00
        -11   -1    0    0    0    0  0.00000000000E+00  0.00000000000E+00  0.45593999997E+02  0.45594000000E+02  0.51100000000E-03 0.  1.
         11   -1    0    0    0    0 -0.00000000000E+00 -0.00000000000E+00 -0.45593999997E+02  0.45594000000E+02  0.51100000000E-03 0. -1.
    9900012    2    1    2    0    0  0.54228366042E+01  0.28721523601E+02 -0.12743112440E+02  0.59301953060E+02  0.50000016472E+02 0.  0.
        -12    1    1    2    0    0 -0.54228366042E+01 -0.28721523601E+02  0.12743112440E+02  0.31886046940E+02  0.00000000000E+00 0.  1.
         11    1    3    3    0    0  0.16096966201E+02  0.11629378725E+02 -0.17281456869E+02  0.26324960061E+02  0.51100000000E-03 0. -1.
        -11    1    3    3    0    0 -0.50079068555E+01  0.21839402734E+02 -0.27763885674E+01  0.22577576854E+02  0.51100000000E-03 0.  1.
        -12    1    3    3    0    0 -0.56662227417E+01 -0.47472578582E+01  0.73147329968E+01  0.10399416144E+02  0.00000000000E+00 0.  1.
</event>
<event>
 7    1  0.6515090E-012  0.5930195E+02  0.7816164E-02  0.1266605E+00
        -11   -1    0    0    0    0  0.00000000000E+00  0.00000000000E+00  0.45593999997E+02  0.45594000000E+02  0.51100000000E-03 0.  1.
         11   -1    0    0    0    0 -0.00000000000E+00 -0.00000000000E+00 -0.45593999997E+02  0.45594000000E+02  0.51100000000E-03 0. -1.
    9900012    2    1    2    0    0  0.20247963918E+02 -0.56980047469E+01 -0.23963996480E+02  0.59301946179E+02  0.50000003924E+02 0.  0.
        -12    1    1    2    0    0 -0.20247963918E+02  0.56980047469E+01  0.23963996480E+02  0.31886053821E+02  0.00000000000E+00 0.  1.
         11    1    3    3    0    0 -0.95878164260E+01 -0.64551802399E+01 -0.42588389717E+01  0.12318006551E+02  0.51100000000E-03 0. -1.
        -11    1    3    3    0    0  0.14152125741E+02 -0.53106839651E+01  0.60030160590E+01  0.16264139363E+02  0.51100000000E-03 0.  1.
         12    1    3    3    0    0  0.15683654604E+02  0.60678594581E+01 -0.25708173568E+02  0.30719800265E+02  0.00000000000E+00 0. -1.
</event>
<event>
 7    1  0.6515090E-012  0.5930196E+02  0.7816164E-02  0.1266605E+00
        -11   -1    0    0    0    0  0.00000000000E+00  0.00000000000E+00  0.45593999997E+02  0.45594000000E+02  0.51100000000E-03 0. -1.
         11   -1    0    0    0    0 -0.00000000000E+00 -0.00000000000E+00 -0.45593999997E+02  0.45594000000E+02  0.51100000000E-03 0.  1.
    9900012    2    1    2    0    0 -0.25930212069E+02 -0.17202357673E+02  0.69586210209E+01  0.59301962085E+02  0.50000032932E+02 0.  0.
        -12    1    1    2    0    0  0.25930212069E+02  0.17202357673E+02 -0.69586210209E+01  0.31886037915E+02  0.00000000000E+00 0.  1.
         11    1    3    3    0    0 -0.80085251691E+01 -0.17479192543E+02  0.27650269022E+01  0.19424315210E+02  0.51100000000E-03 0. -1.
        -11    1    3    3    0    0 -0.22103570757E+00 -0.14581222340E+02  0.77196798584E+01  0.16500132093E+02  0.51100000000E-03 0.  1.
         12    1    3    3    0    0 -0.17700651192E+02  0.14858057211E+02 -0.35260857398E+01  0.23377514781E+02  0.00000000000E+00 0. -1.
</event>
<event>
 7    1  0.6515090E-012  0.5930192E+02  0.7816164E-02  0.1266605E+00
        -11   -1    0    0    0    0  0.00000000000E+00  0.00000000000E+00  0.45593999997E+02  0.45594000000E+02  0.51100000000E-03 0.  1.
         11   -1    0    0    0    0 -0.00000000000E+00 -0.00000000000E+00 -0.45593999997E+02  0.45594000000E+02  0.51100000000E-03 0. -1.
    9900012    2    1    2    0    0  0.26048432721E+01  0.12026661718E+02 -0.29415923778E+02  0.59301915696E+02  0.49999948330E+02 0.  0.
        -12    1    1    2    0    0 -0.26048432721E+01 -0.12026661718E+02  0.29415923778E+02  0.31886084304E+02  0.00000000000E+00 0.  1.
         11    1    3    3    0    0 -0.79974263059E+01 -0.62241254397E+00  0.17157218617E+01  0.82030437437E+01  0.51100000000E-03 0. -1.
        -11    1    3    3    0    0  0.70122760218E+01  0.25693829065E+02 -0.23758712782E+02  0.35690633230E+02  0.51100000000E-03 0.  1.
         12    1    3    3    0    0  0.35899935563E+01 -0.13044754803E+02 -0.73729328573E+01  0.15408238723E+02  0.00000000000E+00 0. -1.
</event>
<event>
 7    1  0.6515090E-012  0.5930196E+02  0.7816164E-02  0.1266605E+00
        -11   -1    0    0    0    0  0.00000000000E+00  0.00000000000E+00  0.45593999997E+02  0.45594000000E+02  0.51100000000E-03 0.  1.
         11   -1    0    0    0    0 -0.00000000000E+00 -0.00000000000E+00 -0.45593999997E+02  0.45594000000E+02  0.51100000000E-03 0. -1.
    9900012    2    1    2    0    0  0.69420226655E+01  0.32027992084E+01 -0.30955940216E+02  0.59301955464E+02  0.50000020857E+02 0.  0.
        -12    1    1    2    0    0 -0.69420226655E+01 -0.32027992084E+01  0.30955940216E+02  0.31886044536E+02  0.00000000000E+00 0.  1.
         11    1    3    3    0    0  0.10558994533E+02 -0.19382519684E+01 -0.10188227076E+02  0.14800309370E+02  0.51100000000E-03 0. -1.
        -11    1    3    3    0    0 -0.13495083650E+02 -0.12819068492E+02 -0.12381637444E+02  0.22355105586E+02  0.51100000000E-03 0.  1.
         12    1    3    3    0    0  0.98781117820E+01  0.17960119668E+02 -0.83860756967E+01  0.22146540508E+02  0.00000000000E+00 0. -1.
</event>
<event>
 7    1  0.6515090E-012  0.5930199E+02  0.7816164E-02  0.1266605E+00
        -11   -1    0    0    0    0  0.00000000000E+00  0.00000000000E+00  0.45593999997E+02  0.45594000000E+02  0.51100000000E-03 0.  1.
         11   -1    0    0    0    0 -0.00000000000E+00 -0.00000000000E+00 -0.45593999997E+02  0.45594000000E+02  0.51100000000E-03 0. -1.
    9900012    2    1    2    0    0 -0.12153512431E+02 -0.20813808766E+02 -0.20875699186E+02  0.59301994978E+02  0.50000092921E+02 0.  0.
        -12    1    1    2    0    0  0.12153512431E+02  0.20813808766E+02  0.20875699186E+02  0.31886005022E+02  0.00000000000E+00 0.  1.
         11    1    3    3    0    0 -0.83978133616E+01 -0.16389876823E+02  0.19143182966E+01  0.18515289529E+02  0.51100000000E-03 0. -1.
        -11    1    3    3    0    0 -0.64599586051E+01 -0.16883175128E+02 -0.47397925457E+01  0.18687918590E+02  0.51100000000E-03 0.  1.
        -12    1    3    3    0    0  0.27042595352E+01  0.12459243185E+02 -0.18050224937E+02  0.22098786860E+02  0.00000000000E+00 0.  1.
</event>
<event>
 7    1  0.6515090E-012  0.5930192E+02  0.7816164E-02  0.1266605E+00
        -11   -1    0    0    0    0  0.00000000000E+00  0.00000000000E+00  0.45593999997E+02  0.45594000000E+02  0.51100000000E-03 0.  1.
         11   -1    0    0    0    0 -0.00000000000E+00 -0.00000000000E+00 -0.45593999997E+02  0.45594000000E+02  0.51100000000E-03 0. -1.
    9900012    2    1    2    0    0  0.62483812699E+01 -0.30871049814E+02 -0.49656876919E+01  0.59301920915E+02  0.49999957849E+02 0.  0.
        -12    1    1    2    0    0 -0.62483812699E+01  0.30871049814E+02  0.49656876919E+01  0.31886079085E+02  0.00000000000E+00 0.  1.
         11    1    3    3    0    0  0.12665005065E+02 -0.11317776458E+02  0.30170083288E+01  0.17250992921E+02  0.51100000000E-03 0. -1.
        -11    1    3    3    0    0  0.68687818517E+01  0.31929719511E+01  0.81779086585E+01  0.11146902004E+02  0.51100000000E-03 0.  1.
         12    1    3    3    0    0 -0.13285405647E+02 -0.22746245308E+02 -0.16160604679E+02  0.30904025990E+02  0.00000000000E+00 0. -1.
</event>
<event>
 7    1  0.6515090E-012  0.5930195E+02  0.7816164E-02  0.1266605E+00
        -11   -1    0    0    0    0  0.00000000000E+00  0.00000000000E+00  0.45593999997E+02  0.45594000000E+02  0.51100000000E-03 0.  1.
         11   -1    0    0    0    0 -0.00000000000E+00 -0.00000000000E+00 -0.45593999997E+02  0.45594000000E+02  0.51100000000E-03 0. -1.
    9900012    2    1    2    0    0 -0.16935204411E+02 -0.26066803781E+02 -0.71021725456E+01  0.59301948776E+02  0.50000008659E+02 0.  0.
        -12    1    1    2    0    0  0.16935204411E+02  0.26066803781E+02  0.71021725456E+01  0.31886051224E+02  0.00000000000E+00 0.  1.
         11    1    3    3    0    0  0.31996323859E+01 -0.32155516182E+01  0.16091850594E+01  0.48132002276E+01  0.51100000000E-03 0. -1.
        -11    1    3    3    0    0  0.58384892955E+01 -0.60747350532E+01  0.13850609765E+02  0.16212024992E+02  0.51100000000E-03 0.  1.
        -12    1    3    3    0    0 -0.25973326092E+02 -0.16776517110E+02 -0.22561967370E+02  0.38276723556E+02  0.00000000000E+00 0.  1.
</event>
<event>
 7    1  0.6515090E-012  0.5930192E+02  0.7816164E-02  0.1266605E+00
        -11   -1    0    0    0    0  0.00000000000E+00  0.00000000000E+00  0.45593999997E+02  0.45594000000E+02  0.51100000000E-03 0. -1.
         11   -1    0    0    0    0 -0.00000000000E+00 -0.00000000000E+00 -0.45593999997E+02  0.45594000000E+02  0.51100000000E-03 0.  1.
    9900012    2    1    2    0    0 -0.19595323587E+02 -0.19393363029E+01  0.25079559042E+02  0.59301921321E+02  0.49999958588E+02 0.  0.
        -12    1    1    2    0    0  0.19595323587E+02  0.19393363029E+01 -0.25079559042E+02  0.31886078679E+02  0.00000000000E+00 0.  1.
         11    1    3    3    0    0 -0.17133979272E+02 -0.42627653015E+01  0.15484791392E+02  0.23484530619E+02  0.51100000000E-03 0. -1.
        -11    1    3    3    0    0 -0.10820012799E+02  0.14254328006E+02  0.11277774588E+02  0.21152937002E+02  0.51100000000E-03 0.  1.
        -12    1    3    3    0    0  0.83586684838E+01 -0.11930899008E+02 -0.16830069373E+01  0.14664453699E+02  0.00000000000E+00 0.  1.
</event>
<event>
 7    1  0.6515090E-012  0.5930194E+02  0.7816164E-02  0.1266605E+00
        -11   -1    0    0    0    0  0.00000000000E+00  0.00000000000E+00  0.45593999997E+02  0.45594000000E+02  0.51100000000E-03 0. -1.
         11   -1    0    0    0    0 -0.00000000000E+00 -0.00000000000E+00 -0.45593999997E+02  0.45594000000E+02  0.51100000000E-03 0.  1.
    9900012    2    1    2    0    0  0.23870942767E+02  0.21102629591E+02  0.12560941890E+01  0.59301942595E+02  0.49999997387E+02 0.  0.
        -12    1    1    2    0    0 -0.23870942767E+02 -0.21102629591E+02 -0.12560941890E+01  0.31886057405E+02  0.00000000000E+00 0.  1.
         11    1    3    3    0    0  0.18621565305E+02  0.32435315893E+02 -0.76859209518E+01  0.38182270659E+02  0.51100000000E-03 0. -1.
        -11    1    3    3    0    0  0.76472134225E+01 -0.31135630541E+01 -0.62575494794E+00  0.82804418684E+01  0.51100000000E-03 0.  1.
        -12    1    3    3    0    0 -0.23978359613E+01 -0.82191232480E+01  0.95677700888E+01  0.12839230068E+02  0.00000000000E+00 0.  1.
</event>
<event>
 7    1  0.6515090E-012  0.5930194E+02  0.7816164E-02  0.1266605E+00
        -11   -1    0    0    0    0  0.00000000000E+00  0.00000000000E+00  0.45593999997E+02  0.45594000000E+02  0.51100000000E-03 0. -1.
         11   -1    0    0    0    0 -0.00000000000E+00 -0.00000000000E+00 -0.45593999997E+02  0.45594000000E+02  0.51100000000E-03 0.  1.
    9900012    2    1    2    0    0 -0.25597721603E+02 -0.16340116255E+02 -0.97199816858E+01  0.59301940437E+02  0.49999993452E+02 0.  0.
        -12    1    1    2    0    0  0.25597721603E+02  0.16340116255E+02  0.97199816858E+01  0.31886059563E+02  0.00000000000E+00 0.  1.
         11    1    3    3    0    0 -0.50534942788E+01  0.91831706064E+01  0.49169025580E+01  0.11577752711E+02  0.51100000000E-03 0. -1.
        -11    1    3    3    0    0  0.11061701386E+01  0.63772441660E+01  0.36634382862E-01  0.64725727394E+01  0.51100000000E-03 0.  1.
        -12    1    3    3    0    0 -0.21650397462E+02 -0.31900531027E+02 -0.14673518627E+02  0.41251614987E+02  0.00000000000E+00 0.  1.
</event>
<event>
 7    1  0.6515090E-012  0.5930195E+02  0.7816164E-02  0.1266605E+00
        -11   -1    0    0    0    0  0.00000000000E+00  0.00000000000E+00  0.45593999997E+02  0.45594000000E+02  0.51100000000E-03 0. -1.
         11   -1    0    0    0    0 -0.00000000000E+00 -0.00000000000E+00 -0.45593999997E+02  0.45594000000E+02  0.51100000000E-03 0.  1.
    9900012    2    1    2    0    0 -0.72948737456E+01 -0.30882874689E+02 -0.31229504068E+01  0.59301953659E+02  0.50000017565E+02 0.  0.
        -12    1    1    2    0    0  0.72948737456E+01  0.30882874689E+02  0.31229504068E+01  0.31886046341E+02  0.00000000000E+00 0.  1.
         11    1    3    3    0    0  0.66460453704E+01 -0.20681330941E+02 -0.54727833226E+01  0.22401757210E+02  0.51100000000E-03 0. -1.
        -11    1    3    3    0    0 -0.58970122294E+01  0.44479760490E+01 -0.12515757507E+02  0.14532839723E+02  0.51100000000E-03 0.  1.
         12    1    3    3    0    0 -0.80439068866E+01 -0.14649519797E+02  0.14865590423E+02  0.22367356726E+02  0.00000000000E+00 0. -1.
</event>
<event>
 7    1  0.6515090E-012  0.5930193E+02  0.7816164E-02  0.1266605E+00
        -11   -1    0    0    0    0  0.00000000000E+00  0.00000000000E+00  0.45593999997E+02  0.45594000000E+02  0.51100000000E-03 0.  1.
         11   -1    0    0    0    0 -0.00000000000E+00 -0.00000000000E+00 -0.45593999997E+02  0.45594000000E+02  0.51100000000E-03 0. -1.
    9900012    2    1    2    0    0  0.30854492115E+02 -0.41797579097E+01 -0.68739447525E+01  0.59301934449E+02  0.49999982531E+02 0.  0.
        -12    1    1    2    0    0 -0.30854492115E+02  0.41797579097E+01  0.68739447525E+01  0.31886065551E+02  0.00000000000E+00 0.  1.
         11    1    3    3    0    0  0.34758443615E+02 -0.10382923383E+02 -0.18958795829E+02  0.40931533566E+02  0.51100000000E-03 0. -1.
        -11    1    3    3    0    0  0.37533271018E+01  0.23643990858E+01  0.73455176722E+01  0.85810534029E+01  0.51100000000E-03 0.  1.
        -12    1    3    3    0    0 -0.76572786019E+01  0.38387663870E+01  0.47393334046E+01  0.97893474799E+01  0.00000000000E+00 0.  1.
</event>
<event>
 7    1  0.6515090E-012  0.5930193E+02  0.7816164E-02  0.1266605E+00
        -11   -1    0    0    0    0  0.00000000000E+00  0.00000000000E+00  0.45593999997E+02  0.45594000000E+02  0.51100000000E-03 0.  1.
         11   -1    0    0    0    0 -0.00000000000E+00 -0.00000000000E+00 -0.45593999997E+02  0.45594000000E+02  0.51100000000E-03 0. -1.
    9900012    2    1    2    0    0 -0.98193464878E+01  0.17159666339E+02 -0.25016943839E+02  0.59301934182E+02  0.49999982044E+02 0.  0.
        -12    1    1    2    0    0  0.98193464878E+01 -0.17159666339E+02  0.25016943839E+02  0.31886065818E+02  0.00000000000E+00 0.  1.
         11    1    3    3    0    0  0.83714398897E+01 -0.62484505685E+00 -0.91995047338E+01  0.12454008382E+02  0.51100000000E-03 0. -1.
        -11    1    3    3    0    0  0.98104519424E+01 -0.16116759298E+01 -0.48579852716E+01  0.11065373368E+02  0.51100000000E-03 0.  1.
         12    1    3    3    0    0 -0.28001238320E+02  0.19396187325E+02 -0.10959453834E+02  0.35782552432E+02  0.00000000000E+00 0. -1.
</event>
<event>
 7    1  0.6515090E-012  0.5930195E+02  0.7816164E-02  0.1266605E+00
        -11   -1    0    0    0    0  0.00000000000E+00  0.00000000000E+00  0.45593999997E+02  0.45594000000E+02  0.51100000000E-03 0.  1.
         11   -1    0    0    0    0 -0.00000000000E+00 -0.00000000000E+00 -0.45593999997E+02  0.45594000000E+02  0.51100000000E-03 0. -1.
    9900012    2    1    2    0    0 -0.30123843452E+02 -0.85321909675E+01 -0.60395265513E+01  0.59301951201E+02  0.50000013083E+02 0.  0.
        -12    1    1    2    0    0  0.30123843452E+02  0.85321909675E+01  0.60395265513E+01  0.31886048799E+02  0.00000000000E+00 0.  1.
         11    1    3    3    0    0 -0.66138974939E+00  0.21369907170E+01 -0.21573661697E+02  0.21689330211E+02  0.51100000000E-03 0. -1.
        -11    1    3    3    0    0 -0.99977569070E+01  0.21773684172E+01  0.13619693946E+01  0.10322356189E+02  0.51100000000E-03 0.  1.
        -12    1    3    3    0    0 -0.19464696796E+02 -0.12846550102E+02  0.14172165751E+02  0.27290264802E+02  0.00000000000E+00 0.  1.
</event>
<event>
 7    1  0.6515090E-012  0.5930193E+02  0.7816164E-02  0.1266605E+00
        -11   -1    0    0    0    0  0.00000000000E+00  0.00000000000E+00  0.45593999997E+02  0.45594000000E+02  0.51100000000E-03 0.  1.
         11   -1    0    0    0    0 -0.00000000000E+00 -0.00000000000E+00 -0.45593999997E+02  0.45594000000E+02  0.51100000000E-03 0. -1.
    9900012    2    1    2    0    0 -0.36901250633E+01 -0.19163002733E+02 -0.25216734371E+02  0.59301931113E+02  0.49999976447E+02 0.  0.
        -12    1    1    2    0    0  0.36901250633E+01  0.19163002733E+02  0.25216734371E+02  0.31886068887E+02  0.00000000000E+00 0.  1.
         11    1    3    3    0    0 -0.20222910975E+02 -0.11784461593E+02 -0.11442918058E+02  0.26053407402E+02  0.51100000000E-03 0. -1.
        -11    1    3    3    0    0 -0.31910070405E+01 -0.63350707411E+01 -0.11301321654E+02  0.13342995114E+02  0.51100000000E-03 0.  1.
        -12    1    3    3    0    0  0.19723792952E+02 -0.10434703992E+01 -0.24724946593E+01  0.19905528597E+02  0.00000000000E+00 0.  1.
</event>
<event>
 7    1  0.6515090E-012  0.5930195E+02  0.7816164E-02  0.1266605E+00
        -11   -1    0    0    0    0  0.00000000000E+00  0.00000000000E+00  0.45593999997E+02  0.45594000000E+02  0.51100000000E-03 0.  1.
         11   -1    0    0    0    0 -0.00000000000E+00 -0.00000000000E+00 -0.45593999997E+02  0.45594000000E+02  0.51100000000E-03 0. -1.
    9900012    2    1    2    0    0 -0.26075453817E+02 -0.57199658419E-01 -0.18351775395E+02  0.59301949387E+02  0.50000009774E+02 0.  0.
        -12    1    1    2    0    0  0.26075453817E+02  0.57199658419E-01  0.18351775395E+02  0.31886050613E+02  0.00000000000E+00 0.  1.
         11    1    3    3    0    0 -0.31869456528E+02 -0.60089789764E+01 -0.60253172252E+01  0.32985974833E+02  0.51100000000E-03 0. -1.
        -11    1    3    3    0    0 -0.32646634930E+01  0.74711546312E+01  0.27986983409E+01  0.86202605477E+01  0.51100000000E-03 0.  1.
        -12    1    3    3    0    0  0.90586662039E+01 -0.15193753133E+01 -0.15125156510E+02  0.17695714007E+02  0.00000000000E+00 0.  1.
</event>
<event>
 7    1  0.6515090E-012  0.5930203E+02  0.7816164E-02  0.1266604E+00
        -11   -1    0    0    0    0  0.00000000000E+00  0.00000000000E+00  0.45593999997E+02  0.45594000000E+02  0.51100000000E-03 0.  1.
         11   -1    0    0    0    0 -0.00000000000E+00 -0.00000000000E+00 -0.45593999997E+02  0.45594000000E+02  0.51100000000E-03 0. -1.
    9900012    2    1    2    0    0  0.23472060655E+02  0.92729591769E+01 -0.19488200271E+02  0.59302025762E+02  0.50000149064E+02 0.  0.
        -12    1    1    2    0    0 -0.23472060655E+02 -0.92729591769E+01  0.19488200271E+02  0.31885974238E+02  0.00000000000E+00 0.  1.
         11    1    3    3    0    0  0.75960684296E+01 -0.10035112043E+02  0.10374450677E+01  0.12628539972E+02  0.51100000000E-03 0.  1.
        -11    1    3    3    0    0  0.65430578673E+00 -0.93794425646E+01 -0.54695311985E+01  0.10877399996E+02  0.51100000000E-03 0. -1.
         12    1    3    3    0    0  0.15221686439E+02  0.28687513784E+02 -0.15056114140E+02  0.35796085794E+02  0.00000000000E+00 0. -1.
</event>
<event>
 7    1  0.6515090E-012  0.5930194E+02  0.7816164E-02  0.1266605E+00
        -11   -1    0    0    0    0  0.00000000000E+00  0.00000000000E+00  0.45593999997E+02  0.45594000000E+02  0.51100000000E-03 0.  1.
         11   -1    0    0    0    0 -0.00000000000E+00 -0.00000000000E+00 -0.45593999997E+02  0.45594000000E+02  0.51100000000E-03 0. -1.
    9900012    2    1    2    0    0 -0.22417443899E+02 -0.20544425902E+02 -0.95971719390E+01  0.59301938220E+02  0.49999989408E+02 0.  0.
        -12    1    1    2    0    0  0.22417443899E+02  0.20544425902E+02  0.95971719390E+01  0.31886061780E+02  0.00000000000E+00 0.  1.
         11    1    3    3    0    0 -0.11580055219E+02 -0.17273280073E+02  0.82543094394E+01  0.22374036470E+02  0.51100000000E-03 0. -1.
        -11    1    3    3    0    0 -0.87976619280E+01  0.85606150889E+01  0.32069190418E+01  0.12687289549E+02  0.51100000000E-03 0.  1.
         12    1    3    3    0    0 -0.20397267524E+01 -0.11831760917E+02 -0.21058400420E+02  0.24240612201E+02  0.00000000000E+00 0. -1.
</event>
<event>
 7    1  0.6515090E-012  0.5930193E+02  0.7816164E-02  0.1266605E+00
        -11   -1    0    0    0    0  0.00000000000E+00  0.00000000000E+00  0.45593999997E+02  0.45594000000E+02  0.51100000000E-03 0.  1.
         11   -1    0    0    0    0 -0.00000000000E+00 -0.00000000000E+00 -0.45593999997E+02  0.45594000000E+02  0.51100000000E-03 0. -1.
    9900012    2    1    2    0    0  0.28705034012E+02 -0.82274406651E+01 -0.11182654458E+02  0.59301929087E+02  0.49999972752E+02 0.  0.
        -12    1    1    2    0    0 -0.28705034012E+02  0.82274406651E+01  0.11182654458E+02  0.31886070913E+02  0.00000000000E+00 0.  1.
         11    1    3    3    0    0 -0.33390639669E+01  0.11380733403E+02 -0.31897686190E+01  0.12281899896E+02  0.51100000000E-03 0. -1.
        -11    1    3    3    0    0 -0.13449880057E+01 -0.87352396982E+01  0.42829645365E+01  0.98212621797E+01  0.51100000000E-03 0.  1.
        -12    1    3    3    0    0  0.33389085985E+02 -0.10872934370E+02 -0.12275850375E+02  0.37198767011E+02  0.00000000000E+00 0.  1.
</event>
<event>
 7    1  0.6515090E-012  0.5930204E+02  0.7816164E-02  0.1266604E+00
        -11   -1    0    0    0    0  0.00000000000E+00  0.00000000000E+00  0.45593999997E+02  0.45594000000E+02  0.51100000000E-03 0. -1.
         11   -1    0    0    0    0 -0.00000000000E+00 -0.00000000000E+00 -0.45593999997E+02  0.45594000000E+02  0.51100000000E-03 0.  1.
    9900012    2    1    2    0    0 -0.15597307616E+02  0.27701799331E+02  0.24594228258E+01  0.59302039897E+02  0.50000174843E+02 0.  0.
        -12    1    1    2    0    0  0.15597307616E+02 -0.27701799331E+02 -0.24594228258E+01  0.31885960103E+02  0.00000000000E+00 0.  1.
         11    1    3    3    0    0  0.67727427304E+01 -0.65000404533E+01  0.57810987919E+01  0.11024594028E+02  0.51100000000E-03 0. -1.
        -11    1    3    3    0    0 -0.33394852324E+00  0.92355502569E+01 -0.10731939716E+02  0.14162677730E+02  0.51100000000E-03 0.  1.
         12    1    3    3    0    0 -0.22036101823E+02  0.24966289527E+02  0.74102637500E+01  0.34114768139E+02  0.00000000000E+00 0. -1.
</event>
<event>
 7    1  0.6515090E-012  0.5930197E+02  0.7816164E-02  0.1266605E+00
        -11   -1    0    0    0    0  0.00000000000E+00  0.00000000000E+00  0.45593999997E+02  0.45594000000E+02  0.51100000000E-03 0. -1.
         11   -1    0    0    0    0 -0.00000000000E+00 -0.00000000000E+00 -0.45593999997E+02  0.45594000000E+02  0.51100000000E-03 0.  1.
    9900012    2    1    2    0    0  0.15885007357E+02 -0.13466002598E+02  0.24146469318E+02  0.59301973825E+02  0.50000054343E+02 0.  0.
        -12    1    1    2    0    0 -0.15885007357E+02  0.13466002598E+02 -0.24146469318E+02  0.31886026175E+02  0.00000000000E+00 0.  1.
         11    1    3    3    0    0  0.74746363187E+00 -0.13470326806E+02  0.50622870593E-01  0.13491144098E+02  0.51100000000E-03 0. -1.
        -11    1    3    3    0    0  0.83338434802E+01 -0.12375158206E+02 -0.30327724489E+01  0.15224821732E+02  0.51100000000E-03 0.  1.
         12    1    3    3    0    0  0.68037002449E+01  0.12379482413E+02  0.27128618897E+02  0.30586007995E+02  0.00000000000E+00 0. -1.
</event>
<event>
 7    1  0.6515090E-012  0.5930193E+02  0.7816164E-02  0.1266605E+00
        -11   -1    0    0    0    0  0.00000000000E+00  0.00000000000E+00  0.45593999997E+02  0.45594000000E+02  0.51100000000E-03 0.  1.
         11   -1    0    0    0    0 -0.00000000000E+00 -0.00000000000E+00 -0.45593999997E+02  0.45594000000E+02  0.51100000000E-03 0. -1.
    9900012    2    1    2    0    0  0.10131395349E+02  0.29945722708E+02  0.41629644167E+01  0.59301925407E+02  0.49999966040E+02 0.  0.
        -12    1    1    2    0    0 -0.10131395349E+02 -0.29945722708E+02 -0.41629644167E+01  0.31886074593E+02  0.00000000000E+00 0.  1.
         11    1    3    3    0    0 -0.50293944421E+01  0.34272558778E+01  0.39991774487E+01  0.72824660544E+01  0.51100000000E-03 0. -1.
        -11    1    3    3    0    0 -0.64469293092E+01  0.46974138717E+00  0.14027967605E+02  0.15445628180E+02  0.51100000000E-03 0.  1.
        -12    1    3    3    0    0  0.21607719100E+02  0.26048725443E+02 -0.13864180637E+02  0.36573831173E+02  0.00000000000E+00 0.  1.
</event>
<event>
 7    1  0.6515090E-012  0.5930198E+02  0.7816164E-02  0.1266605E+00
        -11   -1    0    0    0    0  0.00000000000E+00  0.00000000000E+00  0.45593999997E+02  0.45594000000E+02  0.51100000000E-03 0.  1.
         11   -1    0    0    0    0 -0.00000000000E+00 -0.00000000000E+00 -0.45593999997E+02  0.45594000000E+02  0.51100000000E-03 0. -1.
    9900012    2    1    2    0    0 -0.24375859342E+01 -0.29834349733E+02  0.10985802255E+02  0.59301982683E+02  0.50000070497E+02 0.  0.
        -12    1    1    2    0    0  0.24375859342E+01  0.29834349733E+02 -0.10985802255E+02  0.31886017317E+02  0.00000000000E+00 0.  1.
         11    1    3    3    0    0  0.53368364858E+01  0.15929085829E+01 -0.19045440028E+00  0.55727421051E+01  0.51100000000E-03 0.  1.
        -11    1    3    3    0    0 -0.18562433111E+02 -0.21931892703E+02  0.21624565434E+02  0.35961002085E+02  0.51100000000E-03 0. -1.
         12    1    3    3    0    0  0.10788010691E+02 -0.94953656130E+01 -0.10448308778E+02  0.17768238492E+02  0.00000000000E+00 0. -1.
</event>
<event>
 7    1  0.6515090E-012  0.5930195E+02  0.7816164E-02  0.1266605E+00
        -11   -1    0    0    0    0  0.00000000000E+00  0.00000000000E+00  0.45593999997E+02  0.45594000000E+02  0.51100000000E-03 0.  1.
         11   -1    0    0    0    0 -0.00000000000E+00 -0.00000000000E+00 -0.45593999997E+02  0.45594000000E+02  0.51100000000E-03 0. -1.
    9900012    2    1    2    0    0 -0.18714940784E+02 -0.33950368407E+01 -0.25591894412E+02  0.59301947511E+02  0.50000006353E+02 0.  0.
        -12    1    1    2    0    0  0.18714940784E+02  0.33950368407E+01  0.25591894412E+02  0.31886052489E+02  0.00000000000E+00 0.  1.
         11    1    3    3    0    0 -0.22628998961E+02 -0.11719637838E+01 -0.18319112356E+02  0.29138204661E+02  0.51100000000E-03 0. -1.
        -11    1    3    3    0    0 -0.10730288923E+02  0.60339083415E+01 -0.15651817785E+01  0.12409550536E+02  0.51100000000E-03 0.  1.
         12    1    3    3    0    0  0.14644347100E+02 -0.82569813984E+01 -0.57076002778E+01  0.17754192314E+02  0.00000000000E+00 0. -1.
</event>
<event>
 7    1  0.6515090E-012  0.5930181E+02  0.7816164E-02  0.1266605E+00
        -11   -1    0    0    0    0  0.00000000000E+00  0.00000000000E+00  0.45593999997E+02  0.45594000000E+02  0.51100000000E-03 0. -1.
         11   -1    0    0    0    0 -0.00000000000E+00 -0.00000000000E+00 -0.45593999997E+02  0.45594000000E+02  0.51100000000E-03 0.  1.
    9900012    2    1    2    0    0 -0.94599387095E+01 -0.21643448403E+02 -0.21419607601E+02  0.59301813509E+02  0.49999761965E+02 0.  0.
        -12    1    1    2    0    0  0.94599387095E+01  0.21643448403E+02  0.21419607601E+02  0.31886186491E+02  0.00000000000E+00 0.  1.
         11    1    3    3    0    0 -0.85646571059E+01 -0.13464700820E+01 -0.76878881284E+01  0.11587491409E+02  0.51100000000E-03 0. -1.
        -11    1    3    3    0    0 -0.14804201398E+02 -0.26196955228E+02 -0.57788866862E+01  0.30640502180E+02  0.51100000000E-03 0.  1.
         12    1    3    3    0    0  0.13908919794E+02  0.58999769070E+01 -0.79528327865E+01  0.17073819920E+02  0.00000000000E+00 0. -1.
</event>
<event>
 7    1  0.6515090E-012  0.5930189E+02  0.7816164E-02  0.1266605E+00
        -11   -1    0    0    0    0  0.00000000000E+00  0.00000000000E+00  0.45593999997E+02  0.45594000000E+02  0.51100000000E-03 0. -1.
         11   -1    0    0    0    0 -0.00000000000E+00 -0.00000000000E+00 -0.45593999997E+02  0.45594000000E+02  0.51100000000E-03 0.  1.
    9900012    2    1    2    0    0 -0.37326560214E+01  0.79841978412E+01  0.30643826521E+02  0.59301886408E+02  0.49999894915E+02 0.  0.
        -12    1    1    2    0    0  0.37326560214E+01 -0.79841978412E+01 -0.30643826521E+02  0.31886113592E+02  0.00000000000E+00 0.  1.
         11    1    3    3    0    0 -0.73157222392E+01 -0.98358333270E-01  0.14581221542E+02  0.16313843452E+02  0.51100000000E-03 0. -1.
        -11    1    3    3    0    0  0.12336275369E+02 -0.11495345849E+02  0.13070816812E+02  0.21334781896E+02  0.51100000000E-03 0.  1.
         12    1    3    3    0    0 -0.87532091511E+01  0.19577902024E+02  0.29917881674E+01  0.21653261060E+02  0.00000000000E+00 0. -1.
</event>
<event>
 7    1  0.6515090E-012  0.5930195E+02  0.7816164E-02  0.1266605E+00
        -11   -1    0    0    0    0  0.00000000000E+00  0.00000000000E+00  0.45593999997E+02  0.45594000000E+02  0.51100000000E-03 0.  1.
         11   -1    0    0    0    0 -0.00000000000E+00 -0.00000000000E+00 -0.45593999997E+02  0.45594000000E+02  0.51100000000E-03 0. -1.
    9900012    2    1    2    0    0  0.87889252970E+01 -0.24185240069E+01 -0.30555288063E+02  0.59301951407E+02  0.50000013459E+02 0.  0.
        -12    1    1    2    0    0 -0.87889252970E+01  0.24185240069E+01  0.30555288063E+02  0.31886048593E+02  0.00000000000E+00 0.  1.
         11    1    3    3    0    0  0.25110632877E+02 -0.76347158556E+01 -0.90663047066E+01  0.27767438682E+02  0.51100000000E-03 0. -1.
        -11    1    3    3    0    0 -0.18987295148E+01  0.22011356125E+01 -0.15264759307E+02  0.15539081335E+02  0.51100000000E-03 0.  1.
        -12    1    3    3    0    0 -0.14422978065E+02  0.30150562362E+01 -0.62242240488E+01  0.15995431391E+02  0.00000000000E+00 0.  1.
</event>
<event>
 7    1  0.6515090E-012  0.5930191E+02  0.7816164E-02  0.1266605E+00
        -11   -1    0    0    0    0  0.00000000000E+00  0.00000000000E+00  0.45593999997E+02  0.45594000000E+02  0.51100000000E-03 0.  1.
         11   -1    0    0    0    0 -0.00000000000E+00 -0.00000000000E+00 -0.45593999997E+02  0.45594000000E+02  0.51100000000E-03 0. -1.
    9900012    2    1    2    0    0  0.28829097671E+02 -0.11834364712E+02  0.67493468420E+01  0.59301909875E+02  0.49999937714E+02 0.  0.
        -12    1    1    2    0    0 -0.28829097671E+02  0.11834364712E+02 -0.67493468420E+01  0.31886090125E+02  0.00000000000E+00 0.  1.
         11    1    3    3    0    0  0.48468701014E+01 -0.42594100015E+01  0.15419088558E+01  0.66341696181E+01  0.51100000000E-03 0. -1.
        -11    1    3    3    0    0  0.14189982662E+02 -0.22564436290E+02 -0.10694779819E+02  0.28720858425E+02  0.51100000000E-03 0.  1.
        -12    1    3    3    0    0  0.97922449074E+01  0.14989481580E+02  0.15902217805E+02  0.23946881832E+02  0.00000000000E+00 0.  1.
</event>
<event>
 7    1  0.6515090E-012  0.5930190E+02  0.7816164E-02  0.1266605E+00
        -11   -1    0    0    0    0  0.00000000000E+00  0.00000000000E+00  0.45593999997E+02  0.45594000000E+02  0.51100000000E-03 0.  1.
         11   -1    0    0    0    0 -0.00000000000E+00 -0.00000000000E+00 -0.45593999997E+02  0.45594000000E+02  0.51100000000E-03 0. -1.
    9900012    2    1    2    0    0 -0.11159058086E+02  0.28583444914E+02 -0.86709566153E+01  0.59301899750E+02  0.49999919247E+02 0.  0.
        -12    1    1    2    0    0  0.11159058086E+02 -0.28583444914E+02  0.86709566153E+01  0.31886100250E+02  0.00000000000E+00 0.  1.
         11    1    3    3    0    0 -0.21897637111E+01 -0.68293082155E+00 -0.84250585451E-01  0.22953339713E+01  0.51100000000E-03 0. -1.
        -11    1    3    3    0    0 -0.26542438879E+01 -0.89143194507E+01 -0.15127649916E+02  0.17758262700E+02  0.51100000000E-03 0.  1.
        -12    1    3    3    0    0 -0.63150504875E+01  0.38180695187E+02  0.65409438862E+01  0.39248303078E+02  0.00000000000E+00 0.  1.
</event>
<event>
 7    1  0.6515090E-012  0.5930194E+02  0.7816164E-02  0.1266605E+00
        -11   -1    0    0    0    0  0.00000000000E+00  0.00000000000E+00  0.45593999997E+02  0.45594000000E+02  0.51100000000E-03 0. -1.
         11   -1    0    0    0    0 -0.00000000000E+00 -0.00000000000E+00 -0.45593999997E+02  0.45594000000E+02  0.51100000000E-03 0.  1.
    9900012    2    1    2    0    0  0.32657291824E+01  0.12671372694E+02  0.29077344657E+02  0.59301942776E+02  0.49999997717E+02 0.  0.
        -12    1    1    2    0    0 -0.32657291824E+01 -0.12671372694E+02 -0.29077344657E+02  0.31886057224E+02  0.00000000000E+00 0.  1.
         11    1    3    3    0    0  0.67227057545E+01  0.49257193294E+01  0.80498978403E+01  0.11586990078E+02  0.51100000000E-03 0. -1.
        -11    1    3    3    0    0  0.39244991733E+00 -0.64229223268E+01  0.29883606922E+02  0.30568577185E+02  0.51100000000E-03 0.  1.
        -12    1    3    3    0    0 -0.38494264894E+01  0.14168575691E+02 -0.88561601059E+01  0.17146375513E+02  0.00000000000E+00 0.  1.
</event>
<event>
 7    1  0.6515090E-012  0.5930188E+02  0.7816164E-02  0.1266605E+00
        -11   -1    0    0    0    0  0.00000000000E+00  0.00000000000E+00  0.45593999997E+02  0.45594000000E+02  0.51100000000E-03 0.  1.
         11   -1    0    0    0    0 -0.00000000000E+00 -0.00000000000E+00 -0.45593999997E+02  0.45594000000E+02  0.51100000000E-03 0. -1.
    9900012    2    1    2    0    0 -0.19829954357E+02 -0.24270925771E+02  0.58668546080E+01  0.59301875893E+02  0.49999875739E+02 0.  0.
        -12    1    1    2    0    0  0.19829954357E+02  0.24270925771E+02 -0.58668546080E+01  0.31886124107E+02  0.00000000000E+00 0.  1.
         11    1    3    3    0    0  0.99207368490E+01 -0.20060718712E+02 -0.22258511067E+01  0.22490172704E+02  0.51100000000E-03 0. -1.
        -11    1    3    3    0    0  0.30457041587E-01 -0.19536442961E+01 -0.41081998244E+01  0.45491713230E+01  0.51100000000E-03 0.  1.
        -12    1    3    3    0    0 -0.29781148247E+02 -0.22565627631E+01  0.12200905539E+02  0.32262531866E+02  0.00000000000E+00 0.  1.
</event>
<event>
 7    1  0.6515090E-012  0.5930192E+02  0.7816164E-02  0.1266605E+00
        -11   -1    0    0    0    0  0.00000000000E+00  0.00000000000E+00  0.45593999997E+02  0.45594000000E+02  0.51100000000E-03 0. -1.
         11   -1    0    0    0    0 -0.00000000000E+00 -0.00000000000E+00 -0.45593999997E+02  0.45594000000E+02  0.51100000000E-03 0.  1.
    9900012    2    1    2    0    0 -0.16297860743E+02  0.71386971492E+01  0.26460169099E+02  0.59301924505E+02  0.49999964394E+02 0.  0.
        -12    1    1    2    0    0  0.16297860743E+02 -0.71386971492E+01 -0.26460169099E+02  0.31886075495E+02  0.00000000000E+00 0.  1.
         11    1    3    3    0    0 -0.13466976631E+01  0.12627256481E+02 -0.40088796507E+01  0.13316618082E+02  0.51100000000E-03 0. -1.
        -11    1    3    3    0    0 -0.14283891542E+02 -0.78518081848E+01  0.91070052528E+00  0.16325128638E+02  0.51100000000E-03 0.  1.
         12    1    3    3    0    0 -0.66727153791E+00  0.23632488530E+01  0.29558348224E+02  0.29660177784E+02  0.00000000000E+00 0. -1.
</event>
<event>
 7    1  0.6515090E-012  0.5930194E+02  0.7816164E-02  0.1266605E+00
        -11   -1    0    0    0    0  0.00000000000E+00  0.00000000000E+00  0.45593999997E+02  0.45594000000E+02  0.51100000000E-03 0.  1.
         11   -1    0    0    0    0 -0.00000000000E+00 -0.00000000000E+00 -0.45593999997E+02  0.45594000000E+02  0.51100000000E-03 0. -1.
    9900012    2    1    2    0    0 -0.29194306925E+02  0.11448296821E+02 -0.57749520763E+01  0.59301935200E+02  0.49999983900E+02 0.  0.
        -12    1    1    2    0    0  0.29194306925E+02 -0.11448296821E+02  0.57749520763E+01  0.31886064800E+02  0.00000000000E+00 0.  1.
         11    1    3    3    0    0 -0.20517025227E+02  0.10885916677E+01  0.21980834560E+01  0.20663129655E+02  0.51100000000E-03 0. -1.
        -11    1    3    3    0    0  0.38815000662E+01 -0.10726952410E+02  0.29374736741E+01  0.11779741195E+02  0.51100000000E-03 0.  1.
         12    1    3    3    0    0 -0.12558781764E+02  0.21086657564E+02 -0.10910509206E+02  0.26859064350E+02  0.00000000000E+00 0. -1.
</event>
<event>
 7    1  0.6515090E-012  0.5930202E+02  0.7816164E-02  0.1266604E+00
        -11   -1    0    0    0    0  0.00000000000E+00  0.00000000000E+00  0.45593999997E+02  0.45594000000E+02  0.51100000000E-03 0.  1.
         11   -1    0    0    0    0 -0.00000000000E+00 -0.00000000000E+00 -0.45593999997E+02  0.45594000000E+02  0.51100000000E-03 0. -1.
    9900012    2    1    2    0    0  0.10272649289E+02 -0.25157639821E+02 -0.16681767890E+02  0.59302022758E+02  0.50000143584E+02 0.  0.
        -12    1    1    2    0    0 -0.10272649289E+02  0.25157639821E+02  0.16681767890E+02  0.31885977242E+02  0.00000000000E+00 0.  1.
         11    1    3    3    0    0  0.88418194212E+01  0.26776600637E+01 -0.99888327699E+01  0.13606043307E+02  0.51100000000E-03 0. -1.
        -11    1    3    3    0    0  0.18436343115E+02 -0.16520061621E+02 -0.29551030441E+01  0.24930780527E+02  0.51100000000E-03 0.  1.
        -12    1    3    3    0    0 -0.17005513247E+02 -0.11315238263E+02 -0.37378320759E+01  0.20765198924E+02  0.00000000000E+00 0.  1.
</event>
<event>
 7    1  0.6515090E-012  0.5930195E+02  0.7816164E-02  0.1266605E+00
        -11   -1    0    0    0    0  0.00000000000E+00  0.00000000000E+00  0.45593999997E+02  0.45594000000E+02  0.51100000000E-03 0.  1.
         11   -1    0    0    0    0 -0.00000000000E+00 -0.00000000000E+00 -0.45593999997E+02  0.45594000000E+02  0.51100000000E-03 0. -1.
    9900012    2    1    2    0    0  0.30062911146E+01 -0.25294802930E+02 -0.19179562834E+02  0.59301945493E+02  0.50000002672E+02 0.  0.
        -12    1    1    2    0    0 -0.30062911146E+01  0.25294802930E+02  0.19179562834E+02  0.31886054507E+02  0.00000000000E+00 0.  1.
         11    1    3    3    0    0 -0.56827534863E+01 -0.12985214422E+02 -0.17547054382E+02  0.22556786085E+02  0.51100000000E-03 0. -1.
        -11    1    3    3    0    0  0.17926920073E+02 -0.33755913637E+01 -0.10578009046E+02  0.21087042372E+02  0.51100000000E-03 0.  1.
        -12    1    3    3    0    0 -0.92378754721E+01 -0.89339971449E+01  0.89455005939E+01  0.15658117036E+02  0.00000000000E+00 0.  1.
</event>
<event>
 7    1  0.6515090E-012  0.5930193E+02  0.7816164E-02  0.1266605E+00
        -11   -1    0    0    0    0  0.00000000000E+00  0.00000000000E+00  0.45593999997E+02  0.45594000000E+02  0.51100000000E-03 0.  1.
         11   -1    0    0    0    0 -0.00000000000E+00 -0.00000000000E+00 -0.45593999997E+02  0.45594000000E+02  0.51100000000E-03 0. -1.
    9900012    2    1    2    0    0 -0.72693800466E+00  0.22868654871E+02 -0.22208505340E+02  0.59301928999E+02  0.49999972591E+02 0.  0.
        -12    1    1    2    0    0  0.72693800466E+00 -0.22868654871E+02  0.22208505340E+02  0.31886071001E+02  0.00000000000E+00 0.  1.
         11    1    3    3    0    0  0.55905578109E+01  0.33965465394E+01 -0.11734778241E+02  0.13434875721E+02  0.51100000000E-03 0. -1.
        -11    1    3    3    0    0  0.11467181728E+02  0.85411703544E+01  0.93456645043E+01  0.17081841034E+02  0.51100000000E-03 0.  1.
         12    1    3    3    0    0 -0.17784677544E+02  0.10930937977E+02 -0.19819391603E+02  0.28785212244E+02  0.00000000000E+00 0. -1.
</event>
<event>
 7    1  0.6515090E-012  0.5930199E+02  0.7816164E-02  0.1266605E+00
        -11   -1    0    0    0    0  0.00000000000E+00  0.00000000000E+00  0.45593999997E+02  0.45594000000E+02  0.51100000000E-03 0.  1.
         11   -1    0    0    0    0 -0.00000000000E+00 -0.00000000000E+00 -0.45593999997E+02  0.45594000000E+02  0.51100000000E-03 0. -1.
    9900012    2    1    2    0    0 -0.27535776728E+02  0.77924722428E+01 -0.14063296064E+02  0.59301985513E+02  0.50000075659E+02 0.  0.
        -12    1    1    2    0    0  0.27535776728E+02 -0.77924722428E+01  0.14063296064E+02  0.31886014487E+02  0.00000000000E+00 0.  1.
         11    1    3    3    0    0 -0.47463349021E+01  0.32382903285E+01 -0.18222102587E+02  0.19106523551E+02  0.51100000000E-03 0. -1.
        -11    1    3    3    0    0 -0.34407287216E+01 -0.43406416526E+01 -0.12162895874E+02  0.13364722982E+02  0.51100000000E-03 0.  1.
        -12    1    3    3    0    0 -0.19348713105E+02  0.88948235669E+01  0.16321702396E+02  0.26830738980E+02  0.00000000000E+00 0.  1.
</event>
<event>
 7    1  0.6515090E-012  0.5930213E+02  0.7816164E-02  0.1266604E+00
        -11   -1    0    0    0    0  0.00000000000E+00  0.00000000000E+00  0.45593999997E+02  0.45594000000E+02  0.51100000000E-03 0. -1.
         11   -1    0    0    0    0 -0.00000000000E+00 -0.00000000000E+00 -0.45593999997E+02  0.45594000000E+02  0.51100000000E-03 0.  1.
    9900012    2    1    2    0    0  0.30297256261E+02  0.17454368806E+01  0.97846089013E+01  0.59302127608E+02  0.50000334806E+02 0.  0.
        -12    1    1    2    0    0 -0.30297256261E+02 -0.17454368806E+01 -0.97846089013E+01  0.31885872392E+02  0.00000000000E+00 0.  1.
         11    1    3    3    0    0  0.83520457439E+01  0.12830808840E+02 -0.37273778208E+01  0.15756892755E+02  0.51100000000E-03 0. -1.
        -11    1    3    3    0    0  0.13783219787E+02  0.55576249822E+00  0.22739086316E+02  0.26596091186E+02  0.51100000000E-03 0.  1.
        -12    1    3    3    0    0  0.81619907299E+01 -0.11641134458E+02 -0.92270995939E+01  0.16949143667E+02  0.00000000000E+00 0.  1.
</event>
<event>
 7    1  0.6515090E-012  0.5930196E+02  0.7816164E-02  0.1266605E+00
        -11   -1    0    0    0    0  0.00000000000E+00  0.00000000000E+00  0.45593999997E+02  0.45594000000E+02  0.51100000000E-03 0. -1.
         11   -1    0    0    0    0 -0.00000000000E+00 -0.00000000000E+00 -0.45593999997E+02  0.45594000000E+02  0.51100000000E-03 0.  1.
    9900012    2    1    2    0    0 -0.17601006009E+02 -0.25973523083E+02  0.56833389726E+01  0.59301958293E+02  0.50000026016E+02 0.  0.
        -12    1    1    2    0    0  0.17601006009E+02  0.25973523083E+02 -0.56833389726E+01  0.31886041707E+02  0.00000000000E+00 0.  1.
         11    1    3    3    0    0  0.60239396866E+01 -0.67541351696E+00 -0.23343308258E+01  0.64956241757E+01  0.51100000000E-03 0. -1.
        -11    1    3    3    0    0  0.26618737135E+01  0.39389355883E+01 -0.88327720454E+01  0.10030884682E+02  0.51100000000E-03 0.  1.
         12    1    3    3    0    0 -0.26286819409E+02 -0.29237045154E+02  0.16850441844E+02  0.42775449435E+02  0.00000000000E+00 0. -1.
</event>
<event>
 7    1  0.6515090E-012  0.5930201E+02  0.7816164E-02  0.1266605E+00
        -11   -1    0    0    0    0  0.00000000000E+00  0.00000000000E+00  0.45593999997E+02  0.45594000000E+02  0.51100000000E-03 0.  1.
         11   -1    0    0    0    0 -0.00000000000E+00 -0.00000000000E+00 -0.45593999997E+02  0.45594000000E+02  0.51100000000E-03 0. -1.
    9900012    2    1    2    0    0 -0.23743199477E+02 -0.73799301620E+01 -0.19962808915E+02  0.59302005733E+02  0.50000112536E+02 0.  0.
        -12    1    1    2    0    0  0.23743199477E+02  0.73799301620E+01  0.19962808915E+02  0.31885994267E+02  0.00000000000E+00 0.  1.
         11    1    3    3    0    0 -0.42837765756E+01 -0.11924330041E+02 -0.41568450926E+01  0.13334907201E+02  0.51100000000E-03 0. -1.
        -11    1    3    3    0    0  0.77774583820E+01  0.21635219241E+01  0.67500094680E+01  0.10522942273E+02  0.51100000000E-03 0.  1.
         12    1    3    3    0    0 -0.27236881283E+02  0.23808779545E+01 -0.22555973290E+02  0.35444156260E+02  0.00000000000E+00 0. -1.
</event>
<event>
 7    1  0.6515090E-012  0.5930195E+02  0.7816164E-02  0.1266605E+00
        -11   -1    0    0    0    0  0.00000000000E+00  0.00000000000E+00  0.45593999997E+02  0.45594000000E+02  0.51100000000E-03 0. -1.
         11   -1    0    0    0    0 -0.00000000000E+00 -0.00000000000E+00 -0.45593999997E+02  0.45594000000E+02  0.51100000000E-03 0.  1.
    9900012    2    1    2    0    0  0.14653902100E+02 -0.28304862079E+02  0.90433523928E+00  0.59301954678E+02  0.50000019424E+02 0.  0.
        -12    1    1    2    0    0 -0.14653902100E+02  0.28304862079E+02 -0.90433523928E+00  0.31886045322E+02  0.00000000000E+00 0.  1.
         11    1    3    3    0    0  0.10762331590E+02 -0.14396644736E+02  0.62050896396E+01  0.19015633006E+02  0.51100000000E-03 0. -1.
        -11    1    3    3    0    0  0.43172020293E+01 -0.51305402936E+01  0.15943524920E+02  0.17296145935E+02  0.51100000000E-03 0.  1.
        -12    1    3    3    0    0 -0.42563151967E+00 -0.87776770486E+01 -0.21244279321E+02  0.22990175737E+02  0.00000000000E+00 0.  1.
</event>
<event>
 7    1  0.6515090E-012  0.5930189E+02  0.7816164E-02  0.1266605E+00
        -11   -1    0    0    0    0  0.00000000000E+00  0.00000000000E+00  0.45593999997E+02  0.45594000000E+02  0.51100000000E-03 0. -1.
         11   -1    0    0    0    0 -0.00000000000E+00 -0.00000000000E+00 -0.45593999997E+02  0.45594000000E+02  0.51100000000E-03 0.  1.
    9900012    2    1    2    0    0 -0.15284722959E+02  0.23711712870E+02  0.14861215091E+02  0.59301893352E+02  0.49999907580E+02 0.  0.
        -12    1    1    2    0    0  0.15284722959E+02 -0.23711712870E+02 -0.14861215091E+02  0.31886106648E+02  0.00000000000E+00 0.  1.
         11    1    3    3    0    0 -0.36914921019E+01  0.88634673627E+01 -0.84321015205E+01  0.12778439026E+02  0.51100000000E-03 0.  1.
        -11    1    3    3    0    0 -0.98812336216E+01  0.11739687786E+02 -0.63948944319E+01  0.16623890106E+02  0.51100000000E-03 0. -1.
         12    1    3    3    0    0 -0.17119972352E+01  0.31085577216E+01  0.29688211043E+02  0.29899564221E+02  0.00000000000E+00 0. -1.
</event>
<event>
 7    1  0.6515090E-012  0.5930197E+02  0.7816164E-02  0.1266605E+00
        -11   -1    0    0    0    0  0.00000000000E+00  0.00000000000E+00  0.45593999997E+02  0.45594000000E+02  0.51100000000E-03 0.  1.
         11   -1    0    0    0    0 -0.00000000000E+00 -0.00000000000E+00 -0.45593999997E+02  0.45594000000E+02  0.51100000000E-03 0. -1.
    9900012    2    1    2    0    0  0.23192668011E+02  0.19898577269E+02 -0.91030695234E+01  0.59301966983E+02  0.50000041865E+02 0.  0.
        -12    1    1    2    0    0 -0.23192668011E+02 -0.19898577269E+02  0.91030695234E+01  0.31886033017E+02  0.00000000000E+00 0.  1.
         11    1    3    3    0    0  0.20677506951E+02  0.32282118148E+02 -0.11498472117E+02  0.40023859224E+02  0.51100000000E-03 0. -1.
        -11    1    3    3    0    0 -0.20280189833E+01  0.26888490444E+01  0.99700604467E-01  0.33693783776E+01  0.51100000000E-03 0.  1.
        -12    1    3    3    0    0  0.45431800428E+01 -0.15072389924E+02  0.22957019896E+01  0.15908729382E+02  0.00000000000E+00 0.  1.
</event>
<event>
 7    1  0.6515090E-012  0.5930195E+02  0.7816164E-02  0.1266605E+00
        -11   -1    0    0    0    0  0.00000000000E+00  0.00000000000E+00  0.45593999997E+02  0.45594000000E+02  0.51100000000E-03 0.  1.
         11   -1    0    0    0    0 -0.00000000000E+00 -0.00000000000E+00 -0.45593999997E+02  0.45594000000E+02  0.51100000000E-03 0. -1.
    9900012    2    1    2    0    0 -0.25107239700E+02 -0.15805397699E+02  0.11684874836E+02  0.59301946909E+02  0.50000005255E+02 0.  0.
        -12    1    1    2    0    0  0.25107239700E+02  0.15805397699E+02 -0.11684874836E+02  0.31886053091E+02  0.00000000000E+00 0.  1.
         11    1    3    3    0    0 -0.23842732490E+02 -0.63946386651E+01  0.15231590441E+00  0.24685835952E+02  0.51100000000E-03 0. -1.
        -11    1    3    3    0    0 -0.59976115422E+01 -0.38094178186E+01  0.21270465236E+02  0.22425782036E+02  0.51100000000E-03 0.  1.
        -12    1    3    3    0    0  0.47331043319E+01 -0.56013412152E+01 -0.97379063042E+01  0.12190328921E+02  0.00000000000E+00 0.  1.
</event>
<event>
 7    1  0.6515090E-012  0.5930184E+02  0.7816164E-02  0.1266605E+00
        -11   -1    0    0    0    0  0.00000000000E+00  0.00000000000E+00  0.45593999997E+02  0.45594000000E+02  0.51100000000E-03 0. -1.
         11   -1    0    0    0    0 -0.00000000000E+00 -0.00000000000E+00 -0.45593999997E+02  0.45594000000E+02  0.51100000000E-03 0.  1.
    9900012    2    1    2    0    0  0.24596561593E+02  0.35182697157E+01  0.19983952142E+02  0.59301836744E+02  0.49999804340E+02 0.  0.
        -12    1    1    2    0    0 -0.24596561593E+02 -0.35182697157E+01 -0.19983952142E+02  0.31886163256E+02  0.00000000000E+00 0.  1.
         11    1    3    3    0    0  0.90377856981E+00  0.87956014983E+01  0.34482396511E+00  0.88486340894E+01  0.51100000000E-03 0. -1.
        -11    1    3    3    0    0  0.85833868659E+01  0.21561143175E+01 -0.11822892732E+02  0.14768349666E+02  0.51100000000E-03 0.  1.
        -12    1    3    3    0    0  0.15109396157E+02 -0.74334461001E+01  0.31462020909E+02  0.35684852989E+02  0.00000000000E+00 0.  1.
</event>
<event>
 7    1  0.6515090E-012  0.5930193E+02  0.7816164E-02  0.1266605E+00
        -11   -1    0    0    0    0  0.00000000000E+00  0.00000000000E+00  0.45593999997E+02  0.45594000000E+02  0.51100000000E-03 0.  1.
         11   -1    0    0    0    0 -0.00000000000E+00 -0.00000000000E+00 -0.45593999997E+02  0.45594000000E+02  0.51100000000E-03 0. -1.
    9900012    2    1    2    0    0 -0.15857156612E+02 -0.22068057538E+02 -0.16681511515E+02  0.59301930851E+02  0.49999975969E+02 0.  0.
        -12    1    1    2    0    0  0.15857156612E+02  0.22068057538E+02  0.16681511515E+02  0.31886069149E+02  0.00000000000E+00 0.  1.
         11    1    3    3    0    0 -0.22116786962E+02 -0.23540418831E+02 -0.17422350223E+02  0.36699344297E+02  0.51100000000E-03 0. -1.
        -11    1    3    3    0    0  0.61518860176E+01  0.23277695709E+00 -0.10025384343E+02  0.11764702214E+02  0.51100000000E-03 0.  1.
        -12    1    3    3    0    0  0.10774433184E+00  0.12395843358E+01  0.10766223052E+02  0.10837884340E+02  0.00000000000E+00 0.  1.
</event>
<event>
 7    1  0.6515090E-012  0.5930184E+02  0.7816164E-02  0.1266605E+00
        -11   -1    0    0    0    0  0.00000000000E+00  0.00000000000E+00  0.45593999997E+02  0.45594000000E+02  0.51100000000E-03 0.  1.
         11   -1    0    0    0    0 -0.00000000000E+00 -0.00000000000E+00 -0.45593999997E+02  0.45594000000E+02  0.51100000000E-03 0. -1.
    9900012    2    1    2    0    0  0.51189627774E+00 -0.58840162904E+01 -0.31334384160E+02  0.59301838170E+02  0.49999806941E+02 0.  0.
        -12    1    1    2    0    0 -0.51189627774E+00  0.58840162904E+01  0.31334384160E+02  0.31886161830E+02  0.00000000000E+00 0.  1.
         11    1    3    3    0    0  0.96410297085E+01 -0.10592635862E+02 -0.83384736950E+01  0.16573579341E+02  0.51100000000E-03 0. -1.
        -11    1    3    3    0    0 -0.12188173063E+02 -0.68469118456E+01  0.28361989727E+01  0.14264494008E+02  0.51100000000E-03 0.  1.
         12    1    3    3    0    0  0.30590396320E+01  0.11555531417E+02 -0.25832109438E+02  0.28463764822E+02  0.00000000000E+00 0. -1.
</event>
<event>
 7    1  0.6515090E-012  0.5930196E+02  0.7816164E-02  0.1266605E+00
        -11   -1    0    0    0    0  0.00000000000E+00  0.00000000000E+00  0.45593999997E+02  0.45594000000E+02  0.51100000000E-03 0.  1.
         11   -1    0    0    0    0 -0.00000000000E+00 -0.00000000000E+00 -0.45593999997E+02  0.45594000000E+02  0.51100000000E-03 0. -1.
    9900012    2    1    2    0    0  0.23688849653E+02  0.11044099214E+02  0.18264336642E+02  0.59301957312E+02  0.50000024227E+02 0.  0.
        -12    1    1    2    0    0 -0.23688849653E+02 -0.11044099214E+02 -0.18264336642E+02  0.31886042688E+02  0.00000000000E+00 0.  1.
         11    1    3    3    0    0 -0.39617766743E+01  0.26097318342E+01  0.14389436548E+02  0.15151312124E+02  0.51100000000E-03 0.  1.
        -11    1    3    3    0    0  0.52527432555E+01  0.12708271219E+01  0.16568654669E+02  0.17427754620E+02  0.51100000000E-03 0. -1.
         12    1    3    3    0    0  0.22397883072E+02  0.71635402580E+01 -0.12693754574E+02  0.26722890568E+02  0.00000000000E+00 0. -1.
</event>
<event>
 7    1  0.6515090E-012  0.5930197E+02  0.7816164E-02  0.1266605E+00
        -11   -1    0    0    0    0  0.00000000000E+00  0.00000000000E+00  0.45593999997E+02  0.45594000000E+02  0.51100000000E-03 0.  1.
         11   -1    0    0    0    0 -0.00000000000E+00 -0.00000000000E+00 -0.45593999997E+02  0.45594000000E+02  0.51100000000E-03 0. -1.
    9900012    2    1    2    0    0 -0.70253483210E+01  0.48860382478E+01 -0.30716278635E+02  0.59301973876E+02  0.50000054436E+02 0.  0.
        -12    1    1    2    0    0  0.70253483210E+01 -0.48860382478E+01  0.30716278635E+02  0.31886026124E+02  0.00000000000E+00 0.  1.
         11    1    3    3    0    0  0.11288315157E+02 -0.11035408454E+01 -0.48977705417E+01  0.12354433133E+02  0.51100000000E-03 0. -1.
        -11    1    3    3    0    0 -0.11386218740E+00  0.17128360997E+02 -0.70248936988E+01  0.18513315392E+02  0.51100000000E-03 0.  1.
         12    1    3    3    0    0 -0.18199801291E+02 -0.11138781904E+02 -0.18793614395E+02  0.28434225352E+02  0.00000000000E+00 0. -1.
</event>
<event>
 7    1  0.6515090E-012  0.5930196E+02  0.7816164E-02  0.1266605E+00
        -11   -1    0    0    0    0  0.00000000000E+00  0.00000000000E+00  0.45593999997E+02  0.45594000000E+02  0.51100000000E-03 0.  1.
         11   -1    0    0    0    0 -0.00000000000E+00 -0.00000000000E+00 -0.45593999997E+02  0.45594000000E+02  0.51100000000E-03 0. -1.
    9900012    2    1    2    0    0 -0.15117509504E+02 -0.24581568451E+02 -0.13561968690E+02  0.59301959232E+02  0.50000027729E+02 0.  0.
        -12    1    1    2    0    0  0.15117509504E+02  0.24581568451E+02  0.13561968690E+02  0.31886040768E+02  0.00000000000E+00 0.  1.
         11    1    3    3    0    0  0.40186843272E+01 -0.22411506148E+02 -0.47536679271E+01  0.23259896616E+02  0.51100000000E-03 0. -1.
        -11    1    3    3    0    0  0.67648955506E+00  0.36673038360E+01  0.83791493448E+01  0.91715265658E+01  0.51100000000E-03 0.  1.
         12    1    3    3    0    0 -0.19812683387E+02 -0.58373661385E+01 -0.17187450108E+02  0.26870536050E+02  0.00000000000E+00 0. -1.
</event>
<event>
 7    1  0.6515090E-012  0.5930191E+02  0.7816164E-02  0.1266605E+00
        -11   -1    0    0    0    0  0.00000000000E+00  0.00000000000E+00  0.45593999997E+02  0.45594000000E+02  0.51100000000E-03 0. -1.
         11   -1    0    0    0    0 -0.00000000000E+00 -0.00000000000E+00 -0.45593999997E+02  0.45594000000E+02  0.51100000000E-03 0.  1.
    9900012    2    1    2    0    0  0.13230872914E+02 -0.28806585222E+02 -0.34419882672E+01  0.59301911600E+02  0.49999940860E+02 0.  0.
        -12    1    1    2    0    0 -0.13230872914E+02  0.28806585222E+02  0.34419882672E+01  0.31886088400E+02  0.00000000000E+00 0.  1.
         11    1    3    3    0    0  0.49802848525E+00  0.28299673005E+01 -0.52252954368E+00  0.29205795108E+01  0.51100000000E-03 0. -1.
        -11    1    3    3    0    0  0.12290828823E+02  0.80109660834E+00 -0.17019599612E+02  0.21008879079E+02  0.51100000000E-03 0.  1.
         12    1    3    3    0    0  0.44201560584E+00 -0.32437649130E+02  0.14100140888E+02  0.35372453010E+02  0.00000000000E+00 0. -1.
</event>
<event>
 7    1  0.6515090E-012  0.5930193E+02  0.7816164E-02  0.1266605E+00
        -11   -1    0    0    0    0  0.00000000000E+00  0.00000000000E+00  0.45593999997E+02  0.45594000000E+02  0.51100000000E-03 0.  1.
         11   -1    0    0    0    0 -0.00000000000E+00 -0.00000000000E+00 -0.45593999997E+02  0.45594000000E+02  0.51100000000E-03 0. -1.
    9900012    2    1    2    0    0  0.28410139607E+02  0.54454489120E+00 -0.14466817823E+02  0.59301931263E+02  0.49999976720E+02 0.  0.
        -12    1    1    2    0    0 -0.28410139607E+02 -0.54454489120E+00  0.14466817823E+02  0.31886068737E+02  0.00000000000E+00 0.  1.
         11    1    3    3    0    0  0.34027024816E+02  0.15264796772E+02 -0.11462750406E+02  0.39015984999E+02  0.51100000000E-03 0. -1.
        -11    1    3    3    0    0  0.37639480851E+01 -0.58147511390E+01 -0.24227070896E+01  0.73381295913E+01  0.51100000000E-03 0.  1.
        -12    1    3    3    0    0 -0.93808332941E+01 -0.89055007420E+01 -0.58136032751E+00  0.12947816673E+02  0.00000000000E+00 0.  1.
</event>
<event>
 7    1  0.6515090E-012  0.5930196E+02  0.7816164E-02  0.1266605E+00
        -11   -1    0    0    0    0  0.00000000000E+00  0.00000000000E+00  0.45593999997E+02  0.45594000000E+02  0.51100000000E-03 0.  1.
         11   -1    0    0    0    0 -0.00000000000E+00 -0.00000000000E+00 -0.45593999997E+02  0.45594000000E+02  0.51100000000E-03 0. -1.
    9900012    2    1    2    0    0 -0.42163641322E+01  0.11337723669E+02 -0.29502509876E+02  0.59301956133E+02  0.50000022076E+02 0.  0.
        -12    1    1    2    0    0  0.42163641322E+01 -0.11337723669E+02  0.29502509876E+02  0.31886043867E+02  0.00000000000E+00 0.  1.
         11    1    3    3    0    0  0.11129582421E+02  0.56612983863E+01 -0.32053997008E+00  0.12490822648E+02  0.51100000000E-03 0. -1.
        -11    1    3    3    0    0 -0.96142217800E+01  0.15848487869E+02 -0.29826771371E+02  0.35117575641E+02  0.51100000000E-03 0.  1.
        -12    1    3    3    0    0 -0.57317247730E+01 -0.10172062586E+02  0.64480146472E+00  0.11693557845E+02  0.00000000000E+00 0.  1.
</event>
<event>
 7    1  0.6515090E-012  0.5930186E+02  0.7816164E-02  0.1266605E+00
        -11   -1    0    0    0    0  0.00000000000E+00  0.00000000000E+00  0.45593999997E+02  0.45594000000E+02  0.51100000000E-03 0. -1.
         11   -1    0    0    0    0 -0.00000000000E+00 -0.00000000000E+00 -0.45593999997E+02  0.45594000000E+02  0.51100000000E-03 0.  1.
    9900012    2    1    2    0    0  0.40740549139E+01  0.13247480612E+02  0.28716409386E+02  0.59301861413E+02  0.49999849330E+02 0.  0.
        -12    1    1    2    0    0 -0.40740549139E+01 -0.13247480612E+02 -0.28716409386E+02  0.31886138587E+02  0.00000000000E+00 0.  1.
         11    1    3    3    0    0 -0.84521385724E+01 -0.51064430296E+01  0.81124249953E+01  0.12779900095E+02  0.51100000000E-03 0. -1.
        -11    1    3    3    0    0  0.19757289563E+02  0.75062849194E+01 -0.11436790360E+01  0.21166076778E+02  0.51100000000E-03 0.  1.
         12    1    3    3    0    0 -0.72310960765E+01  0.10847638722E+02  0.21747663427E+02  0.25355884540E+02  0.00000000000E+00 0. -1.
</event>
<event>
 7    1  0.6515090E-012  0.5930196E+02  0.7816164E-02  0.1266605E+00
        -11   -1    0    0    0    0  0.00000000000E+00  0.00000000000E+00  0.45593999997E+02  0.45594000000E+02  0.51100000000E-03 0. -1.
         11   -1    0    0    0    0 -0.00000000000E+00 -0.00000000000E+00 -0.45593999997E+02  0.45594000000E+02  0.51100000000E-03 0.  1.
    9900012    2    1    2    0    0  0.13655391459E+02 -0.14532785495E+02  0.24880677345E+02  0.59301957986E+02  0.50000025457E+02 0.  0.
        -12    1    1    2    0    0 -0.13655391459E+02  0.14532785495E+02 -0.24880677345E+02  0.31886042014E+02  0.00000000000E+00 0.  1.
         11    1    3    3    0    0 -0.55399251935E+01 -0.14506227624E+01  0.86415851788E+01  0.10366873792E+02  0.51100000000E-03 0. -1.
        -11    1    3    3    0    0  0.20155081245E+02 -0.10329604588E+02  0.28459787562E+02  0.36371520992E+02  0.51100000000E-03 0.  1.
        -12    1    3    3    0    0 -0.95976459200E+00 -0.27525581442E+01 -0.12220695395E+02  0.12563563203E+02  0.00000000000E+00 0.  1.
</event>
<event>
 7    1  0.6515090E-012  0.5930195E+02  0.7816164E-02  0.1266605E+00
        -11   -1    0    0    0    0  0.00000000000E+00  0.00000000000E+00  0.45593999997E+02  0.45594000000E+02  0.51100000000E-03 0.  1.
         11   -1    0    0    0    0 -0.00000000000E+00 -0.00000000000E+00 -0.45593999997E+02  0.45594000000E+02  0.51100000000E-03 0. -1.
    9900012    2    1    2    0    0 -0.14901558598E+01 -0.63600790632E+01 -0.31209758001E+02  0.59301950313E+02  0.50000011462E+02 0.  0.
        -12    1    1    2    0    0  0.14901558598E+01  0.63600790632E+01  0.31209758001E+02  0.31886049687E+02  0.00000000000E+00 0.  1.
         11    1    3    3    0    0 -0.52602048160E+01  0.60501312157E+01 -0.25471897003E+02  0.26703770887E+02  0.51100000000E-03 0. -1.
        -11    1    3    3    0    0 -0.11968043651E+02 -0.36502425461E+01  0.25525383376E+01  0.12770034914E+02  0.51100000000E-03 0.  1.
         12    1    3    3    0    0  0.15738092607E+02 -0.87599677329E+01 -0.82903993363E+01  0.19828144511E+02  0.00000000000E+00 0. -1.
</event>
<event>
 7    1  0.6515090E-012  0.5930194E+02  0.7816164E-02  0.1266605E+00
        -11   -1    0    0    0    0  0.00000000000E+00  0.00000000000E+00  0.45593999997E+02  0.45594000000E+02  0.51100000000E-03 0. -1.
         11   -1    0    0    0    0 -0.00000000000E+00 -0.00000000000E+00 -0.45593999997E+02  0.45594000000E+02  0.51100000000E-03 0.  1.
    9900012    2    1    2    0    0  0.20064736074E+02  0.17806697181E+02  0.17235099422E+02  0.59301941129E+02  0.49999994713E+02 0.  0.
        -12    1    1    2    0    0 -0.20064736074E+02 -0.17806697181E+02 -0.17235099422E+02  0.31886058871E+02  0.00000000000E+00 0.  1.
         11    1    3    3    0    0 -0.63659908027E+00  0.30569708699E+01  0.19357958778E+00  0.31285464047E+01  0.51100000000E-03 0. -1.
        -11    1    3    3    0    0  0.20484642391E+02  0.26485680787E+02 -0.22857568841E+01  0.33560937791E+02  0.51100000000E-03 0.  1.
         12    1    3    3    0    0  0.21669276333E+00 -0.11735954475E+02  0.19327276719E+02  0.22612456933E+02  0.00000000000E+00 0. -1.
</event>
<event>
 7    1  0.6515090E-012  0.5930194E+02  0.7816164E-02  0.1266605E+00
        -11   -1    0    0    0    0  0.00000000000E+00  0.00000000000E+00  0.45593999997E+02  0.45594000000E+02  0.51100000000E-03 0. -1.
         11   -1    0    0    0    0 -0.00000000000E+00 -0.00000000000E+00 -0.45593999997E+02  0.45594000000E+02  0.51100000000E-03 0.  1.
    9900012    2    1    2    0    0 -0.23574137821E+02  0.21461053445E+02  0.63558381117E+00  0.59301941044E+02  0.49999994558E+02 0.  0.
        -12    1    1    2    0    0  0.23574137821E+02 -0.21461053445E+02 -0.63558381117E+00  0.31886058956E+02  0.00000000000E+00 0.  1.
         11    1    3    3    0    0 -0.21612056646E+02  0.32087120754E+02  0.18769282439E+01  0.38732249749E+02  0.51100000000E-03 0. -1.
        -11    1    3    3    0    0 -0.88810525110E+01 -0.14221501062E+01 -0.10325605214E+01  0.90532748836E+01  0.51100000000E-03 0.  1.
         12    1    3    3    0    0  0.69189713360E+01 -0.92039172027E+01 -0.20878391134E+00  0.11516416411E+02  0.00000000000E+00 0. -1.
</event>
<event>
 7    1  0.6515090E-012  0.5930193E+02  0.7816164E-02  0.1266605E+00
        -11   -1    0    0    0    0  0.00000000000E+00  0.00000000000E+00  0.45593999997E+02  0.45594000000E+02  0.51100000000E-03 0.  1.
         11   -1    0    0    0    0 -0.00000000000E+00 -0.00000000000E+00 -0.45593999997E+02  0.45594000000E+02  0.51100000000E-03 0. -1.
    9900012    2    1    2    0    0  0.10099851387E+02  0.21433029474E+02 -0.21338685941E+02  0.59301933009E+02  0.49999979904E+02 0.  0.
        -12    1    1    2    0    0 -0.10099851387E+02 -0.21433029474E+02  0.21338685941E+02  0.31886066991E+02  0.00000000000E+00 0.  1.
         11    1    3    3    0    0 -0.84994154473E+01  0.18114257794E+02 -0.16904927639E+02  0.26194331011E+02  0.51100000000E-03 0. -1.
        -11    1    3    3    0    0  0.87261839744E+01  0.99131258514E+01  0.83783459287E+01  0.15640109708E+02  0.51100000000E-03 0.  1.
        -12    1    3    3    0    0  0.98730828603E+01 -0.65943541714E+01 -0.12812104231E+02  0.17467492291E+02  0.00000000000E+00 0.  1.
</event>
<event>
 7    1  0.6515090E-012  0.5930196E+02  0.7816164E-02  0.1266605E+00
        -11   -1    0    0    0    0  0.00000000000E+00  0.00000000000E+00  0.45593999997E+02  0.45594000000E+02  0.51100000000E-03 0. -1.
         11   -1    0    0    0    0 -0.00000000000E+00 -0.00000000000E+00 -0.45593999997E+02  0.45594000000E+02  0.51100000000E-03 0.  1.
    9900012    2    1    2    0    0 -0.21275548641E+02 -0.14218637727E+02  0.19023695247E+02  0.59301959016E+02  0.50000027334E+02 0.  0.
        -12    1    1    2    0    0  0.21275548641E+02  0.14218637727E+02 -0.19023695247E+02  0.31886040984E+02  0.00000000000E+00 0.  1.
         11    1    3    3    0    0 -0.33916705365E+01 -0.26600050293E+02  0.17410211830E+02  0.31971574576E+02  0.51100000000E-03 0. -1.
        -11    1    3    3    0    0 -0.75443690664E+01  0.26980265373E+01 -0.70946781562E+01  0.10701930209E+02  0.51100000000E-03 0.  1.
        -12    1    3    3    0    0 -0.10339509038E+02  0.96833860280E+01  0.87081615728E+01  0.16628454231E+02  0.00000000000E+00 0.  1.
</event>
<event>
 7    1  0.6515090E-012  0.5930193E+02  0.7816164E-02  0.1266605E+00
        -11   -1    0    0    0    0  0.00000000000E+00  0.00000000000E+00  0.45593999997E+02  0.45594000000E+02  0.51100000000E-03 0. -1.
         11   -1    0    0    0    0 -0.00000000000E+00 -0.00000000000E+00 -0.45593999997E+02  0.45594000000E+02  0.51100000000E-03 0.  1.
    9900012    2    1    2    0    0 -0.31558216194E+02 -0.29238018696E+01 -0.35002504081E+01  0.59301931261E+02  0.49999976717E+02 0.  0.
        -12    1    1    2    0    0  0.31558216194E+02  0.29238018696E+01  0.35002504081E+01  0.31886068739E+02  0.00000000000E+00 0.  1.
         11    1    3    3    0    0 -0.18195769965E+02 -0.15095405794E+02 -0.42766878353E+01  0.24025973025E+02  0.51100000000E-03 0. -1.
        -11    1    3    3    0    0 -0.11803296004E+01  0.65529410597E+01  0.14579291154E+02  0.16027786663E+02  0.51100000000E-03 0.  1.
         12    1    3    3    0    0 -0.12182116629E+02  0.56186628643E+01 -0.13802853727E+02  0.19248171574E+02  0.00000000000E+00 0. -1.
</event>
<event>
 7    1  0.6515090E-012  0.5930195E+02  0.7816164E-02  0.1266605E+00
        -11   -1    0    0    0    0  0.00000000000E+00  0.00000000000E+00  0.45593999997E+02  0.45594000000E+02  0.51100000000E-03 0.  1.
         11   -1    0    0    0    0 -0.00000000000E+00 -0.00000000000E+00 -0.45593999997E+02  0.45594000000E+02  0.51100000000E-03 0. -1.
    9900012    2    1    2    0    0  0.19855042438E+01 -0.28562834354E+02 -0.14033613297E+02  0.59301952336E+02  0.50000015153E+02 0.  0.
        -12    1    1    2    0    0 -0.19855042438E+01  0.28562834354E+02  0.14033613297E+02  0.31886047664E+02  0.00000000000E+00 0.  1.
         11    1    3    3    0    0 -0.19715846033E+02 -0.14975144231E+02 -0.20450154830E+02  0.32111966031E+02  0.51100000000E-03 0. -1.
        -11    1    3    3    0    0  0.76308679261E+01 -0.78191328887E+01  0.71414750180E+00  0.10948926493E+02  0.51100000000E-03 0.  1.
        -12    1    3    3    0    0  0.14070482351E+02 -0.57685572345E+01  0.57023940309E+01  0.16241059813E+02  0.00000000000E+00 0.  1.
</event>
<event>
 7    1  0.6515090E-012  0.5930195E+02  0.7816164E-02  0.1266605E+00
        -11   -1    0    0    0    0  0.00000000000E+00  0.00000000000E+00  0.45593999997E+02  0.45594000000E+02  0.51100000000E-03 0. -1.
         11   -1    0    0    0    0 -0.00000000000E+00 -0.00000000000E+00 -0.45593999997E+02  0.45594000000E+02  0.51100000000E-03 0.  1.
    9900012    2    1    2    0    0 -0.14693773887E+02  0.14050053529E+02  0.24564391614E+02  0.59301947711E+02  0.50000006717E+02 0.  0.
        -12    1    1    2    0    0  0.14693773887E+02 -0.14050053529E+02 -0.24564391614E+02  0.31886052289E+02  0.00000000000E+00 0.  1.
         11    1    3    3    0    0 -0.63406260341E+01 -0.53343318590E+01 -0.56345892458E+01  0.10020340868E+02  0.51100000000E-03 0. -1.
        -11    1    3    3    0    0 -0.67326563755E+01 -0.85952676976E+01  0.85057243186E+01  0.13840326409E+02  0.51100000000E-03 0.  1.
         12    1    3    3    0    0 -0.16204914779E+01  0.27979653086E+02  0.21693256541E+02  0.35441280434E+02  0.00000000000E+00 0. -1.
</event>
<event>
 7    1  0.6515090E-012  0.5930194E+02  0.7816164E-02  0.1266605E+00
        -11   -1    0    0    0    0  0.00000000000E+00  0.00000000000E+00  0.45593999997E+02  0.45594000000E+02  0.51100000000E-03 0.  1.
         11   -1    0    0    0    0 -0.00000000000E+00 -0.00000000000E+00 -0.45593999997E+02  0.45594000000E+02  0.51100000000E-03 0. -1.
    9900012    2    1    2    0    0 -0.18490145345E+01 -0.33393409965E+01 -0.31656764410E+02  0.59301940570E+02  0.49999993695E+02 0.  0.
        -12    1    1    2    0    0  0.18490145345E+01  0.33393409965E+01  0.31656764410E+02  0.31886059430E+02  0.00000000000E+00 0.  1.
         11    1    3    3    0    0  0.10411652676E+02  0.72789547988E+01 -0.10851874720E+02  0.16707749088E+02  0.51100000000E-03 0.  1.
        -11    1    3    3    0    0  0.89943800601E+01 -0.73525908156E+01  0.13782360707E+01  0.11698675109E+02  0.51100000000E-03 0. -1.
         12    1    3    3    0    0 -0.21255047270E+02 -0.32657049796E+01 -0.22183125761E+02  0.30895516374E+02  0.00000000000E+00 0. -1.
</event>
<event>
 7    1  0.6515090E-012  0.5930196E+02  0.7816164E-02  0.1266605E+00
        -11   -1    0    0    0    0  0.00000000000E+00  0.00000000000E+00  0.45593999997E+02  0.45594000000E+02  0.51100000000E-03 0.  1.
         11   -1    0    0    0    0 -0.00000000000E+00 -0.00000000000E+00 -0.45593999997E+02  0.45594000000E+02  0.51100000000E-03 0. -1.
    9900012    2    1    2    0    0 -0.90626994031E+01 -0.58357754782E+01 -0.30008846611E+02  0.59301958056E+02  0.50000025585E+02 0.  0.
        -12    1    1    2    0    0  0.90626994031E+01  0.58357754782E+01  0.30008846611E+02  0.31886041944E+02  0.00000000000E+00 0.  1.
         11    1    3    3    0    0  0.82886779318E+01 -0.11490458412E+02 -0.31520793095E+01  0.14514421126E+02  0.51100000000E-03 0. -1.
        -11    1    3    3    0    0  0.58412985733E+01  0.51937751786E+01 -0.18581256854E+02  0.20158352516E+02  0.51100000000E-03 0.  1.
        -12    1    3    3    0    0 -0.23192675908E+02  0.46090775540E+00 -0.82755104476E+01  0.24629184414E+02  0.00000000000E+00 0.  1.
</event>
<event>
 7    1  0.6515090E-012  0.5930196E+02  0.7816164E-02  0.1266605E+00
        -11   -1    0    0    0    0  0.00000000000E+00  0.00000000000E+00  0.45593999997E+02  0.45594000000E+02  0.51100000000E-03 0. -1.
         11   -1    0    0    0    0 -0.00000000000E+00 -0.00000000000E+00 -0.45593999997E+02  0.45594000000E+02  0.51100000000E-03 0.  1.
    9900012    2    1    2    0    0 -0.20439230940E+02  0.12985555759E+02  0.20744465296E+02  0.59301958223E+02  0.50000025889E+02 0.  0.
        -12    1    1    2    0    0  0.20439230940E+02 -0.12985555759E+02 -0.20744465296E+02  0.31886041777E+02  0.00000000000E+00 0.  1.
         11    1    3    3    0    0 -0.55045883443E+00 -0.87040453575E+01  0.47190266190E+01  0.99162807042E+01  0.51100000000E-03 0. -1.
        -11    1    3    3    0    0  0.15824771393E+01 -0.52383503394E+01  0.13832656811E+02  0.14875716550E+02  0.51100000000E-03 0.  1.
        -12    1    3    3    0    0 -0.21471249245E+02  0.26927951456E+02  0.21927818658E+01  0.34509960968E+02  0.00000000000E+00 0.  1.
</event>
<event>
 7    1  0.6515090E-012  0.5930195E+02  0.7816164E-02  0.1266605E+00
        -11   -1    0    0    0    0  0.00000000000E+00  0.00000000000E+00  0.45593999997E+02  0.45594000000E+02  0.51100000000E-03 0.  1.
         11   -1    0    0    0    0 -0.00000000000E+00 -0.00000000000E+00 -0.45593999997E+02  0.45594000000E+02  0.51100000000E-03 0. -1.
    9900012    2    1    2    0    0 -0.10548847882E+02  0.30068650065E+02 -0.11482286963E+01  0.59301947602E+02  0.50000006518E+02 0.  0.
        -12    1    1    2    0    0  0.10548847882E+02 -0.30068650065E+02  0.11482286963E+01  0.31886052398E+02  0.00000000000E+00 0.  1.
         11    1    3    3    0    0 -0.38255136917E+00  0.14709125930E+02  0.64066759080E+01  0.16048371495E+02  0.51100000000E-03 0. -1.
        -11    1    3    3    0    0 -0.13705115735E+02  0.19698819008E+01  0.12652155772E+02  0.18756003784E+02  0.51100000000E-03 0.  1.
         12    1    3    3    0    0  0.35388192225E+01  0.13389642234E+02 -0.20207060376E+02  0.24497572323E+02  0.00000000000E+00 0. -1.
</event>
<event>
 7    1  0.6515090E-012  0.5930157E+02  0.7816164E-02  0.1266606E+00
        -11   -1    0    0    0    0  0.00000000000E+00  0.00000000000E+00  0.45593999997E+02  0.45594000000E+02  0.51100000000E-03 0.  1.
         11   -1    0    0    0    0 -0.00000000000E+00 -0.00000000000E+00 -0.45593999997E+02  0.45594000000E+02  0.51100000000E-03 0. -1.
    9900012    2    1    2    0    0 -0.15556053868E+02 -0.17761129137E+02 -0.21431193991E+02  0.59301567210E+02  0.49999312771E+02 0.  0.
        -12    1    1    2    0    0  0.15556053868E+02  0.17761129137E+02  0.21431193991E+02  0.31886432790E+02  0.00000000000E+00 0.  1.
         11    1    3    3    0    0 -0.23390913806E+02 -0.12870091099E+01 -0.23901877037E+02  0.33467760118E+02  0.51100000000E-03 0. -1.
        -11    1    3    3    0    0  0.27420226217E+01  0.38490361054E+01  0.10014182900E+01  0.48307976413E+01  0.51100000000E-03 0.  1.
        -12    1    3    3    0    0  0.50928373166E+01 -0.20323156132E+02  0.14692647555E+01  0.21003009452E+02  0.00000000000E+00 0.  1.
</event>
<event>
 7    1  0.6515090E-012  0.5930194E+02  0.7816164E-02  0.1266605E+00
        -11   -1    0    0    0    0  0.00000000000E+00  0.00000000000E+00  0.45593999997E+02  0.45594000000E+02  0.51100000000E-03 0.  1.
         11   -1    0    0    0    0 -0.00000000000E+00 -0.00000000000E+00 -0.45593999997E+02  0.45594000000E+02  0.51100000000E-03 0. -1.
    9900012    2    1    2    0    0  0.33160209716E+01 -0.21344151316E+02 -0.23455326127E+02  0.59301935423E+02  0.49999984307E+02 0.  0.
        -12    1    1    2    0    0 -0.33160209716E+01  0.21344151316E+02  0.23455326127E+02  0.31886064577E+02  0.00000000000E+00 0.  1.
         11    1    3    3    0    0  0.12822018156E+02 -0.25506327075E+02 -0.24806055737E+01  0.28655370783E+02  0.51100000000E-03 0.  1.
        -11    1    3    3    0    0  0.22717866559E+01 -0.53579189060E+01 -0.11200061268E+02  0.12621793941E+02  0.51100000000E-03 0. -1.
         12    1    3    3    0    0 -0.11777783840E+02  0.95200946649E+01 -0.97746592851E+01  0.18024770699E+02  0.00000000000E+00 0. -1.
</event>
<event>
 7    1  0.6515090E-012  0.5930206E+02  0.7816164E-02  0.1266604E+00
        -11   -1    0    0    0    0  0.00000000000E+00  0.00000000000E+00  0.45593999997E+02  0.45594000000E+02  0.51100000000E-03 0.  1.
         11   -1    0    0    0    0 -0.00000000000E+00 -0.00000000000E+00 -0.45593999997E+02  0.45594000000E+02  0.51100000000E-03 0. -1.
    9900012    2    1    2    0    0 -0.98966240835E+01  0.21127522341E+02 -0.21734712223E+02  0.59302061345E+02  0.50000213958E+02 0.  0.
        -12    1    1    2    0    0  0.98966240835E+01 -0.21127522341E+02  0.21734712223E+02  0.31885938655E+02  0.00000000000E+00 0.  1.
         11    1    3    3    0    0 -0.65210478212E+00  0.19680270206E+02 -0.22393653300E+01  0.19817997713E+02  0.51100000000E-03 0. -1.
        -11    1    3    3    0    0  0.12434331756E+02  0.81325394368E+00 -0.51634435171E+01  0.13488333381E+02  0.51100000000E-03 0.  1.
         12    1    3    3    0    0 -0.21678851057E+02  0.63399819138E+00 -0.14331903376E+02  0.25995730250E+02  0.00000000000E+00 0. -1.
</event>
<event>
 7    1  0.6515090E-012  0.5930190E+02  0.7816164E-02  0.1266605E+00
        -11   -1    0    0    0    0  0.00000000000E+00  0.00000000000E+00  0.45593999997E+02  0.45594000000E+02  0.51100000000E-03 0.  1.
         11   -1    0    0    0    0 -0.00000000000E+00 -0.00000000000E+00 -0.45593999997E+02  0.45594000000E+02  0.51100000000E-03 0. -1.
    9900012    2    1    2    0    0 -0.14954224847E+02 -0.18609655342E+02 -0.21137060661E+02  0.59301898856E+02  0.49999917618E+02 0.  0.
        -12    1    1    2    0    0  0.14954224847E+02  0.18609655342E+02  0.21137060661E+02  0.31886101144E+02  0.00000000000E+00 0.  1.
         11    1    3    3    0    0  0.88294988143E+01  0.71073326805E+00  0.41270919254E+00  0.88676671244E+01  0.51100000000E-03 0. -1.
        -11    1    3    3    0    0 -0.23032438233E+02 -0.20379365210E+02 -0.19760244393E+01  0.30817469237E+02  0.51100000000E-03 0.  1.
         12    1    3    3    0    0 -0.75128542819E+00  0.10589765994E+01 -0.19573745415E+02  0.19616762495E+02  0.00000000000E+00 0. -1.
</event>
<event>
 7    1  0.6515090E-012  0.5930192E+02  0.7816164E-02  0.1266605E+00
        -11   -1    0    0    0    0  0.00000000000E+00  0.00000000000E+00  0.45593999997E+02  0.45594000000E+02  0.51100000000E-03 0.  1.
         11   -1    0    0    0    0 -0.00000000000E+00 -0.00000000000E+00 -0.45593999997E+02  0.45594000000E+02  0.51100000000E-03 0. -1.
    9900012    2    1    2    0    0  0.15779180258E+01 -0.11019118494E+01 -0.31827941276E+02  0.59301923401E+02  0.49999962382E+02 0.  0.
        -12    1    1    2    0    0 -0.15779180258E+01  0.11019118494E+01  0.31827941276E+02  0.31886076599E+02  0.00000000000E+00 0.  1.
         11    1    3    3    0    0 -0.14371416303E+01 -0.11237528602E+01 -0.11219746792E+02  0.11367097910E+02  0.51100000000E-03 0. -1.
        -11    1    3    3    0    0 -0.62310196742E+01 -0.16245617951E+02 -0.23247855900E+02  0.29038052845E+02  0.51100000000E-03 0.  1.
         12    1    3    3    0    0  0.92460793303E+01  0.16267458962E+02  0.26396614166E+01  0.18896772647E+02  0.00000000000E+00 0. -1.
</event>
<event>
 7    1  0.6515090E-012  0.5930190E+02  0.7816164E-02  0.1266605E+00
        -11   -1    0    0    0    0  0.00000000000E+00  0.00000000000E+00  0.45593999997E+02  0.45594000000E+02  0.51100000000E-03 0.  1.
         11   -1    0    0    0    0 -0.00000000000E+00 -0.00000000000E+00 -0.45593999997E+02  0.45594000000E+02  0.51100000000E-03 0. -1.
    9900012    2    1    2    0    0  0.30823073056E+02  0.52617565883E+01 -0.62430078248E+01  0.59301904885E+02  0.49999928613E+02 0.  0.
        -12    1    1    2    0    0 -0.30823073056E+02 -0.52617565883E+01  0.62430078248E+01  0.31886095115E+02  0.00000000000E+00 0.  1.
         11    1    3    3    0    0  0.85623194186E+01 -0.84249013426E+01  0.10537334656E+01  0.12058301329E+02  0.51100000000E-03 0.  1.
        -11    1    3    3    0    0  0.10547083456E+02  0.26874298308E+02 -0.64674444661E+01  0.29585413925E+02  0.51100000000E-03 0. -1.
         12    1    3    3    0    0  0.11713670181E+02 -0.13187640377E+02 -0.82929682435E+00  0.17658189631E+02  0.00000000000E+00 0. -1.
</event>
<event>
 7    1  0.6515090E-012  0.5930193E+02  0.7816164E-02  0.1266605E+00
        -11   -1    0    0    0    0  0.00000000000E+00  0.00000000000E+00  0.45593999997E+02  0.45594000000E+02  0.51100000000E-03 0.  1.
         11   -1    0    0    0    0 -0.00000000000E+00 -0.00000000000E+00 -0.45593999997E+02  0.45594000000E+02  0.51100000000E-03 0. -1.
    9900012    2    1    2    0    0 -0.55080857705E+01  0.28793350944E+02  0.12542932240E+02  0.59301933817E+02  0.49999981378E+02 0.  0.
        -12    1    1    2    0    0  0.55080857705E+01 -0.28793350944E+02 -0.12542932240E+02  0.31886066183E+02  0.00000000000E+00 0.  1.
         11    1    3    3    0    0  0.10353511291E+02  0.12807809767E+01 -0.10441020036E+02  0.14759759334E+02  0.51100000000E-03 0. -1.
        -11    1    3    3    0    0  0.22654745106E+01 -0.13189389223E+01 -0.10868886896E+01  0.28378340197E+01  0.51100000000E-03 0.  1.
        -12    1    3    3    0    0 -0.18127071572E+02  0.28831508890E+02  0.24070840965E+02  0.41704340463E+02  0.00000000000E+00 0.  1.
</event>
<event>
 7    1  0.6515090E-012  0.5930195E+02  0.7816164E-02  0.1266605E+00
        -11   -1    0    0    0    0  0.00000000000E+00  0.00000000000E+00  0.45593999997E+02  0.45594000000E+02  0.51100000000E-03 0.  1.
         11   -1    0    0    0    0 -0.00000000000E+00 -0.00000000000E+00 -0.45593999997E+02  0.45594000000E+02  0.51100000000E-03 0. -1.
    9900012    2    1    2    0    0 -0.10022198265E+02 -0.29884853180E+02 -0.48136591430E+01  0.59301949414E+02  0.50000009823E+02 0.  0.
        -12    1    1    2    0    0  0.10022198265E+02  0.29884853180E+02  0.48136591430E+01  0.31886050586E+02  0.00000000000E+00 0.  1.
         11    1    3    3    0    0 -0.85026747409E+01 -0.58791675180E+01 -0.67096502649E+01  0.12323939930E+02  0.51100000000E-03 0. -1.
        -11    1    3    3    0    0 -0.20332400580E+02 -0.10262642389E+02 -0.35536025530E+01  0.23051169895E+02  0.51100000000E-03 0.  1.
        -12    1    3    3    0    0  0.18812877056E+02 -0.13743043273E+02  0.54495936749E+01  0.23926839589E+02  0.00000000000E+00 0.  1.
</event>
<event>
 7    1  0.6515090E-012  0.5930186E+02  0.7816164E-02  0.1266605E+00
        -11   -1    0    0    0    0  0.00000000000E+00  0.00000000000E+00  0.45593999997E+02  0.45594000000E+02  0.51100000000E-03 0. -1.
         11   -1    0    0    0    0 -0.00000000000E+00 -0.00000000000E+00 -0.45593999997E+02  0.45594000000E+02  0.51100000000E-03 0.  1.
    9900012    2    1    2    0    0  0.20005275132E+02 -0.94583805440E-02  0.24829715056E+02  0.59301860812E+02  0.49999848235E+02 0.  0.
        -12    1    1    2    0    0 -0.20005275132E+02  0.94583805440E-02 -0.24829715056E+02  0.31886139188E+02  0.00000000000E+00 0.  1.
         11    1    3    3    0    0  0.14184786211E+02  0.14340807417E+02 -0.27815707901E+01  0.20361828345E+02  0.51100000000E-03 0.  1.
        -11    1    3    3    0    0  0.12622646933E+02 -0.18882696277E+01  0.16781422711E+02  0.21083475194E+02  0.51100000000E-03 0. -1.
         12    1    3    3    0    0 -0.68021580126E+01 -0.12461996169E+02  0.10829863135E+02  0.17856557274E+02  0.00000000000E+00 0. -1.
</event>
<event>
 7    1  0.6515090E-012  0.5930194E+02  0.7816164E-02  0.1266605E+00
        -11   -1    0    0    0    0  0.00000000000E+00  0.00000000000E+00  0.45593999997E+02  0.45594000000E+02  0.51100000000E-03 0.  1.
         11   -1    0    0    0    0 -0.00000000000E+00 -0.00000000000E+00 -0.45593999997E+02  0.45594000000E+02  0.51100000000E-03 0. -1.
    9900012    2    1    2    0    0 -0.13543520972E+02 -0.22558135628E+01 -0.28778548957E+02  0.59301944502E+02  0.50000000865E+02 0.  0.
        -12    1    1    2    0    0  0.13543520972E+02  0.22558135628E+01  0.28778548957E+02  0.31886055498E+02  0.00000000000E+00 0.  1.
         11    1    3    3    0    0  0.35330303489E+01 -0.43258766224E+01 -0.68923129145E+01  0.88712732779E+01  0.51100000000E-03 0. -1.
        -11    1    3    3    0    0  0.11972090111E+02  0.43311327464E+01 -0.16433703404E+02  0.20788368390E+02  0.51100000000E-03 0.  1.
         12    1    3    3    0    0 -0.29048641431E+02 -0.22610696867E+01 -0.54525326381E+01  0.29642302834E+02  0.00000000000E+00 0. -1.
</event>
<event>
 7    1  0.6515090E-012  0.5930197E+02  0.7816164E-02  0.1266605E+00
        -11   -1    0    0    0    0  0.00000000000E+00  0.00000000000E+00  0.45593999997E+02  0.45594000000E+02  0.51100000000E-03 0.  1.
         11   -1    0    0    0    0 -0.00000000000E+00 -0.00000000000E+00 -0.45593999997E+02  0.45594000000E+02  0.51100000000E-03 0. -1.
    9900012    2    1    2    0    0 -0.26746773776E+02 -0.12588494522E+02 -0.11952354848E+02  0.59301970329E+02  0.50000047968E+02 0.  0.
        -12    1    1    2    0    0  0.26746773776E+02  0.12588494522E+02  0.11952354848E+02  0.31886029671E+02  0.00000000000E+00 0.  1.
         11    1    3    3    0    0  0.56642396548E+01  0.87837947613E+01 -0.57624477104E+01  0.11935010061E+02  0.51100000000E-03 0. -1.
        -11    1    3    3    0    0  0.45636416880E+00 -0.88298974479E+01  0.53609340916E+01  0.10339969622E+02  0.51100000000E-03 0.  1.
         12    1    3    3    0    0 -0.32867377600E+02 -0.12542391836E+02 -0.11550841229E+02  0.37026990646E+02  0.00000000000E+00 0. -1.
</event>
<event>
 7    1  0.6515090E-012  0.5930183E+02  0.7816164E-02  0.1266605E+00
        -11   -1    0    0    0    0  0.00000000000E+00  0.00000000000E+00  0.45593999997E+02  0.45594000000E+02  0.51100000000E-03 0. -1.
         11   -1    0    0    0    0 -0.00000000000E+00 -0.00000000000E+00 -0.45593999997E+02  0.45594000000E+02  0.51100000000E-03 0.  1.
    9900012    2    1    2    0    0 -0.31312447768E+02  0.56094613708E+01  0.21890955575E+01  0.59301834012E+02  0.49999799357E+02 0.  0.
        -12    1    1    2    0    0  0.31312447768E+02 -0.56094613708E+01 -0.21890955575E+01  0.31886165988E+02  0.00000000000E+00 0.  1.
         11    1    3    3    0    0 -0.62407832063E+01  0.13071322957E+02  0.17985322070E+02  0.23092827221E+02  0.51100000000E-03 0. -1.
        -11    1    3    3    0    0 -0.94886511186E+01  0.41982152234E+01 -0.12863814662E+02  0.16526864162E+02  0.51100000000E-03 0.  1.
        -12    1    3    3    0    0 -0.15583013443E+02 -0.11660076809E+02 -0.29324118497E+01  0.19682142628E+02  0.00000000000E+00 0.  1.
</event>
<event>
 7    1  0.6515090E-012  0.5930193E+02  0.7816164E-02  0.1266605E+00
        -11   -1    0    0    0    0  0.00000000000E+00  0.00000000000E+00  0.45593999997E+02  0.45594000000E+02  0.51100000000E-03 0.  1.
         11   -1    0    0    0    0 -0.00000000000E+00 -0.00000000000E+00 -0.45593999997E+02  0.45594000000E+02  0.51100000000E-03 0. -1.
    9900012    2    1    2    0    0 -0.89498989552E+01 -0.45600369071E+01 -0.30262627654E+02  0.59301933131E+02  0.49999980126E+02 0.  0.
        -12    1    1    2    0    0  0.89498989552E+01  0.45600369071E+01  0.30262627654E+02  0.31886066869E+02  0.00000000000E+00 0.  1.
         11    1    3    3    0    0 -0.20845432878E+01  0.16503190919E+02 -0.18644112977E+02  0.24986067722E+02  0.51100000000E-03 0. -1.
        -11    1    3    3    0    0 -0.30135043050E+01 -0.13342401149E+02 -0.18689514464E+02  0.23160285572E+02  0.51100000000E-03 0.  1.
        -12    1    3    3    0    0 -0.38518513624E+01 -0.77208266773E+01  0.70709997876E+01  0.11155579837E+02  0.00000000000E+00 0.  1.
</event>
<event>
 7    1  0.6515090E-012  0.5930192E+02  0.7816164E-02  0.1266605E+00
        -11   -1    0    0    0    0  0.00000000000E+00  0.00000000000E+00  0.45593999997E+02  0.45594000000E+02  0.51100000000E-03 0.  1.
         11   -1    0    0    0    0 -0.00000000000E+00 -0.00000000000E+00 -0.45593999997E+02  0.45594000000E+02  0.51100000000E-03 0. -1.
    9900012    2    1    2    0    0  0.35913461556E+01  0.28029508995E+02 -0.14770614536E+02  0.59301918468E+02  0.49999953384E+02 0.  0.
        -12    1    1    2    0    0 -0.35913461556E+01 -0.28029508995E+02  0.14770614536E+02  0.31886081532E+02  0.00000000000E+00 0.  1.
         11    1    3    3    0    0 -0.10110042595E+02  0.13030705559E+02 -0.17285972629E+02  0.23891778893E+02  0.51100000000E-03 0. -1.
        -11    1    3    3    0    0  0.84697239758E+01 -0.61954112238E+01 -0.58708303419E+01  0.12024391611E+02  0.51100000000E-03 0.  1.
        -12    1    3    3    0    0  0.52316647748E+01  0.21194214659E+02  0.83861884349E+01  0.23385747963E+02  0.00000000000E+00 0.  1.
</event>
<event>
 7    1  0.6515090E-012  0.5930193E+02  0.7816164E-02  0.1266605E+00
        -11   -1    0    0    0    0  0.00000000000E+00  0.00000000000E+00  0.45593999997E+02  0.45594000000E+02  0.51100000000E-03 0.  1.
         11   -1    0    0    0    0 -0.00000000000E+00 -0.00000000000E+00 -0.45593999997E+02  0.45594000000E+02  0.51100000000E-03 0. -1.
    9900012    2    1    2    0    0  0.24798735417E+02 -0.12540111611E+02  0.15636174114E+02  0.59301927517E+02  0.49999969888E+02 0.  0.
        -12    1    1    2    0    0 -0.24798735417E+02  0.12540111611E+02 -0.15636174114E+02  0.31886072483E+02  0.00000000000E+00 0.  1.
         11    1    3    3    0    0  0.26166999997E+02 -0.76742714730E+00  0.10080059143E+02  0.28051888098E+02  0.51100000000E-03 0. -1.
        -11    1    3    3    0    0  0.47030991471E+01  0.84319640517E+01  0.17065830117E+01  0.98045696077E+01  0.51100000000E-03 0.  1.
        -12    1    3    3    0    0 -0.60713637274E+01 -0.20204648515E+02  0.38495319593E+01  0.21445469811E+02  0.00000000000E+00 0.  1.
</event>
<event>
 7    1  0.6515090E-012  0.5930197E+02  0.7816164E-02  0.1266605E+00
        -11   -1    0    0    0    0  0.00000000000E+00  0.00000000000E+00  0.45593999997E+02  0.45594000000E+02  0.51100000000E-03 0. -1.
         11   -1    0    0    0    0 -0.00000000000E+00 -0.00000000000E+00 -0.45593999997E+02  0.45594000000E+02  0.51100000000E-03 0.  1.
    9900012    2    1    2    0    0  0.18535281149E+02  0.55552255514E+01  0.25343673233E+02  0.59301969342E+02  0.50000046167E+02 0.  0.
        -12    1    1    2    0    0 -0.18535281149E+02 -0.55552255514E+01 -0.25343673233E+02  0.31886030658E+02  0.00000000000E+00 0.  1.
         11    1    3    3    0    0 -0.47859619841E+01 -0.15611077738E+02  0.16222357547E+02  0.23016864793E+02  0.51100000000E-03 0.  1.
        -11    1    3    3    0    0 -0.86735661135E+00  0.25785932400E+00  0.37583883525E+01  0.38657835159E+01  0.51100000000E-03 0. -1.
        -12    1    3    3    0    0  0.24188599744E+02  0.20908443966E+02  0.53629273331E+01  0.32419321033E+02  0.00000000000E+00 0.  1.
</event>
<event>
 7    1  0.6515090E-012  0.5930194E+02  0.7816164E-02  0.1266605E+00
        -11   -1    0    0    0    0  0.00000000000E+00  0.00000000000E+00  0.45593999997E+02  0.45594000000E+02  0.51100000000E-03 0.  1.
         11   -1    0    0    0    0 -0.00000000000E+00 -0.00000000000E+00 -0.45593999997E+02  0.45594000000E+02  0.51100000000E-03 0. -1.
    9900012    2    1    2    0    0  0.24476486936E+02 -0.18048483150E+02  0.95851306354E+01  0.59301939001E+02  0.49999990832E+02 0.  0.
        -12    1    1    2    0    0 -0.24476486936E+02  0.18048483150E+02 -0.95851306354E+01  0.31886060999E+02  0.00000000000E+00 0.  1.
         11    1    3    3    0    0  0.23082565400E+02 -0.17259016219E+02 -0.46140423301E+01  0.29188488367E+02  0.51100000000E-03 0. -1.
        -11    1    3    3    0    0 -0.80938163136E+01  0.33814842464E+01 -0.36280662029E+01  0.94924792790E+01  0.51100000000E-03 0.  1.
        -12    1    3    3    0    0  0.94877378500E+01 -0.41709511783E+01  0.17827239168E+02  0.20620971355E+02  0.00000000000E+00 0.  1.
</event>
<event>
 7    1  0.6515090E-012  0.5930194E+02  0.7816164E-02  0.1266605E+00
        -11   -1    0    0    0    0  0.00000000000E+00  0.00000000000E+00  0.45593999997E+02  0.45594000000E+02  0.51100000000E-03 0.  1.
         11   -1    0    0    0    0 -0.00000000000E+00 -0.00000000000E+00 -0.45593999997E+02  0.45594000000E+02  0.51100000000E-03 0. -1.
    9900012    2    1    2    0    0  0.52529336924E+01 -0.27134917653E+02 -0.15900436362E+02  0.59301938078E+02  0.49999989149E+02 0.  0.
        -12    1    1    2    0    0 -0.52529336924E+01  0.27134917653E+02  0.15900436362E+02  0.31886061922E+02  0.00000000000E+00 0.  1.
         11    1    3    3    0    0  0.50243113189E+01 -0.12428610343E+02 -0.42307154893E+00  0.13412421447E+02  0.51100000000E-03 0. -1.
        -11    1    3    3    0    0  0.19591142769E+02 -0.18417346849E+01 -0.45201966548E+01  0.20190023272E+02  0.51100000000E-03 0.  1.
         12    1    3    3    0    0 -0.19362520395E+02 -0.12864572625E+02 -0.10957168158E+02  0.25699493360E+02  0.00000000000E+00 0. -1.
</event>
<event>
 7    1  0.6515090E-012  0.5930197E+02  0.7816164E-02  0.1266605E+00
        -11   -1    0    0    0    0  0.00000000000E+00  0.00000000000E+00  0.45593999997E+02  0.45594000000E+02  0.51100000000E-03 0.  1.
         11   -1    0    0    0    0 -0.00000000000E+00 -0.00000000000E+00 -0.45593999997E+02  0.45594000000E+02  0.51100000000E-03 0. -1.
    9900012    2    1    2    0    0 -0.28440043864E+02 -0.14258405651E+02 -0.21402392110E+01  0.59301970919E+02  0.50000049042E+02 0.  0.
        -12    1    1    2    0    0  0.28440043864E+02  0.14258405651E+02  0.21402392110E+01  0.31886029081E+02  0.00000000000E+00 0.  1.
         11    1    3    3    0    0 -0.36271423480E+01 -0.17903000358E+02 -0.11319597390E+00  0.18267085072E+02  0.51100000000E-03 0. -1.
        -11    1    3    3    0    0 -0.19817125684E+02 -0.61874804416E+01 -0.13780101653E+02  0.24917756449E+02  0.51100000000E-03 0.  1.
        -12    1    3    3    0    0 -0.49957758321E+01  0.98320751493E+01  0.11753058416E+02  0.16117129398E+02  0.00000000000E+00 0.  1.
</event>
<event>
 7    1  0.6515090E-012  0.5930193E+02  0.7816164E-02  0.1266605E+00
        -11   -1    0    0    0    0  0.00000000000E+00  0.00000000000E+00  0.45593999997E+02  0.45594000000E+02  0.51100000000E-03 0. -1.
         11   -1    0    0    0    0 -0.00000000000E+00 -0.00000000000E+00 -0.45593999997E+02  0.45594000000E+02  0.51100000000E-03 0.  1.
    9900012    2    1    2    0    0 -0.86766745103E+01  0.30408880559E+02  0.40910227954E+01  0.59301934628E+02  0.49999982857E+02 0.  0.
        -12    1    1    2    0    0  0.86766745103E+01 -0.30408880559E+02 -0.40910227954E+01  0.31886065372E+02  0.00000000000E+00 0.  1.
         11    1    3    3    0    0 -0.15253334059E+02  0.20305493628E+02  0.98370160257E+01  0.27234980374E+02  0.51100000000E-03 0. -1.
        -11    1    3    3    0    0  0.71250263650E+01  0.25632127554E+00  0.10719382179E+02  0.12873882703E+02  0.51100000000E-03 0.  1.
        -12    1    3    3    0    0 -0.54836681589E+00  0.98470656558E+01 -0.16465375409E+02  0.19193071551E+02  0.00000000000E+00 0.  1.
</event>
<event>
 7    1  0.6515090E-012  0.5930195E+02  0.7816164E-02  0.1266605E+00
        -11   -1    0    0    0    0  0.00000000000E+00  0.00000000000E+00  0.45593999997E+02  0.45594000000E+02  0.51100000000E-03 0. -1.
         11   -1    0    0    0    0 -0.00000000000E+00 -0.00000000000E+00 -0.45593999997E+02  0.45594000000E+02  0.51100000000E-03 0.  1.
    9900012    2    1    2    0    0 -0.15591184934E+02 -0.13621859518E+02  0.24250365123E+02  0.59301947987E+02  0.50000007221E+02 0.  0.
        -12    1    1    2    0    0  0.15591184934E+02  0.13621859518E+02 -0.24250365123E+02  0.31886052013E+02  0.00000000000E+00 0.  1.
         11    1    3    3    0    0 -0.77409168461E+01  0.83445071300E+01  0.43727578561E+01  0.12193178601E+02  0.51100000000E-03 0. -1.
        -11    1    3    3    0    0  0.40731767793E+01 -0.14486390049E+01 -0.88486751591E+01  0.98482676839E+01  0.51100000000E-03 0.  1.
         12    1    3    3    0    0 -0.11923444868E+02 -0.20517727643E+02  0.28726282426E+02  0.37260501703E+02  0.00000000000E+00 0. -1.
</event>
<event>
 7    1  0.6515090E-012  0.5930195E+02  0.7816164E-02  0.1266605E+00
        -11   -1    0    0    0    0  0.00000000000E+00  0.00000000000E+00  0.45593999997E+02  0.45594000000E+02  0.51100000000E-03 0. -1.
         11   -1    0    0    0    0 -0.00000000000E+00 -0.00000000000E+00 -0.45593999997E+02  0.45594000000E+02  0.51100000000E-03 0.  1.
    9900012    2    1    2    0    0  0.31238615975E+02 -0.48010857911E+01  0.42212396453E+01  0.59301946356E+02  0.50000004247E+02 0.  0.
        -12    1    1    2    0    0 -0.31238615975E+02  0.48010857911E+01 -0.42212396453E+01  0.31886053644E+02  0.00000000000E+00 0.  1.
         11    1    3    3    0    0  0.21595774877E+02  0.10997011017E+02 -0.21842635714E+01  0.24332750594E+02  0.51100000000E-03 0. -1.
        -11    1    3    3    0    0  0.75596013906E+01  0.70518206173E+01 -0.20067065054E+01  0.10531031216E+02  0.51100000000E-03 0.  1.
         12    1    3    3    0    0  0.20832397077E+01 -0.22849917425E+02  0.84122097221E+01  0.24438164547E+02  0.00000000000E+00 0. -1.
</event>
<event>
 7    1  0.6515090E-012  0.5930191E+02  0.7816164E-02  0.1266605E+00
        -11   -1    0    0    0    0  0.00000000000E+00  0.00000000000E+00  0.45593999997E+02  0.45594000000E+02  0.51100000000E-03 0.  1.
         11   -1    0    0    0    0 -0.00000000000E+00 -0.00000000000E+00 -0.45593999997E+02  0.45594000000E+02  0.51100000000E-03 0. -1.
    9900012    2    1    2    0    0 -0.30305013519E+02  0.66467767133E+01  0.73586113265E+01  0.59301911408E+02  0.49999940509E+02 0.  0.
        -12    1    1    2    0    0  0.30305013519E+02 -0.66467767133E+01 -0.73586113265E+01  0.31886088592E+02  0.00000000000E+00 0.  1.
         11    1    3    3    0    0 -0.13846907338E+02 -0.12359786875E+02  0.18368839022E+02  0.26113510329E+02  0.51100000000E-03 0. -1.
        -11    1    3    3    0    0  0.18231267849E+01 -0.12916316583E+01  0.19382885071E+01  0.29578820484E+01  0.51100000000E-03 0.  1.
        -12    1    3    3    0    0 -0.18281232966E+02  0.20298195246E+02 -0.12948516203E+02  0.30230519031E+02  0.00000000000E+00 0.  1.
</event>
<event>
 7    1  0.6515090E-012  0.5930194E+02  0.7816164E-02  0.1266605E+00
        -11   -1    0    0    0    0  0.00000000000E+00  0.00000000000E+00  0.45593999997E+02  0.45594000000E+02  0.51100000000E-03 0.  1.
         11   -1    0    0    0    0 -0.00000000000E+00 -0.00000000000E+00 -0.45593999997E+02  0.45594000000E+02  0.51100000000E-03 0. -1.
    9900012    2    1    2    0    0 -0.31076469373E+02  0.69915544360E+01  0.14464426677E+01  0.59301937550E+02  0.49999988187E+02 0.  0.
        -12    1    1    2    0    0  0.31076469373E+02 -0.69915544360E+01 -0.14464426677E+01  0.31886062450E+02  0.00000000000E+00 0.  1.
         11    1    3    3    0    0  0.91302245135E+00  0.17148855064E+01  0.51877647574E+01  0.55396160278E+01  0.51100000000E-03 0. -1.
        -11    1    3    3    0    0  0.99856744763E+01  0.48802478999E+01  0.23082951553E+01  0.11351596412E+02  0.51100000000E-03 0.  1.
         12    1    3    3    0    0 -0.41975166301E+02  0.39642102968E+00 -0.60496172450E+01  0.42410725111E+02  0.00000000000E+00 0. -1.
</event>
<event>
 7    1  0.6515090E-012  0.5930192E+02  0.7816164E-02  0.1266605E+00
        -11   -1    0    0    0    0  0.00000000000E+00  0.00000000000E+00  0.45593999997E+02  0.45594000000E+02  0.51100000000E-03 0. -1.
         11   -1    0    0    0    0 -0.00000000000E+00 -0.00000000000E+00 -0.45593999997E+02  0.45594000000E+02  0.51100000000E-03 0.  1.
    9900012    2    1    2    0    0  0.13006670552E+02 -0.23153608749E+02  0.17648193899E+02  0.59301924279E+02  0.49999963983E+02 0.  0.
        -12    1    1    2    0    0 -0.13006670552E+02  0.23153608749E+02 -0.17648193899E+02  0.31886075721E+02  0.00000000000E+00 0.  1.
         11    1    3    3    0    0 -0.97047326851E+01 -0.21168041379E+02 -0.44066766003E+00  0.23290813652E+02  0.51100000000E-03 0. -1.
        -11    1    3    3    0    0  0.78510902169E+01  0.48288918291E+00 -0.43470471709E+01  0.89871919376E+01  0.51100000000E-03 0.  1.
         12    1    3    3    0    0  0.14860313021E+02 -0.24684565534E+01  0.22435908730E+02  0.27023918690E+02  0.00000000000E+00 0. -1.
</event>
<event>
 7    1  0.6515090E-012  0.5930193E+02  0.7816164E-02  0.1266605E+00
        -11   -1    0    0    0    0  0.00000000000E+00  0.00000000000E+00  0.45593999997E+02  0.45594000000E+02  0.51100000000E-03 0. -1.
         11   -1    0    0    0    0 -0.00000000000E+00 -0.00000000000E+00 -0.45593999997E+02  0.45594000000E+02  0.51100000000E-03 0.  1.
    9900012    2    1    2    0    0 -0.29552333233E+02  0.16556863137E+01 -0.11859165417E+02  0.59301929357E+02  0.49999973244E+02 0.  0.
        -12    1    1    2    0    0  0.29552333233E+02 -0.16556863137E+01  0.11859165417E+02  0.31886070643E+02  0.00000000000E+00 0.  1.
         11    1    3    3    0    0  0.20337449954E+01  0.15285353587E+02 -0.10179219907E+02  0.18476868544E+02  0.51100000000E-03 0. -1.
        -11    1    3    3    0    0 -0.92609607373E+01  0.58466843637E+01 -0.23038912629E+01  0.11191828583E+02  0.51100000000E-03 0.  1.
        -12    1    3    3    0    0 -0.22325117491E+02 -0.19476351637E+02  0.62394575348E+00  0.29633232230E+02  0.00000000000E+00 0.  1.
</event>
<event>
 7    1  0.6515090E-012  0.5930190E+02  0.7816164E-02  0.1266605E+00
        -11   -1    0    0    0    0  0.00000000000E+00  0.00000000000E+00  0.45593999997E+02  0.45594000000E+02  0.51100000000E-03 0. -1.
         11   -1    0    0    0    0 -0.00000000000E+00 -0.00000000000E+00 -0.45593999997E+02  0.45594000000E+02  0.51100000000E-03 0.  1.
    9900012    2    1    2    0    0 -0.35942960088E+01  0.22812011482E+02  0.21986731970E+02  0.59301902491E+02  0.49999924246E+02 0.  0.
        -12    1    1    2    0    0  0.35942960088E+01 -0.22812011482E+02 -0.21986731970E+02  0.31886097509E+02  0.00000000000E+00 0.  1.
         11    1    3    3    0    0 -0.36714085397E+01  0.21705405276E+02  0.13546697658E+02  0.25847956913E+02  0.51100000000E-03 0. -1.
        -11    1    3    3    0    0 -0.16096804181E+02  0.15232236430E+01  0.35775244384E+01  0.16559770423E+02  0.51100000000E-03 0.  1.
        -12    1    3    3    0    0  0.16173916711E+02 -0.41661743756E+00  0.48625098734E+01  0.16894175154E+02  0.00000000000E+00 0.  1.
</event>
<event>
 7    1  0.6515090E-012  0.5930193E+02  0.7816164E-02  0.1266605E+00
        -11   -1    0    0    0    0  0.00000000000E+00  0.00000000000E+00  0.45593999997E+02  0.45594000000E+02  0.51100000000E-03 0.  1.
         11   -1    0    0    0    0 -0.00000000000E+00 -0.00000000000E+00 -0.45593999997E+02  0.45594000000E+02  0.51100000000E-03 0. -1.
    9900012    2    1    2    0    0 -0.13809120815E+02  0.99906073724E+01 -0.26948422158E+02  0.59301929214E+02  0.49999972983E+02 0.  0.
        -12    1    1    2    0    0  0.13809120815E+02 -0.99906073724E+01  0.26948422158E+02  0.31886070786E+02  0.00000000000E+00 0.  1.
         11    1    3    3    0    0 -0.52301946028E+01 -0.64370875501E+01  0.28685826588E+01  0.87760924358E+01  0.51100000000E-03 0. -1.
        -11    1    3    3    0    0 -0.15473869385E+02 -0.13593520628E+01 -0.27128157082E+02  0.31260604260E+02  0.51100000000E-03 0.  1.
        -12    1    3    3    0    0  0.68949431732E+01  0.17787046985E+02 -0.26888477354E+01  0.19265232518E+02  0.00000000000E+00 0.  1.
</event>
<event>
 7    1  0.6515090E-012  0.5930199E+02  0.7816164E-02  0.1266605E+00
        -11   -1    0    0    0    0  0.00000000000E+00  0.00000000000E+00  0.45593999997E+02  0.45594000000E+02  0.51100000000E-03 0. -1.
         11   -1    0    0    0    0 -0.00000000000E+00 -0.00000000000E+00 -0.45593999997E+02  0.45594000000E+02  0.51100000000E-03 0.  1.
    9900012    2    1    2    0    0 -0.24145811904E+02  0.19474798040E+02 -0.73776472927E+01  0.59301989419E+02  0.50000082783E+02 0.  0.
        -12    1    1    2    0    0  0.24145811904E+02 -0.19474798040E+02  0.73776472927E+01  0.31886010581E+02  0.00000000000E+00 0.  1.
         11    1    3    3    0    0 -0.33734382750E+01  0.17838835314E+02  0.72869068822E+00  0.18169620842E+02  0.51100000000E-03 0. -1.
        -11    1    3    3    0    0 -0.25591711611E+02  0.70452221644E+01  0.41782881615E+01  0.26870596397E+02  0.51100000000E-03 0.  1.
        -12    1    3    3    0    0  0.48193379819E+01 -0.54092594382E+01 -0.12284626142E+02  0.14261772180E+02  0.00000000000E+00 0.  1.
</event>
<event>
 7    1  0.6515090E-012  0.5930195E+02  0.7816164E-02  0.1266605E+00
        -11   -1    0    0    0    0  0.00000000000E+00  0.00000000000E+00  0.45593999997E+02  0.45594000000E+02  0.51100000000E-03 0.  1.
         11   -1    0    0    0    0 -0.00000000000E+00 -0.00000000000E+00 -0.45593999997E+02  0.45594000000E+02  0.51100000000E-03 0. -1.
    9900012    2    1    2    0    0 -0.26833254746E+02 -0.90772845499E+01 -0.14638981578E+02  0.59301946047E+02  0.50000003682E+02 0.  0.
        -12    1    1    2    0    0  0.26833254746E+02  0.90772845499E+01  0.14638981578E+02  0.31886053953E+02  0.00000000000E+00 0.  1.
         11    1    3    3    0    0  0.79284584870E+01  0.31124146137E+01 -0.18296664491E+02  0.20182059123E+02  0.51100000000E-03 0. -1.
        -11    1    3    3    0    0 -0.11105416960E+01 -0.42155507474E+01  0.62776979608E+00  0.44043462785E+01  0.51100000000E-03 0.  1.
        -12    1    3    3    0    0 -0.33651171537E+02 -0.79741484161E+01  0.30299131169E+01  0.34715540645E+02  0.00000000000E+00 0.  1.
</event>
<event>
 7    1  0.6515090E-012  0.5930195E+02  0.7816164E-02  0.1266605E+00
        -11   -1    0    0    0    0  0.00000000000E+00  0.00000000000E+00  0.45593999997E+02  0.45594000000E+02  0.51100000000E-03 0. -1.
         11   -1    0    0    0    0 -0.00000000000E+00 -0.00000000000E+00 -0.45593999997E+02  0.45594000000E+02  0.51100000000E-03 0.  1.
    9900012    2    1    2    0    0 -0.81961356934E+01 -0.27958388071E+02  0.12956541293E+02  0.59301951858E+02  0.50000014281E+02 0.  0.
        -12    1    1    2    0    0  0.81961356934E+01  0.27958388071E+02 -0.12956541293E+02  0.31886048142E+02  0.00000000000E+00 0.  1.
         11    1    3    3    0    0 -0.15226143952E+01  0.11025484759E+01  0.20860289066E+01  0.28081105032E+01  0.51100000000E-03 0. -1.
        -11    1    3    3    0    0  0.54041081218E+01  0.98053201860E+01 -0.56842064656E+01  0.12556229209E+02  0.51100000000E-03 0.  1.
        -12    1    3    3    0    0 -0.12077629420E+02 -0.38866256733E+02  0.16554718852E+02  0.43937612146E+02  0.00000000000E+00 0.  1.
</event>
<event>
 7    1  0.6515090E-012  0.5930193E+02  0.7816164E-02  0.1266605E+00
        -11   -1    0    0    0    0  0.00000000000E+00  0.00000000000E+00  0.45593999997E+02  0.45594000000E+02  0.51100000000E-03 0. -1.
         11   -1    0    0    0    0 -0.00000000000E+00 -0.00000000000E+00 -0.45593999997E+02  0.45594000000E+02  0.51100000000E-03 0.  1.
    9900012    2    1    2    0    0 -0.26318298598E+02 -0.16865454971E+02 -0.62948348714E+01  0.59301931592E+02  0.49999977320E+02 0.  0.
        -12    1    1    2    0    0  0.26318298598E+02  0.16865454971E+02  0.62948348714E+01  0.31886068408E+02  0.00000000000E+00 0.  1.
         11    1    3    3    0    0 -0.29168213799E+01  0.40421860319E+01 -0.13001843109E+02  0.13924619901E+02  0.51100000000E-03 0. -1.
        -11    1    3    3    0    0  0.32006452774E+01 -0.17550914166E+02  0.49120022158E+01  0.18504228821E+02  0.51100000000E-03 0.  1.
         12    1    3    3    0    0 -0.26602122496E+02 -0.33567268369E+01  0.17950060222E+01  0.26873082870E+02  0.00000000000E+00 0. -1.
</event>
<event>
 7    1  0.6515090E-012  0.5930195E+02  0.7816164E-02  0.1266605E+00
        -11   -1    0    0    0    0  0.00000000000E+00  0.00000000000E+00  0.45593999997E+02  0.45594000000E+02  0.51100000000E-03 0. -1.
         11   -1    0    0    0    0 -0.00000000000E+00 -0.00000000000E+00 -0.45593999997E+02  0.45594000000E+02  0.51100000000E-03 0.  1.
    9900012    2    1    2    0    0  0.12025565183E+02 -0.29333077026E+02  0.34171221923E+01  0.59301947408E+02  0.50000006166E+02 0.  0.
        -12    1    1    2    0    0 -0.12025565183E+02  0.29333077026E+02 -0.34171221923E+01  0.31886052592E+02  0.00000000000E+00 0.  1.
         11    1    3    3    0    0  0.33390574242E+01 -0.23963935249E+02  0.19727696805E+02  0.31218608531E+02  0.51100000000E-03 0. -1.
        -11    1    3    3    0    0 -0.41006243545E+01 -0.83224643554E-01  0.24459467318E+01  0.47754269038E+01  0.51100000000E-03 0.  1.
        -12    1    3    3    0    0  0.12787132113E+02 -0.52859171337E+01 -0.18756521345E+02  0.23307911974E+02  0.00000000000E+00 0.  1.
</event>
<event>
 7    1  0.6515090E-012  0.5930176E+02  0.7816164E-02  0.1266605E+00
        -11   -1    0    0    0    0  0.00000000000E+00  0.00000000000E+00  0.45593999997E+02  0.45594000000E+02  0.51100000000E-03 0.  1.
         11   -1    0    0    0    0 -0.00000000000E+00 -0.00000000000E+00 -0.45593999997E+02  0.45594000000E+02  0.51100000000E-03 0. -1.
    9900012    2    1    2    0    0 -0.18200178696E+02 -0.43877283917E+01 -0.25811504658E+02  0.59301757861E+02  0.49999660476E+02 0.  0.
        -12    1    1    2    0    0  0.18200178696E+02  0.43877283917E+01  0.25811504658E+02  0.31886242139E+02  0.00000000000E+00 0.  1.
         11    1    3    3    0    0 -0.18177421089E+01  0.15238552201E+02 -0.15400330738E-01  0.15346592358E+02  0.51100000000E-03 0. -1.
        -11    1    3    3    0    0  0.19689317062E+01  0.46193481717E+01 -0.22781544453E+01  0.55140781218E+01  0.51100000000E-03 0.  1.
        -12    1    3    3    0    0 -0.18351368293E+02 -0.24245628765E+02 -0.23517949882E+02  0.38441087382E+02  0.00000000000E+00 0.  1.
</event>
<event>
 7    1  0.6515090E-012  0.5930198E+02  0.7816164E-02  0.1266605E+00
        -11   -1    0    0    0    0  0.00000000000E+00  0.00000000000E+00  0.45593999997E+02  0.45594000000E+02  0.51100000000E-03 0. -1.
         11   -1    0    0    0    0 -0.00000000000E+00 -0.00000000000E+00 -0.45593999997E+02  0.45594000000E+02  0.51100000000E-03 0.  1.
    9900012    2    1    2    0    0  0.19398807642E+02 -0.44744056783E+01  0.24907512505E+02  0.59301980755E+02  0.50000066981E+02 0.  0.
        -12    1    1    2    0    0 -0.19398807642E+02  0.44744056783E+01 -0.24907512505E+02  0.31886019245E+02  0.00000000000E+00 0.  1.
         11    1    3    3    0    0 -0.24519706040E+01 -0.56051271630E+01  0.10531486169E+02  0.12179565326E+02  0.51100000000E-03 0. -1.
        -11    1    3    3    0    0  0.17003652806E+01  0.15054601251E+02  0.16665297055E+02  0.22522530655E+02  0.51100000000E-03 0.  1.
        -12    1    3    3    0    0  0.20150412966E+02 -0.13923879767E+02 -0.22892707183E+01  0.24599884774E+02  0.00000000000E+00 0.  1.
</event>
<event>
 7    1  0.6515090E-012  0.5930195E+02  0.7816164E-02  0.1266605E+00
        -11   -1    0    0    0    0  0.00000000000E+00  0.00000000000E+00  0.45593999997E+02  0.45594000000E+02  0.51100000000E-03 0.  1.
         11   -1    0    0    0    0 -0.00000000000E+00 -0.00000000000E+00 -0.45593999997E+02  0.45594000000E+02  0.51100000000E-03 0. -1.
    9900012    2    1    2    0    0 -0.80497313972E+01  0.27953954755E+02 -0.13057510824E+02  0.59301947392E+02  0.50000006135E+02 0.  0.
        -12    1    1    2    0    0  0.80497313972E+01 -0.27953954755E+02  0.13057510824E+02  0.31886052608E+02  0.00000000000E+00 0.  1.
         11    1    3    3    0    0  0.57439673999E-01 -0.72544527695E+01  0.92666112116E+01  0.11768622176E+02  0.51100000000E-03 0.  1.
        -11    1    3    3    0    0  0.27836400906E+01 -0.12947285307E+01  0.52259174559E+00  0.31141734884E+01  0.51100000000E-03 0. -1.
        -12    1    3    3    0    0 -0.10890811162E+02  0.36503136055E+02 -0.22846713781E+02  0.44419151728E+02  0.00000000000E+00 0.  1.
</event>
<event>
 7    1  0.6515090E-012  0.5930195E+02  0.7816164E-02  0.1266605E+00
        -11   -1    0    0    0    0  0.00000000000E+00  0.00000000000E+00  0.45593999997E+02  0.45594000000E+02  0.51100000000E-03 0.  1.
         11   -1    0    0    0    0 -0.00000000000E+00 -0.00000000000E+00 -0.45593999997E+02  0.45594000000E+02  0.51100000000E-03 0. -1.
    9900012    2    1    2    0    0 -0.14438339194E+02  0.33916429841E+01 -0.28226781937E+02  0.59301951338E+02  0.50000013332E+02 0.  0.
        -12    1    1    2    0    0  0.14438339194E+02 -0.33916429841E+01  0.28226781937E+02  0.31886048662E+02  0.00000000000E+00 0.  1.
         11    1    3    3    0    0 -0.32741953374E-01  0.13730353757E+02 -0.57178431866E+00  0.13742293255E+02  0.51100000000E-03 0. -1.
        -11    1    3    3    0    0 -0.38637907205E+01  0.10746444012E+02 -0.14848273278E+02  0.18731955510E+02  0.51100000000E-03 0.  1.
        -12    1    3    3    0    0 -0.10541806520E+02 -0.21085154785E+02 -0.12806724339E+02  0.26827702572E+02  0.00000000000E+00 0.  1.
</event>
<event>
 7    1  0.6515090E-012  0.5930195E+02  0.7816164E-02  0.1266605E+00
        -11   -1    0    0    0    0  0.00000000000E+00  0.00000000000E+00  0.45593999997E+02  0.45594000000E+02  0.51100000000E-03 0. -1.
         11   -1    0    0    0    0 -0.00000000000E+00 -0.00000000000E+00 -0.45593999997E+02  0.45594000000E+02  0.51100000000E-03 0.  1.
    9900012    2    1    2    0    0 -0.25241206465E+02 -0.42570713237E+01  0.19012606481E+02  0.59301947167E+02  0.50000005726E+02 0.  0.
        -12    1    1    2    0    0  0.25241206465E+02  0.42570713237E+01 -0.19012606481E+02  0.31886052833E+02  0.00000000000E+00 0.  1.
         11    1    3    3    0    0 -0.26472428627E+02  0.67245565092E+01  0.19956428174E+02  0.33827033027E+02  0.51100000000E-03 0. -1.
        -11    1    3    3    0    0 -0.23834170561E+01 -0.83955441458E+01  0.10231616927E+02  0.13448115986E+02  0.51100000000E-03 0.  1.
        -12    1    3    3    0    0  0.36146392186E+01 -0.25860836870E+01 -0.11175438620E+02  0.12026798155E+02  0.00000000000E+00 0.  1.
</event>
<event>
 7    1  0.6515090E-012  0.5930194E+02  0.7816164E-02  0.1266605E+00
        -11   -1    0    0    0    0  0.00000000000E+00  0.00000000000E+00  0.45593999997E+02  0.45594000000E+02  0.51100000000E-03 0. -1.
         11   -1    0    0    0    0 -0.00000000000E+00 -0.00000000000E+00 -0.45593999997E+02  0.45594000000E+02  0.51100000000E-03 0.  1.
    9900012    2    1    2    0    0 -0.22652732596E+01 -0.86115432189E+00  0.31793829321E+02  0.59301942975E+02  0.49999998080E+02 0.  0.
        -12    1    1    2    0    0  0.22652732596E+01  0.86115432189E+00 -0.31793829321E+02  0.31886057025E+02  0.00000000000E+00 0.  1.
         11    1    3    3    0    0 -0.10728293892E+02 -0.47124270646E+01  0.17799583900E+01  0.11852067786E+02  0.51100000000E-03 0.  1.
        -11    1    3    3    0    0  0.38773899760E+01  0.63317219848E+01 -0.69202449229E+01  0.10149613114E+02  0.51100000000E-03 0. -1.
         12    1    3    3    0    0  0.45856306560E+01 -0.24804492421E+01  0.36934115854E+02  0.37300262075E+02  0.00000000000E+00 0. -1.
</event>
<event>
 7    1  0.6515090E-012  0.5930210E+02  0.7816164E-02  0.1266604E+00
        -11   -1    0    0    0    0  0.00000000000E+00  0.00000000000E+00  0.45593999997E+02  0.45594000000E+02  0.51100000000E-03 0.  1.
         11   -1    0    0    0    0 -0.00000000000E+00 -0.00000000000E+00 -0.45593999997E+02  0.45594000000E+02  0.51100000000E-03 0. -1.
    9900012    2    1    2    0    0  0.14323531704E+01  0.70424881254E+01 -0.31065449147E+02  0.59302103348E+02  0.50000290561E+02 0.  0.
        -12    1    1    2    0    0 -0.14323531704E+01 -0.70424881254E+01  0.31065449147E+02  0.31885896652E+02  0.00000000000E+00 0.  1.
         11    1    3    3    0    0 -0.45501921205E+01  0.70176593860E+01 -0.26191429411E+02  0.27494413368E+02  0.51100000000E-03 0. -1.
        -11    1    3    3    0    0 -0.87025033951E+01  0.77547672632E+01  0.47916810941E+01  0.12602784955E+02  0.51100000000E-03 0.  1.
         12    1    3    3    0    0  0.14685048686E+02 -0.77299385238E+01 -0.96657008300E+01  0.19204905025E+02  0.00000000000E+00 0. -1.
</event>
<event>
 7    1  0.6515090E-012  0.5930194E+02  0.7816164E-02  0.1266605E+00
        -11   -1    0    0    0    0  0.00000000000E+00  0.00000000000E+00  0.45593999997E+02  0.45594000000E+02  0.51100000000E-03 0.  1.
         11   -1    0    0    0    0 -0.00000000000E+00 -0.00000000000E+00 -0.45593999997E+02  0.45594000000E+02  0.51100000000E-03 0. -1.
    9900012    2    1    2    0    0 -0.19208431552E+02  0.18264068101E+02  0.17725145887E+02  0.59301939989E+02  0.49999992635E+02 0.  0.
        -12    1    1    2    0    0  0.19208431552E+02 -0.18264068101E+02 -0.17725145887E+02  0.31886060011E+02  0.00000000000E+00 0.  1.
         11    1    3    3    0    0 -0.27012252444E+02  0.31437146946E+01 -0.36677803892E+01  0.27440796953E+02  0.51100000000E-03 0. -1.
        -11    1    3    3    0    0 -0.13894057486E+01  0.10882414891E+02  0.38868914163E+01  0.11638957313E+02  0.51100000000E-03 0.  1.
        -12    1    3    3    0    0  0.91932266403E+01  0.42379385160E+01  0.17506034860E+02  0.20222185723E+02  0.00000000000E+00 0.  1.
</event>
<event>
 7    1  0.6515090E-012  0.5930177E+02  0.7816164E-02  0.1266605E+00
        -11   -1    0    0    0    0  0.00000000000E+00  0.00000000000E+00  0.45593999997E+02  0.45594000000E+02  0.51100000000E-03 0. -1.
         11   -1    0    0    0    0 -0.00000000000E+00 -0.00000000000E+00 -0.45593999997E+02  0.45594000000E+02  0.51100000000E-03 0.  1.
    9900012    2    1    2    0    0  0.58471905159E+01  0.22141626193E+02  0.22187615586E+02  0.59301772051E+02  0.49999686355E+02 0.  0.
        -12    1    1    2    0    0 -0.58471905159E+01 -0.22141626193E+02 -0.22187615586E+02  0.31886227949E+02  0.00000000000E+00 0.  1.
         11    1    3    3    0    0 -0.11174432649E+00  0.20074160903E+02  0.21972926699E+02  0.29762290415E+02  0.51100000000E-03 0. -1.
        -11    1    3    3    0    0  0.40793640638E+01 -0.99304567163E+01  0.94343419570E+01  0.14292025405E+02  0.51100000000E-03 0.  1.
        -12    1    3    3    0    0  0.18795707785E+01  0.11997922006E+02 -0.92196530704E+01  0.15247456231E+02  0.00000000000E+00 0.  1.
</event>
<event>
 7    1  0.6515090E-012  0.5930201E+02  0.7816164E-02  0.1266605E+00
        -11   -1    0    0    0    0  0.00000000000E+00  0.00000000000E+00  0.45593999997E+02  0.45594000000E+02  0.51100000000E-03 0. -1.
         11   -1    0    0    0    0 -0.00000000000E+00 -0.00000000000E+00 -0.45593999997E+02  0.45594000000E+02  0.51100000000E-03 0.  1.
    9900012    2    1    2    0    0 -0.49660340635E+01  0.29873257391E+02  0.99821425948E+01  0.59302012917E+02  0.50000125637E+02 0.  0.
        -12    1    1    2    0    0  0.49660340635E+01 -0.29873257391E+02 -0.99821425948E+01  0.31885987083E+02  0.00000000000E+00 0.  1.
         11    1    3    3    0    0 -0.27543095137E+01  0.11210384280E+01 -0.10306704830E+02  0.10727120432E+02  0.51100000000E-03 0. -1.
        -11    1    3    3    0    0 -0.84565568405E+01  0.85682251920E+01 -0.71057806246E+01  0.13979268761E+02  0.51100000000E-03 0.  1.
         12    1    3    3    0    0  0.62448322907E+01  0.20183993771E+02  0.27394628049E+02  0.34595623724E+02  0.00000000000E+00 0. -1.
</event>
<event>
 7    1  0.6515090E-012  0.5930194E+02  0.7816164E-02  0.1266605E+00
        -11   -1    0    0    0    0  0.00000000000E+00  0.00000000000E+00  0.45593999997E+02  0.45594000000E+02  0.51100000000E-03 0.  1.
         11   -1    0    0    0    0 -0.00000000000E+00 -0.00000000000E+00 -0.45593999997E+02  0.45594000000E+02  0.51100000000E-03 0. -1.
    9900012    2    1    2    0    0  0.29218706244E+02 -0.14772402993E+01 -0.12680919414E+02  0.59301941124E+02  0.49999994704E+02 0.  0.
        -12    1    1    2    0    0 -0.29218706244E+02  0.14772402993E+01  0.12680919414E+02  0.31886058876E+02  0.00000000000E+00 0.  1.
         11    1    3    3    0    0  0.18956206409E+02 -0.11063731777E+02 -0.15535475337E+02  0.26890424253E+02  0.51100000000E-03 0. -1.
        -11    1    3    3    0    0 -0.10431214042E+01 -0.80351846898E+01 -0.55817835124E+01  0.98391362783E+01  0.51100000000E-03 0.  1.
        -12    1    3    3    0    0  0.11305621239E+02  0.17621676168E+02  0.84363394358E+01  0.22572380593E+02  0.00000000000E+00 0.  1.
</event>
<event>
 7    1  0.6515090E-012  0.5930195E+02  0.7816164E-02  0.1266605E+00
        -11   -1    0    0    0    0  0.00000000000E+00  0.00000000000E+00  0.45593999997E+02  0.45594000000E+02  0.51100000000E-03 0. -1.
         11   -1    0    0    0    0 -0.00000000000E+00 -0.00000000000E+00 -0.45593999997E+02  0.45594000000E+02  0.51100000000E-03 0.  1.
    9900012    2    1    2    0    0  0.30844619680E+01  0.74430827160E+01  0.30851370105E+02  0.59301946257E+02  0.50000004066E+02 0.  0.
        -12    1    1    2    0    0 -0.30844619680E+01 -0.74430827160E+01 -0.30851370105E+02  0.31886053743E+02  0.00000000000E+00 0.  1.
         11    1    3    3    0    0  0.13708027470E+02 -0.75361397057E+01  0.11187204937E+02  0.19231665901E+02  0.51100000000E-03 0. -1.
        -11    1    3    3    0    0 -0.20070076988E+02  0.81251101853E+01  0.67871964783E+01  0.22691219494E+02  0.51100000000E-03 0.  1.
         12    1    3    3    0    0  0.94465114864E+01  0.68541122363E+01  0.12876968689E+02  0.17379060862E+02  0.00000000000E+00 0. -1.
</event>
<event>
 7    1  0.6515090E-012  0.5930199E+02  0.7816164E-02  0.1266605E+00
        -11   -1    0    0    0    0  0.00000000000E+00  0.00000000000E+00  0.45593999997E+02  0.45594000000E+02  0.51100000000E-03 0.  1.
         11   -1    0    0    0    0 -0.00000000000E+00 -0.00000000000E+00 -0.45593999997E+02  0.45594000000E+02  0.51100000000E-03 0. -1.
    9900012    2    1    2    0    0  0.15070968719E+02  0.96695482803E+01 -0.26383397985E+02  0.59301985020E+02  0.50000074760E+02 0.  0.
        -12    1    1    2    0    0 -0.15070968719E+02 -0.96695482803E+01  0.26383397985E+02  0.31886014980E+02  0.00000000000E+00 0.  1.
         11    1    3    3    0    0  0.22119650232E+02  0.17506540248E+00 -0.22054573685E+02  0.31236417768E+02  0.51100000000E-03 0. -1.
        -11    1    3    3    0    0  0.11843257107E+01  0.83176885195E+01 -0.13363937668E+02  0.15785480669E+02  0.51100000000E-03 0.  1.
        -12    1    3    3    0    0 -0.82330072238E+01  0.11767943583E+01  0.90351133679E+01  0.12280086583E+02  0.00000000000E+00 0.  1.
</event>
<event>
 7    1  0.6515090E-012  0.5930194E+02  0.7816164E-02  0.1266605E+00
        -11   -1    0    0    0    0  0.00000000000E+00  0.00000000000E+00  0.45593999997E+02  0.45594000000E+02  0.51100000000E-03 0. -1.
         11   -1    0    0    0    0 -0.00000000000E+00 -0.00000000000E+00 -0.45593999997E+02  0.45594000000E+02  0.51100000000E-03 0.  1.
    9900012    2    1    2    0    0  0.25393749077E+02  0.57014675976E+01  0.18422040284E+02  0.59301940457E+02  0.49999993488E+02 0.  0.
        -12    1    1    2    0    0 -0.25393749077E+02 -0.57014675976E+01 -0.18422040284E+02  0.31886059543E+02  0.00000000000E+00 0.  1.
         11    1    3    3    0    0  0.60982799084E+01  0.27786055414E+01  0.14367612756E+02  0.15853641953E+02  0.51100000000E-03 0. -1.
        -11    1    3    3    0    0  0.94066207243E-01  0.15358363024E+01  0.19008836792E+02  0.19071012507E+02  0.51100000000E-03 0.  1.
        -12    1    3    3    0    0  0.19201402961E+02  0.13870257538E+01 -0.14954409264E+02  0.24377285997E+02  0.00000000000E+00 0.  1.
</event>
<event>
 7    1  0.6515090E-012  0.5930192E+02  0.7816164E-02  0.1266605E+00
        -11   -1    0    0    0    0  0.00000000000E+00  0.00000000000E+00  0.45593999997E+02  0.45594000000E+02  0.51100000000E-03 0.  1.
         11   -1    0    0    0    0 -0.00000000000E+00 -0.00000000000E+00 -0.45593999997E+02  0.45594000000E+02  0.51100000000E-03 0. -1.
    9900012    2    1    2    0    0  0.20732272663E+02 -0.21075523188E+02 -0.11946424373E+02  0.59301923686E+02  0.49999962901E+02 0.  0.
        -12    1    1    2    0    0 -0.20732272663E+02  0.21075523188E+02  0.11946424373E+02  0.31886076314E+02  0.00000000000E+00 0.  1.
         11    1    3    3    0    0  0.22503497280E+02 -0.22484981969E+01  0.92002759831E+01  0.24415327408E+02  0.51100000000E-03 0. -1.
        -11    1    3    3    0    0 -0.22412167700E+01 -0.55725255331E+01  0.34611278375E+01  0.69322074115E+01  0.51100000000E-03 0.  1.
         12    1    3    3    0    0  0.46999215224E+00 -0.13254499458E+02 -0.24607828193E+02  0.27954388867E+02  0.00000000000E+00 0. -1.
</event>
<event>
 7    1  0.6515090E-012  0.5930194E+02  0.7816164E-02  0.1266605E+00
        -11   -1    0    0    0    0  0.00000000000E+00  0.00000000000E+00  0.45593999997E+02  0.45594000000E+02  0.51100000000E-03 0.  1.
         11   -1    0    0    0    0 -0.00000000000E+00 -0.00000000000E+00 -0.45593999997E+02  0.45594000000E+02  0.51100000000E-03 0. -1.
    9900012    2    1    2    0    0 -0.94317413031E+01 -0.67282055086E+01 -0.29706801727E+02  0.59301944079E+02  0.50000000093E+02 0.  0.
        -12    1    1    2    0    0  0.94317413031E+01  0.67282055086E+01  0.29706801727E+02  0.31886055921E+02  0.00000000000E+00 0.  1.
         11    1    3    3    0    0 -0.17025802736E+02  0.94773327442E+01 -0.22595895002E+02  0.29837430619E+02  0.51100000000E-03 0. -1.
        -11    1    3    3    0    0 -0.27945660326E+01  0.31328966954E+01  0.31344277577E+01  0.52392059173E+01  0.51100000000E-03 0.  1.
        -12    1    3    3    0    0  0.10388627465E+02 -0.19338434948E+02 -0.10245334482E+02  0.24225307542E+02  0.00000000000E+00 0.  1.
</event>
<event>
 7    1  0.6515090E-012  0.5930188E+02  0.7816164E-02  0.1266605E+00
        -11   -1    0    0    0    0  0.00000000000E+00  0.00000000000E+00  0.45593999997E+02  0.45594000000E+02  0.51100000000E-03 0. -1.
         11   -1    0    0    0    0 -0.00000000000E+00 -0.00000000000E+00 -0.45593999997E+02  0.45594000000E+02  0.51100000000E-03 0.  1.
    9900012    2    1    2    0    0  0.28779430399E+02  0.12754939919E+02  0.50774407921E+01  0.59301882152E+02  0.49999887153E+02 0.  0.
        -12    1    1    2    0    0 -0.28779430399E+02 -0.12754939919E+02 -0.50774407921E+01  0.31886117848E+02  0.00000000000E+00 0.  1.
         11    1    3    3    0    0  0.10707041472E+02  0.13923170142E+02  0.33108418864E+01  0.17873362251E+02  0.51100000000E-03 0. -1.
        -11    1    3    3    0    0  0.81613334886E+01  0.14521431875E+02 -0.10024645843E+02  0.19441524440E+02  0.51100000000E-03 0.  1.
         12    1    3    3    0    0  0.99110554384E+01 -0.15689662099E+02  0.11791244749E+02  0.21986995461E+02  0.00000000000E+00 0. -1.
</event>
<event>
 7    1  0.6515090E-012  0.5930194E+02  0.7816164E-02  0.1266605E+00
        -11   -1    0    0    0    0  0.00000000000E+00  0.00000000000E+00  0.45593999997E+02  0.45594000000E+02  0.51100000000E-03 0.  1.
         11   -1    0    0    0    0 -0.00000000000E+00 -0.00000000000E+00 -0.45593999997E+02  0.45594000000E+02  0.51100000000E-03 0. -1.
    9900012    2    1    2    0    0 -0.30614868571E+02 -0.30787562134E+01  0.83649184573E+01  0.59301940691E+02  0.49999993914E+02 0.  0.
        -12    1    1    2    0    0  0.30614868571E+02  0.30787562134E+01 -0.83649184573E+01  0.31886059309E+02  0.00000000000E+00 0.  1.
         11    1    3    3    0    0 -0.30673571073E+02 -0.84491933962E+01  0.18983170623E+02  0.37048854215E+02  0.51100000000E-03 0. -1.
        -11    1    3    3    0    0 -0.85790254222E+01  0.45560097848E+01 -0.93541581398E+01  0.13485443156E+02  0.51100000000E-03 0.  1.
        -12    1    3    3    0    0  0.86377279242E+01  0.81442739795E+00 -0.12640940262E+01  0.87676433199E+01  0.00000000000E+00 0.  1.
</event>
<event>
 7    1  0.6515090E-012  0.5930188E+02  0.7816164E-02  0.1266605E+00
        -11   -1    0    0    0    0  0.00000000000E+00  0.00000000000E+00  0.45593999997E+02  0.45594000000E+02  0.51100000000E-03 0. -1.
         11   -1    0    0    0    0 -0.00000000000E+00 -0.00000000000E+00 -0.45593999997E+02  0.45594000000E+02  0.51100000000E-03 0.  1.
    9900012    2    1    2    0    0  0.28159815332E+02  0.14715216980E+02 -0.26855179463E+01  0.59301877361E+02  0.49999878416E+02 0.  0.
        -12    1    1    2    0    0 -0.28159815332E+02 -0.14715216980E+02  0.26855179463E+01  0.31886122639E+02  0.00000000000E+00 0.  1.
         11    1    3    3    0    0  0.15612451022E+02 -0.17199719471E+02 -0.65429726870E+01  0.24132746811E+02  0.51100000000E-03 0. -1.
        -11    1    3    3    0    0  0.24566540811E+01  0.31697225087E+01  0.23910092614E+01  0.46689630118E+01  0.51100000000E-03 0.  1.
        -12    1    3    3    0    0  0.10090710230E+02  0.28745213942E+02  0.14664454792E+01  0.30500167538E+02  0.00000000000E+00 0.  1.
</event>
<event>
 7    1  0.6515090E-012  0.5930193E+02  0.7816164E-02  0.1266605E+00
        -11   -1    0    0    0    0  0.00000000000E+00  0.00000000000E+00  0.45593999997E+02  0.45594000000E+02  0.51100000000E-03 0. -1.
         11   -1    0    0    0    0 -0.00000000000E+00 -0.00000000000E+00 -0.45593999997E+02  0.45594000000E+02  0.51100000000E-03 0.  1.
    9900012    2    1    2    0    0 -0.51173637414E+01 -0.77680325166E+00  0.31463166697E+02  0.59301926338E+02  0.49999967739E+02 0.  0.
        -12    1    1    2    0    0  0.51173637414E+01  0.77680325166E+00 -0.31463166697E+02  0.31886073662E+02  0.00000000000E+00 0.  1.
         11    1    3    3    0    0 -0.24097355292E+02 -0.35909756094E+01  0.97714036112E+01  0.26249913652E+02  0.51100000000E-03 0. -1.
        -11    1    3    3    0    0  0.48150308726E+00  0.49841398861E+01  0.96535976709E+01  0.10874991673E+02  0.51100000000E-03 0.  1.
        -12    1    3    3    0    0  0.18498488464E+02 -0.21699675284E+01  0.12038165415E+02  0.22177021014E+02  0.00000000000E+00 0.  1.
</event>
<event>
 7    1  0.6515090E-012  0.5930194E+02  0.7816164E-02  0.1266605E+00
        -11   -1    0    0    0    0  0.00000000000E+00  0.00000000000E+00  0.45593999997E+02  0.45594000000E+02  0.51100000000E-03 0.  1.
         11   -1    0    0    0    0 -0.00000000000E+00 -0.00000000000E+00 -0.45593999997E+02  0.45594000000E+02  0.51100000000E-03 0. -1.
    9900012    2    1    2    0    0  0.60210222352E+01  0.26142459158E+02 -0.17234846661E+02  0.59301940052E+02  0.49999992749E+02 0.  0.
        -12    1    1    2    0    0 -0.60210222352E+01 -0.26142459158E+02  0.17234846661E+02  0.31886059948E+02  0.00000000000E+00 0.  1.
         11    1    3    3    0    0 -0.93781737617E+01  0.24131014378E+02 -0.65748327433E+00  0.25897650135E+02  0.51100000000E-03 0. -1.
        -11    1    3    3    0    0  0.11968362610E+01  0.10004547044E+01 -0.18911684090E+02  0.18975908991E+02  0.51100000000E-03 0.  1.
        -12    1    3    3    0    0  0.14202359736E+02  0.10109900760E+01  0.23343207029E+01  0.14428380926E+02  0.00000000000E+00 0.  1.
</event>
<event>
 7    1  0.6515090E-012  0.5930200E+02  0.7816164E-02  0.1266605E+00
        -11   -1    0    0    0    0  0.00000000000E+00  0.00000000000E+00  0.45593999997E+02  0.45594000000E+02  0.51100000000E-03 0.  1.
         11   -1    0    0    0    0 -0.00000000000E+00 -0.00000000000E+00 -0.45593999997E+02  0.45594000000E+02  0.51100000000E-03 0. -1.
    9900012    2    1    2    0    0  0.22556764213E+02 -0.21648328387E+02 -0.62657347598E+01  0.59301997338E+02  0.50000097224E+02 0.  0.
        -12    1    1    2    0    0 -0.22556764213E+02  0.21648328387E+02  0.62657347598E+01  0.31886002662E+02  0.00000000000E+00 0.  1.
         11    1    3    3    0    0  0.42193051701E+01 -0.30705895263E+01 -0.14999462427E+01  0.54296312167E+01  0.51100000000E-03 0. -1.
        -11    1    3    3    0    0  0.10965999876E+02 -0.33844309305E+02  0.19679585762E+01  0.35630931602E+02  0.51100000000E-03 0.  1.
         12    1    3    3    0    0  0.73714591676E+01  0.15266570444E+02 -0.67337470934E+01  0.18241434519E+02  0.00000000000E+00 0. -1.
</event>
<event>
 7    1  0.6515090E-012  0.5930196E+02  0.7816164E-02  0.1266605E+00
        -11   -1    0    0    0    0  0.00000000000E+00  0.00000000000E+00  0.45593999997E+02  0.45594000000E+02  0.51100000000E-03 0.  1.
         11   -1    0    0    0    0 -0.00000000000E+00 -0.00000000000E+00 -0.45593999997E+02  0.45594000000E+02  0.51100000000E-03 0. -1.
    9900012    2    1    2    0    0  0.29776572224E+02  0.10409291309E+02 -0.46606648654E+01  0.59301962367E+02  0.50000033447E+02 0.  0.
        -12    1    1    2    0    0 -0.29776572224E+02 -0.10409291309E+02  0.46606648654E+01  0.31886037633E+02  0.00000000000E+00 0.  1.
         11    1    3    3    0    0 -0.35745647487E+01  0.12214182524E+01 -0.39901604289E+01  0.54946115604E+01  0.51100000000E-03 0. -1.
        -11    1    3    3    0    0  0.80628747011E+01  0.23425035448E+02  0.17597533815E+00  0.24774446548E+02  0.51100000000E-03 0.  1.
         12    1    3    3    0    0  0.25288262271E+02 -0.14237162392E+02 -0.84647977463E+00  0.29032904258E+02  0.00000000000E+00 0. -1.
</event>
<event>
 7    1  0.6515090E-012  0.5930193E+02  0.7816164E-02  0.1266605E+00
        -11   -1    0    0    0    0  0.00000000000E+00  0.00000000000E+00  0.45593999997E+02  0.45594000000E+02  0.51100000000E-03 0.  1.
         11   -1    0    0    0    0 -0.00000000000E+00 -0.00000000000E+00 -0.45593999997E+02  0.45594000000E+02  0.51100000000E-03 0. -1.
    9900012    2    1    2    0    0  0.25738818916E+02  0.16201121325E+02 -0.95790712732E+01  0.59301925644E+02  0.49999966473E+02 0.  0.
        -12    1    1    2    0    0 -0.25738818916E+02 -0.16201121325E+02  0.95790712732E+01  0.31886074356E+02  0.00000000000E+00 0.  1.
         11    1    3    3    0    0 -0.15884005132E+01  0.99234304561E+01  0.41881213960E+01  0.10887508865E+02  0.51100000000E-03 0. -1.
        -11    1    3    3    0    0  0.62746867367E+00  0.53704176289E+01  0.10827136479E+02  0.12102148034E+02  0.51100000000E-03 0.  1.
        -12    1    3    3    0    0  0.26699750755E+02  0.90727323957E+00 -0.24594329148E+02  0.36312268745E+02  0.00000000000E+00 0.  1.
</event>
<event>
 7    1  0.6515090E-012  0.5930194E+02  0.7816164E-02  0.1266605E+00
        -11   -1    0    0    0    0  0.00000000000E+00  0.00000000000E+00  0.45593999997E+02  0.45594000000E+02  0.51100000000E-03 0. -1.
         11   -1    0    0    0    0 -0.00000000000E+00 -0.00000000000E+00 -0.45593999997E+02  0.45594000000E+02  0.51100000000E-03 0.  1.
    9900012    2    1    2    0    0 -0.14711618282E+02 -0.16634434340E+01  0.28240431596E+02  0.59301941396E+02  0.49999995201E+02 0.  0.
        -12    1    1    2    0    0  0.14711618282E+02  0.16634434340E+01 -0.28240431596E+02  0.31886058604E+02  0.00000000000E+00 0.  1.
         11    1    3    3    0    0  0.22233318090E+01 -0.12235691845E+02  0.18246409129E+02  0.22081367839E+02  0.51100000000E-03 0. -1.
        -11    1    3    3    0    0  0.32008913037E+01 -0.17208461672E+01  0.12944537500E+02  0.13445001599E+02  0.51100000000E-03 0.  1.
        -12    1    3    3    0    0 -0.20135841395E+02  0.12293094579E+02 -0.29505150323E+01  0.23775571958E+02  0.00000000000E+00 0.  1.
</event>
<event>
 7    1  0.6515090E-012  0.5930192E+02  0.7816164E-02  0.1266605E+00
        -11   -1    0    0    0    0  0.00000000000E+00  0.00000000000E+00  0.45593999997E+02  0.45594000000E+02  0.51100000000E-03 0.  1.
         11   -1    0    0    0    0 -0.00000000000E+00 -0.00000000000E+00 -0.45593999997E+02  0.45594000000E+02  0.51100000000E-03 0. -1.
    9900012    2    1    2    0    0  0.45042065284E+01 -0.24888104310E+02 -0.19416910263E+02  0.59301921270E+02  0.49999958496E+02 0.  0.
        -12    1    1    2    0    0 -0.45042065284E+01  0.24888104310E+02  0.19416910263E+02  0.31886078730E+02  0.00000000000E+00 0.  1.
         11    1    3    3    0    0  0.12787674750E+01  0.12360235403E+02  0.51761256833E+01  0.13461164245E+02  0.51100000000E-03 0.  1.
        -11    1    3    3    0    0 -0.69637513698E+00 -0.11270733541E+02 -0.26223310091E+01  0.11592712930E+02  0.51100000000E-03 0. -1.
        -12    1    3    3    0    0  0.39218141904E+01 -0.25977606171E+02 -0.21970704937E+02  0.34248044096E+02  0.00000000000E+00 0.  1.
</event>
<event>
 7    1  0.6515090E-012  0.5930187E+02  0.7816164E-02  0.1266605E+00
        -11   -1    0    0    0    0  0.00000000000E+00  0.00000000000E+00  0.45593999997E+02  0.45594000000E+02  0.51100000000E-03 0. -1.
         11   -1    0    0    0    0 -0.00000000000E+00 -0.00000000000E+00 -0.45593999997E+02  0.45594000000E+02  0.51100000000E-03 0.  1.
    9900012    2    1    2    0    0  0.21953184597E+02 -0.12200721502E+02  0.19644988466E+02  0.59301866792E+02  0.49999859141E+02 0.  0.
        -12    1    1    2    0    0 -0.21953184597E+02  0.12200721502E+02 -0.19644988466E+02  0.31886133208E+02  0.00000000000E+00 0.  1.
         11    1    3    3    0    0  0.14669922354E+01 -0.55753365934E+00 -0.10492341418E+02  0.10609059274E+02  0.51100000000E-03 0. -1.
        -11    1    3    3    0    0 -0.16390269274E+01 -0.23168061435E+01 -0.52269920005E+01  0.59477260873E+01  0.51100000000E-03 0.  1.
         12    1    3    3    0    0  0.22125219289E+02 -0.93263816988E+01  0.35364321885E+02  0.42745081431E+02  0.00000000000E+00 0. -1.
</event>
<event>
 7    1  0.6515090E-012  0.5930194E+02  0.7816164E-02  0.1266605E+00
        -11   -1    0    0    0    0  0.00000000000E+00  0.00000000000E+00  0.45593999997E+02  0.45594000000E+02  0.51100000000E-03 0.  1.
         11   -1    0    0    0    0 -0.00000000000E+00 -0.00000000000E+00 -0.45593999997E+02  0.45594000000E+02  0.51100000000E-03 0. -1.
    9900012    2    1    2    0    0 -0.20697998798E+02 -0.19441184461E+02 -0.14503586090E+02  0.59301940084E+02  0.49999992808E+02 0.  0.
        -12    1    1    2    0    0  0.20697998798E+02  0.19441184461E+02  0.14503586090E+02  0.31886059916E+02  0.00000000000E+00 0.  1.
         11    1    3    3    0    0  0.25776333303E+01 -0.68516065747E+01 -0.44755068488E+01  0.85801438248E+01  0.51100000000E-03 0. -1.
        -11    1    3    3    0    0  0.22644294138E+01 -0.22178244802E+02 -0.64471541169E+01  0.23207067448E+02  0.51100000000E-03 0.  1.
        -12    1    3    3    0    0 -0.25540061542E+02  0.95886669163E+01 -0.35809251243E+01  0.27514728811E+02  0.00000000000E+00 0.  1.
</event>
<event>
 7    1  0.6515090E-012  0.5930225E+02  0.7816164E-02  0.1266604E+00
        -11   -1    0    0    0    0  0.00000000000E+00  0.00000000000E+00  0.45593999997E+02  0.45594000000E+02  0.51100000000E-03 0.  1.
         11   -1    0    0    0    0 -0.00000000000E+00 -0.00000000000E+00 -0.45593999997E+02  0.45594000000E+02  0.51100000000E-03 0. -1.
    9900012    2    1    2    0    0 -0.26562552105E+02  0.15968071430E+02  0.74934986328E+01  0.59302250812E+02  0.50000559498E+02 0.  0.
        -12    1    1    2    0    0  0.26562552105E+02 -0.15968071430E+02 -0.74934986328E+01  0.31885749188E+02  0.00000000000E+00 0.  1.
         11    1    3    3    0    0 -0.19280978294E+02  0.17378510953E+02 -0.12945971131E+02  0.29006325787E+02  0.51100000000E-03 0. -1.
        -11    1    3    3    0    0 -0.31664067326E+01 -0.35025986591E+01 -0.35240437024E+01  0.58917920229E+01  0.51100000000E-03 0.  1.
        -12    1    3    3    0    0 -0.41151670785E+01  0.20921591366E+01  0.23963513466E+02  0.24404133002E+02  0.00000000000E+00 0.  1.
</event>
<event>
 7    1  0.6515090E-012  0.5930192E+02  0.7816164E-02  0.1266605E+00
        -11   -1    0    0    0    0  0.00000000000E+00  0.00000000000E+00  0.45593999997E+02  0.45594000000E+02  0.51100000000E-03 0.  1.
         11   -1    0    0    0    0 -0.00000000000E+00 -0.00000000000E+00 -0.45593999997E+02  0.45594000000E+02  0.51100000000E-03 0. -1.
    9900012    2    1    2    0    0 -0.65813209497E+01  0.29742919461E+02 -0.94216218117E+01  0.59301921516E+02  0.49999958945E+02 0.  0.
        -12    1    1    2    0    0  0.65813209497E+01 -0.29742919461E+02  0.94216218117E+01  0.31886078484E+02  0.00000000000E+00 0.  1.
         11    1    3    3    0    0  0.11913551536E+02  0.82639151228E+01  0.29012997791E+01  0.14786566337E+02  0.51100000000E-03 0. -1.
        -11    1    3    3    0    0 -0.21878633658E+02  0.22368489822E+02  0.42887169372E+00  0.31292297437E+02  0.51100000000E-03 0.  1.
         12    1    3    3    0    0  0.33837611725E+01 -0.88948548377E+00 -0.12751793285E+02  0.13223057743E+02  0.00000000000E+00 0. -1.
</event>
<event>
 7    1  0.6515090E-012  0.5930196E+02  0.7816164E-02  0.1266605E+00
        -11   -1    0    0    0    0  0.00000000000E+00  0.00000000000E+00  0.45593999997E+02  0.45594000000E+02  0.51100000000E-03 0. -1.
         11   -1    0    0    0    0 -0.00000000000E+00 -0.00000000000E+00 -0.45593999997E+02  0.45594000000E+02  0.51100000000E-03 0.  1.
    9900012    2    1    2    0    0 -0.72885818621E+01  0.30756855153E+02  0.41966849135E+01  0.59301957148E+02  0.50000023929E+02 0.  0.
        -12    1    1    2    0    0  0.72885818621E+01 -0.30756855153E+02 -0.41966849135E+01  0.31886042852E+02  0.00000000000E+00 0.  1.
         11    1    3    3    0    0 -0.55568921379E+01  0.14326165642E+02 -0.58518809119E+01  0.16442706064E+02  0.51100000000E-03 0. -1.
        -11    1    3    3    0    0 -0.19927232393E+02  0.78296421106E+01  0.34983186412E+01  0.21694149441E+02  0.51100000000E-03 0.  1.
        -12    1    3    3    0    0  0.18195542668E+02  0.86010474009E+01  0.65502471841E+01  0.21165101643E+02  0.00000000000E+00 0.  1.
</event>
<event>
 7    1  0.6515090E-012  0.5930185E+02  0.7816164E-02  0.1266605E+00
        -11   -1    0    0    0    0  0.00000000000E+00  0.00000000000E+00  0.45593999997E+02  0.45594000000E+02  0.51100000000E-03 0. -1.
         11   -1    0    0    0    0 -0.00000000000E+00 -0.00000000000E+00 -0.45593999997E+02  0.45594000000E+02  0.51100000000E-03 0.  1.
    9900012    2    1    2    0    0  0.12581681504E+02  0.28381116573E+02  0.72759853160E+01  0.59301851758E+02  0.49999831723E+02 0.  0.
        -12    1    1    2    0    0 -0.12581681504E+02 -0.28381116573E+02 -0.72759853160E+01  0.31886148242E+02  0.00000000000E+00 0.  1.
         11    1    3    3    0    0  0.11438685571E+02  0.18702337199E+02 -0.26593671478E+01  0.22083776357E+02  0.51100000000E-03 0. -1.
        -11    1    3    3    0    0 -0.13368198589E+02  0.12496588287E+02 -0.17387315929E+01  0.18381965078E+02  0.51100000000E-03 0.  1.
        -12    1    3    3    0    0  0.14511194522E+02 -0.28178089135E+01  0.11674084057E+02  0.18836110323E+02  0.00000000000E+00 0.  1.
</event>
<event>
 7    1  0.6515090E-012  0.5930192E+02  0.7816164E-02  0.1266605E+00
        -11   -1    0    0    0    0  0.00000000000E+00  0.00000000000E+00  0.45593999997E+02  0.45594000000E+02  0.51100000000E-03 0. -1.
         11   -1    0    0    0    0 -0.00000000000E+00 -0.00000000000E+00 -0.45593999997E+02  0.45594000000E+02  0.51100000000E-03 0.  1.
    9900012    2    1    2    0    0 -0.96995570520E+01 -0.49054662925E+01  0.29976272023E+02  0.59301923243E+02  0.49999962095E+02 0.  0.
        -12    1    1    2    0    0  0.96995570520E+01  0.49054662925E+01 -0.29976272023E+02  0.31886076757E+02  0.00000000000E+00 0.  1.
         11    1    3    3    0    0 -0.10792441618E+01  0.21976469512E+01  0.91458088601E+01  0.94678529799E+01  0.51100000000E-03 0. -1.
        -11    1    3    3    0    0  0.10670745634E+02  0.87627799152E+01  0.20668230483E+02  0.24856123507E+02  0.51100000000E-03 0.  1.
        -12    1    3    3    0    0 -0.19291058524E+02 -0.15865893159E+02  0.16223267923E+00  0.24977946756E+02  0.00000000000E+00 0.  1.
</event>
<event>
 7    1  0.6515090E-012  0.5930195E+02  0.7816164E-02  0.1266605E+00
        -11   -1    0    0    0    0  0.00000000000E+00  0.00000000000E+00  0.45593999997E+02  0.45594000000E+02  0.51100000000E-03 0.  1.
         11   -1    0    0    0    0 -0.00000000000E+00 -0.00000000000E+00 -0.45593999997E+02  0.45594000000E+02  0.51100000000E-03 0. -1.
    9900012    2    1    2    0    0  0.15656258043E+02 -0.73883835617E+01 -0.26777114198E+02  0.59301945488E+02  0.50000002663E+02 0.  0.
        -12    1    1    2    0    0 -0.15656258043E+02  0.73883835617E+01  0.26777114198E+02  0.31886054512E+02  0.00000000000E+00 0.  1.
         11    1    3    3    0    0 -0.11486309430E+01 -0.15282933603E+02 -0.11431742073E+02  0.19119940890E+02  0.51100000000E-03 0.  1.
        -11    1    3    3    0    0 -0.62812684170E+01  0.10059832109E+01 -0.14771701528E+02  0.16083205571E+02  0.51100000000E-03 0. -1.
        -12    1    3    3    0    0  0.23086157403E+02  0.68885668301E+01 -0.57367059777E+00  0.24098799027E+02  0.00000000000E+00 0.  1.
</event>
<event>
 7    1  0.6515090E-012  0.5930194E+02  0.7816164E-02  0.1266605E+00
        -11   -1    0    0    0    0  0.00000000000E+00  0.00000000000E+00  0.45593999997E+02  0.45594000000E+02  0.51100000000E-03 0.  1.
         11   -1    0    0    0    0 -0.00000000000E+00 -0.00000000000E+00 -0.45593999997E+02  0.45594000000E+02  0.51100000000E-03 0. -1.
    9900012    2    1    2    0    0  0.21798265529E+02  0.12321178146E+02 -0.19741966796E+02  0.59301936211E+02  0.49999985744E+02 0.  0.
        -12    1    1    2    0    0 -0.21798265529E+02 -0.12321178146E+02  0.19741966796E+02  0.31886063789E+02  0.00000000000E+00 0.  1.
         11    1    3    3    0    0  0.11999124338E+02  0.50710486777E+01 -0.21489343985E+02  0.25129393640E+02  0.51100000000E-03 0. -1.
        -11    1    3    3    0    0  0.14155726551E+02 -0.52044037603E+01  0.10465930740E+02  0.18357726417E+02  0.51100000000E-03 0.  1.
         12    1    3    3    0    0 -0.43565853599E+01  0.12454533228E+02 -0.87185535521E+01  0.15814816154E+02  0.00000000000E+00 0. -1.
</event>
<event>
 7    1  0.6515090E-012  0.5930195E+02  0.7816164E-02  0.1266605E+00
        -11   -1    0    0    0    0  0.00000000000E+00  0.00000000000E+00  0.45593999997E+02  0.45594000000E+02  0.51100000000E-03 0.  1.
         11   -1    0    0    0    0 -0.00000000000E+00 -0.00000000000E+00 -0.45593999997E+02  0.45594000000E+02  0.51100000000E-03 0. -1.
    9900012    2    1    2    0    0 -0.11627991113E+02  0.21095925182E+02 -0.20891907586E+02  0.59301952280E+02  0.50000015050E+02 0.  0.
        -12    1    1    2    0    0  0.11627991113E+02 -0.21095925182E+02  0.20891907586E+02  0.31886047720E+02  0.00000000000E+00 0.  1.
         11    1    3    3    0    0 -0.15264268466E+02  0.31919816639E+01 -0.19836036261E+02  0.25232022780E+02  0.51100000000E-03 0. -1.
        -11    1    3    3    0    0 -0.10627461349E+00 -0.30602205132E+01 -0.10380210716E+02  0.10822431273E+02  0.51100000000E-03 0.  1.
         12    1    3    3    0    0  0.37425519667E+01  0.20964164031E+02  0.93243393909E+01  0.23247498227E+02  0.00000000000E+00 0. -1.
</event>
<event>
 7    1  0.6515090E-012  0.5930199E+02  0.7816164E-02  0.1266605E+00
        -11   -1    0    0    0    0  0.00000000000E+00  0.00000000000E+00  0.45593999997E+02  0.45594000000E+02  0.51100000000E-03 0. -1.
         11   -1    0    0    0    0 -0.00000000000E+00 -0.00000000000E+00 -0.45593999997E+02  0.45594000000E+02  0.51100000000E-03 0.  1.
    9900012    2    1    2    0    0  0.10235525313E+02  0.58059704724E+01  0.29635154664E+02  0.59301989532E+02  0.50000082989E+02 0.  0.
        -12    1    1    2    0    0 -0.10235525313E+02 -0.58059704724E+01 -0.29635154664E+02  0.31886010468E+02  0.00000000000E+00 0.  1.
         11    1    3    3    0    0  0.18845626673E+02 -0.14607648946E+01  0.62274015948E+01  0.19901557970E+02  0.51100000000E-03 0. -1.
        -11    1    3    3    0    0 -0.41034065422E+01 -0.74472528992E+01  0.22422108107E+02  0.23980209616E+02  0.51100000000E-03 0.  1.
         12    1    3    3    0    0 -0.45066948173E+01  0.14713988266E+02  0.98564496244E+00  0.15420221946E+02  0.00000000000E+00 0. -1.
</event>
<event>
 7    1  0.6515090E-012  0.5930194E+02  0.7816164E-02  0.1266605E+00
        -11   -1    0    0    0    0  0.00000000000E+00  0.00000000000E+00  0.45593999997E+02  0.45594000000E+02  0.51100000000E-03 0. -1.
         11   -1    0    0    0    0 -0.00000000000E+00 -0.00000000000E+00 -0.45593999997E+02  0.45594000000E+02  0.51100000000E-03 0.  1.
    9900012    2    1    2    0    0 -0.22859687335E+02  0.49601182598E+01  0.21669164786E+02  0.59301940652E+02  0.49999993844E+02 0.  0.
        -12    1    1    2    0    0  0.22859687335E+02 -0.49601182598E+01 -0.21669164786E+02  0.31886059348E+02  0.00000000000E+00 0.  1.
         11    1    3    3    0    0 -0.14522157352E+01  0.21336716031E+01  0.48219538727E+01  0.54692526421E+01  0.51100000000E-03 0. -1.
        -11    1    3    3    0    0  0.96448673072E+01 -0.12732128546E+02  0.85753350192E+01  0.18129173551E+02  0.51100000000E-03 0.  1.
        -12    1    3    3    0    0 -0.31052338907E+02  0.15558575203E+02  0.82718758937E+01  0.35703514459E+02  0.00000000000E+00 0.  1.
</event>
<event>
 7    1  0.6515090E-012  0.5930192E+02  0.7816164E-02  0.1266605E+00
        -11   -1    0    0    0    0  0.00000000000E+00  0.00000000000E+00  0.45593999997E+02  0.45594000000E+02  0.51100000000E-03 0. -1.
         11   -1    0    0    0    0 -0.00000000000E+00 -0.00000000000E+00 -0.45593999997E+02  0.45594000000E+02  0.51100000000E-03 0.  1.
    9900012    2    1    2    0    0 -0.21361106405E+02 -0.19585084039E+02 -0.13298494288E+02  0.59301916296E+02  0.49999949424E+02 0.  0.
        -12    1    1    2    0    0  0.21361106405E+02  0.19585084039E+02  0.13298494288E+02  0.31886083704E+02  0.00000000000E+00 0.  1.
         11    1    3    3    0    0 -0.10409143781E+02 -0.10442013059E+01  0.93714796469E+01  0.14045115224E+02  0.51100000000E-03 0. -1.
        -11    1    3    3    0    0 -0.31948229251E+01 -0.53040145049E+01  0.84996412692E+01  0.10515862559E+02  0.51100000000E-03 0.  1.
        -12    1    3    3    0    0 -0.77571396996E+01 -0.13236868228E+02 -0.31169615204E+02  0.34740938513E+02  0.00000000000E+00 0.  1.
</event>
<event>
 7    1  0.6515090E-012  0.5930192E+02  0.7816164E-02  0.1266605E+00
        -11   -1    0    0    0    0  0.00000000000E+00  0.00000000000E+00  0.45593999997E+02  0.45594000000E+02  0.51100000000E-03 0.  1.
         11   -1    0    0    0    0 -0.00000000000E+00 -0.00000000000E+00 -0.45593999997E+02  0.45594000000E+02  0.51100000000E-03 0. -1.
    9900012    2    1    2    0    0 -0.59286858456E+01  0.10944878418E+02 -0.29356131368E+02  0.59301919521E+02  0.49999955305E+02 0.  0.
        -12    1    1    2    0    0  0.59286858456E+01 -0.10944878418E+02  0.29356131368E+02  0.31886080479E+02  0.00000000000E+00 0.  1.
         11    1    3    3    0    0  0.60272495515E+01  0.81141684971E+01 -0.26330068168E+02  0.28203545124E+02  0.51100000000E-03 0. -1.
        -11    1    3    3    0    0  0.34439694326E+01 -0.29156389606E+01 -0.11680721911E+02  0.12522026219E+02  0.51100000000E-03 0.  1.
        -12    1    3    3    0    0 -0.15399904830E+02  0.57463488817E+01  0.86546587108E+01  0.18576348178E+02  0.00000000000E+00 0.  1.
</event>
<event>
 7    1  0.6515090E-012  0.5930191E+02  0.7816164E-02  0.1266605E+00
        -11   -1    0    0    0    0  0.00000000000E+00  0.00000000000E+00  0.45593999997E+02  0.45594000000E+02  0.51100000000E-03 0. -1.
         11   -1    0    0    0    0 -0.00000000000E+00 -0.00000000000E+00 -0.45593999997E+02  0.45594000000E+02  0.51100000000E-03 0.  1.
    9900012    2    1    2    0    0  0.64307013452E+01 -0.13623142190E+02  0.28103000996E+02  0.59301912315E+02  0.49999942163E+02 0.  0.
        -12    1    1    2    0    0 -0.64307013452E+01  0.13623142190E+02 -0.28103000996E+02  0.31886087685E+02  0.00000000000E+00 0.  1.
         11    1    3    3    0    0 -0.46905383225E+01  0.10043720411E+02  0.19544051561E+02  0.22468809962E+02  0.51100000000E-03 0. -1.
        -11    1    3    3    0    0  0.28919559402E+00 -0.12748628683E+01 -0.72455207126E+01  0.73625050140E+01  0.51100000000E-03 0.  1.
        -12    1    3    3    0    0  0.10832044074E+02 -0.22391999733E+02  0.15804470147E+02  0.29470597338E+02  0.00000000000E+00 0.  1.
</event>
<event>
 7    1  0.6515090E-012  0.5930201E+02  0.7816164E-02  0.1266605E+00
        -11   -1    0    0    0    0  0.00000000000E+00  0.00000000000E+00  0.45593999997E+02  0.45594000000E+02  0.51100000000E-03 0. -1.
         11   -1    0    0    0    0 -0.00000000000E+00 -0.00000000000E+00 -0.45593999997E+02  0.45594000000E+02  0.51100000000E-03 0.  1.
    9900012    2    1    2    0    0  0.15601521427E+02  0.57155810288E+01  0.27214716230E+02  0.59302013786E+02  0.50000127222E+02 0.  0.
        -12    1    1    2    0    0 -0.15601521427E+02 -0.57155810288E+01 -0.27214716230E+02  0.31885986214E+02  0.00000000000E+00 0.  1.
         11    1    3    3    0    0  0.22338855738E+02  0.73500662569E+01  0.10037553119E+02  0.25569521359E+02  0.51100000000E-03 0. -1.
        -11    1    3    3    0    0 -0.73970766492E+01  0.11082341160E+02  0.16179195634E+02  0.20959518128E+02  0.51100000000E-03 0.  1.
        -12    1    3    3    0    0  0.65974233895E+00 -0.12716826389E+02  0.99796747783E+00  0.12772974299E+02  0.00000000000E+00 0.  1.
</event>
<event>
 7    1  0.6515090E-012  0.5930194E+02  0.7816164E-02  0.1266605E+00
        -11   -1    0    0    0    0  0.00000000000E+00  0.00000000000E+00  0.45593999997E+02  0.45594000000E+02  0.51100000000E-03 0.  1.
         11   -1    0    0    0    0 -0.00000000000E+00 -0.00000000000E+00 -0.45593999997E+02  0.45594000000E+02  0.51100000000E-03 0. -1.
    9900012    2    1    2    0    0 -0.57575741201E+01 -0.80098654678E+01 -0.30321823913E+02  0.59301943330E+02  0.49999998728E+02 0.  0.
        -12    1    1    2    0    0  0.57575741201E+01  0.80098654678E+01  0.30321823913E+02  0.31886056670E+02  0.00000000000E+00 0.  1.
         11    1    3    3    0    0 -0.63619924554E+01  0.10802956821E+02  0.35040685346E+01  0.13017577372E+02  0.51100000000E-03 0. -1.
        -11    1    3    3    0    0 -0.46352311338E+01  0.22157769947E+01  0.10307438332E+01  0.52399874489E+01  0.51100000000E-03 0.  1.
        -12    1    3    3    0    0  0.52396494691E+01 -0.21028599284E+02 -0.34856636280E+02  0.41044378509E+02  0.00000000000E+00 0.  1.
</event>
<event>
 7    1  0.6515090E-012  0.5930195E+02  0.7816164E-02  0.1266605E+00
        -11   -1    0    0    0    0  0.00000000000E+00  0.00000000000E+00  0.45593999997E+02  0.45594000000E+02  0.51100000000E-03 0.  1.
         11   -1    0    0    0    0 -0.00000000000E+00 -0.00000000000E+00 -0.45593999997E+02  0.45594000000E+02  0.51100000000E-03 0. -1.
    9900012    2    1    2    0    0 -0.23915636534E+02 -0.12352728214E+02 -0.17093056950E+02  0.59301950369E+02  0.50000011565E+02 0.  0.
        -12    1    1    2    0    0  0.23915636534E+02  0.12352728214E+02  0.17093056950E+02  0.31886049631E+02  0.00000000000E+00 0.  1.
         11    1    3    3    0    0  0.13839838402E+01 -0.93193710475E+01 -0.10671053153E+02  0.14235078632E+02  0.51100000000E-03 0. -1.
        -11    1    3    3    0    0 -0.10224734439E+02 -0.17027588228E+02  0.63535882325E+01  0.20853106217E+02  0.51100000000E-03 0.  1.
        -12    1    3    3    0    0 -0.15074885935E+02  0.13994231062E+02 -0.12775592030E+02  0.24213765520E+02  0.00000000000E+00 0.  1.
</event>
<event>
 7    1  0.6515090E-012  0.5930205E+02  0.7816164E-02  0.1266604E+00
        -11   -1    0    0    0    0  0.00000000000E+00  0.00000000000E+00  0.45593999997E+02  0.45594000000E+02  0.51100000000E-03 0.  1.
         11   -1    0    0    0    0 -0.00000000000E+00 -0.00000000000E+00 -0.45593999997E+02  0.45594000000E+02  0.51100000000E-03 0. -1.
    9900012    2    1    2    0    0 -0.23370086891E+00  0.10942120020E+02 -0.29948774767E+02  0.59302051422E+02  0.50000195861E+02 0.  0.
        -12    1    1    2    0    0  0.23370086891E+00 -0.10942120020E+02  0.29948774767E+02  0.31885948578E+02  0.00000000000E+00 0.  1.
         11    1    3    3    0    0  0.10176228835E+02 -0.76865911163E+01 -0.44388623213E+01  0.13503437165E+02  0.51100000000E-03 0.  1.
        -11    1    3    3    0    0  0.40498099549E+01  0.19543391944E+02 -0.48067742370E+01  0.20529252499E+02  0.51100000000E-03 0. -1.
         12    1    3    3    0    0 -0.14459739659E+02 -0.91468080746E+00 -0.20703138209E+02  0.25269361758E+02  0.00000000000E+00 0. -1.
</event>
<event>
 7    1  0.6515090E-012  0.5930227E+02  0.7816164E-02  0.1266604E+00
        -11   -1    0    0    0    0  0.00000000000E+00  0.00000000000E+00  0.45593999997E+02  0.45594000000E+02  0.51100000000E-03 0.  1.
         11   -1    0    0    0    0 -0.00000000000E+00 -0.00000000000E+00 -0.45593999997E+02  0.45594000000E+02  0.51100000000E-03 0. -1.
    9900012    2    1    2    0    0 -0.83904597696E+01 -0.21060709472E+02 -0.22422010714E+02  0.59302268660E+02  0.50000592048E+02 0.  0.
        -12    1    1    2    0    0  0.83904597696E+01  0.21060709472E+02  0.22422010714E+02  0.31885731340E+02  0.00000000000E+00 0.  1.
         11    1    3    3    0    0  0.13735804582E+00 -0.14027957052E+01  0.93473738522E+00  0.16912827273E+01  0.51100000000E-03 0. -1.
        -11    1    3    3    0    0  0.10695543845E+02 -0.19522254079E+02  0.55072055706E+01  0.22931253256E+02  0.51100000000E-03 0.  1.
         12    1    3    3    0    0 -0.19223361660E+02 -0.13565968786E+00 -0.28863953670E+02  0.34679732677E+02  0.00000000000E+00 0. -1.
</event>
<event>
 7    1  0.6515090E-012  0.5930195E+02  0.7816164E-02  0.1266605E+00
        -11   -1    0    0    0    0  0.00000000000E+00  0.00000000000E+00  0.45593999997E+02  0.45594000000E+02  0.51100000000E-03 0.  1.
         11   -1    0    0    0    0 -0.00000000000E+00 -0.00000000000E+00 -0.45593999997E+02  0.45594000000E+02  0.51100000000E-03 0. -1.
    9900012    2    1    2    0    0  0.96039216831E+01 -0.28277291828E+02 -0.11174942493E+02  0.59301954705E+02  0.50000019473E+02 0.  0.
        -12    1    1    2    0    0 -0.96039216831E+01  0.28277291828E+02  0.11174942493E+02  0.31886045295E+02  0.00000000000E+00 0.  1.
         11    1    3    3    0    0  0.16865910994E+01 -0.19480833713E+01 -0.14270841208E+02  0.14501604304E+02  0.51100000000E-03 0. -1.
        -11    1    3    3    0    0  0.90489006137E+01 -0.17943962148E+01 -0.12627026952E+02  0.15637911306E+02  0.51100000000E-03 0.  1.
         12    1    3    3    0    0 -0.11315700300E+01 -0.24534812242E+02  0.15722925667E+02  0.29162439095E+02  0.00000000000E+00 0. -1.
</event>
<event>
 7    1  0.6515090E-012  0.5930200E+02  0.7816164E-02  0.1266605E+00
        -11   -1    0    0    0    0  0.00000000000E+00  0.00000000000E+00  0.45593999997E+02  0.45594000000E+02  0.51100000000E-03 0.  1.
         11   -1    0    0    0    0 -0.00000000000E+00 -0.00000000000E+00 -0.45593999997E+02  0.45594000000E+02  0.51100000000E-03 0. -1.
    9900012    2    1    2    0    0  0.73865703926E+01 -0.30809338352E+02 -0.35972900294E+01  0.59301996058E+02  0.50000094891E+02 0.  0.
        -12    1    1    2    0    0 -0.73865703926E+01  0.30809338352E+02  0.35972900294E+01  0.31886003942E+02  0.00000000000E+00 0.  1.
         11    1    3    3    0    0  0.61975746388E+01  0.29144854316E+01 -0.33001502822E+01  0.76023120747E+01  0.51100000000E-03 0. -1.
        -11    1    3    3    0    0 -0.15307428063E+02 -0.13648614696E+01 -0.53917042867E+00  0.15377610535E+02  0.51100000000E-03 0.  1.
         12    1    3    3    0    0  0.16496423817E+02 -0.32358962314E+02  0.24203068155E+00  0.36322073449E+02  0.00000000000E+00 0. -1.
</event>
<event>
 7    1  0.6515090E-012  0.5930195E+02  0.7816164E-02  0.1266605E+00
        -11   -1    0    0    0    0  0.00000000000E+00  0.00000000000E+00  0.45593999997E+02  0.45594000000E+02  0.51100000000E-03 0.  1.
         11   -1    0    0    0    0 -0.00000000000E+00 -0.00000000000E+00 -0.45593999997E+02  0.45594000000E+02  0.51100000000E-03 0. -1.
    9900012    2    1    2    0    0 -0.17766530933E+02 -0.16128530305E+02 -0.20998590931E+02  0.59301953957E+02  0.50000018108E+02 0.  0.
        -12    1    1    2    0    0  0.17766530933E+02  0.16128530305E+02  0.20998590931E+02  0.31886046043E+02  0.00000000000E+00 0.  1.
         11    1    3    3    0    0  0.45916978267E+01 -0.40008594891E+00 -0.23192195919E+02  0.23645754577E+02  0.51100000000E-03 0. -1.
        -11    1    3    3    0    0 -0.14388939269E+02  0.33386397341E+01 -0.70709499474E+00  0.14788105766E+02  0.51100000000E-03 0.  1.
         12    1    3    3    0    0 -0.79692894913E+01 -0.19067084090E+02  0.29006999827E+01  0.20868093614E+02  0.00000000000E+00 0. -1.
</event>
<event>
 7    1  0.6515090E-012  0.5930195E+02  0.7816164E-02  0.1266605E+00
        -11   -1    0    0    0    0  0.00000000000E+00  0.00000000000E+00  0.45593999997E+02  0.45594000000E+02  0.51100000000E-03 0.  1.
         11   -1    0    0    0    0 -0.00000000000E+00 -0.00000000000E+00 -0.45593999997E+02  0.45594000000E+02  0.51100000000E-03 0. -1.
    9900012    2    1    2    0    0 -0.13356721199E+02 -0.16986165867E+02 -0.23447565434E+02  0.59301950435E+02  0.50000011686E+02 0.  0.
        -12    1    1    2    0    0  0.13356721199E+02  0.16986165867E+02  0.23447565434E+02  0.31886049565E+02  0.00000000000E+00 0.  1.
         11    1    3    3    0    0 -0.17380185662E+02 -0.75448550572E+01 -0.83391206135E+01  0.20701126162E+02  0.51100000000E-03 0. -1.
        -11    1    3    3    0    0 -0.13333617808E+02 -0.78152483703E+01 -0.14445647750E+02  0.21155146185E+02  0.51100000000E-03 0.  1.
        -12    1    3    3    0    0  0.17357082271E+02 -0.16260624397E+01 -0.66279707103E+00  0.17445678089E+02  0.00000000000E+00 0.  1.
</event>
<event>
 7    1  0.6515090E-012  0.5930192E+02  0.7816164E-02  0.1266605E+00
        -11   -1    0    0    0    0  0.00000000000E+00  0.00000000000E+00  0.45593999997E+02  0.45594000000E+02  0.51100000000E-03 0. -1.
         11   -1    0    0    0    0 -0.00000000000E+00 -0.00000000000E+00 -0.45593999997E+02  0.45594000000E+02  0.51100000000E-03 0.  1.
    9900012    2    1    2    0    0  0.93323946933E+01 -0.22425850929E+02  0.20656957354E+02  0.59301917335E+02  0.49999951318E+02 0.  0.
        -12    1    1    2    0    0 -0.93323946933E+01  0.22425850929E+02 -0.20656957354E+02  0.31886082665E+02  0.00000000000E+00 0.  1.
         11    1    3    3    0    0 -0.49366798957E+01 -0.10327072714E+02  0.59504511787E+01  0.12900663112E+02  0.51100000000E-03 0. -1.
        -11    1    3    3    0    0 -0.56735409357E+01 -0.20465318790E+02  0.20316093322E+01  0.21334145792E+02  0.51100000000E-03 0.  1.
        -12    1    3    3    0    0  0.19942615525E+02  0.83665405741E+01  0.12674896843E+02  0.25067108432E+02  0.00000000000E+00 0.  1.
</event>
<event>
 7    1  0.6515090E-012  0.5930187E+02  0.7816164E-02  0.1266605E+00
        -11   -1    0    0    0    0  0.00000000000E+00  0.00000000000E+00  0.45593999997E+02  0.45594000000E+02  0.51100000000E-03 0.  1.
         11   -1    0    0    0    0 -0.00000000000E+00 -0.00000000000E+00 -0.45593999997E+02  0.45594000000E+02  0.51100000000E-03 0. -1.
    9900012    2    1    2    0    0  0.28889521274E+02  0.85790928406E+01 -0.10417279585E+02  0.59301874689E+02  0.49999873542E+02 0.  0.
        -12    1    1    2    0    0 -0.28889521274E+02 -0.85790928406E+01  0.10417279585E+02  0.31886125311E+02  0.00000000000E+00 0.  1.
         11    1    3    3    0    0  0.23180251110E+00  0.24224336086E+01  0.28235627392E+01  0.37275224742E+01  0.51100000000E-03 0. -1.
        -11    1    3    3    0    0  0.49447151965E+01 -0.94088541479E+01  0.13096617211E+02  0.16867072283E+02  0.51100000000E-03 0.  1.
         12    1    3    3    0    0  0.23713003567E+02  0.15565513380E+02 -0.26337459536E+02  0.38707279932E+02  0.00000000000E+00 0. -1.
</event>
<event>
 7    1  0.6515090E-012  0.5930194E+02  0.7816164E-02  0.1266605E+00
        -11   -1    0    0    0    0  0.00000000000E+00  0.00000000000E+00  0.45593999997E+02  0.45594000000E+02  0.51100000000E-03 0.  1.
         11   -1    0    0    0    0 -0.00000000000E+00 -0.00000000000E+00 -0.45593999997E+02  0.45594000000E+02  0.51100000000E-03 0. -1.
    9900012    2    1    2    0    0 -0.13704022546E+02 -0.27477559328E+02 -0.85967677377E+01  0.59301938529E+02  0.49999989972E+02 0.  0.
        -12    1    1    2    0    0  0.13704022546E+02  0.27477559328E+02  0.85967677377E+01  0.31886061471E+02  0.00000000000E+00 0.  1.
         11    1    3    3    0    0 -0.19531302719E+02 -0.15439094447E+02  0.89195656039E+00  0.24912507100E+02  0.51100000000E-03 0. -1.
        -11    1    3    3    0    0 -0.30220285925E+01  0.65572186607E+01  0.53670984278E+01  0.89964170186E+01  0.51100000000E-03 0.  1.
        -12    1    3    3    0    0  0.88493087654E+01 -0.18595683542E+02 -0.14855822726E+02  0.25393014411E+02  0.00000000000E+00 0.  1.
</event>
<event>
 7    1  0.6515090E-012  0.5930198E+02  0.7816164E-02  0.1266605E+00
        -11   -1    0    0    0    0  0.00000000000E+00  0.00000000000E+00  0.45593999997E+02  0.45594000000E+02  0.51100000000E-03 0.  1.
         11   -1    0    0    0    0 -0.00000000000E+00 -0.00000000000E+00 -0.45593999997E+02  0.45594000000E+02  0.51100000000E-03 0. -1.
    9900012    2    1    2    0    0 -0.86639956993E+01  0.12711086215E+02 -0.27929940593E+02  0.59301982441E+02  0.50000070057E+02 0.  0.
        -12    1    1    2    0    0  0.86639956993E+01 -0.12711086215E+02  0.27929940593E+02  0.31886017559E+02  0.00000000000E+00 0.  1.
         11    1    3    3    0    0  0.51697704057E+01  0.10334708848E+02 -0.41391367297E+01  0.12274574785E+02  0.51100000000E-03 0. -1.
        -11    1    3    3    0    0  0.51025110650E+01 -0.10324041671E+02  0.29475445811E+01  0.11887366189E+02  0.51100000000E-03 0.  1.
         12    1    3    3    0    0 -0.18936277170E+02  0.12700419038E+02 -0.26738348444E+02  0.35140041468E+02  0.00000000000E+00 0. -1.
</event>
<event>
 7    1  0.6515090E-012  0.5930169E+02  0.7816164E-02  0.1266606E+00
        -11   -1    0    0    0    0  0.00000000000E+00  0.00000000000E+00  0.45593999997E+02  0.45594000000E+02  0.51100000000E-03 0.  1.
         11   -1    0    0    0    0 -0.00000000000E+00 -0.00000000000E+00 -0.45593999997E+02  0.45594000000E+02  0.51100000000E-03 0. -1.
    9900012    2    1    2    0    0  0.28439115121E+02 -0.58858799737E+01 -0.13164724109E+02  0.59301689257E+02  0.49999535357E+02 0.  0.
        -12    1    1    2    0    0 -0.28439115121E+02  0.58858799737E+01  0.13164724109E+02  0.31886310743E+02  0.00000000000E+00 0.  1.
         11    1    3    3    0    0  0.66670403272E+01  0.20682560052E+01 -0.42705636784E+01  0.81832037748E+01  0.51100000000E-03 0. -1.
        -11    1    3    3    0    0 -0.12444930176E+02  0.16612647890E+01 -0.92159758351E+01  0.15574668492E+02  0.51100000000E-03 0.  1.
        -12    1    3    3    0    0  0.34217004970E+02 -0.96154007679E+01  0.32181540418E+00  0.35543816990E+02  0.00000000000E+00 0.  1.
</event>
<event>
 7    1  0.6515090E-012  0.5930193E+02  0.7816164E-02  0.1266605E+00
        -11   -1    0    0    0    0  0.00000000000E+00  0.00000000000E+00  0.45593999997E+02  0.45594000000E+02  0.51100000000E-03 0.  1.
         11   -1    0    0    0    0 -0.00000000000E+00 -0.00000000000E+00 -0.45593999997E+02  0.45594000000E+02  0.51100000000E-03 0. -1.
    9900012    2    1    2    0    0  0.19649994071E+02 -0.15378696315E+02 -0.19851817079E+02  0.59301933942E+02  0.49999981606E+02 0.  0.
        -12    1    1    2    0    0 -0.19649994071E+02  0.15378696315E+02  0.19851817079E+02  0.31886066058E+02  0.00000000000E+00 0.  1.
         11    1    3    3    0    0  0.11581757595E+02  0.47891973734E+00 -0.59108005451E+01  0.13011688455E+02  0.51100000000E-03 0. -1.
        -11    1    3    3    0    0  0.15973613290E+02  0.88069498793E+01 -0.57697217866E+01  0.19131345417E+02  0.51100000000E-03 0.  1.
         12    1    3    3    0    0 -0.79053768138E+01 -0.24664565931E+02 -0.81712947474E+01  0.27158900070E+02  0.00000000000E+00 0. -1.
</event>
<event>
 7    1  0.6515090E-012  0.5930194E+02  0.7816164E-02  0.1266605E+00
        -11   -1    0    0    0    0  0.00000000000E+00  0.00000000000E+00  0.45593999997E+02  0.45594000000E+02  0.51100000000E-03 0. -1.
         11   -1    0    0    0    0 -0.00000000000E+00 -0.00000000000E+00 -0.45593999997E+02  0.45594000000E+02  0.51100000000E-03 0.  1.
    9900012    2    1    2    0    0 -0.23000779805E+02  0.66276380757E+00  0.22073643189E+02  0.59301939548E+02  0.49999991831E+02 0.  0.
        -12    1    1    2    0    0  0.23000779805E+02 -0.66276380757E+00 -0.22073643189E+02  0.31886060452E+02  0.00000000000E+00 0.  1.
         11    1    3    3    0    0 -0.31105997548E+02 -0.49223505906E+01  0.13459461690E+02  0.34248645638E+02  0.51100000000E-03 0. -1.
        -11    1    3    3    0    0 -0.26929565286E+01 -0.56947085604E+01 -0.14653014915E+01  0.64675210997E+01  0.51100000000E-03 0.  1.
        -12    1    3    3    0    0  0.10798174272E+02  0.11279822958E+02  0.10079482991E+02  0.18585772810E+02  0.00000000000E+00 0.  1.
</event>
<event>
 7    1  0.6515090E-012  0.5930195E+02  0.7816164E-02  0.1266605E+00
        -11   -1    0    0    0    0  0.00000000000E+00  0.00000000000E+00  0.45593999997E+02  0.45594000000E+02  0.51100000000E-03 0. -1.
         11   -1    0    0    0    0 -0.00000000000E+00 -0.00000000000E+00 -0.45593999997E+02  0.45594000000E+02  0.51100000000E-03 0.  1.
    9900012    2    1    2    0    0 -0.19414888203E+02  0.57633135016E+01  0.24628570291E+02  0.59301950683E+02  0.50000012137E+02 0.  0.
        -12    1    1    2    0    0  0.19414888203E+02 -0.57633135016E+01 -0.24628570291E+02  0.31886049317E+02  0.00000000000E+00 0.  1.
         11    1    3    3    0    0 -0.15289808327E+02 -0.79817019989E+01  0.10763284936E+02  0.20330619970E+02  0.51100000000E-03 0. -1.
        -11    1    3    3    0    0  0.88428269450E+01 -0.19713175237E+01 -0.57156220514E+01  0.10712143430E+02  0.51100000000E-03 0.  1.
         12    1    3    3    0    0 -0.12967906821E+02  0.15716333024E+02  0.19580907406E+02  0.28259187283E+02  0.00000000000E+00 0. -1.
</event>
<event>
 7    1  0.6515090E-012  0.5930209E+02  0.7816164E-02  0.1266604E+00
        -11   -1    0    0    0    0  0.00000000000E+00  0.00000000000E+00  0.45593999997E+02  0.45594000000E+02  0.51100000000E-03 0.  1.
         11   -1    0    0    0    0 -0.00000000000E+00 -0.00000000000E+00 -0.45593999997E+02  0.45594000000E+02  0.51100000000E-03 0. -1.
    9900012    2    1    2    0    0 -0.77860397547E+01  0.25802651650E+02 -0.17038536142E+02  0.59302094633E+02  0.50000274666E+02 0.  0.
        -12    1    1    2    0    0  0.77860397547E+01 -0.25802651650E+02  0.17038536142E+02  0.31885905367E+02  0.00000000000E+00 0.  1.
         11    1    3    3    0    0 -0.62446018264E+01  0.31711735635E+02 -0.26934902560E+02  0.42072772729E+02  0.51100000000E-03 0. -1.
        -11    1    3    3    0    0 -0.56320976514E+01  0.27024455705E+00  0.11306013572E+01  0.57508100095E+01  0.51100000000E-03 0.  1.
        -12    1    3    3    0    0  0.40906597230E+01 -0.61793285418E+01  0.87657650609E+01  0.11478511894E+02  0.00000000000E+00 0.  1.
</event>
<event>
 7    1  0.6515090E-012  0.5930172E+02  0.7816164E-02  0.1266606E+00
        -11   -1    0    0    0    0  0.00000000000E+00  0.00000000000E+00  0.45593999997E+02  0.45594000000E+02  0.51100000000E-03 0.  1.
         11   -1    0    0    0    0 -0.00000000000E+00 -0.00000000000E+00 -0.45593999997E+02  0.45594000000E+02  0.51100000000E-03 0. -1.
    9900012    2    1    2    0    0  0.21197828536E+02  0.22975766174E+02 -0.62849899890E+01  0.59301719799E+02  0.49999591059E+02 0.  0.
        -12    1    1    2    0    0 -0.21197828536E+02 -0.22975766174E+02  0.62849899890E+01  0.31886280201E+02  0.00000000000E+00 0.  1.
         11    1    3    3    0    0  0.20739021400E+01  0.57029749473E+01 -0.56526922095E+01  0.82932456139E+01  0.51100000000E-03 0. -1.
        -11    1    3    3    0    0 -0.46888362621E+01  0.25394434034E+02 -0.10556361250E+01  0.25845247789E+02  0.51100000000E-03 0.  1.
         12    1    3    3    0    0  0.23812762658E+02 -0.81216428077E+01  0.42333834551E+00  0.25163226396E+02  0.00000000000E+00 0. -1.
</event>
<event>
 7    1  0.6515090E-012  0.5930194E+02  0.7816164E-02  0.1266605E+00
        -11   -1    0    0    0    0  0.00000000000E+00  0.00000000000E+00  0.45593999997E+02  0.45594000000E+02  0.51100000000E-03 0.  1.
         11   -1    0    0    0    0 -0.00000000000E+00 -0.00000000000E+00 -0.45593999997E+02  0.45594000000E+02  0.51100000000E-03 0. -1.
    9900012    2    1    2    0    0  0.17043575959E+02 -0.11000861925E+02 -0.24601187683E+02  0.59301939096E+02  0.49999991005E+02 0.  0.
        -12    1    1    2    0    0 -0.17043575959E+02  0.11000861925E+02  0.24601187683E+02  0.31886060904E+02  0.00000000000E+00 0.  1.
         11    1    3    3    0    0 -0.33974273457E+01 -0.23498195052E+01  0.89291352355E+01  0.98383748958E+01  0.51100000000E-03 0. -1.
        -11    1    3    3    0    0 -0.54405780830E+01  0.26664915832E-01  0.91089000368E+00  0.55163685297E+01  0.51100000000E-03 0.  1.
         12    1    3    3    0    0  0.25881581387E+02 -0.86777073353E+01 -0.34441212923E+02  0.43947195670E+02  0.00000000000E+00 0. -1.
</event>
<event>
 7    1  0.6515090E-012  0.5930194E+02  0.7816164E-02  0.1266605E+00
        -11   -1    0    0    0    0  0.00000000000E+00  0.00000000000E+00  0.45593999997E+02  0.45594000000E+02  0.51100000000E-03 0.  1.
         11   -1    0    0    0    0 -0.00000000000E+00 -0.00000000000E+00 -0.45593999997E+02  0.45594000000E+02  0.51100000000E-03 0. -1.
    9900012    2    1    2    0    0  0.16420354659E+02  0.15502402657E+02 -0.22511509540E+02  0.59301943533E+02  0.49999999098E+02 0.  0.
        -12    1    1    2    0    0 -0.16420354659E+02 -0.15502402657E+02  0.22511509540E+02  0.31886056467E+02  0.00000000000E+00 0.  1.
         11    1    3    3    0    0  0.23588489310E+02  0.23051793549E+01 -0.23642551710E+01  0.23818488251E+02  0.51100000000E-03 0. -1.
        -11    1    3    3    0    0 -0.66493163325E+01 -0.16685473614E+01  0.33838442222E+01  0.76451200100E+01  0.51100000000E-03 0.  1.
         12    1    3    3    0    0 -0.51881831850E+00  0.14865770664E+02 -0.23531098591E+02  0.27838335273E+02  0.00000000000E+00 0. -1.
</event>
<event>
 7    1  0.6515090E-012  0.5930188E+02  0.7816164E-02  0.1266605E+00
        -11   -1    0    0    0    0  0.00000000000E+00  0.00000000000E+00  0.45593999997E+02  0.45594000000E+02  0.51100000000E-03 0. -1.
         11   -1    0    0    0    0 -0.00000000000E+00 -0.00000000000E+00 -0.45593999997E+02  0.45594000000E+02  0.51100000000E-03 0.  1.
    9900012    2    1    2    0    0 -0.24215209177E+02  0.18059206945E+02 -0.10208496649E+02  0.59301878963E+02  0.49999881337E+02 0.  0.
        -12    1    1    2    0    0  0.24215209177E+02 -0.18059206945E+02  0.10208496649E+02  0.31886121037E+02  0.00000000000E+00 0.  1.
         11    1    3    3    0    0 -0.26626551195E+01 -0.14075117548E+02 -0.24059930336E+01  0.14525407705E+02  0.51100000000E-03 0. -1.
        -11    1    3    3    0    0 -0.49567218413E+01 -0.23960734478E+01 -0.26830118262E+01  0.61244438196E+01  0.51100000000E-03 0.  1.
         12    1    3    3    0    0 -0.16595832217E+02  0.34530397940E+02 -0.51194917893E+01  0.38652027438E+02  0.00000000000E+00 0. -1.
</event>
<event>
 7    1  0.6515090E-012  0.5930195E+02  0.7816164E-02  0.1266605E+00
        -11   -1    0    0    0    0  0.00000000000E+00  0.00000000000E+00  0.45593999997E+02  0.45594000000E+02  0.51100000000E-03 0.  1.
         11   -1    0    0    0    0 -0.00000000000E+00 -0.00000000000E+00 -0.45593999997E+02  0.45594000000E+02  0.51100000000E-03 0. -1.
    9900012    2    1    2    0    0 -0.26974369738E+02  0.73070317264E+01 -0.15352884440E+02  0.59301946684E+02  0.50000004845E+02 0.  0.
        -12    1    1    2    0    0  0.26974369738E+02 -0.73070317264E+01  0.15352884440E+02  0.31886053316E+02  0.00000000000E+00 0.  1.
         11    1    3    3    0    0 -0.10141704332E+02  0.53567989273E+01 -0.39477555666E+00  0.11476293370E+02  0.51100000000E-03 0. -1.
        -11    1    3    3    0    0 -0.15231152365E+02  0.62372097974E+01  0.12071690107E+02  0.20411185432E+02  0.51100000000E-03 0.  1.
         12    1    3    3    0    0 -0.16015130414E+01 -0.42869769984E+01 -0.27029798991E+02  0.27414467883E+02  0.00000000000E+00 0. -1.
</event>
<event>
 7    1  0.6515090E-012  0.5930195E+02  0.7816164E-02  0.1266605E+00
        -11   -1    0    0    0    0  0.00000000000E+00  0.00000000000E+00  0.45593999997E+02  0.45594000000E+02  0.51100000000E-03 0. -1.
         11   -1    0    0    0    0 -0.00000000000E+00 -0.00000000000E+00 -0.45593999997E+02  0.45594000000E+02  0.51100000000E-03 0.  1.
    9900012    2    1    2    0    0 -0.10445777800E+02  0.26732155211E+02  0.13892369559E+02  0.59301947751E+02  0.50000006790E+02 0.  0.
        -12    1    1    2    0    0  0.10445777800E+02 -0.26732155211E+02 -0.13892369559E+02  0.31886052249E+02  0.00000000000E+00 0.  1.
         11    1    3    3    0    0 -0.81303417626E+01  0.26665594593E+02  0.15293130177E+02  0.31796795798E+02  0.51100000000E-03 0. -1.
        -11    1    3    3    0    0 -0.14773420388E+02 -0.16761326004E+01 -0.13068000591E+01  0.14925518320E+02  0.51100000000E-03 0.  1.
         12    1    3    3    0    0  0.12457984351E+02  0.17426932192E+01 -0.93960559606E-01  0.12579633633E+02  0.00000000000E+00 0. -1.
</event>
<event>
 7    1  0.6515090E-012  0.5930193E+02  0.7816164E-02  0.1266605E+00
        -11   -1    0    0    0    0  0.00000000000E+00  0.00000000000E+00  0.45593999997E+02  0.45594000000E+02  0.51100000000E-03 0. -1.
         11   -1    0    0    0    0 -0.00000000000E+00 -0.00000000000E+00 -0.45593999997E+02  0.45594000000E+02  0.51100000000E-03 0.  1.
    9900012    2    1    2    0    0 -0.15311763399E+02  0.10282545500E+01  0.27950207987E+02  0.59301928867E+02  0.49999972350E+02 0.  0.
        -12    1    1    2    0    0  0.15311763399E+02 -0.10282545500E+01 -0.27950207987E+02  0.31886071133E+02  0.00000000000E+00 0.  1.
         11    1    3    3    0    0  0.89082589659E+00  0.99605732054E+01 -0.22218452259E+01  0.10244178143E+02  0.51100000000E-03 0.  1.
        -11    1    3    3    0    0  0.49422046393E+01 -0.70516676622E+01 -0.34651115658E+01  0.92821550267E+01  0.51100000000E-03 0. -1.
         12    1    3    3    0    0 -0.21144793935E+02 -0.18806509932E+01  0.33637164779E+02  0.39775595697E+02  0.00000000000E+00 0. -1.
</event>
<event>
 7    1  0.6515090E-012  0.5930197E+02  0.7816164E-02  0.1266605E+00
        -11   -1    0    0    0    0  0.00000000000E+00  0.00000000000E+00  0.45593999997E+02  0.45594000000E+02  0.51100000000E-03 0.  1.
         11   -1    0    0    0    0 -0.00000000000E+00 -0.00000000000E+00 -0.45593999997E+02  0.45594000000E+02  0.51100000000E-03 0. -1.
    9900012    2    1    2    0    0 -0.38497120196E+01 -0.31124613767E+02 -0.57582282072E+01  0.59301967684E+02  0.50000043144E+02 0.  0.
        -12    1    1    2    0    0  0.38497120196E+01  0.31124613767E+02  0.57582282072E+01  0.31886032316E+02  0.00000000000E+00 0.  1.
         11    1    3    3    0    0  0.44394559461E+01  0.99048032147E+01 -0.32173671710E+01  0.11321013541E+02  0.51100000000E-03 0.  1.
        -11    1    3    3    0    0 -0.12569207483E+02 -0.12024343054E+02 -0.61296954650E+01  0.18442965309E+02  0.51100000000E-03 0. -1.
         12    1    3    3    0    0  0.42800395175E+01 -0.29005073928E+02  0.35888344287E+01  0.29537988834E+02  0.00000000000E+00 0. -1.
</event>
<event>
 7    1  0.6515090E-012  0.5930215E+02  0.7816164E-02  0.1266604E+00
        -11   -1    0    0    0    0  0.00000000000E+00  0.00000000000E+00  0.45593999997E+02  0.45594000000E+02  0.51100000000E-03 0.  1.
         11   -1    0    0    0    0 -0.00000000000E+00 -0.00000000000E+00 -0.45593999997E+02  0.45594000000E+02  0.51100000000E-03 0. -1.
    9900012    2    1    2    0    0  0.22896481357E+02  0.21897790173E+02 -0.35979274618E+01  0.59302154316E+02  0.50000383514E+02 0.  0.
        -12    1    1    2    0    0 -0.22896481357E+02 -0.21897790173E+02  0.35979274618E+01  0.31885845684E+02  0.00000000000E+00 0.  1.
         11    1    3    3    0    0  0.15094232684E+02  0.96476539609E+01 -0.35328648745E+01  0.18259086005E+02  0.51100000000E-03 0. -1.
        -11    1    3    3    0    0  0.20602360030E+02  0.14856057333E+02  0.67886653352E+01  0.26291551030E+02  0.51100000000E-03 0.  1.
        -12    1    3    3    0    0 -0.12800111357E+02 -0.26059211211E+01 -0.68537279225E+01  0.14751517281E+02  0.00000000000E+00 0.  1.
</event>
<event>
 7    1  0.6515090E-012  0.5930192E+02  0.7816164E-02  0.1266605E+00
        -11   -1    0    0    0    0  0.00000000000E+00  0.00000000000E+00  0.45593999997E+02  0.45594000000E+02  0.51100000000E-03 0.  1.
         11   -1    0    0    0    0 -0.00000000000E+00 -0.00000000000E+00 -0.45593999997E+02  0.45594000000E+02  0.51100000000E-03 0. -1.
    9900012    2    1    2    0    0 -0.24731571959E+02  0.54145108680E+01 -0.19384393534E+02  0.59301916951E+02  0.49999950619E+02 0.  0.
        -12    1    1    2    0    0  0.24731571959E+02 -0.54145108680E+01  0.19384393534E+02  0.31886083049E+02  0.00000000000E+00 0.  1.
         11    1    3    3    0    0  0.12190852220E+01 -0.17291486783E+01 -0.23560688855E+02  0.23655489500E+02  0.51100000000E-03 0.  1.
        -11    1    3    3    0    0 -0.18521309582E+02  0.12059686704E+02 -0.52082730078E+01  0.22706850508E+02  0.51100000000E-03 0. -1.
        -12    1    3    3    0    0 -0.74293475988E+01 -0.49160271576E+01  0.93845683280E+01  0.12939576943E+02  0.00000000000E+00 0.  1.
</event>
<event>
 7    1  0.6515090E-012  0.5930200E+02  0.7816164E-02  0.1266605E+00
        -11   -1    0    0    0    0  0.00000000000E+00  0.00000000000E+00  0.45593999997E+02  0.45594000000E+02  0.51100000000E-03 0.  1.
         11   -1    0    0    0    0 -0.00000000000E+00 -0.00000000000E+00 -0.45593999997E+02  0.45594000000E+02  0.51100000000E-03 0. -1.
    9900012    2    1    2    0    0  0.83355621220E+01  0.20265094192E+02 -0.23163789546E+02  0.59302003314E+02  0.50000108124E+02 0.  0.
        -12    1    1    2    0    0 -0.83355621220E+01 -0.20265094192E+02  0.23163789546E+02  0.31885996686E+02  0.00000000000E+00 0.  1.
         11    1    3    3    0    0 -0.13055507871E+02  0.77552563421E+01  0.16757945167E+01  0.15277387676E+02  0.51100000000E-03 0. -1.
        -11    1    3    3    0    0  0.83018175717E+01 -0.17081390952E+01  0.39493437344E+01  0.93506807429E+01  0.51100000000E-03 0.  1.
         12    1    3    3    0    0  0.13089252421E+02  0.14217976945E+02 -0.28788927797E+02  0.34673934895E+02  0.00000000000E+00 0. -1.
</event>
<event>
 7    1  0.6515090E-012  0.5930195E+02  0.7816164E-02  0.1266605E+00
        -11   -1    0    0    0    0  0.00000000000E+00  0.00000000000E+00  0.45593999997E+02  0.45594000000E+02  0.51100000000E-03 0. -1.
         11   -1    0    0    0    0 -0.00000000000E+00 -0.00000000000E+00 -0.45593999997E+02  0.45594000000E+02  0.51100000000E-03 0.  1.
    9900012    2    1    2    0    0 -0.41272237470E+01 -0.19633025700E+02  0.24783680184E+02  0.59301945408E+02  0.50000002517E+02 0.  0.
        -12    1    1    2    0    0  0.41272237470E+01  0.19633025700E+02 -0.24783680184E+02  0.31886054592E+02  0.00000000000E+00 0.  1.
         11    1    3    3    0    0 -0.20424798742E+01 -0.20832452900E+02  0.93811655371E+00  0.20953350109E+02  0.51100000000E-03 0. -1.
        -11    1    3    3    0    0 -0.15879070652E+02  0.76438737147E+00  0.15593494419E+02  0.22268503346E+02  0.51100000000E-03 0.  1.
         12    1    3    3    0    0  0.13794326779E+02  0.43503982913E+00  0.82520692114E+01  0.16080091952E+02  0.00000000000E+00 0. -1.
</event>
<event>
 7    1  0.6515090E-012  0.5930195E+02  0.7816164E-02  0.1266605E+00
        -11   -1    0    0    0    0  0.00000000000E+00  0.00000000000E+00  0.45593999997E+02  0.45594000000E+02  0.51100000000E-03 0.  1.
         11   -1    0    0    0    0 -0.00000000000E+00 -0.00000000000E+00 -0.45593999997E+02  0.45594000000E+02  0.51100000000E-03 0. -1.
    9900012    2    1    2    0    0  0.55148733388E+01 -0.68840518645E+01 -0.30641737060E+02  0.59301952141E+02  0.50000014796E+02 0.  0.
        -12    1    1    2    0    0 -0.55148733388E+01  0.68840518645E+01  0.30641737060E+02  0.31886047859E+02  0.00000000000E+00 0.  1.
         11    1    3    3    0    0 -0.36886287916E+01  0.25924534389E+00 -0.77585636013E+01  0.85946785819E+01  0.51100000000E-03 0. -1.
        -11    1    3    3    0    0  0.14803644355E+02  0.87901343977E+01  0.51580877510E+01  0.17972763238E+02  0.51100000000E-03 0.  1.
         12    1    3    3    0    0 -0.56001422242E+01 -0.15933431606E+02 -0.28041261210E+02  0.32734510321E+02  0.00000000000E+00 0. -1.
</event>
<event>
 7    1  0.6515090E-012  0.5930198E+02  0.7816164E-02  0.1266605E+00
        -11   -1    0    0    0    0  0.00000000000E+00  0.00000000000E+00  0.45593999997E+02  0.45594000000E+02  0.51100000000E-03 0.  1.
         11   -1    0    0    0    0 -0.00000000000E+00 -0.00000000000E+00 -0.45593999997E+02  0.45594000000E+02  0.51100000000E-03 0. -1.
    9900012    2    1    2    0    0 -0.26983532020E+02 -0.16676041409E+02 -0.32430182674E+01  0.59301976026E+02  0.50000058358E+02 0.  0.
        -12    1    1    2    0    0  0.26983532020E+02  0.16676041409E+02  0.32430182674E+01  0.31886023974E+02  0.00000000000E+00 0.  1.
         11    1    3    3    0    0 -0.84027784580E+01 -0.59966445009E+01 -0.14403775282E+02  0.17721037603E+02  0.51100000000E-03 0. -1.
        -11    1    3    3    0    0 -0.24949415197E+02 -0.10267432834E+02 -0.18979459041E+01  0.27046177079E+02  0.51100000000E-03 0.  1.
        -12    1    3    3    0    0  0.63686616352E+01 -0.41196407426E+00  0.13058702919E+02  0.14534761344E+02  0.00000000000E+00 0.  1.
</event>
<event>
 7    1  0.6515090E-012  0.5930190E+02  0.7816164E-02  0.1266605E+00
        -11   -1    0    0    0    0  0.00000000000E+00  0.00000000000E+00  0.45593999997E+02  0.45594000000E+02  0.51100000000E-03 0. -1.
         11   -1    0    0    0    0 -0.00000000000E+00 -0.00000000000E+00 -0.45593999997E+02  0.45594000000E+02  0.51100000000E-03 0.  1.
    9900012    2    1    2    0    0  0.11008304640E+02 -0.16893274669E+02  0.24701379452E+02  0.59301895708E+02  0.49999911877E+02 0.  0.
        -12    1    1    2    0    0 -0.11008304640E+02  0.16893274669E+02 -0.24701379452E+02  0.31886104292E+02  0.00000000000E+00 0.  1.
         11    1    3    3    0    0  0.15048656797E+02  0.26434477878E+01  0.12075212301E+01  0.15326708563E+02  0.51100000000E-03 0.  1.
        -11    1    3    3    0    0 -0.88859230703E+01 -0.25385280845E+02  0.10396619190E+02  0.28835079386E+02  0.51100000000E-03 0. -1.
         12    1    3    3    0    0  0.48455709134E+01  0.58485583877E+01  0.13097239032E+02  0.15140107759E+02  0.00000000000E+00 0. -1.
</event>
<event>
 7    1  0.6515090E-012  0.5930202E+02  0.7816164E-02  0.1266605E+00
        -11   -1    0    0    0    0  0.00000000000E+00  0.00000000000E+00  0.45593999997E+02  0.45594000000E+02  0.51100000000E-03 0. -1.
         11   -1    0    0    0    0 -0.00000000000E+00 -0.00000000000E+00 -0.45593999997E+02  0.45594000000E+02  0.51100000000E-03 0.  1.
    9900012    2    1    2    0    0 -0.18970353591E+02  0.11251700006E+02  0.23026958673E+02  0.59302017278E+02  0.50000133591E+02 0.  0.
        -12    1    1    2    0    0  0.18970353591E+02 -0.11251700006E+02 -0.23026958673E+02  0.31885982722E+02  0.00000000000E+00 0.  1.
         11    1    3    3    0    0 -0.57459784423E+01  0.77026643682E+01 -0.11198405391E+00  0.96104030778E+01  0.51100000000E-03 0. -1.
        -11    1    3    3    0    0  0.14653938145E+02 -0.35504353356E+01  0.97891155040E+01  0.17976937360E+02  0.51100000000E-03 0.  1.
         12    1    3    3    0    0 -0.27878313294E+02  0.70994709731E+01  0.13349827223E+02  0.31714676841E+02  0.00000000000E+00 0. -1.
</event>
<event>
 7    1  0.6515090E-012  0.5930191E+02  0.7816164E-02  0.1266605E+00
        -11   -1    0    0    0    0  0.00000000000E+00  0.00000000000E+00  0.45593999997E+02  0.45594000000E+02  0.51100000000E-03 0. -1.
         11   -1    0    0    0    0 -0.00000000000E+00 -0.00000000000E+00 -0.45593999997E+02  0.45594000000E+02  0.51100000000E-03 0.  1.
    9900012    2    1    2    0    0 -0.92973766969E+01 -0.20832353813E+02  0.22277662414E+02  0.59301914925E+02  0.49999946923E+02 0.  0.
        -12    1    1    2    0    0  0.92973766969E+01  0.20832353813E+02 -0.22277662414E+02  0.31886085075E+02  0.00000000000E+00 0.  1.
         11    1    3    3    0    0  0.14754013268E+02 -0.75782897474E+01  0.71763275997E+01  0.18072383935E+02  0.51100000000E-03 0. -1.
        -11    1    3    3    0    0 -0.28711844436E+01 -0.16574572959E+02  0.51382937490E+01  0.17588696137E+02  0.51100000000E-03 0.  1.
        -12    1    3    3    0    0 -0.21180205522E+02  0.33205088941E+01  0.99630410649E+01  0.23640834852E+02  0.00000000000E+00 0.  1.
</event>
<event>
 7    1  0.6515090E-012  0.5930202E+02  0.7816164E-02  0.1266604E+00
        -11   -1    0    0    0    0  0.00000000000E+00  0.00000000000E+00  0.45593999997E+02  0.45594000000E+02  0.51100000000E-03 0.  1.
         11   -1    0    0    0    0 -0.00000000000E+00 -0.00000000000E+00 -0.45593999997E+02  0.45594000000E+02  0.51100000000E-03 0. -1.
    9900012    2    1    2    0    0 -0.28060943234E+02  0.14325881510E+02 -0.49059456725E+01  0.59302020022E+02  0.50000138594E+02 0.  0.
        -12    1    1    2    0    0  0.28060943234E+02 -0.14325881510E+02  0.49059456725E+01  0.31885979978E+02  0.00000000000E+00 0.  1.
         11    1    3    3    0    0 -0.14641652178E+02 -0.28153249691E+01 -0.13631587173E+02  0.20202084108E+02  0.51100000000E-03 0. -1.
        -11    1    3    3    0    0 -0.67569520297E+01 -0.85089097985E+01 -0.90494448294E+00  0.10903067067E+02  0.51100000000E-03 0.  1.
         12    1    3    3    0    0 -0.66623390272E+01  0.25650116278E+02  0.96305859838E+01  0.28196868847E+02  0.00000000000E+00 0. -1.
</event>
<event>
 7    1  0.6515090E-012  0.5930195E+02  0.7816164E-02  0.1266605E+00
        -11   -1    0    0    0    0  0.00000000000E+00  0.00000000000E+00  0.45593999997E+02  0.45594000000E+02  0.51100000000E-03 0.  1.
         11   -1    0    0    0    0 -0.00000000000E+00 -0.00000000000E+00 -0.45593999997E+02  0.45594000000E+02  0.51100000000E-03 0. -1.
    9900012    2    1    2    0    0  0.18919293982E+02  0.12586244432E+02 -0.22368880392E+02  0.59301952210E+02  0.50000014922E+02 0.  0.
        -12    1    1    2    0    0 -0.18919293982E+02 -0.12586244432E+02  0.22368880392E+02  0.31886047790E+02  0.00000000000E+00 0.  1.
         11    1    3    3    0    0  0.84140467913E+01  0.32431416529E+01 -0.22061306394E+02  0.23833073475E+02  0.51100000000E-03 0. -1.
        -11    1    3    3    0    0 -0.18863898433E+01 -0.11245078513E+02 -0.84198401769E+00  0.11433249527E+02  0.51100000000E-03 0.  1.
        -12    1    3    3    0    0  0.12391637034E+02  0.20588181292E+02  0.53441002006E+00  0.24035629207E+02  0.00000000000E+00 0.  1.
</event>
<event>
 7    1  0.6515090E-012  0.5930194E+02  0.7816164E-02  0.1266605E+00
        -11   -1    0    0    0    0  0.00000000000E+00  0.00000000000E+00  0.45593999997E+02  0.45594000000E+02  0.51100000000E-03 0. -1.
         11   -1    0    0    0    0 -0.00000000000E+00 -0.00000000000E+00 -0.45593999997E+02  0.45594000000E+02  0.51100000000E-03 0.  1.
    9900012    2    1    2    0    0 -0.30332046080E+02 -0.47519348534E+01  0.86085300046E+01  0.59301942026E+02  0.49999996350E+02 0.  0.
        -12    1    1    2    0    0  0.30332046080E+02  0.47519348534E+01 -0.86085300046E+01  0.31886057974E+02  0.00000000000E+00 0.  1.
         11    1    3    3    0    0 -0.13343084931E+02 -0.14779076040E+02  0.16719967759E+02  0.26000313964E+02  0.51100000000E-03 0. -1.
        -11    1    3    3    0    0 -0.93539090395E+01 -0.16714749330E+01  0.76801976390E+01  0.12217809902E+02  0.51100000000E-03 0.  1.
        -12    1    3    3    0    0 -0.76350521093E+01  0.11698616119E+02 -0.15791635394E+02  0.21083818160E+02  0.00000000000E+00 0.  1.
</event>
<event>
 7    1  0.6515090E-012  0.5930190E+02  0.7816164E-02  0.1266605E+00
        -11   -1    0    0    0    0  0.00000000000E+00  0.00000000000E+00  0.45593999997E+02  0.45594000000E+02  0.51100000000E-03 0.  1.
         11   -1    0    0    0    0 -0.00000000000E+00 -0.00000000000E+00 -0.45593999997E+02  0.45594000000E+02  0.51100000000E-03 0. -1.
    9900012    2    1    2    0    0  0.30997131661E+02 -0.48932979085E+01 -0.56530187663E+01  0.59301903393E+02  0.49999925893E+02 0.  0.
        -12    1    1    2    0    0 -0.30997131661E+02  0.48932979085E+01  0.56530187663E+01  0.31886096607E+02  0.00000000000E+00 0.  1.
         11    1    3    3    0    0  0.40410357262E+01  0.82166530347E+01  0.73932187547E+01  0.11768731480E+02  0.51100000000E-03 0. -1.
        -11    1    3    3    0    0  0.41746692242E+01  0.75684812811E+01  0.67335897374E+01  0.10956778863E+02  0.51100000000E-03 0.  1.
         12    1    3    3    0    0  0.22781426711E+02 -0.20678432224E+02 -0.19779827258E+02  0.36576393051E+02  0.00000000000E+00 0. -1.
</event>
<event>
 7    1  0.6515090E-012  0.5930196E+02  0.7816164E-02  0.1266605E+00
        -11   -1    0    0    0    0  0.00000000000E+00  0.00000000000E+00  0.45593999997E+02  0.45594000000E+02  0.51100000000E-03 0.  1.
         11   -1    0    0    0    0 -0.00000000000E+00 -0.00000000000E+00 -0.45593999997E+02  0.45594000000E+02  0.51100000000E-03 0. -1.
    9900012    2    1    2    0    0 -0.17208843926E+02 -0.16786461242E+00 -0.26843012258E+02  0.59301956111E+02  0.50000022037E+02 0.  0.
        -12    1    1    2    0    0  0.17208843926E+02  0.16786461242E+00  0.26843012258E+02  0.31886043889E+02  0.00000000000E+00 0.  1.
         11    1    3    3    0    0 -0.11316829565E+02 -0.68307358854E+01  0.18911324234E+01  0.13353125710E+02  0.51100000000E-03 0. -1.
        -11    1    3    3    0    0  0.82407108865E+00  0.33726304334E+01  0.78629860484E+01  0.85953638118E+01  0.51100000000E-03 0.  1.
         12    1    3    3    0    0 -0.67160854503E+01  0.32902408396E+01 -0.36597130730E+02  0.37353466589E+02  0.00000000000E+00 0. -1.
</event>
<event>
 7    1  0.6515090E-012  0.5930193E+02  0.7816164E-02  0.1266605E+00
        -11   -1    0    0    0    0  0.00000000000E+00  0.00000000000E+00  0.45593999997E+02  0.45594000000E+02  0.51100000000E-03 0. -1.
         11   -1    0    0    0    0 -0.00000000000E+00 -0.00000000000E+00 -0.45593999997E+02  0.45594000000E+02  0.51100000000E-03 0.  1.
    9900012    2    1    2    0    0  0.99163988453E+01  0.90297427780E+01  0.28928359182E+02  0.59301934303E+02  0.49999982264E+02 0.  0.
        -12    1    1    2    0    0 -0.99163988453E+01 -0.90297427780E+01 -0.28928359182E+02  0.31886065697E+02  0.00000000000E+00 0.  1.
         11    1    3    3    0    0  0.13605499164E+02 -0.79900390612E+01  0.29632397021E+01  0.16054006400E+02  0.51100000000E-03 0. -1.
        -11    1    3    3    0    0 -0.37466287183E+01  0.21693464196E+02  0.61053438009E+01  0.22845543083E+02  0.51100000000E-03 0.  1.
         12    1    3    3    0    0  0.57528399747E-01 -0.46736823570E+01  0.19859775679E+02  0.20402384819E+02  0.00000000000E+00 0. -1.
</event>
<event>
 7    1  0.6515090E-012  0.5930173E+02  0.7816164E-02  0.1266605E+00
        -11   -1    0    0    0    0  0.00000000000E+00  0.00000000000E+00  0.45593999997E+02  0.45594000000E+02  0.51100000000E-03 0.  1.
         11   -1    0    0    0    0 -0.00000000000E+00 -0.00000000000E+00 -0.45593999997E+02  0.45594000000E+02  0.51100000000E-03 0. -1.
    9900012    2    1    2    0    0  0.98891154065E+01 -0.25066938533E+02 -0.17046638594E+02  0.59301734959E+02  0.49999618707E+02 0.  0.
        -12    1    1    2    0    0 -0.98891154065E+01  0.25066938533E+02  0.17046638594E+02  0.31886265041E+02  0.00000000000E+00 0.  1.
         11    1    3    3    0    0 -0.41924345609E+01 -0.15859144247E+02  0.15382881464E+02  0.22488263744E+02  0.51100000000E-03 0.  1.
        -11    1    3    3    0    0  0.69611065556E+01 -0.37300403155E+01 -0.10689794220E+02  0.13290669884E+02  0.51100000000E-03 0. -1.
        -12    1    3    3    0    0  0.71204434118E+01 -0.54777539697E+01 -0.21739725838E+02  0.23522801331E+02  0.00000000000E+00 0.  1.
</event>
<event>
 7    1  0.6515090E-012  0.5930192E+02  0.7816164E-02  0.1266605E+00
        -11   -1    0    0    0    0  0.00000000000E+00  0.00000000000E+00  0.45593999997E+02  0.45594000000E+02  0.51100000000E-03 0. -1.
         11   -1    0    0    0    0 -0.00000000000E+00 -0.00000000000E+00 -0.45593999997E+02  0.45594000000E+02  0.51100000000E-03 0.  1.
    9900012    2    1    2    0    0 -0.28575773935E+02 -0.49712337792E+01  0.13245159801E+02  0.59301917151E+02  0.49999950983E+02 0.  0.
        -12    1    1    2    0    0  0.28575773935E+02  0.49712337792E+01 -0.13245159801E+02  0.31886082849E+02  0.00000000000E+00 0.  1.
         11    1    3    3    0    0 -0.13051753862E+02  0.15549050421E+02  0.11968461592E+02  0.23566190210E+02  0.51100000000E-03 0. -1.
        -11    1    3    3    0    0 -0.14265768724E+01  0.56578265449E+01 -0.98377457241E+00  0.59172574268E+01  0.51100000000E-03 0.  1.
         12    1    3    3    0    0 -0.14097443201E+02 -0.26178110745E+02  0.22604727818E+01  0.29818469514E+02  0.00000000000E+00 0. -1.
</event>
<event>
 7    1  0.6515090E-012  0.5930194E+02  0.7816164E-02  0.1266605E+00
        -11   -1    0    0    0    0  0.00000000000E+00  0.00000000000E+00  0.45593999997E+02  0.45594000000E+02  0.51100000000E-03 0. -1.
         11   -1    0    0    0    0 -0.00000000000E+00 -0.00000000000E+00 -0.45593999997E+02  0.45594000000E+02  0.51100000000E-03 0.  1.
    9900012    2    1    2    0    0  0.26604365736E+02 -0.53907928164E+01  0.16729246942E+02  0.59301943068E+02  0.49999998250E+02 0.  0.
        -12    1    1    2    0    0 -0.26604365736E+02  0.53907928164E+01 -0.16729246942E+02  0.31886056932E+02  0.00000000000E+00 0.  1.
         11    1    3    3    0    0  0.11008348277E+02 -0.11721451645E+01  0.15421957302E+02  0.18984057084E+02  0.51100000000E-03 0. -1.
        -11    1    3    3    0    0 -0.49055433936E+01 -0.25262722397E+01 -0.13755869499E+02  0.14821280423E+02  0.51100000000E-03 0.  1.
         12    1    3    3    0    0  0.20501560852E+02 -0.16923754122E+01  0.15063159140E+02  0.25496605562E+02  0.00000000000E+00 0. -1.
</event>
<event>
 7    1  0.6515090E-012  0.5930185E+02  0.7816164E-02  0.1266605E+00
        -11   -1    0    0    0    0  0.00000000000E+00  0.00000000000E+00  0.45593999997E+02  0.45594000000E+02  0.51100000000E-03 0. -1.
         11   -1    0    0    0    0 -0.00000000000E+00 -0.00000000000E+00 -0.45593999997E+02  0.45594000000E+02  0.51100000000E-03 0.  1.
    9900012    2    1    2    0    0  0.15429002638E+02 -0.25824382310E+02  0.10572321777E+02  0.59301845766E+02  0.49999820794E+02 0.  0.
        -12    1    1    2    0    0 -0.15429002638E+02  0.25824382310E+02 -0.10572321777E+02  0.31886154234E+02  0.00000000000E+00 0.  1.
         11    1    3    3    0    0  0.67394882935E+01 -0.27007033682E+01 -0.97634839253E+00  0.73258281160E+01  0.51100000000E-03 0. -1.
        -11    1    3    3    0    0  0.20931744789E+02 -0.78300163140E+01 -0.85328256280E+01  0.23921877201E+02  0.51100000000E-03 0.  1.
         12    1    3    3    0    0 -0.12242230445E+02 -0.15293662628E+02  0.20081495798E+02  0.28054140448E+02  0.00000000000E+00 0. -1.
</event>
<event>
 7    1  0.6515090E-012  0.5930193E+02  0.7816164E-02  0.1266605E+00
        -11   -1    0    0    0    0  0.00000000000E+00  0.00000000000E+00  0.45593999997E+02  0.45594000000E+02  0.51100000000E-03 0.  1.
         11   -1    0    0    0    0 -0.00000000000E+00 -0.00000000000E+00 -0.45593999997E+02  0.45594000000E+02  0.51100000000E-03 0. -1.
    9900012    2    1    2    0    0  0.16873681958E+02  0.16836699813E+02 -0.21178428206E+02  0.59301930555E+02  0.49999975428E+02 0.  0.
        -12    1    1    2    0    0 -0.16873681958E+02 -0.16836699813E+02  0.21178428206E+02  0.31886069445E+02  0.00000000000E+00 0.  1.
         11    1    3    3    0    0  0.95327813034E+00  0.17915970831E+02 -0.40849829979E+01  0.18400484678E+02  0.51100000000E-03 0. -1.
        -11    1    3    3    0    0 -0.52586650901E+01 -0.48170851008E+01 -0.18015145623E+02  0.19375328113E+02  0.51100000000E-03 0.  1.
        -12    1    3    3    0    0  0.21179068918E+02  0.37378140823E+01  0.92170041499E+00  0.21526117764E+02  0.00000000000E+00 0.  1.
</event>
<event>
 7    1  0.6515090E-012  0.5930196E+02  0.7816164E-02  0.1266605E+00
        -11   -1    0    0    0    0  0.00000000000E+00  0.00000000000E+00  0.45593999997E+02  0.45594000000E+02  0.51100000000E-03 0. -1.
         11   -1    0    0    0    0 -0.00000000000E+00 -0.00000000000E+00 -0.45593999997E+02  0.45594000000E+02  0.51100000000E-03 0.  1.
    9900012    2    1    2    0    0  0.29044037827E+02  0.12340842942E+02 -0.45680446811E+01  0.59301959637E+02  0.50000028467E+02 0.  0.
        -12    1    1    2    0    0 -0.29044037827E+02 -0.12340842942E+02  0.45680446811E+01  0.31886040363E+02  0.00000000000E+00 0.  1.
         11    1    3    3    0    0 -0.32153401547E+01 -0.50066686234E+01 -0.11302212141E+02  0.12772828291E+02  0.51100000000E-03 0. -1.
        -11    1    3    3    0    0 -0.33938755536E+01 -0.10118443513E+01 -0.36687154002E+01  0.50991855441E+01  0.51100000000E-03 0.  1.
         12    1    3    3    0    0  0.35653253535E+02  0.18359355917E+02  0.10402882860E+02  0.41429945802E+02  0.00000000000E+00 0. -1.
</event>
<event>
 7    1  0.6515090E-012  0.5930189E+02  0.7816164E-02  0.1266605E+00
        -11   -1    0    0    0    0  0.00000000000E+00  0.00000000000E+00  0.45593999997E+02  0.45594000000E+02  0.51100000000E-03 0.  1.
         11   -1    0    0    0    0 -0.00000000000E+00 -0.00000000000E+00 -0.45593999997E+02  0.45594000000E+02  0.51100000000E-03 0. -1.
    9900012    2    1    2    0    0 -0.21297985326E+01 -0.22820489234E+01 -0.31732947001E+02  0.59301894649E+02  0.49999909945E+02 0.  0.
        -12    1    1    2    0    0  0.21297985326E+01  0.22820489234E+01  0.31732947001E+02  0.31886105351E+02  0.00000000000E+00 0.  1.
         11    1    3    3    0    0 -0.84280672382E+01 -0.47358000201E+01 -0.11817955362E+02  0.15268404907E+02  0.51100000000E-03 0. -1.
        -11    1    3    3    0    0 -0.13969885101E+02 -0.79488334436E+01 -0.11430496028E+02  0.19723029244E+02  0.51100000000E-03 0.  1.
         12    1    3    3    0    0  0.20268153806E+02  0.10402584540E+02 -0.84844956109E+01  0.24310460498E+02  0.00000000000E+00 0. -1.
</event>
<event>
 7    1  0.6515090E-012  0.5930197E+02  0.7816164E-02  0.1266605E+00
        -11   -1    0    0    0    0  0.00000000000E+00  0.00000000000E+00  0.45593999997E+02  0.45594000000E+02  0.51100000000E-03 0.  1.
         11   -1    0    0    0    0 -0.00000000000E+00 -0.00000000000E+00 -0.45593999997E+02  0.45594000000E+02  0.51100000000E-03 0. -1.
    9900012    2    1    2    0    0 -0.63461327682E+01 -0.31141980962E+02 -0.25733985845E+01  0.59301972345E+02  0.50000051643E+02 0.  0.
        -12    1    1    2    0    0  0.63461327682E+01  0.31141980962E+02  0.25733985845E+01  0.31886027655E+02  0.00000000000E+00 0.  1.
         11    1    3    3    0    0 -0.10877040839E+02 -0.12192823058E+02 -0.13268072145E+02  0.21047961665E+02  0.51100000000E-03 0. -1.
        -11    1    3    3    0    0  0.10932669383E+02 -0.11172584413E+02 -0.75911895707E+01  0.17377458435E+02  0.51100000000E-03 0.  1.
        -12    1    3    3    0    0 -0.64017613121E+01 -0.77765734911E+01  0.18285863131E+02  0.20876552245E+02  0.00000000000E+00 0.  1.
</event>
<event>
 7    1  0.6515090E-012  0.5930228E+02  0.7816164E-02  0.1266604E+00
        -11   -1    0    0    0    0  0.00000000000E+00  0.00000000000E+00  0.45593999997E+02  0.45594000000E+02  0.51100000000E-03 0. -1.
         11   -1    0    0    0    0 -0.00000000000E+00 -0.00000000000E+00 -0.45593999997E+02  0.45594000000E+02  0.51100000000E-03 0.  1.
    9900012    2    1    2    0    0  0.14422237910E+02 -0.56358913166E+01  0.27873546759E+02  0.59302284920E+02  0.50000621701E+02 0.  0.
        -12    1    1    2    0    0 -0.14422237910E+02  0.56358913166E+01 -0.27873546759E+02  0.31885715080E+02  0.00000000000E+00 0.  1.
         11    1    3    3    0    0 -0.32678323700E+01  0.12373389763E+01 -0.32110804915E+01  0.47456057911E+01  0.51100000000E-03 0. -1.
        -11    1    3    3    0    0  0.93272402363E+00 -0.44284727218E+01 -0.95315891493E+01  0.10551423445E+02  0.51100000000E-03 0.  1.
         12    1    3    3    0    0  0.16757346256E+02 -0.24447575710E+01  0.40616216400E+02  0.44005255683E+02  0.00000000000E+00 0. -1.
</event>
<event>
 7    1  0.6515090E-012  0.5930194E+02  0.7816164E-02  0.1266605E+00
        -11   -1    0    0    0    0  0.00000000000E+00  0.00000000000E+00  0.45593999997E+02  0.45594000000E+02  0.51100000000E-03 0.  1.
         11   -1    0    0    0    0 -0.00000000000E+00 -0.00000000000E+00 -0.45593999997E+02  0.45594000000E+02  0.51100000000E-03 0. -1.
    9900012    2    1    2    0    0  0.46823232143E+01  0.95980872699E+01 -0.30044519011E+02  0.59301944231E+02  0.50000000371E+02 0.  0.
        -12    1    1    2    0    0 -0.46823232143E+01 -0.95980872699E+01  0.30044519011E+02  0.31886055769E+02  0.00000000000E+00 0.  1.
         11    1    3    3    0    0  0.63726650978E+00  0.88454772555E+01 -0.13623516039E+02  0.16255730251E+02  0.51100000000E-03 0. -1.
        -11    1    3    3    0    0  0.19974810098E+02 -0.59693607389E+01 -0.15029383294E+02  0.25700363199E+02  0.51100000000E-03 0.  1.
        -12    1    3    3    0    0 -0.15929753394E+02  0.67219707534E+01 -0.13916196779E+01  0.17345850781E+02  0.00000000000E+00 0.  1.
</event>
<event>
 7    1  0.6515090E-012  0.5930197E+02  0.7816164E-02  0.1266605E+00
        -11   -1    0    0    0    0  0.00000000000E+00  0.00000000000E+00  0.45593999997E+02  0.45594000000E+02  0.51100000000E-03 0.  1.
         11   -1    0    0    0    0 -0.00000000000E+00 -0.00000000000E+00 -0.45593999997E+02  0.45594000000E+02  0.51100000000E-03 0. -1.
    9900012    2    1    2    0    0  0.14781273272E+02  0.23394999997E+02 -0.15840045212E+02  0.59301967059E+02  0.50000042003E+02 0.  0.
        -12    1    1    2    0    0 -0.14781273272E+02 -0.23394999997E+02  0.15840045212E+02  0.31886032941E+02  0.00000000000E+00 0.  1.
         11    1    3    3    0    0  0.28715055489E+01  0.29571599115E+01  0.12264812385E+01  0.43005343097E+01  0.51100000000E-03 0. -1.
        -11    1    3    3    0    0 -0.63867062396E+00 -0.14705111511E+02 -0.24333217638E+01  0.14918755303E+02  0.51100000000E-03 0.  1.
         12    1    3    3    0    0  0.12548438347E+02  0.35142951597E+02 -0.14633204687E+02  0.40082677446E+02  0.00000000000E+00 0. -1.
</event>
<event>
 7    1  0.6515090E-012  0.5930191E+02  0.7816164E-02  0.1266605E+00
        -11   -1    0    0    0    0  0.00000000000E+00  0.00000000000E+00  0.45593999997E+02  0.45594000000E+02  0.51100000000E-03 0.  1.
         11   -1    0    0    0    0 -0.00000000000E+00 -0.00000000000E+00 -0.45593999997E+02  0.45594000000E+02  0.51100000000E-03 0. -1.
    9900012    2    1    2    0    0  0.43956185546E+01 -0.91230476822E+01 -0.30235269963E+02  0.59301905676E+02  0.49999930056E+02 0.  0.
        -12    1    1    2    0    0 -0.43956185546E+01  0.91230476822E+01  0.30235269963E+02  0.31886094324E+02  0.00000000000E+00 0.  1.
         11    1    3    3    0    0 -0.41625954013E+01  0.92872189303E+01 -0.29413780168E+01  0.10593929433E+02  0.51100000000E-03 0. -1.
        -11    1    3    3    0    0 -0.54808100161E+01 -0.17082771876E+02  0.51648528626E-01  0.17940541832E+02  0.51100000000E-03 0.  1.
        -12    1    3    3    0    0  0.14039023972E+02 -0.13274947363E+01 -0.27345540475E+02  0.30767434411E+02  0.00000000000E+00 0.  1.
</event>
<event>
 7    1  0.6515090E-012  0.5930194E+02  0.7816164E-02  0.1266605E+00
        -11   -1    0    0    0    0  0.00000000000E+00  0.00000000000E+00  0.45593999997E+02  0.45594000000E+02  0.51100000000E-03 0. -1.
         11   -1    0    0    0    0 -0.00000000000E+00 -0.00000000000E+00 -0.45593999997E+02  0.45594000000E+02  0.51100000000E-03 0.  1.
    9900012    2    1    2    0    0 -0.27528822955E+02  0.10249959625E+02  0.12402536415E+02  0.59301942308E+02  0.49999996863E+02 0.  0.
        -12    1    1    2    0    0  0.27528822955E+02 -0.10249959625E+02 -0.12402536415E+02  0.31886057692E+02  0.00000000000E+00 0.  1.
         11    1    3    3    0    0 -0.24003329958E+02  0.93179221688E+01  0.64473275926E+01  0.26543390062E+02  0.51100000000E-03 0. -1.
        -11    1    3    3    0    0 -0.12965863086E+02  0.11414220424E+02 -0.41755625359E+00  0.17279247291E+02  0.51100000000E-03 0.  1.
         12    1    3    3    0    0  0.94403700888E+01 -0.10482182968E+02  0.63727650761E+01  0.15479304955E+02  0.00000000000E+00 0. -1.
</event>
<event>
 7    1  0.6515090E-012  0.5930195E+02  0.7816164E-02  0.1266605E+00
        -11   -1    0    0    0    0  0.00000000000E+00  0.00000000000E+00  0.45593999997E+02  0.45594000000E+02  0.51100000000E-03 0. -1.
         11   -1    0    0    0    0 -0.00000000000E+00 -0.00000000000E+00 -0.45593999997E+02  0.45594000000E+02  0.51100000000E-03 0.  1.
    9900012    2    1    2    0    0  0.31464006700E+02 -0.26496002545E+01  0.44403144140E+01  0.59301945192E+02  0.50000002124E+02 0.  0.
        -12    1    1    2    0    0 -0.31464006700E+02  0.26496002545E+01 -0.44403144140E+01  0.31886054808E+02  0.00000000000E+00 0.  1.
         11    1    3    3    0    0  0.55167435402E+01 -0.89720422665E+01  0.42484924573E+01  0.11357010616E+02  0.51100000000E-03 0. -1.
        -11    1    3    3    0    0 -0.28557822167E+01 -0.84364375160E+01 -0.10584954361E+02  0.13833662896E+02  0.51100000000E-03 0.  1.
         12    1    3    3    0    0  0.28803045376E+02  0.14758879528E+02  0.10776776317E+02  0.34111271680E+02  0.00000000000E+00 0. -1.
</event>
<event>
 7    1  0.6515090E-012  0.5930192E+02  0.7816164E-02  0.1266605E+00
        -11   -1    0    0    0    0  0.00000000000E+00  0.00000000000E+00  0.45593999997E+02  0.45594000000E+02  0.51100000000E-03 0.  1.
         11   -1    0    0    0    0 -0.00000000000E+00 -0.00000000000E+00 -0.45593999997E+02  0.45594000000E+02  0.51100000000E-03 0. -1.
    9900012    2    1    2    0    0  0.29434816105E+02  0.11116667674E+02 -0.51704604313E+01  0.59301915882E+02  0.49999948669E+02 0.  0.
        -12    1    1    2    0    0 -0.29434816105E+02 -0.11116667674E+02  0.51704604313E+01  0.31886084118E+02  0.00000000000E+00 0.  1.
         11    1    3    3    0    0 -0.10836930025E+02  0.41467023848E+01 -0.88099242019E+01  0.14568766514E+02  0.51100000000E-03 0. -1.
        -11    1    3    3    0    0  0.12072243684E+02 -0.40168299695E+01 -0.43259040281E+01  0.13438282498E+02  0.51100000000E-03 0.  1.
        -12    1    3    3    0    0  0.28199502445E+02  0.10986795259E+02  0.79653677987E+01  0.31294866870E+02  0.00000000000E+00 0.  1.
</event>
<event>
 7    1  0.6515090E-012  0.5930198E+02  0.7816164E-02  0.1266605E+00
        -11   -1    0    0    0    0  0.00000000000E+00  0.00000000000E+00  0.45593999997E+02  0.45594000000E+02  0.51100000000E-03 0.  1.
         11   -1    0    0    0    0 -0.00000000000E+00 -0.00000000000E+00 -0.45593999997E+02  0.45594000000E+02  0.51100000000E-03 0. -1.
    9900012    2    1    2    0    0  0.31348334610E+02 -0.57801012297E+01  0.76867928174E+00  0.59301976088E+02  0.50000058471E+02 0.  0.
        -12    1    1    2    0    0 -0.31348334610E+02  0.57801012297E+01 -0.76867928174E+00  0.31886023912E+02  0.00000000000E+00 0.  1.
         11    1    3    3    0    0  0.30969706888E+02  0.55500551598E+01 -0.92321856161E+01  0.32789618914E+02  0.51100000000E-03 0. -1.
        -11    1    3    3    0    0 -0.28538390698E+00 -0.38460001262E+01 -0.69626317709E+01  0.79593594204E+01  0.51100000000E-03 0.  1.
        -12    1    3    3    0    0  0.66401162890E+00 -0.74841562633E+01  0.16963496669E+02  0.18552997754E+02  0.00000000000E+00 0.  1.
</event>
<event>
 7    1  0.6515090E-012  0.5930192E+02  0.7816164E-02  0.1266605E+00
        -11   -1    0    0    0    0  0.00000000000E+00  0.00000000000E+00  0.45593999997E+02  0.45594000000E+02  0.51100000000E-03 0.  1.
         11   -1    0    0    0    0 -0.00000000000E+00 -0.00000000000E+00 -0.45593999997E+02  0.45594000000E+02  0.51100000000E-03 0. -1.
    9900012    2    1    2    0    0 -0.79676336606E+01 -0.17487097750E+02 -0.25444845278E+02  0.59301922708E+02  0.49999961117E+02 0.  0.
        -12    1    1    2    0    0  0.79676336606E+01  0.17487097750E+02  0.25444845278E+02  0.31886077292E+02  0.00000000000E+00 0.  1.
         11    1    3    3    0    0 -0.10632244097E+02  0.10910012214E+02 -0.14551389447E+02  0.21066938937E+02  0.51100000000E-03 0. -1.
        -11    1    3    3    0    0 -0.18308076830E+00  0.27693477840E+01 -0.59302785338E+01  0.65475957012E+01  0.51100000000E-03 0.  1.
        -12    1    3    3    0    0  0.28476912052E+01 -0.31166457749E+02 -0.49631772970E+01  0.31687388070E+02  0.00000000000E+00 0.  1.
</event>
<event>
 7    1  0.6515090E-012  0.5930203E+02  0.7816164E-02  0.1266604E+00
        -11   -1    0    0    0    0  0.00000000000E+00  0.00000000000E+00  0.45593999997E+02  0.45594000000E+02  0.51100000000E-03 0. -1.
         11   -1    0    0    0    0 -0.00000000000E+00 -0.00000000000E+00 -0.45593999997E+02  0.45594000000E+02  0.51100000000E-03 0.  1.
    9900012    2    1    2    0    0 -0.30720388697E+02  0.80271083262E+01  0.29219992484E+01  0.59302033975E+02  0.50000164042E+02 0.  0.
        -12    1    1    2    0    0  0.30720388697E+02 -0.80271083262E+01 -0.29219992484E+01  0.31885966025E+02  0.00000000000E+00 0.  1.
         11    1    3    3    0    0  0.69804231319E+01  0.40397612701E+01 -0.39652426634E+01  0.89871646174E+01  0.51100000000E-03 0. -1.
        -11    1    3    3    0    0 -0.94747707446E+01 -0.11762828922E+02 -0.49468526157E+01  0.15893608022E+02  0.51100000000E-03 0.  1.
         12    1    3    3    0    0 -0.28226041084E+02  0.15750175978E+02  0.11834094527E+02  0.34421261335E+02  0.00000000000E+00 0. -1.
</event>
<event>
 7    1  0.6515090E-012  0.5930198E+02  0.7816164E-02  0.1266605E+00
        -11   -1    0    0    0    0  0.00000000000E+00  0.00000000000E+00  0.45593999997E+02  0.45594000000E+02  0.51100000000E-03 0.  1.
         11   -1    0    0    0    0 -0.00000000000E+00 -0.00000000000E+00 -0.45593999997E+02  0.45594000000E+02  0.51100000000E-03 0. -1.
    9900012    2    1    2    0    0 -0.13181534546E+02  0.47101892794E+01 -0.28649253986E+02  0.59301976573E+02  0.50000059354E+02 0.  0.
        -12    1    1    2    0    0  0.13181534546E+02 -0.47101892794E+01  0.28649253986E+02  0.31886023427E+02  0.00000000000E+00 0.  1.
         11    1    3    3    0    0 -0.15273896019E+02 -0.28422263156E+01  0.32946312621E+01  0.15881585105E+02  0.51100000000E-03 0.  1.
        -11    1    3    3    0    0 -0.82221722974E+01 -0.63106231128E+01 -0.19643283582E+02  0.22210057891E+02  0.51100000000E-03 0. -1.
         12    1    3    3    0    0  0.10314533770E+02  0.13863038708E+02 -0.12300601666E+02  0.21210333577E+02  0.00000000000E+00 0. -1.
</event>
<event>
 7    1  0.6515090E-012  0.5930193E+02  0.7816164E-02  0.1266605E+00
        -11   -1    0    0    0    0  0.00000000000E+00  0.00000000000E+00  0.45593999997E+02  0.45594000000E+02  0.51100000000E-03 0. -1.
         11   -1    0    0    0    0 -0.00000000000E+00 -0.00000000000E+00 -0.45593999997E+02  0.45594000000E+02  0.51100000000E-03 0.  1.
    9900012    2    1    2    0    0 -0.17306718028E+02  0.26763810188E+02 -0.94727347545E+00  0.59301931698E+02  0.49999977514E+02 0.  0.
        -12    1    1    2    0    0  0.17306718028E+02 -0.26763810188E+02  0.94727347545E+00  0.31886068302E+02  0.00000000000E+00 0.  1.
         11    1    3    3    0    0  0.66646195697E+01  0.10681569977E+02  0.11926815981E+01  0.12646563993E+02  0.51100000000E-03 0. -1.
        -11    1    3    3    0    0 -0.19907894441E+01  0.81133973224E+01 -0.17007246731E+02  0.18948269060E+02  0.51100000000E-03 0.  1.
         12    1    3    3    0    0 -0.21980548154E+02  0.79688428892E+01  0.14867291658E+02  0.27707098646E+02  0.00000000000E+00 0. -1.
</event>
<event>
 7    1  0.6515090E-012  0.5930195E+02  0.7816164E-02  0.1266605E+00
        -11   -1    0    0    0    0  0.00000000000E+00  0.00000000000E+00  0.45593999997E+02  0.45594000000E+02  0.51100000000E-03 0. -1.
         11   -1    0    0    0    0 -0.00000000000E+00 -0.00000000000E+00 -0.45593999997E+02  0.45594000000E+02  0.51100000000E-03 0.  1.
    9900012    2    1    2    0    0 -0.11896057453E+02  0.23468226446E+02  0.18012398194E+02  0.59301947812E+02  0.50000006902E+02 0.  0.
        -12    1    1    2    0    0  0.11896057453E+02 -0.23468226446E+02 -0.18012398194E+02  0.31886052188E+02  0.00000000000E+00 0.  1.
         11    1    3    3    0    0 -0.43557996188E+00  0.64348092026E+00 -0.76495836334E+01  0.76889484082E+01  0.51100000000E-03 0. -1.
        -11    1    3    3    0    0 -0.44992815072E+01 -0.76558866018E+01 -0.28223227322E+01  0.93178130270E+01  0.51100000000E-03 0.  1.
         12    1    3    3    0    0 -0.69611959834E+01  0.30480632127E+02  0.28484304560E+02  0.42295186377E+02  0.00000000000E+00 0. -1.
</event>
<event>
 7    1  0.6515090E-012  0.5930198E+02  0.7816164E-02  0.1266605E+00
        -11   -1    0    0    0    0  0.00000000000E+00  0.00000000000E+00  0.45593999997E+02  0.45594000000E+02  0.51100000000E-03 0.  1.
         11   -1    0    0    0    0 -0.00000000000E+00 -0.00000000000E+00 -0.45593999997E+02  0.45594000000E+02  0.51100000000E-03 0. -1.
    9900012    2    1    2    0    0  0.22417605754E+02  0.22377875697E+02  0.36606109571E+01  0.59301977341E+02  0.50000060755E+02 0.  0.
        -12    1    1    2    0    0 -0.22417605754E+02 -0.22377875697E+02 -0.36606109571E+01  0.31886022659E+02  0.00000000000E+00 0.  1.
         11    1    3    3    0    0  0.14044469359E+02  0.34814234219E+01  0.52688103072E+01  0.15398954215E+02  0.51100000000E-03 0. -1.
        -11    1    3    3    0    0 -0.13355056592E+02  0.21661480971E+01  0.69040623836E+01  0.15189332172E+02  0.51100000000E-03 0.  1.
         12    1    3    3    0    0  0.21728192987E+02  0.16730304178E+02 -0.85122617336E+01  0.28713690954E+02  0.00000000000E+00 0. -1.
</event>
<event>
 7    1  0.6515090E-012  0.5930194E+02  0.7816164E-02  0.1266605E+00
        -11   -1    0    0    0    0  0.00000000000E+00  0.00000000000E+00  0.45593999997E+02  0.45594000000E+02  0.51100000000E-03 0. -1.
         11   -1    0    0    0    0 -0.00000000000E+00 -0.00000000000E+00 -0.45593999997E+02  0.45594000000E+02  0.51100000000E-03 0.  1.
    9900012    2    1    2    0    0 -0.82643699490E+01  0.16416561163E+02  0.26056050380E+02  0.59301936392E+02  0.49999986073E+02 0.  0.
        -12    1    1    2    0    0  0.82643699490E+01 -0.16416561163E+02 -0.26056050380E+02  0.31886063608E+02  0.00000000000E+00 0.  1.
         11    1    3    3    0    0 -0.31780134261E+01  0.11761873209E+02  0.16473533525E+02  0.20489478710E+02  0.51100000000E-03 0. -1.
        -11    1    3    3    0    0 -0.11419021983E+02  0.12722226872E+02  0.18523295216E+02  0.25206379858E+02  0.51100000000E-03 0.  1.
        -12    1    3    3    0    0  0.63326654601E+01 -0.80675389177E+01 -0.89407783624E+01  0.13606077824E+02  0.00000000000E+00 0.  1.
</event>
<event>
 7    1  0.6515090E-012  0.5930195E+02  0.7816164E-02  0.1266605E+00
        -11   -1    0    0    0    0  0.00000000000E+00  0.00000000000E+00  0.45593999997E+02  0.45594000000E+02  0.51100000000E-03 0.  1.
         11   -1    0    0    0    0 -0.00000000000E+00 -0.00000000000E+00 -0.45593999997E+02  0.45594000000E+02  0.51100000000E-03 0. -1.
    9900012    2    1    2    0    0  0.13705029509E+02 -0.14580184159E+02 -0.24825598466E+02  0.59301953787E+02  0.50000017798E+02 0.  0.
        -12    1    1    2    0    0 -0.13705029509E+02  0.14580184159E+02  0.24825598466E+02  0.31886046213E+02  0.00000000000E+00 0.  1.
         11    1    3    3    0    0  0.10317006330E+02 -0.55004608279E+01  0.17757302936E-01  0.11691706656E+02  0.51100000000E-03 0. -1.
        -11    1    3    3    0    0  0.16748856997E+02 -0.63493208166E+01  0.14709707327E+01  0.17972251965E+02  0.51100000000E-03 0.  1.
         12    1    3    3    0    0 -0.13360833819E+02 -0.27304025142E+01 -0.26314326501E+02  0.29637995166E+02  0.00000000000E+00 0. -1.
</event>
<event>
 7    1  0.6515090E-012  0.5930195E+02  0.7816164E-02  0.1266605E+00
        -11   -1    0    0    0    0  0.00000000000E+00  0.00000000000E+00  0.45593999997E+02  0.45594000000E+02  0.51100000000E-03 0.  1.
         11   -1    0    0    0    0 -0.00000000000E+00 -0.00000000000E+00 -0.45593999997E+02  0.45594000000E+02  0.51100000000E-03 0. -1.
    9900012    2    1    2    0    0 -0.30461250306E+02  0.76584537094E+01 -0.54936725546E+01  0.59301950988E+02  0.50000012694E+02 0.  0.
        -12    1    1    2    0    0  0.30461250306E+02 -0.76584537094E+01  0.54936725546E+01  0.31886049012E+02  0.00000000000E+00 0.  1.
         11    1    3    3    0    0 -0.64387998250E+01  0.14670838197E+01 -0.16982335909E+01  0.68186857760E+01  0.51100000000E-03 0. -1.
        -11    1    3    3    0    0 -0.33891763663E+02  0.16813876315E+02 -0.22226677376E+01  0.37898526793E+02  0.51100000000E-03 0.  1.
         12    1    3    3    0    0  0.98693131821E+01 -0.10622506425E+02 -0.15727712261E+01  0.14584738419E+02  0.00000000000E+00 0. -1.
</event>
<event>
 7    1  0.6515090E-012  0.5930194E+02  0.7816164E-02  0.1266605E+00
        -11   -1    0    0    0    0  0.00000000000E+00  0.00000000000E+00  0.45593999997E+02  0.45594000000E+02  0.51100000000E-03 0. -1.
         11   -1    0    0    0    0 -0.00000000000E+00 -0.00000000000E+00 -0.45593999997E+02  0.45594000000E+02  0.51100000000E-03 0.  1.
    9900012    2    1    2    0    0 -0.61216695399E+00 -0.31851300393E+02  0.13566388655E+01  0.59301944206E+02  0.50000000325E+02 0.  0.
        -12    1    1    2    0    0  0.61216695399E+00  0.31851300393E+02 -0.13566388655E+01  0.31886055794E+02  0.00000000000E+00 0.  1.
         11    1    3    3    0    0 -0.59059231375E+01 -0.12656056600E+01  0.14031017253E+02  0.15275834878E+02  0.51100000000E-03 0. -1.
        -11    1    3    3    0    0 -0.30651979559E+00  0.42510349532E+01 -0.71334125253E+01  0.83096827301E+01  0.51100000000E-03 0.  1.
         12    1    3    3    0    0  0.56002759791E+01 -0.34836729686E+02 -0.55409658627E+01  0.35716426598E+02  0.00000000000E+00 0. -1.
</event>
<event>
 7    1  0.6515090E-012  0.5930195E+02  0.7816164E-02  0.1266605E+00
        -11   -1    0    0    0    0  0.00000000000E+00  0.00000000000E+00  0.45593999997E+02  0.45594000000E+02  0.51100000000E-03 0.  1.
         11   -1    0    0    0    0 -0.00000000000E+00 -0.00000000000E+00 -0.45593999997E+02  0.45594000000E+02  0.51100000000E-03 0. -1.
    9900012    2    1    2    0    0 -0.61272916825E+01 -0.24455327838E+02 -0.19522128598E+02  0.59301948691E+02  0.50000008505E+02 0.  0.
        -12    1    1    2    0    0  0.61272916825E+01  0.24455327838E+02  0.19522128598E+02  0.31886051309E+02  0.00000000000E+00 0.  1.
         11    1    3    3    0    0 -0.15524432376E+01 -0.35358149545E-01 -0.21685265533E+02  0.21740792803E+02  0.51100000000E-03 0. -1.
        -11    1    3    3    0    0 -0.14209917111E+02 -0.37597299268E+01  0.59977764701E+00  0.14711119838E+02  0.51100000000E-03 0.  1.
         12    1    3    3    0    0  0.96350686658E+01 -0.20660239762E+02  0.15633592875E+01  0.22850036050E+02  0.00000000000E+00 0. -1.
</event>
<event>
 7    1  0.6515090E-012  0.5930207E+02  0.7816164E-02  0.1266604E+00
        -11   -1    0    0    0    0  0.00000000000E+00  0.00000000000E+00  0.45593999997E+02  0.45594000000E+02  0.51100000000E-03 0.  1.
         11   -1    0    0    0    0 -0.00000000000E+00 -0.00000000000E+00 -0.45593999997E+02  0.45594000000E+02  0.51100000000E-03 0. -1.
    9900012    2    1    2    0    0 -0.51756987549E+01 -0.67891577722E+01 -0.30721852750E+02  0.59302066468E+02  0.50000223301E+02 0.  0.
        -12    1    1    2    0    0  0.51756987549E+01  0.67891577722E+01  0.30721852750E+02  0.31885933532E+02  0.00000000000E+00 0.  1.
         11    1    3    3    0    0  0.11694562067E+02 -0.36044001571E+01 -0.75351575874E+01  0.14371258907E+02  0.51100000000E-03 0. -1.
        -11    1    3    3    0    0  0.31432479915E+01  0.79267023905E+01  0.39761452714E+01  0.94086316861E+01  0.51100000000E-03 0.  1.
         12    1    3    3    0    0 -0.20013508813E+02 -0.11111460006E+02 -0.27162840433E+02  0.35522175875E+02  0.00000000000E+00 0. -1.
</event>
<event>
 7    1  0.6515090E-012  0.5930194E+02  0.7816164E-02  0.1266605E+00
        -11   -1    0    0    0    0  0.00000000000E+00  0.00000000000E+00  0.45593999997E+02  0.45594000000E+02  0.51100000000E-03 0.  1.
         11   -1    0    0    0    0 -0.00000000000E+00 -0.00000000000E+00 -0.45593999997E+02  0.45594000000E+02  0.51100000000E-03 0. -1.
    9900012    2    1    2    0    0  0.17656114853E+02  0.17429196011E+02 -0.20030113320E+02  0.59301941842E+02  0.49999996013E+02 0.  0.
        -12    1    1    2    0    0 -0.17656114853E+02 -0.17429196011E+02  0.20030113320E+02  0.31886058158E+02  0.00000000000E+00 0.  1.
         11    1    3    3    0    0  0.56688490795E+01  0.38937018618E+01  0.60167638237E+01  0.91377355644E+01  0.51100000000E-03 0. -1.
        -11    1    3    3    0    0  0.31833817698E+01  0.16776675509E+02  0.49497600538E+01  0.17778945004E+02  0.51100000000E-03 0.  1.
        -12    1    3    3    0    0  0.88038840036E+01 -0.32411813598E+01 -0.30996637197E+02  0.32385261273E+02  0.00000000000E+00 0.  1.
</event>
<event>
 7    1  0.6515090E-012  0.5930197E+02  0.7816164E-02  0.1266605E+00
        -11   -1    0    0    0    0  0.00000000000E+00  0.00000000000E+00  0.45593999997E+02  0.45594000000E+02  0.51100000000E-03 0.  1.
         11   -1    0    0    0    0 -0.00000000000E+00 -0.00000000000E+00 -0.45593999997E+02  0.45594000000E+02  0.51100000000E-03 0. -1.
    9900012    2    1    2    0    0 -0.15894410065E+02 -0.27635526015E+02  0.60344390491E+00  0.59301973060E+02  0.50000052948E+02 0.  0.
        -12    1    1    2    0    0  0.15894410065E+02  0.27635526015E+02 -0.60344390491E+00  0.31886026940E+02  0.00000000000E+00 0.  1.
         11    1    3    3    0    0 -0.10579278197E+02 -0.17366081541E+02 -0.24339103809E+01  0.20479888556E+02  0.51100000000E-03 0. -1.
        -11    1    3    3    0    0  0.71294590237E+01 -0.20403815342E+02 -0.26929936460E+01  0.21780658427E+02  0.51100000000E-03 0.  1.
        -12    1    3    3    0    0 -0.12444590892E+02  0.10134370867E+02  0.57303479318E+01  0.17041426078E+02  0.00000000000E+00 0.  1.
</event>
<event>
 7    1  0.6515090E-012  0.5930193E+02  0.7816164E-02  0.1266605E+00
        -11   -1    0    0    0    0  0.00000000000E+00  0.00000000000E+00  0.45593999997E+02  0.45594000000E+02  0.51100000000E-03 0.  1.
         11   -1    0    0    0    0 -0.00000000000E+00 -0.00000000000E+00 -0.45593999997E+02  0.45594000000E+02  0.51100000000E-03 0. -1.
    9900012    2    1    2    0    0  0.18975513357E+02 -0.25103029614E+02  0.51467706811E+01  0.59301930135E+02  0.49999974664E+02 0.  0.
        -12    1    1    2    0    0 -0.18975513357E+02  0.25103029614E+02 -0.51467706811E+01  0.31886069865E+02  0.00000000000E+00 0.  1.
         11    1    3    3    0    0  0.43797629106E+01 -0.20691159639E+02  0.10749544111E+02  0.23724651930E+02  0.51100000000E-03 0. -1.
        -11    1    3    3    0    0  0.10366506073E+02  0.84032111071E+01  0.86865935226E+01  0.15922792229E+02  0.51100000000E-03 0.  1.
         12    1    3    3    0    0  0.42292443736E+01 -0.12815081082E+02 -0.14289366952E+02  0.19654485976E+02  0.00000000000E+00 0. -1.
</event>
<event>
 7    1  0.6515090E-012  0.5930197E+02  0.7816164E-02  0.1266605E+00
        -11   -1    0    0    0    0  0.00000000000E+00  0.00000000000E+00  0.45593999997E+02  0.45594000000E+02  0.51100000000E-03 0.  1.
         11   -1    0    0    0    0 -0.00000000000E+00 -0.00000000000E+00 -0.45593999997E+02  0.45594000000E+02  0.51100000000E-03 0. -1.
    9900012    2    1    2    0    0  0.60621969178E+01 -0.23523796225E+02 -0.20654291322E+02  0.59301969041E+02  0.50000045619E+02 0.  0.
        -12    1    1    2    0    0 -0.60621969178E+01  0.23523796225E+02  0.20654291322E+02  0.31886030959E+02  0.00000000000E+00 0.  1.
         11    1    3    3    0    0  0.10952287683E+02 -0.14139576727E+02 -0.18717275906E+02  0.25888542892E+02  0.51100000000E-03 0. -1.
        -11    1    3    3    0    0 -0.11305762792E+02  0.37044436257E+01 -0.11038058760E+02  0.16229045454E+02  0.51100000000E-03 0.  1.
         12    1    3    3    0    0  0.64156720262E+01 -0.13088663124E+02  0.91010433444E+01  0.17184380695E+02  0.00000000000E+00 0. -1.
</event>
<event>
 7    1  0.6515090E-012  0.5930194E+02  0.7816164E-02  0.1266605E+00
        -11   -1    0    0    0    0  0.00000000000E+00  0.00000000000E+00  0.45593999997E+02  0.45594000000E+02  0.51100000000E-03 0. -1.
         11   -1    0    0    0    0 -0.00000000000E+00 -0.00000000000E+00 -0.45593999997E+02  0.45594000000E+02  0.51100000000E-03 0.  1.
    9900012    2    1    2    0    0 -0.22765187748E+02 -0.13697728364E+01  0.22284310563E+02  0.59301944300E+02  0.50000000497E+02 0.  0.
        -12    1    1    2    0    0  0.22765187748E+02  0.13697728364E+01 -0.22284310563E+02  0.31886055700E+02  0.00000000000E+00 0.  1.
         11    1    3    3    0    0 -0.40727380632E+00 -0.49810514941E+01  0.24041068312E+02  0.24555034347E+02  0.51100000000E-03 0. -1.
        -11    1    3    3    0    0 -0.53822279509E+01  0.72266145208E-01  0.11646431319E+02  0.12830158333E+02  0.51100000000E-03 0.  1.
        -12    1    3    3    0    0 -0.16975685991E+02  0.35390125125E+01 -0.13403189068E+02  0.21916751621E+02  0.00000000000E+00 0.  1.
</event>
<event>
 7    1  0.6515090E-012  0.5930195E+02  0.7816164E-02  0.1266605E+00
        -11   -1    0    0    0    0  0.00000000000E+00  0.00000000000E+00  0.45593999997E+02  0.45594000000E+02  0.51100000000E-03 0.  1.
         11   -1    0    0    0    0 -0.00000000000E+00 -0.00000000000E+00 -0.45593999997E+02  0.45594000000E+02  0.51100000000E-03 0. -1.
    9900012    2    1    2    0    0  0.25541535881E+02  0.10915375064E+01 -0.19056727808E+02  0.59301946873E+02  0.50000005189E+02 0.  0.
        -12    1    1    2    0    0 -0.25541535881E+02 -0.10915375064E+01  0.19056727808E+02  0.31886053127E+02  0.00000000000E+00 0.  1.
         11    1    3    3    0    0  0.12785570847E+02 -0.12843713290E+02  0.45799355219E+01  0.18692447743E+02  0.51100000000E-03 0. -1.
        -11    1    3    3    0    0  0.20088834056E+02  0.80060977540E+01 -0.95089897903E+01  0.23623711437E+02  0.51100000000E-03 0.  1.
         12    1    3    3    0    0 -0.73328690228E+01  0.59291530426E+01 -0.14127673539E+02  0.16985787693E+02  0.00000000000E+00 0. -1.
</event>
<event>
 7    1  0.6515090E-012  0.5930197E+02  0.7816164E-02  0.1266605E+00
        -11   -1    0    0    0    0  0.00000000000E+00  0.00000000000E+00  0.45593999997E+02  0.45594000000E+02  0.51100000000E-03 0.  1.
         11   -1    0    0    0    0 -0.00000000000E+00 -0.00000000000E+00 -0.45593999997E+02  0.45594000000E+02  0.51100000000E-03 0. -1.
    9900012    2    1    2    0    0  0.95428668563E+00  0.29590166344E+02 -0.11841892619E+02  0.59301968134E+02  0.50000043965E+02 0.  0.
        -12    1    1    2    0    0 -0.95428668563E+00 -0.29590166344E+02  0.11841892619E+02  0.31886031866E+02  0.00000000000E+00 0.  1.
         11    1    3    3    0    0  0.50152748309E+01  0.16999330848E+01 -0.41276745086E+01  0.67141977356E+01  0.51100000000E-03 0. -1.
        -11    1    3    3    0    0 -0.13928749913E+02  0.14171577815E+02 -0.22581787831E+02  0.30079575027E+02  0.51100000000E-03 0.  1.
         12    1    3    3    0    0  0.98677617678E+01  0.13718655444E+02  0.14867569721E+02  0.22508195372E+02  0.00000000000E+00 0. -1.
</event>
<event>
 7    1  0.6515090E-012  0.5930198E+02  0.7816164E-02  0.1266605E+00
        -11   -1    0    0    0    0  0.00000000000E+00  0.00000000000E+00  0.45593999997E+02  0.45594000000E+02  0.51100000000E-03 0.  1.
         11   -1    0    0    0    0 -0.00000000000E+00 -0.00000000000E+00 -0.45593999997E+02  0.45594000000E+02  0.51100000000E-03 0. -1.
    9900012    2    1    2    0    0 -0.21894968147E+02 -0.19061653208E+02 -0.13190213402E+02  0.59301984527E+02  0.50000073860E+02 0.  0.
        -12    1    1    2    0    0  0.21894968147E+02  0.19061653208E+02  0.13190213402E+02  0.31886015473E+02  0.00000000000E+00 0.  1.
         11    1    3    3    0    0 -0.17076102517E+02 -0.21737171787E+02 -0.15019146763E+02  0.31459063626E+02  0.51100000000E-03 0. -1.
        -11    1    3    3    0    0 -0.11648238536E+02  0.31976952523E+01 -0.89766065903E+01  0.15049457866E+02  0.51100000000E-03 0.  1.
        -12    1    3    3    0    0  0.68293729064E+01 -0.52217667320E+00  0.10805539951E+02  0.12793463034E+02  0.00000000000E+00 0.  1.
</event>
<event>
 7    1  0.6515090E-012  0.5930196E+02  0.7816164E-02  0.1266605E+00
        -11   -1    0    0    0    0  0.00000000000E+00  0.00000000000E+00  0.45593999997E+02  0.45594000000E+02  0.51100000000E-03 0.  1.
         11   -1    0    0    0    0 -0.00000000000E+00 -0.00000000000E+00 -0.45593999997E+02  0.45594000000E+02  0.51100000000E-03 0. -1.
    9900012    2    1    2    0    0  0.27301224723E+02 -0.13337577891E+02 -0.96680710724E+01  0.59301961462E+02  0.50000031796E+02 0.  0.
        -12    1    1    2    0    0 -0.27301224723E+02  0.13337577891E+02  0.96680710724E+01  0.31886038538E+02  0.00000000000E+00 0.  1.
         11    1    3    3    0    0  0.23111804637E+01  0.33229453577E+01 -0.16449410182E+02  0.16940089037E+02  0.51100000000E-03 0. -1.
        -11    1    3    3    0    0 -0.87820612643E+00  0.22686298189E+01  0.98641115212E+01  0.10159656668E+02  0.51100000000E-03 0.  1.
         12    1    3    3    0    0  0.25868250386E+02 -0.18929153068E+02 -0.30827724121E+01  0.32202215757E+02  0.00000000000E+00 0. -1.
</event>
<event>
 7    1  0.6515090E-012  0.5930194E+02  0.7816164E-02  0.1266605E+00
        -11   -1    0    0    0    0  0.00000000000E+00  0.00000000000E+00  0.45593999997E+02  0.45594000000E+02  0.51100000000E-03 0.  1.
         11   -1    0    0    0    0 -0.00000000000E+00 -0.00000000000E+00 -0.45593999997E+02  0.45594000000E+02  0.51100000000E-03 0. -1.
    9900012    2    1    2    0    0 -0.30851037691E+01  0.12884241338E+02 -0.29003432363E+02  0.59301943032E+02  0.49999998183E+02 0.  0.
        -12    1    1    2    0    0  0.30851037691E+01 -0.12884241338E+02  0.29003432363E+02  0.31886056968E+02  0.00000000000E+00 0.  1.
         11    1    3    3    0    0 -0.95033678936E+00  0.13303178414E+02 -0.38413430433E+02  0.40662874147E+02  0.51100000000E-03 0. -1.
        -11    1    3    3    0    0 -0.11203757179E+01  0.77407016613E+01  0.38876692137E+01  0.87342816610E+01  0.51100000000E-03 0.  1.
        -12    1    3    3    0    0 -0.10143912619E+01 -0.81596387373E+01  0.55223288563E+01  0.99047872240E+01  0.00000000000E+00 0.  1.
</event>
<event>
 7    1  0.6515090E-012  0.5930193E+02  0.7816164E-02  0.1266605E+00
        -11   -1    0    0    0    0  0.00000000000E+00  0.00000000000E+00  0.45593999997E+02  0.45594000000E+02  0.51100000000E-03 0. -1.
         11   -1    0    0    0    0 -0.00000000000E+00 -0.00000000000E+00 -0.45593999997E+02  0.45594000000E+02  0.51100000000E-03 0.  1.
    9900012    2    1    2    0    0 -0.29911352100E+02 -0.78121230393E+01 -0.78104738503E+01  0.59301925412E+02  0.49999966050E+02 0.  0.
        -12    1    1    2    0    0  0.29911352100E+02  0.78121230393E+01  0.78104738503E+01  0.31886074588E+02  0.00000000000E+00 0.  1.
         11    1    3    3    0    0  0.26173294742E+01  0.42364618454E+01  0.10502702119E+02  0.11623457945E+02  0.51100000000E-03 0. -1.
        -11    1    3    3    0    0 -0.15058044179E+01  0.56428488247E+01 -0.90720204930E+01  0.10789381163E+02  0.51100000000E-03 0.  1.
        -12    1    3    3    0    0 -0.31022877157E+02 -0.17691433709E+02 -0.92411554760E+01  0.36889086304E+02  0.00000000000E+00 0.  1.
</event>
<event>
 7    1  0.6515090E-012  0.5930196E+02  0.7816164E-02  0.1266605E+00
        -11   -1    0    0    0    0  0.00000000000E+00  0.00000000000E+00  0.45593999997E+02  0.45594000000E+02  0.51100000000E-03 0.  1.
         11   -1    0    0    0    0 -0.00000000000E+00 -0.00000000000E+00 -0.45593999997E+02  0.45594000000E+02  0.51100000000E-03 0. -1.
    9900012    2    1    2    0    0 -0.70049460432E+01 -0.22201802210E+02  0.21788303812E+02  0.59301961151E+02  0.50000031229E+02 0.  0.
        -12    1    1    2    0    0  0.70049460432E+01  0.22201802210E+02 -0.21788303812E+02  0.31886038849E+02  0.00000000000E+00 0.  1.
         11    1    3    3    0    0 -0.34163097953E+01 -0.18964716193E+01  0.21987700769E+01  0.44835663631E+01  0.51100000000E-03 0. -1.
        -11    1    3    3    0    0 -0.21080556451E+02  0.47359126987E+00  0.17806636978E+02  0.27598740364E+02  0.51100000000E-03 0.  1.
         12    1    3    3    0    0  0.17491920203E+02 -0.20778921861E+02  0.17828967577E+01  0.27219654424E+02  0.00000000000E+00 0. -1.
</event>
<event>
 7    1  0.6515090E-012  0.5930200E+02  0.7816164E-02  0.1266605E+00
        -11   -1    0    0    0    0  0.00000000000E+00  0.00000000000E+00  0.45593999997E+02  0.45594000000E+02  0.51100000000E-03 0. -1.
         11   -1    0    0    0    0 -0.00000000000E+00 -0.00000000000E+00 -0.45593999997E+02  0.45594000000E+02  0.51100000000E-03 0.  1.
    9900012    2    1    2    0    0  0.13841281807E+02 -0.22144291999E+02  0.18296615891E+02  0.59302001454E+02  0.50000104732E+02 0.  0.
        -12    1    1    2    0    0 -0.13841281807E+02  0.22144291999E+02 -0.18296615891E+02  0.31885998546E+02  0.00000000000E+00 0.  1.
         11    1    3    3    0    0 -0.10025578439E+02 -0.12963387522E+02 -0.38787996263E+01  0.16840627242E+02  0.51100000000E-03 0. -1.
        -11    1    3    3    0    0  0.10567666588E+02  0.44255893496E+01 -0.20693531502E+01  0.11642321114E+02  0.51100000000E-03 0.  1.
         12    1    3    3    0    0  0.13299193657E+02 -0.13606493826E+02  0.24244768667E+02  0.30819053099E+02  0.00000000000E+00 0. -1.
</event>
<event>
 7    1  0.6515090E-012  0.5930196E+02  0.7816164E-02  0.1266605E+00
        -11   -1    0    0    0    0  0.00000000000E+00  0.00000000000E+00  0.45593999997E+02  0.45594000000E+02  0.51100000000E-03 0. -1.
         11   -1    0    0    0    0 -0.00000000000E+00 -0.00000000000E+00 -0.45593999997E+02  0.45594000000E+02  0.51100000000E-03 0.  1.
    9900012    2    1    2    0    0  0.16403149000E+02 -0.26719380342E+02 -0.58078166049E+01  0.59301963610E+02  0.50000035713E+02 0.  0.
        -12    1    1    2    0    0 -0.16403149000E+02  0.26719380342E+02  0.58078166049E+01  0.31886036390E+02  0.00000000000E+00 0.  1.
         11    1    3    3    0    0  0.41130453880E+01 -0.10323344772E+02  0.42608497948E+01  0.11901404576E+02  0.51100000000E-03 0. -1.
        -11    1    3    3    0    0  0.94485583569E+01 -0.12852309024E+02  0.15016288861E+02  0.21907670659E+02  0.51100000000E-03 0.  1.
        -12    1    3    3    0    0  0.28415452548E+01 -0.35437265466E+01 -0.25084955261E+02  0.25492888376E+02  0.00000000000E+00 0.  1.
</event>
<event>
 7    1  0.6515090E-012  0.5930217E+02  0.7816164E-02  0.1266604E+00
        -11   -1    0    0    0    0  0.00000000000E+00  0.00000000000E+00  0.45593999997E+02  0.45594000000E+02  0.51100000000E-03 0.  1.
         11   -1    0    0    0    0 -0.00000000000E+00 -0.00000000000E+00 -0.45593999997E+02  0.45594000000E+02  0.51100000000E-03 0. -1.
    9900012    2    1    2    0    0 -0.45627748126E+01 -0.74169300204E+01 -0.30673708676E+02  0.59302169780E+02  0.50000411716E+02 0.  0.
        -12    1    1    2    0    0  0.45627748126E+01  0.74169300204E+01  0.30673708676E+02  0.31885830220E+02  0.00000000000E+00 0.  1.
         11    1    3    3    0    0 -0.59628989887E+01 -0.12231007111E+02 -0.15683238969E+02  0.20763373621E+02  0.51100000000E-03 0. -1.
        -11    1    3    3    0    0 -0.94763654436E+01 -0.89011780615E+01  0.31002594071E+01  0.13365780245E+02  0.51100000000E-03 0.  1.
         12    1    3    3    0    0  0.10876489620E+02  0.13715255152E+02 -0.18090729114E+02  0.25173015914E+02  0.00000000000E+00 0. -1.
</event>
<event>
 7    1  0.6515090E-012  0.5930186E+02  0.7816164E-02  0.1266605E+00
        -11   -1    0    0    0    0  0.00000000000E+00  0.00000000000E+00  0.45593999997E+02  0.45594000000E+02  0.51100000000E-03 0.  1.
         11   -1    0    0    0    0 -0.00000000000E+00 -0.00000000000E+00 -0.45593999997E+02  0.45594000000E+02  0.51100000000E-03 0. -1.
    9900012    2    1    2    0    0  0.21992141766E+02  0.69660632434E+01 -0.22012394121E+02  0.59301861452E+02  0.49999849401E+02 0.  0.
        -12    1    1    2    0    0 -0.21992141766E+02 -0.69660632434E+01  0.22012394121E+02  0.31886138548E+02  0.00000000000E+00 0.  1.
         11    1    3    3    0    0  0.13490939775E+02  0.85904003962E+01 -0.13908165460E+02  0.21195223558E+02  0.51100000000E-03 0. -1.
        -11    1    3    3    0    0 -0.11468231618E+01  0.16547090657E+02 -0.24236240076E+01  0.16762916398E+02  0.51100000000E-03 0.  1.
         12    1    3    3    0    0  0.96480251531E+01 -0.18171427810E+02 -0.56806046538E+01  0.21343721495E+02  0.00000000000E+00 0. -1.
</event>
<event>
 7    1  0.6515090E-012  0.5930190E+02  0.7816164E-02  0.1266605E+00
        -11   -1    0    0    0    0  0.00000000000E+00  0.00000000000E+00  0.45593999997E+02  0.45594000000E+02  0.51100000000E-03 0. -1.
         11   -1    0    0    0    0 -0.00000000000E+00 -0.00000000000E+00 -0.45593999997E+02  0.45594000000E+02  0.51100000000E-03 0.  1.
    9900012    2    1    2    0    0 -0.94457731357E+01  0.74009802011E+01  0.29541944262E+02  0.59301896305E+02  0.49999912966E+02 0.  0.
        -12    1    1    2    0    0  0.94457731357E+01 -0.74009802011E+01 -0.29541944262E+02  0.31886103695E+02  0.00000000000E+00 0.  1.
         11    1    3    3    0    0 -0.78916782332E+00 -0.28863667844E+01  0.17613789875E+02  0.17866154961E+02  0.51100000000E-03 0. -1.
        -11    1    3    3    0    0  0.76230160234E+01 -0.10608065201E+02  0.23749336284E+01  0.13277113037E+02  0.51100000000E-03 0.  1.
        -12    1    3    3    0    0 -0.16279621336E+02  0.20895412187E+02  0.95532207581E+01  0.28158628307E+02  0.00000000000E+00 0.  1.
</event>
<event>
 7    1  0.6515090E-012  0.5930195E+02  0.7816164E-02  0.1266605E+00
        -11   -1    0    0    0    0  0.00000000000E+00  0.00000000000E+00  0.45593999997E+02  0.45594000000E+02  0.51100000000E-03 0.  1.
         11   -1    0    0    0    0 -0.00000000000E+00 -0.00000000000E+00 -0.45593999997E+02  0.45594000000E+02  0.51100000000E-03 0. -1.
    9900012    2    1    2    0    0 -0.36089550145E+01 -0.29709024690E+02 -0.11003162588E+02  0.59301948327E+02  0.50000007842E+02 0.  0.
        -12    1    1    2    0    0  0.36089550145E+01  0.29709024690E+02  0.11003162588E+02  0.31886051673E+02  0.00000000000E+00 0.  1.
         11    1    3    3    0    0 -0.10575659240E+02 -0.22958065872E+02  0.30154634219E+01  0.25456047942E+02  0.51100000000E-03 0. -1.
        -11    1    3    3    0    0  0.76682884589E+00  0.16214450095E+01  0.86838491350E+01  0.88671498498E+01  0.51100000000E-03 0.  1.
         12    1    3    3    0    0  0.61998753801E+01 -0.83724038277E+01 -0.22702475145E+02  0.24978750535E+02  0.00000000000E+00 0. -1.
</event>
<event>
 7    1  0.6515090E-012  0.5930202E+02  0.7816164E-02  0.1266604E+00
        -11   -1    0    0    0    0  0.00000000000E+00  0.00000000000E+00  0.45593999997E+02  0.45594000000E+02  0.51100000000E-03 0.  1.
         11   -1    0    0    0    0 -0.00000000000E+00 -0.00000000000E+00 -0.45593999997E+02  0.45594000000E+02  0.51100000000E-03 0. -1.
    9900012    2    1    2    0    0 -0.75122958326E+01  0.30100291899E+02 -0.73656925909E+01  0.59302022072E+02  0.50000142333E+02 0.  0.
        -12    1    1    2    0    0  0.75122958326E+01 -0.30100291899E+02  0.73656925909E+01  0.31885977928E+02  0.00000000000E+00 0.  1.
         11    1    3    3    0    0  0.24848271725E+01 -0.56944311578E+00  0.54744644591E+00  0.26073606217E+01  0.51100000000E-03 0. -1.
        -11    1    3    3    0    0 -0.11260459452E+01  0.63125827951E+00  0.16768107390E+02  0.16817725535E+02  0.51100000000E-03 0.  1.
         12    1    3    3    0    0 -0.88710770600E+01  0.30038476736E+02 -0.24681246426E+02  0.39876935915E+02  0.00000000000E+00 0. -1.
</event>
<event>
 7    1  0.6515090E-012  0.5930197E+02  0.7816164E-02  0.1266605E+00
        -11   -1    0    0    0    0  0.00000000000E+00  0.00000000000E+00  0.45593999997E+02  0.45594000000E+02  0.51100000000E-03 0.  1.
         11   -1    0    0    0    0 -0.00000000000E+00 -0.00000000000E+00 -0.45593999997E+02  0.45594000000E+02  0.51100000000E-03 0. -1.
    9900012    2    1    2    0    0 -0.12681767032E+02 -0.10260002038E+02 -0.27397517188E+02  0.59301971634E+02  0.50000050348E+02 0.  0.
        -12    1    1    2    0    0  0.12681767032E+02  0.10260002038E+02  0.27397517188E+02  0.31886028366E+02  0.00000000000E+00 0.  1.
         11    1    3    3    0    0 -0.18508741981E+02  0.58859297585E+01 -0.13669621645E+02  0.23750289578E+02  0.51100000000E-03 0. -1.
        -11    1    3    3    0    0 -0.70200052126E+01  0.45914664891E+01 -0.39302817647E+01  0.92633229846E+01  0.51100000000E-03 0.  1.
         12    1    3    3    0    0  0.12846980162E+02 -0.20737398286E+02 -0.97976137779E+01  0.26288359072E+02  0.00000000000E+00 0. -1.
</event>
<event>
 7    1  0.6515090E-012  0.5930203E+02  0.7816164E-02  0.1266604E+00
        -11   -1    0    0    0    0  0.00000000000E+00  0.00000000000E+00  0.45593999997E+02  0.45594000000E+02  0.51100000000E-03 0.  1.
         11   -1    0    0    0    0 -0.00000000000E+00 -0.00000000000E+00 -0.45593999997E+02  0.45594000000E+02  0.51100000000E-03 0. -1.
    9900012    2    1    2    0    0  0.26712582216E+02  0.28018957450E+01  0.17184359230E+02  0.59302033329E+02  0.50000162864E+02 0.  0.
        -12    1    1    2    0    0 -0.26712582216E+02 -0.28018957450E+01 -0.17184359230E+02  0.31885966671E+02  0.00000000000E+00 0.  1.
         11    1    3    3    0    0 -0.74261494851E+01  0.83256892052E+00  0.65226305819E+01  0.99189504058E+01  0.51100000000E-03 0. -1.
        -11    1    3    3    0    0 -0.51684274754E+01  0.47218175620E+01 -0.30855349732E+01  0.76504071780E+01  0.51100000000E-03 0.  1.
        -12    1    3    3    0    0  0.39307159176E+02 -0.27524907376E+01  0.13747263621E+02  0.41732675745E+02  0.00000000000E+00 0.  1.
</event>
<event>
 7    1  0.6515090E-012  0.5930194E+02  0.7816164E-02  0.1266605E+00
        -11   -1    0    0    0    0  0.00000000000E+00  0.00000000000E+00  0.45593999997E+02  0.45594000000E+02  0.51100000000E-03 0.  1.
         11   -1    0    0    0    0 -0.00000000000E+00 -0.00000000000E+00 -0.45593999997E+02  0.45594000000E+02  0.51100000000E-03 0. -1.
    9900012    2    1    2    0    0  0.10698905258E+02 -0.26537741261E+02 -0.14071333450E+02  0.59301941761E+02  0.49999995866E+02 0.  0.
        -12    1    1    2    0    0 -0.10698905258E+02  0.26537741261E+02  0.14071333450E+02  0.31886058239E+02  0.00000000000E+00 0.  1.
         11    1    3    3    0    0 -0.58545858858E+01  0.14976533415E+01  0.36083343154E+01  0.70384102054E+01  0.51100000000E-03 0. -1.
        -11    1    3    3    0    0  0.23259978607E+02 -0.12663116200E+02  0.18168761273E+01  0.26545850067E+02  0.51100000000E-03 0.  1.
         12    1    3    3    0    0 -0.67064874623E+01 -0.15372278402E+02 -0.19496543893E+02  0.25717681488E+02  0.00000000000E+00 0. -1.
</event>
<event>
 7    1  0.6515090E-012  0.5930198E+02  0.7816164E-02  0.1266605E+00
        -11   -1    0    0    0    0  0.00000000000E+00  0.00000000000E+00  0.45593999997E+02  0.45594000000E+02  0.51100000000E-03 0.  1.
         11   -1    0    0    0    0 -0.00000000000E+00 -0.00000000000E+00 -0.45593999997E+02  0.45594000000E+02  0.51100000000E-03 0. -1.
    9900012    2    1    2    0    0 -0.16977150492E+02 -0.57404801255E+01 -0.26373122624E+02  0.59301978802E+02  0.50000063420E+02 0.  0.
        -12    1    1    2    0    0  0.16977150492E+02  0.57404801255E+01  0.26373122624E+02  0.31886021198E+02  0.00000000000E+00 0.  1.
         11    1    3    3    0    0  0.61378505236E+01  0.99644417375E+01 -0.16038708264E+02  0.19854557946E+02  0.51100000000E-03 0.  1.
        -11    1    3    3    0    0 -0.25271537158E+01  0.36283018515E+01 -0.10295672914E+02  0.11204997155E+02  0.51100000000E-03 0. -1.
        -12    1    3    3    0    0 -0.20587847300E+02 -0.19333223715E+02 -0.38741446607E-01  0.28242423702E+02  0.00000000000E+00 0.  1.
</event>
<event>
 7    1  0.6515090E-012  0.5930194E+02  0.7816164E-02  0.1266605E+00
        -11   -1    0    0    0    0  0.00000000000E+00  0.00000000000E+00  0.45593999997E+02  0.45594000000E+02  0.51100000000E-03 0. -1.
         11   -1    0    0    0    0 -0.00000000000E+00 -0.00000000000E+00 -0.45593999997E+02  0.45594000000E+02  0.51100000000E-03 0.  1.
    9900012    2    1    2    0    0 -0.20095528469E+02 -0.17501949612E+02  0.17509205575E+02  0.59301940593E+02  0.49999993736E+02 0.  0.
        -12    1    1    2    0    0  0.20095528469E+02  0.17501949612E+02 -0.17509205575E+02  0.31886059407E+02  0.00000000000E+00 0.  1.
         11    1    3    3    0    0  0.42281719236E+01 -0.12316067777E+02  0.79882109589E+01  0.15276599029E+02  0.51100000000E-03 0. -1.
        -11    1    3    3    0    0 -0.52804410797E+01 -0.14908337869E+02  0.15164768013E+02  0.21911453287E+02  0.51100000000E-03 0.  1.
        -12    1    3    3    0    0 -0.19043259313E+02  0.97224560338E+01 -0.56437733971E+01  0.22113888277E+02  0.00000000000E+00 0.  1.
</event>
<event>
 7    1  0.6515090E-012  0.5930196E+02  0.7816164E-02  0.1266605E+00
        -11   -1    0    0    0    0  0.00000000000E+00  0.00000000000E+00  0.45593999997E+02  0.45594000000E+02  0.51100000000E-03 0. -1.
         11   -1    0    0    0    0 -0.00000000000E+00 -0.00000000000E+00 -0.45593999997E+02  0.45594000000E+02  0.51100000000E-03 0.  1.
    9900012    2    1    2    0    0  0.28334166625E+02  0.10478806125E+02  0.10202421674E+02  0.59301956279E+02  0.50000022344E+02 0.  0.
        -12    1    1    2    0    0 -0.28334166625E+02 -0.10478806125E+02 -0.10202421674E+02  0.31886043721E+02  0.00000000000E+00 0.  1.
         11    1    3    3    0    0  0.47297040662E+01  0.95982969318E+01 -0.81718340949E+01  0.13463887896E+02  0.51100000000E-03 0.  1.
        -11    1    3    3    0    0  0.72097686384E+01  0.17328157379E+02  0.84824074462E+01  0.20596044240E+02  0.51100000000E-03 0. -1.
         12    1    3    3    0    0  0.16394693921E+02 -0.16447648186E+02  0.98918483224E+01  0.25242024143E+02  0.00000000000E+00 0. -1.
</event>
<event>
 7    1  0.6515090E-012  0.5930192E+02  0.7816164E-02  0.1266605E+00
        -11   -1    0    0    0    0  0.00000000000E+00  0.00000000000E+00  0.45593999997E+02  0.45594000000E+02  0.51100000000E-03 0.  1.
         11   -1    0    0    0    0 -0.00000000000E+00 -0.00000000000E+00 -0.45593999997E+02  0.45594000000E+02  0.51100000000E-03 0. -1.
    9900012    2    1    2    0    0 -0.28415372231E+02 -0.14387056705E+02 -0.15169623086E+01  0.59301922250E+02  0.49999960282E+02 0.  0.
        -12    1    1    2    0    0  0.28415372231E+02  0.14387056705E+02  0.15169623086E+01  0.31886077750E+02  0.00000000000E+00 0.  1.
         11    1    3    3    0    0 -0.18616854643E+01 -0.19224506490E+00  0.71570063536E+01  0.73976733599E+01  0.51100000000E-03 0.  1.
        -11    1    3    3    0    0  0.16763388513E+00  0.54497724502E+01  0.11750818943E+02  0.12954144780E+02  0.51100000000E-03 0. -1.
         12    1    3    3    0    0 -0.26721320652E+02 -0.19644584090E+02 -0.20424787605E+02  0.38950104110E+02  0.00000000000E+00 0. -1.
</event>
<event>
 7    1  0.6515090E-012  0.5930195E+02  0.7816164E-02  0.1266605E+00
        -11   -1    0    0    0    0  0.00000000000E+00  0.00000000000E+00  0.45593999997E+02  0.45594000000E+02  0.51100000000E-03 0.  1.
         11   -1    0    0    0    0 -0.00000000000E+00 -0.00000000000E+00 -0.45593999997E+02  0.45594000000E+02  0.51100000000E-03 0. -1.
    9900012    2    1    2    0    0 -0.51659496935E+01 -0.19205558890E+02 -0.24923477023E+02  0.59301949203E+02  0.50000009438E+02 0.  0.
        -12    1    1    2    0    0  0.51659496935E+01  0.19205558890E+02  0.24923477023E+02  0.31886050797E+02  0.00000000000E+00 0.  1.
         11    1    3    3    0    0 -0.18329678897E+02 -0.18472176631E+02 -0.14791355366E+02  0.29932968977E+02  0.51100000000E-03 0. -1.
        -11    1    3    3    0    0 -0.58547542892E+01 -0.40260606758E+01  0.85954794061E+00  0.71572435529E+01  0.51100000000E-03 0.  1.
         12    1    3    3    0    0  0.19018483492E+02  0.32926784171E+01 -0.10991669598E+02  0.22211736674E+02  0.00000000000E+00 0. -1.
</event>
<event>
 7    1  0.6515090E-012  0.5930193E+02  0.7816164E-02  0.1266605E+00
        -11   -1    0    0    0    0  0.00000000000E+00  0.00000000000E+00  0.45593999997E+02  0.45594000000E+02  0.51100000000E-03 0. -1.
         11   -1    0    0    0    0 -0.00000000000E+00 -0.00000000000E+00 -0.45593999997E+02  0.45594000000E+02  0.51100000000E-03 0.  1.
    9900012    2    1    2    0    0  0.29703852890E+02 -0.51375982855E+01 -0.10392681580E+02  0.59301927443E+02  0.49999969754E+02 0.  0.
        -12    1    1    2    0    0 -0.29703852890E+02  0.51375982855E+01  0.10392681580E+02  0.31886072557E+02  0.00000000000E+00 0.  1.
         11    1    3    3    0    0 -0.22326699699E+01  0.37189468451E+01  0.70086759523E+01  0.82423855586E+01  0.51100000000E-03 0. -1.
        -11    1    3    3    0    0  0.22304999296E+02  0.81723886895E+00  0.67490643517E+01  0.23318034712E+02  0.51100000000E-03 0.  1.
        -12    1    3    3    0    0  0.96315235644E+01 -0.96737839996E+01 -0.24150421884E+02  0.27741507172E+02  0.00000000000E+00 0.  1.
</event>
<event>
 7    1  0.6515090E-012  0.5930195E+02  0.7816164E-02  0.1266605E+00
        -11   -1    0    0    0    0  0.00000000000E+00  0.00000000000E+00  0.45593999997E+02  0.45594000000E+02  0.51100000000E-03 0.  1.
         11   -1    0    0    0    0 -0.00000000000E+00 -0.00000000000E+00 -0.45593999997E+02  0.45594000000E+02  0.51100000000E-03 0. -1.
    9900012    2    1    2    0    0 -0.30176306682E+01  0.21572420875E+02 -0.23286148720E+02  0.59301950394E+02  0.50000011611E+02 0.  0.
        -12    1    1    2    0    0  0.30176306682E+01 -0.21572420875E+02  0.23286148720E+02  0.31886049606E+02  0.00000000000E+00 0.  1.
         11    1    3    3    0    0 -0.10043567877E+02  0.97239963994E+01  0.23545112177E+01  0.14176497629E+02  0.51100000000E-03 0. -1.
        -11    1    3    3    0    0  0.11465820559E+02  0.16857606925E+02 -0.19189591581E+01  0.20477459727E+02  0.51100000000E-03 0.  1.
        -12    1    3    3    0    0 -0.44398833500E+01 -0.50091824496E+01 -0.23721700779E+02  0.24647993039E+02  0.00000000000E+00 0.  1.
</event>
<event>
 7    1  0.6515090E-012  0.5930194E+02  0.7816164E-02  0.1266605E+00
        -11   -1    0    0    0    0  0.00000000000E+00  0.00000000000E+00  0.45593999997E+02  0.45594000000E+02  0.51100000000E-03 0.  1.
         11   -1    0    0    0    0 -0.00000000000E+00 -0.00000000000E+00 -0.45593999997E+02  0.45594000000E+02  0.51100000000E-03 0. -1.
    9900012    2    1    2    0    0  0.22324273736E+02  0.21912263157E+02 -0.61806665255E+01  0.59301935439E+02  0.49999984337E+02 0.  0.
        -12    1    1    2    0    0 -0.22324273736E+02 -0.21912263157E+02  0.61806665255E+01  0.31886064561E+02  0.00000000000E+00 0.  1.
         11    1    3    3    0    0  0.39498225450E+01  0.78201399763E+01 -0.12620634481E+02  0.15363466482E+02  0.51100000000E-03 0. -1.
        -11    1    3    3    0    0 -0.68770742710E+01 -0.73331851280E+01 -0.64073183367E+00  0.10073742710E+02  0.51100000000E-03 0.  1.
         12    1    3    3    0    0  0.25251525462E+02  0.21425308308E+02  0.70806997893E+01  0.33864726247E+02  0.00000000000E+00 0. -1.
</event>
<event>
 7    1  0.6515090E-012  0.5930192E+02  0.7816164E-02  0.1266605E+00
        -11   -1    0    0    0    0  0.00000000000E+00  0.00000000000E+00  0.45593999997E+02  0.45594000000E+02  0.51100000000E-03 0.  1.
         11   -1    0    0    0    0 -0.00000000000E+00 -0.00000000000E+00 -0.45593999997E+02  0.45594000000E+02  0.51100000000E-03 0. -1.
    9900012    2    1    2    0    0 -0.53296754062E+01  0.31396754652E+02 -0.16001037429E+01  0.59301921932E+02  0.49999959702E+02 0.  0.
        -12    1    1    2    0    0  0.53296754062E+01 -0.31396754652E+02  0.16001037429E+01  0.31886078068E+02  0.00000000000E+00 0.  1.
         11    1    3    3    0    0 -0.70880141809E+01  0.36344941764E+01  0.86926542895E+01  0.11790323651E+02  0.51100000000E-03 0. -1.
        -11    1    3    3    0    0 -0.14750867996E+02  0.15020659842E+02  0.50156434376E+01  0.21641742260E+02  0.51100000000E-03 0.  1.
         12    1    3    3    0    0  0.16509206771E+02  0.12741600634E+02 -0.15308401470E+02  0.25869856020E+02  0.00000000000E+00 0. -1.
</event>
<event>
 7    1  0.6515090E-012  0.5930191E+02  0.7816164E-02  0.1266605E+00
        -11   -1    0    0    0    0  0.00000000000E+00  0.00000000000E+00  0.45593999997E+02  0.45594000000E+02  0.51100000000E-03 0.  1.
         11   -1    0    0    0    0 -0.00000000000E+00 -0.00000000000E+00 -0.45593999997E+02  0.45594000000E+02  0.51100000000E-03 0. -1.
    9900012    2    1    2    0    0 -0.31014043354E+02 -0.58585050805E+01  0.45310044971E+01  0.59301906344E+02  0.49999931273E+02 0.  0.
        -12    1    1    2    0    0  0.31014043354E+02  0.58585050805E+01 -0.45310044971E+01  0.31886093656E+02  0.00000000000E+00 0.  1.
         11    1    3    3    0    0 -0.91341543220E+01 -0.19089922175E+02  0.15681441978E+00  0.21163234508E+02  0.51100000000E-03 0. -1.
        -11    1    3    3    0    0  0.22951275452E+01 -0.63069066757E+01  0.18008389036E+01  0.69489354065E+01  0.51100000000E-03 0.  1.
        -12    1    3    3    0    0 -0.24175016577E+02  0.19538323770E+02  0.25733511737E+01  0.31189736429E+02  0.00000000000E+00 0.  1.
</event>
<event>
 7    1  0.6515090E-012  0.5930195E+02  0.7816164E-02  0.1266605E+00
        -11   -1    0    0    0    0  0.00000000000E+00  0.00000000000E+00  0.45593999997E+02  0.45594000000E+02  0.51100000000E-03 0.  1.
         11   -1    0    0    0    0 -0.00000000000E+00 -0.00000000000E+00 -0.45593999997E+02  0.45594000000E+02  0.51100000000E-03 0. -1.
    9900012    2    1    2    0    0  0.22576955340E+02 -0.14516839055E+02 -0.17212277628E+02  0.59301952429E+02  0.50000015322E+02 0.  0.
        -12    1    1    2    0    0 -0.22576955340E+02  0.14516839055E+02  0.17212277628E+02  0.31886047571E+02  0.00000000000E+00 0.  1.
         11    1    3    3    0    0  0.18318129040E+02 -0.83149142531E+00 -0.90377071682E+01  0.20443223343E+02  0.51100000000E-03 0. -1.
        -11    1    3    3    0    0  0.10235492967E+02  0.75383014579E+01  0.44293382175E+01  0.13461439093E+02  0.51100000000E-03 0.  1.
         12    1    3    3    0    0 -0.59766666673E+01 -0.21223649088E+02 -0.12603908677E+02  0.25397289993E+02  0.00000000000E+00 0. -1.
</event>
<event>
 7    1  0.6515090E-012  0.5930194E+02  0.7816164E-02  0.1266605E+00
        -11   -1    0    0    0    0  0.00000000000E+00  0.00000000000E+00  0.45593999997E+02  0.45594000000E+02  0.51100000000E-03 0. -1.
         11   -1    0    0    0    0 -0.00000000000E+00 -0.00000000000E+00 -0.45593999997E+02  0.45594000000E+02  0.51100000000E-03 0.  1.
    9900012    2    1    2    0    0 -0.25220077854E+02  0.10499589858E+02  0.16444665837E+02  0.59301941155E+02  0.49999994762E+02 0.  0.
        -12    1    1    2    0    0  0.25220077854E+02 -0.10499589858E+02 -0.16444665837E+02  0.31886058845E+02  0.00000000000E+00 0.  1.
         11    1    3    3    0    0 -0.94680126495E+01 -0.25089155987E+01 -0.13757498042E+02  0.16888063052E+02  0.51100000000E-03 0.  1.
        -11    1    3    3    0    0 -0.14576199191E+02  0.60572686171E+01  0.54843142198E+01  0.16710289904E+02  0.51100000000E-03 0. -1.
         12    1    3    3    0    0 -0.11758660128E+01  0.69512368399E+01  0.24717849660E+02  0.25703588199E+02  0.00000000000E+00 0. -1.
</event>
<event>
 7    1  0.6515090E-012  0.5930195E+02  0.7816164E-02  0.1266605E+00
        -11   -1    0    0    0    0  0.00000000000E+00  0.00000000000E+00  0.45593999997E+02  0.45594000000E+02  0.51100000000E-03 0. -1.
         11   -1    0    0    0    0 -0.00000000000E+00 -0.00000000000E+00 -0.45593999997E+02  0.45594000000E+02  0.51100000000E-03 0.  1.
    9900012    2    1    2    0    0  0.37045883337E+01  0.17518588249E+02  0.26383621296E+02  0.59301946911E+02  0.50000005258E+02 0.  0.
        -12    1    1    2    0    0 -0.37045883337E+01 -0.17518588249E+02 -0.26383621296E+02  0.31886053089E+02  0.00000000000E+00 0.  1.
         11    1    3    3    0    0 -0.56830859816E+01 -0.27488627643E+01  0.17848466261E+01  0.65604413350E+01  0.51100000000E-03 0. -1.
        -11    1    3    3    0    0  0.91530215989E+01 -0.94178619145E+01 -0.14944961292E+01  0.13217694442E+02  0.51100000000E-03 0.  1.
         12    1    3    3    0    0  0.23465271629E+00  0.29685312928E+02  0.26093270799E+02  0.39523811133E+02  0.00000000000E+00 0. -1.
</event>
<event>
 7    1  0.6515090E-012  0.5930197E+02  0.7816164E-02  0.1266605E+00
        -11   -1    0    0    0    0  0.00000000000E+00  0.00000000000E+00  0.45593999997E+02  0.45594000000E+02  0.51100000000E-03 0.  1.
         11   -1    0    0    0    0 -0.00000000000E+00 -0.00000000000E+00 -0.45593999997E+02  0.45594000000E+02  0.51100000000E-03 0. -1.
    9900012    2    1    2    0    0  0.27310006793E+02  0.88288378224E+01 -0.13890071955E+02  0.59301969403E+02  0.50000046278E+02 0.  0.
        -12    1    1    2    0    0 -0.27310006793E+02 -0.88288378224E+01  0.13890071955E+02  0.31886030597E+02  0.00000000000E+00 0.  1.
         11    1    3    3    0    0 -0.14278713412E+01 -0.92184483578E+01 -0.14518087061E+02  0.17256693161E+02  0.51100000000E-03 0. -1.
        -11    1    3    3    0    0  0.32154278026E+01 -0.50298251273E+01  0.44206402883E+01  0.74283361249E+01  0.51100000000E-03 0.  1.
         12    1    3    3    0    0  0.25522450332E+02  0.23077111308E+02 -0.37926251817E+01  0.34616940116E+02  0.00000000000E+00 0. -1.
</event>
<event>
 7    1  0.6515090E-012  0.5930210E+02  0.7816164E-02  0.1266604E+00
        -11   -1    0    0    0    0  0.00000000000E+00  0.00000000000E+00  0.45593999997E+02  0.45594000000E+02  0.51100000000E-03 0.  1.
         11   -1    0    0    0    0 -0.00000000000E+00 -0.00000000000E+00 -0.45593999997E+02  0.45594000000E+02  0.51100000000E-03 0. -1.
    9900012    2    1    2    0    0 -0.14603384000E+02  0.99762232172E+00 -0.28327660652E+02  0.59302102921E+02  0.50000289782E+02 0.  0.
        -12    1    1    2    0    0  0.14603384000E+02 -0.99762232172E+00  0.28327660652E+02  0.31885897079E+02  0.00000000000E+00 0.  1.
         11    1    3    3    0    0 -0.21443509153E+01  0.49048450172E+01 -0.20484909864E+02  0.21172795703E+02  0.51100000000E-03 0. -1.
        -11    1    3    3    0    0 -0.66325660183E+01  0.74128224355E+01 -0.18840768238E+02  0.21305290810E+02  0.51100000000E-03 0.  1.
        -12    1    3    3    0    0 -0.58264670662E+01 -0.11320045131E+02  0.10998017450E+02  0.16824016407E+02  0.00000000000E+00 0.  1.
</event>
<event>
 7    1  0.6515090E-012  0.5930174E+02  0.7816164E-02  0.1266605E+00
        -11   -1    0    0    0    0  0.00000000000E+00  0.00000000000E+00  0.45593999997E+02  0.45594000000E+02  0.51100000000E-03 0. -1.
         11   -1    0    0    0    0 -0.00000000000E+00 -0.00000000000E+00 -0.45593999997E+02  0.45594000000E+02  0.51100000000E-03 0.  1.
    9900012    2    1    2    0    0  0.21526653630E+02  0.23463420887E+02  0.16747788119E+01  0.59301736181E+02  0.49999620937E+02 0.  0.
        -12    1    1    2    0    0 -0.21526653630E+02 -0.23463420887E+02 -0.16747788119E+01  0.31886263819E+02  0.00000000000E+00 0.  1.
         11    1    3    3    0    0  0.86742847608E+01 -0.55000317559E+01  0.44307814581E+01  0.11185946094E+02  0.51100000000E-03 0. -1.
        -11    1    3    3    0    0  0.15374474114E+02 -0.44412108281E-01  0.76784357611E+01  0.17185307757E+02  0.51100000000E-03 0.  1.
        -12    1    3    3    0    0 -0.25221052445E+01  0.29007864752E+02 -0.10434438407E+02  0.30930482330E+02  0.00000000000E+00 0.  1.
</event>
<event>
 7    1  0.6515090E-012  0.5930194E+02  0.7816164E-02  0.1266605E+00
        -11   -1    0    0    0    0  0.00000000000E+00  0.00000000000E+00  0.45593999997E+02  0.45594000000E+02  0.51100000000E-03 0.  1.
         11   -1    0    0    0    0 -0.00000000000E+00 -0.00000000000E+00 -0.45593999997E+02  0.45594000000E+02  0.51100000000E-03 0. -1.
    9900012    2    1    2    0    0 -0.18901925898E+02  0.23591612960E+01 -0.25570929694E+02  0.59301938938E+02  0.49999990717E+02 0.  0.
        -12    1    1    2    0    0  0.18901925898E+02 -0.23591612960E+01  0.25570929694E+02  0.31886061062E+02  0.00000000000E+00 0.  1.
         11    1    3    3    0    0  0.12124482344E+01  0.37691447842E+01 -0.15226308742E+00  0.39622805850E+01  0.51100000000E-03 0. -1.
        -11    1    3    3    0    0 -0.11971990881E+02 -0.19452262399E+02  0.35249361943E+00  0.22843890433E+02  0.51100000000E-03 0.  1.
         12    1    3    3    0    0 -0.81423832508E+01  0.18042278911E+02 -0.25771160226E+02  0.32495767920E+02  0.00000000000E+00 0. -1.
</event>
<event>
 7    1  0.6515090E-012  0.5930191E+02  0.7816164E-02  0.1266605E+00
        -11   -1    0    0    0    0  0.00000000000E+00  0.00000000000E+00  0.45593999997E+02  0.45594000000E+02  0.51100000000E-03 0.  1.
         11   -1    0    0    0    0 -0.00000000000E+00 -0.00000000000E+00 -0.45593999997E+02  0.45594000000E+02  0.51100000000E-03 0. -1.
    9900012    2    1    2    0    0  0.24678597584E+02  0.10928966276E+02 -0.16977844778E+02  0.59301910621E+02  0.49999939074E+02 0.  0.
        -12    1    1    2    0    0 -0.24678597584E+02 -0.10928966276E+02  0.16977844778E+02  0.31886089379E+02  0.00000000000E+00 0.  1.
         11    1    3    3    0    0 -0.42385555698E+01  0.80725057926E+01  0.12067600798E+02  0.15124737762E+02  0.51100000000E-03 0. -1.
        -11    1    3    3    0    0 -0.11203885172E+01 -0.25322982674E+01 -0.24624380284E+01  0.37055912146E+01  0.51100000000E-03 0.  1.
         12    1    3    3    0    0  0.30037541671E+02  0.53887587511E+01 -0.26583007548E+02  0.40471581644E+02  0.00000000000E+00 0. -1.
</event>
<event>
 7    1  0.6515090E-012  0.5930191E+02  0.7816164E-02  0.1266605E+00
        -11   -1    0    0    0    0  0.00000000000E+00  0.00000000000E+00  0.45593999997E+02  0.45594000000E+02  0.51100000000E-03 0. -1.
         11   -1    0    0    0    0 -0.00000000000E+00 -0.00000000000E+00 -0.45593999997E+02  0.45594000000E+02  0.51100000000E-03 0.  1.
    9900012    2    1    2    0    0  0.14134988859E+02  0.28574218495E+02 -0.66257212541E+00  0.59301907821E+02  0.49999933967E+02 0.  0.
        -12    1    1    2    0    0 -0.14134988859E+02 -0.28574218495E+02  0.66257212541E+00  0.31886092179E+02  0.00000000000E+00 0.  1.
         11    1    3    3    0    0  0.93407170768E+01  0.57818540963E+00 -0.25242164646E+01  0.96930368253E+01  0.51100000000E-03 0.  1.
        -11    1    3    3    0    0  0.13927187984E+02  0.28245024166E+02  0.13960688327E+02  0.34447768782E+02  0.51100000000E-03 0. -1.
        -12    1    3    3    0    0 -0.91329162015E+01 -0.24899108050E+00 -0.12099043988E+02  0.15161102213E+02  0.00000000000E+00 0.  1.
</event>
<event>
 7    1  0.6515090E-012  0.5930193E+02  0.7816164E-02  0.1266605E+00
        -11   -1    0    0    0    0  0.00000000000E+00  0.00000000000E+00  0.45593999997E+02  0.45594000000E+02  0.51100000000E-03 0. -1.
         11   -1    0    0    0    0 -0.00000000000E+00 -0.00000000000E+00 -0.45593999997E+02  0.45594000000E+02  0.51100000000E-03 0.  1.
    9900012    2    1    2    0    0  0.30048324830E+02 -0.98952267653E+01  0.39880010620E+01  0.59301929525E+02  0.49999973551E+02 0.  0.
        -12    1    1    2    0    0 -0.30048324830E+02  0.98952267653E+01 -0.39880010620E+01  0.31886070475E+02  0.00000000000E+00 0.  1.
         11    1    3    3    0    0  0.27649397136E+02 -0.57664270614E+00  0.16406100678E+02  0.32155587671E+02  0.51100000000E-03 0. -1.
        -11    1    3    3    0    0 -0.29481058267E+01 -0.32949195129E+01  0.57614604075E+01  0.72623858925E+01  0.51100000000E-03 0.  1.
        -12    1    3    3    0    0  0.53470335210E+01 -0.60236645462E+01 -0.18179560023E+02  0.19883955962E+02  0.00000000000E+00 0.  1.
</event>
<event>
 7    1  0.6515090E-012  0.5930196E+02  0.7816164E-02  0.1266605E+00
        -11   -1    0    0    0    0  0.00000000000E+00  0.00000000000E+00  0.45593999997E+02  0.45594000000E+02  0.51100000000E-03 0. -1.
         11   -1    0    0    0    0 -0.00000000000E+00 -0.00000000000E+00 -0.45593999997E+02  0.45594000000E+02  0.51100000000E-03 0.  1.
    9900012    2    1    2    0    0  0.30784149213E+02 -0.55616604160E+01  0.61744577319E+01  0.59301955441E+02  0.50000020815E+02 0.  0.
        -12    1    1    2    0    0 -0.30784149213E+02  0.55616604160E+01 -0.61744577319E+01  0.31886044559E+02  0.00000000000E+00 0.  1.
         11    1    3    3    0    0  0.16872831077E+02  0.16054811340E+02  0.79434050821E+01  0.24607866227E+02  0.51100000000E-03 0. -1.
        -11    1    3    3    0    0  0.16438204700E+02 -0.42316375190E+01 -0.22333773277E+01  0.17120435286E+02  0.51100000000E-03 0.  1.
        -12    1    3    3    0    0 -0.25268865636E+01 -0.17384834237E+02  0.46442997750E+00  0.17573653927E+02  0.00000000000E+00 0.  1.
</event>
<event>
 7    1  0.6515090E-012  0.5930197E+02  0.7816164E-02  0.1266605E+00
        -11   -1    0    0    0    0  0.00000000000E+00  0.00000000000E+00  0.45593999997E+02  0.45594000000E+02  0.51100000000E-03 0.  1.
         11   -1    0    0    0    0 -0.00000000000E+00 -0.00000000000E+00 -0.45593999997E+02  0.45594000000E+02  0.51100000000E-03 0. -1.
    9900012    2    1    2    0    0  0.25607314112E+02 -0.17487447517E+02 -0.74279076987E+01  0.59301965918E+02  0.50000039924E+02 0.  0.
        -12    1    1    2    0    0 -0.25607314112E+02  0.17487447517E+02  0.74279076987E+01  0.31886034082E+02  0.00000000000E+00 0.  1.
         11    1    3    3    0    0  0.12683431914E+02 -0.16612342444E+02  0.13609482788E+02  0.24941078336E+02  0.51100000000E-03 0. -1.
        -11    1    3    3    0    0  0.72686964740E+01  0.11461303112E+02 -0.11259744793E+02  0.17634547642E+02  0.51100000000E-03 0.  1.
         12    1    3    3    0    0  0.56551857240E+01 -0.12336408186E+02 -0.97776456936E+01  0.16726339940E+02  0.00000000000E+00 0. -1.
</event>
<event>
 7    1  0.6515090E-012  0.5930194E+02  0.7816164E-02  0.1266605E+00
        -11   -1    0    0    0    0  0.00000000000E+00  0.00000000000E+00  0.45593999997E+02  0.45594000000E+02  0.51100000000E-03 0.  1.
         11   -1    0    0    0    0 -0.00000000000E+00 -0.00000000000E+00 -0.45593999997E+02  0.45594000000E+02  0.51100000000E-03 0. -1.
    9900012    2    1    2    0    0  0.13057769081E+02 -0.28735520908E+02 -0.45260759913E+01  0.59301939423E+02  0.49999991603E+02 0.  0.
        -12    1    1    2    0    0 -0.13057769081E+02  0.28735520908E+02  0.45260759913E+01  0.31886060577E+02  0.00000000000E+00 0.  1.
         11    1    3    3    0    0 -0.15089804675E+02 -0.47151542014E+01  0.43625487717E+01  0.16400204764E+02  0.51100000000E-03 0. -1.
        -11    1    3    3    0    0  0.43924365533E+01  0.30433710792E+01  0.12565197674E+01  0.54894852752E+01  0.51100000000E-03 0.  1.
        -12    1    3    3    0    0  0.23755137202E+02 -0.27063737786E+02 -0.10145144530E+02  0.37412249384E+02  0.00000000000E+00 0.  1.
</event>
<event>
 7    1  0.6515090E-012  0.5930195E+02  0.7816164E-02  0.1266605E+00
        -11   -1    0    0    0    0  0.00000000000E+00  0.00000000000E+00  0.45593999997E+02  0.45594000000E+02  0.51100000000E-03 0. -1.
         11   -1    0    0    0    0 -0.00000000000E+00 -0.00000000000E+00 -0.45593999997E+02  0.45594000000E+02  0.51100000000E-03 0.  1.
    9900012    2    1    2    0    0 -0.57454782790E+01 -0.16313039402E+02  0.26787956762E+02  0.59301946580E+02  0.50000004655E+02 0.  0.
        -12    1    1    2    0    0  0.57454782790E+01  0.16313039402E+02 -0.26787956762E+02  0.31886053420E+02  0.00000000000E+00 0.  1.
         11    1    3    3    0    0 -0.66944001277E+01  0.24547879992E+00  0.24421800756E+02  0.25323893961E+02  0.51100000000E-03 0. -1.
        -11    1    3    3    0    0  0.23218458783E+01  0.84547876384E+01  0.16185297253E+01  0.89159430811E+01  0.51100000000E-03 0.  1.
         12    1    3    3    0    0 -0.13729240296E+01 -0.25013305841E+02  0.74762628137E+00  0.25062109538E+02  0.00000000000E+00 0. -1.
</event>
<event>
 7    1  0.6515090E-012  0.5930194E+02  0.7816164E-02  0.1266605E+00
        -11   -1    0    0    0    0  0.00000000000E+00  0.00000000000E+00  0.45593999997E+02  0.45594000000E+02  0.51100000000E-03 0. -1.
         11   -1    0    0    0    0 -0.00000000000E+00 -0.00000000000E+00 -0.45593999997E+02  0.45594000000E+02  0.51100000000E-03 0.  1.
    9900012    2    1    2    0    0 -0.10584078515E+02  0.26906929706E+02  0.13443029767E+02  0.59301942960E+02  0.49999998053E+02 0.  0.
        -12    1    1    2    0    0  0.10584078515E+02 -0.26906929706E+02 -0.13443029767E+02  0.31886057040E+02  0.00000000000E+00 0.  1.
         11    1    3    3    0    0 -0.83113130630E+01  0.21005738208E+02  0.27926564132E+02  0.35919520416E+02  0.51100000000E-03 0. -1.
        -11    1    3    3    0    0  0.54740925164E+01 -0.10445458368E+01 -0.29445579436E-01  0.55729374827E+01  0.51100000000E-03 0.  1.
         12    1    3    3    0    0 -0.77468579686E+01  0.69457373354E+01 -0.14454088786E+02  0.17809485061E+02  0.00000000000E+00 0. -1.
</event>
<event>
 7    1  0.6515090E-012  0.5930190E+02  0.7816164E-02  0.1266605E+00
        -11   -1    0    0    0    0  0.00000000000E+00  0.00000000000E+00  0.45593999997E+02  0.45594000000E+02  0.51100000000E-03 0. -1.
         11   -1    0    0    0    0 -0.00000000000E+00 -0.00000000000E+00 -0.45593999997E+02  0.45594000000E+02  0.51100000000E-03 0.  1.
    9900012    2    1    2    0    0 -0.23083819324E+02  0.18824846948E+02  0.11379169344E+02  0.59301904721E+02  0.49999928313E+02 0.  0.
        -12    1    1    2    0    0  0.23083819324E+02 -0.18824846948E+02 -0.11379169344E+02  0.31886095279E+02  0.00000000000E+00 0.  1.
         11    1    3    3    0    0  0.48883707428E+01  0.40910461084E+01 -0.88467213352E+01  0.10904004101E+02  0.51100000000E-03 0. -1.
        -11    1    3    3    0    0 -0.74308149464E+01  0.13356931327E+02 -0.47731968878E+01  0.16012745986E+02  0.51100000000E-03 0.  1.
         12    1    3    3    0    0 -0.20541375120E+02  0.13768695135E+01  0.24999087567E+02  0.32385154634E+02  0.00000000000E+00 0. -1.
</event>
<event>
 7    1  0.6515090E-012  0.5930198E+02  0.7816164E-02  0.1266605E+00
        -11   -1    0    0    0    0  0.00000000000E+00  0.00000000000E+00  0.45593999997E+02  0.45594000000E+02  0.51100000000E-03 0.  1.
         11   -1    0    0    0    0 -0.00000000000E+00 -0.00000000000E+00 -0.45593999997E+02  0.45594000000E+02  0.51100000000E-03 0. -1.
    9900012    2    1    2    0    0  0.47850341749E-01  0.14475362381E+01 -0.31853110019E+02  0.59301980043E+02  0.50000065684E+02 0.  0.
        -12    1    1    2    0    0 -0.47850341749E-01 -0.14475362381E+01  0.31853110019E+02  0.31886019957E+02  0.00000000000E+00 0.  1.
         11    1    3    3    0    0 -0.29800693795E+00  0.14215139571E+02 -0.26585516483E+02  0.30148775897E+02  0.51100000000E-03 0. -1.
        -11    1    3    3    0    0 -0.63389204505E+01  0.38420777469E+01  0.45860892542E+01  0.87164034325E+01  0.51100000000E-03 0.  1.
         12    1    3    3    0    0  0.66847777302E+01 -0.16609681080E+02 -0.98536827896E+01  0.20436800713E+02  0.00000000000E+00 0. -1.
</event>
<event>
 7    1  0.6515090E-012  0.5930194E+02  0.7816164E-02  0.1266605E+00
        -11   -1    0    0    0    0  0.00000000000E+00  0.00000000000E+00  0.45593999997E+02  0.45594000000E+02  0.51100000000E-03 0.  1.
         11   -1    0    0    0    0 -0.00000000000E+00 -0.00000000000E+00 -0.45593999997E+02  0.45594000000E+02  0.51100000000E-03 0. -1.
    9900012    2    1    2    0    0 -0.24080535379E+02  0.68023968851E+01 -0.19762992288E+02  0.59301942675E+02  0.49999997534E+02 0.  0.
        -12    1    1    2    0    0  0.24080535379E+02 -0.68023968851E+01  0.19762992288E+02  0.31886057325E+02  0.00000000000E+00 0.  1.
         11    1    3    3    0    0 -0.56267905649E+01  0.26627927913E+01 -0.20164584149E+02  0.21103594284E+02  0.51100000000E-03 0. -1.
        -11    1    3    3    0    0  0.92899506722E+01 -0.67772012490E+00  0.33201660810E+01  0.98886799486E+01  0.51100000000E-03 0.  1.
        -12    1    3    3    0    0 -0.27743695487E+02  0.48173242187E+01 -0.29185742194E+01  0.28309668443E+02  0.00000000000E+00 0.  1.
</event>
<event>
 7    1  0.6515090E-012  0.5930195E+02  0.7816164E-02  0.1266605E+00
        -11   -1    0    0    0    0  0.00000000000E+00  0.00000000000E+00  0.45593999997E+02  0.45594000000E+02  0.51100000000E-03 0.  1.
         11   -1    0    0    0    0 -0.00000000000E+00 -0.00000000000E+00 -0.45593999997E+02  0.45594000000E+02  0.51100000000E-03 0. -1.
    9900012    2    1    2    0    0 -0.27073223757E+02  0.16820054688E+02 -0.91989082129E+00  0.59301954722E+02  0.50000019505E+02 0.  0.
        -12    1    1    2    0    0  0.27073223757E+02 -0.16820054688E+02  0.91989082129E+00  0.31886045278E+02  0.00000000000E+00 0.  1.
         11    1    3    3    0    0 -0.14952258104E+02 -0.46702430240E+01 -0.12227740783E+02  0.19872061726E+02  0.51100000000E-03 0. -1.
        -11    1    3    3    0    0 -0.96070217374E+01 -0.37854947140E+01 -0.23504746912E+01  0.10590069331E+02  0.51100000000E-03 0.  1.
         12    1    3    3    0    0 -0.25139439156E+01  0.25275792426E+02  0.13658324653E+02  0.28839823666E+02  0.00000000000E+00 0. -1.
</event>
<event>
 7    1  0.6515090E-012  0.5930194E+02  0.7816164E-02  0.1266605E+00
        -11   -1    0    0    0    0  0.00000000000E+00  0.00000000000E+00  0.45593999997E+02  0.45594000000E+02  0.51100000000E-03 0.  1.
         11   -1    0    0    0    0 -0.00000000000E+00 -0.00000000000E+00 -0.45593999997E+02  0.45594000000E+02  0.51100000000E-03 0. -1.
    9900012    2    1    2    0    0  0.76988742376E+01 -0.30790304161E+02 -0.30667841494E+01  0.59301942548E+02  0.49999997301E+02 0.  0.
        -12    1    1    2    0    0 -0.76988742376E+01  0.30790304161E+02  0.30667841494E+01  0.31886057452E+02  0.00000000000E+00 0.  1.
         11    1    3    3    0    0  0.12839560389E+02 -0.25781561260E+02  0.59731180785E+01  0.29414645193E+02  0.51100000000E-03 0. -1.
        -11    1    3    3    0    0  0.22963260372E+01 -0.15271183846E+02 -0.73449456239E+01  0.17100596358E+02  0.51100000000E-03 0.  1.
        -12    1    3    3    0    0 -0.74370121889E+01  0.10262440946E+02 -0.16949566041E+01  0.12786700996E+02  0.00000000000E+00 0.  1.
</event>
<event>
 7    1  0.6515090E-012  0.5930198E+02  0.7816164E-02  0.1266605E+00
        -11   -1    0    0    0    0  0.00000000000E+00  0.00000000000E+00  0.45593999997E+02  0.45594000000E+02  0.51100000000E-03 0.  1.
         11   -1    0    0    0    0 -0.00000000000E+00 -0.00000000000E+00 -0.45593999997E+02  0.45594000000E+02  0.51100000000E-03 0. -1.
    9900012    2    1    2    0    0 -0.83592484116E+01 -0.15496627682E+02 -0.26583748420E+02  0.59301981378E+02  0.50000068117E+02 0.  0.
        -12    1    1    2    0    0  0.83592484116E+01  0.15496627682E+02  0.26583748420E+02  0.31886018622E+02  0.00000000000E+00 0.  1.
         11    1    3    3    0    0 -0.10841115491E+01  0.90522580737E+01 -0.27610518466E+02  0.29076784628E+02  0.51100000000E-03 0. -1.
        -11    1    3    3    0    0 -0.87776285384E+01 -0.67338124347E+01  0.46206759575E+01  0.11989230135E+02  0.51100000000E-03 0.  1.
        -12    1    3    3    0    0  0.15024916759E+01 -0.17815073321E+02 -0.35939059121E+01  0.18235966615E+02  0.00000000000E+00 0.  1.
</event>
<event>
 7    1  0.6515090E-012  0.5930194E+02  0.7816164E-02  0.1266605E+00
        -11   -1    0    0    0    0  0.00000000000E+00  0.00000000000E+00  0.45593999997E+02  0.45594000000E+02  0.51100000000E-03 0. -1.
         11   -1    0    0    0    0 -0.00000000000E+00 -0.00000000000E+00 -0.45593999997E+02  0.45594000000E+02  0.51100000000E-03 0.  1.
    9900012    2    1    2    0    0 -0.19413311749E+02  0.20016150747E+02 -0.15466019064E+02  0.59301941770E+02  0.49999995882E+02 0.  0.
        -12    1    1    2    0    0  0.19413311749E+02 -0.20016150747E+02  0.15466019064E+02  0.31886058230E+02  0.00000000000E+00 0.  1.
         11    1    3    3    0    0 -0.89923903564E+01  0.14771553730E+02 -0.19830352385E+02  0.26311684855E+02  0.51100000000E-03 0. -1.
        -11    1    3    3    0    0  0.10859468216E+02  0.13920389916E+01  0.10679760493E+00  0.10948845989E+02  0.51100000000E-03 0.  1.
         12    1    3    3    0    0 -0.21280389609E+02  0.38525580251E+01  0.42575357165E+01  0.22041410926E+02  0.00000000000E+00 0. -1.
</event>
<event>
 7    1  0.6515090E-012  0.5930192E+02  0.7816164E-02  0.1266605E+00
        -11   -1    0    0    0    0  0.00000000000E+00  0.00000000000E+00  0.45593999997E+02  0.45594000000E+02  0.51100000000E-03 0.  1.
         11   -1    0    0    0    0 -0.00000000000E+00 -0.00000000000E+00 -0.45593999997E+02  0.45594000000E+02  0.51100000000E-03 0. -1.
    9900012    2    1    2    0    0  0.33827844370E+01 -0.28624090862E+02 -0.13635987997E+02  0.59301921896E+02  0.49999959636E+02 0.  0.
        -12    1    1    2    0    0 -0.33827844370E+01  0.28624090862E+02  0.13635987997E+02  0.31886078104E+02  0.00000000000E+00 0.  1.
         11    1    3    3    0    0  0.10266211337E+01  0.68698995856E+01 -0.27500319805E+01  0.74707528017E+01  0.51100000000E-03 0. -1.
        -11    1    3    3    0    0  0.58924296020E+01 -0.40918521838E+01  0.11183690778E+02  0.13286794971E+02  0.51100000000E-03 0.  1.
         12    1    3    3    0    0 -0.35362662986E+01 -0.31402138264E+02 -0.22069646795E+02  0.38544374123E+02  0.00000000000E+00 0. -1.
</event>
<event>
 7    1  0.6515090E-012  0.5930195E+02  0.7816164E-02  0.1266605E+00
        -11   -1    0    0    0    0  0.00000000000E+00  0.00000000000E+00  0.45593999997E+02  0.45594000000E+02  0.51100000000E-03 0.  1.
         11   -1    0    0    0    0 -0.00000000000E+00 -0.00000000000E+00 -0.45593999997E+02  0.45594000000E+02  0.51100000000E-03 0. -1.
    9900012    2    1    2    0    0 -0.29495008312E+02 -0.65617787072E+01 -0.10183713121E+02  0.59301945555E+02  0.50000002786E+02 0.  0.
        -12    1    1    2    0    0  0.29495008312E+02  0.65617787072E+01  0.10183713121E+02  0.31886054445E+02  0.00000000000E+00 0.  1.
         11    1    3    3    0    0 -0.11468776531E+01  0.21834428884E+01 -0.13062765666E+02  0.13293554765E+02  0.51100000000E-03 0. -1.
        -11    1    3    3    0    0 -0.30396288057E+01  0.12501438945E+02  0.42062573129E+00  0.12872538415E+02  0.51100000000E-03 0.  1.
        -12    1    3    3    0    0 -0.25308501853E+02 -0.21246660541E+02  0.24584268138E+01  0.33135852375E+02  0.00000000000E+00 0.  1.
</event>
<event>
 7    1  0.6515090E-012  0.5930196E+02  0.7816164E-02  0.1266605E+00
        -11   -1    0    0    0    0  0.00000000000E+00  0.00000000000E+00  0.45593999997E+02  0.45594000000E+02  0.51100000000E-03 0.  1.
         11   -1    0    0    0    0 -0.00000000000E+00 -0.00000000000E+00 -0.45593999997E+02  0.45594000000E+02  0.51100000000E-03 0. -1.
    9900012    2    1    2    0    0 -0.10505747760E+02 -0.24905451280E+02 -0.16913519882E+02  0.59301962393E+02  0.50000033494E+02 0.  0.
        -12    1    1    2    0    0  0.10505747760E+02  0.24905451280E+02  0.16913519882E+02  0.31886037607E+02  0.00000000000E+00 0.  1.
         11    1    3    3    0    0 -0.14098391841E+02 -0.55487235640E+01 -0.33829761481E+01  0.15524094614E+02  0.51100000000E-03 0. -1.
        -11    1    3    3    0    0 -0.65057529264E+01 -0.26874533746E+02 -0.38940586121E+01  0.27923629383E+02  0.51100000000E-03 0.  1.
         12    1    3    3    0    0  0.10098397007E+02  0.75178060297E+01 -0.96364851218E+01  0.15854238396E+02  0.00000000000E+00 0. -1.
</event>
<event>
 7    1  0.6515090E-012  0.5930195E+02  0.7816164E-02  0.1266605E+00
        -11   -1    0    0    0    0  0.00000000000E+00  0.00000000000E+00  0.45593999997E+02  0.45594000000E+02  0.51100000000E-03 0.  1.
         11   -1    0    0    0    0 -0.00000000000E+00 -0.00000000000E+00 -0.45593999997E+02  0.45594000000E+02  0.51100000000E-03 0. -1.
    9900012    2    1    2    0    0  0.20402692019E+02  0.10253001639E+02 -0.22255930935E+02  0.59301947468E+02  0.50000006275E+02 0.  0.
        -12    1    1    2    0    0 -0.20402692019E+02 -0.10253001639E+02  0.22255930935E+02  0.31886052532E+02  0.00000000000E+00 0.  1.
         11    1    3    3    0    0  0.27703706786E+02 -0.57846123006E+01 -0.15075986663E+02  0.32066220283E+02  0.51100000000E-03 0. -1.
        -11    1    3    3    0    0 -0.68682479979E+01 -0.49207734560E+00  0.33239959058E+01  0.76461702648E+01  0.51100000000E-03 0.  1.
        -12    1    3    3    0    0 -0.43276676833E+00  0.16529691285E+02 -0.10503940178E+02  0.19589556920E+02  0.00000000000E+00 0.  1.
</event>
<event>
 7    1  0.6515090E-012  0.5930195E+02  0.7816164E-02  0.1266605E+00
        -11   -1    0    0    0    0  0.00000000000E+00  0.00000000000E+00  0.45593999997E+02  0.45594000000E+02  0.51100000000E-03 0. -1.
         11   -1    0    0    0    0 -0.00000000000E+00 -0.00000000000E+00 -0.45593999997E+02  0.45594000000E+02  0.51100000000E-03 0.  1.
    9900012    2    1    2    0    0  0.16144460893E+02 -0.25004863286E+02  0.11438235809E+02  0.59301952206E+02  0.50000014915E+02 0.  0.
        -12    1    1    2    0    0 -0.16144460893E+02  0.25004863286E+02 -0.11438235809E+02  0.31886047794E+02  0.00000000000E+00 0.  1.
         11    1    3    3    0    0  0.28284597233E+02 -0.71351988558E+01  0.91812003043E+01  0.30581431337E+02  0.51100000000E-03 0. -1.
        -11    1    3    3    0    0  0.13300217624E+01  0.97976846927E+00 -0.43300888384E+01  0.46344982200E+01  0.51100000000E-03 0.  1.
        -12    1    3    3    0    0 -0.13470158102E+02 -0.18849432900E+02  0.65871243432E+01  0.24086022649E+02  0.00000000000E+00 0.  1.
</event>
<event>
 7    1  0.6515090E-012  0.5930192E+02  0.7816164E-02  0.1266605E+00
        -11   -1    0    0    0    0  0.00000000000E+00  0.00000000000E+00  0.45593999997E+02  0.45594000000E+02  0.51100000000E-03 0. -1.
         11   -1    0    0    0    0 -0.00000000000E+00 -0.00000000000E+00 -0.45593999997E+02  0.45594000000E+02  0.51100000000E-03 0.  1.
    9900012    2    1    2    0    0  0.15375300607E+02 -0.91209815744E+01  0.26403212169E+02  0.59301924881E+02  0.49999965082E+02 0.  0.
        -12    1    1    2    0    0 -0.15375300607E+02  0.91209815744E+01 -0.26403212169E+02  0.31886075119E+02  0.00000000000E+00 0.  1.
         11    1    3    3    0    0 -0.34899122318E+01 -0.96818357456E+01  0.22757454173E+02  0.24976371864E+02  0.51100000000E-03 0. -1.
        -11    1    3    3    0    0  0.94255827846E+01  0.66321338646E+01  0.14628057874E+02  0.18622751888E+02  0.51100000000E-03 0.  1.
        -12    1    3    3    0    0  0.94396300546E+01 -0.60712796934E+01 -0.10982299879E+02  0.15702801130E+02  0.00000000000E+00 0.  1.
</event>
<event>
 7    1  0.6515090E-012  0.5930193E+02  0.7816164E-02  0.1266605E+00
        -11   -1    0    0    0    0  0.00000000000E+00  0.00000000000E+00  0.45593999997E+02  0.45594000000E+02  0.51100000000E-03 0.  1.
         11   -1    0    0    0    0 -0.00000000000E+00 -0.00000000000E+00 -0.45593999997E+02  0.45594000000E+02  0.51100000000E-03 0. -1.
    9900012    2    1    2    0    0  0.12739339465E+02 -0.29076206662E+02 -0.30007756055E+01  0.59301933794E+02  0.49999981336E+02 0.  0.
        -12    1    1    2    0    0 -0.12739339465E+02  0.29076206662E+02  0.30007756055E+01  0.31886066206E+02  0.00000000000E+00 0.  1.
         11    1    3    3    0    0  0.37574022432E+01 -0.73509710989E+01 -0.93556729196E+00  0.83084375266E+01  0.51100000000E-03 0. -1.
        -11    1    3    3    0    0  0.20365793187E+02 -0.29778686564E+02  0.28956126132E+01  0.36192820812E+02  0.51100000000E-03 0.  1.
        -12    1    3    3    0    0 -0.11383855966E+02  0.80534510013E+01 -0.49608209267E+01  0.14800675456E+02  0.00000000000E+00 0.  1.
</event>
<event>
 7    1  0.6515090E-012  0.5930193E+02  0.7816164E-02  0.1266605E+00
        -11   -1    0    0    0    0  0.00000000000E+00  0.00000000000E+00  0.45593999997E+02  0.45594000000E+02  0.51100000000E-03 0.  1.
         11   -1    0    0    0    0 -0.00000000000E+00 -0.00000000000E+00 -0.45593999997E+02  0.45594000000E+02  0.51100000000E-03 0. -1.
    9900012    2    1    2    0    0 -0.10789052447E+02  0.12087671281E+02 -0.27462814609E+02  0.59301927241E+02  0.49999969386E+02 0.  0.
        -12    1    1    2    0    0  0.10789052447E+02 -0.12087671281E+02  0.27462814609E+02  0.31886072759E+02  0.00000000000E+00 0.  1.
         11    1    3    3    0    0  0.69878607374E+01 -0.35974765131E+01  0.64000057339E+01  0.10135684910E+02  0.51100000000E-03 0. -1.
        -11    1    3    3    0    0  0.19483328391E+01 -0.39006776371E+01  0.11029367196E+01  0.44975278264E+01  0.51100000000E-03 0.  1.
         12    1    3    3    0    0 -0.19725246024E+02  0.19585825431E+02 -0.34965757063E+02  0.44668714505E+02  0.00000000000E+00 0. -1.
</event>
<event>
 7    1  0.6515090E-012  0.5930194E+02  0.7816164E-02  0.1266605E+00
        -11   -1    0    0    0    0  0.00000000000E+00  0.00000000000E+00  0.45593999997E+02  0.45594000000E+02  0.51100000000E-03 0.  1.
         11   -1    0    0    0    0 -0.00000000000E+00 -0.00000000000E+00 -0.45593999997E+02  0.45594000000E+02  0.51100000000E-03 0. -1.
    9900012    2    1    2    0    0  0.19431820032E+02 -0.69926016759E+01 -0.24294625934E+02  0.59301937885E+02  0.49999988797E+02 0.  0.
        -12    1    1    2    0    0 -0.19431820032E+02  0.69926016759E+01  0.24294625934E+02  0.31886062115E+02  0.00000000000E+00 0.  1.
         11    1    3    3    0    0  0.10010315299E+02  0.74298936207E+01 -0.46000071601E+01  0.13287956868E+02  0.51100000000E-03 0. -1.
        -11    1    3    3    0    0  0.24106680190E+01 -0.58700237605E+01  0.11380289930E+02  0.13029946216E+02  0.51100000000E-03 0.  1.
        -12    1    3    3    0    0  0.70108367142E+01 -0.85524715362E+01 -0.31074908703E+02  0.32984034800E+02  0.00000000000E+00 0.  1.
</event>
<event>
 7    1  0.6515090E-012  0.5930195E+02  0.7816164E-02  0.1266605E+00
        -11   -1    0    0    0    0  0.00000000000E+00  0.00000000000E+00  0.45593999997E+02  0.45594000000E+02  0.51100000000E-03 0.  1.
         11   -1    0    0    0    0 -0.00000000000E+00 -0.00000000000E+00 -0.45593999997E+02  0.45594000000E+02  0.51100000000E-03 0. -1.
    9900012    2    1    2    0    0 -0.15246793515E+02 -0.73562945610E+01 -0.27021108674E+02  0.59301951387E+02  0.50000013422E+02 0.  0.
        -12    1    1    2    0    0  0.15246793515E+02  0.73562945610E+01  0.27021108674E+02  0.31886048613E+02  0.00000000000E+00 0.  1.
         11    1    3    3    0    0 -0.24080710612E+01 -0.17205394059E+02 -0.29003938065E+02  0.33809064088E+02  0.51100000000E-03 0. -1.
        -11    1    3    3    0    0  0.34834181519E+01  0.47027353343E+01  0.54884662245E+01  0.80232900610E+01  0.51100000000E-03 0.  1.
        -12    1    3    3    0    0 -0.16322140605E+02  0.51463641639E+01 -0.35056368336E+01  0.17469597238E+02  0.00000000000E+00 0.  1.
</event>
<event>
 7    1  0.6515090E-012  0.5930194E+02  0.7816164E-02  0.1266605E+00
        -11   -1    0    0    0    0  0.00000000000E+00  0.00000000000E+00  0.45593999997E+02  0.45594000000E+02  0.51100000000E-03 0. -1.
         11   -1    0    0    0    0 -0.00000000000E+00 -0.00000000000E+00 -0.45593999997E+02  0.45594000000E+02  0.51100000000E-03 0.  1.
    9900012    2    1    2    0    0 -0.30338079728E+02  0.93789599450E+01  0.28908180840E+01  0.59301940344E+02  0.49999993281E+02 0.  0.
        -12    1    1    2    0    0  0.30338079728E+02 -0.93789599450E+01 -0.28908180840E+01  0.31886059656E+02  0.00000000000E+00 0.  1.
         11    1    3    3    0    0 -0.29605025095E+02  0.16273816938E+02  0.24742952530E+01  0.33873540793E+02  0.51100000000E-03 0. -1.
        -11    1    3    3    0    0 -0.96418803301E+01 -0.29814655158E+01 -0.77503324655E+01  0.12724882966E+02  0.51100000000E-03 0.  1.
        -12    1    3    3    0    0  0.89088256975E+01 -0.39133914772E+01  0.81668552965E+01  0.12703516584E+02  0.00000000000E+00 0.  1.
</event>
<event>
 7    1  0.6515090E-012  0.5930194E+02  0.7816164E-02  0.1266605E+00
        -11   -1    0    0    0    0  0.00000000000E+00  0.00000000000E+00  0.45593999997E+02  0.45594000000E+02  0.51100000000E-03 0.  1.
         11   -1    0    0    0    0 -0.00000000000E+00 -0.00000000000E+00 -0.45593999997E+02  0.45594000000E+02  0.51100000000E-03 0. -1.
    9900012    2    1    2    0    0  0.18897988748E+02 -0.16658303203E+02 -0.19547060749E+02  0.59301943043E+02  0.49999998204E+02 0.  0.
        -12    1    1    2    0    0 -0.18897988748E+02  0.16658303203E+02  0.19547060749E+02  0.31886056957E+02  0.00000000000E+00 0.  1.
         11    1    3    3    0    0  0.13253690058E+02 -0.18343769637E+02  0.32924950253E+01  0.22869077559E+02  0.51100000000E-03 0. -1.
        -11    1    3    3    0    0  0.13272786745E+02 -0.74376540129E+01 -0.73286619186E+01  0.16887713018E+02  0.51100000000E-03 0.  1.
        -12    1    3    3    0    0 -0.76284880554E+01  0.91231204469E+01 -0.15510893856E+02  0.19545152466E+02  0.00000000000E+00 0.  1.
</event>
<event>
 7    1  0.6515090E-012  0.5930195E+02  0.7816164E-02  0.1266605E+00
        -11   -1    0    0    0    0  0.00000000000E+00  0.00000000000E+00  0.45593999997E+02  0.45594000000E+02  0.51100000000E-03 0.  1.
         11   -1    0    0    0    0 -0.00000000000E+00 -0.00000000000E+00 -0.45593999997E+02  0.45594000000E+02  0.51100000000E-03 0. -1.
    9900012    2    1    2    0    0 -0.21156370304E+02  0.97265353133E+01  0.21783545730E+02  0.59301947278E+02  0.50000005927E+02 0.  0.
        -12    1    1    2    0    0  0.21156370304E+02 -0.97265353133E+01 -0.21783545730E+02  0.31886052722E+02  0.00000000000E+00 0.  1.
         11    1    3    3    0    0 -0.13861476702E+02  0.91968373722E+01  0.78418225692E+01  0.18390664356E+02  0.51100000000E-03 0.  1.
        -11    1    3    3    0    0 -0.27220744249E+01  0.18631640470E+02  0.24515803748E+01  0.18988363868E+02  0.51100000000E-03 0. -1.
        -12    1    3    3    0    0 -0.45728191775E+01 -0.18101942529E+02  0.11490142786E+02  0.21922919053E+02  0.00000000000E+00 0.  1.
</event>
<event>
 7    1  0.6515090E-012  0.5930190E+02  0.7816164E-02  0.1266605E+00
        -11   -1    0    0    0    0  0.00000000000E+00  0.00000000000E+00  0.45593999997E+02  0.45594000000E+02  0.51100000000E-03 0.  1.
         11   -1    0    0    0    0 -0.00000000000E+00 -0.00000000000E+00 -0.45593999997E+02  0.45594000000E+02  0.51100000000E-03 0. -1.
    9900012    2    1    2    0    0 -0.22038004130E+02  0.53123926698E+01 -0.22423837760E+02  0.59301895788E+02  0.49999912023E+02 0.  0.
        -12    1    1    2    0    0  0.22038004130E+02 -0.53123926698E+01  0.22423837760E+02  0.31886104212E+02  0.00000000000E+00 0.  1.
         11    1    3    3    0    0 -0.17467905736E+02  0.24018736644E+02 -0.83433262398E+01  0.30848639092E+02  0.51100000000E-03 0. -1.
        -11    1    3    3    0    0  0.13076926989E+01 -0.55950832207E+01  0.27109853908E+01  0.63533029592E+01  0.51100000000E-03 0.  1.
        -12    1    3    3    0    0 -0.58777910932E+01 -0.13111260754E+02 -0.16791496911E+02  0.22099953737E+02  0.00000000000E+00 0.  1.
</event>
<event>
 7    1  0.6515090E-012  0.5930193E+02  0.7816164E-02  0.1266605E+00
        -11   -1    0    0    0    0  0.00000000000E+00  0.00000000000E+00  0.45593999997E+02  0.45594000000E+02  0.51100000000E-03 0.  1.
         11   -1    0    0    0    0 -0.00000000000E+00 -0.00000000000E+00 -0.45593999997E+02  0.45594000000E+02  0.51100000000E-03 0. -1.
    9900012    2    1    2    0    0  0.28729522965E+02 -0.12841824171E+01 -0.13772678153E+02  0.59301932858E+02  0.49999979629E+02 0.  0.
        -12    1    1    2    0    0 -0.28729522965E+02  0.12841824171E+01  0.13772678153E+02  0.31886067142E+02  0.00000000000E+00 0.  1.
         11    1    3    3    0    0  0.37880038099E+01 -0.20260031545E+02 -0.86285535332E+01  0.22344345759E+02  0.51100000000E-03 0. -1.
        -11    1    3    3    0    0  0.72269771197E+01  0.95076194414E+01 -0.10787973185E+02  0.16093613374E+02  0.51100000000E-03 0.  1.
        -12    1    3    3    0    0  0.17714542036E+02  0.94682296864E+01  0.56438485658E+01  0.20863973724E+02  0.00000000000E+00 0.  1.
</event>
<event>
 7    1  0.6515090E-012  0.5930195E+02  0.7816164E-02  0.1266605E+00
        -11   -1    0    0    0    0  0.00000000000E+00  0.00000000000E+00  0.45593999997E+02  0.45594000000E+02  0.51100000000E-03 0. -1.
         11   -1    0    0    0    0 -0.00000000000E+00 -0.00000000000E+00 -0.45593999997E+02  0.45594000000E+02  0.51100000000E-03 0.  1.
    9900012    2    1    2    0    0 -0.86425426213E+01  0.50357254379E+01  0.30276531651E+02  0.59301945956E+02  0.50000003517E+02 0.  0.
        -12    1    1    2    0    0  0.86425426213E+01 -0.50357254379E+01 -0.30276531651E+02  0.31886054044E+02  0.00000000000E+00 0.  1.
         11    1    3    3    0    0 -0.69811962926E+01  0.11529549737E+02 -0.16780251120E+01  0.13582466174E+02  0.51100000000E-03 0. -1.
        -11    1    3    3    0    0  0.94632232535E+00  0.21942465555E+01  0.35790926195E+02  0.35870609725E+02  0.51100000000E-03 0.  1.
         12    1    3    3    0    0 -0.26076686541E+01 -0.86880708550E+01 -0.38363694319E+01  0.98488700575E+01  0.00000000000E+00 0. -1.
</event>
<event>
 7    1  0.6515090E-012  0.5930205E+02  0.7816164E-02  0.1266604E+00
        -11   -1    0    0    0    0  0.00000000000E+00  0.00000000000E+00  0.45593999997E+02  0.45594000000E+02  0.51100000000E-03 0. -1.
         11   -1    0    0    0    0 -0.00000000000E+00 -0.00000000000E+00 -0.45593999997E+02  0.45594000000E+02  0.51100000000E-03 0.  1.
    9900012    2    1    2    0    0  0.26939939381E+02 -0.84327404571E+01  0.14827076288E+02  0.59302052676E+02  0.50000198148E+02 0.  0.
        -12    1    1    2    0    0 -0.26939939381E+02  0.84327404571E+01 -0.14827076288E+02  0.31885947324E+02  0.00000000000E+00 0.  1.
         11    1    3    3    0    0  0.99746393150E+01 -0.20423042766E+02  0.14240359724E+02  0.26821296587E+02  0.51100000000E-03 0. -1.
        -11    1    3    3    0    0 -0.40667649068E+01 -0.53510688192E+00  0.61356654346E+01  0.73804679234E+01  0.51100000000E-03 0.  1.
        -12    1    3    3    0    0  0.21032064973E+02  0.12525409190E+02 -0.55489488713E+01  0.25100288166E+02  0.00000000000E+00 0.  1.
</event>
<event>
 7    1  0.6515090E-012  0.5930194E+02  0.7816164E-02  0.1266605E+00
        -11   -1    0    0    0    0  0.00000000000E+00  0.00000000000E+00  0.45593999997E+02  0.45594000000E+02  0.51100000000E-03 0. -1.
         11   -1    0    0    0    0 -0.00000000000E+00 -0.00000000000E+00 -0.45593999997E+02  0.45594000000E+02  0.51100000000E-03 0.  1.
    9900012    2    1    2    0    0 -0.79348109245E+01  0.30882287486E+02 -0.20886366728E+00  0.59301944603E+02  0.50000001049E+02 0.  0.
        -12    1    1    2    0    0  0.79348109245E+01 -0.30882287486E+02  0.20886366728E+00  0.31886055397E+02  0.00000000000E+00 0.  1.
         11    1    3    3    0    0 -0.90596667227E+01  0.10347322821E+02  0.65387266036E+01  0.15228249950E+02  0.51100000000E-03 0. -1.
        -11    1    3    3    0    0 -0.14723939352E+01 -0.10376428605E+02 -0.77541318627E+01  0.13037053951E+02  0.51100000000E-03 0.  1.
         12    1    3    3    0    0  0.25972497334E+01  0.30911393270E+02  0.10065415918E+01  0.31036640702E+02  0.00000000000E+00 0. -1.
</event>
<event>
 7    1  0.6515090E-012  0.5930178E+02  0.7816164E-02  0.1266605E+00
        -11   -1    0    0    0    0  0.00000000000E+00  0.00000000000E+00  0.45593999997E+02  0.45594000000E+02  0.51100000000E-03 0.  1.
         11   -1    0    0    0    0 -0.00000000000E+00 -0.00000000000E+00 -0.45593999997E+02  0.45594000000E+02  0.51100000000E-03 0. -1.
    9900012    2    1    2    0    0  0.47620719269E+01  0.22517922740E+02 -0.22068012317E+02  0.59301775056E+02  0.49999691836E+02 0.  0.
        -12    1    1    2    0    0 -0.47620719269E+01 -0.22517922740E+02  0.22068012317E+02  0.31886224944E+02  0.00000000000E+00 0.  1.
         11    1    3    3    0    0  0.14622530679E+02  0.47800279269E+01 -0.13474392694E+02  0.20450582612E+02  0.51100000000E-03 0. -1.
        -11    1    3    3    0    0  0.49146470533E+01  0.17580414356E+02  0.48359735970E+01  0.18884156467E+02  0.51100000000E-03 0.  1.
         12    1    3    3    0    0 -0.14775105806E+02  0.15748045729E+00 -0.13429593220E+02  0.19967035977E+02  0.00000000000E+00 0. -1.
</event>
<event>
 7    1  0.6515090E-012  0.5930196E+02  0.7816164E-02  0.1266605E+00
        -11   -1    0    0    0    0  0.00000000000E+00  0.00000000000E+00  0.45593999997E+02  0.45594000000E+02  0.51100000000E-03 0.  1.
         11   -1    0    0    0    0 -0.00000000000E+00 -0.00000000000E+00 -0.45593999997E+02  0.45594000000E+02  0.51100000000E-03 0. -1.
    9900012    2    1    2    0    0  0.31294099505E+02  0.40288174367E+01 -0.46008399857E+01  0.59301956622E+02  0.50000022968E+02 0.  0.
        -12    1    1    2    0    0 -0.31294099505E+02 -0.40288174367E+01  0.46008399857E+01  0.31886043378E+02  0.00000000000E+00 0.  1.
         11    1    3    3    0    0 -0.51734864285E+00  0.11812558700E+02 -0.30272472949E+01  0.12205261943E+02  0.51100000000E-03 0. -1.
        -11    1    3    3    0    0 -0.46018333812E+01 -0.86190575525E+01  0.33795508695E+01  0.10338587326E+02  0.51100000000E-03 0.  1.
         12    1    3    3    0    0  0.36413281529E+02  0.83531628959E+00 -0.49531435603E+01  0.36758107352E+02  0.00000000000E+00 0. -1.
</event>
<event>
 7    1  0.6515090E-012  0.5930200E+02  0.7816164E-02  0.1266605E+00
        -11   -1    0    0    0    0  0.00000000000E+00  0.00000000000E+00  0.45593999997E+02  0.45594000000E+02  0.51100000000E-03 0.  1.
         11   -1    0    0    0    0 -0.00000000000E+00 -0.00000000000E+00 -0.45593999997E+02  0.45594000000E+02  0.51100000000E-03 0. -1.
    9900012    2    1    2    0    0 -0.17263964352E+02 -0.25635992630E+02 -0.78401630907E+01  0.59302004006E+02  0.50000109385E+02 0.  0.
        -12    1    1    2    0    0  0.17263964352E+02  0.25635992630E+02  0.78401630907E+01  0.31885995994E+02  0.00000000000E+00 0.  1.
         11    1    3    3    0    0 -0.38660720761E+01 -0.16529347373E+02  0.12954288179E+02  0.21353674634E+02  0.51100000000E-03 0.  1.
        -11    1    3    3    0    0 -0.19106355635E+02 -0.59036925829E+00 -0.61670246834E+01  0.20085655459E+02  0.51100000000E-03 0. -1.
         12    1    3    3    0    0  0.57084633593E+01 -0.85162759982E+01 -0.14627426586E+02  0.17862673913E+02  0.00000000000E+00 0. -1.
</event>
<event>
 7    1  0.6515090E-012  0.5930199E+02  0.7816164E-02  0.1266605E+00
        -11   -1    0    0    0    0  0.00000000000E+00  0.00000000000E+00  0.45593999997E+02  0.45594000000E+02  0.51100000000E-03 0. -1.
         11   -1    0    0    0    0 -0.00000000000E+00 -0.00000000000E+00 -0.45593999997E+02  0.45594000000E+02  0.51100000000E-03 0.  1.
    9900012    2    1    2    0    0 -0.31684926532E+02  0.15951377209E+01 -0.31997322005E+01  0.59301994922E+02  0.50000092818E+02 0.  0.
        -12    1    1    2    0    0  0.31684926532E+02 -0.15951377209E+01  0.31997322005E+01  0.31886005078E+02  0.00000000000E+00 0.  1.
         11    1    3    3    0    0  0.17295775051E+01 -0.11614707372E+02  0.14695077086E+01  0.11834370234E+02  0.51100000000E-03 0. -1.
        -11    1    3    3    0    0  0.10905437501E+01 -0.16092255205E+01 -0.94174212836E+01  0.96159615401E+01  0.51100000000E-03 0.  1.
         12    1    3    3    0    0 -0.34505047787E+02  0.14819070613E+02  0.47481813745E+01  0.37851663147E+02  0.00000000000E+00 0. -1.
</event>
<event>
 7    1  0.6515090E-012  0.5930197E+02  0.7816164E-02  0.1266605E+00
        -11   -1    0    0    0    0  0.00000000000E+00  0.00000000000E+00  0.45593999997E+02  0.45594000000E+02  0.51100000000E-03 0.  1.
         11   -1    0    0    0    0 -0.00000000000E+00 -0.00000000000E+00 -0.45593999997E+02  0.45594000000E+02  0.51100000000E-03 0. -1.
    9900012    2    1    2    0    0  0.14652335783E+02  0.22889664244E+02 -0.16676068974E+02  0.59301969367E+02  0.50000046213E+02 0.  0.
        -12    1    1    2    0    0 -0.14652335783E+02 -0.22889664244E+02  0.16676068974E+02  0.31886030633E+02  0.00000000000E+00 0.  1.
         11    1    3    3    0    0  0.19040207420E+01  0.97715568303E+01 -0.47878269217E+01  0.11046805184E+02  0.51100000000E-03 0. -1.
        -11    1    3    3    0    0  0.25338241786E+02  0.17250293231E+02 -0.30349919977E+00  0.30654383461E+02  0.51100000000E-03 0.  1.
        -12    1    3    3    0    0 -0.12589926745E+02 -0.41321858175E+01 -0.11584742852E+02  0.17600780722E+02  0.00000000000E+00 0.  1.
</event>
<event>
 7    1  0.6515090E-012  0.5930194E+02  0.7816164E-02  0.1266605E+00
        -11   -1    0    0    0    0  0.00000000000E+00  0.00000000000E+00  0.45593999997E+02  0.45594000000E+02  0.51100000000E-03 0. -1.
         11   -1    0    0    0    0 -0.00000000000E+00 -0.00000000000E+00 -0.45593999997E+02  0.45594000000E+02  0.51100000000E-03 0.  1.
    9900012    2    1    2    0    0 -0.16467042899E+02  0.57774326211E+01  0.26686671619E+02  0.59301942363E+02  0.49999996964E+02 0.  0.
        -12    1    1    2    0    0  0.16467042899E+02 -0.57774326211E+01 -0.26686671619E+02  0.31886057637E+02  0.00000000000E+00 0.  1.
         11    1    3    3    0    0 -0.80008727704E+01  0.13258796029E+02  0.10060642660E+02  0.18466893843E+02  0.51100000000E-03 0. -1.
        -11    1    3    3    0    0 -0.84048398089E+01  0.13564704090E+02  0.97200572761E+01  0.18684807812E+02  0.51100000000E-03 0.  1.
        -12    1    3    3    0    0 -0.61330319644E-01 -0.21046067498E+02  0.69059716830E+01  0.22150240708E+02  0.00000000000E+00 0.  1.
</event>
<event>
 7    1  0.6515090E-012  0.5930202E+02  0.7816164E-02  0.1266605E+00
        -11   -1    0    0    0    0  0.00000000000E+00  0.00000000000E+00  0.45593999997E+02  0.45594000000E+02  0.51100000000E-03 0.  1.
         11   -1    0    0    0    0 -0.00000000000E+00 -0.00000000000E+00 -0.45593999997E+02  0.45594000000E+02  0.51100000000E-03 0. -1.
    9900012    2    1    2    0    0  0.15836430512E+02 -0.24368653698E+02  0.13118383466E+02  0.59302018767E+02  0.50000136306E+02 0.  0.
        -12    1    1    2    0    0 -0.15836430512E+02  0.24368653698E+02 -0.13118383466E+02  0.31885981233E+02  0.00000000000E+00 0.  1.
         11    1    3    3    0    0  0.11105549254E+01 -0.43918959707E+01 -0.77786306495E+01  0.90016208264E+01  0.51100000000E-03 0. -1.
        -11    1    3    3    0    0  0.79626506852E+01 -0.13058778091E+02 -0.97662800600E+01  0.18147058099E+02  0.51100000000E-03 0.  1.
        -12    1    3    3    0    0  0.67632249018E+01 -0.69179796363E+01  0.30663294175E+02  0.32153339842E+02  0.00000000000E+00 0.  1.
</event>
<event>
 7    1  0.6515090E-012  0.5930194E+02  0.7816164E-02  0.1266605E+00
        -11   -1    0    0    0    0  0.00000000000E+00  0.00000000000E+00  0.45593999997E+02  0.45594000000E+02  0.51100000000E-03 0. -1.
         11   -1    0    0    0    0 -0.00000000000E+00 -0.00000000000E+00 -0.45593999997E+02  0.45594000000E+02  0.51100000000E-03 0.  1.
    9900012    2    1    2    0    0 -0.31813920203E+02 -0.14901361354E+01  0.15410955262E+01  0.59301937217E+02  0.49999987579E+02 0.  0.
        -12    1    1    2    0    0  0.31813920203E+02  0.14901361354E+01 -0.15410955262E+01  0.31886062783E+02  0.00000000000E+00 0.  1.
         11    1    3    3    0    0 -0.55345990455E+01  0.12644501210E+02  0.78055935611E+01  0.15856938183E+02  0.51100000000E-03 0. -1.
        -11    1    3    3    0    0 -0.24039560457E+00  0.81793412376E+01  0.14133070716E+01  0.83040261480E+01  0.51100000000E-03 0.  1.
        -12    1    3    3    0    0 -0.26038925553E+02 -0.22313978582E+02 -0.76778051064E+01  0.35140972886E+02  0.00000000000E+00 0.  1.
</event>
<event>
 7    1  0.6515090E-012  0.5930194E+02  0.7816164E-02  0.1266605E+00
        -11   -1    0    0    0    0  0.00000000000E+00  0.00000000000E+00  0.45593999997E+02  0.45594000000E+02  0.51100000000E-03 0. -1.
         11   -1    0    0    0    0 -0.00000000000E+00 -0.00000000000E+00 -0.45593999997E+02  0.45594000000E+02  0.51100000000E-03 0.  1.
    9900012    2    1    2    0    0  0.15767036784E+02 -0.17716723418E+02  0.21312881736E+02  0.59301942459E+02  0.49999997139E+02 0.  0.
        -12    1    1    2    0    0 -0.15767036784E+02  0.17716723418E+02 -0.21312881736E+02  0.31886057541E+02  0.00000000000E+00 0.  1.
         11    1    3    3    0    0 -0.60311859308E+01 -0.15722058641E+01  0.76520456613E+00  0.62795360736E+01  0.51100000000E-03 0.  1.
        -11    1    3    3    0    0  0.31697197628E+02 -0.18841744997E+02  0.97799632302E+01  0.38149329916E+02  0.51100000000E-03 0. -1.
         12    1    3    3    0    0 -0.98989749125E+01  0.26972274431E+01  0.10767713939E+02  0.14873076470E+02  0.00000000000E+00 0. -1.
</event>
<event>
 7    1  0.6515090E-012  0.5930194E+02  0.7816164E-02  0.1266605E+00
        -11   -1    0    0    0    0  0.00000000000E+00  0.00000000000E+00  0.45593999997E+02  0.45594000000E+02  0.51100000000E-03 0.  1.
         11   -1    0    0    0    0 -0.00000000000E+00 -0.00000000000E+00 -0.45593999997E+02  0.45594000000E+02  0.51100000000E-03 0. -1.
    9900012    2    1    2    0    0 -0.31161136009E+02 -0.41926658316E+01  0.53034072988E+01  0.59301937636E+02  0.49999988342E+02 0.  0.
        -12    1    1    2    0    0  0.31161136009E+02  0.41926658316E+01 -0.53034072988E+01  0.31886062364E+02  0.00000000000E+00 0.  1.
         11    1    3    3    0    0 -0.24618179942E+02  0.53119389418E+01 -0.93852111807E+01  0.26876637963E+02  0.51100000000E-03 0. -1.
        -11    1    3    3    0    0 -0.15836975141E+02 -0.11250733154E+02  0.92500728685E+01  0.21516333945E+02  0.51100000000E-03 0.  1.
        -12    1    3    3    0    0  0.92940190745E+01  0.17461283809E+01  0.54385456111E+01  0.10908965727E+02  0.00000000000E+00 0.  1.
</event>
<event>
 7    1  0.6515090E-012  0.5930194E+02  0.7816164E-02  0.1266605E+00
        -11   -1    0    0    0    0  0.00000000000E+00  0.00000000000E+00  0.45593999997E+02  0.45594000000E+02  0.51100000000E-03 0. -1.
         11   -1    0    0    0    0 -0.00000000000E+00 -0.00000000000E+00 -0.45593999997E+02  0.45594000000E+02  0.51100000000E-03 0.  1.
    9900012    2    1    2    0    0  0.14587236948E+02  0.33503339177E+01  0.28155078788E+02  0.59301942220E+02  0.49999996704E+02 0.  0.
        -12    1    1    2    0    0 -0.14587236948E+02 -0.33503339177E+01 -0.28155078788E+02  0.31886057780E+02  0.00000000000E+00 0.  1.
         11    1    3    3    0    0  0.12010734110E+02  0.35239225073E+01 -0.70349358243E+01  0.14358484809E+02  0.51100000000E-03 0.  1.
        -11    1    3    3    0    0  0.56830334674E+01 -0.35112958306E+01 -0.23846534385E+01  0.70931403542E+01  0.51100000000E-03 0. -1.
         12    1    3    3    0    0 -0.31065306291E+01  0.33377072410E+01  0.37574668051E+02  0.37850317057E+02  0.00000000000E+00 0. -1.
</event>
<event>
 7    1  0.6515090E-012  0.5930194E+02  0.7816164E-02  0.1266605E+00
        -11   -1    0    0    0    0  0.00000000000E+00  0.00000000000E+00  0.45593999997E+02  0.45594000000E+02  0.51100000000E-03 0.  1.
         11   -1    0    0    0    0 -0.00000000000E+00 -0.00000000000E+00 -0.45593999997E+02  0.45594000000E+02  0.51100000000E-03 0. -1.
    9900012    2    1    2    0    0 -0.42698190157E+01  0.15855029478E+02 -0.27333266525E+02  0.59301940772E+02  0.49999994063E+02 0.  0.
        -12    1    1    2    0    0  0.42698190157E+01 -0.15855029478E+02  0.27333266525E+02  0.31886059228E+02  0.00000000000E+00 0.  1.
         11    1    3    3    0    0 -0.40622949527E+01  0.15160768492E+02 -0.30237384628E+01  0.15984183936E+02  0.51100000000E-03 0. -1.
        -11    1    3    3    0    0 -0.80995610772E+01  0.14480534858E+02 -0.31979178202E+01  0.16897202669E+02  0.51100000000E-03 0.  1.
        -12    1    3    3    0    0  0.78920370143E+01 -0.13786273871E+02 -0.21111610242E+02  0.26420554167E+02  0.00000000000E+00 0.  1.
</event>
<event>
 7    1  0.6515090E-012  0.5930195E+02  0.7816164E-02  0.1266605E+00
        -11   -1    0    0    0    0  0.00000000000E+00  0.00000000000E+00  0.45593999997E+02  0.45594000000E+02  0.51100000000E-03 0. -1.
         11   -1    0    0    0    0 -0.00000000000E+00 -0.00000000000E+00 -0.45593999997E+02  0.45594000000E+02  0.51100000000E-03 0.  1.
    9900012    2    1    2    0    0 -0.14816930426E+02  0.24839827070E+02  0.13422446266E+02  0.59301945056E+02  0.50000001876E+02 0.  0.
        -12    1    1    2    0    0  0.14816930426E+02 -0.24839827070E+02 -0.13422446266E+02  0.31886054944E+02  0.00000000000E+00 0.  1.
         11    1    3    3    0    0 -0.12106694961E+02 -0.56062067773E+01 -0.78978686747E+01  0.15504126778E+02  0.51100000000E-03 0. -1.
        -11    1    3    3    0    0 -0.56785723274E+01  0.36961008538E+01 -0.31046739999E+01  0.74529421107E+01  0.51100000000E-03 0.  1.
         12    1    3    3    0    0  0.29683368619E+01  0.26749932993E+02  0.24424988940E+02  0.36344876167E+02  0.00000000000E+00 0. -1.
</event>
<event>
 7    1  0.6515090E-012  0.5930204E+02  0.7816164E-02  0.1266604E+00
        -11   -1    0    0    0    0  0.00000000000E+00  0.00000000000E+00  0.45593999997E+02  0.45594000000E+02  0.51100000000E-03 0. -1.
         11   -1    0    0    0    0 -0.00000000000E+00 -0.00000000000E+00 -0.45593999997E+02  0.45594000000E+02  0.51100000000E-03 0.  1.
    9900012    2    1    2    0    0 -0.15390485738E+02  0.17262369494E+00  0.27925217149E+02  0.59302037524E+02  0.50000170515E+02 0.  0.
        -12    1    1    2    0    0  0.15390485738E+02 -0.17262369494E+00 -0.27925217149E+02  0.31885962476E+02  0.00000000000E+00 0.  1.
         11    1    3    3    0    0  0.63957910565E+01 -0.82354922370E+01  0.57014749692E+01  0.11884287640E+02  0.51100000000E-03 0. -1.
        -11    1    3    3    0    0  0.59441574847E+01  0.11766166610E+02  0.30305307112E+01  0.13526263399E+02  0.51100000000E-03 0.  1.
         12    1    3    3    0    0 -0.27730434279E+02 -0.33580506781E+01  0.19193211469E+02  0.33891486485E+02  0.00000000000E+00 0. -1.
</event>
<event>
 7    1  0.6515090E-012  0.5930197E+02  0.7816164E-02  0.1266605E+00
        -11   -1    0    0    0    0  0.00000000000E+00  0.00000000000E+00  0.45593999997E+02  0.45594000000E+02  0.51100000000E-03 0.  1.
         11   -1    0    0    0    0 -0.00000000000E+00 -0.00000000000E+00 -0.45593999997E+02  0.45594000000E+02  0.51100000000E-03 0. -1.
    9900012    2    1    2    0    0 -0.11653499985E+02  0.54241535663E+01 -0.29180361912E+02  0.59301968182E+02  0.50000044052E+02 0.  0.
        -12    1    1    2    0    0  0.11653499985E+02 -0.54241535663E+01  0.29180361912E+02  0.31886031818E+02  0.00000000000E+00 0.  1.
         11    1    3    3    0    0 -0.76601980750E+01 -0.19706953258E+01  0.16000057105E+01  0.80698384835E+01  0.51100000000E-03 0. -1.
        -11    1    3    3    0    0 -0.33243228675E+01  0.14234168699E+02  0.44957066954E+01  0.15292941510E+02  0.51100000000E-03 0.  1.
         12    1    3    3    0    0 -0.66897904201E+00 -0.68393198071E+01 -0.35276074317E+02  0.35939188188E+02  0.00000000000E+00 0. -1.
</event>
<event>
 7    1  0.6515090E-012  0.5930195E+02  0.7816164E-02  0.1266605E+00
        -11   -1    0    0    0    0  0.00000000000E+00  0.00000000000E+00  0.45593999997E+02  0.45594000000E+02  0.51100000000E-03 0. -1.
         11   -1    0    0    0    0 -0.00000000000E+00 -0.00000000000E+00 -0.45593999997E+02  0.45594000000E+02  0.51100000000E-03 0.  1.
    9900012    2    1    2    0    0 -0.29230472902E+02  0.74657064387E+01  0.10322934865E+02  0.59301948145E+02  0.50000007508E+02 0.  0.
        -12    1    1    2    0    0  0.29230472902E+02 -0.74657064387E+01 -0.10322934865E+02  0.31886051855E+02  0.00000000000E+00 0.  1.
         11    1    3    3    0    0 -0.40529999193E+01 -0.33692255166E+01 -0.35337383396E+01  0.63455335348E+01  0.51100000000E-03 0. -1.
        -11    1    3    3    0    0 -0.21368389517E+02  0.22547092661E+02 -0.39407948835E+01  0.31313085486E+02  0.51100000000E-03 0.  1.
         12    1    3    3    0    0 -0.38090834652E+01 -0.11712160706E+02  0.17797468088E+02  0.21643329124E+02  0.00000000000E+00 0. -1.
</event>
<event>
 7    1  0.6515090E-012  0.5930197E+02  0.7816164E-02  0.1266605E+00
        -11   -1    0    0    0    0  0.00000000000E+00  0.00000000000E+00  0.45593999997E+02  0.45594000000E+02  0.51100000000E-03 0.  1.
         11   -1    0    0    0    0 -0.00000000000E+00 -0.00000000000E+00 -0.45593999997E+02  0.45594000000E+02  0.51100000000E-03 0. -1.
    9900012    2    1    2    0    0 -0.29701991981E+01  0.18235043902E+02 -0.25988070700E+02  0.59301972839E+02  0.50000052545E+02 0.  0.
        -12    1    1    2    0    0  0.29701991981E+01 -0.18235043902E+02  0.25988070700E+02  0.31886027161E+02  0.00000000000E+00 0.  1.
         11    1    3    3    0    0  0.65434739068E+01 -0.75251285137E+01 -0.77297100702E+01  0.12617171947E+02  0.51100000000E-03 0.  1.
        -11    1    3    3    0    0 -0.12754434139E+02 -0.16563850792E+01  0.11875839030E+01  0.12916251682E+02  0.51100000000E-03 0. -1.
        -12    1    3    3    0    0  0.32407610338E+01  0.27416557495E+02 -0.19445944533E+02  0.33768549210E+02  0.00000000000E+00 0.  1.
</event>
<event>
 7    1  0.6515090E-012  0.5930200E+02  0.7816164E-02  0.1266605E+00
        -11   -1    0    0    0    0  0.00000000000E+00  0.00000000000E+00  0.45593999997E+02  0.45594000000E+02  0.51100000000E-03 0.  1.
         11   -1    0    0    0    0 -0.00000000000E+00 -0.00000000000E+00 -0.45593999997E+02  0.45594000000E+02  0.51100000000E-03 0. -1.
    9900012    2    1    2    0    0  0.17343797787E+02 -0.54848966677E+01 -0.26188274805E+02  0.59301997579E+02  0.50000097665E+02 0.  0.
        -12    1    1    2    0    0 -0.17343797787E+02  0.54848966677E+01  0.26188274805E+02  0.31886002421E+02  0.00000000000E+00 0.  1.
         11    1    3    3    0    0  0.22632556794E-01 -0.77027593386E+01 -0.98651130402E+01  0.12516128364E+02  0.51100000000E-03 0. -1.
        -11    1    3    3    0    0 -0.96898620735E+00 -0.93854987337E+01  0.92904068433E+01  0.13241532401E+02  0.51100000000E-03 0.  1.
        -12    1    3    3    0    0  0.18290151437E+02  0.11603361405E+02 -0.25613568608E+02  0.33544336814E+02  0.00000000000E+00 0.  1.
</event>
<event>
 7    1  0.6515090E-012  0.5930193E+02  0.7816164E-02  0.1266605E+00
        -11   -1    0    0    0    0  0.00000000000E+00  0.00000000000E+00  0.45593999997E+02  0.45594000000E+02  0.51100000000E-03 0. -1.
         11   -1    0    0    0    0 -0.00000000000E+00 -0.00000000000E+00 -0.45593999997E+02  0.45594000000E+02  0.51100000000E-03 0.  1.
    9900012    2    1    2    0    0  0.19664771987E+02  0.10348660519E+02  0.22867520552E+02  0.59301928934E+02  0.49999972472E+02 0.  0.
        -12    1    1    2    0    0 -0.19664771987E+02 -0.10348660519E+02 -0.22867520552E+02  0.31886071066E+02  0.00000000000E+00 0.  1.
         11    1    3    3    0    0  0.10452422191E+02 -0.21785210963E+01 -0.31981629879E+01  0.11145731496E+02  0.51100000000E-03 0.  1.
        -11    1    3    3    0    0 -0.31709507475E+01  0.18243219010E+02 -0.24742614350E+00  0.18518401347E+02  0.51100000000E-03 0. -1.
         12    1    3    3    0    0  0.12383300544E+02 -0.57160373952E+01  0.26313109684E+02  0.29637796090E+02  0.00000000000E+00 0. -1.
</event>
<event>
 7    1  0.6515090E-012  0.5930206E+02  0.7816164E-02  0.1266604E+00
        -11   -1    0    0    0    0  0.00000000000E+00  0.00000000000E+00  0.45593999997E+02  0.45594000000E+02  0.51100000000E-03 0.  1.
         11   -1    0    0    0    0 -0.00000000000E+00 -0.00000000000E+00 -0.45593999997E+02  0.45594000000E+02  0.51100000000E-03 0. -1.
    9900012    2    1    2    0    0  0.27860430607E+02 -0.17199949906E+01 -0.15412699051E+02  0.59302058452E+02  0.50000208681E+02 0.  0.
        -12    1    1    2    0    0 -0.27860430607E+02  0.17199949906E+01  0.15412699051E+02  0.31885941548E+02  0.00000000000E+00 0.  1.
         11    1    3    3    0    0  0.29866460589E+01 -0.28133324514E+01  0.12784380667E+01  0.42975921531E+01  0.51100000000E-03 0. -1.
        -11    1    3    3    0    0  0.35644972328E+02  0.27890354361E+00 -0.63348842172E+00  0.35651692068E+02  0.51100000000E-03 0.  1.
         12    1    3    3    0    0 -0.10771187779E+02  0.81443391720E+00 -0.16057648696E+02  0.19352774231E+02  0.00000000000E+00 0. -1.
</event>
<event>
 7    1  0.6515090E-012  0.5930191E+02  0.7816164E-02  0.1266605E+00
        -11   -1    0    0    0    0  0.00000000000E+00  0.00000000000E+00  0.45593999997E+02  0.45594000000E+02  0.51100000000E-03 0. -1.
         11   -1    0    0    0    0 -0.00000000000E+00 -0.00000000000E+00 -0.45593999997E+02  0.45594000000E+02  0.51100000000E-03 0.  1.
    9900012    2    1    2    0    0  0.16887699167E+02 -0.27025975363E+02  0.10607270186E+01  0.59301907902E+02  0.49999934116E+02 0.  0.
        -12    1    1    2    0    0 -0.16887699167E+02  0.27025975363E+02 -0.10607270186E+01  0.31886092098E+02  0.00000000000E+00 0.  1.
         11    1    3    3    0    0  0.62611593513E+01 -0.18408701260E+02 -0.32263859942E+01  0.19710199526E+02  0.51100000000E-03 0. -1.
        -11    1    3    3    0    0  0.37227239692E+01  0.20628745121E+00 -0.15993481646E+02  0.16422322725E+02  0.51100000000E-03 0.  1.
        -12    1    3    3    0    0  0.69038158461E+01 -0.88235615538E+01  0.20280594659E+02  0.23169385651E+02  0.00000000000E+00 0.  1.
</event>
<event>
 7    1  0.6515090E-012  0.5930197E+02  0.7816164E-02  0.1266605E+00
        -11   -1    0    0    0    0  0.00000000000E+00  0.00000000000E+00  0.45593999997E+02  0.45594000000E+02  0.51100000000E-03 0. -1.
         11   -1    0    0    0    0 -0.00000000000E+00 -0.00000000000E+00 -0.45593999997E+02  0.45594000000E+02  0.51100000000E-03 0.  1.
    9900012    2    1    2    0    0  0.19215379251E+02  0.24321086210E+02  0.74815127876E+01  0.59301967513E+02  0.50000042831E+02 0.  0.
        -12    1    1    2    0    0 -0.19215379251E+02 -0.24321086210E+02 -0.74815127876E+01  0.31886032487E+02  0.00000000000E+00 0.  1.
         11    1    3    3    0    0  0.19404025337E+02 -0.63459548087E+01 -0.89467479049E+01  0.22289720502E+02  0.51100000000E-03 0. -1.
        -11    1    3    3    0    0 -0.10201574071E+01  0.49633513465E+01  0.88565529876E+01  0.10203632138E+02  0.51100000000E-03 0.  1.
        -12    1    3    3    0    0  0.83151132108E+00  0.25703689672E+02  0.75717077050E+01  0.26808614873E+02  0.00000000000E+00 0.  1.
</event>
<event>
 7    1  0.6515090E-012  0.5930196E+02  0.7816164E-02  0.1266605E+00
        -11   -1    0    0    0    0  0.00000000000E+00  0.00000000000E+00  0.45593999997E+02  0.45594000000E+02  0.51100000000E-03 0. -1.
         11   -1    0    0    0    0 -0.00000000000E+00 -0.00000000000E+00 -0.45593999997E+02  0.45594000000E+02  0.51100000000E-03 0.  1.
    9900012    2    1    2    0    0 -0.23415313133E+02  0.18391131700E+02  0.11410902499E+02  0.59301963712E+02  0.50000035899E+02 0.  0.
        -12    1    1    2    0    0  0.23415313133E+02 -0.18391131700E+02 -0.11410902499E+02  0.31886036288E+02  0.00000000000E+00 0.  1.
         11    1    3    3    0    0 -0.21436583530E+02  0.37750443609E+01  0.20498103757E+02  0.29899002178E+02  0.51100000000E-03 0. -1.
        -11    1    3    3    0    0  0.15894227039E+01  0.15219616816E+02  0.40066549807E+01  0.15818226353E+02  0.51100000000E-03 0.  1.
        -12    1    3    3    0    0 -0.35681523071E+01 -0.60352947738E+00 -0.13093856239E+02  0.13584735180E+02  0.00000000000E+00 0.  1.
</event>
<event>
 7    1  0.6515090E-012  0.5930192E+02  0.7816164E-02  0.1266605E+00
        -11   -1    0    0    0    0  0.00000000000E+00  0.00000000000E+00  0.45593999997E+02  0.45594000000E+02  0.51100000000E-03 0. -1.
         11   -1    0    0    0    0 -0.00000000000E+00 -0.00000000000E+00 -0.45593999997E+02  0.45594000000E+02  0.51100000000E-03 0.  1.
    9900012    2    1    2    0    0 -0.26574600861E+02  0.39445032733E+01  0.17174221852E+02  0.59301915053E+02  0.49999947157E+02 0.  0.
        -12    1    1    2    0    0  0.26574600861E+02 -0.39445032733E+01 -0.17174221852E+02  0.31886084947E+02  0.00000000000E+00 0.  1.
         11    1    3    3    0    0 -0.14659248011E+02  0.49077354890E+01  0.43504228128E+01  0.16059439554E+02  0.51100000000E-03 0. -1.
        -11    1    3    3    0    0 -0.10184312889E+02  0.16195135842E+02  0.16894526956E+02  0.25523081618E+02  0.51100000000E-03 0.  1.
         12    1    3    3    0    0 -0.17310399612E+01 -0.17158368057E+02 -0.40707279166E+01  0.17719393881E+02  0.00000000000E+00 0. -1.
</event>
<event>
 7    1  0.6515090E-012  0.5930194E+02  0.7816164E-02  0.1266605E+00
        -11   -1    0    0    0    0  0.00000000000E+00  0.00000000000E+00  0.45593999997E+02  0.45594000000E+02  0.51100000000E-03 0.  1.
         11   -1    0    0    0    0 -0.00000000000E+00 -0.00000000000E+00 -0.45593999997E+02  0.45594000000E+02  0.51100000000E-03 0. -1.
    9900012    2    1    2    0    0  0.18810293519E+02  0.89950414429E+01 -0.24124322239E+02  0.59301939780E+02  0.49999992254E+02 0.  0.
        -12    1    1    2    0    0 -0.18810293519E+02 -0.89950414429E+01  0.24124322239E+02  0.31886060220E+02  0.00000000000E+00 0.  1.
         11    1    3    3    0    0 -0.14783327128E+00  0.20534857040E+02 -0.20166450033E+02  0.28781728849E+02  0.51100000000E-03 0. -1.
        -11    1    3    3    0    0 -0.32723506707E+01 -0.51840460676E+01  0.23315239983E+01  0.65588579004E+01  0.51100000000E-03 0.  1.
         12    1    3    3    0    0  0.22230477461E+02 -0.63557695298E+01 -0.62893962048E+01  0.23961353031E+02  0.00000000000E+00 0. -1.
</event>
<event>
 7    1  0.6515090E-012  0.5930194E+02  0.7816164E-02  0.1266605E+00
        -11   -1    0    0    0    0  0.00000000000E+00  0.00000000000E+00  0.45593999997E+02  0.45594000000E+02  0.51100000000E-03 0.  1.
         11   -1    0    0    0    0 -0.00000000000E+00 -0.00000000000E+00 -0.45593999997E+02  0.45594000000E+02  0.51100000000E-03 0. -1.
    9900012    2    1    2    0    0  0.12929500094E+02  0.26145205817E+02 -0.12883219752E+02  0.59301935472E+02  0.49999984397E+02 0.  0.
        -12    1    1    2    0    0 -0.12929500094E+02 -0.26145205817E+02  0.12883219752E+02  0.31886064528E+02  0.00000000000E+00 0.  1.
         11    1    3    3    0    0 -0.37626251328E+00  0.20343545533E+02 -0.24772735914E+02  0.32057602270E+02  0.51100000000E-03 0. -1.
        -11    1    3    3    0    0 -0.46162368892E+01  0.17688501640E+01 -0.67350432718E+00  0.49891965545E+01  0.51100000000E-03 0.  1.
         12    1    3    3    0    0  0.17921999496E+02  0.40328101198E+01  0.12563020489E+02  0.22255136648E+02  0.00000000000E+00 0. -1.
</event>
<event>
 7    1  0.6515090E-012  0.5930192E+02  0.7816164E-02  0.1266605E+00
        -11   -1    0    0    0    0  0.00000000000E+00  0.00000000000E+00  0.45593999997E+02  0.45594000000E+02  0.51100000000E-03 0. -1.
         11   -1    0    0    0    0 -0.00000000000E+00 -0.00000000000E+00 -0.45593999997E+02  0.45594000000E+02  0.51100000000E-03 0.  1.
    9900012    2    1    2    0    0 -0.57671211197E+01 -0.17268240395E+01  0.31312624840E+02  0.59301920253E+02  0.49999956640E+02 0.  0.
        -12    1    1    2    0    0  0.57671211197E+01  0.17268240395E+01 -0.31312624840E+02  0.31886079747E+02  0.00000000000E+00 0.  1.
         11    1    3    3    0    0  0.68296602152E+01  0.86148945346E-01  0.81361956520E+01  0.10623057952E+02  0.51100000000E-03 0. -1.
        -11    1    3    3    0    0  0.90884119614E+01 -0.11309056589E+02 -0.13747334363E+01  0.14573396488E+02  0.51100000000E-03 0.  1.
        -12    1    3    3    0    0 -0.21685193296E+02  0.94960836040E+01  0.24551162625E+02  0.34105465813E+02  0.00000000000E+00 0.  1.
</event>
<event>
 7    1  0.6515090E-012  0.5930193E+02  0.7816164E-02  0.1266605E+00
        -11   -1    0    0    0    0  0.00000000000E+00  0.00000000000E+00  0.45593999997E+02  0.45594000000E+02  0.51100000000E-03 0.  1.
         11   -1    0    0    0    0 -0.00000000000E+00 -0.00000000000E+00 -0.45593999997E+02  0.45594000000E+02  0.51100000000E-03 0. -1.
    9900012    2    1    2    0    0 -0.12460771853E+02  0.18090249688E+02 -0.23112620825E+02  0.59301933916E+02  0.49999981558E+02 0.  0.
        -12    1    1    2    0    0  0.12460771853E+02 -0.18090249688E+02  0.23112620825E+02  0.31886066084E+02  0.00000000000E+00 0.  1.
         11    1    3    3    0    0 -0.10888536362E+02  0.19052495527E+02 -0.29497225006E+02  0.36764712609E+02  0.51100000000E-03 0. -1.
        -11    1    3    3    0    0 -0.37333090040E+01  0.11528723160E+00 -0.75348747757E+01  0.84098290953E+01  0.51100000000E-03 0.  1.
         12    1    3    3    0    0  0.21610735137E+01 -0.10775330704E+01  0.13919478957E+02  0.14127392211E+02  0.00000000000E+00 0. -1.
</event>
<event>
 7    1  0.6515090E-012  0.5930197E+02  0.7816164E-02  0.1266605E+00
        -11   -1    0    0    0    0  0.00000000000E+00  0.00000000000E+00  0.45593999997E+02  0.45594000000E+02  0.51100000000E-03 0.  1.
         11   -1    0    0    0    0 -0.00000000000E+00 -0.00000000000E+00 -0.45593999997E+02  0.45594000000E+02  0.51100000000E-03 0. -1.
    9900012    2    1    2    0    0 -0.29008206465E+02  0.86212855830E+01  0.10045705388E+02  0.59301971646E+02  0.50000050369E+02 0.  0.
        -12    1    1    2    0    0  0.29008206465E+02 -0.86212855830E+01 -0.10045705388E+02  0.31886028354E+02  0.00000000000E+00 0.  1.
         11    1    3    3    0    0 -0.37774770436E+01 -0.38948542657E+01 -0.40873206915E+01  0.67930415326E+01  0.51100000000E-03 0. -1.
        -11    1    3    3    0    0 -0.15569472799E+02 -0.91933737800E+01 -0.82412893854E+01  0.19870718550E+02  0.51100000000E-03 0.  1.
         12    1    3    3    0    0 -0.96612566226E+01  0.21709513629E+02  0.22374315465E+02  0.32638211564E+02  0.00000000000E+00 0. -1.
</event>
<event>
 7    1  0.6515090E-012  0.5930188E+02  0.7816164E-02  0.1266605E+00
        -11   -1    0    0    0    0  0.00000000000E+00  0.00000000000E+00  0.45593999997E+02  0.45594000000E+02  0.51100000000E-03 0.  1.
         11   -1    0    0    0    0 -0.00000000000E+00 -0.00000000000E+00 -0.45593999997E+02  0.45594000000E+02  0.51100000000E-03 0. -1.
    9900012    2    1    2    0    0  0.22331475784E+02  0.20244655619E+02 -0.10401152527E+02  0.59301876596E+02  0.49999877021E+02 0.  0.
        -12    1    1    2    0    0 -0.22331475784E+02 -0.20244655619E+02  0.10401152527E+02  0.31886123404E+02  0.00000000000E+00 0.  1.
         11    1    3    3    0    0 -0.70679658487E+01  0.22038885555E+01 -0.12877200394E+01  0.75147514373E+01  0.51100000000E-03 0.  1.
        -11    1    3    3    0    0  0.22181510748E+02 -0.77526374225E+01 -0.75959429602E-02  0.23497294823E+02  0.51100000000E-03 0. -1.
         12    1    3    3    0    0  0.72179308846E+01  0.25793404486E+02 -0.91058365442E+01  0.28289830336E+02  0.00000000000E+00 0. -1.
</event>
<event>
 7    1  0.6515090E-012  0.5930196E+02  0.7816164E-02  0.1266605E+00
        -11   -1    0    0    0    0  0.00000000000E+00  0.00000000000E+00  0.45593999997E+02  0.45594000000E+02  0.51100000000E-03 0.  1.
         11   -1    0    0    0    0 -0.00000000000E+00 -0.00000000000E+00 -0.45593999997E+02  0.45594000000E+02  0.51100000000E-03 0. -1.
    9900012    2    1    2    0    0 -0.17960581950E+02  0.15737473430E+02 -0.21129808879E+02  0.59301962348E+02  0.50000033411E+02 0.  0.
        -12    1    1    2    0    0  0.17960581950E+02 -0.15737473430E+02  0.21129808879E+02  0.31886037652E+02  0.00000000000E+00 0.  1.
         11    1    3    3    0    0 -0.94472800363E+01  0.71665934812E+00 -0.21714775783E+01  0.97200831190E+01  0.51100000000E-03 0. -1.
        -11    1    3    3    0    0 -0.82988545381E-03 -0.70239265916E+01  0.99905120216E+01  0.12212529475E+02  0.51100000000E-03 0.  1.
         12    1    3    3    0    0 -0.85124720278E+01  0.22044740673E+02 -0.28948843322E+02  0.37369349754E+02  0.00000000000E+00 0. -1.
</event>
<event>
 7    1  0.6515090E-012  0.5930184E+02  0.7816164E-02  0.1266605E+00
        -11   -1    0    0    0    0  0.00000000000E+00  0.00000000000E+00  0.45593999997E+02  0.45594000000E+02  0.51100000000E-03 0.  1.
         11   -1    0    0    0    0 -0.00000000000E+00 -0.00000000000E+00 -0.45593999997E+02  0.45594000000E+02  0.51100000000E-03 0. -1.
    9900012    2    1    2    0    0 -0.36184514130E+01 -0.11685364057E+02 -0.29446325840E+02  0.59301842670E+02  0.49999815148E+02 0.  0.
        -12    1    1    2    0    0  0.36184514130E+01  0.11685364057E+02  0.29446325840E+02  0.31886157330E+02  0.00000000000E+00 0.  1.
         11    1    3    3    0    0 -0.17319649595E+01 -0.88886096755E+01 -0.30623190983E+02  0.31934102630E+02  0.51100000000E-03 0. -1.
        -11    1    3    3    0    0  0.33412305938E+00 -0.80174176479E+01 -0.11185277684E+02  0.13765938438E+02  0.51100000000E-03 0.  1.
        -12    1    3    3    0    0 -0.22206095130E+01  0.52206632661E+01  0.12362142827E+02  0.13601801602E+02  0.00000000000E+00 0.  1.
</event>
<event>
 7    1  0.6515090E-012  0.5930192E+02  0.7816164E-02  0.1266605E+00
        -11   -1    0    0    0    0  0.00000000000E+00  0.00000000000E+00  0.45593999997E+02  0.45594000000E+02  0.51100000000E-03 0.  1.
         11   -1    0    0    0    0 -0.00000000000E+00 -0.00000000000E+00 -0.45593999997E+02  0.45594000000E+02  0.51100000000E-03 0. -1.
    9900012    2    1    2    0    0 -0.24857810435E+02 -0.16886662355E+02 -0.10660775961E+02  0.59301917625E+02  0.49999951848E+02 0.  0.
        -12    1    1    2    0    0  0.24857810435E+02  0.16886662355E+02  0.10660775961E+02  0.31886082375E+02  0.00000000000E+00 0.  1.
         11    1    3    3    0    0 -0.90348902110E+01  0.32821767091E+01 -0.18853542859E+02  0.21162655874E+02  0.51100000000E-03 0. -1.
        -11    1    3    3    0    0  0.39868055024E+01  0.41697150258E+01  0.28054062431E+00  0.57757981971E+01  0.51100000000E-03 0.  1.
        -12    1    3    3    0    0 -0.19809725727E+02 -0.24338554090E+02  0.79122262733E+01  0.32363463553E+02  0.00000000000E+00 0.  1.
</event>
<event>
 7    1  0.6515090E-012  0.5930208E+02  0.7816164E-02  0.1266604E+00
        -11   -1    0    0    0    0  0.00000000000E+00  0.00000000000E+00  0.45593999997E+02  0.45594000000E+02  0.51100000000E-03 0. -1.
         11   -1    0    0    0    0 -0.00000000000E+00 -0.00000000000E+00 -0.45593999997E+02  0.45594000000E+02  0.51100000000E-03 0.  1.
    9900012    2    1    2    0    0  0.28134820654E+02  0.12536678672E+02  0.82447308981E+01  0.59302077825E+02  0.50000244014E+02 0.  0.
        -12    1    1    2    0    0 -0.28134820654E+02 -0.12536678672E+02 -0.82447308981E+01  0.31885922175E+02  0.00000000000E+00 0.  1.
         11    1    3    3    0    0  0.37604770973E+02  0.71439930505E+01  0.27626383993E+01  0.38376915038E+02  0.51100000000E-03 0. -1.
        -11    1    3    3    0    0 -0.13739166607E+01  0.87994661893E+01 -0.22909868103E+01  0.91960248495E+01  0.51100000000E-03 0.  1.
        -12    1    3    3    0    0 -0.80960336581E+01 -0.34067805683E+01  0.77730793090E+01  0.11729137938E+02  0.00000000000E+00 0.  1.
</event>
<event>
 7    1  0.6515090E-012  0.5930193E+02  0.7816164E-02  0.1266605E+00
        -11   -1    0    0    0    0  0.00000000000E+00  0.00000000000E+00  0.45593999997E+02  0.45594000000E+02  0.51100000000E-03 0.  1.
         11   -1    0    0    0    0 -0.00000000000E+00 -0.00000000000E+00 -0.45593999997E+02  0.45594000000E+02  0.51100000000E-03 0. -1.
    9900012    2    1    2    0    0 -0.81245950587E+01  0.13932435948E+01 -0.30802126352E+02  0.59301934698E+02  0.49999982986E+02 0.  0.
        -12    1    1    2    0    0  0.81245950587E+01 -0.13932435948E+01  0.30802126352E+02  0.31886065302E+02  0.00000000000E+00 0.  1.
         11    1    3    3    0    0 -0.27171876985E+01 -0.71654612495E+01 -0.49783178579E+01  0.91384130386E+01  0.51100000000E-03 0. -1.
        -11    1    3    3    0    0 -0.16246021550E+01 -0.11641544268E+02 -0.27133832128E+02  0.29570419870E+02  0.51100000000E-03 0.  1.
         12    1    3    3    0    0 -0.37828052052E+01  0.20200249112E+02  0.13100236332E+01  0.20593101790E+02  0.00000000000E+00 0. -1.
</event>
<event>
 7    1  0.6515090E-012  0.5930196E+02  0.7816164E-02  0.1266605E+00
        -11   -1    0    0    0    0  0.00000000000E+00  0.00000000000E+00  0.45593999997E+02  0.45594000000E+02  0.51100000000E-03 0.  1.
         11   -1    0    0    0    0 -0.00000000000E+00 -0.00000000000E+00 -0.45593999997E+02  0.45594000000E+02  0.51100000000E-03 0. -1.
    9900012    2    1    2    0    0 -0.69851939619E+01 -0.17131138109E+02 -0.25970190564E+02  0.59301958767E+02  0.50000026881E+02 0.  0.
        -12    1    1    2    0    0  0.69851939619E+01  0.17131138109E+02  0.25970190564E+02  0.31886041233E+02  0.00000000000E+00 0.  1.
         11    1    3    3    0    0 -0.99333538674E+01 -0.38934127220E+01 -0.15441065699E+02  0.18768502653E+02  0.51100000000E-03 0. -1.
        -11    1    3    3    0    0  0.99585179806E+01  0.86687087335E+01 -0.11504391969E+02  0.17511985219E+02  0.51100000000E-03 0.  1.
        -12    1    3    3    0    0 -0.70103580751E+01 -0.21906434121E+02  0.97526710383E+00  0.23021470894E+02  0.00000000000E+00 0.  1.
</event>
<event>
 7    1  0.6515090E-012  0.5930195E+02  0.7816164E-02  0.1266605E+00
        -11   -1    0    0    0    0  0.00000000000E+00  0.00000000000E+00  0.45593999997E+02  0.45594000000E+02  0.51100000000E-03 0. -1.
         11   -1    0    0    0    0 -0.00000000000E+00 -0.00000000000E+00 -0.45593999997E+02  0.45594000000E+02  0.51100000000E-03 0.  1.
    9900012    2    1    2    0    0  0.22573105499E+02 -0.55166224319E+01  0.21834414714E+02  0.59301954764E+02  0.50000019580E+02 0.  0.
        -12    1    1    2    0    0 -0.22573105499E+02  0.55166224319E+01 -0.21834414714E+02  0.31886045236E+02  0.00000000000E+00 0.  1.
         11    1    3    3    0    0  0.98683676811E+01 -0.16472751393E+02  0.16528485150E+02  0.25336279142E+02  0.51100000000E-03 0. -1.
        -11    1    3    3    0    0  0.93932426798E+01 -0.88160858465E+01  0.52683319971E+01  0.13918035062E+02  0.51100000000E-03 0.  1.
        -12    1    3    3    0    0  0.33114951376E+01  0.19772214808E+02  0.37597567419E-01  0.20047640560E+02  0.00000000000E+00 0.  1.
</event>
<event>
 7    1  0.6515090E-012  0.5930192E+02  0.7816164E-02  0.1266605E+00
        -11   -1    0    0    0    0  0.00000000000E+00  0.00000000000E+00  0.45593999997E+02  0.45594000000E+02  0.51100000000E-03 0. -1.
         11   -1    0    0    0    0 -0.00000000000E+00 -0.00000000000E+00 -0.45593999997E+02  0.45594000000E+02  0.51100000000E-03 0.  1.
    9900012    2    1    2    0    0  0.26850236125E+01  0.10467751982E+01  0.31755583208E+02  0.59301919103E+02  0.49999954543E+02 0.  0.
        -12    1    1    2    0    0 -0.26850236125E+01 -0.10467751982E+01 -0.31755583208E+02  0.31886080897E+02  0.00000000000E+00 0.  1.
         11    1    3    3    0    0  0.40313384433E+01 -0.12854047291E+02  0.27976516292E+02  0.31050985258E+02  0.51100000000E-03 0. -1.
        -11    1    3    3    0    0 -0.94162574301E+01 -0.28691102578E+00 -0.39204374943E+01  0.10203825377E+02  0.51100000000E-03 0.  1.
         12    1    3    3    0    0  0.80699425993E+01  0.14187733515E+02  0.76995044099E+01  0.18047108467E+02  0.00000000000E+00 0. -1.
</event>
<event>
 7    1  0.6515090E-012  0.5930198E+02  0.7816164E-02  0.1266605E+00
        -11   -1    0    0    0    0  0.00000000000E+00  0.00000000000E+00  0.45593999997E+02  0.45594000000E+02  0.51100000000E-03 0.  1.
         11   -1    0    0    0    0 -0.00000000000E+00 -0.00000000000E+00 -0.45593999997E+02  0.45594000000E+02  0.51100000000E-03 0. -1.
    9900012    2    1    2    0    0 -0.14674944018E+02  0.23186265493E+02  0.16240732173E+02  0.59301980007E+02  0.50000065617E+02 0.  0.
        -12    1    1    2    0    0  0.14674944018E+02 -0.23186265493E+02 -0.16240732173E+02  0.31886019993E+02  0.00000000000E+00 0.  1.
         11    1    3    3    0    0  0.45997297261E+01 -0.77056108535E+00  0.44618175531E+01  0.64543856468E+01  0.51100000000E-03 0. -1.
        -11    1    3    3    0    0  0.11677055251E+02 -0.95504352321E+00  0.38502154756E+01  0.12332472864E+02  0.51100000000E-03 0.  1.
         12    1    3    3    0    0 -0.30951728995E+02  0.24911870102E+02  0.79286991447E+01  0.40515121497E+02  0.00000000000E+00 0. -1.
</event>
<event>
 7    1  0.6515090E-012  0.5930192E+02  0.7816164E-02  0.1266605E+00
        -11   -1    0    0    0    0  0.00000000000E+00  0.00000000000E+00  0.45593999997E+02  0.45594000000E+02  0.51100000000E-03 0.  1.
         11   -1    0    0    0    0 -0.00000000000E+00 -0.00000000000E+00 -0.45593999997E+02  0.45594000000E+02  0.51100000000E-03 0. -1.
    9900012    2    1    2    0    0  0.26836399664E+02 -0.57761774604E+01 -0.16222368139E+02  0.59301924654E+02  0.49999964666E+02 0.  0.
        -12    1    1    2    0    0 -0.26836399664E+02  0.57761774604E+01  0.16222368139E+02  0.31886075346E+02  0.00000000000E+00 0.  1.
         11    1    3    3    0    0  0.19312503417E+02 -0.15531327901E+02  0.54113070819E+01  0.25366851976E+02  0.51100000000E-03 0. -1.
        -11    1    3    3    0    0  0.39578215535E+01  0.97811337902E+01  0.13847714578E+01  0.10642016817E+02  0.51100000000E-03 0.  1.
         12    1    3    3    0    0  0.35660746937E+01 -0.25983349377E-01 -0.23018446678E+02  0.23293055861E+02  0.00000000000E+00 0. -1.
</event>
<event>
 7    1  0.6515090E-012  0.5930201E+02  0.7816164E-02  0.1266605E+00
        -11   -1    0    0    0    0  0.00000000000E+00  0.00000000000E+00  0.45593999997E+02  0.45594000000E+02  0.51100000000E-03 0. -1.
         11   -1    0    0    0    0 -0.00000000000E+00 -0.00000000000E+00 -0.45593999997E+02  0.45594000000E+02  0.51100000000E-03 0.  1.
    9900012    2    1    2    0    0 -0.30857712190E+02 -0.75186022771E+01  0.28264132455E+01  0.59302009445E+02  0.50000119306E+02 0.  0.
        -12    1    1    2    0    0  0.30857712190E+02  0.75186022771E+01 -0.28264132455E+01  0.31885990555E+02  0.00000000000E+00 0.  1.
         11    1    3    3    0    0 -0.22433025400E+01 -0.36990459174E+01 -0.56330102701E+01  0.71025454556E+01  0.51100000000E-03 0. -1.
        -11    1    3    3    0    0  0.40898830067E+01  0.13344008205E+02  0.59736923968E+01  0.15181393187E+02  0.51100000000E-03 0.  1.
         12    1    3    3    0    0 -0.32704292657E+02 -0.17163564564E+02  0.24857311187E+01  0.37018070803E+02  0.00000000000E+00 0. -1.
</event>
<event>
 7    1  0.6515090E-012  0.5930195E+02  0.7816164E-02  0.1266605E+00
        -11   -1    0    0    0    0  0.00000000000E+00  0.00000000000E+00  0.45593999997E+02  0.45594000000E+02  0.51100000000E-03 0. -1.
         11   -1    0    0    0    0 -0.00000000000E+00 -0.00000000000E+00 -0.45593999997E+02  0.45594000000E+02  0.51100000000E-03 0.  1.
    9900012    2    1    2    0    0 -0.59711302391E+01  0.31318378597E+02  0.47438393730E+00  0.59301948592E+02  0.50000008323E+02 0.  0.
        -12    1    1    2    0    0  0.59711302391E+01 -0.31318378597E+02 -0.47438393730E+00  0.31886051408E+02  0.00000000000E+00 0.  1.
         11    1    3    3    0    0 -0.12558455519E+02  0.20582095984E+02  0.48626594169E+01  0.24596400895E+02  0.51100000000E-03 0. -1.
        -11    1    3    3    0    0  0.12925219563E+02  0.12274865426E+02 -0.14292009643E+02  0.22847213438E+02  0.51100000000E-03 0.  1.
         12    1    3    3    0    0 -0.63378942832E+01 -0.15385828132E+01  0.99037341634E+01  0.11858334259E+02  0.00000000000E+00 0. -1.
</event>
<event>
 7    1  0.6515090E-012  0.5930213E+02  0.7816164E-02  0.1266604E+00
        -11   -1    0    0    0    0  0.00000000000E+00  0.00000000000E+00  0.45593999997E+02  0.45594000000E+02  0.51100000000E-03 0.  1.
         11   -1    0    0    0    0 -0.00000000000E+00 -0.00000000000E+00 -0.45593999997E+02  0.45594000000E+02  0.51100000000E-03 0. -1.
    9900012    2    1    2    0    0 -0.26280417150E+02  0.17969054990E+02 -0.17780601283E+01  0.59302129138E+02  0.50000337595E+02 0.  0.
        -12    1    1    2    0    0  0.26280417150E+02 -0.17969054990E+02  0.17780601283E+01  0.31885870862E+02  0.00000000000E+00 0.  1.
         11    1    3    3    0    0 -0.40817424871E+01 -0.11546511528E+02  0.31541279463E+01  0.12646385791E+02  0.51100000000E-03 0. -1.
        -11    1    3    3    0    0  0.48753713274E+01  0.46566907180E+01 -0.71576718577E+01  0.98329182193E+01  0.51100000000E-03 0.  1.
         12    1    3    3    0    0 -0.27074045990E+02  0.24858875800E+02  0.22254837831E+01  0.36822825128E+02  0.00000000000E+00 0. -1.
</event>
<event>
 7    1  0.6515090E-012  0.5930185E+02  0.7816164E-02  0.1266605E+00
        -11   -1    0    0    0    0  0.00000000000E+00  0.00000000000E+00  0.45593999997E+02  0.45594000000E+02  0.51100000000E-03 0. -1.
         11   -1    0    0    0    0 -0.00000000000E+00 -0.00000000000E+00 -0.45593999997E+02  0.45594000000E+02  0.51100000000E-03 0.  1.
    9900012    2    1    2    0    0  0.31206700974E+02  0.88523522871E+00 -0.64872748232E+01  0.59301850001E+02  0.49999828518E+02 0.  0.
        -12    1    1    2    0    0 -0.31206700974E+02 -0.88523522871E+00  0.64872748232E+01  0.31886149999E+02  0.00000000000E+00 0.  1.
         11    1    3    3    0    0  0.13738949611E+02 -0.17354986079E+01  0.61687864257E+01  0.15159967614E+02  0.51100000000E-03 0. -1.
        -11    1    3    3    0    0 -0.94681074514E+01  0.42982205815E+01  0.53547605060E+01  0.11695863338E+02  0.51100000000E-03 0.  1.
         12    1    3    3    0    0  0.26935858815E+02 -0.16774867449E+01 -0.18010821755E+02  0.32446019049E+02  0.00000000000E+00 0. -1.
</event>
<event>
 7    1  0.6515090E-012  0.5930195E+02  0.7816164E-02  0.1266605E+00
        -11   -1    0    0    0    0  0.00000000000E+00  0.00000000000E+00  0.45593999997E+02  0.45594000000E+02  0.51100000000E-03 0. -1.
         11   -1    0    0    0    0 -0.00000000000E+00 -0.00000000000E+00 -0.45593999997E+02  0.45594000000E+02  0.51100000000E-03 0.  1.
    9900012    2    1    2    0    0 -0.36070934088E+00  0.18837404267E+02  0.25724345788E+02  0.59301954824E+02  0.50000019691E+02 0.  0.
        -12    1    1    2    0    0  0.36070934088E+00 -0.18837404267E+02 -0.25724345788E+02  0.31886045176E+02  0.00000000000E+00 0.  1.
         11    1    3    3    0    0 -0.17727486396E+02  0.11939076034E+01  0.15826160213E+02  0.23794044142E+02  0.51100000000E-03 0. -1.
        -11    1    3    3    0    0  0.56461987277E+01  0.98300797742E+01 -0.71426822345E+01  0.13398803611E+02  0.51100000000E-03 0.  1.
        -12    1    3    3    0    0  0.11720578327E+02  0.78134168892E+01  0.17040867809E+02  0.22109107071E+02  0.00000000000E+00 0.  1.
</event>
<event>
 7    1  0.6515090E-012  0.5930190E+02  0.7816164E-02  0.1266605E+00
        -11   -1    0    0    0    0  0.00000000000E+00  0.00000000000E+00  0.45593999997E+02  0.45594000000E+02  0.51100000000E-03 0.  1.
         11   -1    0    0    0    0 -0.00000000000E+00 -0.00000000000E+00 -0.45593999997E+02  0.45594000000E+02  0.51100000000E-03 0. -1.
    9900012    2    1    2    0    0  0.56436502944E+01  0.15586631992E+01 -0.31343946457E+02  0.59301902730E+02  0.49999924683E+02 0.  0.
        -12    1    1    2    0    0 -0.56436502944E+01 -0.15586631992E+01  0.31343946457E+02  0.31886097270E+02  0.00000000000E+00 0.  1.
         11    1    3    3    0    0  0.64415659190E+01  0.96426980480E+01 -0.76563605382E+01  0.13895871836E+02  0.51100000000E-03 0. -1.
        -11    1    3    3    0    0 -0.13828589504E+02  0.83590740925E+01 -0.40259479392E+01  0.16652695410E+02  0.51100000000E-03 0.  1.
        -12    1    3    3    0    0  0.13030673879E+02 -0.16443108941E+02 -0.19661637980E+02  0.28753335484E+02  0.00000000000E+00 0.  1.
</event>
<event>
 7    1  0.6515090E-012  0.5930212E+02  0.7816164E-02  0.1266604E+00
        -11   -1    0    0    0    0  0.00000000000E+00  0.00000000000E+00  0.45593999997E+02  0.45594000000E+02  0.51100000000E-03 0. -1.
         11   -1    0    0    0    0 -0.00000000000E+00 -0.00000000000E+00 -0.45593999997E+02  0.45594000000E+02  0.51100000000E-03 0.  1.
    9900012    2    1    2    0    0 -0.26042229953E+02 -0.18398570165E+02  0.65022909097E-01  0.59302119848E+02  0.50000320654E+02 0.  0.
        -12    1    1    2    0    0  0.26042229953E+02  0.18398570165E+02 -0.65022909097E-01  0.31885880152E+02  0.00000000000E+00 0.  1.
         11    1    3    3    0    0 -0.16253777584E+02 -0.23616271340E+02  0.71018663462E+01  0.29535572851E+02  0.51100000000E-03 0. -1.
        -11    1    3    3    0    0 -0.13297737522E+02  0.73484358948E+01  0.58203536312E+01  0.16269783341E+02  0.51100000000E-03 0.  1.
        -12    1    3    3    0    0  0.35092851536E+01 -0.21307347199E+01 -0.12857197068E+02  0.13496763656E+02  0.00000000000E+00 0.  1.
</event>
<event>
 7    1  0.6515090E-012  0.5930194E+02  0.7816164E-02  0.1266605E+00
        -11   -1    0    0    0    0  0.00000000000E+00  0.00000000000E+00  0.45593999997E+02  0.45594000000E+02  0.51100000000E-03 0. -1.
         11   -1    0    0    0    0 -0.00000000000E+00 -0.00000000000E+00 -0.45593999997E+02  0.45594000000E+02  0.51100000000E-03 0.  1.
    9900012    2    1    2    0    0  0.23978813982E+02  0.13444984220E+01  0.20974494910E+02  0.59301942973E+02  0.49999998077E+02 0.  0.
        -12    1    1    2    0    0 -0.23978813982E+02 -0.13444984220E+01 -0.20974494910E+02  0.31886057027E+02  0.00000000000E+00 0.  1.
         11    1    3    3    0    0 -0.60551345320E+01  0.40100353828E+01  0.83062459235E+01  0.11033528881E+02  0.51100000000E-03 0. -1.
        -11    1    3    3    0    0  0.45630710613E+01 -0.15532980190E+02 -0.17724133344E+01  0.16286084256E+02  0.51100000000E-03 0.  1.
         12    1    3    3    0    0  0.25470877453E+02  0.12867443229E+02  0.14440662321E+02  0.31982329836E+02  0.00000000000E+00 0. -1.
</event>
<event>
 7    1  0.6515090E-012  0.5930196E+02  0.7816164E-02  0.1266605E+00
        -11   -1    0    0    0    0  0.00000000000E+00  0.00000000000E+00  0.45593999997E+02  0.45594000000E+02  0.51100000000E-03 0.  1.
         11   -1    0    0    0    0 -0.00000000000E+00 -0.00000000000E+00 -0.45593999997E+02  0.45594000000E+02  0.51100000000E-03 0. -1.
    9900012    2    1    2    0    0 -0.30932586566E+02 -0.51827798694E+01  0.57474511693E+01  0.59301963655E+02  0.50000035796E+02 0.  0.
        -12    1    1    2    0    0  0.30932586566E+02  0.51827798694E+01 -0.57474511693E+01  0.31886036345E+02  0.00000000000E+00 0.  1.
         11    1    3    3    0    0  0.52453280636E+00 -0.81955004520E+01  0.89289690091E+00  0.82606674948E+01  0.51100000000E-03 0. -1.
        -11    1    3    3    0    0 -0.30806455588E+02 -0.12306393783E+02  0.10354186709E+02  0.34751895150E+02  0.51100000000E-03 0.  1.
        -12    1    3    3    0    0 -0.65066378457E+00  0.15319114366E+02 -0.54996324407E+01  0.16289401011E+02  0.00000000000E+00 0.  1.
</event>
<event>
 7    1  0.6515090E-012  0.5930197E+02  0.7816164E-02  0.1266605E+00
        -11   -1    0    0    0    0  0.00000000000E+00  0.00000000000E+00  0.45593999997E+02  0.45594000000E+02  0.51100000000E-03 0.  1.
         11   -1    0    0    0    0 -0.00000000000E+00 -0.00000000000E+00 -0.45593999997E+02  0.45594000000E+02  0.51100000000E-03 0. -1.
    9900012    2    1    2    0    0  0.31561964261E+01  0.32106017245E+01 -0.31566584753E+02  0.59301971519E+02  0.50000050138E+02 0.  0.
        -12    1    1    2    0    0 -0.31561964261E+01 -0.32106017245E+01  0.31566584753E+02  0.31886028481E+02  0.00000000000E+00 0.  1.
         11    1    3    3    0    0  0.41960488203E+01  0.12746498274E+02 -0.11159200721E+02  0.17453017073E+02  0.51100000000E-03 0. -1.
        -11    1    3    3    0    0  0.73409483758E+01 -0.33721976756E+01  0.81380526993E+01  0.11466871510E+02  0.51100000000E-03 0.  1.
         12    1    3    3    0    0 -0.83808007700E+01 -0.61636988743E+01 -0.28545436732E+02  0.30382082937E+02  0.00000000000E+00 0. -1.
</event>
<event>
 7    1  0.6515090E-012  0.5930193E+02  0.7816164E-02  0.1266605E+00
        -11   -1    0    0    0    0  0.00000000000E+00  0.00000000000E+00  0.45593999997E+02  0.45594000000E+02  0.51100000000E-03 0.  1.
         11   -1    0    0    0    0 -0.00000000000E+00 -0.00000000000E+00 -0.45593999997E+02  0.45594000000E+02  0.51100000000E-03 0. -1.
    9900012    2    1    2    0    0  0.24651648052E+02 -0.17888878309E+02 -0.94342935461E+01  0.59301927594E+02  0.49999970028E+02 0.  0.
        -12    1    1    2    0    0 -0.24651648052E+02  0.17888878309E+02  0.94342935461E+01  0.31886072406E+02  0.00000000000E+00 0.  1.
         11    1    3    3    0    0  0.35928298353E+02 -0.37188026682E+01 -0.18833462468E+01  0.36169311704E+02  0.51100000000E-03 0. -1.
        -11    1    3    3    0    0 -0.53284735239E+01 -0.18910542764E+01  0.25042069715E+01  0.61838312710E+01  0.51100000000E-03 0.  1.
        -12    1    3    3    0    0 -0.59481767774E+01 -0.12279021364E+02 -0.10055154271E+02  0.16948784618E+02  0.00000000000E+00 0.  1.
</event>
<event>
 7    1  0.6515090E-012  0.5930207E+02  0.7816164E-02  0.1266604E+00
        -11   -1    0    0    0    0  0.00000000000E+00  0.00000000000E+00  0.45593999997E+02  0.45594000000E+02  0.51100000000E-03 0.  1.
         11   -1    0    0    0    0 -0.00000000000E+00 -0.00000000000E+00 -0.45593999997E+02  0.45594000000E+02  0.51100000000E-03 0. -1.
    9900012    2    1    2    0    0  0.15234859355E+02 -0.23021149643E+02 -0.15957397284E+02  0.59302065820E+02  0.50000222119E+02 0.  0.
        -12    1    1    2    0    0 -0.15234859355E+02  0.23021149643E+02  0.15957397284E+02  0.31885934180E+02  0.00000000000E+00 0.  1.
         11    1    3    3    0    0  0.19849509586E+02 -0.26031250755E+02 -0.69292994153E+01  0.33461085417E+02  0.51100000000E-03 0. -1.
        -11    1    3    3    0    0  0.49813795246E+01 -0.33171244737E+01  0.49338848025E+01  0.77563313652E+01  0.51100000000E-03 0.  1.
         12    1    3    3    0    0 -0.95960297555E+01  0.63272255855E+01 -0.13961982671E+02  0.18084649037E+02  0.00000000000E+00 0. -1.
</event>
<event>
 7    1  0.6515090E-012  0.5930194E+02  0.7816164E-02  0.1266605E+00
        -11   -1    0    0    0    0  0.00000000000E+00  0.00000000000E+00  0.45593999997E+02  0.45594000000E+02  0.51100000000E-03 0.  1.
         11   -1    0    0    0    0 -0.00000000000E+00 -0.00000000000E+00 -0.45593999997E+02  0.45594000000E+02  0.51100000000E-03 0. -1.
    9900012    2    1    2    0    0  0.13390809904E+02  0.28551405963E+02 -0.47142337585E+01  0.59301943921E+02  0.49999999806E+02 0.  0.
        -12    1    1    2    0    0 -0.13390809904E+02 -0.28551405963E+02  0.47142337585E+01  0.31886056079E+02  0.00000000000E+00 0.  1.
         11    1    3    3    0    0 -0.60076878638E+01  0.18046443935E+02  0.45468811963E+01  0.19556088082E+02  0.51100000000E-03 0. -1.
        -11    1    3    3    0    0  0.63135505077E+01  0.11178405990E+02  0.10122930224E+02  0.16349048812E+02  0.51100000000E-03 0.  1.
         12    1    3    3    0    0  0.13084947260E+02 -0.67344396288E+00 -0.19384045179E+02  0.23396807027E+02  0.00000000000E+00 0. -1.
</event>
<event>
 7    1  0.6515090E-012  0.5930189E+02  0.7816164E-02  0.1266605E+00
        -11   -1    0    0    0    0  0.00000000000E+00  0.00000000000E+00  0.45593999997E+02  0.45594000000E+02  0.51100000000E-03 0. -1.
         11   -1    0    0    0    0 -0.00000000000E+00 -0.00000000000E+00 -0.45593999997E+02  0.45594000000E+02  0.51100000000E-03 0.  1.
    9900012    2    1    2    0    0  0.31984089260E+01 -0.73559201460E+01  0.30860725423E+02  0.59301894021E+02  0.49999908800E+02 0.  0.
        -12    1    1    2    0    0 -0.31984089260E+01  0.73559201460E+01 -0.30860725423E+02  0.31886105979E+02  0.00000000000E+00 0.  1.
         11    1    3    3    0    0  0.18583933561E+02 -0.13893844449E+02  0.97457443550E+01  0.25167062471E+02  0.51100000000E-03 0. -1.
        -11    1    3    3    0    0  0.12696818259E+01  0.62669382938E+01  0.15145689139E+02  0.16440149247E+02  0.51100000000E-03 0.  1.
        -12    1    3    3    0    0 -0.16655206461E+02  0.27098600879E+00  0.59692919292E+01  0.17694682303E+02  0.00000000000E+00 0.  1.
</event>
<event>
 7    1  0.6515090E-012  0.5930195E+02  0.7816164E-02  0.1266605E+00
        -11   -1    0    0    0    0  0.00000000000E+00  0.00000000000E+00  0.45593999997E+02  0.45594000000E+02  0.51100000000E-03 0.  1.
         11   -1    0    0    0    0 -0.00000000000E+00 -0.00000000000E+00 -0.45593999997E+02  0.45594000000E+02  0.51100000000E-03 0. -1.
    9900012    2    1    2    0    0  0.23052483028E+01  0.30924681543E+02 -0.74209244144E+01  0.59301949485E+02  0.50000009954E+02 0.  0.
        -12    1    1    2    0    0 -0.23052483028E+01 -0.30924681543E+02  0.74209244144E+01  0.31886050515E+02  0.00000000000E+00 0.  1.
         11    1    3    3    0    0 -0.12830579067E+02  0.60710377212E+01 -0.30940706011E+01  0.14527715971E+02  0.51100000000E-03 0. -1.
        -11    1    3    3    0    0  0.41962738156E+01  0.29001534475E+02 -0.11006218633E+02  0.31302309255E+02  0.51100000000E-03 0.  1.
        -12    1    3    3    0    0  0.10939553554E+02 -0.41478906540E+01  0.66793648197E+01  0.13471924259E+02  0.00000000000E+00 0.  1.
</event>
<event>
 7    1  0.6515090E-012  0.5930185E+02  0.7816164E-02  0.1266605E+00
        -11   -1    0    0    0    0  0.00000000000E+00  0.00000000000E+00  0.45593999997E+02  0.45594000000E+02  0.51100000000E-03 0. -1.
         11   -1    0    0    0    0 -0.00000000000E+00 -0.00000000000E+00 -0.45593999997E+02  0.45594000000E+02  0.51100000000E-03 0.  1.
    9900012    2    1    2    0    0 -0.12261096333E+01 -0.80556947411E+00  0.31852381563E+02  0.59301850997E+02  0.49999830335E+02 0.  0.
        -12    1    1    2    0    0  0.12261096333E+01  0.80556947411E+00 -0.31852381563E+02  0.31886149003E+02  0.00000000000E+00 0.  1.
         11    1    3    3    0    0 -0.74520822016E+01 -0.96191904668E+00  0.37291725710E+01  0.83884173547E+01  0.51100000000E-03 0. -1.
        -11    1    3    3    0    0 -0.34666025166E+01  0.12769275827E+01 -0.10471715492E+02  0.11104265066E+02  0.51100000000E-03 0.  1.
         12    1    3    3    0    0  0.96925750849E+01 -0.11205780102E+01  0.38594924483E+02  0.39809168576E+02  0.00000000000E+00 0. -1.
</event>
<event>
 7    1  0.6515090E-012  0.5930193E+02  0.7816164E-02  0.1266605E+00
        -11   -1    0    0    0    0  0.00000000000E+00  0.00000000000E+00  0.45593999997E+02  0.45594000000E+02  0.51100000000E-03 0. -1.
         11   -1    0    0    0    0 -0.00000000000E+00 -0.00000000000E+00 -0.45593999997E+02  0.45594000000E+02  0.51100000000E-03 0.  1.
    9900012    2    1    2    0    0 -0.21898550282E+02  0.22278100460E+02  0.63922721150E+01  0.59301930826E+02  0.49999975924E+02 0.  0.
        -12    1    1    2    0    0  0.21898550282E+02 -0.22278100460E+02 -0.63922721150E+01  0.31886069174E+02  0.00000000000E+00 0.  1.
         11    1    3    3    0    0 -0.82914178515E+01  0.22773694193E+02  0.48064156248E+01  0.24708103703E+02  0.51100000000E-03 0. -1.
        -11    1    3    3    0    0 -0.89708323668E+01  0.28032334952E+01 -0.14641092175E+02  0.17398147365E+02  0.51100000000E-03 0.  1.
         12    1    3    3    0    0 -0.46363000633E+01 -0.32988272276E+01  0.16226948666E+02  0.17195679758E+02  0.00000000000E+00 0. -1.
</event>
<event>
 7    1  0.6515090E-012  0.5930194E+02  0.7816164E-02  0.1266605E+00
        -11   -1    0    0    0    0  0.00000000000E+00  0.00000000000E+00  0.45593999997E+02  0.45594000000E+02  0.51100000000E-03 0.  1.
         11   -1    0    0    0    0 -0.00000000000E+00 -0.00000000000E+00 -0.45593999997E+02  0.45594000000E+02  0.51100000000E-03 0. -1.
    9900012    2    1    2    0    0  0.80920477955E+01 -0.30237083338E+02 -0.60793614598E+01  0.59301935927E+02  0.49999985226E+02 0.  0.
        -12    1    1    2    0    0 -0.80920477955E+01  0.30237083338E+02  0.60793614598E+01  0.31886064073E+02  0.00000000000E+00 0.  1.
         11    1    3    3    0    0  0.19377248123E+01 -0.19678936557E+01 -0.16607744389E+02  0.16835811737E+02  0.51100000000E-03 0. -1.
        -11    1    3    3    0    0 -0.97482633983E+01 -0.10923003074E+02 -0.35221557097E+01  0.15058094718E+02  0.51100000000E-03 0.  1.
         12    1    3    3    0    0  0.15902586382E+02 -0.17346186609E+02  0.14050538639E+02  0.27408029472E+02  0.00000000000E+00 0. -1.
</event>
<event>
 7    1  0.6515090E-012  0.5930192E+02  0.7816164E-02  0.1266605E+00
        -11   -1    0    0    0    0  0.00000000000E+00  0.00000000000E+00  0.45593999997E+02  0.45594000000E+02  0.51100000000E-03 0.  1.
         11   -1    0    0    0    0 -0.00000000000E+00 -0.00000000000E+00 -0.45593999997E+02  0.45594000000E+02  0.51100000000E-03 0. -1.
    9900012    2    1    2    0    0  0.52675270769E+01  0.31216158011E+02 -0.38113581155E+01  0.59301924463E+02  0.49999964318E+02 0.  0.
        -12    1    1    2    0    0 -0.52675270769E+01 -0.31216158011E+02  0.38113581155E+01  0.31886075537E+02  0.00000000000E+00 0.  1.
         11    1    3    3    0    0  0.44341705403E+01  0.24611869066E+01  0.95391721086E+01  0.10803476947E+02  0.51100000000E-03 0. -1.
        -11    1    3    3    0    0  0.74091845248E+01 -0.48721833019E+01  0.44113580458E+01  0.99042549199E+01  0.51100000000E-03 0.  1.
         12    1    3    3    0    0 -0.65758279882E+01  0.33627154406E+02 -0.17761888270E+02  0.38594192596E+02  0.00000000000E+00 0. -1.
</event>
<event>
 7    1  0.6515090E-012  0.5930192E+02  0.7816164E-02  0.1266605E+00
        -11   -1    0    0    0    0  0.00000000000E+00  0.00000000000E+00  0.45593999997E+02  0.45594000000E+02  0.51100000000E-03 0.  1.
         11   -1    0    0    0    0 -0.00000000000E+00 -0.00000000000E+00 -0.45593999997E+02  0.45594000000E+02  0.51100000000E-03 0. -1.
    9900012    2    1    2    0    0  0.20357375811E+02 -0.19435379672E+02 -0.14985494879E+02  0.59301924831E+02  0.49999964990E+02 0.  0.
        -12    1    1    2    0    0 -0.20357375811E+02  0.19435379672E+02  0.14985494879E+02  0.31886075169E+02  0.00000000000E+00 0.  1.
         11    1    3    3    0    0  0.23619280641E+02 -0.51115624484E+01 -0.17231219413E+00  0.24166674997E+02  0.51100000000E-03 0. -1.
        -11    1    3    3    0    0  0.46631856892E+01 -0.91955274774E+01  0.62477666189E+01  0.12055605101E+02  0.51100000000E-03 0.  1.
         12    1    3    3    0    0 -0.79250905187E+01 -0.51282897457E+01 -0.21060949304E+02  0.23079644734E+02  0.00000000000E+00 0. -1.
</event>
<event>
 7    1  0.6515090E-012  0.5930195E+02  0.7816164E-02  0.1266605E+00
        -11   -1    0    0    0    0  0.00000000000E+00  0.00000000000E+00  0.45593999997E+02  0.45594000000E+02  0.51100000000E-03 0.  1.
         11   -1    0    0    0    0 -0.00000000000E+00 -0.00000000000E+00 -0.45593999997E+02  0.45594000000E+02  0.51100000000E-03 0. -1.
    9900012    2    1    2    0    0  0.12871112596E+02  0.30184460751E+01 -0.29016264002E+02  0.59301950812E+02  0.50000012373E+02 0.  0.
        -12    1    1    2    0    0 -0.12871112596E+02 -0.30184460751E+01  0.29016264002E+02  0.31886049188E+02  0.00000000000E+00 0.  1.
         11    1    3    3    0    0  0.72313648688E+01 -0.61817502692E+01  0.23399126923E+01  0.97970335268E+01  0.51100000000E-03 0. -1.
        -11    1    3    3    0    0 -0.29580622245E+00 -0.32899338499E+01  0.75355821642E+01  0.82277679156E+01  0.51100000000E-03 0.  1.
         12    1    3    3    0    0  0.59355539496E+01  0.12490130194E+02 -0.38891758859E+02  0.41277149370E+02  0.00000000000E+00 0. -1.
</event>
<event>
 7    1  0.6515090E-012  0.5930195E+02  0.7816164E-02  0.1266605E+00
        -11   -1    0    0    0    0  0.00000000000E+00  0.00000000000E+00  0.45593999997E+02  0.45594000000E+02  0.51100000000E-03 0.  1.
         11   -1    0    0    0    0 -0.00000000000E+00 -0.00000000000E+00 -0.45593999997E+02  0.45594000000E+02  0.51100000000E-03 0. -1.
    9900012    2    1    2    0    0 -0.16027832861E+02 -0.57717717570E+01 -0.26953946776E+02  0.59301952546E+02  0.50000015536E+02 0.  0.
        -12    1    1    2    0    0  0.16027832861E+02  0.57717717570E+01  0.26953946776E+02  0.31886047454E+02  0.00000000000E+00 0.  1.
         11    1    3    3    0    0  0.12075345194E+02  0.52968160461E+01 -0.21546691616E+02  0.25261237928E+02  0.51100000000E-03 0. -1.
        -11    1    3    3    0    0 -0.10304695122E+02  0.79431144815E+00 -0.71696969431E+01  0.12578641689E+02  0.51100000000E-03 0.  1.
        -12    1    3    3    0    0 -0.17798482934E+02 -0.11862899251E+02  0.17624417835E+01  0.21462072929E+02  0.00000000000E+00 0.  1.
</event>
<event>
 7    1  0.6515090E-012  0.5930195E+02  0.7816164E-02  0.1266605E+00
        -11   -1    0    0    0    0  0.00000000000E+00  0.00000000000E+00  0.45593999997E+02  0.45594000000E+02  0.51100000000E-03 0.  1.
         11   -1    0    0    0    0 -0.00000000000E+00 -0.00000000000E+00 -0.45593999997E+02  0.45594000000E+02  0.51100000000E-03 0. -1.
    9900012    2    1    2    0    0  0.21301462590E+02 -0.99310305894E+01  0.21548612941E+02  0.59301946673E+02  0.50000004825E+02 0.  0.
        -12    1    1    2    0    0 -0.21301462590E+02  0.99310305894E+01 -0.21548612941E+02  0.31886053327E+02  0.00000000000E+00 0.  1.
         11    1    3    3    0    0  0.25167949794E+02  0.36986064138E+01  0.32196676983E+01  0.25641209928E+02  0.51100000000E-03 0. -1.
        -11    1    3    3    0    0  0.61614977060E+01  0.27705036838E+01 -0.47184089783E+00  0.67721768094E+01  0.51100000000E-03 0.  1.
        -12    1    3    3    0    0 -0.10027984910E+02 -0.16400140687E+02  0.18800786141E+02  0.26888559936E+02  0.00000000000E+00 0.  1.
</event>
<event>
 7    1  0.6515090E-012  0.5930193E+02  0.7816164E-02  0.1266605E+00
        -11   -1    0    0    0    0  0.00000000000E+00  0.00000000000E+00  0.45593999997E+02  0.45594000000E+02  0.51100000000E-03 0.  1.
         11   -1    0    0    0    0 -0.00000000000E+00 -0.00000000000E+00 -0.45593999997E+02  0.45594000000E+02  0.51100000000E-03 0. -1.
    9900012    2    1    2    0    0 -0.26593189942E+01  0.26316681446E+02 -0.17806787254E+02  0.59301931378E+02  0.49999976930E+02 0.  0.
        -12    1    1    2    0    0  0.26593189942E+01 -0.26316681446E+02  0.17806787254E+02  0.31886068622E+02  0.00000000000E+00 0.  1.
         11    1    3    3    0    0 -0.14238298303E+02  0.16106809848E+02 -0.64543069787E+01  0.22445857989E+02  0.51100000000E-03 0. -1.
        -11    1    3    3    0    0 -0.12273593005E+00 -0.10224712995E+01  0.99936143002E+01  0.10046533666E+02  0.51100000000E-03 0.  1.
         12    1    3    3    0    0  0.11701715239E+02  0.11232342897E+02 -0.21346094576E+02  0.26809539722E+02  0.00000000000E+00 0. -1.
</event>
<event>
 7    1  0.6515090E-012  0.5930228E+02  0.7816164E-02  0.1266604E+00
        -11   -1    0    0    0    0  0.00000000000E+00  0.00000000000E+00  0.45593999997E+02  0.45594000000E+02  0.51100000000E-03 0.  1.
         11   -1    0    0    0    0 -0.00000000000E+00 -0.00000000000E+00 -0.45593999997E+02  0.45594000000E+02  0.51100000000E-03 0. -1.
    9900012    2    1    2    0    0  0.55779958813E+01  0.31367231926E+02 -0.12967574209E+01  0.59302284443E+02  0.50000620832E+02 0.  0.
        -12    1    1    2    0    0 -0.55779958813E+01 -0.31367231926E+02  0.12967574209E+01  0.31885715557E+02  0.00000000000E+00 0.  1.
         11    1    3    3    0    0  0.19396012817E+02  0.93839892189E+01  0.44803044267E+01  0.22007673545E+02  0.51100000000E-03 0. -1.
        -11    1    3    3    0    0 -0.26921222947E+01  0.25010475871E+02 -0.23435930097E+01  0.25263884384E+02  0.51100000000E-03 0.  1.
         12    1    3    3    0    0 -0.11125894641E+02 -0.30272331633E+01 -0.34334688379E+01  0.12030726514E+02  0.00000000000E+00 0. -1.
</event>
<event>
 7    1  0.6515090E-012  0.5930194E+02  0.7816164E-02  0.1266605E+00
        -11   -1    0    0    0    0  0.00000000000E+00  0.00000000000E+00  0.45593999997E+02  0.45594000000E+02  0.51100000000E-03 0.  1.
         11   -1    0    0    0    0 -0.00000000000E+00 -0.00000000000E+00 -0.45593999997E+02  0.45594000000E+02  0.51100000000E-03 0. -1.
    9900012    2    1    2    0    0  0.11386271791E+02  0.66019347036E+01 -0.29042865104E+02  0.59301941282E+02  0.49999994993E+02 0.  0.
        -12    1    1    2    0    0 -0.11386271791E+02 -0.66019347036E+01  0.29042865104E+02  0.31886058718E+02  0.00000000000E+00 0.  1.
         11    1    3    3    0    0  0.19510043312E+01  0.22223247457E+02 -0.16802016091E+02  0.27928245387E+02  0.51100000000E-03 0. -1.
        -11    1    3    3    0    0  0.14585942676E+01  0.41249755355E+01  0.28950384093E+01  0.52463480688E+01  0.51100000000E-03 0.  1.
         12    1    3    3    0    0  0.79766731919E+01 -0.19746288289E+02 -0.15135887422E+02  0.26127347827E+02  0.00000000000E+00 0. -1.
</event>
<event>
 7    1  0.6515090E-012  0.5930194E+02  0.7816164E-02  0.1266605E+00
        -11   -1    0    0    0    0  0.00000000000E+00  0.00000000000E+00  0.45593999997E+02  0.45594000000E+02  0.51100000000E-03 0.  1.
         11   -1    0    0    0    0 -0.00000000000E+00 -0.00000000000E+00 -0.45593999997E+02  0.45594000000E+02  0.51100000000E-03 0. -1.
    9900012    2    1    2    0    0  0.28616359338E+02  0.31941453453E+01 -0.13697532776E+02  0.59301937364E+02  0.49999987847E+02 0.  0.
        -12    1    1    2    0    0 -0.28616359338E+02 -0.31941453453E+01  0.13697532776E+02  0.31886062636E+02  0.00000000000E+00 0.  1.
         11    1    3    3    0    0  0.93365742005E+01  0.53161463184E+01 -0.63706835246E+00  0.10762847478E+02  0.51100000000E-03 0. -1.
        -11    1    3    3    0    0  0.10835825174E+02 -0.11187956299E+00  0.15374039569E+02  0.18809272106E+02  0.51100000000E-03 0.  1.
        -12    1    3    3    0    0  0.84439599632E+01 -0.20101214102E+01 -0.28434503993E+02  0.29729817780E+02  0.00000000000E+00 0.  1.
</event>
<event>
 7    1  0.6515090E-012  0.5930194E+02  0.7816164E-02  0.1266605E+00
        -11   -1    0    0    0    0  0.00000000000E+00  0.00000000000E+00  0.45593999997E+02  0.45594000000E+02  0.51100000000E-03 0. -1.
         11   -1    0    0    0    0 -0.00000000000E+00 -0.00000000000E+00 -0.45593999997E+02  0.45594000000E+02  0.51100000000E-03 0.  1.
    9900012    2    1    2    0    0  0.24840132689E+02 -0.19894936919E+02 -0.19697337174E+01  0.59301944146E+02  0.50000000216E+02 0.  0.
        -12    1    1    2    0    0 -0.24840132689E+02  0.19894936919E+02  0.19697337174E+01  0.31886055854E+02  0.00000000000E+00 0.  1.
         11    1    3    3    0    0  0.22830869632E+02 -0.12725970602E+02 -0.47985529743E+01  0.26574895048E+02  0.51100000000E-03 0. -1.
        -11    1    3    3    0    0  0.25666818979E+01  0.12061824680E+02 -0.28708587555E+01  0.12661646845E+02  0.51100000000E-03 0.  1.
         12    1    3    3    0    0 -0.55741884050E+00 -0.19230790997E+02  0.56996780125E+01  0.20065402253E+02  0.00000000000E+00 0. -1.
</event>
<event>
 7    1  0.6515090E-012  0.5930194E+02  0.7816164E-02  0.1266605E+00
        -11   -1    0    0    0    0  0.00000000000E+00  0.00000000000E+00  0.45593999997E+02  0.45594000000E+02  0.51100000000E-03 0. -1.
         11   -1    0    0    0    0 -0.00000000000E+00 -0.00000000000E+00 -0.45593999997E+02  0.45594000000E+02  0.51100000000E-03 0.  1.
    9900012    2    1    2    0    0 -0.24515367527E+02 -0.11839172270E+02  0.16599749744E+02  0.59301938209E+02  0.49999989388E+02 0.  0.
        -12    1    1    2    0    0  0.24515367527E+02  0.11839172270E+02 -0.16599749744E+02  0.31886061791E+02  0.00000000000E+00 0.  1.
         11    1    3    3    0    0 -0.11827156748E+02  0.24055516762E+01  0.96046164453E+01  0.15424557463E+02  0.51100000000E-03 0. -1.
        -11    1    3    3    0    0 -0.23001142352E+02 -0.19088723316E+02 -0.10837072382E+01  0.29909970394E+02  0.51100000000E-03 0.  1.
        -12    1    3    3    0    0  0.10312931573E+02  0.48439993699E+01  0.80788405366E+01  0.13967410352E+02  0.00000000000E+00 0.  1.
</event>
<event>
 7    1  0.6515090E-012  0.5930201E+02  0.7816164E-02  0.1266605E+00
        -11   -1    0    0    0    0  0.00000000000E+00  0.00000000000E+00  0.45593999997E+02  0.45594000000E+02  0.51100000000E-03 0. -1.
         11   -1    0    0    0    0 -0.00000000000E+00 -0.00000000000E+00 -0.45593999997E+02  0.45594000000E+02  0.51100000000E-03 0.  1.
    9900012    2    1    2    0    0 -0.13424872221E+02 -0.17876779188E+02 -0.22735653862E+02  0.59302009584E+02  0.50000119559E+02 0.  0.
        -12    1    1    2    0    0  0.13424872221E+02  0.17876779188E+02  0.22735653862E+02  0.31885990416E+02  0.00000000000E+00 0.  1.
         11    1    3    3    0    0  0.10055039200E+02 -0.71182758072E+01 -0.98974416098E+01  0.15802943222E+02  0.51100000000E-03 0. -1.
        -11    1    3    3    0    0 -0.89041322669E+01 -0.20575679596E+02 -0.12616892562E+01  0.22455155806E+02  0.51100000000E-03 0.  1.
        -12    1    3    3    0    0 -0.14575779155E+02  0.98171762153E+01 -0.11576522996E+02  0.21043910556E+02  0.00000000000E+00 0.  1.
</event>
<event>
 7    1  0.6515090E-012  0.5930198E+02  0.7816164E-02  0.1266605E+00
        -11   -1    0    0    0    0  0.00000000000E+00  0.00000000000E+00  0.45593999997E+02  0.45594000000E+02  0.51100000000E-03 0. -1.
         11   -1    0    0    0    0 -0.00000000000E+00 -0.00000000000E+00 -0.45593999997E+02  0.45594000000E+02  0.51100000000E-03 0.  1.
    9900012    2    1    2    0    0 -0.64015046582E+01  0.31019173142E+02  0.36810396862E+01  0.59301977711E+02  0.50000061429E+02 0.  0.
        -12    1    1    2    0    0  0.64015046582E+01 -0.31019173142E+02 -0.36810396862E+01  0.31886022289E+02  0.00000000000E+00 0.  1.
         11    1    3    3    0    0  0.14357290679E+02  0.19656652966E+02 -0.21676764681E+01  0.24437975019E+02  0.51100000000E-03 0. -1.
        -11    1    3    3    0    0  0.11527463882E+01  0.11068109610E+01 -0.72008650523E+01  0.73760634828E+01  0.51100000000E-03 0.  1.
         12    1    3    3    0    0 -0.21911541726E+02  0.10255709214E+02  0.13049581207E+02  0.27487939209E+02  0.00000000000E+00 0. -1.
</event>
<event>
 7    1  0.6515090E-012  0.5930218E+02  0.7816164E-02  0.1266604E+00
        -11   -1    0    0    0    0  0.00000000000E+00  0.00000000000E+00  0.45593999997E+02  0.45594000000E+02  0.51100000000E-03 0.  1.
         11   -1    0    0    0    0 -0.00000000000E+00 -0.00000000000E+00 -0.45593999997E+02  0.45594000000E+02  0.51100000000E-03 0. -1.
    9900012    2    1    2    0    0 -0.28369883668E+02  0.14554063398E+02 -0.18620933428E+00  0.59302176588E+02  0.50000424133E+02 0.  0.
        -12    1    1    2    0    0  0.28369883668E+02 -0.14554063398E+02  0.18620933428E+00  0.31885823412E+02  0.00000000000E+00 0.  1.
         11    1    3    3    0    0  0.59568758969E+01 -0.70182217316E+00  0.92439618489E+01  0.11019426289E+02  0.51100000000E-03 0. -1.
        -11    1    3    3    0    0 -0.30330071485E+02  0.51972851875E+01  0.40032987593E+01  0.31031458406E+02  0.51100000000E-03 0.  1.
         12    1    3    3    0    0 -0.39966880801E+01  0.10058600384E+02 -0.13433469942E+02  0.17251291893E+02  0.00000000000E+00 0. -1.
</event>
<event>
 7    1  0.6515090E-012  0.5930193E+02  0.7816164E-02  0.1266605E+00
        -11   -1    0    0    0    0  0.00000000000E+00  0.00000000000E+00  0.45593999997E+02  0.45594000000E+02  0.51100000000E-03 0. -1.
         11   -1    0    0    0    0 -0.00000000000E+00 -0.00000000000E+00 -0.45593999997E+02  0.45594000000E+02  0.51100000000E-03 0.  1.
    9900012    2    1    2    0    0  0.16287212052E+02  0.27385638701E+02  0.12143883540E+01  0.59301933724E+02  0.49999981209E+02 0.  0.
        -12    1    1    2    0    0 -0.16287212052E+02 -0.27385638701E+02 -0.12143883540E+01  0.31886066276E+02  0.00000000000E+00 0.  1.
         11    1    3    3    0    0  0.50441466066E+01  0.93560780482E+01 -0.33033095536E+01  0.11130654325E+02  0.51100000000E-03 0. -1.
        -11    1    3    3    0    0  0.22666790868E+02  0.15808435767E+02 -0.10156749375E+02  0.29442309824E+02  0.51100000000E-03 0.  1.
         12    1    3    3    0    0 -0.11423725423E+02  0.22211248857E+01  0.14674447283E+02  0.18728969575E+02  0.00000000000E+00 0. -1.
</event>
<event>
 7    1  0.6515090E-012  0.5930193E+02  0.7816164E-02  0.1266605E+00
        -11   -1    0    0    0    0  0.00000000000E+00  0.00000000000E+00  0.45593999997E+02  0.45594000000E+02  0.51100000000E-03 0. -1.
         11   -1    0    0    0    0 -0.00000000000E+00 -0.00000000000E+00 -0.45593999997E+02  0.45594000000E+02  0.51100000000E-03 0.  1.
    9900012    2    1    2    0    0  0.28782579089E+02 -0.77529892247E+01 -0.11321467451E+02  0.59301932099E+02  0.49999978245E+02 0.  0.
        -12    1    1    2    0    0 -0.28782579089E+02  0.77529892247E+01  0.11321467451E+02  0.31886067901E+02  0.00000000000E+00 0.  1.
         11    1    3    3    0    0  0.38741309137E+02 -0.33186363532E+01  0.84254177730E+00  0.38892316180E+02  0.51100000000E-03 0. -1.
        -11    1    3    3    0    0 -0.59181857174E+01 -0.81653696655E+01 -0.46681258685E+01  0.11112586708E+02  0.51100000000E-03 0.  1.
        -12    1    3    3    0    0 -0.40405443306E+01  0.37310167941E+01 -0.74958833597E+01  0.92970292108E+01  0.00000000000E+00 0.  1.
</event>
<event>
 7    1  0.6515090E-012  0.5930192E+02  0.7816164E-02  0.1266605E+00
        -11   -1    0    0    0    0  0.00000000000E+00  0.00000000000E+00  0.45593999997E+02  0.45594000000E+02  0.51100000000E-03 0.  1.
         11   -1    0    0    0    0 -0.00000000000E+00 -0.00000000000E+00 -0.45593999997E+02  0.45594000000E+02  0.51100000000E-03 0. -1.
    9900012    2    1    2    0    0  0.27729476425E+02  0.73043767554E+01 -0.13944318180E+02  0.59301924793E+02  0.49999964921E+02 0.  0.
        -12    1    1    2    0    0 -0.27729476425E+02 -0.73043767554E+01  0.13944318180E+02  0.31886075207E+02  0.00000000000E+00 0.  1.
         11    1    3    3    0    0  0.13526982090E+02 -0.19698727478E+01  0.98477527615E+01  0.16847488769E+02  0.51100000000E-03 0. -1.
        -11    1    3    3    0    0  0.88913024584E+01  0.19707673784E+01  0.62755973509E+01  0.11059941493E+02  0.51100000000E-03 0.  1.
        -12    1    3    3    0    0  0.53111918763E+01  0.73034821249E+01 -0.30067668293E+02  0.31394494531E+02  0.00000000000E+00 0.  1.
</event>
<event>
 7    1  0.6515090E-012  0.5930194E+02  0.7816164E-02  0.1266605E+00
        -11   -1    0    0    0    0  0.00000000000E+00  0.00000000000E+00  0.45593999997E+02  0.45594000000E+02  0.51100000000E-03 0.  1.
         11   -1    0    0    0    0 -0.00000000000E+00 -0.00000000000E+00 -0.45593999997E+02  0.45594000000E+02  0.51100000000E-03 0. -1.
    9900012    2    1    2    0    0 -0.10578611116E+00 -0.26528568539E+02 -0.17690243245E+02  0.59301939637E+02  0.49999991992E+02 0.  0.
        -12    1    1    2    0    0  0.10578611116E+00  0.26528568539E+02  0.17690243245E+02  0.31886060363E+02  0.00000000000E+00 0.  1.
         11    1    3    3    0    0 -0.28335672784E+01 -0.20059967782E+02 -0.14671827623E+02  0.25013874890E+02  0.51100000000E-03 0. -1.
        -11    1    3    3    0    0 -0.46695666384E+01 -0.13456187265E+02 -0.13539036959E+02  0.19651446521E+02  0.51100000000E-03 0.  1.
        -12    1    3    3    0    0  0.73973478057E+01  0.69875865082E+01  0.10520621338E+02  0.14636618227E+02  0.00000000000E+00 0.  1.
</event>
<event>
 7    1  0.6515090E-012  0.5930195E+02  0.7816164E-02  0.1266605E+00
        -11   -1    0    0    0    0  0.00000000000E+00  0.00000000000E+00  0.45593999997E+02  0.45594000000E+02  0.51100000000E-03 0. -1.
         11   -1    0    0    0    0 -0.00000000000E+00 -0.00000000000E+00 -0.45593999997E+02  0.45594000000E+02  0.51100000000E-03 0.  1.
    9900012    2    1    2    0    0  0.14251117902E+02  0.24708382086E+02  0.14252078762E+02  0.59301948884E+02  0.50000008857E+02 0.  0.
        -12    1    1    2    0    0 -0.14251117902E+02 -0.24708382086E+02 -0.14252078762E+02  0.31886051116E+02  0.00000000000E+00 0.  1.
         11    1    3    3    0    0  0.12311832585E+02  0.12490378880E+02  0.80028706026E+01  0.19277881739E+02  0.51100000000E-03 0. -1.
        -11    1    3    3    0    0  0.32208453279E+01 -0.71625803754E+01 -0.11357764812E+02  0.13808519980E+02  0.51100000000E-03 0.  1.
         12    1    3    3    0    0 -0.12815600116E+01  0.19380583580E+02  0.17606972971E+02  0.26215547165E+02  0.00000000000E+00 0. -1.
</event>
<event>
 7    1  0.6515090E-012  0.5930197E+02  0.7816164E-02  0.1266605E+00
        -11   -1    0    0    0    0  0.00000000000E+00  0.00000000000E+00  0.45593999997E+02  0.45594000000E+02  0.51100000000E-03 0.  1.
         11   -1    0    0    0    0 -0.00000000000E+00 -0.00000000000E+00 -0.45593999997E+02  0.45594000000E+02  0.51100000000E-03 0. -1.
    9900012    2    1    2    0    0 -0.27357939696E+02  0.42633070289E+01 -0.15814119811E+02  0.59301968001E+02  0.50000043722E+02 0.  0.
        -12    1    1    2    0    0  0.27357939696E+02 -0.42633070289E+01  0.15814119811E+02  0.31886031999E+02  0.00000000000E+00 0.  1.
         11    1    3    3    0    0 -0.11762140841E+02  0.20371013819E+01 -0.19683653472E+02  0.23020511581E+02  0.51100000000E-03 0. -1.
        -11    1    3    3    0    0  0.15243236562E+01  0.51325661376E+01 -0.11758117300E+02  0.12919756981E+02  0.51100000000E-03 0.  1.
        -12    1    3    3    0    0 -0.17120122511E+02 -0.29063604906E+01  0.15627650961E+02  0.23361699438E+02  0.00000000000E+00 0.  1.
</event>
<event>
 7    1  0.6515090E-012  0.5930193E+02  0.7816164E-02  0.1266605E+00
        -11   -1    0    0    0    0  0.00000000000E+00  0.00000000000E+00  0.45593999997E+02  0.45594000000E+02  0.51100000000E-03 0.  1.
         11   -1    0    0    0    0 -0.00000000000E+00 -0.00000000000E+00 -0.45593999997E+02  0.45594000000E+02  0.51100000000E-03 0. -1.
    9900012    2    1    2    0    0 -0.28848527030E+02  0.61533294639E+01 -0.12108701283E+02  0.59301927460E+02  0.49999969784E+02 0.  0.
        -12    1    1    2    0    0  0.28848527030E+02 -0.61533294639E+01  0.12108701283E+02  0.31886072540E+02  0.00000000000E+00 0.  1.
         11    1    3    3    0    0 -0.25315503183E+02  0.33040343536E+01 -0.19638451451E+02  0.32209627754E+02  0.51100000000E-03 0. -1.
        -11    1    3    3    0    0 -0.92834349000E+01 -0.65485034544E+01  0.10722296064E+02  0.15621545832E+02  0.51100000000E-03 0.  1.
         12    1    3    3    0    0  0.57504110530E+01  0.93977985647E+01 -0.31925458960E+01  0.11470753874E+02  0.00000000000E+00 0. -1.
</event>
<event>
 7    1  0.6515090E-012  0.5930196E+02  0.7816164E-02  0.1266605E+00
        -11   -1    0    0    0    0  0.00000000000E+00  0.00000000000E+00  0.45593999997E+02  0.45594000000E+02  0.51100000000E-03 0. -1.
         11   -1    0    0    0    0 -0.00000000000E+00 -0.00000000000E+00 -0.45593999997E+02  0.45594000000E+02  0.51100000000E-03 0.  1.
    9900012    2    1    2    0    0  0.23841564852E+02  0.20308924184E+02 -0.59872571136E+01  0.59301955030E+02  0.50000020066E+02 0.  0.
        -12    1    1    2    0    0 -0.23841564852E+02 -0.20308924184E+02  0.59872571136E+01  0.31886044970E+02  0.00000000000E+00 0.  1.
         11    1    3    3    0    0  0.13246321133E+02  0.85864959718E+01  0.25732419068E+01  0.15994202413E+02  0.51100000000E-03 0. -1.
        -11    1    3    3    0    0  0.18516338402E+02  0.18634064318E+02 -0.15696761337E+02  0.30601821148E+02  0.51100000000E-03 0.  1.
         12    1    3    3    0    0 -0.79210946838E+01 -0.69116361064E+01  0.71362623170E+01  0.12705931470E+02  0.00000000000E+00 0. -1.
</event>
<event>
 7    1  0.6515090E-012  0.5930195E+02  0.7816164E-02  0.1266605E+00
        -11   -1    0    0    0    0  0.00000000000E+00  0.00000000000E+00  0.45593999997E+02  0.45594000000E+02  0.51100000000E-03 0. -1.
         11   -1    0    0    0    0 -0.00000000000E+00 -0.00000000000E+00 -0.45593999997E+02  0.45594000000E+02  0.51100000000E-03 0.  1.
    9900012    2    1    2    0    0  0.26522727324E+02  0.15836059476E+02  0.79047159733E+01  0.59301946951E+02  0.50000005332E+02 0.  0.
        -12    1    1    2    0    0 -0.26522727324E+02 -0.15836059476E+02 -0.79047159733E+01  0.31886053049E+02  0.00000000000E+00 0.  1.
         11    1    3    3    0    0  0.30407520940E+00 -0.46120970061E+01  0.21153985507E+01  0.50831891383E+01  0.51100000000E-03 0. -1.
        -11    1    3    3    0    0 -0.65073192175E+01 -0.23944317355E+00  0.13274238216E+02  0.14785396069E+02  0.51100000000E-03 0.  1.
        -12    1    3    3    0    0  0.32725971332E+02  0.20687599656E+02 -0.74849207937E+01  0.39433361744E+02  0.00000000000E+00 0.  1.
</event>
<event>
 7    1  0.6515090E-012  0.5930196E+02  0.7816164E-02  0.1266605E+00
        -11   -1    0    0    0    0  0.00000000000E+00  0.00000000000E+00  0.45593999997E+02  0.45594000000E+02  0.51100000000E-03 0.  1.
         11   -1    0    0    0    0 -0.00000000000E+00 -0.00000000000E+00 -0.45593999997E+02  0.45594000000E+02  0.51100000000E-03 0. -1.
    9900012    2    1    2    0    0  0.29231773831E+01 -0.16034782984E+02 -0.27405480439E+02  0.59301959333E+02  0.50000027913E+02 0.  0.
        -12    1    1    2    0    0 -0.29231773831E+01  0.16034782984E+02  0.27405480439E+02  0.31886040667E+02  0.00000000000E+00 0.  1.
         11    1    3    3    0    0  0.17474959271E+01  0.69158243867E+01 -0.94163067258E+01  0.11813094496E+02  0.51100000000E-03 0. -1.
        -11    1    3    3    0    0  0.12595663652E+02  0.49704503659E+01 -0.79173070865E+01  0.15685658145E+02  0.51100000000E-03 0.  1.
         12    1    3    3    0    0 -0.11419982196E+02 -0.27921057737E+02 -0.10071866626E+02  0.31803206691E+02  0.00000000000E+00 0. -1.
</event>
<event>
 7    1  0.6515090E-012  0.5930192E+02  0.7816164E-02  0.1266605E+00
        -11   -1    0    0    0    0  0.00000000000E+00  0.00000000000E+00  0.45593999997E+02  0.45594000000E+02  0.51100000000E-03 0.  1.
         11   -1    0    0    0    0 -0.00000000000E+00 -0.00000000000E+00 -0.45593999997E+02  0.45594000000E+02  0.51100000000E-03 0. -1.
    9900012    2    1    2    0    0  0.25432507507E+02  0.10504230173E+02  0.16111198981E+02  0.59301921184E+02  0.49999958339E+02 0.  0.
        -12    1    1    2    0    0 -0.25432507507E+02 -0.10504230173E+02 -0.16111198981E+02  0.31886078816E+02  0.00000000000E+00 0.  1.
         11    1    3    3    0    0 -0.10142211855E+02 -0.73875308678E+01  0.13963079775E+01  0.12624965341E+02  0.51100000000E-03 0. -1.
        -11    1    3    3    0    0 -0.23686753590E+01  0.20847866049E+01  0.56704771545E+00  0.32060102178E+01  0.51100000000E-03 0.  1.
         12    1    3    3    0    0  0.37943394722E+02  0.15806974436E+02  0.14147843288E+02  0.43470945625E+02  0.00000000000E+00 0. -1.
</event>
<event>
 7    1  0.6515090E-012  0.5930194E+02  0.7816164E-02  0.1266605E+00
        -11   -1    0    0    0    0  0.00000000000E+00  0.00000000000E+00  0.45593999997E+02  0.45594000000E+02  0.51100000000E-03 0. -1.
         11   -1    0    0    0    0 -0.00000000000E+00 -0.00000000000E+00 -0.45593999997E+02  0.45594000000E+02  0.51100000000E-03 0.  1.
    9900012    2    1    2    0    0 -0.24554470641E+02  0.13604815983E+02  0.15123097133E+02  0.59301935437E+02  0.49999984333E+02 0.  0.
        -12    1    1    2    0    0  0.24554470641E+02 -0.13604815983E+02 -0.15123097133E+02  0.31886064563E+02  0.00000000000E+00 0.  1.
         11    1    3    3    0    0 -0.20381320771E+02  0.63875166929E+01  0.38755057978E+01  0.21707559774E+02  0.51100000000E-03 0. -1.
        -11    1    3    3    0    0 -0.87884492149E+01  0.19784228138E+01 -0.11034121271E+02  0.14244396404E+02  0.51100000000E-03 0.  1.
        -12    1    3    3    0    0  0.46152993448E+01  0.52388764760E+01  0.22281712606E+02  0.23349979259E+02  0.00000000000E+00 0.  1.
</event>
<event>
 7    1  0.6515090E-012  0.5930195E+02  0.7816164E-02  0.1266605E+00
        -11   -1    0    0    0    0  0.00000000000E+00  0.00000000000E+00  0.45593999997E+02  0.45594000000E+02  0.51100000000E-03 0.  1.
         11   -1    0    0    0    0 -0.00000000000E+00 -0.00000000000E+00 -0.45593999997E+02  0.45594000000E+02  0.51100000000E-03 0. -1.
    9900012    2    1    2    0    0 -0.12146790083E+02  0.26879538775E+02 -0.12110578759E+02  0.59301949257E+02  0.50000009537E+02 0.  0.
        -12    1    1    2    0    0  0.12146790083E+02 -0.26879538775E+02  0.12110578759E+02  0.31886050743E+02  0.00000000000E+00 0.  1.
         11    1    3    3    0    0  0.43597252456E+01  0.61400382207E+01  0.77144522874E+01  0.10780540243E+02  0.51100000000E-03 0. -1.
        -11    1    3    3    0    0  0.97062021651E+01 -0.13459002215E+01 -0.64314179872E+01  0.11721132431E+02  0.51100000000E-03 0.  1.
         12    1    3    3    0    0 -0.26212717494E+02  0.22085400776E+02 -0.13393613059E+02  0.36800276584E+02  0.00000000000E+00 0. -1.
</event>
<event>
 7    1  0.6515090E-012  0.5930193E+02  0.7816164E-02  0.1266605E+00
        -11   -1    0    0    0    0  0.00000000000E+00  0.00000000000E+00  0.45593999997E+02  0.45594000000E+02  0.51100000000E-03 0. -1.
         11   -1    0    0    0    0 -0.00000000000E+00 -0.00000000000E+00 -0.45593999997E+02  0.45594000000E+02  0.51100000000E-03 0.  1.
    9900012    2    1    2    0    0 -0.41220415041E+01 -0.31591753699E+02  0.13005091973E+01  0.59301930124E+02  0.49999974643E+02 0.  0.
        -12    1    1    2    0    0  0.41220415041E+01  0.31591753699E+02 -0.13005091973E+01  0.31886069876E+02  0.00000000000E+00 0.  1.
         11    1    3    3    0    0  0.69306713298E+01 -0.22549310096E+02  0.63445347645E+01  0.24428645328E+02  0.51100000000E-03 0.  1.
        -11    1    3    3    0    0 -0.93694820068E+00 -0.17081568771E+02 -0.11315130420E+02  0.20510729882E+02  0.51100000000E-03 0. -1.
         12    1    3    3    0    0 -0.10115764633E+02  0.80391251683E+01  0.62711048529E+01  0.14362554914E+02  0.00000000000E+00 0. -1.
</event>
<event>
 7    1  0.6515090E-012  0.5930194E+02  0.7816164E-02  0.1266605E+00
        -11   -1    0    0    0    0  0.00000000000E+00  0.00000000000E+00  0.45593999997E+02  0.45594000000E+02  0.51100000000E-03 0.  1.
         11   -1    0    0    0    0 -0.00000000000E+00 -0.00000000000E+00 -0.45593999997E+02  0.45594000000E+02  0.51100000000E-03 0. -1.
    9900012    2    1    2    0    0  0.15771337527E+02  0.27633876800E+02  0.20868228747E+01  0.59301936209E+02  0.49999985740E+02 0.  0.
        -12    1    1    2    0    0 -0.15771337527E+02 -0.27633876800E+02 -0.20868228747E+01  0.31886063791E+02  0.00000000000E+00 0.  1.
         11    1    3    3    0    0 -0.51851153880E+01 -0.58463063763E+01  0.51625209234E+01  0.93657003143E+01  0.51100000000E-03 0. -1.
        -11    1    3    3    0    0 -0.61984644646E+01  0.86248201646E+01 -0.72911572449E+01  0.12882913445E+02  0.51100000000E-03 0.  1.
        -12    1    3    3    0    0  0.27154917380E+02  0.24855363012E+02  0.42154591962E+01  0.37053322450E+02  0.00000000000E+00 0.  1.
</event>
<event>
 7    1  0.6515090E-012  0.5930196E+02  0.7816164E-02  0.1266605E+00
        -11   -1    0    0    0    0  0.00000000000E+00  0.00000000000E+00  0.45593999997E+02  0.45594000000E+02  0.51100000000E-03 0. -1.
         11   -1    0    0    0    0 -0.00000000000E+00 -0.00000000000E+00 -0.45593999997E+02  0.45594000000E+02  0.51100000000E-03 0.  1.
    9900012    2    1    2    0    0  0.31717560068E+02  0.79403918642E+00  0.31757278112E+01  0.59301962898E+02  0.50000034415E+02 0.  0.
        -12    1    1    2    0    0 -0.31717560068E+02 -0.79403918642E+00 -0.31757278112E+01  0.31886037102E+02  0.00000000000E+00 0.  1.
         11    1    3    3    0    0  0.19613980941E+02 -0.60589372464E+01 -0.24952088018E+01  0.20679580173E+02  0.51100000000E-03 0. -1.
        -11    1    3    3    0    0  0.13479186097E+02 -0.12682130128E+02  0.12730681527E+01  0.18551161290E+02  0.51100000000E-03 0.  1.
        -12    1    3    3    0    0 -0.13756069698E+01  0.19535106561E+02  0.43978684603E+01  0.20071221435E+02  0.00000000000E+00 0.  1.
</event>
<event>
 7    1  0.6515090E-012  0.5930195E+02  0.7816164E-02  0.1266605E+00
        -11   -1    0    0    0    0  0.00000000000E+00  0.00000000000E+00  0.45593999997E+02  0.45594000000E+02  0.51100000000E-03 0. -1.
         11   -1    0    0    0    0 -0.00000000000E+00 -0.00000000000E+00 -0.45593999997E+02  0.45594000000E+02  0.51100000000E-03 0.  1.
    9900012    2    1    2    0    0 -0.94515546209E+01 -0.15010812925E+01  0.30416035190E+02  0.59301947775E+02  0.50000006834E+02 0.  0.
        -12    1    1    2    0    0  0.94515546209E+01  0.15010812925E+01 -0.30416035190E+02  0.31886052225E+02  0.00000000000E+00 0.  1.
         11    1    3    3    0    0 -0.14421179527E+00 -0.84178035306E+01  0.38831598682E+01  0.92714154337E+01  0.51100000000E-03 0. -1.
        -11    1    3    3    0    0  0.82079084918E+01 -0.12648867842E+02  0.15260070595E+02  0.21453050467E+02  0.51100000000E-03 0.  1.
        -12    1    3    3    0    0 -0.17515251317E+02  0.19565590080E+02  0.11272804727E+02  0.28577481875E+02  0.00000000000E+00 0.  1.
</event>
<event>
 7    1  0.6515090E-012  0.5930198E+02  0.7816164E-02  0.1266605E+00
        -11   -1    0    0    0    0  0.00000000000E+00  0.00000000000E+00  0.45593999997E+02  0.45594000000E+02  0.51100000000E-03 0. -1.
         11   -1    0    0    0    0 -0.00000000000E+00 -0.00000000000E+00 -0.45593999997E+02  0.45594000000E+02  0.51100000000E-03 0.  1.
    9900012    2    1    2    0    0 -0.60861564316E+01 -0.24135797123E+02  0.19928380569E+02  0.59301978690E+02  0.50000063216E+02 0.  0.
        -12    1    1    2    0    0  0.60861564316E+01  0.24135797123E+02 -0.19928380569E+02  0.31886021310E+02  0.00000000000E+00 0.  1.
         11    1    3    3    0    0 -0.37971453323E+01 -0.12480145864E+02  0.11952664625E+02  0.17692895336E+02  0.51100000000E-03 0. -1.
        -11    1    3    3    0    0 -0.73893757902E+01 -0.13583664942E+02 -0.12834834755E+02  0.20096064572E+02  0.51100000000E-03 0.  1.
         12    1    3    3    0    0  0.51003646908E+01  0.19280136838E+01  0.20810550698E+02  0.21513018782E+02  0.00000000000E+00 0. -1.
</event>
<event>
 7    1  0.6515090E-012  0.5930190E+02  0.7816164E-02  0.1266605E+00
        -11   -1    0    0    0    0  0.00000000000E+00  0.00000000000E+00  0.45593999997E+02  0.45594000000E+02  0.51100000000E-03 0. -1.
         11   -1    0    0    0    0 -0.00000000000E+00 -0.00000000000E+00 -0.45593999997E+02  0.45594000000E+02  0.51100000000E-03 0.  1.
    9900012    2    1    2    0    0 -0.16888828747E+02 -0.26516344669E+02  0.53267685174E+01  0.59301897480E+02  0.49999915109E+02 0.  0.
        -12    1    1    2    0    0  0.16888828747E+02  0.26516344669E+02 -0.53267685174E+01  0.31886102520E+02  0.00000000000E+00 0.  1.
         11    1    3    3    0    0 -0.10102715620E+02  0.49394061211E+01 -0.13635285923E+02  0.17674377449E+02  0.51100000000E-03 0. -1.
        -11    1    3    3    0    0 -0.29905880153E+01 -0.58946174585E+01 -0.34187045894E+01  0.74416176326E+01  0.51100000000E-03 0.  1.
         12    1    3    3    0    0 -0.37955251114E+01 -0.25561133332E+02  0.22380759030E+02  0.34185902399E+02  0.00000000000E+00 0. -1.
</event>
<event>
 7    1  0.6515090E-012  0.5930192E+02  0.7816164E-02  0.1266605E+00
        -11   -1    0    0    0    0  0.00000000000E+00  0.00000000000E+00  0.45593999997E+02  0.45594000000E+02  0.51100000000E-03 0. -1.
         11   -1    0    0    0    0 -0.00000000000E+00 -0.00000000000E+00 -0.45593999997E+02  0.45594000000E+02  0.51100000000E-03 0.  1.
    9900012    2    1    2    0    0  0.31670290519E+02 -0.13705604345E+01  0.34404068423E+01  0.59301919389E+02  0.49999955065E+02 0.  0.
        -12    1    1    2    0    0 -0.31670290519E+02  0.13705604345E+01 -0.34404068423E+01  0.31886080611E+02  0.00000000000E+00 0.  1.
         11    1    3    3    0    0  0.83133364905E+01  0.30298741828E+01  0.68149270605E+01  0.11168479407E+02  0.51100000000E-03 0. -1.
        -11    1    3    3    0    0 -0.90481386727E+01  0.48945846318E+01 -0.93437984652E+01  0.13897206272E+02  0.51100000000E-03 0.  1.
         12    1    3    3    0    0  0.32405092701E+02 -0.92950192491E+01  0.59692782469E+01  0.34236233710E+02  0.00000000000E+00 0. -1.
</event>
<event>
 7    1  0.6515090E-012  0.5930199E+02  0.7816164E-02  0.1266605E+00
        -11   -1    0    0    0    0  0.00000000000E+00  0.00000000000E+00  0.45593999997E+02  0.45594000000E+02  0.51100000000E-03 0. -1.
         11   -1    0    0    0    0 -0.00000000000E+00 -0.00000000000E+00 -0.45593999997E+02  0.45594000000E+02  0.51100000000E-03 0.  1.
    9900012    2    1    2    0    0 -0.24926053333E+02 -0.15632603568E+02  0.12289465428E+02  0.59301993828E+02  0.50000090823E+02 0.  0.
        -12    1    1    2    0    0  0.24926053333E+02  0.15632603568E+02 -0.12289465428E+02  0.31886006172E+02  0.00000000000E+00 0.  1.
         11    1    3    3    0    0  0.89081722179E+00  0.17768754018E+01  0.10679324280E+02  0.10862725664E+02  0.51100000000E-03 0. -1.
        -11    1    3    3    0    0 -0.31877396447E+01  0.11362406645E+02  0.74046861836E+00  0.11824308134E+02  0.51100000000E-03 0.  1.
         12    1    3    3    0    0 -0.22629130910E+02 -0.28771885616E+02  0.86967252943E+00  0.36614960029E+02  0.00000000000E+00 0. -1.
</event>
<event>
 7    1  0.6515090E-012  0.5930200E+02  0.7816164E-02  0.1266605E+00
        -11   -1    0    0    0    0  0.00000000000E+00  0.00000000000E+00  0.45593999997E+02  0.45594000000E+02  0.51100000000E-03 0. -1.
         11   -1    0    0    0    0 -0.00000000000E+00 -0.00000000000E+00 -0.45593999997E+02  0.45594000000E+02  0.51100000000E-03 0.  1.
    9900012    2    1    2    0    0  0.11544865218E+02 -0.25745179553E+02  0.14853243408E+02  0.59301999579E+02  0.50000101312E+02 0.  0.
        -12    1    1    2    0    0 -0.11544865218E+02  0.25745179553E+02 -0.14853243408E+02  0.31886000421E+02  0.00000000000E+00 0.  1.
         11    1    3    3    0    0  0.10319272162E+02  0.14590122053E+00  0.20283864041E+02  0.22758378805E+02  0.51100000000E-03 0. -1.
        -11    1    3    3    0    0  0.94438108201E+01 -0.26214365376E+02 -0.33846651782E+01  0.28068389221E+02  0.51100000000E-03 0.  1.
        -12    1    3    3    0    0 -0.82182177640E+01  0.32328460209E+00 -0.20459554546E+01  0.84752315527E+01  0.00000000000E+00 0.  1.
</event>
<event>
 7    1  0.6515090E-012  0.5930195E+02  0.7816164E-02  0.1266605E+00
        -11   -1    0    0    0    0  0.00000000000E+00  0.00000000000E+00  0.45593999997E+02  0.45594000000E+02  0.51100000000E-03 0.  1.
         11   -1    0    0    0    0 -0.00000000000E+00 -0.00000000000E+00 -0.45593999997E+02  0.45594000000E+02  0.51100000000E-03 0. -1.
    9900012    2    1    2    0    0 -0.20235843122E+02  0.89564623946E+01 -0.22956750107E+02  0.59301953820E+02  0.50000017860E+02 0.  0.
        -12    1    1    2    0    0  0.20235843122E+02 -0.89564623946E+01  0.22956750107E+02  0.31886046180E+02  0.00000000000E+00 0.  1.
         11    1    3    3    0    0 -0.48440935662E+01  0.73363248709E+01 -0.69738400233E+01  0.11221468265E+02  0.51100000000E-03 0. -1.
        -11    1    3    3    0    0 -0.20967178347E+02  0.11266547384E+02  0.50008982145E+01  0.24322143018E+02  0.51100000000E-03 0.  1.
         12    1    3    3    0    0  0.55754287919E+01 -0.96464098599E+01 -0.20983808299E+02  0.23758342537E+02  0.00000000000E+00 0. -1.
</event>
<event>
 7    1  0.6515090E-012  0.5930195E+02  0.7816164E-02  0.1266605E+00
        -11   -1    0    0    0    0  0.00000000000E+00  0.00000000000E+00  0.45593999997E+02  0.45594000000E+02  0.51100000000E-03 0. -1.
         11   -1    0    0    0    0 -0.00000000000E+00 -0.00000000000E+00 -0.45593999997E+02  0.45594000000E+02  0.51100000000E-03 0.  1.
    9900012    2    1    2    0    0 -0.86102664719E+01  0.78750697071E+01  0.29674345502E+02  0.59301949875E+02  0.50000010664E+02 0.  0.
        -12    1    1    2    0    0  0.86102664719E+01 -0.78750697071E+01 -0.29674345502E+02  0.31886050125E+02  0.00000000000E+00 0.  1.
         11    1    3    3    0    0  0.87790675490E+01  0.20549436459E+02  0.18262147148E+02  0.28859268607E+02  0.51100000000E-03 0. -1.
        -11    1    3    3    0    0  0.28603417392E+01  0.16995911376E+01  0.71038509316E+00  0.34021775589E+01  0.51100000000E-03 0.  1.
         12    1    3    3    0    0 -0.20249675760E+02 -0.14373957889E+02  0.10701813261E+02  0.27040503709E+02  0.00000000000E+00 0. -1.
</event>
<event>
 7    1  0.6515090E-012  0.5930195E+02  0.7816164E-02  0.1266605E+00
        -11   -1    0    0    0    0  0.00000000000E+00  0.00000000000E+00  0.45593999997E+02  0.45594000000E+02  0.51100000000E-03 0.  1.
         11   -1    0    0    0    0 -0.00000000000E+00 -0.00000000000E+00 -0.45593999997E+02  0.45594000000E+02  0.51100000000E-03 0. -1.
    9900012    2    1    2    0    0 -0.86679167460E+00  0.78029524106E+00 -0.31864710900E+02  0.59301953064E+02  0.50000016481E+02 0.  0.
        -12    1    1    2    0    0  0.86679167460E+00 -0.78029524106E+00  0.31864710900E+02  0.31886046936E+02  0.00000000000E+00 0.  1.
         11    1    3    3    0    0  0.49176345633E+01 -0.65409292270E+00  0.28493660912E+01  0.57210011914E+01  0.51100000000E-03 0.  1.
        -11    1    3    3    0    0 -0.11668968073E+02  0.11405464943E+02 -0.38159001706E+02  0.41501311520E+02  0.51100000000E-03 0. -1.
         12    1    3    3    0    0  0.58845418349E+01 -0.99710767796E+01  0.34449247152E+01  0.12079640352E+02  0.00000000000E+00 0. -1.
</event>
<event>
 7    1  0.6515090E-012  0.5930193E+02  0.7816164E-02  0.1266605E+00
        -11   -1    0    0    0    0  0.00000000000E+00  0.00000000000E+00  0.45593999997E+02  0.45594000000E+02  0.51100000000E-03 0.  1.
         11   -1    0    0    0    0 -0.00000000000E+00 -0.00000000000E+00 -0.45593999997E+02  0.45594000000E+02  0.51100000000E-03 0. -1.
    9900012    2    1    2    0    0 -0.24343409548E+02 -0.63994138373E+01 -0.19574656863E+02  0.59301932868E+02  0.49999979647E+02 0.  0.
        -12    1    1    2    0    0  0.24343409548E+02  0.63994138373E+01  0.19574656863E+02  0.31886067132E+02  0.00000000000E+00 0.  1.
         11    1    3    3    0    0 -0.68538257404E+01 -0.64910701336E+01 -0.13942874405E+02  0.16837834352E+02  0.51100000000E-03 0. -1.
        -11    1    3    3    0    0  0.39901311321E+01 -0.14759304960E+02  0.15859925572E+01  0.15371193903E+02  0.51100000000E-03 0.  1.
        -12    1    3    3    0    0 -0.21479714939E+02  0.14850961257E+02 -0.72177750155E+01  0.27092904612E+02  0.00000000000E+00 0.  1.
</event>
<event>
 7    1  0.6515090E-012  0.5930204E+02  0.7816164E-02  0.1266604E+00
        -11   -1    0    0    0    0  0.00000000000E+00  0.00000000000E+00  0.45593999997E+02  0.45594000000E+02  0.51100000000E-03 0. -1.
         11   -1    0    0    0    0 -0.00000000000E+00 -0.00000000000E+00 -0.45593999997E+02  0.45594000000E+02  0.51100000000E-03 0.  1.
    9900012    2    1    2    0    0  0.22953907182E+02 -0.10305333184E+02  0.19586547732E+02  0.59302037587E+02  0.50000170629E+02 0.  0.
        -12    1    1    2    0    0 -0.22953907182E+02  0.10305333184E+02 -0.19586547732E+02  0.31885962413E+02  0.00000000000E+00 0.  1.
         11    1    3    3    0    0 -0.88215088660E+00  0.55081566496E+01  0.64552197804E+01  0.85315791350E+01  0.51100000000E-03 0. -1.
        -11    1    3    3    0    0 -0.19332785644E+01  0.10909897867E+02  0.71002197284E+01  0.13159656451E+02  0.51100000000E-03 0.  1.
         12    1    3    3    0    0  0.25769336633E+02 -0.26723387700E+02  0.60311082233E+01  0.37610802000E+02  0.00000000000E+00 0. -1.
</event>
<event>
 7    1  0.6515090E-012  0.5930191E+02  0.7816164E-02  0.1266605E+00
        -11   -1    0    0    0    0  0.00000000000E+00  0.00000000000E+00  0.45593999997E+02  0.45594000000E+02  0.51100000000E-03 0.  1.
         11   -1    0    0    0    0 -0.00000000000E+00 -0.00000000000E+00 -0.45593999997E+02  0.45594000000E+02  0.51100000000E-03 0. -1.
    9900012    2    1    2    0    0  0.91951087881E+01 -0.29159673873E+02 -0.90490827925E+01  0.59301913608E+02  0.49999944522E+02 0.  0.
        -12    1    1    2    0    0 -0.91951087881E+01  0.29159673873E+02  0.90490827925E+01  0.31886086392E+02  0.00000000000E+00 0.  1.
         11    1    3    3    0    0  0.22323986539E+01 -0.10738598036E+02 -0.21976344145E+01  0.11186182942E+02  0.51100000000E-03 0. -1.
        -11    1    3    3    0    0  0.58410539082E+01 -0.32053268154E+02  0.50435435007E+00  0.32585031589E+02  0.51100000000E-03 0.  1.
         12    1    3    3    0    0  0.11216562260E+01  0.13632192317E+02 -0.73558027281E+01  0.15530699077E+02  0.00000000000E+00 0. -1.
</event>
<event>
 7    1  0.6515090E-012  0.5930191E+02  0.7816164E-02  0.1266605E+00
        -11   -1    0    0    0    0  0.00000000000E+00  0.00000000000E+00  0.45593999997E+02  0.45594000000E+02  0.51100000000E-03 0. -1.
         11   -1    0    0    0    0 -0.00000000000E+00 -0.00000000000E+00 -0.45593999997E+02  0.45594000000E+02  0.51100000000E-03 0.  1.
    9900012    2    1    2    0    0 -0.29480358856E+02 -0.12149373671E+02 -0.15497291938E+00  0.59301908118E+02  0.49999934509E+02 0.  0.
        -12    1    1    2    0    0  0.29480358856E+02  0.12149373671E+02  0.15497291938E+00  0.31886091882E+02  0.00000000000E+00 0.  1.
         11    1    3    3    0    0  0.66253551889E+01 -0.88728841223E+01  0.37708146298E+01  0.11697967655E+02  0.51100000000E-03 0. -1.
        -11    1    3    3    0    0  0.49327986180E+01 -0.63858001031E+00  0.31342524181E+01  0.58791007065E+01  0.51100000000E-03 0.  1.
         12    1    3    3    0    0 -0.41038512663E+02 -0.26379095384E+01 -0.70600399673E+01  0.41724839756E+02  0.00000000000E+00 0. -1.
</event>
<event>
 7    1  0.6515090E-012  0.5930194E+02  0.7816164E-02  0.1266605E+00
        -11   -1    0    0    0    0  0.00000000000E+00  0.00000000000E+00  0.45593999997E+02  0.45594000000E+02  0.51100000000E-03 0.  1.
         11   -1    0    0    0    0 -0.00000000000E+00 -0.00000000000E+00 -0.45593999997E+02  0.45594000000E+02  0.51100000000E-03 0. -1.
    9900012    2    1    2    0    0  0.30175568373E+02 -0.20658104121E+01 -0.10093979864E+02  0.59301938331E+02  0.49999989610E+02 0.  0.
        -12    1    1    2    0    0 -0.30175568373E+02  0.20658104121E+01  0.10093979864E+02  0.31886061669E+02  0.00000000000E+00 0.  1.
         11    1    3    3    0    0  0.17278453176E+02  0.13261688979E+02 -0.15630730550E+02  0.26809272212E+02  0.51100000000E-03 0. -1.
        -11    1    3    3    0    0  0.18589994317E+02 -0.52699351013E+01  0.75806463083E+01  0.20756355735E+02  0.51100000000E-03 0.  1.
        -12    1    3    3    0    0 -0.56928791202E+01 -0.10057564290E+02 -0.20438956221E+01  0.11736310384E+02  0.00000000000E+00 0.  1.
</event>
<event>
 7    1  0.6515090E-012  0.5930195E+02  0.7816164E-02  0.1266605E+00
        -11   -1    0    0    0    0  0.00000000000E+00  0.00000000000E+00  0.45593999997E+02  0.45594000000E+02  0.51100000000E-03 0.  1.
         11   -1    0    0    0    0 -0.00000000000E+00 -0.00000000000E+00 -0.45593999997E+02  0.45594000000E+02  0.51100000000E-03 0. -1.
    9900012    2    1    2    0    0  0.13822455510E+02 -0.25939850828E+02 -0.12360577723E+02  0.59301952597E+02  0.50000015629E+02 0.  0.
        -12    1    1    2    0    0 -0.13822455510E+02  0.25939850828E+02  0.12360577723E+02  0.31886047403E+02  0.00000000000E+00 0.  1.
         11    1    3    3    0    0  0.72899437339E+01 -0.16139094864E+02 -0.19341203319E+02  0.26223954865E+02  0.51100000000E-03 0. -1.
        -11    1    3    3    0    0  0.60530664720E+01 -0.20149772327E+02  0.88558020786E+00  0.21057948407E+02  0.51100000000E-03 0.  1.
         12    1    3    3    0    0  0.47944530447E+00  0.10349016363E+02  0.60950453887E+01  0.12020049325E+02  0.00000000000E+00 0. -1.
</event>
<event>
 7    1  0.6515090E-012  0.5930183E+02  0.7816164E-02  0.1266605E+00
        -11   -1    0    0    0    0  0.00000000000E+00  0.00000000000E+00  0.45593999997E+02  0.45594000000E+02  0.51100000000E-03 0. -1.
         11   -1    0    0    0    0 -0.00000000000E+00 -0.00000000000E+00 -0.45593999997E+02  0.45594000000E+02  0.51100000000E-03 0.  1.
    9900012    2    1    2    0    0  0.41062557997E+01  0.29577333594E+02  0.11182472726E+02  0.59301832223E+02  0.49999796095E+02 0.  0.
        -12    1    1    2    0    0 -0.41062557997E+01 -0.29577333594E+02 -0.11182472726E+02  0.31886167777E+02  0.00000000000E+00 0.  1.
         11    1    3    3    0    0  0.58189449683E+01  0.77249573405E+01  0.52741236812E+01  0.11015964203E+02  0.51100000000E-03 0. -1.
        -11    1    3    3    0    0  0.51213963085E+01 -0.19734496132E+01  0.19333224096E+02  0.20097182831E+02  0.51100000000E-03 0.  1.
        -12    1    3    3    0    0 -0.68340854771E+01  0.23825825867E+02 -0.13424875052E+02  0.28188685189E+02  0.00000000000E+00 0.  1.
</event>
<event>
 7    1  0.6515090E-012  0.5930194E+02  0.7816164E-02  0.1266605E+00
        -11   -1    0    0    0    0  0.00000000000E+00  0.00000000000E+00  0.45593999997E+02  0.45594000000E+02  0.51100000000E-03 0.  1.
         11   -1    0    0    0    0 -0.00000000000E+00 -0.00000000000E+00 -0.45593999997E+02  0.45594000000E+02  0.51100000000E-03 0. -1.
    9900012    2    1    2    0    0 -0.25262812806E+02  0.81122736508E+01 -0.17683385672E+02  0.59301939982E+02  0.49999992621E+02 0.  0.
        -12    1    1    2    0    0  0.25262812806E+02 -0.81122736508E+01  0.17683385672E+02  0.31886060018E+02  0.00000000000E+00 0.  1.
         11    1    3    3    0    0 -0.89619429782E+01  0.14739389901E+00 -0.20468525832E+01  0.91938975774E+01  0.51100000000E-03 0. -1.
        -11    1    3    3    0    0 -0.62617344496E+01 -0.74206803525E+01  0.12914392033E+02  0.16157268861E+02  0.51100000000E-03 0.  1.
        -12    1    3    3    0    0 -0.10039135379E+02  0.15385560104E+02 -0.28550925122E+02  0.33950773543E+02  0.00000000000E+00 0.  1.
</event>
<event>
 7    1  0.6515090E-012  0.5930193E+02  0.7816164E-02  0.1266605E+00
        -11   -1    0    0    0    0  0.00000000000E+00  0.00000000000E+00  0.45593999997E+02  0.45594000000E+02  0.51100000000E-03 0. -1.
         11   -1    0    0    0    0 -0.00000000000E+00 -0.00000000000E+00 -0.45593999997E+02  0.45594000000E+02  0.51100000000E-03 0.  1.
    9900012    2    1    2    0    0 -0.14488872917E+02 -0.25092827288E+02  0.13309549235E+02  0.59301929051E+02  0.49999972687E+02 0.  0.
        -12    1    1    2    0    0  0.14488872917E+02  0.25092827288E+02 -0.13309549235E+02  0.31886070949E+02  0.00000000000E+00 0.  1.
         11    1    3    3    0    0 -0.49960169694E+01 -0.35555075397E+01  0.12706493866E+01  0.62622974656E+01  0.51100000000E-03 0. -1.
        -11    1    3    3    0    0 -0.18592213716E+02 -0.20276829028E+02  0.24986831447E+02  0.37163987304E+02  0.51100000000E-03 0.  1.
        -12    1    3    3    0    0  0.90993577684E+01 -0.12604907197E+01 -0.12947931599E+02  0.15875644281E+02  0.00000000000E+00 0.  1.
</event>
<event>
 7    1  0.6515090E-012  0.5930184E+02  0.7816164E-02  0.1266605E+00
        -11   -1    0    0    0    0  0.00000000000E+00  0.00000000000E+00  0.45593999997E+02  0.45594000000E+02  0.51100000000E-03 0.  1.
         11   -1    0    0    0    0 -0.00000000000E+00 -0.00000000000E+00 -0.45593999997E+02  0.45594000000E+02  0.51100000000E-03 0. -1.
    9900012    2    1    2    0    0 -0.26216417401E+02  0.76450293018E+00 -0.18134001828E+02  0.59301842684E+02  0.49999815173E+02 0.  0.
        -12    1    1    2    0    0  0.26216417401E+02 -0.76450293018E+00  0.18134001828E+02  0.31886157316E+02  0.00000000000E+00 0.  1.
         11    1    3    3    0    0 -0.12452170341E+01 -0.10744339766E+01 -0.15463827111E+02  0.15551042506E+02  0.51100000000E-03 0. -1.
        -11    1    3    3    0    0 -0.43476416962E-01 -0.82236916963E+01 -0.12639713056E+02  0.15079567026E+02  0.51100000000E-03 0.  1.
         12    1    3    3    0    0 -0.24927723950E+02  0.10062628603E+02  0.99695383391E+01  0.28671233152E+02  0.00000000000E+00 0. -1.
</event>
<event>
 7    1  0.6515090E-012  0.5930193E+02  0.7816164E-02  0.1266605E+00
        -11   -1    0    0    0    0  0.00000000000E+00  0.00000000000E+00  0.45593999997E+02  0.45594000000E+02  0.51100000000E-03 0. -1.
         11   -1    0    0    0    0 -0.00000000000E+00 -0.00000000000E+00 -0.45593999997E+02  0.45594000000E+02  0.51100000000E-03 0.  1.
    9900012    2    1    2    0    0 -0.24334889784E+01  0.22939148966E+02  0.22013512739E+02  0.59301934595E+02  0.49999982797E+02 0.  0.
        -12    1    1    2    0    0  0.24334889784E+01 -0.22939148966E+02 -0.22013512739E+02  0.31886065405E+02  0.00000000000E+00 0.  1.
         11    1    3    3    0    0  0.68697000461E+00 -0.63063052723E+01 -0.23437790986E+01  0.67627446129E+01  0.51100000000E-03 0. -1.
        -11    1    3    3    0    0  0.13476362398E+02  0.13604078052E+01  0.35903489619E+01  0.14012624979E+02  0.51100000000E-03 0.  1.
         12    1    3    3    0    0 -0.16596821381E+02  0.27885046433E+02  0.20766942875E+02  0.38526565003E+02  0.00000000000E+00 0. -1.
</event>
<event>
 7    1  0.6515090E-012  0.5930194E+02  0.7816164E-02  0.1266605E+00
        -11   -1    0    0    0    0  0.00000000000E+00  0.00000000000E+00  0.45593999997E+02  0.45594000000E+02  0.51100000000E-03 0. -1.
         11   -1    0    0    0    0 -0.00000000000E+00 -0.00000000000E+00 -0.45593999997E+02  0.45594000000E+02  0.51100000000E-03 0.  1.
    9900012    2    1    2    0    0 -0.85509591699E+01 -0.28915928874E+02  0.10366834855E+02  0.59301935484E+02  0.49999984419E+02 0.  0.
        -12    1    1    2    0    0  0.85509591699E+01  0.28915928874E+02 -0.10366834855E+02  0.31886064516E+02  0.00000000000E+00 0.  1.
         11    1    3    3    0    0 -0.19265063549E+02 -0.11647629739E+02  0.45704365684E+01  0.22971696558E+02  0.51100000000E-03 0. -1.
        -11    1    3    3    0    0 -0.52794397632E+01  0.41555352736E+01  0.68224173746E+01  0.95752982574E+01  0.51100000000E-03 0.  1.
        -12    1    3    3    0    0  0.15993544142E+02 -0.21423834409E+02 -0.10260190881E+01  0.26754940669E+02  0.00000000000E+00 0.  1.
</event>
<event>
 7    1  0.6515090E-012  0.5930222E+02  0.7816164E-02  0.1266604E+00
        -11   -1    0    0    0    0  0.00000000000E+00  0.00000000000E+00  0.45593999997E+02  0.45594000000E+02  0.51100000000E-03 0. -1.
         11   -1    0    0    0    0 -0.00000000000E+00 -0.00000000000E+00 -0.45593999997E+02  0.45594000000E+02  0.51100000000E-03 0.  1.
    9900012    2    1    2    0    0 -0.36987184362E+01  0.82882326055E+00  0.31659682037E+02  0.59302220525E+02  0.50000504262E+02 0.  0.
        -12    1    1    2    0    0  0.36987184362E+01 -0.82882326055E+00 -0.31659682037E+02  0.31885779475E+02  0.00000000000E+00 0.  1.
         11    1    3    3    0    0  0.88684062487E+01  0.19120466218E+02  0.23124779748E+02  0.31288916511E+02  0.51100000000E-03 0. -1.
        -11    1    3    3    0    0  0.14608709635E+01  0.81431759073E-01 -0.21070260231E+01  0.25652161754E+01  0.51100000000E-03 0.  1.
         12    1    3    3    0    0 -0.14027995648E+02 -0.18373074716E+02  0.10641928312E+02  0.25448087839E+02  0.00000000000E+00 0. -1.
</event>
<event>
 7    1  0.6515090E-012  0.5930194E+02  0.7816164E-02  0.1266605E+00
        -11   -1    0    0    0    0  0.00000000000E+00  0.00000000000E+00  0.45593999997E+02  0.45594000000E+02  0.51100000000E-03 0. -1.
         11   -1    0    0    0    0 -0.00000000000E+00 -0.00000000000E+00 -0.45593999997E+02  0.45594000000E+02  0.51100000000E-03 0.  1.
    9900012    2    1    2    0    0 -0.28656986620E+02  0.12267891402E+02 -0.67079741765E+01  0.59301937854E+02  0.49999988741E+02 0.  0.
        -12    1    1    2    0    0  0.28656986620E+02 -0.12267891402E+02  0.67079741765E+01  0.31886062146E+02  0.00000000000E+00 0.  1.
         11    1    3    3    0    0 -0.16943935891E+02 -0.30085424561E+01 -0.84867738192E+01  0.19187850878E+02  0.51100000000E-03 0. -1.
        -11    1    3    3    0    0 -0.23466050046E+02  0.75976017363E+01  0.61308388655E+01  0.25415865958E+02  0.51100000000E-03 0.  1.
        -12    1    3    3    0    0  0.11752999317E+02  0.76788321217E+01 -0.43520392228E+01  0.14698221018E+02  0.00000000000E+00 0.  1.
</event>
<event>
 7    1  0.6515090E-012  0.5930194E+02  0.7816164E-02  0.1266605E+00
        -11   -1    0    0    0    0  0.00000000000E+00  0.00000000000E+00  0.45593999997E+02  0.45594000000E+02  0.51100000000E-03 0.  1.
         11   -1    0    0    0    0 -0.00000000000E+00 -0.00000000000E+00 -0.45593999997E+02  0.45594000000E+02  0.51100000000E-03 0. -1.
    9900012    2    1    2    0    0  0.25115834218E+02 -0.17318148572E+02  0.92734743474E+01  0.59301941528E+02  0.49999995441E+02 0.  0.
        -12    1    1    2    0    0 -0.25115834218E+02  0.17318148572E+02 -0.92734743474E+01  0.31886058472E+02  0.00000000000E+00 0.  1.
         11    1    3    3    0    0  0.20550012850E+02 -0.90022672528E+01 -0.14030970266E+02  0.26461518677E+02  0.51100000000E-03 0. -1.
        -11    1    3    3    0    0  0.97894439179E+01 -0.94363859970E+01  0.62423401929E+01  0.14961463974E+02  0.51100000000E-03 0.  1.
        -12    1    3    3    0    0 -0.52236225499E+01  0.11205046781E+01  0.17062104420E+02  0.17878958877E+02  0.00000000000E+00 0.  1.
</event>
<event>
 7    1  0.6515090E-012  0.5930195E+02  0.7816164E-02  0.1266605E+00
        -11   -1    0    0    0    0  0.00000000000E+00  0.00000000000E+00  0.45593999997E+02  0.45594000000E+02  0.51100000000E-03 0.  1.
         11   -1    0    0    0    0 -0.00000000000E+00 -0.00000000000E+00 -0.45593999997E+02  0.45594000000E+02  0.51100000000E-03 0. -1.
    9900012    2    1    2    0    0  0.28073621164E+02 -0.14539698835E+02 -0.41459954150E+01  0.59301947792E+02  0.50000006865E+02 0.  0.
        -12    1    1    2    0    0 -0.28073621164E+02  0.14539698835E+02  0.41459954150E+01  0.31886052208E+02  0.00000000000E+00 0.  1.
         11    1    3    3    0    0  0.20451145260E+02 -0.20319006886E+01 -0.16073113563E+02  0.26090667732E+02  0.51100000000E-03 0. -1.
        -11    1    3    3    0    0 -0.15078926791E+01 -0.13651494239E+02 -0.44404210362E+01  0.14434485600E+02  0.51100000000E-03 0.  1.
        -12    1    3    3    0    0  0.91303685833E+01  0.11436960930E+01  0.16367539185E+02  0.18776794460E+02  0.00000000000E+00 0.  1.
</event>
<event>
 7    1  0.6515090E-012  0.5930191E+02  0.7816164E-02  0.1266605E+00
        -11   -1    0    0    0    0  0.00000000000E+00  0.00000000000E+00  0.45593999997E+02  0.45594000000E+02  0.51100000000E-03 0. -1.
         11   -1    0    0    0    0 -0.00000000000E+00 -0.00000000000E+00 -0.45593999997E+02  0.45594000000E+02  0.51100000000E-03 0.  1.
    9900012    2    1    2    0    0 -0.23554290277E+02  0.19218162147E+02  0.96218724000E+01  0.59301909377E+02  0.49999936805E+02 0.  0.
        -12    1    1    2    0    0  0.23554290277E+02 -0.19218162147E+02 -0.96218724000E+01  0.31886090623E+02  0.00000000000E+00 0.  1.
         11    1    3    3    0    0 -0.10805194844E+02  0.55212618765E+01  0.10755291257E+02  0.16214587833E+02  0.51100000000E-03 0. -1.
        -11    1    3    3    0    0 -0.26601182035E+02  0.61713391308E+01 -0.80943088887E+00  0.27319653932E+02  0.51100000000E-03 0.  1.
         12    1    3    3    0    0  0.13852086602E+02  0.75255611397E+01 -0.32398796819E+00  0.15767667612E+02  0.00000000000E+00 0. -1.
</event>
<event>
 7    1  0.6515090E-012  0.5930189E+02  0.7816164E-02  0.1266605E+00
        -11   -1    0    0    0    0  0.00000000000E+00  0.00000000000E+00  0.45593999997E+02  0.45594000000E+02  0.51100000000E-03 0. -1.
         11   -1    0    0    0    0 -0.00000000000E+00 -0.00000000000E+00 -0.45593999997E+02  0.45594000000E+02  0.51100000000E-03 0.  1.
    9900012    2    1    2    0    0 -0.11097843142E+02 -0.44278437174E+01  0.29562744884E+02  0.59301893190E+02  0.49999907284E+02 0.  0.
        -12    1    1    2    0    0  0.11097843142E+02  0.44278437174E+01 -0.29562744884E+02  0.31886106810E+02  0.00000000000E+00 0.  1.
         11    1    3    3    0    0  0.12318794464E+02  0.39444884647E+01  0.67284674312E+01  0.14580259275E+02  0.51100000000E-03 0. -1.
        -11    1    3    3    0    0 -0.98461349682E+01  0.10340193703E+02  0.13938588230E+02  0.19953701956E+02  0.51100000000E-03 0.  1.
        -12    1    3    3    0    0 -0.13570502637E+02 -0.18712525885E+02  0.88956892231E+01  0.24767931960E+02  0.00000000000E+00 0.  1.
</event>
<event>
 7    1  0.6515090E-012  0.5930194E+02  0.7816164E-02  0.1266605E+00
        -11   -1    0    0    0    0  0.00000000000E+00  0.00000000000E+00  0.45593999997E+02  0.45594000000E+02  0.51100000000E-03 0.  1.
         11   -1    0    0    0    0 -0.00000000000E+00 -0.00000000000E+00 -0.45593999997E+02  0.45594000000E+02  0.51100000000E-03 0. -1.
    9900012    2    1    2    0    0 -0.15897493294E+02 -0.16541983134E+02 -0.22143922197E+02  0.59301940518E+02  0.49999993599E+02 0.  0.
        -12    1    1    2    0    0  0.15897493294E+02  0.16541983134E+02  0.22143922197E+02  0.31886059482E+02  0.00000000000E+00 0.  1.
         11    1    3    3    0    0 -0.66559954193E+01  0.30627909662E+01 -0.19450846158E+02  0.20785051842E+02  0.51100000000E-03 0. -1.
        -11    1    3    3    0    0  0.83577134311E+01  0.26222223190E+01 -0.49762277693E+01  0.10074237776E+02  0.51100000000E-03 0.  1.
        -12    1    3    3    0    0 -0.17599211306E+02 -0.22226996419E+02  0.22831517312E+01  0.28442650900E+02  0.00000000000E+00 0.  1.
</event>
<event>
 7    1  0.6515090E-012  0.5930199E+02  0.7816164E-02  0.1266605E+00
        -11   -1    0    0    0    0  0.00000000000E+00  0.00000000000E+00  0.45593999997E+02  0.45594000000E+02  0.51100000000E-03 0.  1.
         11   -1    0    0    0    0 -0.00000000000E+00 -0.00000000000E+00 -0.45593999997E+02  0.45594000000E+02  0.51100000000E-03 0. -1.
    9900012    2    1    2    0    0 -0.23928801973E+02 -0.11506989724E+02 -0.17655574835E+02  0.59301988974E+02  0.50000081972E+02 0.  0.
        -12    1    1    2    0    0  0.23928801973E+02  0.11506989724E+02  0.17655574835E+02  0.31886011026E+02  0.00000000000E+00 0.  1.
         11    1    3    3    0    0 -0.45552095437E+01 -0.14473969955E+01  0.20940512777E+01  0.52182317948E+01  0.51100000000E-03 0. -1.
        -11    1    3    3    0    0  0.29842920202E+01  0.13751157947E+02  0.28606042548E+01  0.14359087740E+02  0.51100000000E-03 0.  1.
         12    1    3    3    0    0 -0.22357884450E+02 -0.23810750676E+02 -0.22610230367E+02  0.39724669440E+02  0.00000000000E+00 0. -1.
</event>
<event>
 7    1  0.6515090E-012  0.5930194E+02  0.7816164E-02  0.1266605E+00
        -11   -1    0    0    0    0  0.00000000000E+00  0.00000000000E+00  0.45593999997E+02  0.45594000000E+02  0.51100000000E-03 0.  1.
         11   -1    0    0    0    0 -0.00000000000E+00 -0.00000000000E+00 -0.45593999997E+02  0.45594000000E+02  0.51100000000E-03 0. -1.
    9900012    2    1    2    0    0 -0.80776393283E+00  0.15639225928E+02 -0.27775584703E+02  0.59301937594E+02  0.49999988266E+02 0.  0.
        -12    1    1    2    0    0  0.80776393283E+00 -0.15639225928E+02  0.27775584703E+02  0.31886062406E+02  0.00000000000E+00 0.  1.
         11    1    3    3    0    0  0.76321518022E+01  0.20843944989E+02 -0.12503983306E+02  0.25476840122E+02  0.51100000000E-03 0.  1.
        -11    1    3    3    0    0  0.48198991763E+01  0.88629103023E+01 -0.89483192187E+01  0.13485363332E+02  0.51100000000E-03 0. -1.
        -12    1    3    3    0    0 -0.13259814911E+02 -0.14067629363E+02 -0.63232821782E+01  0.20339734140E+02  0.00000000000E+00 0.  1.
</event>
<event>
 7    1  0.6515090E-012  0.5930192E+02  0.7816164E-02  0.1266605E+00
        -11   -1    0    0    0    0  0.00000000000E+00  0.00000000000E+00  0.45593999997E+02  0.45594000000E+02  0.51100000000E-03 0.  1.
         11   -1    0    0    0    0 -0.00000000000E+00 -0.00000000000E+00 -0.45593999997E+02  0.45594000000E+02  0.51100000000E-03 0. -1.
    9900012    2    1    2    0    0 -0.23827312299E+02 -0.20528362581E+02 -0.52505036828E+01  0.59301917290E+02  0.49999951237E+02 0.  0.
        -12    1    1    2    0    0  0.23827312299E+02  0.20528362581E+02  0.52505036828E+01  0.31886082710E+02  0.00000000000E+00 0.  1.
         11    1    3    3    0    0  0.66964411214E+01  0.23172245571E+01  0.25034831473E+01  0.75152698868E+01  0.51100000000E-03 0. -1.
        -11    1    3    3    0    0 -0.86591856459E+01 -0.26774428400E+02  0.34392774586E+00  0.28141957976E+02  0.51100000000E-03 0.  1.
         12    1    3    3    0    0 -0.21864567774E+02  0.39288412616E+01 -0.80979145760E+01  0.23644689427E+02  0.00000000000E+00 0. -1.
</event>
<event>
 7    1  0.6515090E-012  0.5930198E+02  0.7816164E-02  0.1266605E+00
        -11   -1    0    0    0    0  0.00000000000E+00  0.00000000000E+00  0.45593999997E+02  0.45594000000E+02  0.51100000000E-03 0.  1.
         11   -1    0    0    0    0 -0.00000000000E+00 -0.00000000000E+00 -0.45593999997E+02  0.45594000000E+02  0.51100000000E-03 0. -1.
    9900012    2    1    2    0    0  0.27417903649E+02  0.14219562776E+02  0.79234425034E+01  0.59301978812E+02  0.50000063439E+02 0.  0.
        -12    1    1    2    0    0 -0.27417903649E+02 -0.14219562776E+02 -0.79234425034E+01  0.31886021188E+02  0.00000000000E+00 0.  1.
         11    1    3    3    0    0  0.78150854344E+01  0.43429737961E+01 -0.11023483815E+02  0.14193455443E+02  0.51100000000E-03 0.  1.
        -11    1    3    3    0    0 -0.87250281428E+01  0.72505325536E+01  0.81786615097E+00  0.11373884284E+02  0.51100000000E-03 0. -1.
        -12    1    3    3    0    0  0.28327846358E+02  0.26260564263E+01  0.18129060168E+02  0.33734639085E+02  0.00000000000E+00 0.  1.
</event>
<event>
 7    1  0.6515090E-012  0.5930196E+02  0.7816164E-02  0.1266605E+00
        -11   -1    0    0    0    0  0.00000000000E+00  0.00000000000E+00  0.45593999997E+02  0.45594000000E+02  0.51100000000E-03 0. -1.
         11   -1    0    0    0    0 -0.00000000000E+00 -0.00000000000E+00 -0.45593999997E+02  0.45594000000E+02  0.51100000000E-03 0.  1.
    9900012    2    1    2    0    0  0.22006376514E+01 -0.15742660078E+02  0.27641374874E+02  0.59301956700E+02  0.50000023112E+02 0.  0.
        -12    1    1    2    0    0 -0.22006376514E+01  0.15742660078E+02 -0.27641374874E+02  0.31886043300E+02  0.00000000000E+00 0.  1.
         11    1    3    3    0    0  0.77647157670E+01  0.13010795717E+02  0.11952584779E+02  0.19298598376E+02  0.51100000000E-03 0. -1.
        -11    1    3    3    0    0 -0.90203517373E+00  0.31659822125E+01 -0.13068811265E+01  0.35418991183E+01  0.51100000000E-03 0.  1.
         12    1    3    3    0    0 -0.46620429420E+01 -0.31919438008E+02  0.16995671222E+02  0.36461459206E+02  0.00000000000E+00 0. -1.
</event>
<event>
 7    1  0.6515090E-012  0.5930195E+02  0.7816164E-02  0.1266605E+00
        -11   -1    0    0    0    0  0.00000000000E+00  0.00000000000E+00  0.45593999997E+02  0.45594000000E+02  0.51100000000E-03 0.  1.
         11   -1    0    0    0    0 -0.00000000000E+00 -0.00000000000E+00 -0.45593999997E+02  0.45594000000E+02  0.51100000000E-03 0. -1.
    9900012    2    1    2    0    0  0.21459925531E+01 -0.28108229900E+02  0.14901092202E+02  0.59301946293E+02  0.50000004132E+02 0.  0.
        -12    1    1    2    0    0 -0.21459925531E+01  0.28108229900E+02 -0.14901092202E+02  0.31886053707E+02  0.00000000000E+00 0.  1.
         11    1    3    3    0    0  0.65585461356E+01 -0.71321456688E+01 -0.16587172130E+01  0.98302274799E+01  0.51100000000E-03 0. -1.
        -11    1    3    3    0    0 -0.86267610444E+01 -0.32755149920E+02  0.98477767496E+01  0.35274630537E+02  0.51100000000E-03 0.  1.
        -12    1    3    3    0    0  0.42142074619E+01  0.11779065688E+02  0.67120326656E+01  0.14197088276E+02  0.00000000000E+00 0.  1.
</event>
<event>
 7    1  0.6515090E-012  0.5930196E+02  0.7816164E-02  0.1266605E+00
        -11   -1    0    0    0    0  0.00000000000E+00  0.00000000000E+00  0.45593999997E+02  0.45594000000E+02  0.51100000000E-03 0.  1.
         11   -1    0    0    0    0 -0.00000000000E+00 -0.00000000000E+00 -0.45593999997E+02  0.45594000000E+02  0.51100000000E-03 0. -1.
    9900012    2    1    2    0    0  0.27153107607E+02  0.16293054412E+02  0.37369156261E+01  0.59301962096E+02  0.50000032952E+02 0.  0.
        -12    1    1    2    0    0 -0.27153107607E+02 -0.16293054412E+02 -0.37369156261E+01  0.31886037904E+02  0.00000000000E+00 0.  1.
         11    1    3    3    0    0  0.41666370236E+01  0.10161868686E+02 -0.79465370024E+01  0.13556249108E+02  0.51100000000E-03 0. -1.
        -11    1    3    3    0    0  0.46865460825E+01  0.88029214001E+01  0.22294891763E+02  0.24423704435E+02  0.51100000000E-03 0.  1.
         12    1    3    3    0    0  0.18299924501E+02 -0.26717356734E+01 -0.10611439134E+02  0.21322008553E+02  0.00000000000E+00 0. -1.
</event>
<event>
 7    1  0.6515090E-012  0.5930190E+02  0.7816164E-02  0.1266605E+00
        -11   -1    0    0    0    0  0.00000000000E+00  0.00000000000E+00  0.45593999997E+02  0.45594000000E+02  0.51100000000E-03 0. -1.
         11   -1    0    0    0    0 -0.00000000000E+00 -0.00000000000E+00 -0.45593999997E+02  0.45594000000E+02  0.51100000000E-03 0.  1.
    9900012    2    1    2    0    0  0.16643656553E+02  0.22197707117E+02  0.15715395370E+02  0.59301903401E+02  0.49999925906E+02 0.  0.
        -12    1    1    2    0    0 -0.16643656553E+02 -0.22197707117E+02 -0.15715395370E+02  0.31886096599E+02  0.00000000000E+00 0.  1.
         11    1    3    3    0    0  0.17109503209E+02 -0.32941110443E+01 -0.17486908752E+01  0.17511258883E+02  0.51100000000E-03 0. -1.
        -11    1    3    3    0    0  0.78381840806E+01  0.14245797725E+01 -0.36045151140E+01  0.87440886705E+01  0.51100000000E-03 0.  1.
         12    1    3    3    0    0 -0.83040307367E+01  0.24067238389E+02  0.21068601359E+02  0.33046555847E+02  0.00000000000E+00 0. -1.
</event>
<event>
 7    1  0.6515090E-012  0.5930181E+02  0.7816164E-02  0.1266605E+00
        -11   -1    0    0    0    0  0.00000000000E+00  0.00000000000E+00  0.45593999997E+02  0.45594000000E+02  0.51100000000E-03 0. -1.
         11   -1    0    0    0    0 -0.00000000000E+00 -0.00000000000E+00 -0.45593999997E+02  0.45594000000E+02  0.51100000000E-03 0.  1.
    9900012    2    1    2    0    0  0.66813811162E+01  0.19788671602E+01  0.31115464231E+02  0.59301813600E+02  0.49999762130E+02 0.  0.
        -12    1    1    2    0    0 -0.66813811162E+01 -0.19788671602E+01 -0.31115464231E+02  0.31886186400E+02  0.00000000000E+00 0.  1.
         11    1    3    3    0    0 -0.56793371214E+01  0.34195481705E+01  0.70241058044E+01  0.96584803381E+01  0.51100000000E-03 0.  1.
        -11    1    3    3    0    0 -0.18558934514E+01 -0.18683034238E+02  0.31887967895E+01  0.19043858172E+02  0.51100000000E-03 0. -1.
         12    1    3    3    0    0  0.14216611689E+02  0.17242353228E+02  0.20902561637E+02  0.30599475089E+02  0.00000000000E+00 0. -1.
</event>
<event>
 7    1  0.6515090E-012  0.5930193E+02  0.7816164E-02  0.1266605E+00
        -11   -1    0    0    0    0  0.00000000000E+00  0.00000000000E+00  0.45593999997E+02  0.45594000000E+02  0.51100000000E-03 0.  1.
         11   -1    0    0    0    0 -0.00000000000E+00 -0.00000000000E+00 -0.45593999997E+02  0.45594000000E+02  0.51100000000E-03 0. -1.
    9900012    2    1    2    0    0  0.22003453574E+02  0.22939244241E+02 -0.25220560690E+01  0.59301926828E+02  0.49999968632E+02 0.  0.
        -12    1    1    2    0    0 -0.22003453574E+02 -0.22939244241E+02  0.25220560690E+01  0.31886073172E+02  0.00000000000E+00 0.  1.
         11    1    3    3    0    0  0.23499345002E+02  0.11822697499E+02 -0.38704468800E+01  0.26589015608E+02  0.51100000000E-03 0. -1.
        -11    1    3    3    0    0 -0.68031333190E+01  0.43056451539E+01 -0.13394274836E+02  0.15627789409E+02  0.51100000000E-03 0.  1.
        -12    1    3    3    0    0  0.53072418905E+01  0.68109015873E+01  0.14742665648E+02  0.17085121811E+02  0.00000000000E+00 0.  1.
</event>
<event>
 7    1  0.6515090E-012  0.5930195E+02  0.7816164E-02  0.1266605E+00
        -11   -1    0    0    0    0  0.00000000000E+00  0.00000000000E+00  0.45593999997E+02  0.45594000000E+02  0.51100000000E-03 0. -1.
         11   -1    0    0    0    0 -0.00000000000E+00 -0.00000000000E+00 -0.45593999997E+02  0.45594000000E+02  0.51100000000E-03 0.  1.
    9900012    2    1    2    0    0 -0.26453587928E+02  0.10040306847E+02 -0.14701025039E+02  0.59301949554E+02  0.50000010078E+02 0.  0.
        -12    1    1    2    0    0  0.26453587928E+02 -0.10040306847E+02  0.14701025039E+02  0.31886050446E+02  0.00000000000E+00 0.  1.
         11    1    3    3    0    0 -0.18789709716E+02  0.79308428545E+01 -0.20398583466E+02  0.28845340478E+02  0.51100000000E-03 0. -1.
        -11    1    3    3    0    0  0.63603116489E-01 -0.76347748594E+01 -0.86046069117E+01  0.11503612166E+02  0.51100000000E-03 0.  1.
         12    1    3    3    0    0 -0.77274813284E+01  0.97442388514E+01  0.14302165338E+02  0.18952996909E+02  0.00000000000E+00 0. -1.
</event>
<event>
 7    1  0.6515090E-012  0.5930192E+02  0.7816164E-02  0.1266605E+00
        -11   -1    0    0    0    0  0.00000000000E+00  0.00000000000E+00  0.45593999997E+02  0.45594000000E+02  0.51100000000E-03 0.  1.
         11   -1    0    0    0    0 -0.00000000000E+00 -0.00000000000E+00 -0.45593999997E+02  0.45594000000E+02  0.51100000000E-03 0. -1.
    9900012    2    1    2    0    0  0.96862123339E+01 -0.29719251022E+02 -0.62980444903E+01  0.59301922237E+02  0.49999960259E+02 0.  0.
        -12    1    1    2    0    0 -0.96862123339E+01  0.29719251022E+02  0.62980444903E+01  0.31886077763E+02  0.00000000000E+00 0.  1.
         11    1    3    3    0    0  0.18324691344E+02 -0.13339802546E+02 -0.14342583390E+02  0.26822646092E+02  0.51100000000E-03 0. -1.
        -11    1    3    3    0    0  0.48949858703E+01 -0.16318733845E+02  0.82823593855E+01  0.18943585675E+02  0.51100000000E-03 0.  1.
        -12    1    3    3    0    0 -0.13533464880E+02 -0.60714631812E-01 -0.23782048548E+00  0.13535690471E+02  0.00000000000E+00 0.  1.
</event>
<event>
 7    1  0.6515090E-012  0.5930196E+02  0.7816164E-02  0.1266605E+00
        -11   -1    0    0    0    0  0.00000000000E+00  0.00000000000E+00  0.45593999997E+02  0.45594000000E+02  0.51100000000E-03 0.  1.
         11   -1    0    0    0    0 -0.00000000000E+00 -0.00000000000E+00 -0.45593999997E+02  0.45594000000E+02  0.51100000000E-03 0. -1.
    9900012    2    1    2    0    0 -0.11903968468E+01 -0.37756026330E+01 -0.31639334309E+02  0.59301957671E+02  0.50000024883E+02 0.  0.
        -12    1    1    2    0    0  0.11903968468E+01  0.37756026330E+01  0.31639334309E+02  0.31886042329E+02  0.00000000000E+00 0.  1.
         11    1    3    3    0    0 -0.10340186963E+02 -0.67239998191E+01 -0.32728489651E+02  0.34975501070E+02  0.51100000000E-03 0. -1.
        -11    1    3    3    0    0  0.11575667524E+01  0.87439057757E+01 -0.72390248349E+01  0.11410492094E+02  0.51100000000E-03 0.  1.
         12    1    3    3    0    0  0.79922233640E+01 -0.57955085896E+01  0.83281801768E+01  0.12915964508E+02  0.00000000000E+00 0. -1.
</event>
<event>
 7    1  0.6515090E-012  0.5930194E+02  0.7816164E-02  0.1266605E+00
        -11   -1    0    0    0    0  0.00000000000E+00  0.00000000000E+00  0.45593999997E+02  0.45594000000E+02  0.51100000000E-03 0.  1.
         11   -1    0    0    0    0 -0.00000000000E+00 -0.00000000000E+00 -0.45593999997E+02  0.45594000000E+02  0.51100000000E-03 0. -1.
    9900012    2    1    2    0    0 -0.27018863889E+02 -0.85978647976E+01 -0.14586936343E+02  0.59301937263E+02  0.49999987664E+02 0.  0.
        -12    1    1    2    0    0  0.27018863889E+02  0.85978647976E+01  0.14586936343E+02  0.31886062737E+02  0.00000000000E+00 0.  1.
         11    1    3    3    0    0 -0.13205146763E+02 -0.13367396729E+01 -0.98000291495E+01  0.16498586169E+02  0.51100000000E-03 0. -1.
        -11    1    3    3    0    0  0.59896619563E+01 -0.18393531892E+02 -0.53775282158E+01  0.20077745784E+02  0.51100000000E-03 0.  1.
         12    1    3    3    0    0 -0.19803379083E+02  0.11132406767E+02  0.59062102189E+00  0.22725605310E+02  0.00000000000E+00 0. -1.
</event>
<event>
 7    1  0.6515090E-012  0.5930200E+02  0.7816164E-02  0.1266605E+00
        -11   -1    0    0    0    0  0.00000000000E+00  0.00000000000E+00  0.45593999997E+02  0.45594000000E+02  0.51100000000E-03 0.  1.
         11   -1    0    0    0    0 -0.00000000000E+00 -0.00000000000E+00 -0.45593999997E+02  0.45594000000E+02  0.51100000000E-03 0. -1.
    9900012    2    1    2    0    0  0.52614985333E+01 -0.30560401759E+02 -0.74226183976E+01  0.59302003287E+02  0.50000108074E+02 0.  0.
        -12    1    1    2    0    0 -0.52614985333E+01  0.30560401759E+02  0.74226183976E+01  0.31885996713E+02  0.00000000000E+00 0.  1.
         11    1    3    3    0    0 -0.61950164642E+01 -0.15460064622E+02 -0.22577586724E+02  0.28056002026E+02  0.51100000000E-03 0. -1.
        -11    1    3    3    0    0 -0.52066824567E+01 -0.40422380420E+01  0.82435850422E+00  0.66429509857E+01  0.51100000000E-03 0.  1.
         12    1    3    3    0    0  0.16663197454E+02 -0.11058099095E+02  0.14330609822E+02  0.24603050276E+02  0.00000000000E+00 0. -1.
</event>
<event>
 7    1  0.6515090E-012  0.5930222E+02  0.7816164E-02  0.1266604E+00
        -11   -1    0    0    0    0  0.00000000000E+00  0.00000000000E+00  0.45593999997E+02  0.45594000000E+02  0.51100000000E-03 0.  1.
         11   -1    0    0    0    0 -0.00000000000E+00 -0.00000000000E+00 -0.45593999997E+02  0.45594000000E+02  0.51100000000E-03 0. -1.
    9900012    2    1    2    0    0  0.84362912619E+01  0.54347717679E+01 -0.30265409132E+02  0.59302223479E+02  0.50000509649E+02 0.  0.
        -12    1    1    2    0    0 -0.84362912619E+01 -0.54347717679E+01  0.30265409132E+02  0.31885776521E+02  0.00000000000E+00 0.  1.
         11    1    3    3    0    0  0.18604272860E+02 -0.40048945529E+01 -0.13518520685E+02  0.23343276351E+02  0.51100000000E-03 0. -1.
        -11    1    3    3    0    0  0.22902674506E+01  0.70148084232E+01  0.62643288292E+01  0.96796011360E+01  0.51100000000E-03 0.  1.
         12    1    3    3    0    0 -0.12458249049E+02  0.24248578976E+01 -0.23011217277E+02  0.26279345992E+02  0.00000000000E+00 0. -1.
</event>
<event>
 7    1  0.6515090E-012  0.5930193E+02  0.7816164E-02  0.1266605E+00
        -11   -1    0    0    0    0  0.00000000000E+00  0.00000000000E+00  0.45593999997E+02  0.45594000000E+02  0.51100000000E-03 0.  1.
         11   -1    0    0    0    0 -0.00000000000E+00 -0.00000000000E+00 -0.45593999997E+02  0.45594000000E+02  0.51100000000E-03 0. -1.
    9900012    2    1    2    0    0  0.22362775700E+02 -0.53462278664E+01 -0.22091747162E+02  0.59301934359E+02  0.49999982367E+02 0.  0.
        -12    1    1    2    0    0 -0.22362775700E+02  0.53462278664E+01  0.22091747162E+02  0.31886065641E+02  0.00000000000E+00 0.  1.
         11    1    3    3    0    0 -0.99734168650E+01 -0.54798231448E+01 -0.11714683103E+02  0.16331910670E+02  0.51100000000E-03 0. -1.
        -11    1    3    3    0    0  0.66520582395E+01 -0.78473643436E+01  0.55736669027E+01  0.11700289268E+02  0.51100000000E-03 0.  1.
         12    1    3    3    0    0  0.25684134326E+02  0.79809596219E+01 -0.15950730962E+02  0.31269734421E+02  0.00000000000E+00 0. -1.
</event>
<event>
 7    1  0.6515090E-012  0.5930196E+02  0.7816164E-02  0.1266605E+00
        -11   -1    0    0    0    0  0.00000000000E+00  0.00000000000E+00  0.45593999997E+02  0.45594000000E+02  0.51100000000E-03 0. -1.
         11   -1    0    0    0    0 -0.00000000000E+00 -0.00000000000E+00 -0.45593999997E+02  0.45594000000E+02  0.51100000000E-03 0.  1.
    9900012    2    1    2    0    0  0.20362886707E+01 -0.23564132337E+02  0.21384679218E+02  0.59301963720E+02  0.50000035914E+02 0.  0.
        -12    1    1    2    0    0 -0.20362886707E+01  0.23564132337E+02 -0.21384679218E+02  0.31886036280E+02  0.00000000000E+00 0.  1.
         11    1    3    3    0    0 -0.11008148931E+02  0.47131753188E+00  0.80823184211E+01  0.13664748605E+02  0.51100000000E-03 0.  1.
        -11    1    3    3    0    0  0.91840045585E+01 -0.29513696313E+02  0.19468931337E+02  0.36530035552E+02  0.51100000000E-03 0. -1.
         12    1    3    3    0    0  0.38604330434E+01  0.54782464436E+01 -0.61665705397E+01  0.91071795634E+01  0.00000000000E+00 0. -1.
</event>
<event>
 7    1  0.6515090E-012  0.5930196E+02  0.7816164E-02  0.1266605E+00
        -11   -1    0    0    0    0  0.00000000000E+00  0.00000000000E+00  0.45593999997E+02  0.45594000000E+02  0.51100000000E-03 0. -1.
         11   -1    0    0    0    0 -0.00000000000E+00 -0.00000000000E+00 -0.45593999997E+02  0.45594000000E+02  0.51100000000E-03 0.  1.
    9900012    2    1    2    0    0 -0.11594179984E+02 -0.11928597446E+02  0.27202996908E+02  0.59301960934E+02  0.50000030833E+02 0.  0.
        -12    1    1    2    0    0  0.11594179984E+02  0.11928597446E+02 -0.27202996908E+02  0.31886039066E+02  0.00000000000E+00 0.  1.
         11    1    3    3    0    0  0.99774270183E+01  0.44810022855E+01 -0.96969266243E+00  0.10980379570E+02  0.51100000000E-03 0. -1.
        -11    1    3    3    0    0  0.69690739577E+01 -0.33484940550E+01  0.40019894565E+01  0.87061084381E+01  0.51100000000E-03 0.  1.
         12    1    3    3    0    0 -0.28540680960E+02 -0.13061105677E+02  0.24170700114E+02  0.39615472926E+02  0.00000000000E+00 0. -1.
</event>
<event>
 7    1  0.6515090E-012  0.5930195E+02  0.7816164E-02  0.1266605E+00
        -11   -1    0    0    0    0  0.00000000000E+00  0.00000000000E+00  0.45593999997E+02  0.45594000000E+02  0.51100000000E-03 0.  1.
         11   -1    0    0    0    0 -0.00000000000E+00 -0.00000000000E+00 -0.45593999997E+02  0.45594000000E+02  0.51100000000E-03 0. -1.
    9900012    2    1    2    0    0  0.90417642812E+01 -0.30552852194E+02 -0.12206847797E+01  0.59301947409E+02  0.50000006166E+02 0.  0.
        -12    1    1    2    0    0 -0.90417642812E+01  0.30552852194E+02  0.12206847797E+01  0.31886052591E+02  0.00000000000E+00 0.  1.
         11    1    3    3    0    0  0.17482639621E+02 -0.14113302516E+02 -0.90864277775E+01  0.24236154110E+02  0.51100000000E-03 0. -1.
        -11    1    3    3    0    0 -0.97020064504E+01 -0.21370789429E+02 -0.24151413632E+01  0.23593907647E+02  0.51100000000E-03 0.  1.
        -12    1    3    3    0    0  0.12611311107E+01  0.49312397509E+01  0.10280884361E+02  0.11471885652E+02  0.00000000000E+00 0.  1.
</event>
<event>
 7    1  0.6515090E-012  0.5930202E+02  0.7816164E-02  0.1266605E+00
        -11   -1    0    0    0    0  0.00000000000E+00  0.00000000000E+00  0.45593999997E+02  0.45594000000E+02  0.51100000000E-03 0.  1.
         11   -1    0    0    0    0 -0.00000000000E+00 -0.00000000000E+00 -0.45593999997E+02  0.45594000000E+02  0.51100000000E-03 0. -1.
    9900012    2    1    2    0    0  0.13599488618E+02 -0.20076952333E+02 -0.20704730791E+02  0.59302015888E+02  0.50000131056E+02 0.  0.
        -12    1    1    2    0    0 -0.13599488618E+02  0.20076952333E+02  0.20704730791E+02  0.31885984112E+02  0.00000000000E+00 0.  1.
         11    1    3    3    0    0 -0.20557138012E+01 -0.21393518619E+01 -0.79319183665E+01  0.84686548433E+01  0.51100000000E-03 0. -1.
        -11    1    3    3    0    0  0.42969310939E+01 -0.16775136748E+02 -0.27316806176E+02  0.32343109462E+02  0.51100000000E-03 0.  1.
        -12    1    3    3    0    0  0.11358271325E+02 -0.11624637224E+01  0.14543993751E+02  0.18490251583E+02  0.00000000000E+00 0.  1.
</event>
<event>
 7    1  0.6515090E-012  0.5930194E+02  0.7816164E-02  0.1266605E+00
        -11   -1    0    0    0    0  0.00000000000E+00  0.00000000000E+00  0.45593999997E+02  0.45594000000E+02  0.51100000000E-03 0. -1.
         11   -1    0    0    0    0 -0.00000000000E+00 -0.00000000000E+00 -0.45593999997E+02  0.45594000000E+02  0.51100000000E-03 0.  1.
    9900012    2    1    2    0    0  0.51177803382E+01  0.30135363564E+02  0.90768434671E+01  0.59301938782E+02  0.49999990432E+02 0.  0.
        -12    1    1    2    0    0 -0.51177803382E+01 -0.30135363564E+02 -0.90768434671E+01  0.31886061218E+02  0.00000000000E+00 0.  1.
         11    1    3    3    0    0  0.23829737565E+01  0.13442268593E+02  0.11149321294E+02  0.17626131579E+02  0.51100000000E-03 0. -1.
        -11    1    3    3    0    0  0.27749269603E+01  0.17192860959E+02  0.15968351890E+02  0.23628011976E+02  0.51100000000E-03 0.  1.
        -12    1    3    3    0    0 -0.40120378543E-01 -0.49976598869E+00 -0.18040829717E+02  0.18047795227E+02  0.00000000000E+00 0.  1.
</event>
<event>
 7    1  0.6515090E-012  0.5930194E+02  0.7816164E-02  0.1266605E+00
        -11   -1    0    0    0    0  0.00000000000E+00  0.00000000000E+00  0.45593999997E+02  0.45594000000E+02  0.51100000000E-03 0. -1.
         11   -1    0    0    0    0 -0.00000000000E+00 -0.00000000000E+00 -0.45593999997E+02  0.45594000000E+02  0.51100000000E-03 0.  1.
    9900012    2    1    2    0    0 -0.24331670034E+01 -0.27680221771E+02  0.15639875983E+02  0.59301941922E+02  0.49999996160E+02 0.  0.
        -12    1    1    2    0    0  0.24331670034E+01  0.27680221771E+02 -0.15639875983E+02  0.31886058078E+02  0.00000000000E+00 0.  1.
         11    1    3    3    0    0 -0.38763289573E+01 -0.14023235205E+02  0.10937939783E+02  0.18202076221E+02  0.51100000000E-03 0. -1.
        -11    1    3    3    0    0  0.12226521559E+01 -0.18129466465E+02  0.18896666569E+02  0.26215576291E+02  0.51100000000E-03 0.  1.
        -12    1    3    3    0    0  0.22050979804E+00  0.44724798982E+01 -0.14194730369E+02  0.14884289410E+02  0.00000000000E+00 0.  1.
</event>
<event>
 7    1  0.6515090E-012  0.5930194E+02  0.7816164E-02  0.1266605E+00
        -11   -1    0    0    0    0  0.00000000000E+00  0.00000000000E+00  0.45593999997E+02  0.45594000000E+02  0.51100000000E-03 0. -1.
         11   -1    0    0    0    0 -0.00000000000E+00 -0.00000000000E+00 -0.45593999997E+02  0.45594000000E+02  0.51100000000E-03 0.  1.
    9900012    2    1    2    0    0 -0.13310881957E+02  0.56157043486E+01  0.28425430763E+02  0.59301939913E+02  0.49999992496E+02 0.  0.
        -12    1    1    2    0    0  0.13310881957E+02 -0.56157043486E+01 -0.28425430763E+02  0.31886060087E+02  0.00000000000E+00 0.  1.
         11    1    3    3    0    0  0.61448707040E+00 -0.32235496498E+01  0.12002076570E+02  0.12442616644E+02  0.51100000000E-03 0. -1.
        -11    1    3    3    0    0 -0.25265308404E+02 -0.52150474689E+01  0.10516518290E+02  0.27859104186E+02  0.51100000000E-03 0.  1.
        -12    1    3    3    0    0  0.11339939377E+02  0.14054301467E+02  0.59068359031E+01  0.19000219083E+02  0.00000000000E+00 0.  1.
</event>
<event>
 7    1  0.6515090E-012  0.5930197E+02  0.7816164E-02  0.1266605E+00
        -11   -1    0    0    0    0  0.00000000000E+00  0.00000000000E+00  0.45593999997E+02  0.45594000000E+02  0.51100000000E-03 0.  1.
         11   -1    0    0    0    0 -0.00000000000E+00 -0.00000000000E+00 -0.45593999997E+02  0.45594000000E+02  0.51100000000E-03 0. -1.
    9900012    2    1    2    0    0 -0.85889672624E+01  0.19132005913E+02 -0.24019057488E+02  0.59301966513E+02  0.50000041008E+02 0.  0.
        -12    1    1    2    0    0  0.85889672624E+01 -0.19132005913E+02  0.24019057488E+02  0.31886033487E+02  0.00000000000E+00 0.  1.
         11    1    3    3    0    0 -0.12051836156E+02 -0.47595633054E-01  0.80989123184E+01  0.14520378820E+02  0.51100000000E-03 0. -1.
        -11    1    3    3    0    0  0.64342256157E+01  0.10928113585E+02 -0.13093718882E+01  0.12749014895E+02  0.51100000000E-03 0.  1.
         12    1    3    3    0    0 -0.29713567220E+01  0.82514879613E+01 -0.30808597918E+02  0.32032572798E+02  0.00000000000E+00 0. -1.
</event>
<event>
 7    1  0.6515090E-012  0.5930194E+02  0.7816164E-02  0.1266605E+00
        -11   -1    0    0    0    0  0.00000000000E+00  0.00000000000E+00  0.45593999997E+02  0.45594000000E+02  0.51100000000E-03 0. -1.
         11   -1    0    0    0    0 -0.00000000000E+00 -0.00000000000E+00 -0.45593999997E+02  0.45594000000E+02  0.51100000000E-03 0.  1.
    9900012    2    1    2    0    0  0.23587029075E+02 -0.21095383872E+02  0.39188682061E+01  0.59301942086E+02  0.49999996458E+02 0.  0.
        -12    1    1    2    0    0 -0.23587029075E+02  0.21095383872E+02 -0.39188682061E+01  0.31886057914E+02  0.00000000000E+00 0.  1.
         11    1    3    3    0    0  0.22214797074E+02 -0.49141603520E+01  0.13052845486E+02  0.26230191699E+02  0.51100000000E-03 0. -1.
        -11    1    3    3    0    0  0.95030338249E+01  0.13431422468E+01 -0.98329230143E+01  0.13740380571E+02  0.51100000000E-03 0.  1.
         12    1    3    3    0    0 -0.81308018241E+01 -0.17524365766E+02  0.69894573485E+00  0.19331369816E+02  0.00000000000E+00 0. -1.
</event>
<event>
 7    1  0.6515090E-012  0.5930194E+02  0.7816164E-02  0.1266605E+00
        -11   -1    0    0    0    0  0.00000000000E+00  0.00000000000E+00  0.45593999997E+02  0.45594000000E+02  0.51100000000E-03 0.  1.
         11   -1    0    0    0    0 -0.00000000000E+00 -0.00000000000E+00 -0.45593999997E+02  0.45594000000E+02  0.51100000000E-03 0. -1.
    9900012    2    1    2    0    0  0.93457602544E+01 -0.23628248096E+02 -0.19263521917E+02  0.59301943181E+02  0.49999998456E+02 0.  0.
        -12    1    1    2    0    0 -0.93457602544E+01  0.23628248096E+02  0.19263521917E+02  0.31886056819E+02  0.00000000000E+00 0.  1.
         11    1    3    3    0    0  0.19260615394E+01 -0.18786940859E+02 -0.10589251457E+02  0.21651584389E+02  0.51100000000E-03 0.  1.
        -11    1    3    3    0    0 -0.12279241044E+02 -0.96651403553E+01 -0.75055578821E+01  0.17335746251E+02  0.51100000000E-03 0. -1.
         12    1    3    3    0    0  0.19698939759E+02  0.48238331184E+01 -0.11687125784E+01  0.20314612540E+02  0.00000000000E+00 0. -1.
</event>
<event>
 7    1  0.6515090E-012  0.5930194E+02  0.7816164E-02  0.1266605E+00
        -11   -1    0    0    0    0  0.00000000000E+00  0.00000000000E+00  0.45593999997E+02  0.45594000000E+02  0.51100000000E-03 0. -1.
         11   -1    0    0    0    0 -0.00000000000E+00 -0.00000000000E+00 -0.45593999997E+02  0.45594000000E+02  0.51100000000E-03 0.  1.
    9900012    2    1    2    0    0 -0.19854582370E+02 -0.24857147094E+02  0.21537151127E+01  0.59301942051E+02  0.49999996395E+02 0.  0.
        -12    1    1    2    0    0  0.19854582370E+02  0.24857147094E+02 -0.21537151127E+01  0.31886057949E+02  0.00000000000E+00 0.  1.
         11    1    3    3    0    0 -0.79736317829E+01  0.54640242737E+01 -0.65008942656E+01  0.11648862244E+02  0.51100000000E-03 0. -1.
        -11    1    3    3    0    0 -0.23573256329E+01 -0.98782629477E+01 -0.12926284652E+02  0.16438549150E+02  0.51100000000E-03 0.  1.
         12    1    3    3    0    0 -0.95236249538E+01 -0.20442908420E+02  0.21580894030E+02  0.31214530656E+02  0.00000000000E+00 0. -1.
</event>
<event>
 7    1  0.6515090E-012  0.5930194E+02  0.7816164E-02  0.1266605E+00
        -11   -1    0    0    0    0  0.00000000000E+00  0.00000000000E+00  0.45593999997E+02  0.45594000000E+02  0.51100000000E-03 0.  1.
         11   -1    0    0    0    0 -0.00000000000E+00 -0.00000000000E+00 -0.45593999997E+02  0.45594000000E+02  0.51100000000E-03 0. -1.
    9900012    2    1    2    0    0  0.19103767167E+01  0.31801169723E+02  0.13253729651E+01  0.59301944295E+02  0.50000000487E+02 0.  0.
        -12    1    1    2    0    0 -0.19103767167E+01 -0.31801169723E+02 -0.13253729651E+01  0.31886055705E+02  0.00000000000E+00 0.  1.
         11    1    3    3    0    0  0.85349789902E+01  0.10245344377E+02 -0.27615903266E+01  0.13617610993E+02  0.51100000000E-03 0. -1.
        -11    1    3    3    0    0  0.14116923563E+02 -0.12010266271E+01  0.45787187640E+01  0.14889414415E+02  0.51100000000E-03 0.  1.
        -12    1    3    3    0    0 -0.20741525837E+02  0.22756851973E+02 -0.49175547227E+00  0.30794918886E+02  0.00000000000E+00 0.  1.
</event>
<event>
 7    1  0.6515090E-012  0.5930194E+02  0.7816164E-02  0.1266605E+00
        -11   -1    0    0    0    0  0.00000000000E+00  0.00000000000E+00  0.45593999997E+02  0.45594000000E+02  0.51100000000E-03 0. -1.
         11   -1    0    0    0    0 -0.00000000000E+00 -0.00000000000E+00 -0.45593999997E+02  0.45594000000E+02  0.51100000000E-03 0.  1.
    9900012    2    1    2    0    0 -0.26109259791E+02 -0.35072958831E+01 -0.17964575485E+02  0.59301944371E+02  0.50000000625E+02 0.  0.
        -12    1    1    2    0    0  0.26109259791E+02  0.35072958831E+01  0.17964575485E+02  0.31886055629E+02  0.00000000000E+00 0.  1.
         11    1    3    3    0    0 -0.96892492519E+01  0.39831198433E+01  0.82889400569E+01  0.13358642232E+02  0.51100000000E-03 0. -1.
        -11    1    3    3    0    0 -0.47056547904E+01  0.38766311356E+01  0.67671363733E+01  0.91085449400E+01  0.51100000000E-03 0.  1.
        -12    1    3    3    0    0 -0.11714355749E+02 -0.11367046862E+02 -0.33020651915E+02  0.36834757199E+02  0.00000000000E+00 0.  1.
</event>
<event>
 7    1  0.6515090E-012  0.5930197E+02  0.7816164E-02  0.1266605E+00
        -11   -1    0    0    0    0  0.00000000000E+00  0.00000000000E+00  0.45593999997E+02  0.45594000000E+02  0.51100000000E-03 0.  1.
         11   -1    0    0    0    0 -0.00000000000E+00 -0.00000000000E+00 -0.45593999997E+02  0.45594000000E+02  0.51100000000E-03 0. -1.
    9900012    2    1    2    0    0  0.91435381339E+01  0.22890407786E+02 -0.20227310605E+02  0.59301966184E+02  0.50000040407E+02 0.  0.
        -12    1    1    2    0    0 -0.91435381339E+01 -0.22890407786E+02  0.20227310605E+02  0.31886033816E+02  0.00000000000E+00 0.  1.
         11    1    3    3    0    0 -0.61356082642E+00 -0.25586836362E+01 -0.55034463077E+01  0.61001016680E+01  0.51100000000E-03 0. -1.
        -11    1    3    3    0    0  0.58421308773E+01 -0.11826243587E+02 -0.78634095230E+00  0.13213964694E+02  0.51100000000E-03 0.  1.
         12    1    3    3    0    0  0.39149680830E+01  0.37275335010E+02 -0.13937523345E+02  0.39987899822E+02  0.00000000000E+00 0. -1.
</event>
<event>
 7    1  0.6515090E-012  0.5930192E+02  0.7816164E-02  0.1266605E+00
        -11   -1    0    0    0    0  0.00000000000E+00  0.00000000000E+00  0.45593999997E+02  0.45594000000E+02  0.51100000000E-03 0. -1.
         11   -1    0    0    0    0 -0.00000000000E+00 -0.00000000000E+00 -0.45593999997E+02  0.45594000000E+02  0.51100000000E-03 0.  1.
    9900012    2    1    2    0    0  0.88366686611E+01 -0.27424395415E+02 -0.13657877586E+02  0.59301924715E+02  0.49999964778E+02 0.  0.
        -12    1    1    2    0    0 -0.88366686611E+01  0.27424395415E+02  0.13657877586E+02  0.31886075285E+02  0.00000000000E+00 0.  1.
         11    1    3    3    0    0  0.11553873308E+02 -0.81359162823E+01  0.47953476589E+01  0.14922482421E+02  0.51100000000E-03 0. -1.
        -11    1    3    3    0    0  0.42029836443E+01 -0.50195336820E+01 -0.26003746221E+02  0.26815212244E+02  0.51100000000E-03 0.  1.
         12    1    3    3    0    0 -0.69201882910E+01 -0.14268945451E+02  0.75505209757E+01  0.17564230050E+02  0.00000000000E+00 0. -1.
</event>
<event>
 7    1  0.6515090E-012  0.5930196E+02  0.7816164E-02  0.1266605E+00
        -11   -1    0    0    0    0  0.00000000000E+00  0.00000000000E+00  0.45593999997E+02  0.45594000000E+02  0.51100000000E-03 0. -1.
         11   -1    0    0    0    0 -0.00000000000E+00 -0.00000000000E+00 -0.45593999997E+02  0.45594000000E+02  0.51100000000E-03 0.  1.
    9900012    2    1    2    0    0 -0.34305913853E+00 -0.25996383506E+02  0.18460501362E+02  0.59301956728E+02  0.50000023163E+02 0.  0.
        -12    1    1    2    0    0  0.34305913853E+00  0.25996383506E+02 -0.18460501362E+02  0.31886043272E+02  0.00000000000E+00 0.  1.
         11    1    3    3    0    0  0.11545019185E+02 -0.16014376447E+02  0.21427747022E+02  0.29135820971E+02  0.51100000000E-03 0. -1.
        -11    1    3    3    0    0  0.14482822153E+01  0.44934841858E+01  0.67329299229E+01  0.82232151322E+01  0.51100000000E-03 0.  1.
        -12    1    3    3    0    0 -0.13336360539E+02 -0.14475491245E+02 -0.97001755829E+01  0.21942920625E+02  0.00000000000E+00 0.  1.
</event>
<event>
 7    1  0.6515090E-012  0.5930193E+02  0.7816164E-02  0.1266605E+00
        -11   -1    0    0    0    0  0.00000000000E+00  0.00000000000E+00  0.45593999997E+02  0.45594000000E+02  0.51100000000E-03 0. -1.
         11   -1    0    0    0    0 -0.00000000000E+00 -0.00000000000E+00 -0.45593999997E+02  0.45594000000E+02  0.51100000000E-03 0.  1.
    9900012    2    1    2    0    0  0.15291154300E+02  0.23613967920E+02 -0.15009420308E+02  0.59301928139E+02  0.49999971023E+02 0.  0.
        -12    1    1    2    0    0 -0.15291154300E+02 -0.23613967920E+02  0.15009420308E+02  0.31886071861E+02  0.00000000000E+00 0.  1.
         11    1    3    3    0    0  0.14199720535E+02  0.40450486787E+01 -0.21630449553E+02  0.26189135728E+02  0.51100000000E-03 0.  1.
        -11    1    3    3    0    0  0.38446118894E+01  0.24273372798E+02  0.51038448672E-01  0.24576010106E+02  0.51100000000E-03 0. -1.
        -12    1    3    3    0    0 -0.27531781241E+01 -0.47044535569E+01  0.65699907960E+01  0.85367823043E+01  0.00000000000E+00 0.  1.
</event>
<event>
 7    1  0.6515090E-012  0.5930192E+02  0.7816164E-02  0.1266605E+00
        -11   -1    0    0    0    0  0.00000000000E+00  0.00000000000E+00  0.45593999997E+02  0.45594000000E+02  0.51100000000E-03 0. -1.
         11   -1    0    0    0    0 -0.00000000000E+00 -0.00000000000E+00 -0.45593999997E+02  0.45594000000E+02  0.51100000000E-03 0.  1.
    9900012    2    1    2    0    0  0.21663713240E+02 -0.10555692944E+02  0.20880200785E+02  0.59301922949E+02  0.49999961558E+02 0.  0.
        -12    1    1    2    0    0 -0.21663713240E+02  0.10555692944E+02 -0.20880200785E+02  0.31886077051E+02  0.00000000000E+00 0.  1.
         11    1    3    3    0    0  0.65962203942E+01 -0.46172621504E+01 -0.97720698900E+01  0.12661855451E+02  0.51100000000E-03 0.  1.
        -11    1    3    3    0    0  0.15450870138E+02 -0.11900320348E+02  0.47701273928E+01  0.20077378514E+02  0.51100000000E-03 0. -1.
         12    1    3    3    0    0 -0.38337729262E+00  0.59618895544E+01  0.25882143282E+02  0.26562688985E+02  0.00000000000E+00 0. -1.
</event>
<event>
 7    1  0.6515090E-012  0.5930194E+02  0.7816164E-02  0.1266605E+00
        -11   -1    0    0    0    0  0.00000000000E+00  0.00000000000E+00  0.45593999997E+02  0.45594000000E+02  0.51100000000E-03 0.  1.
         11   -1    0    0    0    0 -0.00000000000E+00 -0.00000000000E+00 -0.45593999997E+02  0.45594000000E+02  0.51100000000E-03 0. -1.
    9900012    2    1    2    0    0 -0.30577902090E+02 -0.13723912785E+01  0.89347218560E+01  0.59301940214E+02  0.49999993044E+02 0.  0.
        -12    1    1    2    0    0  0.30577902090E+02  0.13723912785E+01 -0.89347218560E+01  0.31886059786E+02  0.00000000000E+00 0.  1.
         11    1    3    3    0    0 -0.29406992527E+02 -0.14642351302E+01  0.63850194989E+00  0.29450345992E+02  0.51100000000E-03 0.  1.
        -11    1    3    3    0    0 -0.13206113664E+02  0.45686743017E+01 -0.98342363563E+00  0.14008616822E+02  0.51100000000E-03 0. -1.
        -12    1    3    3    0    0  0.12035204101E+02 -0.44768304500E+01  0.92796435417E+01  0.15842977400E+02  0.00000000000E+00 0.  1.
</event>
<event>
 7    1  0.6515090E-012  0.5930200E+02  0.7816164E-02  0.1266605E+00
        -11   -1    0    0    0    0  0.00000000000E+00  0.00000000000E+00  0.45593999997E+02  0.45594000000E+02  0.51100000000E-03 0.  1.
         11   -1    0    0    0    0 -0.00000000000E+00 -0.00000000000E+00 -0.45593999997E+02  0.45594000000E+02  0.51100000000E-03 0. -1.
    9900012    2    1    2    0    0  0.11117392452E+02 -0.17498325818E+02 -0.24226615239E+02  0.59302004527E+02  0.50000110336E+02 0.  0.
        -12    1    1    2    0    0 -0.11117392452E+02  0.17498325818E+02  0.24226615239E+02  0.31885995473E+02  0.00000000000E+00 0.  1.
         11    1    3    3    0    0  0.66992990230E+01 -0.36209468029E+01 -0.10671164834E+02  0.13109752947E+02  0.51100000000E-03 0. -1.
        -11    1    3    3    0    0 -0.10889240575E+02 -0.15803766202E+02 -0.21515746511E+02  0.28831613459E+02  0.51100000000E-03 0.  1.
        -12    1    3    3    0    0  0.15307334004E+02  0.19263871871E+01  0.79602961054E+01  0.17360638122E+02  0.00000000000E+00 0.  1.
</event>
<event>
 7    1  0.6515090E-012  0.5930191E+02  0.7816164E-02  0.1266605E+00
        -11   -1    0    0    0    0  0.00000000000E+00  0.00000000000E+00  0.45593999997E+02  0.45594000000E+02  0.51100000000E-03 0.  1.
         11   -1    0    0    0    0 -0.00000000000E+00 -0.00000000000E+00 -0.45593999997E+02  0.45594000000E+02  0.51100000000E-03 0. -1.
    9900012    2    1    2    0    0 -0.82165870862E+01 -0.29176356260E+02 -0.98969899305E+01  0.59301914043E+02  0.49999945315E+02 0.  0.
        -12    1    1    2    0    0  0.82165870862E+01  0.29176356260E+02  0.98969899305E+01  0.31886085957E+02  0.00000000000E+00 0.  1.
         11    1    3    3    0    0  0.43102017166E+01 -0.19762248623E+02 -0.45769556736E+01  0.20738197438E+02  0.51100000000E-03 0. -1.
        -11    1    3    3    0    0 -0.84732401935E+01 -0.10398305457E+02  0.13651776795E+02  0.19138745144E+02  0.51100000000E-03 0.  1.
        -12    1    3    3    0    0 -0.40535486093E+01  0.98419782048E+00 -0.18971811052E+02  0.19424971461E+02  0.00000000000E+00 0.  1.
</event>
<event>
 7    1  0.6515090E-012  0.5930192E+02  0.7816164E-02  0.1266605E+00
        -11   -1    0    0    0    0  0.00000000000E+00  0.00000000000E+00  0.45593999997E+02  0.45594000000E+02  0.51100000000E-03 0.  1.
         11   -1    0    0    0    0 -0.00000000000E+00 -0.00000000000E+00 -0.45593999997E+02  0.45594000000E+02  0.51100000000E-03 0. -1.
    9900012    2    1    2    0    0  0.10027317697E+02  0.21509175763E+02 -0.21296257640E+02  0.59301916332E+02  0.49999949490E+02 0.  0.
        -12    1    1    2    0    0 -0.10027317697E+02 -0.21509175763E+02  0.21296257640E+02  0.31886083668E+02  0.00000000000E+00 0.  1.
         11    1    3    3    0    0  0.13309053050E+02  0.85334596848E+01 -0.13982449909E+01  0.15871544241E+02  0.51100000000E-03 0. -1.
        -11    1    3    3    0    0  0.12211689402E+02  0.18099747560E+02 -0.80775932430E+01  0.23280329307E+02  0.51100000000E-03 0.  1.
        -12    1    3    3    0    0 -0.15493424754E+02 -0.51240314824E+01 -0.11820419406E+02  0.20150042784E+02  0.00000000000E+00 0.  1.
</event>
<event>
 7    1  0.6515090E-012  0.5930192E+02  0.7816164E-02  0.1266605E+00
        -11   -1    0    0    0    0  0.00000000000E+00  0.00000000000E+00  0.45593999997E+02  0.45594000000E+02  0.51100000000E-03 0.  1.
         11   -1    0    0    0    0 -0.00000000000E+00 -0.00000000000E+00 -0.45593999997E+02  0.45594000000E+02  0.51100000000E-03 0. -1.
    9900012    2    1    2    0    0  0.14227759132E+02 -0.15224016311E+02 -0.24135496203E+02  0.59301921854E+02  0.49999959561E+02 0.  0.
        -12    1    1    2    0    0 -0.14227759132E+02  0.15224016311E+02  0.24135496203E+02  0.31886078146E+02  0.00000000000E+00 0.  1.
         11    1    3    3    0    0  0.13145973199E+02  0.57999922198E+01 -0.17351591282E+02  0.22528520621E+02  0.51100000000E-03 0. -1.
        -11    1    3    3    0    0 -0.99800241230E+00  0.22257064207E+01 -0.12504423892E+02  0.12740109694E+02  0.51100000000E-03 0.  1.
        -12    1    3    3    0    0  0.20797883453E+01 -0.23249714952E+02  0.57205189714E+01  0.24033291539E+02  0.00000000000E+00 0.  1.
</event>
<event>
 7    1  0.6515090E-012  0.5930192E+02  0.7816164E-02  0.1266605E+00
        -11   -1    0    0    0    0  0.00000000000E+00  0.00000000000E+00  0.45593999997E+02  0.45594000000E+02  0.51100000000E-03 0. -1.
         11   -1    0    0    0    0 -0.00000000000E+00 -0.00000000000E+00 -0.45593999997E+02  0.45594000000E+02  0.51100000000E-03 0.  1.
    9900012    2    1    2    0    0  0.15337307741E+01 -0.14424407582E+02  0.28395529323E+02  0.59301922322E+02  0.49999960414E+02 0.  0.
        -12    1    1    2    0    0 -0.15337307741E+01  0.14424407582E+02 -0.28395529323E+02  0.31886077678E+02  0.00000000000E+00 0.  1.
         11    1    3    3    0    0  0.10715683940E+02  0.60400055144E+01  0.18853165130E+02  0.22511094701E+02  0.51100000000E-03 0. -1.
        -11    1    3    3    0    0  0.80664532881E+01 -0.11445288186E+02  0.10187356758E+02  0.17316019412E+02  0.51100000000E-03 0.  1.
        -12    1    3    3    0    0 -0.17248406454E+02 -0.90191249106E+01 -0.64499256547E+00  0.19474808209E+02  0.00000000000E+00 0.  1.
</event>
<event>
 7    1  0.6515090E-012  0.5930195E+02  0.7816164E-02  0.1266605E+00
        -11   -1    0    0    0    0  0.00000000000E+00  0.00000000000E+00  0.45593999997E+02  0.45594000000E+02  0.51100000000E-03 0.  1.
         11   -1    0    0    0    0 -0.00000000000E+00 -0.00000000000E+00 -0.45593999997E+02  0.45594000000E+02  0.51100000000E-03 0. -1.
    9900012    2    1    2    0    0  0.18578329712E+02  0.10332500877E+02 -0.23765626243E+02  0.59301954463E+02  0.50000019031E+02 0.  0.
        -12    1    1    2    0    0 -0.18578329712E+02 -0.10332500877E+02  0.23765626243E+02  0.31886045537E+02  0.00000000000E+00 0.  1.
         11    1    3    3    0    0  0.10073098127E+02 -0.16997782680E+02 -0.15328235008E+02  0.25006933252E+02  0.51100000000E-03 0. -1.
        -11    1    3    3    0    0  0.81105356469E+01  0.33164182692E+01  0.22013410543E+00  0.87651513336E+01  0.51100000000E-03 0.  1.
        -12    1    3    3    0    0  0.39469593873E+00  0.24013865288E+02 -0.86575253404E+01  0.25529869878E+02  0.00000000000E+00 0.  1.
</event>
<event>
 7    1  0.6515090E-012  0.5930198E+02  0.7816164E-02  0.1266605E+00
        -11   -1    0    0    0    0  0.00000000000E+00  0.00000000000E+00  0.45593999997E+02  0.45594000000E+02  0.51100000000E-03 0.  1.
         11   -1    0    0    0    0 -0.00000000000E+00 -0.00000000000E+00 -0.45593999997E+02  0.45594000000E+02  0.51100000000E-03 0. -1.
    9900012    2    1    2    0    0 -0.30887120188E+02 -0.37037003972E+01  0.69990600509E+01  0.59301977486E+02  0.50000061021E+02 0.  0.
        -12    1    1    2    0    0  0.30887120188E+02  0.37037003972E+01 -0.69990600509E+01  0.31886022514E+02  0.00000000000E+00 0.  1.
         11    1    3    3    0    0 -0.13397508716E+02  0.19615823820E+01 -0.82383947316E+01  0.15849674863E+02  0.51100000000E-03 0. -1.
        -11    1    3    3    0    0 -0.18786960806E+02  0.88799055068E+01 -0.19824354927E+01  0.20874210617E+02  0.51100000000E-03 0.  1.
        -12    1    3    3    0    0  0.12973493342E+01 -0.14545188286E+02  0.17219890275E+02  0.22578092007E+02  0.00000000000E+00 0.  1.
</event>
<event>
 7    1  0.6515090E-012  0.5930191E+02  0.7816164E-02  0.1266605E+00
        -11   -1    0    0    0    0  0.00000000000E+00  0.00000000000E+00  0.45593999997E+02  0.45594000000E+02  0.51100000000E-03 0.  1.
         11   -1    0    0    0    0 -0.00000000000E+00 -0.00000000000E+00 -0.45593999997E+02  0.45594000000E+02  0.51100000000E-03 0. -1.
    9900012    2    1    2    0    0 -0.22106409940E+02 -0.12486386487E+02 -0.19290394431E+02  0.59301913296E+02  0.49999943953E+02 0.  0.
        -12    1    1    2    0    0  0.22106409940E+02  0.12486386487E+02  0.19290394431E+02  0.31886086704E+02  0.00000000000E+00 0.  1.
         11    1    3    3    0    0 -0.53440111192E+01  0.10411844731E+00 -0.13879673142E+02  0.14873285524E+02  0.51100000000E-03 0. -1.
        -11    1    3    3    0    0 -0.14482085915E+02  0.93870620009E+00 -0.19798521284E+02  0.24547778455E+02  0.51100000000E-03 0.  1.
        -12    1    3    3    0    0 -0.22803129057E+01 -0.13529211135E+02  0.14387799995E+02  0.19880849317E+02  0.00000000000E+00 0.  1.
</event>
<event>
 7    1  0.6515090E-012  0.5930195E+02  0.7816164E-02  0.1266605E+00
        -11   -1    0    0    0    0  0.00000000000E+00  0.00000000000E+00  0.45593999997E+02  0.45594000000E+02  0.51100000000E-03 0. -1.
         11   -1    0    0    0    0 -0.00000000000E+00 -0.00000000000E+00 -0.45593999997E+02  0.45594000000E+02  0.51100000000E-03 0.  1.
    9900012    2    1    2    0    0 -0.28737074831E+02 -0.64643547502E+01 -0.12211183868E+02  0.59301947192E+02  0.50000005771E+02 0.  0.
        -12    1    1    2    0    0  0.28737074831E+02  0.64643547502E+01  0.12211183868E+02  0.31886052808E+02  0.00000000000E+00 0.  1.
         11    1    3    3    0    0 -0.90564617950E+01 -0.15453814990E+02 -0.57254009786E+01  0.18804789672E+02  0.51100000000E-03 0. -1.
        -11    1    3    3    0    0  0.87788148358E+01  0.44633700509E+01 -0.62783223225E+01  0.11679323336E+02  0.51100000000E-03 0.  1.
         12    1    3    3    0    0 -0.28459427872E+02  0.45260901884E+01 -0.20746056685E+00  0.28817834185E+02  0.00000000000E+00 0. -1.
</event>
<event>
 7    1  0.6515090E-012  0.5930193E+02  0.7816164E-02  0.1266605E+00
        -11   -1    0    0    0    0  0.00000000000E+00  0.00000000000E+00  0.45593999997E+02  0.45594000000E+02  0.51100000000E-03 0. -1.
         11   -1    0    0    0    0 -0.00000000000E+00 -0.00000000000E+00 -0.45593999997E+02  0.45594000000E+02  0.51100000000E-03 0.  1.
    9900012    2    1    2    0    0  0.11354510658E+02 -0.28005825585E+02  0.10172030502E+02  0.59301931200E+02  0.49999976605E+02 0.  0.
        -12    1    1    2    0    0 -0.11354510658E+02  0.28005825585E+02 -0.10172030502E+02  0.31886068800E+02  0.00000000000E+00 0.  1.
         11    1    3    3    0    0  0.29424707149E+01 -0.26400060374E+02 -0.16341158919E+01  0.26613749392E+02  0.51100000000E-03 0. -1.
        -11    1    3    3    0    0  0.12328467302E+02 -0.12029404976E+02  0.11300957255E+01  0.17261946782E+02  0.51100000000E-03 0.  1.
         12    1    3    3    0    0 -0.39164273587E+01  0.10423639765E+02  0.10676050669E+02  0.15426235026E+02  0.00000000000E+00 0. -1.
</event>
<event>
 7    1  0.6515090E-012  0.5930195E+02  0.7816164E-02  0.1266605E+00
        -11   -1    0    0    0    0  0.00000000000E+00  0.00000000000E+00  0.45593999997E+02  0.45594000000E+02  0.51100000000E-03 0.  1.
         11   -1    0    0    0    0 -0.00000000000E+00 -0.00000000000E+00 -0.45593999997E+02  0.45594000000E+02  0.51100000000E-03 0. -1.
    9900012    2    1    2    0    0  0.20365591994E+02  0.16408179476E+02 -0.18241006065E+02  0.59301953001E+02  0.50000016364E+02 0.  0.
        -12    1    1    2    0    0 -0.20365591994E+02 -0.16408179476E+02  0.18241006065E+02  0.31886046999E+02  0.00000000000E+00 0.  1.
         11    1    3    3    0    0  0.14352120692E+02  0.70249164775E+01 -0.19707304405E+02  0.25371453782E+02  0.51100000000E-03 0. -1.
        -11    1    3    3    0    0  0.14889942459E+02  0.59257345129E+01 -0.10102598186E+02  0.18944318576E+02  0.51100000000E-03 0.  1.
        -12    1    3    3    0    0 -0.88764711567E+01  0.34575284857E+01  0.11568896525E+02  0.14986180642E+02  0.00000000000E+00 0.  1.
</event>
<event>
 7    1  0.6515090E-012  0.5930183E+02  0.7816164E-02  0.1266605E+00
        -11   -1    0    0    0    0  0.00000000000E+00  0.00000000000E+00  0.45593999997E+02  0.45594000000E+02  0.51100000000E-03 0. -1.
         11   -1    0    0    0    0 -0.00000000000E+00 -0.00000000000E+00 -0.45593999997E+02  0.45594000000E+02  0.51100000000E-03 0.  1.
    9900012    2    1    2    0    0  0.21524700267E+02 -0.20828722341E+02  0.10935237070E+02  0.59301830494E+02  0.49999792942E+02 0.  0.
        -12    1    1    2    0    0 -0.21524700267E+02  0.20828722341E+02 -0.10935237070E+02  0.31886169506E+02  0.00000000000E+00 0.  1.
         11    1    3    3    0    0  0.77919635109E+01  0.13467494478E+01  0.13860215909E+02  0.15957255865E+02  0.51100000000E-03 0. -1.
        -11    1    3    3    0    0  0.21622237112E+02 -0.34245245545E+01  0.31419353208E+01  0.22116063483E+02  0.51100000000E-03 0.  1.
        -12    1    3    3    0    0 -0.78895003559E+01 -0.18750947235E+02 -0.60669141599E+01  0.21228511146E+02  0.00000000000E+00 0.  1.
</event>
<event>
 7    1  0.6515090E-012  0.5930195E+02  0.7816164E-02  0.1266605E+00
        -11   -1    0    0    0    0  0.00000000000E+00  0.00000000000E+00  0.45593999997E+02  0.45594000000E+02  0.51100000000E-03 0.  1.
         11   -1    0    0    0    0 -0.00000000000E+00 -0.00000000000E+00 -0.45593999997E+02  0.45594000000E+02  0.51100000000E-03 0. -1.
    9900012    2    1    2    0    0  0.27562755903E+02  0.15211204809E+02  0.50629768640E+01  0.59301952904E+02  0.50000016188E+02 0.  0.
        -12    1    1    2    0    0 -0.27562755903E+02 -0.15211204809E+02 -0.50629768640E+01  0.31886047096E+02  0.00000000000E+00 0.  1.
         11    1    3    3    0    0  0.12398232227E+02  0.25605041150E+02  0.57541775868E+00  0.28454620020E+02  0.51100000000E-03 0. -1.
        -11    1    3    3    0    0  0.11747799692E+02  0.10167527458E+01  0.11952655244E+02  0.16790192119E+02  0.51100000000E-03 0.  1.
        -12    1    3    3    0    0  0.34167239842E+01 -0.11410589087E+02 -0.74650961391E+01  0.14057140764E+02  0.00000000000E+00 0.  1.
</event>
<event>
 7    1  0.6515090E-012  0.5930195E+02  0.7816164E-02  0.1266605E+00
        -11   -1    0    0    0    0  0.00000000000E+00  0.00000000000E+00  0.45593999997E+02  0.45594000000E+02  0.51100000000E-03 0.  1.
         11   -1    0    0    0    0 -0.00000000000E+00 -0.00000000000E+00 -0.45593999997E+02  0.45594000000E+02  0.51100000000E-03 0. -1.
    9900012    2    1    2    0    0  0.18910813417E+02 -0.17640384081E+02 -0.18652568411E+02  0.59301947831E+02  0.50000006936E+02 0.  0.
        -12    1    1    2    0    0 -0.18910813417E+02  0.17640384081E+02  0.18652568411E+02  0.31886052169E+02  0.00000000000E+00 0.  1.
         11    1    3    3    0    0  0.25487771738E+01  0.33382396347E+01 -0.16821658093E+02  0.17338059009E+02  0.51100000000E-03 0. -1.
        -11    1    3    3    0    0  0.28621698890E+01  0.41080782136E+01 -0.10959211346E+02  0.12048760794E+02  0.51100000000E-03 0.  1.
        -12    1    3    3    0    0  0.13499866354E+02 -0.25086701929E+02  0.91283010277E+01  0.29915128028E+02  0.00000000000E+00 0.  1.
</event>
<event>
 7    1  0.6515090E-012  0.5930193E+02  0.7816164E-02  0.1266605E+00
        -11   -1    0    0    0    0  0.00000000000E+00  0.00000000000E+00  0.45593999997E+02  0.45594000000E+02  0.51100000000E-03 0.  1.
         11   -1    0    0    0    0 -0.00000000000E+00 -0.00000000000E+00 -0.45593999997E+02  0.45594000000E+02  0.51100000000E-03 0. -1.
    9900012    2    1    2    0    0  0.50489533480E+01 -0.81111325280E+01 -0.30421029309E+02  0.59301930549E+02  0.49999975419E+02 0.  0.
        -12    1    1    2    0    0 -0.50489533480E+01  0.81111325280E+01  0.30421029309E+02  0.31886069451E+02  0.00000000000E+00 0.  1.
         11    1    3    3    0    0 -0.50648687882E+01  0.19440120096E+00  0.18537142333E+01  0.53969384273E+01  0.51100000000E-03 0. -1.
        -11    1    3    3    0    0  0.17768058593E+01 -0.31886224678E+01  0.99309364856E+01  0.10580541198E+02  0.51100000000E-03 0.  1.
         12    1    3    3    0    0  0.83370162769E+01 -0.51169112612E+01 -0.42205680028E+02  0.43324450924E+02  0.00000000000E+00 0. -1.
</event>
<event>
 7    1  0.6515090E-012  0.5930196E+02  0.7816164E-02  0.1266605E+00
        -11   -1    0    0    0    0  0.00000000000E+00  0.00000000000E+00  0.45593999997E+02  0.45594000000E+02  0.51100000000E-03 0.  1.
         11   -1    0    0    0    0 -0.00000000000E+00 -0.00000000000E+00 -0.45593999997E+02  0.45594000000E+02  0.51100000000E-03 0. -1.
    9900012    2    1    2    0    0  0.99198064132E+01 -0.26114319704E+02 -0.15373982454E+02  0.59301959333E+02  0.50000027914E+02 0.  0.
        -12    1    1    2    0    0 -0.99198064132E+01  0.26114319704E+02  0.15373982454E+02  0.31886040667E+02  0.00000000000E+00 0.  1.
         11    1    3    3    0    0  0.11087534236E+02 -0.27417828675E+02 -0.11206250923E+02  0.31626741923E+02  0.51100000000E-03 0. -1.
        -11    1    3    3    0    0 -0.32482514771E+01 -0.88992942894E+01  0.74661363581E+01  0.12061996886E+02  0.51100000000E-03 0.  1.
         12    1    3    3    0    0  0.20805236541E+01  0.10202803260E+02 -0.11633867890E+02  0.15613220524E+02  0.00000000000E+00 0. -1.
</event>
<event>
 7    1  0.6515090E-012  0.5930191E+02  0.7816164E-02  0.1266605E+00
        -11   -1    0    0    0    0  0.00000000000E+00  0.00000000000E+00  0.45593999997E+02  0.45594000000E+02  0.51100000000E-03 0.  1.
         11   -1    0    0    0    0 -0.00000000000E+00 -0.00000000000E+00 -0.45593999997E+02  0.45594000000E+02  0.51100000000E-03 0. -1.
    9900012    2    1    2    0    0 -0.12890152216E+02 -0.28641460220E+02  0.54984690010E+01  0.59301914805E+02  0.49999946705E+02 0.  0.
        -12    1    1    2    0    0  0.12890152216E+02  0.28641460220E+02 -0.54984690010E+01  0.31886085195E+02  0.00000000000E+00 0.  1.
         11    1    3    3    0    0  0.99969346232E+01 -0.13887314160E+02  0.39392970207E+01  0.17558879740E+02  0.51100000000E-03 0. -1.
        -11    1    3    3    0    0 -0.14738543752E+02 -0.10669822320E+01 -0.13357888733E+02  0.19919746853E+02  0.51100000000E-03 0.  1.
         12    1    3    3    0    0 -0.81485430867E+01 -0.13687163828E+02  0.14917060713E+02  0.21823288213E+02  0.00000000000E+00 0. -1.
</event>
<event>
 7    1  0.6515090E-012  0.5930196E+02  0.7816164E-02  0.1266605E+00
        -11   -1    0    0    0    0  0.00000000000E+00  0.00000000000E+00  0.45593999997E+02  0.45594000000E+02  0.51100000000E-03 0.  1.
         11   -1    0    0    0    0 -0.00000000000E+00 -0.00000000000E+00 -0.45593999997E+02  0.45594000000E+02  0.51100000000E-03 0. -1.
    9900012    2    1    2    0    0  0.65193798546E+01  0.20020099684E+02 -0.23946044599E+02  0.59301956706E+02  0.50000023121E+02 0.  0.
        -12    1    1    2    0    0 -0.65193798546E+01 -0.20020099684E+02  0.23946044599E+02  0.31886043294E+02  0.00000000000E+00 0.  1.
         11    1    3    3    0    0  0.13516682310E+02  0.12906118311E+02  0.25416136917E+01  0.18860763265E+02  0.51100000000E-03 0. -1.
        -11    1    3    3    0    0 -0.11625153340E+02 -0.53879192125E-01  0.99195159737E+00  0.11667521647E+02  0.51100000000E-03 0.  1.
         12    1    3    3    0    0  0.46278508845E+01  0.71678605653E+01 -0.27479609888E+02  0.28773671793E+02  0.00000000000E+00 0. -1.
</event>
<event>
 7    1  0.6515090E-012  0.5930195E+02  0.7816164E-02  0.1266605E+00
        -11   -1    0    0    0    0  0.00000000000E+00  0.00000000000E+00  0.45593999997E+02  0.45594000000E+02  0.51100000000E-03 0.  1.
         11   -1    0    0    0    0 -0.00000000000E+00 -0.00000000000E+00 -0.45593999997E+02  0.45594000000E+02  0.51100000000E-03 0. -1.
    9900012    2    1    2    0    0 -0.28136042591E+01 -0.30569771034E+02  0.86193173026E+01  0.59301954451E+02  0.50000019010E+02 0.  0.
        -12    1    1    2    0    0  0.28136042591E+01  0.30569771034E+02 -0.86193173026E+01  0.31886045549E+02  0.00000000000E+00 0.  1.
         11    1    3    3    0    0 -0.83168758146E+01 -0.17107929344E+02 -0.14936701056E+02  0.24185878285E+02  0.51100000000E-03 0. -1.
        -11    1    3    3    0    0  0.20260462488E+01 -0.13647230535E+02  0.28102547453E+01  0.14080102864E+02  0.51100000000E-03 0.  1.
        -12    1    3    3    0    0  0.34772253067E+01  0.18538884556E+00  0.20745763613E+02  0.21035973301E+02  0.00000000000E+00 0.  1.
</event>
<event>
 7    1  0.6515090E-012  0.5930194E+02  0.7816164E-02  0.1266605E+00
        -11   -1    0    0    0    0  0.00000000000E+00  0.00000000000E+00  0.45593999997E+02  0.45594000000E+02  0.51100000000E-03 0. -1.
         11   -1    0    0    0    0 -0.00000000000E+00 -0.00000000000E+00 -0.45593999997E+02  0.45594000000E+02  0.51100000000E-03 0.  1.
    9900012    2    1    2    0    0 -0.23305345722E+02 -0.21089727284E+02 -0.53670125423E+01  0.59301944117E+02  0.50000000163E+02 0.  0.
        -12    1    1    2    0    0  0.23305345722E+02  0.21089727284E+02  0.53670125423E+01  0.31886055883E+02  0.00000000000E+00 0.  1.
         11    1    3    3    0    0 -0.34526355425E+01 -0.57087802538E+01  0.33706072739E+01  0.74747480112E+01  0.51100000000E-03 0. -1.
        -11    1    3    3    0    0 -0.22382868887E+02 -0.87901112107E+01  0.14132369636E+02  0.27892342076E+02  0.51100000000E-03 0.  1.
        -12    1    3    3    0    0  0.25301587068E+01 -0.65908358194E+01 -0.22869989452E+02  0.23934854030E+02  0.00000000000E+00 0.  1.
</event>
<event>
 7    1  0.6515090E-012  0.5930194E+02  0.7816164E-02  0.1266605E+00
        -11   -1    0    0    0    0  0.00000000000E+00  0.00000000000E+00  0.45593999997E+02  0.45594000000E+02  0.51100000000E-03 0.  1.
         11   -1    0    0    0    0 -0.00000000000E+00 -0.00000000000E+00 -0.45593999997E+02  0.45594000000E+02  0.51100000000E-03 0. -1.
    9900012    2    1    2    0    0 -0.28727667179E+01  0.24213681067E+02 -0.20546676860E+02  0.59301936125E+02  0.49999985588E+02 0.  0.
        -12    1    1    2    0    0  0.28727667179E+01 -0.24213681067E+02  0.20546676860E+02  0.31886063875E+02  0.00000000000E+00 0.  1.
         11    1    3    3    0    0  0.16386228425E+01 -0.66813350251E+00  0.10855477531E+02  0.10998767198E+02  0.51100000000E-03 0. -1.
        -11    1    3    3    0    0 -0.24336901165E+01 -0.44291273227E+01  0.31850264583E+00  0.50637397860E+01  0.51100000000E-03 0.  1.
         12    1    3    3    0    0 -0.20776994439E+01  0.29310941892E+02 -0.31720657037E+02  0.43239429141E+02  0.00000000000E+00 0. -1.
</event>
<event>
 7    1  0.6515090E-012  0.5930198E+02  0.7816164E-02  0.1266605E+00
        -11   -1    0    0    0    0  0.00000000000E+00  0.00000000000E+00  0.45593999997E+02  0.45594000000E+02  0.51100000000E-03 0.  1.
         11   -1    0    0    0    0 -0.00000000000E+00 -0.00000000000E+00 -0.45593999997E+02  0.45594000000E+02  0.51100000000E-03 0. -1.
    9900012    2    1    2    0    0 -0.20267232528E+02 -0.12332367826E+02  0.21304230909E+02  0.59301980098E+02  0.50000065783E+02 0.  0.
        -12    1    1    2    0    0  0.20267232528E+02  0.12332367826E+02 -0.21304230909E+02  0.31886019902E+02  0.00000000000E+00 0.  1.
         11    1    3    3    0    0 -0.10517829664E+01 -0.99325648594E+01  0.16812347260E+02  0.19555488047E+02  0.51100000000E-03 0. -1.
        -11    1    3    3    0    0  0.24814617124E+01  0.11280971201E+02  0.77217354348E+01  0.13893997332E+02  0.51100000000E-03 0.  1.
        -12    1    3    3    0    0 -0.21696911274E+02 -0.13680774168E+02 -0.32298517851E+01  0.25852494720E+02  0.00000000000E+00 0.  1.
</event>
<event>
 7    1  0.6515090E-012  0.5930192E+02  0.7816164E-02  0.1266605E+00
        -11   -1    0    0    0    0  0.00000000000E+00  0.00000000000E+00  0.45593999997E+02  0.45594000000E+02  0.51100000000E-03 0. -1.
         11   -1    0    0    0    0 -0.00000000000E+00 -0.00000000000E+00 -0.45593999997E+02  0.45594000000E+02  0.51100000000E-03 0.  1.
    9900012    2    1    2    0    0  0.12013058588E+02 -0.11367042718E+02  0.27261679573E+02  0.59301915105E+02  0.49999947252E+02 0.  0.
        -12    1    1    2    0    0 -0.12013058588E+02  0.11367042718E+02 -0.27261679573E+02  0.31886084895E+02  0.00000000000E+00 0.  1.
         11    1    3    3    0    0  0.13186710775E+02 -0.10424509022E+02  0.15746197176E+02  0.23032638911E+02  0.51100000000E-03 0. -1.
        -11    1    3    3    0    0  0.15682518470E+01  0.11160792686E+01 -0.12177905709E+02  0.12329088956E+02  0.51100000000E-03 0.  1.
         12    1    3    3    0    0 -0.27419040340E+01 -0.20586129644E+01  0.23693388105E+02  0.23940187237E+02  0.00000000000E+00 0. -1.
</event>
<event>
 7    1  0.6515090E-012  0.5930198E+02  0.7816164E-02  0.1266605E+00
        -11   -1    0    0    0    0  0.00000000000E+00  0.00000000000E+00  0.45593999997E+02  0.45594000000E+02  0.51100000000E-03 0.  1.
         11   -1    0    0    0    0 -0.00000000000E+00 -0.00000000000E+00 -0.45593999997E+02  0.45594000000E+02  0.51100000000E-03 0. -1.
    9900012    2    1    2    0    0 -0.20924327979E+02 -0.15238900325E+02 -0.18618979385E+02  0.59301984604E+02  0.50000074001E+02 0.  0.
        -12    1    1    2    0    0  0.20924327979E+02  0.15238900325E+02  0.18618979385E+02  0.31886015396E+02  0.00000000000E+00 0.  1.
         11    1    3    3    0    0 -0.95254988670E+01  0.45271925595E+01 -0.58257704893E+01  0.12048659809E+02  0.51100000000E-03 0. -1.
        -11    1    3    3    0    0 -0.23323705951E+02 -0.40633848689E+01 -0.13990031867E+02  0.27499588139E+02  0.51100000000E-03 0.  1.
        -12    1    3    3    0    0  0.11924876839E+02 -0.15702708016E+02  0.11968229710E+01  0.19753736656E+02  0.00000000000E+00 0.  1.
</event>
<event>
 7    1  0.6515090E-012  0.5930195E+02  0.7816164E-02  0.1266605E+00
        -11   -1    0    0    0    0  0.00000000000E+00  0.00000000000E+00  0.45593999997E+02  0.45594000000E+02  0.51100000000E-03 0.  1.
         11   -1    0    0    0    0 -0.00000000000E+00 -0.00000000000E+00 -0.45593999997E+02  0.45594000000E+02  0.51100000000E-03 0. -1.
    9900012    2    1    2    0    0  0.30044646268E+02  0.10068725747E+02  0.35581364631E+01  0.59301947522E+02  0.50000006373E+02 0.  0.
        -12    1    1    2    0    0 -0.30044646268E+02 -0.10068725747E+02 -0.35581364631E+01  0.31886052478E+02  0.00000000000E+00 0.  1.
         11    1    3    3    0    0  0.24531559040E+02  0.57851291064E+01 -0.95906022442E+01  0.26967475955E+02  0.51100000000E-03 0. -1.
        -11    1    3    3    0    0  0.10600619405E+02 -0.93952606029E+01  0.27885196983E+01  0.14436755035E+02  0.51100000000E-03 0.  1.
        -12    1    3    3    0    0 -0.50875321776E+01  0.13678857244E+02  0.10360219009E+02  0.17897716532E+02  0.00000000000E+00 0.  1.
</event>
<event>
 7    1  0.6515090E-012  0.5930194E+02  0.7816164E-02  0.1266605E+00
        -11   -1    0    0    0    0  0.00000000000E+00  0.00000000000E+00  0.45593999997E+02  0.45594000000E+02  0.51100000000E-03 0. -1.
         11   -1    0    0    0    0 -0.00000000000E+00 -0.00000000000E+00 -0.45593999997E+02  0.45594000000E+02  0.51100000000E-03 0.  1.
    9900012    2    1    2    0    0 -0.22518465430E+02  0.13374487688E+02  0.18186876010E+02  0.59301942463E+02  0.49999997146E+02 0.  0.
        -12    1    1    2    0    0  0.22518465430E+02 -0.13374487688E+02 -0.18186876010E+02  0.31886057537E+02  0.00000000000E+00 0.  1.
         11    1    3    3    0    0 -0.15841280767E+01 -0.27150005140E+01  0.80743255434E-01  0.31443933101E+01  0.51100000000E-03 0. -1.
        -11    1    3    3    0    0  0.10704963907E+02 -0.32505029343E+01 -0.52237018727E+01  0.12347027298E+02  0.51100000000E-03 0.  1.
        -12    1    3    3    0    0 -0.31639301261E+02  0.19339991136E+02  0.23329834628E+02  0.43810521855E+02  0.00000000000E+00 0.  1.
</event>
<event>
 7    1  0.6515090E-012  0.5930195E+02  0.7816164E-02  0.1266605E+00
        -11   -1    0    0    0    0  0.00000000000E+00  0.00000000000E+00  0.45593999997E+02  0.45594000000E+02  0.51100000000E-03 0. -1.
         11   -1    0    0    0    0 -0.00000000000E+00 -0.00000000000E+00 -0.45593999997E+02  0.45594000000E+02  0.51100000000E-03 0.  1.
    9900012    2    1    2    0    0 -0.91251069938E+01  0.26330391755E+02  0.15497201542E+02  0.59301947199E+02  0.50000005783E+02 0.  0.
        -12    1    1    2    0    0  0.91251069938E+01 -0.26330391755E+02 -0.15497201542E+02  0.31886052801E+02  0.00000000000E+00 0.  1.
         11    1    3    3    0    0 -0.13579168942E+02  0.60006722505E+01 -0.69332563164E+01  0.16385113366E+02  0.51100000000E-03 0. -1.
        -11    1    3    3    0    0 -0.10492659173E+02  0.17990630427E+02  0.90054778053E+01  0.22690467391E+02  0.51100000000E-03 0.  1.
        -12    1    3    3    0    0  0.14946721121E+02  0.23390890781E+01  0.13424980053E+02  0.20226366441E+02  0.00000000000E+00 0.  1.
</event>
<event>
 7    1  0.6515090E-012  0.5930197E+02  0.7816164E-02  0.1266605E+00
        -11   -1    0    0    0    0  0.00000000000E+00  0.00000000000E+00  0.45593999997E+02  0.45594000000E+02  0.51100000000E-03 0.  1.
         11   -1    0    0    0    0 -0.00000000000E+00 -0.00000000000E+00 -0.45593999997E+02  0.45594000000E+02  0.51100000000E-03 0. -1.
    9900012    2    1    2    0    0 -0.21590159321E+02  0.13521988574E+02 -0.19176545206E+02  0.59301967939E+02  0.50000043609E+02 0.  0.
        -12    1    1    2    0    0  0.21590159321E+02 -0.13521988574E+02  0.19176545206E+02  0.31886032061E+02  0.00000000000E+00 0.  1.
         11    1    3    3    0    0 -0.86335981565E+01  0.10378716777E+02 -0.24150000957E+02  0.27667297041E+02  0.51100000000E-03 0. -1.
        -11    1    3    3    0    0 -0.17862211894E+02  0.11574320272E+02  0.50697813524E+01  0.21879812310E+02  0.51100000000E-03 0.  1.
         12    1    3    3    0    0  0.49056507291E+01 -0.84310484748E+01 -0.96325602008E-01  0.97548585885E+01  0.00000000000E+00 0. -1.
</event>
<event>
 7    1  0.6515090E-012  0.5930195E+02  0.7816164E-02  0.1266605E+00
        -11   -1    0    0    0    0  0.00000000000E+00  0.00000000000E+00  0.45593999997E+02  0.45594000000E+02  0.51100000000E-03 0.  1.
         11   -1    0    0    0    0 -0.00000000000E+00 -0.00000000000E+00 -0.45593999997E+02  0.45594000000E+02  0.51100000000E-03 0. -1.
    9900012    2    1    2    0    0  0.13708260174E+02 -0.16159074382E+02 -0.23826209575E+02  0.59301947491E+02  0.50000006317E+02 0.  0.
        -12    1    1    2    0    0 -0.13708260174E+02  0.16159074382E+02  0.23826209575E+02  0.31886052509E+02  0.00000000000E+00 0.  1.
         11    1    3    3    0    0 -0.10322682523E+01  0.56809203060E+01  0.22219620878E+00  0.57782181236E+01  0.51100000000E-03 0.  1.
        -11    1    3    3    0    0  0.26689976030E+02 -0.87924732305E+01 -0.22048815778E+02  0.35718520174E+02  0.51100000000E-03 0. -1.
         12    1    3    3    0    0 -0.11949447604E+02 -0.13047521458E+02 -0.19995900056E+01  0.17805209193E+02  0.00000000000E+00 0. -1.
</event>
<event>
 7    1  0.6515090E-012  0.5930194E+02  0.7816164E-02  0.1266605E+00
        -11   -1    0    0    0    0  0.00000000000E+00  0.00000000000E+00  0.45593999997E+02  0.45594000000E+02  0.51100000000E-03 0.  1.
         11   -1    0    0    0    0 -0.00000000000E+00 -0.00000000000E+00 -0.45593999997E+02  0.45594000000E+02  0.51100000000E-03 0. -1.
    9900012    2    1    2    0    0 -0.11110882117E+01  0.14681279031E+02 -0.28283327904E+02  0.59301935515E+02  0.49999984475E+02 0.  0.
        -12    1    1    2    0    0  0.11110882117E+01 -0.14681279031E+02  0.28283327904E+02  0.31886064485E+02  0.00000000000E+00 0.  1.
         11    1    3    3    0    0  0.47738725704E+01  0.11677678102E+02 -0.23882125889E+02  0.27009516146E+02  0.51100000000E-03 0. -1.
        -11    1    3    3    0    0 -0.71438361794E+01  0.13109958985E+02 -0.12347782204E+02  0.19374548913E+02  0.51100000000E-03 0.  1.
        -12    1    3    3    0    0  0.12588753973E+01 -0.10106358056E+02  0.79465801893E+01  0.12917870456E+02  0.00000000000E+00 0.  1.
</event>
<event>
 7    1  0.6515090E-012  0.5930195E+02  0.7816164E-02  0.1266605E+00
        -11   -1    0    0    0    0  0.00000000000E+00  0.00000000000E+00  0.45593999997E+02  0.45594000000E+02  0.51100000000E-03 0. -1.
         11   -1    0    0    0    0 -0.00000000000E+00 -0.00000000000E+00 -0.45593999997E+02  0.45594000000E+02  0.51100000000E-03 0.  1.
    9900012    2    1    2    0    0  0.18502405305E+02 -0.19255705027E+02  0.17424097019E+02  0.59301947640E+02  0.50000006588E+02 0.  0.
        -12    1    1    2    0    0 -0.18502405305E+02  0.19255705027E+02 -0.17424097019E+02  0.31886052360E+02  0.00000000000E+00 0.  1.
         11    1    3    3    0    0 -0.90457752298E+01  0.21477205542E+01  0.36563799126E+01  0.99903887519E+01  0.51100000000E-03 0. -1.
        -11    1    3    3    0    0  0.19307308890E+02 -0.29678076700E+02  0.12575301423E+02  0.37572578023E+02  0.51100000000E-03 0.  1.
         12    1    3    3    0    0  0.82408716452E+01  0.82746511180E+01  0.11924156827E+01  0.11738980865E+02  0.00000000000E+00 0. -1.
</event>
<event>
 7    1  0.6515090E-012  0.5930196E+02  0.7816164E-02  0.1266605E+00
        -11   -1    0    0    0    0  0.00000000000E+00  0.00000000000E+00  0.45593999997E+02  0.45594000000E+02  0.51100000000E-03 0.  1.
         11   -1    0    0    0    0 -0.00000000000E+00 -0.00000000000E+00 -0.45593999997E+02  0.45594000000E+02  0.51100000000E-03 0. -1.
    9900012    2    1    2    0    0 -0.69488656578E+01  0.62701788382E+01 -0.30481427388E+02  0.59301963994E+02  0.50000036414E+02 0.  0.
        -12    1    1    2    0    0  0.69488656578E+01 -0.62701788382E+01  0.30481427388E+02  0.31886036006E+02  0.00000000000E+00 0.  1.
         11    1    3    3    0    0 -0.13095796454E+01  0.38154946897E+01 -0.10546202066E+02  0.11291385072E+02  0.51100000000E-03 0. -1.
        -11    1    3    3    0    0 -0.55720410599E+01  0.58398509604E+01 -0.33279033500E+02  0.34243912916E+02  0.51100000000E-03 0.  1.
        -12    1    3    3    0    0 -0.67244952481E-01 -0.33851668119E+01  0.13343808178E+02  0.13766666006E+02  0.00000000000E+00 0.  1.
</event>
<event>
 7    1  0.6515090E-012  0.5930194E+02  0.7816164E-02  0.1266605E+00
        -11   -1    0    0    0    0  0.00000000000E+00  0.00000000000E+00  0.45593999997E+02  0.45594000000E+02  0.51100000000E-03 0.  1.
         11   -1    0    0    0    0 -0.00000000000E+00 -0.00000000000E+00 -0.45593999997E+02  0.45594000000E+02  0.51100000000E-03 0. -1.
    9900012    2    1    2    0    0  0.24886430595E+02  0.11751974996E+02 -0.16102102090E+02  0.59301936653E+02  0.49999986550E+02 0.  0.
        -12    1    1    2    0    0 -0.24886430595E+02 -0.11751974996E+02  0.16102102090E+02  0.31886063347E+02  0.00000000000E+00 0.  1.
         11    1    3    3    0    0  0.64273663752E+00 -0.42978371576E+01  0.11137976326E+02  0.11955711251E+02  0.51100000000E-03 0. -1.
        -11    1    3    3    0    0  0.23898267468E+01 -0.33249385376E+01  0.31734118598E+01  0.51804470127E+01  0.51100000000E-03 0.  1.
         12    1    3    3    0    0  0.21853867210E+02  0.19374750692E+02 -0.30413490276E+02  0.42165778389E+02  0.00000000000E+00 0. -1.
</event>
<event>
 7    1  0.6515090E-012  0.5930217E+02  0.7816164E-02  0.1266604E+00
        -11   -1    0    0    0    0  0.00000000000E+00  0.00000000000E+00  0.45593999997E+02  0.45594000000E+02  0.51100000000E-03 0. -1.
         11   -1    0    0    0    0 -0.00000000000E+00 -0.00000000000E+00 -0.45593999997E+02  0.45594000000E+02  0.51100000000E-03 0.  1.
    9900012    2    1    2    0    0 -0.42982515122E+01  0.70309414259E+01  0.30802551102E+02  0.59302168385E+02  0.50000409172E+02 0.  0.
        -12    1    1    2    0    0  0.42982515122E+01 -0.70309414259E+01 -0.30802551102E+02  0.31885831615E+02  0.00000000000E+00 0.  1.
         11    1    3    3    0    0  0.52058554480E+01  0.11207466761E+02  0.37468069321E+02  0.39453320026E+02  0.51100000000E-03 0. -1.
        -11    1    3    3    0    0 -0.70705560038E+01  0.26033305115E+01  0.27263136483E+01  0.80126698625E+01  0.51100000000E-03 0.  1.
        -12    1    3    3    0    0 -0.24335509564E+01 -0.67798558470E+01 -0.93918318674E+01  0.11836178496E+02  0.00000000000E+00 0.  1.
</event>
<event>
 7    1  0.6515090E-012  0.5930194E+02  0.7816164E-02  0.1266605E+00
        -11   -1    0    0    0    0  0.00000000000E+00  0.00000000000E+00  0.45593999997E+02  0.45594000000E+02  0.51100000000E-03 0.  1.
         11   -1    0    0    0    0 -0.00000000000E+00 -0.00000000000E+00 -0.45593999997E+02  0.45594000000E+02  0.51100000000E-03 0. -1.
    9900012    2    1    2    0    0 -0.83194492182E+01  0.22249472522E+02 -0.21271311277E+02  0.59301938057E+02  0.49999989110E+02 0.  0.
        -12    1    1    2    0    0  0.83194492182E+01 -0.22249472522E+02  0.21271311277E+02  0.31886061943E+02  0.00000000000E+00 0.  1.
         11    1    3    3    0    0 -0.44202974079E+01  0.12040998272E+02  0.12520256639E+02  0.17924326908E+02  0.51100000000E-03 0. -1.
        -11    1    3    3    0    0  0.64782072331E+01 -0.23776791232E+01 -0.59621778229E+01  0.91196541394E+01  0.51100000000E-03 0.  1.
        -12    1    3    3    0    0 -0.10377359043E+02  0.12586153374E+02 -0.27829390093E+02  0.32257957009E+02  0.00000000000E+00 0.  1.
</event>
<event>
 7    1  0.6515090E-012  0.5930197E+02  0.7816164E-02  0.1266605E+00
        -11   -1    0    0    0    0  0.00000000000E+00  0.00000000000E+00  0.45593999997E+02  0.45594000000E+02  0.51100000000E-03 0.  1.
         11   -1    0    0    0    0 -0.00000000000E+00 -0.00000000000E+00 -0.45593999997E+02  0.45594000000E+02  0.51100000000E-03 0. -1.
    9900012    2    1    2    0    0 -0.25395146710E+02 -0.15044329086E+02 -0.12061244757E+02  0.59301969530E+02  0.50000046510E+02 0.  0.
        -12    1    1    2    0    0  0.25395146710E+02  0.15044329086E+02  0.12061244757E+02  0.31886030470E+02  0.00000000000E+00 0.  1.
         11    1    3    3    0    0 -0.21140544194E+02 -0.12012183674E+02 -0.78149884200E+01  0.25539953205E+02  0.51100000000E-03 0. -1.
        -11    1    3    3    0    0 -0.14470527032E+02  0.83902691118E+01 -0.71047061793E+01  0.18173321615E+02  0.51100000000E-03 0.  1.
        -12    1    3    3    0    0  0.10215924516E+02 -0.11422414524E+02  0.28584498420E+01  0.15588694710E+02  0.00000000000E+00 0.  1.
</event>
<event>
 7    1  0.6515090E-012  0.5930191E+02  0.7816164E-02  0.1266605E+00
        -11   -1    0    0    0    0  0.00000000000E+00  0.00000000000E+00  0.45593999997E+02  0.45594000000E+02  0.51100000000E-03 0.  1.
         11   -1    0    0    0    0 -0.00000000000E+00 -0.00000000000E+00 -0.45593999997E+02  0.45594000000E+02  0.51100000000E-03 0. -1.
    9900012    2    1    2    0    0 -0.30073721878E+02  0.10593787785E+02  0.25588035793E+00  0.59301912721E+02  0.49999942903E+02 0.  0.
        -12    1    1    2    0    0  0.30073721878E+02 -0.10593787785E+02 -0.25588035793E+00  0.31886087279E+02  0.00000000000E+00 0.  1.
         11    1    3    3    0    0 -0.16580590861E+02 -0.10083786410E+02 -0.10245708548E+02  0.21944778093E+02  0.51100000000E-03 0. -1.
        -11    1    3    3    0    0 -0.36655437284E+01  0.15689617366E-03 -0.74244373278E+01  0.82800048758E+01  0.51100000000E-03 0.  1.
        -12    1    3    3    0    0 -0.98275872884E+01  0.20677417299E+02  0.17926026233E+02  0.29077129751E+02  0.00000000000E+00 0.  1.
</event>
<event>
 7    1  0.6515090E-012  0.5930190E+02  0.7816164E-02  0.1266605E+00
        -11   -1    0    0    0    0  0.00000000000E+00  0.00000000000E+00  0.45593999997E+02  0.45594000000E+02  0.51100000000E-03 0. -1.
         11   -1    0    0    0    0 -0.00000000000E+00 -0.00000000000E+00 -0.45593999997E+02  0.45594000000E+02  0.51100000000E-03 0.  1.
    9900012    2    1    2    0    0  0.20512013650E+02  0.11821334092E+02  0.21359696610E+02  0.59301901415E+02  0.49999922285E+02 0.  0.
        -12    1    1    2    0    0 -0.20512013650E+02 -0.11821334092E+02 -0.21359696610E+02  0.31886098585E+02  0.00000000000E+00 0.  1.
         11    1    3    3    0    0  0.21118937676E+02 -0.28085063934E+01  0.17100991279E+01  0.21373387097E+02  0.51100000000E-03 0. -1.
        -11    1    3    3    0    0 -0.84456142911E-01 -0.48598262350E+01 -0.46823098488E+01  0.67490050863E+01  0.51100000000E-03 0.  1.
         12    1    3    3    0    0 -0.52246788322E+00  0.19489666721E+02  0.24331907331E+02  0.31179509232E+02  0.00000000000E+00 0. -1.
</event>
<event>
 7    1  0.6515090E-012  0.5930197E+02  0.7816164E-02  0.1266605E+00
        -11   -1    0    0    0    0  0.00000000000E+00  0.00000000000E+00  0.45593999997E+02  0.45594000000E+02  0.51100000000E-03 0.  1.
         11   -1    0    0    0    0 -0.00000000000E+00 -0.00000000000E+00 -0.45593999997E+02  0.45594000000E+02  0.51100000000E-03 0. -1.
    9900012    2    1    2    0    0 -0.23706348764E+00  0.14386447023E+02 -0.28455102346E+02  0.59301970041E+02  0.50000047441E+02 0.  0.
        -12    1    1    2    0    0  0.23706348764E+00 -0.14386447023E+02  0.28455102346E+02  0.31886029959E+02  0.00000000000E+00 0.  1.
         11    1    3    3    0    0 -0.47698153093E+01 -0.59834703708E+01 -0.15849571606E+01  0.78144190588E+01  0.51100000000E-03 0. -1.
        -11    1    3    3    0    0 -0.10012347752E+02 -0.68139607973E+01 -0.29482230691E+01  0.12464717758E+02  0.51100000000E-03 0.  1.
         12    1    3    3    0    0  0.14545099573E+02  0.27183878191E+02 -0.23921922117E+02  0.39022833224E+02  0.00000000000E+00 0. -1.
</event>
<event>
 7    1  0.6515090E-012  0.5930192E+02  0.7816164E-02  0.1266605E+00
        -11   -1    0    0    0    0  0.00000000000E+00  0.00000000000E+00  0.45593999997E+02  0.45594000000E+02  0.51100000000E-03 0. -1.
         11   -1    0    0    0    0 -0.00000000000E+00 -0.00000000000E+00 -0.45593999997E+02  0.45594000000E+02  0.51100000000E-03 0.  1.
    9900012    2    1    2    0    0 -0.18092893552E+02 -0.17920822483E+02 -0.19188887757E+02  0.59301920139E+02  0.49999956433E+02 0.  0.
        -12    1    1    2    0    0  0.18092893552E+02  0.17920822483E+02  0.19188887757E+02  0.31886079861E+02  0.00000000000E+00 0.  1.
         11    1    3    3    0    0 -0.13910571467E+02  0.21100518239E+01 -0.11907405987E-02  0.14069695054E+02  0.51100000000E-03 0. -1.
        -11    1    3    3    0    0 -0.74119730921E+01 -0.19961566459E+02  0.41315006724E+01  0.21690338371E+02  0.51100000000E-03 0.  1.
        -12    1    3    3    0    0  0.32296510067E+01 -0.69307848075E-01 -0.23319197689E+02  0.23541886714E+02  0.00000000000E+00 0.  1.
</event>
<event>
 7    1  0.6515090E-012  0.5930195E+02  0.7816164E-02  0.1266605E+00
        -11   -1    0    0    0    0  0.00000000000E+00  0.00000000000E+00  0.45593999997E+02  0.45594000000E+02  0.51100000000E-03 0.  1.
         11   -1    0    0    0    0 -0.00000000000E+00 -0.00000000000E+00 -0.45593999997E+02  0.45594000000E+02  0.51100000000E-03 0. -1.
    9900012    2    1    2    0    0  0.66290981846E+01 -0.14165523627E+00 -0.31189019352E+02  0.59301953881E+02  0.50000017970E+02 0.  0.
        -12    1    1    2    0    0 -0.66290981846E+01  0.14165523627E+00  0.31189019352E+02  0.31886046119E+02  0.00000000000E+00 0.  1.
         11    1    3    3    0    0 -0.75393542137E+01  0.42866702279E+01 -0.13233956731E+02  0.15822610866E+02  0.51100000000E-03 0. -1.
        -11    1    3    3    0    0  0.13790771317E+02 -0.63865821767E+01 -0.28740329945E+02  0.32511234536E+02  0.51100000000E-03 0.  1.
        -12    1    3    3    0    0  0.37768108141E+00  0.19582567125E+01  0.10785267324E+02  0.10968108479E+02  0.00000000000E+00 0.  1.
</event>
<event>
 7    1  0.6515090E-012  0.5930191E+02  0.7816164E-02  0.1266605E+00
        -11   -1    0    0    0    0  0.00000000000E+00  0.00000000000E+00  0.45593999997E+02  0.45594000000E+02  0.51100000000E-03 0. -1.
         11   -1    0    0    0    0 -0.00000000000E+00 -0.00000000000E+00 -0.45593999997E+02  0.45594000000E+02  0.51100000000E-03 0.  1.
    9900012    2    1    2    0    0  0.32218410483E+01  0.23021609367E+02  0.21825396802E+02  0.59301910507E+02  0.49999938866E+02 0.  0.
        -12    1    1    2    0    0 -0.32218410483E+01 -0.23021609367E+02 -0.21825396802E+02  0.31886089493E+02  0.00000000000E+00 0.  1.
         11    1    3    3    0    0  0.10092773437E+02  0.26385396436E+02  0.17130970776E+02  0.33038210919E+02  0.51100000000E-03 0. -1.
        -11    1    3    3    0    0  0.62705813748E+01 -0.18124051243E+01 -0.62908987944E+01  0.90653411968E+01  0.51100000000E-03 0.  1.
        -12    1    3    3    0    0 -0.13141513764E+02 -0.15513819446E+01  0.10985324821E+02  0.17198358391E+02  0.00000000000E+00 0.  1.
</event>
<event>
 7    1  0.6515090E-012  0.5930196E+02  0.7816164E-02  0.1266605E+00
        -11   -1    0    0    0    0  0.00000000000E+00  0.00000000000E+00  0.45593999997E+02  0.45594000000E+02  0.51100000000E-03 0.  1.
         11   -1    0    0    0    0 -0.00000000000E+00 -0.00000000000E+00 -0.45593999997E+02  0.45594000000E+02  0.51100000000E-03 0. -1.
    9900012    2    1    2    0    0  0.36491026292E+01 -0.23140281273E+02 -0.21631716849E+02  0.59301956953E+02  0.50000023573E+02 0.  0.
        -12    1    1    2    0    0 -0.36491026292E+01  0.23140281273E+02  0.21631716849E+02  0.31886043047E+02  0.00000000000E+00 0.  1.
         11    1    3    3    0    0 -0.87083338169E+01  0.91725146452E+01 -0.99499823764E+01  0.16092614838E+02  0.51100000000E-03 0. -1.
        -11    1    3    3    0    0  0.19256641615E+01 -0.10341905840E+02 -0.15353983646E+02  0.18612039462E+02  0.51100000000E-03 0.  1.
        -12    1    3    3    0    0  0.10431772285E+02 -0.21970890077E+02  0.36722491737E+01  0.24597302653E+02  0.00000000000E+00 0.  1.
</event>
<event>
 7    1  0.6515090E-012  0.5930220E+02  0.7816164E-02  0.1266604E+00
        -11   -1    0    0    0    0  0.00000000000E+00  0.00000000000E+00  0.45593999997E+02  0.45594000000E+02  0.51100000000E-03 0. -1.
         11   -1    0    0    0    0 -0.00000000000E+00 -0.00000000000E+00 -0.45593999997E+02  0.45594000000E+02  0.51100000000E-03 0.  1.
    9900012    2    1    2    0    0 -0.32617510253E+01 -0.25416863781E+02  0.18974941196E+02  0.59302197868E+02  0.50000462942E+02 0.  0.
        -12    1    1    2    0    0  0.32617510253E+01  0.25416863781E+02 -0.18974941196E+02  0.31885802132E+02  0.00000000000E+00 0.  1.
         11    1    3    3    0    0  0.10041408168E+02 -0.15941129093E+01  0.10967145592E+02  0.14954910787E+02  0.51100000000E-03 0. -1.
        -11    1    3    3    0    0  0.10720158222E+02 -0.53155923325E+01  0.72937029154E+01  0.14013401323E+02  0.51100000000E-03 0.  1.
         12    1    3    3    0    0 -0.24023317415E+02 -0.18507158539E+02  0.71409268841E+00  0.30333885758E+02  0.00000000000E+00 0. -1.
</event>
<event>
 7    1  0.6515090E-012  0.5930195E+02  0.7816164E-02  0.1266605E+00
        -11   -1    0    0    0    0  0.00000000000E+00  0.00000000000E+00  0.45593999997E+02  0.45594000000E+02  0.51100000000E-03 0. -1.
         11   -1    0    0    0    0 -0.00000000000E+00 -0.00000000000E+00 -0.45593999997E+02  0.45594000000E+02  0.51100000000E-03 0.  1.
    9900012    2    1    2    0    0 -0.31597268856E+02 -0.28446418299E+01  0.32001465159E+01  0.59301947814E+02  0.50000006904E+02 0.  0.
        -12    1    1    2    0    0  0.31597268856E+02  0.28446418299E+01 -0.32001465159E+01  0.31886052186E+02  0.00000000000E+00 0.  1.
         11    1    3    3    0    0 -0.13560325023E+02 -0.88615637141E+01  0.12010580220E+02  0.20165905972E+02  0.51100000000E-03 0. -1.
        -11    1    3    3    0    0 -0.26131054408E+02  0.35414529679E+01 -0.13322561883E+02  0.29544281156E+02  0.51100000000E-03 0.  1.
        -12    1    3    3    0    0  0.80941105750E+01  0.24754689164E+01  0.45121281788E+01  0.95917606861E+01  0.00000000000E+00 0.  1.
</event>
<event>
 7    1  0.6515090E-012  0.5930201E+02  0.7816164E-02  0.1266605E+00
        -11   -1    0    0    0    0  0.00000000000E+00  0.00000000000E+00  0.45593999997E+02  0.45594000000E+02  0.51100000000E-03 0.  1.
         11   -1    0    0    0    0 -0.00000000000E+00 -0.00000000000E+00 -0.45593999997E+02  0.45594000000E+02  0.51100000000E-03 0. -1.
    9900012    2    1    2    0    0 -0.24165987229E+02 -0.18584757711E+02 -0.93449657914E+01  0.59302007095E+02  0.50000115019E+02 0.  0.
        -12    1    1    2    0    0  0.24165987229E+02  0.18584757711E+02  0.93449657914E+01  0.31885992905E+02  0.00000000000E+00 0.  1.
         11    1    3    3    0    0 -0.68525069512E+01  0.54115078796E+00  0.47106478438E+01  0.83330606059E+01  0.51100000000E-03 0.  1.
        -11    1    3    3    0    0 -0.17895695056E+02 -0.29508762159E+02 -0.19063931268E+02  0.39426595356E+02  0.51100000000E-03 0. -1.
         12    1    3    3    0    0  0.58221477854E+00  0.10382853660E+02  0.50083176328E+01  0.11542351133E+02  0.00000000000E+00 0. -1.
</event>
<event>
 7    1  0.6515090E-012  0.5930199E+02  0.7816164E-02  0.1266605E+00
        -11   -1    0    0    0    0  0.00000000000E+00  0.00000000000E+00  0.45593999997E+02  0.45594000000E+02  0.51100000000E-03 0.  1.
         11   -1    0    0    0    0 -0.00000000000E+00 -0.00000000000E+00 -0.45593999997E+02  0.45594000000E+02  0.51100000000E-03 0. -1.
    9900012    2    1    2    0    0  0.81631606385E+01 -0.17680739640E+02 -0.25248201781E+02  0.59301993053E+02  0.50000089411E+02 0.  0.
        -12    1    1    2    0    0 -0.81631606385E+01  0.17680739640E+02  0.25248201781E+02  0.31886006947E+02  0.00000000000E+00 0.  1.
         11    1    3    3    0    0  0.54589440661E+00  0.10191756158E+01 -0.16242392688E+02  0.16283489802E+02  0.51100000000E-03 0. -1.
        -11    1    3    3    0    0  0.44360970242E+01  0.33954014996E+01 -0.18078620068E+02  0.18922056230E+02  0.51100000000E-03 0.  1.
        -12    1    3    3    0    0  0.31811692077E+01 -0.22095316756E+02  0.90728109752E+01  0.24096447021E+02  0.00000000000E+00 0.  1.
</event>
<event>
 7    1  0.6515090E-012  0.5930191E+02  0.7816164E-02  0.1266605E+00
        -11   -1    0    0    0    0  0.00000000000E+00  0.00000000000E+00  0.45593999997E+02  0.45594000000E+02  0.51100000000E-03 0.  1.
         11   -1    0    0    0    0 -0.00000000000E+00 -0.00000000000E+00 -0.45593999997E+02  0.45594000000E+02  0.51100000000E-03 0. -1.
    9900012    2    1    2    0    0  0.73245923342E+01  0.26141535737E+02 -0.16724024305E+02  0.59301913182E+02  0.49999943746E+02 0.  0.
        -12    1    1    2    0    0 -0.73245923342E+01 -0.26141535737E+02  0.16724024305E+02  0.31886086818E+02  0.00000000000E+00 0.  1.
         11    1    3    3    0    0 -0.37501063346E+01 -0.96445256319E+00 -0.50805684790E+01  0.63879294453E+01  0.51100000000E-03 0. -1.
        -11    1    3    3    0    0  0.10037773073E+01 -0.10129311823E+02 -0.10055432384E+02  0.14308118240E+02  0.51100000000E-03 0.  1.
         12    1    3    3    0    0  0.10070921361E+02  0.37235300123E+02 -0.15880234425E+01  0.38605865497E+02  0.00000000000E+00 0. -1.
</event>
<event>
 7    1  0.6515090E-012  0.5930204E+02  0.7816164E-02  0.1266604E+00
        -11   -1    0    0    0    0  0.00000000000E+00  0.00000000000E+00  0.45593999997E+02  0.45594000000E+02  0.51100000000E-03 0. -1.
         11   -1    0    0    0    0 -0.00000000000E+00 -0.00000000000E+00 -0.45593999997E+02  0.45594000000E+02  0.51100000000E-03 0.  1.
    9900012    2    1    2    0    0 -0.22421167226E+02  0.16888580173E+02 -0.15125528794E+02  0.59302039119E+02  0.50000173423E+02 0.  0.
        -12    1    1    2    0    0  0.22421167226E+02 -0.16888580173E+02  0.15125528794E+02  0.31885960881E+02  0.00000000000E+00 0.  1.
         11    1    3    3    0    0 -0.13898490625E+01  0.90013863195E+01  0.95273334497E+01  0.13180543199E+02  0.51100000000E-03 0. -1.
        -11    1    3    3    0    0 -0.24472326997E+02  0.16255151010E+02 -0.15361889794E+02  0.33152863848E+02  0.51100000000E-03 0.  1.
         12    1    3    3    0    0  0.34410088334E+01 -0.83679571566E+01 -0.92909724494E+01  0.12968632072E+02  0.00000000000E+00 0. -1.
</event>
<event>
 7    1  0.6515090E-012  0.5930196E+02  0.7816164E-02  0.1266605E+00
        -11   -1    0    0    0    0  0.00000000000E+00  0.00000000000E+00  0.45593999997E+02  0.45594000000E+02  0.51100000000E-03 0. -1.
         11   -1    0    0    0    0 -0.00000000000E+00 -0.00000000000E+00 -0.45593999997E+02  0.45594000000E+02  0.51100000000E-03 0.  1.
    9900012    2    1    2    0    0 -0.24446652722E+02 -0.17568199959E+02  0.10508991725E+02  0.59301962520E+02  0.50000033725E+02 0.  0.
        -12    1    1    2    0    0  0.24446652722E+02  0.17568199959E+02 -0.10508991725E+02  0.31886037480E+02  0.00000000000E+00 0.  1.
         11    1    3    3    0    0 -0.15431208187E+02  0.99128638977E+01  0.13834927216E+02  0.22973729956E+02  0.51100000000E-03 0. -1.
        -11    1    3    3    0    0  0.65910311302E+01 -0.14208887046E+02 -0.76393222868E+00  0.15681765052E+02  0.51100000000E-03 0.  1.
        -12    1    3    3    0    0 -0.15606475665E+02 -0.13272176812E+02 -0.25620032620E+01  0.20646467512E+02  0.00000000000E+00 0.  1.
</event>
<event>
 7    1  0.6515090E-012  0.5930198E+02  0.7816164E-02  0.1266605E+00
        -11   -1    0    0    0    0  0.00000000000E+00  0.00000000000E+00  0.45593999997E+02  0.45594000000E+02  0.51100000000E-03 0. -1.
         11   -1    0    0    0    0 -0.00000000000E+00 -0.00000000000E+00 -0.45593999997E+02  0.45594000000E+02  0.51100000000E-03 0.  1.
    9900012    2    1    2    0    0 -0.31025751765E+02 -0.30889699069E+01  0.66767670277E+01  0.59301980719E+02  0.50000066916E+02 0.  0.
        -12    1    1    2    0    0  0.31025751765E+02  0.30889699069E+01 -0.66767670277E+01  0.31886019281E+02  0.00000000000E+00 0.  1.
         11    1    3    3    0    0 -0.20424493811E+01 -0.47033446600E+00 -0.35994454628E+00  0.21265874828E+01  0.51100000000E-03 0. -1.
        -11    1    3    3    0    0  0.25516389111E+01  0.13100729808E+02 -0.11269325361E+02  0.17468190432E+02  0.51100000000E-03 0.  1.
         12    1    3    3    0    0 -0.31534941295E+02 -0.15719365248E+02  0.18306036934E+02  0.39707202804E+02  0.00000000000E+00 0. -1.
</event>
<event>
 7    1  0.6515090E-012  0.5930196E+02  0.7816164E-02  0.1266605E+00
        -11   -1    0    0    0    0  0.00000000000E+00  0.00000000000E+00  0.45593999997E+02  0.45594000000E+02  0.51100000000E-03 0.  1.
         11   -1    0    0    0    0 -0.00000000000E+00 -0.00000000000E+00 -0.45593999997E+02  0.45594000000E+02  0.51100000000E-03 0. -1.
    9900012    2    1    2    0    0 -0.31595205621E+02 -0.19514477714E+01  0.38281264826E+01  0.59301957301E+02  0.50000024207E+02 0.  0.
        -12    1    1    2    0    0  0.31595205621E+02  0.19514477714E+01 -0.38281264826E+01  0.31886042699E+02  0.00000000000E+00 0.  1.
         11    1    3    3    0    0 -0.40961260668E+02 -0.16883586045E+00 -0.84345252107E+01  0.41820982735E+02  0.51100000000E-03 0. -1.
        -11    1    3    3    0    0 -0.12782413611E+01  0.78830923360E+00  0.13030995623E+01  0.19883161608E+01  0.51100000000E-03 0.  1.
         12    1    3    3    0    0  0.10644296408E+02 -0.25709211445E+01  0.10959552131E+02  0.15492658406E+02  0.00000000000E+00 0. -1.
</event>
<event>
 7    1  0.6515090E-012  0.5930189E+02  0.7816164E-02  0.1266605E+00
        -11   -1    0    0    0    0  0.00000000000E+00  0.00000000000E+00  0.45593999997E+02  0.45594000000E+02  0.51100000000E-03 0.  1.
         11   -1    0    0    0    0 -0.00000000000E+00 -0.00000000000E+00 -0.45593999997E+02  0.45594000000E+02  0.51100000000E-03 0. -1.
    9900012    2    1    2    0    0 -0.21022635960E+02 -0.39218511973E+01 -0.23651469264E+02  0.59301888010E+02  0.49999897836E+02 0.  0.
        -12    1    1    2    0    0  0.21022635960E+02  0.39218511973E+01  0.23651469264E+02  0.31886111990E+02  0.00000000000E+00 0.  1.
         11    1    3    3    0    0  0.98287607764E+01  0.44791825182E+01 -0.31743849724E+01  0.11258078639E+02  0.51100000000E-03 0.  1.
        -11    1    3    3    0    0 -0.16787765095E+01 -0.13563112249E+02 -0.84621226892E+01  0.16074321918E+02  0.51100000000E-03 0. -1.
        -12    1    3    3    0    0 -0.29172620227E+02  0.51620785335E+01 -0.12014961602E+02  0.31969487453E+02  0.00000000000E+00 0.  1.
</event>
<event>
 7    1  0.6515090E-012  0.5930191E+02  0.7816164E-02  0.1266605E+00
        -11   -1    0    0    0    0  0.00000000000E+00  0.00000000000E+00  0.45593999997E+02  0.45594000000E+02  0.51100000000E-03 0. -1.
         11   -1    0    0    0    0 -0.00000000000E+00 -0.00000000000E+00 -0.45593999997E+02  0.45594000000E+02  0.51100000000E-03 0.  1.
    9900012    2    1    2    0    0  0.64209139458E+01  0.25831706455E+02 -0.17556128384E+02  0.59301908391E+02  0.49999935007E+02 0.  0.
        -12    1    1    2    0    0 -0.64209139458E+01 -0.25831706455E+02  0.17556128384E+02  0.31886091609E+02  0.00000000000E+00 0.  1.
         11    1    3    3    0    0 -0.10116131160E+02  0.17201129081E+02  0.49189379278E+00  0.19961385500E+02  0.51100000000E-03 0. -1.
        -11    1    3    3    0    0  0.28023619902E+00  0.13130781183E+02 -0.18233599166E+02  0.22471316953E+02  0.51100000000E-03 0.  1.
        -12    1    3    3    0    0  0.16256808907E+02 -0.45002038086E+01  0.18557698987E+00  0.16869205938E+02  0.00000000000E+00 0.  1.
</event>
<event>
 7    1  0.6515090E-012  0.5930194E+02  0.7816164E-02  0.1266605E+00
        -11   -1    0    0    0    0  0.00000000000E+00  0.00000000000E+00  0.45593999997E+02  0.45594000000E+02  0.51100000000E-03 0. -1.
         11   -1    0    0    0    0 -0.00000000000E+00 -0.00000000000E+00 -0.45593999997E+02  0.45594000000E+02  0.51100000000E-03 0.  1.
    9900012    2    1    2    0    0 -0.27839667205E+02  0.67290520857E+01  0.14014048826E+02  0.59301940718E+02  0.49999993963E+02 0.  0.
        -12    1    1    2    0    0  0.27839667205E+02 -0.67290520857E+01 -0.14014048826E+02  0.31886059282E+02  0.00000000000E+00 0.  1.
         11    1    3    3    0    0 -0.52741776850E+01  0.38995573675E+01  0.21252362714E+02  0.22241547138E+02  0.51100000000E-03 0. -1.
        -11    1    3    3    0    0  0.25969479500E+01  0.43944528433E+01  0.65665856966E+01  0.83171751466E+01  0.51100000000E-03 0.  1.
        -12    1    3    3    0    0 -0.25162437470E+02 -0.15649581251E+01 -0.13804899584E+02  0.28743218433E+02  0.00000000000E+00 0.  1.
</event>
<event>
 7    1  0.6515090E-012  0.5930190E+02  0.7816164E-02  0.1266605E+00
        -11   -1    0    0    0    0  0.00000000000E+00  0.00000000000E+00  0.45593999997E+02  0.45594000000E+02  0.51100000000E-03 0. -1.
         11   -1    0    0    0    0 -0.00000000000E+00 -0.00000000000E+00 -0.45593999997E+02  0.45594000000E+02  0.51100000000E-03 0.  1.
    9900012    2    1    2    0    0 -0.47600459847E+01 -0.11477104248E+02  0.29365652485E+02  0.59301897924E+02  0.49999915918E+02 0.  0.
        -12    1    1    2    0    0  0.47600459847E+01  0.11477104248E+02 -0.29365652485E+02  0.31886102076E+02  0.00000000000E+00 0.  1.
         11    1    3    3    0    0 -0.95540304391E+01  0.26783585395E+01  0.43661702151E+01  0.10840504818E+02  0.51100000000E-03 0. -1.
        -11    1    3    3    0    0 -0.15711647776E+02  0.58162782411E+00  0.58728137890E+01  0.16783447465E+02  0.51100000000E-03 0.  1.
        -12    1    3    3    0    0  0.20505632230E+02 -0.14737090612E+02  0.19126668481E+02  0.31677945641E+02  0.00000000000E+00 0.  1.
</event>
<event>
 7    1  0.6515090E-012  0.5930195E+02  0.7816164E-02  0.1266605E+00
        -11   -1    0    0    0    0  0.00000000000E+00  0.00000000000E+00  0.45593999997E+02  0.45594000000E+02  0.51100000000E-03 0.  1.
         11   -1    0    0    0    0 -0.00000000000E+00 -0.00000000000E+00 -0.45593999997E+02  0.45594000000E+02  0.51100000000E-03 0. -1.
    9900012    2    1    2    0    0  0.56063665354E+01  0.31268779322E+02 -0.27481743090E+01  0.59301947124E+02  0.50000005646E+02 0.  0.
        -12    1    1    2    0    0 -0.56063665354E+01 -0.31268779322E+02  0.27481743090E+01  0.31886052876E+02  0.00000000000E+00 0.  1.
         11    1    3    3    0    0 -0.75609218637E+01  0.39568644305E+01 -0.18973778873E+01  0.87421026452E+01  0.51100000000E-03 0. -1.
        -11    1    3    3    0    0 -0.12635153497E+00 -0.95445536290E+01 -0.56408030746E+01  0.11087521286E+02  0.51100000000E-03 0.  1.
         12    1    3    3    0    0  0.13293639934E+02  0.36856468520E+02  0.47900066529E+01  0.39472323192E+02  0.00000000000E+00 0. -1.
</event>
<event>
 7    1  0.6515090E-012  0.5930194E+02  0.7816164E-02  0.1266605E+00
        -11   -1    0    0    0    0  0.00000000000E+00  0.00000000000E+00  0.45593999997E+02  0.45594000000E+02  0.51100000000E-03 0.  1.
         11   -1    0    0    0    0 -0.00000000000E+00 -0.00000000000E+00 -0.45593999997E+02  0.45594000000E+02  0.51100000000E-03 0. -1.
    9900012    2    1    2    0    0  0.11348445063E+02 -0.13238205324E+02 -0.26696130756E+02  0.59301942186E+02  0.49999996641E+02 0.  0.
        -12    1    1    2    0    0 -0.11348445063E+02  0.13238205324E+02  0.26696130756E+02  0.31886057814E+02  0.00000000000E+00 0.  1.
         11    1    3    3    0    0  0.20323120674E+02  0.39356244854E+01 -0.12776244266E+02  0.24325928386E+02  0.51100000000E-03 0.  1.
        -11    1    3    3    0    0  0.62402107383E+01  0.20631407902E+01 -0.67538902633E+01  0.94240020123E+01  0.51100000000E-03 0. -1.
        -12    1    3    3    0    0 -0.15214886350E+02 -0.19236970600E+02 -0.71659962268E+01  0.25552011788E+02  0.00000000000E+00 0.  1.
</event>
<event>
 7    1  0.6515090E-012  0.5930196E+02  0.7816164E-02  0.1266605E+00
        -11   -1    0    0    0    0  0.00000000000E+00  0.00000000000E+00  0.45593999997E+02  0.45594000000E+02  0.51100000000E-03 0.  1.
         11   -1    0    0    0    0 -0.00000000000E+00 -0.00000000000E+00 -0.45593999997E+02  0.45594000000E+02  0.51100000000E-03 0. -1.
    9900012    2    1    2    0    0 -0.41187892466E+01  0.38066559819E+01 -0.31388920925E+02  0.59301962124E+02  0.50000033002E+02 0.  0.
        -12    1    1    2    0    0  0.41187892466E+01 -0.38066559819E+01  0.31388920925E+02  0.31886037876E+02  0.00000000000E+00 0.  1.
         11    1    3    3    0    0  0.81707998935E+01 -0.19094168794E+01 -0.30426424852E+02  0.31562242843E+02  0.51100000000E-03 0. -1.
        -11    1    3    3    0    0  0.34546526015E+01  0.22214251118E+01 -0.88724130791E+01  0.97769662079E+01  0.51100000000E-03 0.  1.
         12    1    3    3    0    0 -0.15744241742E+02  0.34946477495E+01  0.79099170063E+01  0.17962753073E+02  0.00000000000E+00 0. -1.
</event>
<event>
 7    1  0.6515090E-012  0.5930198E+02  0.7816164E-02  0.1266605E+00
        -11   -1    0    0    0    0  0.00000000000E+00  0.00000000000E+00  0.45593999997E+02  0.45594000000E+02  0.51100000000E-03 0.  1.
         11   -1    0    0    0    0 -0.00000000000E+00 -0.00000000000E+00 -0.45593999997E+02  0.45594000000E+02  0.51100000000E-03 0. -1.
    9900012    2    1    2    0    0  0.23304520145E+01 -0.28123275957E+02  0.14844813057E+02  0.59301982189E+02  0.50000069597E+02 0.  0.
        -12    1    1    2    0    0 -0.23304520145E+01  0.28123275957E+02 -0.14844813057E+02  0.31886017811E+02  0.00000000000E+00 0.  1.
         11    1    3    3    0    0  0.39745652447E+01 -0.12233272380E+02 -0.23713563713E+01  0.13079505086E+02  0.51100000000E-03 0. -1.
        -11    1    3    3    0    0 -0.17995462700E+02 -0.93052010008E+01 -0.17441732748E+01  0.20333853155E+02  0.51100000000E-03 0.  1.
        -12    1    3    3    0    0  0.16351349470E+02 -0.65848025769E+01  0.18960342703E+02  0.25888623947E+02  0.00000000000E+00 0.  1.
</event>
<event>
 7    1  0.6515090E-012  0.5930194E+02  0.7816164E-02  0.1266605E+00
        -11   -1    0    0    0    0  0.00000000000E+00  0.00000000000E+00  0.45593999997E+02  0.45594000000E+02  0.51100000000E-03 0.  1.
         11   -1    0    0    0    0 -0.00000000000E+00 -0.00000000000E+00 -0.45593999997E+02  0.45594000000E+02  0.51100000000E-03 0. -1.
    9900012    2    1    2    0    0 -0.19094144144E+02  0.11034447510E+02 -0.23029883011E+02  0.59301939034E+02  0.49999990892E+02 0.  0.
        -12    1    1    2    0    0  0.19094144144E+02 -0.11034447510E+02  0.23029883011E+02  0.31886060966E+02  0.00000000000E+00 0.  1.
         11    1    3    3    0    0 -0.45844905524E+01  0.14454777921E+02 -0.20328936893E+02  0.25361857855E+02  0.51100000000E-03 0. -1.
        -11    1    3    3    0    0 -0.48855037149E+01  0.65686697009E+01 -0.13887228404E+02  0.16120504992E+02  0.51100000000E-03 0.  1.
        -12    1    3    3    0    0 -0.96241498771E+01 -0.99890001116E+01  0.11186282287E+02  0.17819576187E+02  0.00000000000E+00 0.  1.
</event>
<event>
 7    1  0.6515090E-012  0.5930196E+02  0.7816164E-02  0.1266605E+00
        -11   -1    0    0    0    0  0.00000000000E+00  0.00000000000E+00  0.45593999997E+02  0.45594000000E+02  0.51100000000E-03 0. -1.
         11   -1    0    0    0    0 -0.00000000000E+00 -0.00000000000E+00 -0.45593999997E+02  0.45594000000E+02  0.51100000000E-03 0.  1.
    9900012    2    1    2    0    0 -0.13422658219E+01  0.20843685555E+02 -0.24092713215E+02  0.59301957049E+02  0.50000023747E+02 0.  0.
        -12    1    1    2    0    0  0.13422658219E+01 -0.20843685555E+02  0.24092713215E+02  0.31886042951E+02  0.00000000000E+00 0.  1.
         11    1    3    3    0    0  0.70708537066E+01  0.18625157297E+02 -0.10094573998E+02  0.22333693848E+02  0.51100000000E-03 0. -1.
        -11    1    3    3    0    0  0.58143560186E+00  0.66594451604E+01 -0.22715422945E+02  0.23678613073E+02  0.51100000000E-03 0.  1.
         12    1    3    3    0    0 -0.89945551303E+01 -0.44409169020E+01  0.87172837280E+01  0.13289650128E+02  0.00000000000E+00 0. -1.
</event>
<event>
 7    1  0.6515090E-012  0.5930191E+02  0.7816164E-02  0.1266605E+00
        -11   -1    0    0    0    0  0.00000000000E+00  0.00000000000E+00  0.45593999997E+02  0.45594000000E+02  0.51100000000E-03 0. -1.
         11   -1    0    0    0    0 -0.00000000000E+00 -0.00000000000E+00 -0.45593999997E+02  0.45594000000E+02  0.51100000000E-03 0.  1.
    9900012    2    1    2    0    0  0.31630416652E+02 -0.75095692074E+00  0.39592028503E+01  0.59301913989E+02  0.49999945217E+02 0.  0.
        -12    1    1    2    0    0 -0.31630416652E+02  0.75095692074E+00 -0.39592028503E+01  0.31886086011E+02  0.00000000000E+00 0.  1.
         11    1    3    3    0    0  0.17081891305E+02 -0.38023432816E+01 -0.12340471279E+02  0.21413455037E+02  0.51100000000E-03 0. -1.
        -11    1    3    3    0    0  0.12238838160E+02  0.16506896376E+02  0.99792947567E+01  0.22844104526E+02  0.51100000000E-03 0.  1.
         12    1    3    3    0    0  0.23096871878E+01 -0.13455510015E+02  0.63203793729E+01  0.15044354426E+02  0.00000000000E+00 0. -1.
</event>
<event>
 7    1  0.6515090E-012  0.5930195E+02  0.7816164E-02  0.1266605E+00
        -11   -1    0    0    0    0  0.00000000000E+00  0.00000000000E+00  0.45593999997E+02  0.45594000000E+02  0.51100000000E-03 0. -1.
         11   -1    0    0    0    0 -0.00000000000E+00 -0.00000000000E+00 -0.45593999997E+02  0.45594000000E+02  0.51100000000E-03 0.  1.
    9900012    2    1    2    0    0  0.29035141194E+02 -0.83393998256E+01  0.10204660969E+02  0.59301951028E+02  0.50000012766E+02 0.  0.
        -12    1    1    2    0    0 -0.29035141194E+02  0.83393998256E+01 -0.10204660969E+02  0.31886048972E+02  0.00000000000E+00 0.  1.
         11    1    3    3    0    0  0.37958331496E+01 -0.57363614924E+00  0.81873518501E+01  0.90426842425E+01  0.51100000000E-03 0. -1.
        -11    1    3    3    0    0 -0.45809068989E+01  0.10023652441E+01  0.15636068096E+02  0.16324094764E+02  0.51100000000E-03 0.  1.
        -12    1    3    3    0    0  0.29820214943E+02 -0.87681289205E+01 -0.13618758977E+02  0.33935172021E+02  0.00000000000E+00 0.  1.
</event>
<event>
 7    1  0.6515090E-012  0.5930195E+02  0.7816164E-02  0.1266605E+00
        -11   -1    0    0    0    0  0.00000000000E+00  0.00000000000E+00  0.45593999997E+02  0.45594000000E+02  0.51100000000E-03 0.  1.
         11   -1    0    0    0    0 -0.00000000000E+00 -0.00000000000E+00 -0.45593999997E+02  0.45594000000E+02  0.51100000000E-03 0. -1.
    9900012    2    1    2    0    0  0.16056364460E+02  0.39274342817E+01 -0.27266984429E+02  0.59301952589E+02  0.50000015613E+02 0.  0.
        -12    1    1    2    0    0 -0.16056364460E+02 -0.39274342817E+01  0.27266984429E+02  0.31886047411E+02  0.00000000000E+00 0.  1.
         11    1    3    3    0    0 -0.77775080101E+01  0.13668289207E+02 -0.26619673113E+01  0.15949853634E+02  0.51100000000E-03 0. -1.
        -11    1    3    3    0    0  0.52663806358E+01  0.82738876658E+01 -0.73267699328E+01  0.12242284918E+02  0.51100000000E-03 0.  1.
         12    1    3    3    0    0  0.18567491834E+02 -0.18014742591E+02 -0.17278247185E+02  0.31109814037E+02  0.00000000000E+00 0. -1.
</event>
<event>
 7    1  0.6515090E-012  0.5930194E+02  0.7816164E-02  0.1266605E+00
        -11   -1    0    0    0    0  0.00000000000E+00  0.00000000000E+00  0.45593999997E+02  0.45594000000E+02  0.51100000000E-03 0.  1.
         11   -1    0    0    0    0 -0.00000000000E+00 -0.00000000000E+00 -0.45593999997E+02  0.45594000000E+02  0.51100000000E-03 0. -1.
    9900012    2    1    2    0    0  0.13213921386E+02  0.20951061536E+02 -0.20078992729E+02  0.59301942751E+02  0.49999997671E+02 0.  0.
        -12    1    1    2    0    0 -0.13213921386E+02 -0.20951061536E+02  0.20078992729E+02  0.31886057249E+02  0.00000000000E+00 0.  1.
         11    1    3    3    0    0 -0.77378629604E+01  0.16139328049E+01 -0.84665891395E+01  0.11582850867E+02  0.51100000000E-03 0. -1.
        -11    1    3    3    0    0 -0.89462645894E+01 -0.14547732702E+01  0.11370816727E+01  0.91348218572E+01  0.51100000000E-03 0.  1.
         12    1    3    3    0    0  0.29898048936E+02  0.20791902001E+02 -0.12749485262E+02  0.38584270026E+02  0.00000000000E+00 0. -1.
</event>
<event>
 7    1  0.6515090E-012  0.5930195E+02  0.7816164E-02  0.1266605E+00
        -11   -1    0    0    0    0  0.00000000000E+00  0.00000000000E+00  0.45593999997E+02  0.45594000000E+02  0.51100000000E-03 0.  1.
         11   -1    0    0    0    0 -0.00000000000E+00 -0.00000000000E+00 -0.45593999997E+02  0.45594000000E+02  0.51100000000E-03 0. -1.
    9900012    2    1    2    0    0 -0.41465445671E+01 -0.16165438062E+02 -0.27169932887E+02  0.59301945483E+02  0.50000002654E+02 0.  0.
        -12    1    1    2    0    0  0.41465445671E+01  0.16165438062E+02  0.27169932887E+02  0.31886054517E+02  0.00000000000E+00 0.  1.
         11    1    3    3    0    0 -0.13883875870E+02  0.55655573229E+01 -0.25117026431E+02  0.29233584359E+02  0.51100000000E-03 0.  1.
        -11    1    3    3    0    0  0.98796501383E+01 -0.16136725192E+02 -0.91607822443E+01  0.21021924707E+02  0.51100000000E-03 0. -1.
        -12    1    3    3    0    0 -0.14231883568E+00 -0.55942701920E+01  0.71078757882E+01  0.90464364173E+01  0.00000000000E+00 0.  1.
</event>
<event>
 7    1  0.6515090E-012  0.5930193E+02  0.7816164E-02  0.1266605E+00
        -11   -1    0    0    0    0  0.00000000000E+00  0.00000000000E+00  0.45593999997E+02  0.45594000000E+02  0.51100000000E-03 0. -1.
         11   -1    0    0    0    0 -0.00000000000E+00 -0.00000000000E+00 -0.45593999997E+02  0.45594000000E+02  0.51100000000E-03 0.  1.
    9900012    2    1    2    0    0 -0.28609467256E+01 -0.22470992371E+02  0.22440833857E+02  0.59301928770E+02  0.49999972173E+02 0.  0.
        -12    1    1    2    0    0  0.28609467256E+01  0.22470992371E+02 -0.22440833857E+02  0.31886071230E+02  0.00000000000E+00 0.  1.
         11    1    3    3    0    0  0.19410046820E+02 -0.24315610510E+02  0.11467382078E+02  0.33158704498E+02  0.51100000000E-03 0.  1.
        -11    1    3    3    0    0 -0.11172210836E+02 -0.22612281291E+00  0.96705557078E+01  0.14777992910E+02  0.51100000000E-03 0. -1.
        -12    1    3    3    0    0 -0.11098782710E+02  0.20707409519E+01  0.13028960712E+01  0.11365231361E+02  0.00000000000E+00 0.  1.
</event>
<event>
 7    1  0.6515090E-012  0.5930194E+02  0.7816164E-02  0.1266605E+00
        -11   -1    0    0    0    0  0.00000000000E+00  0.00000000000E+00  0.45593999997E+02  0.45594000000E+02  0.51100000000E-03 0.  1.
         11   -1    0    0    0    0 -0.00000000000E+00 -0.00000000000E+00 -0.45593999997E+02  0.45594000000E+02  0.51100000000E-03 0. -1.
    9900012    2    1    2    0    0 -0.26460199408E+01  0.97244516248E+01 -0.30251515623E+02  0.59301943824E+02  0.49999999629E+02 0.  0.
        -12    1    1    2    0    0  0.26460199408E+01 -0.97244516248E+01  0.30251515623E+02  0.31886056176E+02  0.00000000000E+00 0.  1.
         11    1    3    3    0    0 -0.12018092340E+01 -0.95429654356E+01 -0.47872619233E+00  0.96302499328E+01  0.51100000000E-03 0. -1.
        -11    1    3    3    0    0  0.11131204125E+02 -0.47969082674E+01 -0.57392958818E+01  0.13410948948E+02  0.51100000000E-03 0.  1.
         12    1    3    3    0    0 -0.12575414832E+02  0.24064325328E+02 -0.24033493549E+02  0.36260744943E+02  0.00000000000E+00 0. -1.
</event>
<event>
 7    1  0.6515090E-012  0.5930192E+02  0.7816164E-02  0.1266605E+00
        -11   -1    0    0    0    0  0.00000000000E+00  0.00000000000E+00  0.45593999997E+02  0.45594000000E+02  0.51100000000E-03 0. -1.
         11   -1    0    0    0    0 -0.00000000000E+00 -0.00000000000E+00 -0.45593999997E+02  0.45594000000E+02  0.51100000000E-03 0.  1.
    9900012    2    1    2    0    0 -0.48379887055E+01 -0.19336612857E+02  0.24887982057E+02  0.59301915537E+02  0.49999948040E+02 0.  0.
        -12    1    1    2    0    0  0.48379887055E+01  0.19336612857E+02 -0.24887982057E+02  0.31886084463E+02  0.00000000000E+00 0.  1.
         11    1    3    3    0    0  0.95322856874E+01 -0.14655634563E+02  0.12947045558E+02  0.21754955385E+02  0.51100000000E-03 0. -1.
        -11    1    3    3    0    0  0.83716868065E+01  0.86675767036E+00 -0.39059656858E+01  0.92786301276E+01  0.51100000000E-03 0.  1.
        -12    1    3    3    0    0 -0.22741961199E+02 -0.55477359644E+01  0.15846902185E+02  0.28268330025E+02  0.00000000000E+00 0.  1.
</event>
<event>
 7    1  0.6515090E-012  0.5930195E+02  0.7816164E-02  0.1266605E+00
        -11   -1    0    0    0    0  0.00000000000E+00  0.00000000000E+00  0.45593999997E+02  0.45594000000E+02  0.51100000000E-03 0.  1.
         11   -1    0    0    0    0 -0.00000000000E+00 -0.00000000000E+00 -0.45593999997E+02  0.45594000000E+02  0.51100000000E-03 0. -1.
    9900012    2    1    2    0    0 -0.40188983568E+01  0.19579231414E+02 -0.24843964411E+02  0.59301946397E+02  0.50000004320E+02 0.  0.
        -12    1    1    2    0    0  0.40188983568E+01 -0.19579231414E+02  0.24843964411E+02  0.31886053603E+02  0.00000000000E+00 0.  1.
         11    1    3    3    0    0 -0.27011353479E+01  0.10214864334E+01  0.11379891003E-01  0.28878532622E+01  0.51100000000E-03 0. -1.
        -11    1    3    3    0    0  0.37692901079E-01 -0.95892052016E+01  0.84540475969E+01  0.12783786535E+02  0.51100000000E-03 0.  1.
         12    1    3    3    0    0 -0.13554559100E+01  0.28146950182E+02 -0.33309391899E+02  0.43630306599E+02  0.00000000000E+00 0. -1.
</event>
<event>
 7    1  0.6515090E-012  0.5930194E+02  0.7816164E-02  0.1266605E+00
        -11   -1    0    0    0    0  0.00000000000E+00  0.00000000000E+00  0.45593999997E+02  0.45594000000E+02  0.51100000000E-03 0. -1.
         11   -1    0    0    0    0 -0.00000000000E+00 -0.00000000000E+00 -0.45593999997E+02  0.45594000000E+02  0.51100000000E-03 0.  1.
    9900012    2    1    2    0    0 -0.38910515463E+01 -0.28674075265E+02  0.13393207614E+02  0.59301939023E+02  0.49999990873E+02 0.  0.
        -12    1    1    2    0    0  0.38910515463E+01  0.28674075265E+02 -0.13393207614E+02  0.31886060977E+02  0.00000000000E+00 0.  1.
         11    1    3    3    0    0 -0.52881404287E+01  0.96300243733E+00  0.70326740040E+01  0.88515708660E+01  0.51100000000E-03 0.  1.
        -11    1    3    3    0    0 -0.16861782294E+02 -0.23888333501E+02 -0.25199561578E+01  0.29348293969E+02  0.51100000000E-03 0. -1.
         12    1    3    3    0    0  0.18258871177E+02 -0.57487442007E+01  0.88804897674E+01  0.21102074188E+02  0.00000000000E+00 0. -1.
</event>
<event>
 7    1  0.6515090E-012  0.5930185E+02  0.7816164E-02  0.1266605E+00
        -11   -1    0    0    0    0  0.00000000000E+00  0.00000000000E+00  0.45593999997E+02  0.45594000000E+02  0.51100000000E-03 0. -1.
         11   -1    0    0    0    0 -0.00000000000E+00 -0.00000000000E+00 -0.45593999997E+02  0.45594000000E+02  0.51100000000E-03 0.  1.
    9900012    2    1    2    0    0  0.17502599255E+02  0.19257926954E+02  0.18426006121E+02  0.59301852023E+02  0.49999832205E+02 0.  0.
        -12    1    1    2    0    0 -0.17502599255E+02 -0.19257926954E+02 -0.18426006121E+02  0.31886147977E+02  0.00000000000E+00 0.  1.
         11    1    3    3    0    0 -0.34097481591E+01  0.73716602915E+01 -0.41610961257E+01  0.91259234705E+01  0.51100000000E-03 0. -1.
        -11    1    3    3    0    0 -0.95795023961E+01  0.10354522178E+02  0.91892407419E+01  0.16835235115E+02  0.51100000000E-03 0.  1.
        -12    1    3    3    0    0  0.30491849810E+02  0.15317444843E+01  0.13397861505E+02  0.33340693437E+02  0.00000000000E+00 0.  1.
</event>
<event>
 7    1  0.6515090E-012  0.5930195E+02  0.7816164E-02  0.1266605E+00
        -11   -1    0    0    0    0  0.00000000000E+00  0.00000000000E+00  0.45593999997E+02  0.45594000000E+02  0.51100000000E-03 0.  1.
         11   -1    0    0    0    0 -0.00000000000E+00 -0.00000000000E+00 -0.45593999997E+02  0.45594000000E+02  0.51100000000E-03 0. -1.
    9900012    2    1    2    0    0  0.14678774145E+02  0.23767439191E+02 -0.15374083102E+02  0.59301952780E+02  0.50000015962E+02 0.  0.
        -12    1    1    2    0    0 -0.14678774145E+02 -0.23767439191E+02  0.15374083102E+02  0.31886047220E+02  0.00000000000E+00 0.  1.
         11    1    3    3    0    0 -0.43519321870E+01  0.15339666066E+02 -0.24113272623E+02  0.28908382619E+02  0.51100000000E-03 0. -1.
        -11    1    3    3    0    0  0.31155903249E+01  0.22800107970E+01 -0.64719968185E+01  0.75360530377E+01  0.51100000000E-03 0.  1.
        -12    1    3    3    0    0  0.15915116007E+02  0.61477623284E+01  0.15211186340E+02  0.22857517123E+02  0.00000000000E+00 0.  1.
</event>
<event>
 7    1  0.6515090E-012  0.5930190E+02  0.7816164E-02  0.1266605E+00
        -11   -1    0    0    0    0  0.00000000000E+00  0.00000000000E+00  0.45593999997E+02  0.45594000000E+02  0.51100000000E-03 0. -1.
         11   -1    0    0    0    0 -0.00000000000E+00 -0.00000000000E+00 -0.45593999997E+02  0.45594000000E+02  0.51100000000E-03 0.  1.
    9900012    2    1    2    0    0 -0.25443929132E+02  0.18779399914E+02 -0.40821718160E+01  0.59301897737E+02  0.49999915576E+02 0.  0.
        -12    1    1    2    0    0  0.25443929132E+02 -0.18779399914E+02  0.40821718160E+01  0.31886102263E+02  0.00000000000E+00 0.  1.
         11    1    3    3    0    0  0.80567950410E+00 -0.16185627486E+01  0.25469219375E+00  0.18258513656E+01  0.51100000000E-03 0. -1.
        -11    1    3    3    0    0 -0.26864884039E+01 -0.26640405077E+01 -0.20436966175E+02  0.20784222826E+02  0.51100000000E-03 0.  1.
         12    1    3    3    0    0 -0.23563120232E+02  0.23062003171E+02  0.16100102166E+02  0.36691823545E+02  0.00000000000E+00 0. -1.
</event>
<event>
 7    1  0.6515090E-012  0.5930197E+02  0.7816164E-02  0.1266605E+00
        -11   -1    0    0    0    0  0.00000000000E+00  0.00000000000E+00  0.45593999997E+02  0.45594000000E+02  0.51100000000E-03 0.  1.
         11   -1    0    0    0    0 -0.00000000000E+00 -0.00000000000E+00 -0.45593999997E+02  0.45594000000E+02  0.51100000000E-03 0. -1.
    9900012    2    1    2    0    0 -0.14750604580E+02  0.21910168373E+02  0.17862896187E+02  0.59301970554E+02  0.50000048378E+02 0.  0.
        -12    1    1    2    0    0  0.14750604580E+02 -0.21910168373E+02 -0.17862896187E+02  0.31886029446E+02  0.00000000000E+00 0.  1.
         11    1    3    3    0    0 -0.52171503395E+00 -0.26866385655E+01 -0.32751108521E+01  0.42680867743E+01  0.51100000000E-03 0.  1.
        -11    1    3    3    0    0 -0.39474324963E+01  0.39060362778E+01  0.29834498204E+02  0.30346937672E+02  0.51100000000E-03 0. -1.
         12    1    3    3    0    0 -0.10281457050E+02  0.20690770660E+02 -0.86964911643E+01  0.24686946108E+02  0.00000000000E+00 0. -1.
</event>
<event>
 7    1  0.6515090E-012  0.5930191E+02  0.7816164E-02  0.1266605E+00
        -11   -1    0    0    0    0  0.00000000000E+00  0.00000000000E+00  0.45593999997E+02  0.45594000000E+02  0.51100000000E-03 0. -1.
         11   -1    0    0    0    0 -0.00000000000E+00 -0.00000000000E+00 -0.45593999997E+02  0.45594000000E+02  0.51100000000E-03 0.  1.
    9900012    2    1    2    0    0 -0.15435668535E+02 -0.20530353078E+02  0.18893574586E+02  0.59301914927E+02  0.49999946928E+02 0.  0.
        -12    1    1    2    0    0  0.15435668535E+02  0.20530353078E+02 -0.18893574586E+02  0.31886085073E+02  0.00000000000E+00 0.  1.
         11    1    3    3    0    0 -0.89431788835E+01 -0.16557796318E+02  0.10459707915E+02  0.21530131383E+02  0.51100000000E-03 0. -1.
        -11    1    3    3    0    0 -0.12745978391E+01 -0.18181381767E+02  0.12497483723E+02  0.22099193249E+02  0.51100000000E-03 0.  1.
        -12    1    3    3    0    0 -0.52178918126E+01  0.14208825006E+02 -0.40636170514E+01  0.15672590295E+02  0.00000000000E+00 0.  1.
</event>
<event>
 7    1  0.6515090E-012  0.5930196E+02  0.7816164E-02  0.1266605E+00
        -11   -1    0    0    0    0  0.00000000000E+00  0.00000000000E+00  0.45593999997E+02  0.45594000000E+02  0.51100000000E-03 0. -1.
         11   -1    0    0    0    0 -0.00000000000E+00 -0.00000000000E+00 -0.45593999997E+02  0.45594000000E+02  0.51100000000E-03 0.  1.
    9900012    2    1    2    0    0  0.73626722040E+01 -0.30055621110E+02  0.76922348920E+01  0.59301956346E+02  0.50000022465E+02 0.  0.
        -12    1    1    2    0    0 -0.73626722040E+01  0.30055621110E+02 -0.76922348920E+01  0.31886043654E+02  0.00000000000E+00 0.  1.
         11    1    3    3    0    0  0.78992776680E+01  0.10040257340E+01  0.13318740297E+01  0.80734468502E+01  0.51100000000E-03 0. -1.
        -11    1    3    3    0    0  0.17762660780E+02 -0.85371894068E+01 -0.45495648256E+01  0.20226078743E+02  0.51100000000E-03 0.  1.
         12    1    3    3    0    0 -0.18299266244E+02 -0.22522457437E+02  0.10909925688E+02  0.31002430753E+02  0.00000000000E+00 0. -1.
</event>
<event>
 7    1  0.6515090E-012  0.5930195E+02  0.7816164E-02  0.1266605E+00
        -11   -1    0    0    0    0  0.00000000000E+00  0.00000000000E+00  0.45593999997E+02  0.45594000000E+02  0.51100000000E-03 0.  1.
         11   -1    0    0    0    0 -0.00000000000E+00 -0.00000000000E+00 -0.45593999997E+02  0.45594000000E+02  0.51100000000E-03 0. -1.
    9900012    2    1    2    0    0  0.53941050734E+01  0.11778650755E+02 -0.29135673871E+02  0.59301945445E+02  0.50000002585E+02 0.  0.
        -12    1    1    2    0    0 -0.53941050734E+01 -0.11778650755E+02  0.29135673871E+02  0.31886054555E+02  0.00000000000E+00 0.  1.
         11    1    3    3    0    0  0.74615810184E+01  0.23407008649E+02 -0.13305441925E+02  0.27939184495E+02  0.51100000000E-03 0. -1.
        -11    1    3    3    0    0 -0.80060438453E+01  0.46967952593E+01 -0.82146510036E+01  0.12395043975E+02  0.51100000000E-03 0.  1.
         12    1    3    3    0    0  0.59385679004E+01 -0.16325153153E+02 -0.76155809422E+01  0.18967716976E+02  0.00000000000E+00 0. -1.
</event>
<event>
 7    1  0.6515090E-012  0.5930206E+02  0.7816164E-02  0.1266604E+00
        -11   -1    0    0    0    0  0.00000000000E+00  0.00000000000E+00  0.45593999997E+02  0.45594000000E+02  0.51100000000E-03 0. -1.
         11   -1    0    0    0    0 -0.00000000000E+00 -0.00000000000E+00 -0.45593999997E+02  0.45594000000E+02  0.51100000000E-03 0.  1.
    9900012    2    1    2    0    0 -0.11639084467E+01 -0.29254155111E+02  0.12631433360E+02  0.59302056657E+02  0.50000205409E+02 0.  0.
        -12    1    1    2    0    0  0.11639084467E+01  0.29254155111E+02 -0.12631433360E+02  0.31885943343E+02  0.00000000000E+00 0.  1.
         11    1    3    3    0    0  0.82008380618E+01 -0.30932408256E+02  0.14793715436E+02  0.35255093847E+02  0.51100000000E-03 0. -1.
        -11    1    3    3    0    0  0.64470568762E+01 -0.22612489703E+01  0.22007054406E+01  0.71778056513E+01  0.51100000000E-03 0.  1.
         12    1    3    3    0    0 -0.15811803385E+02  0.39395021157E+01 -0.43629875171E+01  0.16869157159E+02  0.00000000000E+00 0. -1.
</event>
<event>
 7    1  0.6515090E-012  0.5930195E+02  0.7816164E-02  0.1266605E+00
        -11   -1    0    0    0    0  0.00000000000E+00  0.00000000000E+00  0.45593999997E+02  0.45594000000E+02  0.51100000000E-03 0. -1.
         11   -1    0    0    0    0 -0.00000000000E+00 -0.00000000000E+00 -0.45593999997E+02  0.45594000000E+02  0.51100000000E-03 0.  1.
    9900012    2    1    2    0    0  0.22340668833E+02 -0.16284901482E+02  0.15887619986E+02  0.59301953381E+02  0.50000017058E+02 0.  0.
        -12    1    1    2    0    0 -0.22340668833E+02  0.16284901482E+02 -0.15887619986E+02  0.31886046619E+02  0.00000000000E+00 0.  1.
         11    1    3    3    0    0  0.22121070102E+02 -0.10462018735E+02  0.15402664973E+02  0.28914315953E+02  0.51100000000E-03 0. -1.
        -11    1    3    3    0    0 -0.27315963453E+01 -0.16623569433E+02 -0.54618026656E+01  0.17709770408E+02  0.51100000000E-03 0.  1.
         12    1    3    3    0    0  0.29511950757E+01  0.10800686687E+02  0.59467576786E+01  0.12677867020E+02  0.00000000000E+00 0. -1.
</event>
<event>
 7    1  0.6515090E-012  0.5930195E+02  0.7816164E-02  0.1266605E+00
        -11   -1    0    0    0    0  0.00000000000E+00  0.00000000000E+00  0.45593999997E+02  0.45594000000E+02  0.51100000000E-03 0.  1.
         11   -1    0    0    0    0 -0.00000000000E+00 -0.00000000000E+00 -0.45593999997E+02  0.45594000000E+02  0.51100000000E-03 0. -1.
    9900012    2    1    2    0    0  0.18199167647E+02 -0.15186341911E+02 -0.21328046882E+02  0.59301948701E+02  0.50000008522E+02 0.  0.
        -12    1    1    2    0    0 -0.18199167647E+02  0.15186341911E+02  0.21328046882E+02  0.31886051299E+02  0.00000000000E+00 0.  1.
         11    1    3    3    0    0 -0.50956645102E+01 -0.16374457131E+01 -0.88819470100E+01  0.10369957002E+02  0.51100000000E-03 0. -1.
        -11    1    3    3    0    0 -0.15898948575E+01 -0.68100050288E+00  0.11773145722E+02  0.11899516284E+02  0.51100000000E-03 0.  1.
        -12    1    3    3    0    0  0.24884727014E+02 -0.12867895695E+02 -0.24219245594E+02  0.37032475415E+02  0.00000000000E+00 0.  1.
</event>
<event>
 7    1  0.6515090E-012  0.5930195E+02  0.7816164E-02  0.1266605E+00
        -11   -1    0    0    0    0  0.00000000000E+00  0.00000000000E+00  0.45593999997E+02  0.45594000000E+02  0.51100000000E-03 0.  1.
         11   -1    0    0    0    0 -0.00000000000E+00 -0.00000000000E+00 -0.45593999997E+02  0.45594000000E+02  0.51100000000E-03 0. -1.
    9900012    2    1    2    0    0  0.25905738915E+02  0.11308091469E+02 -0.14756014066E+02  0.59301949876E+02  0.50000010665E+02 0.  0.
        -12    1    1    2    0    0 -0.25905738915E+02 -0.11308091469E+02  0.14756014066E+02  0.31886050124E+02  0.00000000000E+00 0.  1.
         11    1    3    3    0    0  0.12730600305E+02 -0.90905309206E+01  0.49933323656E+01  0.16420697455E+02  0.51100000000E-03 0. -1.
        -11    1    3    3    0    0  0.19795727212E+02  0.77009529348E+01 -0.40347706683E+01  0.21620704581E+02  0.51100000000E-03 0.  1.
         12    1    3    3    0    0 -0.66205886017E+01  0.12697669455E+02 -0.15714575764E+02  0.21260547840E+02  0.00000000000E+00 0. -1.
</event>
<event>
 7    1  0.6515090E-012  0.5930194E+02  0.7816164E-02  0.1266605E+00
        -11   -1    0    0    0    0  0.00000000000E+00  0.00000000000E+00  0.45593999997E+02  0.45594000000E+02  0.51100000000E-03 0.  1.
         11   -1    0    0    0    0 -0.00000000000E+00 -0.00000000000E+00 -0.45593999997E+02  0.45594000000E+02  0.51100000000E-03 0. -1.
    9900012    2    1    2    0    0 -0.14015513087E+02  0.10666866276E+02 -0.26580148374E+02  0.59301938299E+02  0.49999989552E+02 0.  0.
        -12    1    1    2    0    0  0.14015513087E+02 -0.10666866276E+02  0.26580148374E+02  0.31886061701E+02  0.00000000000E+00 0.  1.
         11    1    3    3    0    0 -0.15984162337E+01  0.12421552325E+02 -0.28738600232E+02  0.31348955967E+02  0.51100000000E-03 0. -1.
        -11    1    3    3    0    0  0.41301217750E+01  0.24824806915E+01 -0.70564098315E+01  0.85447958566E+01  0.51100000000E-03 0.  1.
        -12    1    3    3    0    0 -0.16547218628E+02 -0.42371667406E+01  0.92148616897E+01  0.19408186476E+02  0.00000000000E+00 0.  1.
</event>
<event>
 7    1  0.6515090E-012  0.5930195E+02  0.7816164E-02  0.1266605E+00
        -11   -1    0    0    0    0  0.00000000000E+00  0.00000000000E+00  0.45593999997E+02  0.45594000000E+02  0.51100000000E-03 0.  1.
         11   -1    0    0    0    0 -0.00000000000E+00 -0.00000000000E+00 -0.45593999997E+02  0.45594000000E+02  0.51100000000E-03 0. -1.
    9900012    2    1    2    0    0 -0.14890853978E+02  0.23630986705E+02 -0.15380473311E+02  0.59301952517E+02  0.50000015482E+02 0.  0.
        -12    1    1    2    0    0  0.14890853978E+02 -0.23630986705E+02  0.15380473311E+02  0.31886047483E+02  0.00000000000E+00 0.  1.
         11    1    3    3    0    0 -0.78081199586E+01  0.27835849014E+01 -0.68238423091E+01  0.10736848062E+02  0.51100000000E-03 0. -1.
        -11    1    3    3    0    0 -0.24425391683E+02  0.91524274037E+01 -0.91418261424E+01  0.27639458601E+02  0.51100000000E-03 0.  1.
        -12    1    3    3    0    0  0.17342657664E+02  0.11694974400E+02  0.58519514059E+00  0.20925645854E+02  0.00000000000E+00 0.  1.
</event>
<event>
 7    1  0.6515090E-012  0.5930187E+02  0.7816164E-02  0.1266605E+00
        -11   -1    0    0    0    0  0.00000000000E+00  0.00000000000E+00  0.45593999997E+02  0.45594000000E+02  0.51100000000E-03 0.  1.
         11   -1    0    0    0    0 -0.00000000000E+00 -0.00000000000E+00 -0.45593999997E+02  0.45594000000E+02  0.51100000000E-03 0. -1.
    9900012    2    1    2    0    0  0.78695230083E+00 -0.19515737421E+02 -0.25204001356E+02  0.59301874720E+02  0.49999873598E+02 0.  0.
        -12    1    1    2    0    0 -0.78695230083E+00  0.19515737421E+02  0.25204001356E+02  0.31886125280E+02  0.00000000000E+00 0.  1.
         11    1    3    3    0    0 -0.33381709269E+01 -0.16397374211E+02 -0.13480642239E+02  0.21488252177E+02  0.51100000000E-03 0. -1.
        -11    1    3    3    0    0 -0.91974437468E+01  0.92099495505E+01 -0.14461880663E+02  0.19456673271E+02  0.51100000000E-03 0.  1.
         12    1    3    3    0    0  0.13322566975E+02 -0.12328312760E+02  0.27385215461E+01  0.18356949272E+02  0.00000000000E+00 0. -1.
</event>
<event>
 7    1  0.6515090E-012  0.5930194E+02  0.7816164E-02  0.1266605E+00
        -11   -1    0    0    0    0  0.00000000000E+00  0.00000000000E+00  0.45593999997E+02  0.45594000000E+02  0.51100000000E-03 0.  1.
         11   -1    0    0    0    0 -0.00000000000E+00 -0.00000000000E+00 -0.45593999997E+02  0.45594000000E+02  0.51100000000E-03 0. -1.
    9900012    2    1    2    0    0  0.20399904270E+02 -0.10740473059E+01 -0.24482872286E+02  0.59301941805E+02  0.49999995947E+02 0.  0.
        -12    1    1    2    0    0 -0.20399904270E+02  0.10740473059E+01  0.24482872286E+02  0.31886058195E+02  0.00000000000E+00 0.  1.
         11    1    3    3    0    0  0.94718863053E+00  0.51295728320E+01  0.19487778025E+01  0.55684305621E+01  0.51100000000E-03 0. -1.
        -11    1    3    3    0    0  0.55234690900E+01  0.69274819332E+01  0.95188107393E+01  0.13004094543E+02  0.51100000000E-03 0.  1.
         12    1    3    3    0    0  0.13929246549E+02 -0.13131102071E+02 -0.35950460828E+02  0.40729416700E+02  0.00000000000E+00 0. -1.
</event>
<event>
 7    1  0.6515090E-012  0.5930193E+02  0.7816164E-02  0.1266605E+00
        -11   -1    0    0    0    0  0.00000000000E+00  0.00000000000E+00  0.45593999997E+02  0.45594000000E+02  0.51100000000E-03 0.  1.
         11   -1    0    0    0    0 -0.00000000000E+00 -0.00000000000E+00 -0.45593999997E+02  0.45594000000E+02  0.51100000000E-03 0. -1.
    9900012    2    1    2    0    0 -0.16716649134E+02  0.25665348217E+02  0.88636926660E+01  0.59301929294E+02  0.49999973129E+02 0.  0.
        -12    1    1    2    0    0  0.16716649134E+02 -0.25665348217E+02 -0.88636926660E+01  0.31886070706E+02  0.00000000000E+00 0.  1.
         11    1    3    3    0    0 -0.94666866317E+01 -0.31146187044E+00  0.87902672867E+01  0.12922227498E+02  0.51100000000E-03 0. -1.
        -11    1    3    3    0    0 -0.46194599795E+01 -0.40204624070E+00 -0.15126696342E+02  0.15821440964E+02  0.51100000000E-03 0.  1.
         12    1    3    3    0    0 -0.26305025231E+01  0.26378856329E+02  0.15200121721E+02  0.30558260832E+02  0.00000000000E+00 0. -1.
</event>
<event>
 7    1  0.6515090E-012  0.5930191E+02  0.7816164E-02  0.1266605E+00
        -11   -1    0    0    0    0  0.00000000000E+00  0.00000000000E+00  0.45593999997E+02  0.45594000000E+02  0.51100000000E-03 0. -1.
         11   -1    0    0    0    0 -0.00000000000E+00 -0.00000000000E+00 -0.45593999997E+02  0.45594000000E+02  0.51100000000E-03 0.  1.
    9900012    2    1    2    0    0  0.21425131142E+02 -0.21897345842E+02  0.88426809244E+01  0.59301905769E+02  0.49999930225E+02 0.  0.
        -12    1    1    2    0    0 -0.21425131142E+02  0.21897345842E+02 -0.88426809244E+01  0.31886094231E+02  0.00000000000E+00 0.  1.
         11    1    3    3    0    0  0.65613089636E+01 -0.14142595335E+02  0.16788310121E+02  0.22910939201E+02  0.51100000000E-03 0. -1.
        -11    1    3    3    0    0  0.54184314634E+01  0.70443007356E+01  0.85272206494E+01  0.12316455036E+02  0.51100000000E-03 0.  1.
        -12    1    3    3    0    0  0.94453907148E+01 -0.14799051243E+02 -0.16472849846E+02  0.24074511532E+02  0.00000000000E+00 0.  1.
</event>
<event>
 7    1  0.6515090E-012  0.5930195E+02  0.7816164E-02  0.1266605E+00
        -11   -1    0    0    0    0  0.00000000000E+00  0.00000000000E+00  0.45593999997E+02  0.45594000000E+02  0.51100000000E-03 0.  1.
         11   -1    0    0    0    0 -0.00000000000E+00 -0.00000000000E+00 -0.45593999997E+02  0.45594000000E+02  0.51100000000E-03 0. -1.
    9900012    2    1    2    0    0  0.68817148575E+01 -0.17619633201E+02 -0.25669252598E+02  0.59301952856E+02  0.50000016100E+02 0.  0.
        -12    1    1    2    0    0 -0.68817148575E+01  0.17619633201E+02  0.25669252598E+02  0.31886047144E+02  0.00000000000E+00 0.  1.
         11    1    3    3    0    0  0.96843814992E-01  0.47125626330E+01 -0.78471159717E+01  0.91539529510E+01  0.51100000000E-03 0. -1.
        -11    1    3    3    0    0 -0.44631950315E+01  0.67891127103E+01  0.66355413773E+01  0.10490117774E+02  0.51100000000E-03 0.  1.
        -12    1    3    3    0    0  0.11248066074E+02 -0.29121308545E+02 -0.24457678004E+02  0.39657882131E+02  0.00000000000E+00 0.  1.
</event>
<event>
 7    1  0.6515090E-012  0.5930186E+02  0.7816164E-02  0.1266605E+00
        -11   -1    0    0    0    0  0.00000000000E+00  0.00000000000E+00  0.45593999997E+02  0.45594000000E+02  0.51100000000E-03 0. -1.
         11   -1    0    0    0    0 -0.00000000000E+00 -0.00000000000E+00 -0.45593999997E+02  0.45594000000E+02  0.51100000000E-03 0.  1.
    9900012    2    1    2    0    0 -0.28032039814E+02  0.13994665291E+02  0.59228592645E+01  0.59301856072E+02  0.49999839589E+02 0.  0.
        -12    1    1    2    0    0  0.28032039814E+02 -0.13994665291E+02 -0.59228592645E+01  0.31886143928E+02  0.00000000000E+00 0.  1.
         11    1    3    3    0    0 -0.75910556039E+01  0.92909187650E+01 -0.74517789887E+01  0.14123537341E+02  0.51100000000E-03 0. -1.
        -11    1    3    3    0    0 -0.58868236478E+01  0.11280192837E+02 -0.10470938430E+02  0.16478409965E+02  0.51100000000E-03 0.  1.
         12    1    3    3    0    0 -0.14554160562E+02 -0.65764463109E+01  0.23845576684E+02  0.28699908765E+02  0.00000000000E+00 0. -1.
</event>
<event>
 7    1  0.6515090E-012  0.5930194E+02  0.7816164E-02  0.1266605E+00
        -11   -1    0    0    0    0  0.00000000000E+00  0.00000000000E+00  0.45593999997E+02  0.45594000000E+02  0.51100000000E-03 0. -1.
         11   -1    0    0    0    0 -0.00000000000E+00 -0.00000000000E+00 -0.45593999997E+02  0.45594000000E+02  0.51100000000E-03 0.  1.
    9900012    2    1    2    0    0 -0.20027333873E+02 -0.97313762960E+01  0.22823819223E+02  0.59301944888E+02  0.50000001568E+02 0.  0.
        -12    1    1    2    0    0  0.20027333873E+02  0.97313762960E+01 -0.22823819223E+02  0.31886055112E+02  0.00000000000E+00 0.  1.
         11    1    3    3    0    0 -0.14617617600E+02  0.36363587281E+01  0.84868006944E+01  0.17289408185E+02  0.51100000000E-03 0. -1.
        -11    1    3    3    0    0 -0.17550888717E+02 -0.40197709694E+01  0.18821450368E+02  0.26046866369E+02  0.51100000000E-03 0.  1.
        -12    1    3    3    0    0  0.12141172444E+02 -0.93479640547E+01 -0.44844318393E+01  0.15965670334E+02  0.00000000000E+00 0.  1.
</event>
<event>
 7    1  0.6515090E-012  0.5930194E+02  0.7816164E-02  0.1266605E+00
        -11   -1    0    0    0    0  0.00000000000E+00  0.00000000000E+00  0.45593999997E+02  0.45594000000E+02  0.51100000000E-03 0. -1.
         11   -1    0    0    0    0 -0.00000000000E+00 -0.00000000000E+00 -0.45593999997E+02  0.45594000000E+02  0.51100000000E-03 0.  1.
    9900012    2    1    2    0    0 -0.21006771259E+02 -0.29881600709E+01 -0.23801414469E+02  0.59301939251E+02  0.49999991289E+02 0.  0.
        -12    1    1    2    0    0  0.21006771259E+02  0.29881600709E+01  0.23801414469E+02  0.31886060749E+02  0.00000000000E+00 0.  1.
         11    1    3    3    0    0 -0.68291895718E+01  0.11787346884E+01 -0.61747179857E+01  0.92819388135E+01  0.51100000000E-03 0. -1.
        -11    1    3    3    0    0 -0.19091046736E+02  0.31784309023E+01  0.94499668934E+01  0.21537696326E+02  0.51100000000E-03 0.  1.
        -12    1    3    3    0    0  0.49134650493E+01 -0.73453256616E+01 -0.27076663377E+02  0.28482304111E+02  0.00000000000E+00 0.  1.
</event>
<event>
 7    1  0.6515090E-012  0.5930192E+02  0.7816164E-02  0.1266605E+00
        -11   -1    0    0    0    0  0.00000000000E+00  0.00000000000E+00  0.45593999997E+02  0.45594000000E+02  0.51100000000E-03 0. -1.
         11   -1    0    0    0    0 -0.00000000000E+00 -0.00000000000E+00 -0.45593999997E+02  0.45594000000E+02  0.51100000000E-03 0.  1.
    9900012    2    1    2    0    0  0.12293142050E+02  0.26980682284E+02 -0.11732145299E+02  0.59301924806E+02  0.49999964944E+02 0.  0.
        -12    1    1    2    0    0 -0.12293142050E+02 -0.26980682284E+02  0.11732145299E+02  0.31886075194E+02  0.00000000000E+00 0.  1.
         11    1    3    3    0    0  0.78817862891E+00 -0.56330601024E+01 -0.13607526458E+01  0.58484390817E+01  0.51100000000E-03 0. -1.
        -11    1    3    3    0    0  0.10813990095E+01 -0.89854118204E+01 -0.46909150957E+01  0.10193710517E+02  0.51100000000E-03 0.  1.
         12    1    3    3    0    0  0.10423564412E+02  0.41599154206E+02 -0.56804775574E+01  0.43259775208E+02  0.00000000000E+00 0. -1.
</event>
<event>
 7    1  0.6515090E-012  0.5930194E+02  0.7816164E-02  0.1266605E+00
        -11   -1    0    0    0    0  0.00000000000E+00  0.00000000000E+00  0.45593999997E+02  0.45594000000E+02  0.51100000000E-03 0. -1.
         11   -1    0    0    0    0 -0.00000000000E+00 -0.00000000000E+00 -0.45593999997E+02  0.45594000000E+02  0.51100000000E-03 0.  1.
    9900012    2    1    2    0    0 -0.13058434043E+02  0.19775112080E+02  0.21334087585E+02  0.59301936422E+02  0.49999986128E+02 0.  0.
        -12    1    1    2    0    0  0.13058434043E+02 -0.19775112080E+02 -0.21334087585E+02  0.31886063578E+02  0.00000000000E+00 0.  1.
         11    1    3    3    0    0 -0.20240406301E+02  0.16104054920E+02  0.26937281944E+02  0.37344769257E+02  0.51100000000E-03 0. -1.
        -11    1    3    3    0    0  0.76051910055E+01  0.65389173425E+01  0.48275285147E+01  0.11131100667E+02  0.51100000000E-03 0.  1.
        -12    1    3    3    0    0 -0.42321874795E+00 -0.28678601818E+01 -0.10430722874E+02  0.10826066497E+02  0.00000000000E+00 0.  1.
</event>
<event>
 7    1  0.6515090E-012  0.5930190E+02  0.7816164E-02  0.1266605E+00
        -11   -1    0    0    0    0  0.00000000000E+00  0.00000000000E+00  0.45593999997E+02  0.45594000000E+02  0.51100000000E-03 0. -1.
         11   -1    0    0    0    0 -0.00000000000E+00 -0.00000000000E+00 -0.45593999997E+02  0.45594000000E+02  0.51100000000E-03 0.  1.
    9900012    2    1    2    0    0  0.26134400615E+02 -0.10691477463E+02 -0.14812451183E+02  0.59301901212E+02  0.49999921915E+02 0.  0.
        -12    1    1    2    0    0 -0.26134400615E+02  0.10691477463E+02  0.14812451183E+02  0.31886098788E+02  0.00000000000E+00 0.  1.
         11    1    3    3    0    0  0.26195926152E+02 -0.28003704309E+01 -0.14848742852E+02  0.30241590336E+02  0.51100000000E-03 0. -1.
        -11    1    3    3    0    0  0.25564391492E+01 -0.18164851341E+02  0.12642837095E+01  0.18387376618E+02  0.51100000000E-03 0.  1.
        -12    1    3    3    0    0 -0.26179646862E+01  0.10273744309E+02 -0.12279920402E+01  0.10672934258E+02  0.00000000000E+00 0.  1.
</event>
<event>
 7    1  0.6515090E-012  0.5930196E+02  0.7816164E-02  0.1266605E+00
        -11   -1    0    0    0    0  0.00000000000E+00  0.00000000000E+00  0.45593999997E+02  0.45594000000E+02  0.51100000000E-03 0. -1.
         11   -1    0    0    0    0 -0.00000000000E+00 -0.00000000000E+00 -0.45593999997E+02  0.45594000000E+02  0.51100000000E-03 0.  1.
    9900012    2    1    2    0    0  0.11749089303E+02 -0.27380311830E+02  0.11357680886E+02  0.59301960885E+02  0.50000030744E+02 0.  0.
        -12    1    1    2    0    0 -0.11749089303E+02  0.27380311830E+02 -0.11357680886E+02  0.31886039115E+02  0.00000000000E+00 0.  1.
         11    1    3    3    0    0 -0.67288966303E+01 -0.50743052546E+01  0.89350978628E+01  0.12282613637E+02  0.51100000000E-03 0. -1.
        -11    1    3    3    0    0  0.96620000317E+00 -0.27498370957E+02 -0.36825777861E+01  0.27760679515E+02  0.51100000000E-03 0.  1.
        -12    1    3    3    0    0  0.17511785930E+02  0.51923643821E+01  0.61051608098E+01  0.19258667733E+02  0.00000000000E+00 0.  1.
</event>
<event>
 7    1  0.6515090E-012  0.5930193E+02  0.7816164E-02  0.1266605E+00
        -11   -1    0    0    0    0  0.00000000000E+00  0.00000000000E+00  0.45593999997E+02  0.45594000000E+02  0.51100000000E-03 0. -1.
         11   -1    0    0    0    0 -0.00000000000E+00 -0.00000000000E+00 -0.45593999997E+02  0.45594000000E+02  0.51100000000E-03 0.  1.
    9900012    2    1    2    0    0  0.44008882389E+01 -0.28519235716E+02  0.13564922570E+02  0.59301925494E+02  0.49999966198E+02 0.  0.
        -12    1    1    2    0    0 -0.44008882389E+01  0.28519235716E+02 -0.13564922570E+02  0.31886074506E+02  0.00000000000E+00 0.  1.
         11    1    3    3    0    0  0.21183166020E+02 -0.17814470623E+02  0.84428560427E+01  0.28937237336E+02  0.51100000000E-03 0.  1.
        -11    1    3    3    0    0 -0.11014813680E+02 -0.15878111113E+02  0.94269283248E+01  0.21501337419E+02  0.51100000000E-03 0. -1.
        -12    1    3    3    0    0 -0.57674641013E+01  0.51733460206E+01 -0.43048617972E+01  0.88633507379E+01  0.00000000000E+00 0.  1.
</event>
<event>
 7    1  0.6515090E-012  0.5930200E+02  0.7816164E-02  0.1266605E+00
        -11   -1    0    0    0    0  0.00000000000E+00  0.00000000000E+00  0.45593999997E+02  0.45594000000E+02  0.51100000000E-03 0.  1.
         11   -1    0    0    0    0 -0.00000000000E+00 -0.00000000000E+00 -0.45593999997E+02  0.45594000000E+02  0.51100000000E-03 0. -1.
    9900012    2    1    2    0    0 -0.14235084272E+02  0.13712225579E+02 -0.25021077470E+02  0.59301998803E+02  0.50000099897E+02 0.  0.
        -12    1    1    2    0    0  0.14235084272E+02 -0.13712225579E+02  0.25021077470E+02  0.31886001197E+02  0.00000000000E+00 0.  1.
         11    1    3    3    0    0 -0.21363621069E+02 -0.54980364203E+01 -0.12938331573E+02  0.25574071514E+02  0.51100000000E-03 0. -1.
        -11    1    3    3    0    0 -0.58667253053E+01  0.12155722367E+02  0.15874745305E+01  0.13590442514E+02  0.51100000000E-03 0.  1.
        -12    1    3    3    0    0  0.12995262102E+02  0.70545396319E+01 -0.13670220428E+02  0.20137484776E+02  0.00000000000E+00 0.  1.
</event>
<event>
 7    1  0.6515090E-012  0.5930190E+02  0.7816164E-02  0.1266605E+00
        -11   -1    0    0    0    0  0.00000000000E+00  0.00000000000E+00  0.45593999997E+02  0.45594000000E+02  0.51100000000E-03 0.  1.
         11   -1    0    0    0    0 -0.00000000000E+00 -0.00000000000E+00 -0.45593999997E+02  0.45594000000E+02  0.51100000000E-03 0. -1.
    9900012    2    1    2    0    0 -0.25472529149E+02 -0.12983831717E+02 -0.14117148147E+02  0.59301898026E+02  0.49999916104E+02 0.  0.
        -12    1    1    2    0    0  0.25472529149E+02  0.12983831717E+02  0.14117148147E+02  0.31886101974E+02  0.00000000000E+00 0.  1.
         11    1    3    3    0    0  0.21522789055E+01  0.62144658702E+01 -0.14283696645E+02  0.15725008129E+02  0.51100000000E-03 0. -1.
        -11    1    3    3    0    0 -0.18006090763E+02 -0.48644642119E+01  0.12419524546E+02  0.22408188388E+02  0.51100000000E-03 0.  1.
         12    1    3    3    0    0 -0.96187172912E+01 -0.14333833375E+02 -0.12252976048E+02  0.21168701509E+02  0.00000000000E+00 0. -1.
</event>
<event>
 7    1  0.6515090E-012  0.5930196E+02  0.7816164E-02  0.1266605E+00
        -11   -1    0    0    0    0  0.00000000000E+00  0.00000000000E+00  0.45593999997E+02  0.45594000000E+02  0.51100000000E-03 0.  1.
         11   -1    0    0    0    0 -0.00000000000E+00 -0.00000000000E+00 -0.45593999997E+02  0.45594000000E+02  0.51100000000E-03 0. -1.
    9900012    2    1    2    0    0  0.29354463695E+02  0.10234632629E+02 -0.70913479876E+01  0.59301961360E+02  0.50000031610E+02 0.  0.
        -12    1    1    2    0    0 -0.29354463695E+02 -0.10234632629E+02  0.70913479876E+01  0.31886038640E+02  0.00000000000E+00 0.  1.
         11    1    3    3    0    0  0.93909055777E+01 -0.37562186178E+01 -0.70415544162E+01  0.12324032405E+02  0.51100000000E-03 0. -1.
        -11    1    3    3    0    0 -0.41474387908E+01  0.19220726674E+02 -0.77458517649E+01  0.21133759775E+02  0.51100000000E-03 0.  1.
         12    1    3    3    0    0  0.24110996908E+02 -0.52298754269E+01  0.76960581934E+01  0.25844169180E+02  0.00000000000E+00 0. -1.
</event>
<event>
 7    1  0.6515090E-012  0.5930202E+02  0.7816164E-02  0.1266605E+00
        -11   -1    0    0    0    0  0.00000000000E+00  0.00000000000E+00  0.45593999997E+02  0.45594000000E+02  0.51100000000E-03 0.  1.
         11   -1    0    0    0    0 -0.00000000000E+00 -0.00000000000E+00 -0.45593999997E+02  0.45594000000E+02  0.51100000000E-03 0. -1.
    9900012    2    1    2    0    0 -0.93972831293E+01 -0.17862175090E+02 -0.24685011209E+02  0.59302015500E+02  0.50000130347E+02 0.  0.
        -12    1    1    2    0    0  0.93972831293E+01  0.17862175090E+02  0.24685011209E+02  0.31885984500E+02  0.00000000000E+00 0.  1.
         11    1    3    3    0    0 -0.18104787045E+02 -0.18496899262E+02 -0.52646966251E+01  0.26412792868E+02  0.51100000000E-03 0. -1.
        -11    1    3    3    0    0 -0.17739846818E+01 -0.61630379993E+01  0.31096570959E+01  0.71274137348E+01  0.51100000000E-03 0.  1.
         12    1    3    3    0    0  0.10481488598E+02  0.67977621710E+01 -0.22529971680E+02  0.25761808897E+02  0.00000000000E+00 0. -1.
</event>
<event>
 7    1  0.6515090E-012  0.5930193E+02  0.7816164E-02  0.1266605E+00
        -11   -1    0    0    0    0  0.00000000000E+00  0.00000000000E+00  0.45593999997E+02  0.45594000000E+02  0.51100000000E-03 0. -1.
         11   -1    0    0    0    0 -0.00000000000E+00 -0.00000000000E+00 -0.45593999997E+02  0.45594000000E+02  0.51100000000E-03 0.  1.
    9900012    2    1    2    0    0  0.17956127047E+02  0.25645015581E+02  0.60524238151E+01  0.59301934757E+02  0.49999983092E+02 0.  0.
        -12    1    1    2    0    0 -0.17956127047E+02 -0.25645015581E+02 -0.60524238151E+01  0.31886065243E+02  0.00000000000E+00 0.  1.
         11    1    3    3    0    0  0.22060432366E+02  0.68776275344E+01 -0.86135076471E+01  0.24660838407E+02  0.51100000000E-03 0. -1.
        -11    1    3    3    0    0 -0.39978842765E+01  0.58192396575E+00 -0.59236324151E+01  0.71701558867E+01  0.51100000000E-03 0.  1.
        -12    1    3    3    0    0 -0.10642104256E+00  0.18185464081E+02  0.20589563877E+02  0.27470940463E+02  0.00000000000E+00 0.  1.
</event>
<event>
 7    1  0.6515090E-012  0.5930196E+02  0.7816164E-02  0.1266605E+00
        -11   -1    0    0    0    0  0.00000000000E+00  0.00000000000E+00  0.45593999997E+02  0.45594000000E+02  0.51100000000E-03 0. -1.
         11   -1    0    0    0    0 -0.00000000000E+00 -0.00000000000E+00 -0.45593999997E+02  0.45594000000E+02  0.51100000000E-03 0.  1.
    9900012    2    1    2    0    0  0.43017668888E+01  0.12560619185E+02  0.28990436877E+02  0.59301956297E+02  0.50000022377E+02 0.  0.
        -12    1    1    2    0    0 -0.43017668888E+01 -0.12560619185E+02 -0.28990436877E+02  0.31886043703E+02  0.00000000000E+00 0.  1.
         11    1    3    3    0    0  0.79724913855E+01  0.27937503487E+02  0.11042285685E+02  0.31080488951E+02  0.51100000000E-03 0. -1.
        -11    1    3    3    0    0  0.10188306981E+01  0.27734938329E+01  0.33100638568E+01  0.44369817477E+01  0.51100000000E-03 0.  1.
        -12    1    3    3    0    0 -0.46895551948E+01 -0.18150378135E+02  0.14638087336E+02  0.23784485599E+02  0.00000000000E+00 0.  1.
</event>
<event>
 7    1  0.6515090E-012  0.5930192E+02  0.7816164E-02  0.1266605E+00
        -11   -1    0    0    0    0  0.00000000000E+00  0.00000000000E+00  0.45593999997E+02  0.45594000000E+02  0.51100000000E-03 0. -1.
         11   -1    0    0    0    0 -0.00000000000E+00 -0.00000000000E+00 -0.45593999997E+02  0.45594000000E+02  0.51100000000E-03 0.  1.
    9900012    2    1    2    0    0  0.46320359149E+01  0.17663280644E+02  0.26139528041E+02  0.59301918930E+02  0.49999954228E+02 0.  0.
        -12    1    1    2    0    0 -0.46320359149E+01 -0.17663280644E+02 -0.26139528041E+02  0.31886081070E+02  0.00000000000E+00 0.  1.
         11    1    3    3    0    0  0.61188082352E+00  0.10554648164E+02  0.66607513659E+01  0.12495623435E+02  0.51100000000E-03 0. -1.
        -11    1    3    3    0    0 -0.23335391029E+01  0.75543274257E+01 -0.12175575549E+02  0.14517503498E+02  0.51100000000E-03 0.  1.
         12    1    3    3    0    0  0.63536941942E+01 -0.44569494596E+00  0.31654352224E+02  0.32288791997E+02  0.00000000000E+00 0. -1.
</event>
<event>
 7    1  0.6515090E-012  0.5930189E+02  0.7816164E-02  0.1266605E+00
        -11   -1    0    0    0    0  0.00000000000E+00  0.00000000000E+00  0.45593999997E+02  0.45594000000E+02  0.51100000000E-03 0. -1.
         11   -1    0    0    0    0 -0.00000000000E+00 -0.00000000000E+00 -0.45593999997E+02  0.45594000000E+02  0.51100000000E-03 0.  1.
    9900012    2    1    2    0    0  0.40460724691E+01 -0.34450425561E+01  0.31440176610E+02  0.59301894469E+02  0.49999909617E+02 0.  0.
        -12    1    1    2    0    0 -0.40460724691E+01  0.34450425561E+01 -0.31440176610E+02  0.31886105531E+02  0.00000000000E+00 0.  1.
         11    1    3    3    0    0  0.27241089900E+01  0.11516059093E+02 -0.88430141512E+01  0.14772924097E+02  0.51100000000E-03 0. -1.
        -11    1    3    3    0    0 -0.18980775092E+01  0.15995069798E+00  0.69253060314E+00  0.20267909004E+01  0.51100000000E-03 0.  1.
         12    1    3    3    0    0  0.32200409883E+01 -0.15121052347E+02  0.39590660159E+02  0.42502179472E+02  0.00000000000E+00 0. -1.
</event>
<event>
 7    1  0.6515090E-012  0.5930194E+02  0.7816164E-02  0.1266605E+00
        -11   -1    0    0    0    0  0.00000000000E+00  0.00000000000E+00  0.45593999997E+02  0.45594000000E+02  0.51100000000E-03 0. -1.
         11   -1    0    0    0    0 -0.00000000000E+00 -0.00000000000E+00 -0.45593999997E+02  0.45594000000E+02  0.51100000000E-03 0.  1.
    9900012    2    1    2    0    0  0.63999582497E+01  0.24993632523E+02  0.18737120279E+02  0.59301940214E+02  0.49999993045E+02 0.  0.
        -12    1    1    2    0    0 -0.63999582497E+01 -0.24993632523E+02 -0.18737120279E+02  0.31886059786E+02  0.00000000000E+00 0.  1.
         11    1    3    3    0    0 -0.16786665273E+01  0.89473787965E+01  0.29105322160E+01  0.95574424759E+01  0.51100000000E-03 0. -1.
        -11    1    3    3    0    0  0.16093925860E+02  0.20634165013E+02 -0.52890363142E+01  0.26697511509E+02  0.51100000000E-03 0.  1.
         12    1    3    3    0    0 -0.80153010827E+01 -0.45879112863E+01  0.21115624377E+02  0.23046986229E+02  0.00000000000E+00 0. -1.
</event>
<event>
 7    1  0.6515090E-012  0.5930191E+02  0.7816164E-02  0.1266605E+00
        -11   -1    0    0    0    0  0.00000000000E+00  0.00000000000E+00  0.45593999997E+02  0.45594000000E+02  0.51100000000E-03 0.  1.
         11   -1    0    0    0    0 -0.00000000000E+00 -0.00000000000E+00 -0.45593999997E+02  0.45594000000E+02  0.51100000000E-03 0. -1.
    9900012    2    1    2    0    0  0.10674756476E+02 -0.29866268366E+02  0.32830224777E+01  0.59301911363E+02  0.49999940428E+02 0.  0.
        -12    1    1    2    0    0 -0.10674756476E+02  0.29866268366E+02 -0.32830224777E+01  0.31886088637E+02  0.00000000000E+00 0.  1.
         11    1    3    3    0    0  0.10320236112E+02 -0.10574492367E+02 -0.37709832560E-01  0.14775946147E+02  0.51100000000E-03 0. -1.
        -11    1    3    3    0    0 -0.19204022657E+02 -0.14972352650E+02  0.25072110752E+01  0.24479622908E+02  0.51100000000E-03 0.  1.
         12    1    3    3    0    0  0.19558543021E+02 -0.43194233495E+01  0.81352123508E+00  0.20046342309E+02  0.00000000000E+00 0. -1.
</event>
<event>
 7    1  0.6515090E-012  0.5930193E+02  0.7816164E-02  0.1266605E+00
        -11   -1    0    0    0    0  0.00000000000E+00  0.00000000000E+00  0.45593999997E+02  0.45594000000E+02  0.51100000000E-03 0.  1.
         11   -1    0    0    0    0 -0.00000000000E+00 -0.00000000000E+00 -0.45593999997E+02  0.45594000000E+02  0.51100000000E-03 0. -1.
    9900012    2    1    2    0    0 -0.31536212984E+02 -0.21764129084E+01  0.41775835243E+01  0.59301926133E+02  0.49999967365E+02 0.  0.
        -12    1    1    2    0    0  0.31536212984E+02  0.21764129084E+01 -0.41775835243E+01  0.31886073867E+02  0.00000000000E+00 0.  1.
         11    1    3    3    0    0 -0.94925515580E+01  0.90596622310E+01 -0.73783318077E+01  0.15054095634E+02  0.51100000000E-03 0. -1.
        -11    1    3    3    0    0 -0.42757689989E+01  0.85194188887E+01 -0.70112879418E+01  0.11833040928E+02  0.51100000000E-03 0.  1.
         12    1    3    3    0    0 -0.17767892427E+02 -0.19755494028E+02  0.18567203274E+02  0.32414789572E+02  0.00000000000E+00 0. -1.
</event>
<event>
 7    1  0.6515090E-012  0.5930191E+02  0.7816164E-02  0.1266605E+00
        -11   -1    0    0    0    0  0.00000000000E+00  0.00000000000E+00  0.45593999997E+02  0.45594000000E+02  0.51100000000E-03 0. -1.
         11   -1    0    0    0    0 -0.00000000000E+00 -0.00000000000E+00 -0.45593999997E+02  0.45594000000E+02  0.51100000000E-03 0.  1.
    9900012    2    1    2    0    0  0.39230673774E+00 -0.15734265273E+02  0.27730878912E+02  0.59301911285E+02  0.49999940286E+02 0.  0.
        -12    1    1    2    0    0 -0.39230673774E+00  0.15734265273E+02 -0.27730878912E+02  0.31886088715E+02  0.00000000000E+00 0.  1.
         11    1    3    3    0    0  0.46980643012E+01  0.72733060750E+01  0.11147489874E+01  0.87301463335E+01  0.51100000000E-03 0. -1.
        -11    1    3    3    0    0 -0.15315718444E+02 -0.25491829199E+02  0.11913584841E+02  0.32036511848E+02  0.51100000000E-03 0.  1.
         12    1    3    3    0    0  0.11009960881E+02  0.24842578508E+01  0.14702545084E+02  0.18535253104E+02  0.00000000000E+00 0. -1.
</event>
<event>
 7    1  0.6515090E-012  0.5930199E+02  0.7816164E-02  0.1266605E+00
        -11   -1    0    0    0    0  0.00000000000E+00  0.00000000000E+00  0.45593999997E+02  0.45594000000E+02  0.51100000000E-03 0. -1.
         11   -1    0    0    0    0 -0.00000000000E+00 -0.00000000000E+00 -0.45593999997E+02  0.45594000000E+02  0.51100000000E-03 0.  1.
    9900012    2    1    2    0    0 -0.10056725036E+02  0.75616031809E+01  0.29298502076E+02  0.59301987628E+02  0.50000079516E+02 0.  0.
        -12    1    1    2    0    0  0.10056725036E+02 -0.75616031809E+01 -0.29298502076E+02  0.31886012372E+02  0.00000000000E+00 0.  1.
         11    1    3    3    0    0 -0.19607353737E+02  0.79835320955E+01  0.12348969220E+02  0.24508817726E+02  0.51100000000E-03 0. -1.
        -11    1    3    3    0    0 -0.73180155916E+01 -0.44815089184E+01  0.15069327981E+02  0.17341335602E+02  0.51100000000E-03 0.  1.
        -12    1    3    3    0    0  0.16868644292E+02  0.40595800037E+01  0.18802048745E+01  0.17451834300E+02  0.00000000000E+00 0.  1.
</event>
<event>
 7    1  0.6515090E-012  0.5930193E+02  0.7816164E-02  0.1266605E+00
        -11   -1    0    0    0    0  0.00000000000E+00  0.00000000000E+00  0.45593999997E+02  0.45594000000E+02  0.51100000000E-03 0.  1.
         11   -1    0    0    0    0 -0.00000000000E+00 -0.00000000000E+00 -0.45593999997E+02  0.45594000000E+02  0.51100000000E-03 0. -1.
    9900012    2    1    2    0    0 -0.80610025181E+01  0.14954618236E+01 -0.30814038591E+02  0.59301934988E+02  0.49999983514E+02 0.  0.
        -12    1    1    2    0    0  0.80610025181E+01 -0.14954618236E+01  0.30814038591E+02  0.31886065012E+02  0.00000000000E+00 0.  1.
         11    1    3    3    0    0  0.91695786768E+01 -0.88514633885E+00 -0.73158253214E+01  0.11763756099E+02  0.51100000000E-03 0. -1.
        -11    1    3    3    0    0  0.11611776814E+02  0.25605944276E+01 -0.10650666085E+02  0.15963292045E+02  0.51100000000E-03 0.  1.
        -12    1    3    3    0    0 -0.28842358009E+02 -0.17998626517E+00 -0.12847547185E+02  0.31574886844E+02  0.00000000000E+00 0.  1.
</event>
<event>
 7    1  0.6515090E-012  0.5930194E+02  0.7816164E-02  0.1266605E+00
        -11   -1    0    0    0    0  0.00000000000E+00  0.00000000000E+00  0.45593999997E+02  0.45594000000E+02  0.51100000000E-03 0.  1.
         11   -1    0    0    0    0 -0.00000000000E+00 -0.00000000000E+00 -0.45593999997E+02  0.45594000000E+02  0.51100000000E-03 0. -1.
    9900012    2    1    2    0    0  0.24272083711E+02 -0.20644762646E+02  0.11750415964E+01  0.59301937290E+02  0.49999987712E+02 0.  0.
        -12    1    1    2    0    0 -0.24272083711E+02  0.20644762646E+02 -0.11750415964E+01  0.31886062710E+02  0.00000000000E+00 0.  1.
         11    1    3    3    0    0  0.21867998955E+02  0.98657714928E+01  0.37154322848E+01  0.24276475502E+02  0.51100000000E-03 0. -1.
        -11    1    3    3    0    0  0.59565556479E+01 -0.14226650331E+02  0.56871703499E+01  0.16438431850E+02  0.51100000000E-03 0.  1.
         12    1    3    3    0    0 -0.35524708918E+01 -0.16283883808E+02 -0.82275610383E+01  0.18587029939E+02  0.00000000000E+00 0. -1.
</event>
<event>
 7    1  0.6515090E-012  0.5930197E+02  0.7816164E-02  0.1266605E+00
        -11   -1    0    0    0    0  0.00000000000E+00  0.00000000000E+00  0.45593999997E+02  0.45594000000E+02  0.51100000000E-03 0.  1.
         11   -1    0    0    0    0 -0.00000000000E+00 -0.00000000000E+00 -0.45593999997E+02  0.45594000000E+02  0.51100000000E-03 0. -1.
    9900012    2    1    2    0    0 -0.40103389978E+01  0.31279783181E+02 -0.47129046024E+01  0.59301966623E+02  0.50000041208E+02 0.  0.
        -12    1    1    2    0    0  0.40103389978E+01 -0.31279783181E+02  0.47129046024E+01  0.31886033377E+02  0.00000000000E+00 0.  1.
         11    1    3    3    0    0  0.66211717000E+00  0.10412567465E+02 -0.99270749126E+01  0.14401624108E+02  0.51100000000E-03 0. -1.
        -11    1    3    3    0    0 -0.25142558040E+01 -0.11370910136E+02  0.47765932785E+01  0.12587093516E+02  0.51100000000E-03 0.  1.
         12    1    3    3    0    0 -0.21582003639E+01  0.32238125852E+02  0.43757703169E+00  0.32313248999E+02  0.00000000000E+00 0. -1.
</event>
<event>
 7    1  0.6515090E-012  0.5930174E+02  0.7816164E-02  0.1266605E+00
        -11   -1    0    0    0    0  0.00000000000E+00  0.00000000000E+00  0.45593999997E+02  0.45594000000E+02  0.51100000000E-03 0.  1.
         11   -1    0    0    0    0 -0.00000000000E+00 -0.00000000000E+00 -0.45593999997E+02  0.45594000000E+02  0.51100000000E-03 0. -1.
    9900012    2    1    2    0    0 -0.31568156493E+02 -0.28118348086E+01  0.35040538086E+01  0.59301744145E+02  0.49999635461E+02 0.  0.
        -12    1    1    2    0    0  0.31568156493E+02  0.28118348086E+01 -0.35040538086E+01  0.31886255855E+02  0.00000000000E+00 0.  1.
         11    1    3    3    0    0 -0.28554188905E+02  0.27767956955E+00 -0.29147611704E+01  0.28703913373E+02  0.51100000000E-03 0. -1.
        -11    1    3    3    0    0 -0.16168640376E+02  0.24430762747E+00  0.18361344561E+01  0.16274397311E+02  0.51100000000E-03 0.  1.
         12    1    3    3    0    0  0.13154672789E+02 -0.33338220056E+01  0.45826805229E+01  0.14323433461E+02  0.00000000000E+00 0. -1.
</event>
<event>
 7    1  0.6515090E-012  0.5930194E+02  0.7816164E-02  0.1266605E+00
        -11   -1    0    0    0    0  0.00000000000E+00  0.00000000000E+00  0.45593999997E+02  0.45594000000E+02  0.51100000000E-03 0. -1.
         11   -1    0    0    0    0 -0.00000000000E+00 -0.00000000000E+00 -0.45593999997E+02  0.45594000000E+02  0.51100000000E-03 0.  1.
    9900012    2    1    2    0    0  0.32261706546E+01  0.12710993369E+02  0.29064472932E+02  0.59301935390E+02  0.49999984247E+02 0.  0.
        -12    1    1    2    0    0 -0.32261706546E+01 -0.12710993369E+02 -0.29064472932E+02  0.31886064610E+02  0.00000000000E+00 0.  1.
         11    1    3    3    0    0  0.48861608668E+01 -0.27551061429E+01  0.17844309535E+02  0.18705201440E+02  0.51100000000E-03 0. -1.
        -11    1    3    3    0    0 -0.46116026647E+01  0.10817109287E+02  0.23975212753E+02  0.26703699356E+02  0.51100000000E-03 0.  1.
        -12    1    3    3    0    0  0.29516124526E+01  0.46489902242E+01 -0.12755049356E+02  0.13893034595E+02  0.00000000000E+00 0.  1.
</event>
<event>
 7    1  0.6515090E-012  0.5930193E+02  0.7816164E-02  0.1266605E+00
        -11   -1    0    0    0    0  0.00000000000E+00  0.00000000000E+00  0.45593999997E+02  0.45594000000E+02  0.51100000000E-03 0.  1.
         11   -1    0    0    0    0 -0.00000000000E+00 -0.00000000000E+00 -0.45593999997E+02  0.45594000000E+02  0.51100000000E-03 0. -1.
    9900012    2    1    2    0    0  0.94488471864E+01  0.23700101953E+02  0.19124488791E+02  0.59301927535E+02  0.49999969921E+02 0.  0.
        -12    1    1    2    0    0 -0.94488471864E+01 -0.23700101953E+02 -0.19124488791E+02  0.31886072465E+02  0.00000000000E+00 0.  1.
         11    1    3    3    0    0  0.13115584593E+02  0.34287984871E+01  0.89774443766E+01  0.16259450362E+02  0.51100000000E-03 0. -1.
        -11    1    3    3    0    0  0.23456896114E+01  0.29901542118E+02  0.10227413624E+02  0.31689185387E+02  0.51100000000E-03 0.  1.
         12    1    3    3    0    0 -0.60124270184E+01 -0.96302386526E+01 -0.80369209563E-01  0.11353291786E+02  0.00000000000E+00 0. -1.
</event>
<event>
 7    1  0.6515090E-012  0.5930193E+02  0.7816164E-02  0.1266605E+00
        -11   -1    0    0    0    0  0.00000000000E+00  0.00000000000E+00  0.45593999997E+02  0.45594000000E+02  0.51100000000E-03 0.  1.
         11   -1    0    0    0    0 -0.00000000000E+00 -0.00000000000E+00 -0.45593999997E+02  0.45594000000E+02  0.51100000000E-03 0. -1.
    9900012    2    1    2    0    0 -0.20254971665E+02  0.19083723539E+02 -0.15564992850E+02  0.59301931197E+02  0.49999976600E+02 0.  0.
        -12    1    1    2    0    0  0.20254971665E+02 -0.19083723539E+02  0.15564992850E+02  0.31886068803E+02  0.00000000000E+00 0.  1.
         11    1    3    3    0    0  0.76793048820E+01  0.93182555621E+01  0.60205993677E+01  0.13492561921E+02  0.51100000000E-03 0. -1.
        -11    1    3    3    0    0  0.81499029120E-01  0.98078503776E+01  0.95084181296E+00  0.98541702611E+01  0.51100000000E-03 0.  1.
        -12    1    3    3    0    0 -0.28015775576E+02 -0.42382400445E-01 -0.22536434030E+02  0.35955199015E+02  0.00000000000E+00 0.  1.
</event>
<event>
 7    1  0.6515090E-012  0.5930193E+02  0.7816164E-02  0.1266605E+00
        -11   -1    0    0    0    0  0.00000000000E+00  0.00000000000E+00  0.45593999997E+02  0.45594000000E+02  0.51100000000E-03 0. -1.
         11   -1    0    0    0    0 -0.00000000000E+00 -0.00000000000E+00 -0.45593999997E+02  0.45594000000E+02  0.51100000000E-03 0.  1.
    9900012    2    1    2    0    0  0.54933958736E+01 -0.31034918755E+02  0.48350623137E+01  0.59301930818E+02  0.49999975908E+02 0.  0.
        -12    1    1    2    0    0 -0.54933958736E+01  0.31034918755E+02 -0.48350623137E+01  0.31886069182E+02  0.00000000000E+00 0.  1.
         11    1    3    3    0    0  0.15390724601E+01 -0.17947995501E+02 -0.16658758823E+02  0.24535964060E+02  0.51100000000E-03 0.  1.
        -11    1    3    3    0    0 -0.66597314923E+01 -0.10699181257E+02  0.24571603911E+01  0.12839865286E+02  0.51100000000E-03 0. -1.
        -12    1    3    3    0    0  0.10614054906E+02 -0.23877419969E+01  0.19036660746E+02  0.21926101472E+02  0.00000000000E+00 0.  1.
</event>
<event>
 7    1  0.6515090E-012  0.5930195E+02  0.7816164E-02  0.1266605E+00
        -11   -1    0    0    0    0  0.00000000000E+00  0.00000000000E+00  0.45593999997E+02  0.45594000000E+02  0.51100000000E-03 0. -1.
         11   -1    0    0    0    0 -0.00000000000E+00 -0.00000000000E+00 -0.45593999997E+02  0.45594000000E+02  0.51100000000E-03 0.  1.
    9900012    2    1    2    0    0  0.18496986021E+02 -0.46974362544E+01  0.25544391169E+02  0.59301947886E+02  0.50000007036E+02 0.  0.
        -12    1    1    2    0    0 -0.18496986021E+02  0.46974362544E+01 -0.25544391169E+02  0.31886052114E+02  0.00000000000E+00 0.  1.
         11    1    3    3    0    0 -0.73023189742E+01 -0.24956184939E+01  0.53992411387E+01  0.94182683760E+01  0.51100000000E-03 0. -1.
        -11    1    3    3    0    0 -0.32621917421E+01  0.83914069179E+01 -0.47485562159E+01  0.10178722485E+02  0.51100000000E-03 0.  1.
         12    1    3    3    0    0  0.29061496737E+02 -0.10593224678E+02  0.24893706246E+02  0.39704957025E+02  0.00000000000E+00 0. -1.
</event>
<event>
 7    1  0.6515090E-012  0.5930194E+02  0.7816164E-02  0.1266605E+00
        -11   -1    0    0    0    0  0.00000000000E+00  0.00000000000E+00  0.45593999997E+02  0.45594000000E+02  0.51100000000E-03 0.  1.
         11   -1    0    0    0    0 -0.00000000000E+00 -0.00000000000E+00 -0.45593999997E+02  0.45594000000E+02  0.51100000000E-03 0. -1.
    9900012    2    1    2    0    0  0.73433997808E+01 -0.38879049338E+01 -0.30784400625E+02  0.59301942750E+02  0.49999997669E+02 0.  0.
        -12    1    1    2    0    0 -0.73433997808E+01  0.38879049338E+01  0.30784400625E+02  0.31886057250E+02  0.00000000000E+00 0.  1.
         11    1    3    3    0    0 -0.77960328871E+01 -0.48045854928E+01 -0.21025028963E+02  0.22932815215E+02  0.51100000000E-03 0. -1.
        -11    1    3    3    0    0 -0.27980154635E+01  0.11911968513E+02  0.17931366767E+01  0.12366859901E+02  0.51100000000E-03 0.  1.
        -12    1    3    3    0    0  0.17937448131E+02 -0.10995287954E+02 -0.11552508339E+02  0.24002267634E+02  0.00000000000E+00 0.  1.
</event>
<event>
 7    1  0.6515090E-012  0.5930199E+02  0.7816164E-02  0.1266605E+00
        -11   -1    0    0    0    0  0.00000000000E+00  0.00000000000E+00  0.45593999997E+02  0.45594000000E+02  0.51100000000E-03 0. -1.
         11   -1    0    0    0    0 -0.00000000000E+00 -0.00000000000E+00 -0.45593999997E+02  0.45594000000E+02  0.51100000000E-03 0.  1.
    9900012    2    1    2    0    0 -0.12010179889E+02 -0.24053582034E+02 -0.17143456971E+02  0.59301994503E+02  0.50000092055E+02 0.  0.
        -12    1    1    2    0    0  0.12010179889E+02  0.24053582034E+02  0.17143456971E+02  0.31886005497E+02  0.00000000000E+00 0.  1.
         11    1    3    3    0    0  0.51115734056E+01 -0.13495163999E+01  0.78784996513E+01  0.94878940873E+01  0.51100000000E-03 0. -1.
        -11    1    3    3    0    0  0.63745536832E+01 -0.35117914128E+01 -0.16910361239E+02  0.18409995412E+02  0.51100000000E-03 0.  1.
         12    1    3    3    0    0 -0.23496306978E+02 -0.19192274221E+02 -0.81115953837E+01  0.31404105003E+02  0.00000000000E+00 0. -1.
</event>
<event>
 7    1  0.6515090E-012  0.5930191E+02  0.7816164E-02  0.1266605E+00
        -11   -1    0    0    0    0  0.00000000000E+00  0.00000000000E+00  0.45593999997E+02  0.45594000000E+02  0.51100000000E-03 0. -1.
         11   -1    0    0    0    0 -0.00000000000E+00 -0.00000000000E+00 -0.45593999997E+02  0.45594000000E+02  0.51100000000E-03 0.  1.
    9900012    2    1    2    0    0 -0.18728871324E+02 -0.22694613275E+02  0.12284408581E+02  0.59301909192E+02  0.49999936469E+02 0.  0.
        -12    1    1    2    0    0  0.18728871324E+02  0.22694613275E+02 -0.12284408581E+02  0.31886090808E+02  0.00000000000E+00 0.  1.
         11    1    3    3    0    0 -0.27196713483E+02 -0.24716486684E+02  0.32512104701E+01  0.36893580851E+02  0.51100000000E-03 0. -1.
        -11    1    3    3    0    0 -0.58130089195E+01 -0.10096291436E+01  0.28818642964E+01  0.65662444205E+01  0.51100000000E-03 0.  1.
        -12    1    3    3    0    0  0.14280851078E+02  0.30315025516E+01  0.61513338148E+01  0.15842083921E+02  0.00000000000E+00 0.  1.
</event>
<event>
 7    1  0.6515090E-012  0.5930194E+02  0.7816164E-02  0.1266605E+00
        -11   -1    0    0    0    0  0.00000000000E+00  0.00000000000E+00  0.45593999997E+02  0.45594000000E+02  0.51100000000E-03 0. -1.
         11   -1    0    0    0    0 -0.00000000000E+00 -0.00000000000E+00 -0.45593999997E+02  0.45594000000E+02  0.51100000000E-03 0.  1.
    9900012    2    1    2    0    0  0.25070748351E+02 -0.12945238086E+02 -0.14852584068E+02  0.59301939324E+02  0.49999991421E+02 0.  0.
        -12    1    1    2    0    0 -0.25070748351E+02  0.12945238086E+02  0.14852584068E+02  0.31886060676E+02  0.00000000000E+00 0.  1.
         11    1    3    3    0    0  0.53347621906E+01 -0.67141783369E+01  0.10435124161E+02  0.13506727764E+02  0.51100000000E-03 0.  1.
        -11    1    3    3    0    0 -0.34717284599E+01 -0.11130970887E+02 -0.77524442671E+00  0.11685564409E+02  0.51100000000E-03 0. -1.
        -12    1    3    3    0    0  0.23207714620E+02  0.48999111378E+01 -0.24512463803E+02  0.34109647150E+02  0.00000000000E+00 0.  1.
</event>
<event>
 7    1  0.6515090E-012  0.5930194E+02  0.7816164E-02  0.1266605E+00
        -11   -1    0    0    0    0  0.00000000000E+00  0.00000000000E+00  0.45593999997E+02  0.45594000000E+02  0.51100000000E-03 0.  1.
         11   -1    0    0    0    0 -0.00000000000E+00 -0.00000000000E+00 -0.45593999997E+02  0.45594000000E+02  0.51100000000E-03 0. -1.
    9900012    2    1    2    0    0  0.29045181127E+02  0.89358439214E+01 -0.96565400361E+01  0.59301943192E+02  0.49999998476E+02 0.  0.
        -12    1    1    2    0    0 -0.29045181127E+02 -0.89358439214E+01  0.96565400361E+01  0.31886056808E+02  0.00000000000E+00 0.  1.
         11    1    3    3    0    0  0.25284311023E+02  0.38388936119E+01  0.23951356712E+01  0.25685991576E+02  0.51100000000E-03 0. -1.
        -11    1    3    3    0    0 -0.31567843587E+01 -0.89489611231E+01 -0.14935925585E+02  0.17695509770E+02  0.51100000000E-03 0.  1.
         12    1    3    3    0    0  0.69176544626E+01  0.14045911433E+02  0.28842498778E+01  0.15920441847E+02  0.00000000000E+00 0. -1.
</event>
<event>
 7    1  0.6515090E-012  0.5930194E+02  0.7816164E-02  0.1266605E+00
        -11   -1    0    0    0    0  0.00000000000E+00  0.00000000000E+00  0.45593999997E+02  0.45594000000E+02  0.51100000000E-03 0.  1.
         11   -1    0    0    0    0 -0.00000000000E+00 -0.00000000000E+00 -0.45593999997E+02  0.45594000000E+02  0.51100000000E-03 0. -1.
    9900012    2    1    2    0    0  0.23235016226E+02 -0.19049482421E+02 -0.10675762217E+02  0.59301942570E+02  0.49999997341E+02 0.  0.
        -12    1    1    2    0    0 -0.23235016226E+02  0.19049482421E+02  0.10675762217E+02  0.31886057430E+02  0.00000000000E+00 0.  1.
         11    1    3    3    0    0  0.21963055644E+01 -0.40175992637E+01  0.48015046860E+01  0.66347049284E+01  0.51100000000E-03 0. -1.
        -11    1    3    3    0    0  0.18495079369E+02 -0.15845069572E+02  0.10522773941E+02  0.26530415795E+02  0.51100000000E-03 0.  1.
         12    1    3    3    0    0  0.25436312930E+01  0.81318641489E+00 -0.26000040844E+02  0.26136821846E+02  0.00000000000E+00 0. -1.
</event>
<event>
 7    1  0.6515090E-012  0.5930194E+02  0.7816164E-02  0.1266605E+00
        -11   -1    0    0    0    0  0.00000000000E+00  0.00000000000E+00  0.45593999997E+02  0.45594000000E+02  0.51100000000E-03 0.  1.
         11   -1    0    0    0    0 -0.00000000000E+00 -0.00000000000E+00 -0.45593999997E+02  0.45594000000E+02  0.51100000000E-03 0. -1.
    9900012    2    1    2    0    0 -0.10564227216E+02  0.29983782233E+01  0.29935391969E+02  0.59301939394E+02  0.49999991549E+02 0.  0.
        -12    1    1    2    0    0  0.10564227216E+02 -0.29983782233E+01 -0.29935391969E+02  0.31886060606E+02  0.00000000000E+00 0.  1.
         11    1    3    3    0    0  0.34670749170E+01  0.19240317000E+02  0.14552071342E+02  0.24371565140E+02  0.51100000000E-03 0. -1.
        -11    1    3    3    0    0  0.47938974494E+01 -0.73753551071E+01  0.10232199627E+02  0.13493525306E+02  0.51100000000E-03 0.  1.
        -12    1    3    3    0    0 -0.18825199582E+02 -0.88665836695E+01  0.51511209998E+01  0.21436848948E+02  0.00000000000E+00 0.  1.
</event>
<event>
 7    1  0.6515090E-012  0.5930154E+02  0.7816164E-02  0.1266606E+00
        -11   -1    0    0    0    0  0.00000000000E+00  0.00000000000E+00  0.45593999997E+02  0.45594000000E+02  0.51100000000E-03 0. -1.
         11   -1    0    0    0    0 -0.00000000000E+00 -0.00000000000E+00 -0.45593999997E+02  0.45594000000E+02  0.51100000000E-03 0.  1.
    9900012    2    1    2    0    0  0.15153565399E+02  0.27992978740E+02 -0.18732622016E+01  0.59301537131E+02  0.49999257913E+02 0.  0.
        -12    1    1    2    0    0 -0.15153565399E+02 -0.27992978740E+02  0.18732622016E+01  0.31886462869E+02  0.00000000000E+00 0.  1.
         11    1    3    3    0    0  0.77738378921E+01  0.72457847962E+01 -0.46705805378E+00  0.10637297419E+02  0.51100000000E-03 0. -1.
        -11    1    3    3    0    0  0.16800455327E+02  0.22107407108E+02  0.13580818580E+02  0.30910053086E+02  0.51100000000E-03 0.  1.
        -12    1    3    3    0    0 -0.94207278199E+01 -0.13602131646E+01 -0.14987022728E+02  0.17754186626E+02  0.00000000000E+00 0.  1.
</event>
<event>
 7    1  0.6515090E-012  0.5930194E+02  0.7816164E-02  0.1266605E+00
        -11   -1    0    0    0    0  0.00000000000E+00  0.00000000000E+00  0.45593999997E+02  0.45594000000E+02  0.51100000000E-03 0.  1.
         11   -1    0    0    0    0 -0.00000000000E+00 -0.00000000000E+00 -0.45593999997E+02  0.45594000000E+02  0.51100000000E-03 0. -1.
    9900012    2    1    2    0    0  0.23616461500E+02  0.83568556638E+01 -0.19726792205E+02  0.59301943156E+02  0.49999998410E+02 0.  0.
        -12    1    1    2    0    0 -0.23616461500E+02 -0.83568556638E+01  0.19726792205E+02  0.31886056844E+02  0.00000000000E+00 0.  1.
         11    1    3    3    0    0  0.13451823666E+02 -0.15898264114E+02 -0.23514087271E+02  0.31410486501E+02  0.51100000000E-03 0. -1.
        -11    1    3    3    0    0  0.21864954801E+01  0.10723058162E+01  0.22670167130E+01  0.33271560358E+01  0.51100000000E-03 0.  1.
        -12    1    3    3    0    0  0.79781423542E+01  0.23182813962E+02  0.15202783534E+01  0.24564300619E+02  0.00000000000E+00 0.  1.
</event>
<event>
 7    1  0.6515090E-012  0.5930194E+02  0.7816164E-02  0.1266605E+00
        -11   -1    0    0    0    0  0.00000000000E+00  0.00000000000E+00  0.45593999997E+02  0.45594000000E+02  0.51100000000E-03 0.  1.
         11   -1    0    0    0    0 -0.00000000000E+00 -0.00000000000E+00 -0.45593999997E+02  0.45594000000E+02  0.51100000000E-03 0. -1.
    9900012    2    1    2    0    0 -0.86715141633E+01 -0.30470315292E+02 -0.36174132618E+01  0.59301937989E+02  0.49999988987E+02 0.  0.
        -12    1    1    2    0    0  0.86715141633E+01  0.30470315292E+02  0.36174132618E+01  0.31886062011E+02  0.00000000000E+00 0.  1.
         11    1    3    3    0    0 -0.21396729110E+02 -0.11307236442E+02  0.55986685479E+01  0.24839861158E+02  0.51100000000E-03 0. -1.
        -11    1    3    3    0    0  0.18392939210E+01  0.56796571579E+01 -0.58443550992E+00  0.59985892246E+01  0.51100000000E-03 0.  1.
         12    1    3    3    0    0  0.10885921025E+02 -0.24842736007E+02 -0.86316462998E+01  0.28463487607E+02  0.00000000000E+00 0. -1.
</event>
<event>
 7    1  0.6515090E-012  0.5930190E+02  0.7816164E-02  0.1266605E+00
        -11   -1    0    0    0    0  0.00000000000E+00  0.00000000000E+00  0.45593999997E+02  0.45594000000E+02  0.51100000000E-03 0. -1.
         11   -1    0    0    0    0 -0.00000000000E+00 -0.00000000000E+00 -0.45593999997E+02  0.45594000000E+02  0.51100000000E-03 0.  1.
    9900012    2    1    2    0    0 -0.13491759015E+02 -0.26108716273E+02  0.12370569382E+02  0.59301896231E+02  0.49999912830E+02 0.  0.
        -12    1    1    2    0    0  0.13491759015E+02  0.26108716273E+02 -0.12370569382E+02  0.31886103769E+02  0.00000000000E+00 0.  1.
         11    1    3    3    0    0  0.69770004892E+01 -0.85138424490E+01 -0.11627194189E+02  0.16011111581E+02  0.51100000000E-03 0. -1.
        -11    1    3    3    0    0 -0.81193817355E+01  0.31338650135E+00 -0.29626215768E+01  0.86486818495E+01  0.51100000000E-03 0.  1.
         12    1    3    3    0    0 -0.12349377769E+02 -0.17908260325E+02  0.26960385148E+02  0.34642102801E+02  0.00000000000E+00 0. -1.
</event>
<event>
 7    1  0.6515090E-012  0.5930188E+02  0.7816164E-02  0.1266605E+00
        -11   -1    0    0    0    0  0.00000000000E+00  0.00000000000E+00  0.45593999997E+02  0.45594000000E+02  0.51100000000E-03 0.  1.
         11   -1    0    0    0    0 -0.00000000000E+00 -0.00000000000E+00 -0.45593999997E+02  0.45594000000E+02  0.51100000000E-03 0. -1.
    9900012    2    1    2    0    0 -0.26321817295E+02  0.30891152686E+01 -0.17729748624E+02  0.59301879429E+02  0.49999882186E+02 0.  0.
        -12    1    1    2    0    0  0.26321817295E+02 -0.30891152686E+01  0.17729748624E+02  0.31886120571E+02  0.00000000000E+00 0.  1.
         11    1    3    3    0    0 -0.14153483708E+01  0.90078849463E+00 -0.92693040993E+01  0.94199060329E+01  0.51100000000E-03 0. -1.
        -11    1    3    3    0    0 -0.25512056741E+02 -0.14768527773E+02 -0.13149629309E+02  0.32278277571E+02  0.51100000000E-03 0.  1.
        -12    1    3    3    0    0  0.60558781671E+00  0.16956854547E+02  0.46891847843E+01  0.17603695825E+02  0.00000000000E+00 0.  1.
</event>
<event>
 7    1  0.6515090E-012  0.5930194E+02  0.7816164E-02  0.1266605E+00
        -11   -1    0    0    0    0  0.00000000000E+00  0.00000000000E+00  0.45593999997E+02  0.45594000000E+02  0.51100000000E-03 0.  1.
         11   -1    0    0    0    0 -0.00000000000E+00 -0.00000000000E+00 -0.45593999997E+02  0.45594000000E+02  0.51100000000E-03 0. -1.
    9900012    2    1    2    0    0  0.21745057233E+02 -0.29805903246E+01 -0.23129836292E+02  0.59301940983E+02  0.49999994447E+02 0.  0.
        -12    1    1    2    0    0 -0.21745057233E+02  0.29805903246E+01  0.23129836292E+02  0.31886059017E+02  0.00000000000E+00 0.  1.
         11    1    3    3    0    0  0.51726922539E+01 -0.67173135809E+01 -0.25464128203E+02  0.26838421568E+02  0.51100000000E-03 0. -1.
        -11    1    3    3    0    0  0.14140950744E+02 -0.10396274727E+02 -0.15111796022E+01  0.17616261811E+02  0.51100000000E-03 0.  1.
        -12    1    3    3    0    0  0.24314142351E+01  0.14132997984E+02  0.38454715128E+01  0.14847257603E+02  0.00000000000E+00 0.  1.
</event>
<event>
 7    1  0.6515090E-012  0.5930195E+02  0.7816164E-02  0.1266605E+00
        -11   -1    0    0    0    0  0.00000000000E+00  0.00000000000E+00  0.45593999997E+02  0.45594000000E+02  0.51100000000E-03 0.  1.
         11   -1    0    0    0    0 -0.00000000000E+00 -0.00000000000E+00 -0.45593999997E+02  0.45594000000E+02  0.51100000000E-03 0. -1.
    9900012    2    1    2    0    0  0.23515521225E+01  0.67043567806E+01 -0.31084435868E+02  0.59301947399E+02  0.50000006148E+02 0.  0.
        -12    1    1    2    0    0 -0.23515521225E+01 -0.67043567806E+01  0.31084435868E+02  0.31886052601E+02  0.00000000000E+00 0.  1.
         11    1    3    3    0    0 -0.45314819397E+01 -0.36179209630E+01 -0.73382773245E+01  0.93527533388E+01  0.51100000000E-03 0. -1.
        -11    1    3    3    0    0 -0.28229572175E+01 -0.14127580478E+02 -0.17942493542E+02  0.23010664753E+02  0.51100000000E-03 0.  1.
         12    1    3    3    0    0  0.97059912796E+01  0.24449858221E+02 -0.58036650020E+01  0.26938529307E+02  0.00000000000E+00 0. -1.
</event>
<event>
 7    1  0.6515090E-012  0.5930196E+02  0.7816164E-02  0.1266605E+00
        -11   -1    0    0    0    0  0.00000000000E+00  0.00000000000E+00  0.45593999997E+02  0.45594000000E+02  0.51100000000E-03 0. -1.
         11   -1    0    0    0    0 -0.00000000000E+00 -0.00000000000E+00 -0.45593999997E+02  0.45594000000E+02  0.51100000000E-03 0.  1.
    9900012    2    1    2    0    0 -0.31347757967E+02  0.49022455959E+01 -0.31631196140E+01  0.59301964387E+02  0.50000037130E+02 0.  0.
        -12    1    1    2    0    0  0.31347757967E+02 -0.49022455959E+01  0.31631196140E+01  0.31886035613E+02  0.00000000000E+00 0.  1.
         11    1    3    3    0    0  0.46046562246E+01 -0.12556324949E+02 -0.19138108870E+01  0.13510248982E+02  0.51100000000E-03 0. -1.
        -11    1    3    3    0    0 -0.21675807087E+00  0.29455016319E+01 -0.62363541553E+01  0.69003679131E+01  0.51100000000E-03 0.  1.
         12    1    3    3    0    0 -0.35735656121E+02  0.14513068913E+02  0.49870454283E+01  0.38891347492E+02  0.00000000000E+00 0. -1.
</event>
<event>
 7    1  0.6515090E-012  0.5930195E+02  0.7816164E-02  0.1266605E+00
        -11   -1    0    0    0    0  0.00000000000E+00  0.00000000000E+00  0.45593999997E+02  0.45594000000E+02  0.51100000000E-03 0. -1.
         11   -1    0    0    0    0 -0.00000000000E+00 -0.00000000000E+00 -0.45593999997E+02  0.45594000000E+02  0.51100000000E-03 0.  1.
    9900012    2    1    2    0    0 -0.22682156035E+02 -0.22386653953E+02  0.10382321427E+01  0.59301946566E+02  0.50000004629E+02 0.  0.
        -12    1    1    2    0    0  0.22682156035E+02  0.22386653953E+02 -0.10382321427E+01  0.31886053434E+02  0.00000000000E+00 0.  1.
         11    1    3    3    0    0 -0.18903268478E+01  0.46730688284E+01 -0.29131227337E+01  0.58221295236E+01  0.51100000000E-03 0.  1.
        -11    1    3    3    0    0 -0.17969982760E+01  0.90469305424E+01  0.83543177506E+01  0.12444708931E+02  0.51100000000E-03 0. -1.
         12    1    3    3    0    0 -0.18994830911E+02 -0.36106653324E+02 -0.44029628742E+01  0.41035108111E+02  0.00000000000E+00 0. -1.
</event>
<event>
 7    1  0.6515090E-012  0.5930194E+02  0.7816164E-02  0.1266605E+00
        -11   -1    0    0    0    0  0.00000000000E+00  0.00000000000E+00  0.45593999997E+02  0.45594000000E+02  0.51100000000E-03 0.  1.
         11   -1    0    0    0    0 -0.00000000000E+00 -0.00000000000E+00 -0.45593999997E+02  0.45594000000E+02  0.51100000000E-03 0. -1.
    9900012    2    1    2    0    0  0.23894510358E+02  0.20985960204E+02 -0.23157064020E+01  0.59301942748E+02  0.49999997666E+02 0.  0.
        -12    1    1    2    0    0 -0.23894510358E+02 -0.20985960204E+02  0.23157064020E+01  0.31886057252E+02  0.00000000000E+00 0.  1.
         11    1    3    3    0    0 -0.67694773361E+01 -0.40225469497E+01  0.66147188862E+01  0.10284027109E+02  0.51100000000E-03 0. -1.
        -11    1    3    3    0    0  0.20283439191E+02  0.19518528054E+02  0.72096216701E+01  0.29058036543E+02  0.51100000000E-03 0.  1.
         12    1    3    3    0    0  0.10380548504E+02  0.54899790988E+01 -0.16140046958E+02  0.19959879097E+02  0.00000000000E+00 0. -1.
</event>
<event>
 7    1  0.6515090E-012  0.5930201E+02  0.7816164E-02  0.1266605E+00
        -11   -1    0    0    0    0  0.00000000000E+00  0.00000000000E+00  0.45593999997E+02  0.45594000000E+02  0.51100000000E-03 0.  1.
         11   -1    0    0    0    0 -0.00000000000E+00 -0.00000000000E+00 -0.45593999997E+02  0.45594000000E+02  0.51100000000E-03 0. -1.
    9900012    2    1    2    0    0 -0.57170200357E+01  0.19912648470E+01 -0.31306015844E+02  0.59302014335E+02  0.50000128223E+02 0.  0.
        -12    1    1    2    0    0  0.57170200357E+01 -0.19912648470E+01  0.31306015844E+02  0.31885985665E+02  0.00000000000E+00 0.  1.
         11    1    3    3    0    0  0.10565498277E+02  0.11334734672E+01 -0.33062380892E+02  0.34728022495E+02  0.51100000000E-03 0. -1.
        -11    1    3    3    0    0 -0.20893592649E+01 -0.68828280193E+00  0.85030883380E+01  0.87830328986E+01  0.51100000000E-03 0.  1.
        -12    1    3    3    0    0 -0.14193159048E+02  0.15460741818E+01 -0.67467232909E+01  0.15790958941E+02  0.00000000000E+00 0.  1.
</event>
<event>
 7    1  0.6515090E-012  0.5930193E+02  0.7816164E-02  0.1266605E+00
        -11   -1    0    0    0    0  0.00000000000E+00  0.00000000000E+00  0.45593999997E+02  0.45594000000E+02  0.51100000000E-03 0.  1.
         11   -1    0    0    0    0 -0.00000000000E+00 -0.00000000000E+00 -0.45593999997E+02  0.45594000000E+02  0.51100000000E-03 0. -1.
    9900012    2    1    2    0    0  0.30170808024E+01  0.29971877063E+02 -0.10454914291E+02  0.59301930564E+02  0.49999975445E+02 0.  0.
        -12    1    1    2    0    0 -0.30170808024E+01 -0.29971877063E+02  0.10454914291E+02  0.31886069436E+02  0.00000000000E+00 0.  1.
         11    1    3    3    0    0  0.90402758083E+01  0.30776366761E+01 -0.10024687176E+02  0.13845316444E+02  0.51100000000E-03 0. -1.
        -11    1    3    3    0    0 -0.12136598434E+02  0.22348610998E+02 -0.14632201651E+02  0.29340394689E+02  0.51100000000E-03 0.  1.
        -12    1    3    3    0    0  0.61134034285E+01  0.45456293886E+01  0.14201974536E+02  0.16116219430E+02  0.00000000000E+00 0.  1.
</event>
<event>
 7    1  0.6515090E-012  0.5930193E+02  0.7816164E-02  0.1266605E+00
        -11   -1    0    0    0    0  0.00000000000E+00  0.00000000000E+00  0.45593999997E+02  0.45594000000E+02  0.51100000000E-03 0. -1.
         11   -1    0    0    0    0 -0.00000000000E+00 -0.00000000000E+00 -0.45593999997E+02  0.45594000000E+02  0.51100000000E-03 0.  1.
    9900012    2    1    2    0    0  0.26968102064E+02  0.15772361179E+02 -0.63777251256E+01  0.59301932763E+02  0.49999979455E+02 0.  0.
        -12    1    1    2    0    0 -0.26968102064E+02 -0.15772361179E+02  0.63777251256E+01  0.31886067237E+02  0.00000000000E+00 0.  1.
         11    1    3    3    0    0  0.84880115046E+01  0.26840741342E+02 -0.21570510817E+01  0.28233395204E+02  0.51100000000E-03 0. -1.
        -11    1    3    3    0    0 -0.37891867139E+01 -0.14772757959E+01  0.37633240866E+01  0.55410186944E+01  0.51100000000E-03 0.  1.
        -12    1    3    3    0    0  0.22269277273E+02 -0.95911043668E+01 -0.79839981306E+01  0.25527518865E+02  0.00000000000E+00 0.  1.
</event>
<event>
 7    1  0.6515090E-012  0.5930190E+02  0.7816164E-02  0.1266605E+00
        -11   -1    0    0    0    0  0.00000000000E+00  0.00000000000E+00  0.45593999997E+02  0.45594000000E+02  0.51100000000E-03 0.  1.
         11   -1    0    0    0    0 -0.00000000000E+00 -0.00000000000E+00 -0.45593999997E+02  0.45594000000E+02  0.51100000000E-03 0. -1.
    9900012    2    1    2    0    0 -0.30656143787E+01  0.30436983171E+02 -0.89952939967E+01  0.59301901930E+02  0.49999923223E+02 0.  0.
        -12    1    1    2    0    0  0.30656143787E+01 -0.30436983171E+02  0.89952939967E+01  0.31886098070E+02  0.00000000000E+00 0.  1.
         11    1    3    3    0    0  0.13250834099E+02  0.61908005495E+01 -0.58117083063E+00  0.14637225679E+02  0.51100000000E-03 0. -1.
        -11    1    3    3    0    0  0.92685405650E+01  0.12443974189E+02 -0.11024974944E+01  0.15555508311E+02  0.51100000000E-03 0.  1.
        -12    1    3    3    0    0 -0.25584989043E+02  0.11802208432E+02 -0.73116256717E+01  0.29109167940E+02  0.00000000000E+00 0.  1.
</event>
<event>
 7    1  0.6515090E-012  0.5930194E+02  0.7816164E-02  0.1266605E+00
        -11   -1    0    0    0    0  0.00000000000E+00  0.00000000000E+00  0.45593999997E+02  0.45594000000E+02  0.51100000000E-03 0.  1.
         11   -1    0    0    0    0 -0.00000000000E+00 -0.00000000000E+00 -0.45593999997E+02  0.45594000000E+02  0.51100000000E-03 0. -1.
    9900012    2    1    2    0    0  0.12210297651E+02 -0.28378107793E+02  0.78938177514E+01  0.59301941458E+02  0.49999995314E+02 0.  0.
        -12    1    1    2    0    0 -0.12210297651E+02  0.28378107793E+02 -0.78938177514E+01  0.31886058542E+02  0.00000000000E+00 0.  1.
         11    1    3    3    0    0  0.10555288143E+02 -0.20004431168E+02  0.11816848225E+02  0.25519194274E+02  0.51100000000E-03 0. -1.
        -11    1    3    3    0    0  0.68623529305E+01 -0.16057806458E+02  0.75500228759E+01  0.19024927902E+02  0.51100000000E-03 0.  1.
        -12    1    3    3    0    0 -0.52073434221E+01  0.76841298332E+01 -0.11473053350E+02  0.14757819283E+02  0.00000000000E+00 0.  1.
</event>
<event>
 7    1  0.6515090E-012  0.5930192E+02  0.7816164E-02  0.1266605E+00
        -11   -1    0    0    0    0  0.00000000000E+00  0.00000000000E+00  0.45593999997E+02  0.45594000000E+02  0.51100000000E-03 0.  1.
         11   -1    0    0    0    0 -0.00000000000E+00 -0.00000000000E+00 -0.45593999997E+02  0.45594000000E+02  0.51100000000E-03 0. -1.
    9900012    2    1    2    0    0  0.12010439061E+01 -0.28639925758E+02  0.13965471450E+02  0.59301917665E+02  0.49999951920E+02 0.  0.
        -12    1    1    2    0    0 -0.12010439061E+01  0.28639925758E+02 -0.13965471450E+02  0.31886082335E+02  0.00000000000E+00 0.  1.
         11    1    3    3    0    0 -0.52606339427E+01 -0.20359792174E+01 -0.25798198518E+01  0.62028180355E+01  0.51100000000E-03 0. -1.
        -11    1    3    3    0    0 -0.15116420957E+01 -0.37039835537E+02  0.98462370476E+01  0.38356001651E+02  0.51100000000E-03 0.  1.
        -12    1    3    3    0    0  0.79733199445E+01  0.10435888996E+02  0.66990542545E+01  0.14743097978E+02  0.00000000000E+00 0.  1.
</event>
<event>
 7    1  0.6515090E-012  0.5930205E+02  0.7816164E-02  0.1266604E+00
        -11   -1    0    0    0    0  0.00000000000E+00  0.00000000000E+00  0.45593999997E+02  0.45594000000E+02  0.51100000000E-03 0.  1.
         11   -1    0    0    0    0 -0.00000000000E+00 -0.00000000000E+00 -0.45593999997E+02  0.45594000000E+02  0.51100000000E-03 0. -1.
    9900012    2    1    2    0    0 -0.10416562110E+02  0.27552556649E+02 -0.12209253536E+02  0.59302046729E+02  0.50000187303E+02 0.  0.
        -12    1    1    2    0    0  0.10416562110E+02 -0.27552556649E+02  0.12209253536E+02  0.31885953271E+02  0.00000000000E+00 0.  1.
         11    1    3    3    0    0 -0.14675396673E+02 -0.60575687674E+01 -0.12959589354E+02  0.20494203165E+02  0.51100000000E-03 0. -1.
        -11    1    3    3    0    0  0.92979023137E+00 -0.27487880529E+00  0.44545033089E+01  0.45588011826E+01  0.51100000000E-03 0.  1.
        -12    1    3    3    0    0  0.33290443319E+01  0.33885004222E+02 -0.37041674903E+01  0.34249042382E+02  0.00000000000E+00 0.  1.
</event>
<event>
 7    1  0.6515090E-012  0.5930192E+02  0.7816164E-02  0.1266605E+00
        -11   -1    0    0    0    0  0.00000000000E+00  0.00000000000E+00  0.45593999997E+02  0.45594000000E+02  0.51100000000E-03 0.  1.
         11   -1    0    0    0    0 -0.00000000000E+00 -0.00000000000E+00 -0.45593999997E+02  0.45594000000E+02  0.51100000000E-03 0. -1.
    9900012    2    1    2    0    0  0.26236108954E+02  0.16796356612E+01 -0.18043491180E+02  0.59301918978E+02  0.49999954315E+02 0.  0.
        -12    1    1    2    0    0 -0.26236108954E+02 -0.16796356612E+01  0.18043491180E+02  0.31886081022E+02  0.00000000000E+00 0.  1.
         11    1    3    3    0    0  0.20585473802E+01 -0.38513270390E+01 -0.14904385027E+02  0.15530970046E+02  0.51100000000E-03 0. -1.
        -11    1    3    3    0    0  0.28480689792E+01 -0.60477629258E+01  0.13004843848E+02  0.14622342394E+02  0.51100000000E-03 0.  1.
         12    1    3    3    0    0  0.21329492594E+02  0.11578725626E+02 -0.16143950001E+02  0.29148606538E+02  0.00000000000E+00 0. -1.
</event>
<event>
 7    1  0.6515090E-012  0.5930193E+02  0.7816164E-02  0.1266605E+00
        -11   -1    0    0    0    0  0.00000000000E+00  0.00000000000E+00  0.45593999997E+02  0.45594000000E+02  0.51100000000E-03 0.  1.
         11   -1    0    0    0    0 -0.00000000000E+00 -0.00000000000E+00 -0.45593999997E+02  0.45594000000E+02  0.51100000000E-03 0. -1.
    9900012    2    1    2    0    0  0.11118830129E+02 -0.24740196345E+02 -0.16763516413E+02  0.59301934373E+02  0.49999982392E+02 0.  0.
        -12    1    1    2    0    0 -0.11118830129E+02  0.24740196345E+02  0.16763516413E+02  0.31886065627E+02  0.00000000000E+00 0.  1.
         11    1    3    3    0    0 -0.12029818870E+01 -0.23825878841E+02 -0.15410375725E+02  0.28400692742E+02  0.51100000000E-03 0. -1.
        -11    1    3    3    0    0  0.19139464084E+01 -0.13803932987E+02  0.17521962596E+01  0.14045709265E+02  0.51100000000E-03 0.  1.
         12    1    3    3    0    0  0.10407865608E+02  0.12889615482E+02 -0.31053369478E+01  0.16855532366E+02  0.00000000000E+00 0. -1.
</event>
<event>
 7    1  0.6515090E-012  0.5930194E+02  0.7816164E-02  0.1266605E+00
        -11   -1    0    0    0    0  0.00000000000E+00  0.00000000000E+00  0.45593999997E+02  0.45594000000E+02  0.51100000000E-03 0.  1.
         11   -1    0    0    0    0 -0.00000000000E+00 -0.00000000000E+00 -0.45593999997E+02  0.45594000000E+02  0.51100000000E-03 0. -1.
    9900012    2    1    2    0    0  0.15764800463E+02 -0.40764350970E+01 -0.27414856282E+02  0.59301943459E+02  0.49999998963E+02 0.  0.
        -12    1    1    2    0    0 -0.15764800463E+02  0.40764350970E+01  0.27414856282E+02  0.31886056541E+02  0.00000000000E+00 0.  1.
         11    1    3    3    0    0  0.98496258043E+01 -0.10128942863E+02 -0.10660469867E+01  0.14168523863E+02  0.51100000000E-03 0.  1.
        -11    1    3    3    0    0  0.16745512966E+02 -0.79301202501E+01 -0.10031450799E+02  0.21069623088E+02  0.51100000000E-03 0. -1.
        -12    1    3    3    0    0 -0.10830338307E+02  0.13982628016E+02 -0.16317358497E+02  0.24063796509E+02  0.00000000000E+00 0.  1.
</event>
<event>
 7    1  0.6515090E-012  0.5930192E+02  0.7816164E-02  0.1266605E+00
        -11   -1    0    0    0    0  0.00000000000E+00  0.00000000000E+00  0.45593999997E+02  0.45594000000E+02  0.51100000000E-03 0. -1.
         11   -1    0    0    0    0 -0.00000000000E+00 -0.00000000000E+00 -0.45593999997E+02  0.45594000000E+02  0.51100000000E-03 0.  1.
    9900012    2    1    2    0    0  0.60578812829E+01 -0.10178529028E+01  0.31288789483E+02  0.59301916868E+02  0.49999950467E+02 0.  0.
        -12    1    1    2    0    0 -0.60578812829E+01  0.10178529028E+01 -0.31288789483E+02  0.31886083132E+02  0.00000000000E+00 0.  1.
         11    1    3    3    0    0 -0.14386419629E+01  0.68763249499E+01  0.86961897101E+01  0.11179322486E+02  0.51100000000E-03 0. -1.
        -11    1    3    3    0    0 -0.38782717025E+01 -0.22708642670E+02  0.16983091033E+02  0.28620776101E+02  0.51100000000E-03 0.  1.
         12    1    3    3    0    0  0.11374794948E+02  0.14814464818E+02  0.56095087402E+01  0.19501818281E+02  0.00000000000E+00 0. -1.
</event>
<event>
 7    1  0.6515090E-012  0.5930194E+02  0.7816164E-02  0.1266605E+00
        -11   -1    0    0    0    0  0.00000000000E+00  0.00000000000E+00  0.45593999997E+02  0.45594000000E+02  0.51100000000E-03 0.  1.
         11   -1    0    0    0    0 -0.00000000000E+00 -0.00000000000E+00 -0.45593999997E+02  0.45594000000E+02  0.51100000000E-03 0. -1.
    9900012    2    1    2    0    0  0.57383937079E+01 -0.27380076440E+02 -0.15301078259E+02  0.59301941227E+02  0.49999994892E+02 0.  0.
        -12    1    1    2    0    0 -0.57383937079E+01  0.27380076440E+02  0.15301078259E+02  0.31886058773E+02  0.00000000000E+00 0.  1.
         11    1    3    3    0    0  0.92016808152E+01 -0.93420895104E+01 -0.92990084915E+01  0.16075357708E+02  0.51100000000E-03 0. -1.
        -11    1    3    3    0    0  0.10472909601E+02 -0.15173506753E+02  0.10675713540E+02  0.21304647440E+02  0.51100000000E-03 0.  1.
         12    1    3    3    0    0 -0.13936196709E+02 -0.28644801764E+01 -0.16677783308E+02  0.21921936079E+02  0.00000000000E+00 0. -1.
</event>
<event>
 7    1  0.6515090E-012  0.5930194E+02  0.7816164E-02  0.1266605E+00
        -11   -1    0    0    0    0  0.00000000000E+00  0.00000000000E+00  0.45593999997E+02  0.45594000000E+02  0.51100000000E-03 0. -1.
         11   -1    0    0    0    0 -0.00000000000E+00 -0.00000000000E+00 -0.45593999997E+02  0.45594000000E+02  0.51100000000E-03 0.  1.
    9900012    2    1    2    0    0  0.13193656576E+02 -0.27012546915E+02  0.10628764295E+02  0.59301938858E+02  0.49999990572E+02 0.  0.
        -12    1    1    2    0    0 -0.13193656576E+02  0.27012546915E+02 -0.10628764295E+02  0.31886061142E+02  0.00000000000E+00 0.  1.
         11    1    3    3    0    0  0.11287026443E+02  0.32635958710E+01 -0.70780149856E+00  0.11770684227E+02  0.51100000000E-03 0. -1.
        -11    1    3    3    0    0 -0.11735307367E+02 -0.64676868414E+00 -0.26367558471E+01  0.12045257589E+02  0.51100000000E-03 0.  1.
         12    1    3    3    0    0  0.13641937500E+02 -0.29629374102E+02  0.13973321640E+02  0.35485997043E+02  0.00000000000E+00 0. -1.
</event>
<event>
 7    1  0.6515090E-012  0.5930194E+02  0.7816164E-02  0.1266605E+00
        -11   -1    0    0    0    0  0.00000000000E+00  0.00000000000E+00  0.45593999997E+02  0.45594000000E+02  0.51100000000E-03 0.  1.
         11   -1    0    0    0    0 -0.00000000000E+00 -0.00000000000E+00 -0.45593999997E+02  0.45594000000E+02  0.51100000000E-03 0. -1.
    9900012    2    1    2    0    0  0.20769510676E+02  0.14916595221E+01 -0.24147944496E+02  0.59301939641E+02  0.49999991999E+02 0.  0.
        -12    1    1    2    0    0 -0.20769510676E+02 -0.14916595221E+01  0.24147944496E+02  0.31886060359E+02  0.00000000000E+00 0.  1.
         11    1    3    3    0    0  0.86231395432E+01 -0.13264721803E+02 -0.19139451240E+01  0.15936579504E+02  0.51100000000E-03 0. -1.
        -11    1    3    3    0    0  0.51956402396E+01 -0.51950483395E+01 -0.20947539442E+02  0.22198707478E+02  0.51100000000E-03 0.  1.
        -12    1    3    3    0    0  0.69507308935E+01  0.19951429665E+02 -0.12864599299E+01  0.21166652659E+02  0.00000000000E+00 0.  1.
</event>
<event>
 7    1  0.6515090E-012  0.5930196E+02  0.7816164E-02  0.1266605E+00
        -11   -1    0    0    0    0  0.00000000000E+00  0.00000000000E+00  0.45593999997E+02  0.45594000000E+02  0.51100000000E-03 0.  1.
         11   -1    0    0    0    0 -0.00000000000E+00 -0.00000000000E+00 -0.45593999997E+02  0.45594000000E+02  0.51100000000E-03 0. -1.
    9900012    2    1    2    0    0  0.23228495264E+02  0.76256986676E+01 -0.20469617322E+02  0.59301960646E+02  0.50000030307E+02 0.  0.
        -12    1    1    2    0    0 -0.23228495264E+02 -0.76256986676E+01  0.20469617322E+02  0.31886039354E+02  0.00000000000E+00 0.  1.
         11    1    3    3    0    0 -0.34194196275E+01  0.86425138643E+01  0.44450020672E-01  0.92944850610E+01  0.51100000000E-03 0. -1.
        -11    1    3    3    0    0  0.28360510353E+02 -0.26613160714E+01  0.86376447037E+00  0.28498197137E+02  0.51100000000E-03 0.  1.
         12    1    3    3    0    0 -0.17125954618E+01  0.16445008747E+01 -0.21377831813E+02  0.21509278448E+02  0.00000000000E+00 0. -1.
</event>
<event>
 7    1  0.6515090E-012  0.5930193E+02  0.7816164E-02  0.1266605E+00
        -11   -1    0    0    0    0  0.00000000000E+00  0.00000000000E+00  0.45593999997E+02  0.45594000000E+02  0.51100000000E-03 0.  1.
         11   -1    0    0    0    0 -0.00000000000E+00 -0.00000000000E+00 -0.45593999997E+02  0.45594000000E+02  0.51100000000E-03 0. -1.
    9900012    2    1    2    0    0  0.15322165712E+02  0.18491943597E+02 -0.20976196141E+02  0.59301928674E+02  0.49999971998E+02 0.  0.
        -12    1    1    2    0    0 -0.15322165712E+02 -0.18491943597E+02  0.20976196141E+02  0.31886071326E+02  0.00000000000E+00 0.  1.
         11    1    3    3    0    0 -0.12779632153E+02  0.73863098692E+01  0.22642334626E+01  0.14933295848E+02  0.51100000000E-03 0. -1.
        -11    1    3    3    0    0  0.52588793821E+01  0.73476718218E+01  0.28632070822E+01  0.94785045557E+01  0.51100000000E-03 0.  1.
         12    1    3    3    0    0  0.22842918483E+02  0.37579619058E+01 -0.26103636685E+02  0.34890128270E+02  0.00000000000E+00 0. -1.
</event>
<event>
 7    1  0.6515090E-012  0.5930196E+02  0.7816164E-02  0.1266605E+00
        -11   -1    0    0    0    0  0.00000000000E+00  0.00000000000E+00  0.45593999997E+02  0.45594000000E+02  0.51100000000E-03 0.  1.
         11   -1    0    0    0    0 -0.00000000000E+00 -0.00000000000E+00 -0.45593999997E+02  0.45594000000E+02  0.51100000000E-03 0. -1.
    9900012    2    1    2    0    0  0.15955918973E+02  0.27859971230E+01 -0.27465729205E+02  0.59301962131E+02  0.50000033016E+02 0.  0.
        -12    1    1    2    0    0 -0.15955918973E+02 -0.27859971230E+01  0.27465729205E+02  0.31886037869E+02  0.00000000000E+00 0.  1.
         11    1    3    3    0    0  0.10141322366E+02  0.99011094144E+01 -0.22597761488E+02  0.26674654852E+02  0.51100000000E-03 0. -1.
        -11    1    3    3    0    0  0.83866202885E+01 -0.54302940818E+01 -0.17214415655E+02  0.19903758446E+02  0.51100000000E-03 0.  1.
        -12    1    3    3    0    0 -0.25720236809E+01 -0.16848182096E+01  0.12346447938E+02  0.12723548833E+02  0.00000000000E+00 0.  1.
</event>
<event>
 7    1  0.6515090E-012  0.5930197E+02  0.7816164E-02  0.1266605E+00
        -11   -1    0    0    0    0  0.00000000000E+00  0.00000000000E+00  0.45593999997E+02  0.45594000000E+02  0.51100000000E-03 0.  1.
         11   -1    0    0    0    0 -0.00000000000E+00 -0.00000000000E+00 -0.45593999997E+02  0.45594000000E+02  0.51100000000E-03 0. -1.
    9900012    2    1    2    0    0 -0.36664479876E+01 -0.78673048872E+01 -0.30681946011E+02  0.59301966411E+02  0.50000040821E+02 0.  0.
        -12    1    1    2    0    0  0.36664479876E+01  0.78673048872E+01  0.30681946011E+02  0.31886033589E+02  0.00000000000E+00 0.  1.
         11    1    3    3    0    0 -0.49125943312E+01 -0.61071388622E+01  0.10931016678E+02  0.13450570769E+02  0.51100000000E-03 0. -1.
        -11    1    3    3    0    0  0.40405122398E+01  0.48062198373E+01 -0.37324775549E+01  0.73045791968E+01  0.51100000000E-03 0.  1.
         12    1    3    3    0    0 -0.27943658961E+01 -0.65663858622E+01 -0.37880485134E+02  0.38546816445E+02  0.00000000000E+00 0. -1.
</event>
<event>
 7    1  0.6515090E-012  0.5930196E+02  0.7816164E-02  0.1266605E+00
        -11   -1    0    0    0    0  0.00000000000E+00  0.00000000000E+00  0.45593999997E+02  0.45594000000E+02  0.51100000000E-03 0.  1.
         11   -1    0    0    0    0 -0.00000000000E+00 -0.00000000000E+00 -0.45593999997E+02  0.45594000000E+02  0.51100000000E-03 0. -1.
    9900012    2    1    2    0    0  0.22464699489E+02  0.11683499178E+02  0.19379176004E+02  0.59301963263E+02  0.50000035081E+02 0.  0.
        -12    1    1    2    0    0 -0.22464699489E+02 -0.11683499178E+02 -0.19379176004E+02  0.31886036737E+02  0.00000000000E+00 0.  1.
         11    1    3    3    0    0 -0.72597759262E+01 -0.67977888087E+01  0.10859430160E+02  0.14725539136E+02  0.51100000000E-03 0.  1.
        -11    1    3    3    0    0  0.25052665145E+02  0.15443614852E+02  0.17328612333E+02  0.34152921928E+02  0.51100000000E-03 0. -1.
         12    1    3    3    0    0  0.46718102708E+01  0.30376731347E+01 -0.88088664889E+01  0.10423502199E+02  0.00000000000E+00 0. -1.
</event>
<event>
 7    1  0.6515090E-012  0.5930194E+02  0.7816164E-02  0.1266605E+00
        -11   -1    0    0    0    0  0.00000000000E+00  0.00000000000E+00  0.45593999997E+02  0.45594000000E+02  0.51100000000E-03 0.  1.
         11   -1    0    0    0    0 -0.00000000000E+00 -0.00000000000E+00 -0.45593999997E+02  0.45594000000E+02  0.51100000000E-03 0. -1.
    9900012    2    1    2    0    0 -0.25000439364E+02 -0.16699367584E+02 -0.10622150649E+02  0.59301938304E+02  0.49999989561E+02 0.  0.
        -12    1    1    2    0    0  0.25000439364E+02  0.16699367584E+02  0.10622150649E+02  0.31886061696E+02  0.00000000000E+00 0.  1.
         11    1    3    3    0    0 -0.10823015625E+02 -0.17731191167E+02 -0.32734528816E+01  0.21029700461E+02  0.51100000000E-03 0. -1.
        -11    1    3    3    0    0  0.76857190730E+01 -0.76956643779E+01 -0.97534288260E+01  0.14609000719E+02  0.51100000000E-03 0.  1.
         12    1    3    3    0    0 -0.21863142812E+02  0.87274879617E+01  0.24047310582E+01  0.23663237124E+02  0.00000000000E+00 0. -1.
</event>
<event>
 7    1  0.6515090E-012  0.5930193E+02  0.7816164E-02  0.1266605E+00
        -11   -1    0    0    0    0  0.00000000000E+00  0.00000000000E+00  0.45593999997E+02  0.45594000000E+02  0.51100000000E-03 0.  1.
         11   -1    0    0    0    0 -0.00000000000E+00 -0.00000000000E+00 -0.45593999997E+02  0.45594000000E+02  0.51100000000E-03 0. -1.
    9900012    2    1    2    0    0  0.54543932817E+01 -0.27255279287E+02 -0.15624367571E+02  0.59301929105E+02  0.49999972785E+02 0.  0.
        -12    1    1    2    0    0 -0.54543932817E+01  0.27255279287E+02  0.15624367571E+02  0.31886070895E+02  0.00000000000E+00 0.  1.
         11    1    3    3    0    0 -0.89028250220E+01 -0.12386538440E+02  0.11502452808E+02  0.19104791252E+02  0.51100000000E-03 0. -1.
        -11    1    3    3    0    0 -0.45130589237E+01 -0.69950497895E+00 -0.46237338787E+00  0.45902938332E+01  0.51100000000E-03 0.  1.
         12    1    3    3    0    0  0.18870277227E+02 -0.14169235868E+02 -0.26664446992E+02  0.35606844020E+02  0.00000000000E+00 0. -1.
</event>
<event>
 7    1  0.6515090E-012  0.5930194E+02  0.7816164E-02  0.1266605E+00
        -11   -1    0    0    0    0  0.00000000000E+00  0.00000000000E+00  0.45593999997E+02  0.45594000000E+02  0.51100000000E-03 0. -1.
         11   -1    0    0    0    0 -0.00000000000E+00 -0.00000000000E+00 -0.45593999997E+02  0.45594000000E+02  0.51100000000E-03 0.  1.
    9900012    2    1    2    0    0  0.45610672007E+01 -0.31383774112E+02  0.33130217826E+01  0.59301941528E+02  0.49999995441E+02 0.  0.
        -12    1    1    2    0    0 -0.45610672007E+01  0.31383774112E+02 -0.33130217826E+01  0.31886058472E+02  0.00000000000E+00 0.  1.
         11    1    3    3    0    0  0.10942820510E+02 -0.21610278358E+02 -0.80160655917E+01  0.25514834102E+02  0.51100000000E-03 0. -1.
        -11    1    3    3    0    0  0.24247807789E+01 -0.11513519833E+02 -0.67767419749E+01  0.13578104906E+02  0.51100000000E-03 0.  1.
         12    1    3    3    0    0 -0.88065340880E+01  0.17400240789E+01  0.18105829349E+02  0.20209002520E+02  0.00000000000E+00 0. -1.
</event>
<event>
 7    1  0.6515090E-012  0.5930194E+02  0.7816164E-02  0.1266605E+00
        -11   -1    0    0    0    0  0.00000000000E+00  0.00000000000E+00  0.45593999997E+02  0.45594000000E+02  0.51100000000E-03 0.  1.
         11   -1    0    0    0    0 -0.00000000000E+00 -0.00000000000E+00 -0.45593999997E+02  0.45594000000E+02  0.51100000000E-03 0. -1.
    9900012    2    1    2    0    0  0.28628298139E+02  0.91127585807E+01  0.10681713800E+02  0.59301939832E+02  0.49999992349E+02 0.  0.
        -12    1    1    2    0    0 -0.28628298139E+02 -0.91127585807E+01 -0.10681713800E+02  0.31886060168E+02  0.00000000000E+00 0.  1.
         11    1    3    3    0    0  0.12150615998E+02  0.43017257038E+01  0.96934018411E+01  0.16127751011E+02  0.51100000000E-03 0. -1.
        -11    1    3    3    0    0  0.19627392748E+02 -0.15459124954E+01  0.16775724442E+02  0.25865987751E+02  0.51100000000E-03 0.  1.
         12    1    3    3    0    0 -0.31497106070E+01  0.63569453724E+01 -0.15787412483E+02  0.17308201070E+02  0.00000000000E+00 0. -1.
</event>
<event>
 7    1  0.6515090E-012  0.5930192E+02  0.7816164E-02  0.1266605E+00
        -11   -1    0    0    0    0  0.00000000000E+00  0.00000000000E+00  0.45593999997E+02  0.45594000000E+02  0.51100000000E-03 0.  1.
         11   -1    0    0    0    0 -0.00000000000E+00 -0.00000000000E+00 -0.45593999997E+02  0.45594000000E+02  0.51100000000E-03 0. -1.
    9900012    2    1    2    0    0 -0.22159006436E+02 -0.19243549353E+02 -0.12465414330E+02  0.59301916635E+02  0.49999950043E+02 0.  0.
        -12    1    1    2    0    0  0.22159006436E+02  0.19243549353E+02  0.12465414330E+02  0.31886083365E+02  0.00000000000E+00 0.  1.
         11    1    3    3    0    0  0.99050700844E+01 -0.82444982341E+01 -0.42740830004E+01  0.13577553177E+02  0.51100000000E-03 0. -1.
        -11    1    3    3    0    0 -0.33071359356E+01  0.91691853412E+01 -0.31278783438E+01  0.10236929770E+02  0.51100000000E-03 0.  1.
         12    1    3    3    0    0 -0.28756940585E+02 -0.20168236460E+02 -0.50634529861E+01  0.35487433689E+02  0.00000000000E+00 0. -1.
</event>
<event>
 7    1  0.6515090E-012  0.5930199E+02  0.7816164E-02  0.1266605E+00
        -11   -1    0    0    0    0  0.00000000000E+00  0.00000000000E+00  0.45593999997E+02  0.45594000000E+02  0.51100000000E-03 0.  1.
         11   -1    0    0    0    0 -0.00000000000E+00 -0.00000000000E+00 -0.45593999997E+02  0.45594000000E+02  0.51100000000E-03 0. -1.
    9900012    2    1    2    0    0  0.18354544409E+02 -0.22565655953E+02 -0.13062134141E+02  0.59301992451E+02  0.50000088312E+02 0.  0.
        -12    1    1    2    0    0 -0.18354544409E+02  0.22565655953E+02  0.13062134141E+02  0.31886007549E+02  0.00000000000E+00 0.  1.
         11    1    3    3    0    0  0.15936283759E+02 -0.14310899686E+02 -0.83679728296E+01  0.22995433447E+02  0.51100000000E-03 0. -1.
        -11    1    3    3    0    0  0.41769048882E+01  0.29378842540E+01 -0.18069657177E+02  0.18777385577E+02  0.51100000000E-03 0.  1.
         12    1    3    3    0    0 -0.17586442377E+01 -0.11192640521E+02  0.13375495866E+02  0.17529173427E+02  0.00000000000E+00 0. -1.
</event>
<event>
 7    1  0.6515090E-012  0.5930217E+02  0.7816164E-02  0.1266604E+00
        -11   -1    0    0    0    0  0.00000000000E+00  0.00000000000E+00  0.45593999997E+02  0.45594000000E+02  0.51100000000E-03 0.  1.
         11   -1    0    0    0    0 -0.00000000000E+00 -0.00000000000E+00 -0.45593999997E+02  0.45594000000E+02  0.51100000000E-03 0. -1.
    9900012    2    1    2    0    0  0.94345824216E+01  0.33688921074E+01 -0.30271197928E+02  0.59302169236E+02  0.50000410725E+02 0.  0.
        -12    1    1    2    0    0 -0.94345824216E+01 -0.33688921074E+01  0.30271197928E+02  0.31885830764E+02  0.00000000000E+00 0.  1.
         11    1    3    3    0    0  0.43772594978E+01  0.13704232604E+02 -0.20251018366E+02  0.24840896463E+02  0.51100000000E-03 0. -1.
        -11    1    3    3    0    0 -0.89199747608E+01  0.36176197825E+00  0.59226494908E+01  0.10713290751E+02  0.51100000000E-03 0.  1.
        -12    1    3    3    0    0  0.13977297685E+02 -0.10697102475E+02 -0.15942829053E+02  0.23747982022E+02  0.00000000000E+00 0.  1.
</event>
<event>
 7    1  0.6515090E-012  0.5930197E+02  0.7816164E-02  0.1266605E+00
        -11   -1    0    0    0    0  0.00000000000E+00  0.00000000000E+00  0.45593999997E+02  0.45594000000E+02  0.51100000000E-03 0.  1.
         11   -1    0    0    0    0 -0.00000000000E+00 -0.00000000000E+00 -0.45593999997E+02  0.45594000000E+02  0.51100000000E-03 0. -1.
    9900012    2    1    2    0    0  0.19277155336E+02 -0.23741366366E+02  0.90253829933E+01  0.59301972764E+02  0.50000052408E+02 0.  0.
        -12    1    1    2    0    0 -0.19277155336E+02  0.23741366366E+02 -0.90253829933E+01  0.31886027236E+02  0.00000000000E+00 0.  1.
         11    1    3    3    0    0 -0.83795315909E+01 -0.25426084477E+01  0.12796038602E+02  0.15505483274E+02  0.51100000000E-03 0. -1.
        -11    1    3    3    0    0  0.67164970888E+01  0.60240043309E+01  0.11712145224E+01  0.90978956380E+01  0.51100000000E-03 0.  1.
         12    1    3    3    0    0  0.20940189838E+02 -0.27222762249E+02 -0.49418701310E+01  0.34698593852E+02  0.00000000000E+00 0. -1.
</event>
<event>
 7    1  0.6515090E-012  0.5930193E+02  0.7816164E-02  0.1266605E+00
        -11   -1    0    0    0    0  0.00000000000E+00  0.00000000000E+00  0.45593999997E+02  0.45594000000E+02  0.51100000000E-03 0. -1.
         11   -1    0    0    0    0 -0.00000000000E+00 -0.00000000000E+00 -0.45593999997E+02  0.45594000000E+02  0.51100000000E-03 0.  1.
    9900012    2    1    2    0    0 -0.15119475430E+02  0.58460724740E+01  0.27458079346E+02  0.59301933733E+02  0.49999981224E+02 0.  0.
        -12    1    1    2    0    0  0.15119475430E+02 -0.58460724740E+01 -0.27458079346E+02  0.31886066267E+02  0.00000000000E+00 0.  1.
         11    1    3    3    0    0 -0.14473735591E+02  0.17445372609E+02  0.25131047342E+02  0.33843752573E+02  0.51100000000E-03 0. -1.
        -11    1    3    3    0    0 -0.48226924917E+01  0.42451742882E+01  0.58598778971E+01  0.86958632025E+01  0.51100000000E-03 0.  1.
        -12    1    3    3    0    0  0.41769526529E+01 -0.15844474423E+02 -0.35328458934E+01  0.16762317957E+02  0.00000000000E+00 0.  1.
</event>
<event>
 7    1  0.6515090E-012  0.5930194E+02  0.7816164E-02  0.1266605E+00
        -11   -1    0    0    0    0  0.00000000000E+00  0.00000000000E+00  0.45593999997E+02  0.45594000000E+02  0.51100000000E-03 0.  1.
         11   -1    0    0    0    0 -0.00000000000E+00 -0.00000000000E+00 -0.45593999997E+02  0.45594000000E+02  0.51100000000E-03 0. -1.
    9900012    2    1    2    0    0  0.14893002928E+02  0.27127147886E+02 -0.76835514251E+01  0.59301942684E+02  0.49999997550E+02 0.  0.
        -12    1    1    2    0    0 -0.14893002928E+02 -0.27127147886E+02  0.76835514251E+01  0.31886057316E+02  0.00000000000E+00 0.  1.
         11    1    3    3    0    0  0.71477799947E+00 -0.69738273347E+01 -0.11111996080E+02  0.13138555188E+02  0.51100000000E-03 0. -1.
        -11    1    3    3    0    0 -0.29198702688E+01  0.18910639330E+02  0.11000353087E+02  0.22071377178E+02  0.51100000000E-03 0.  1.
        -12    1    3    3    0    0  0.17098095197E+02  0.15190335891E+02 -0.75719084321E+01  0.24092010318E+02  0.00000000000E+00 0.  1.
</event>
<event>
 7    1  0.6515090E-012  0.5930182E+02  0.7816164E-02  0.1266605E+00
        -11   -1    0    0    0    0  0.00000000000E+00  0.00000000000E+00  0.45593999997E+02  0.45594000000E+02  0.51100000000E-03 0.  1.
         11   -1    0    0    0    0 -0.00000000000E+00 -0.00000000000E+00 -0.45593999997E+02  0.45594000000E+02  0.51100000000E-03 0. -1.
    9900012    2    1    2    0    0  0.29630214562E+02  0.11767184659E+02  0.55888698136E+00  0.59301817970E+02  0.49999770100E+02 0.  0.
        -12    1    1    2    0    0 -0.29630214562E+02 -0.11767184659E+02 -0.55888698136E+00  0.31886182030E+02  0.00000000000E+00 0.  1.
         11    1    3    3    0    0  0.51699096873E+01  0.60022629532E+01  0.43835969487E+00  0.79339325822E+01  0.51100000000E-03 0. -1.
        -11    1    3    3    0    0  0.12508384698E+02  0.11548554333E+02 -0.20620978182E+02  0.26740484969E+02  0.51100000000E-03 0.  1.
        -12    1    3    3    0    0  0.11951920177E+02 -0.57836326267E+01  0.20741505469E+02  0.24627400419E+02  0.00000000000E+00 0.  1.
</event>
<event>
 7    1  0.6515090E-012  0.5930195E+02  0.7816164E-02  0.1266605E+00
        -11   -1    0    0    0    0  0.00000000000E+00  0.00000000000E+00  0.45593999997E+02  0.45594000000E+02  0.51100000000E-03 0. -1.
         11   -1    0    0    0    0 -0.00000000000E+00 -0.00000000000E+00 -0.45593999997E+02  0.45594000000E+02  0.51100000000E-03 0.  1.
    9900012    2    1    2    0    0  0.20390450566E+01 -0.28948003503E+02  0.13212694460E+02  0.59301954362E+02  0.50000018847E+02 0.  0.
        -12    1    1    2    0    0 -0.20390450566E+01  0.28948003503E+02 -0.13212694460E+02  0.31886045638E+02  0.00000000000E+00 0.  1.
         11    1    3    3    0    0  0.14980875134E+02 -0.10665314349E+02  0.16014971042E+02  0.24385545876E+02  0.51100000000E-03 0. -1.
        -11    1    3    3    0    0 -0.10298542102E+02 -0.11911794643E+02  0.11189261183E+02  0.19317100898E+02  0.51100000000E-03 0.  1.
        -12    1    3    3    0    0 -0.26432879751E+01 -0.63708945114E+01 -0.13991537765E+02  0.15599307588E+02  0.00000000000E+00 0.  1.
</event>
<event>
 7    1  0.6515090E-012  0.5930195E+02  0.7816164E-02  0.1266605E+00
        -11   -1    0    0    0    0  0.00000000000E+00  0.00000000000E+00  0.45593999997E+02  0.45594000000E+02  0.51100000000E-03 0.  1.
         11   -1    0    0    0    0 -0.00000000000E+00 -0.00000000000E+00 -0.45593999997E+02  0.45594000000E+02  0.51100000000E-03 0. -1.
    9900012    2    1    2    0    0  0.85473741272E+01 -0.21693442026E+02 -0.21749873270E+02  0.59301952602E+02  0.50000015637E+02 0.  0.
        -12    1    1    2    0    0 -0.85473741272E+01  0.21693442026E+02  0.21749873270E+02  0.31886047398E+02  0.00000000000E+00 0.  1.
         11    1    3    3    0    0  0.10951137265E+02 -0.33848989925E+01  0.10181653812E+02  0.15331373819E+02  0.51100000000E-03 0. -1.
        -11    1    3    3    0    0  0.69632481024E+01 -0.14621743252E+02 -0.81159807431E+01  0.18114948069E+02  0.51100000000E-03 0.  1.
         12    1    3    3    0    0 -0.93670112399E+01 -0.36867997821E+01 -0.23815546339E+02  0.25855630714E+02  0.00000000000E+00 0. -1.
</event>
<event>
 7    1  0.6515090E-012  0.5930194E+02  0.7816164E-02  0.1266605E+00
        -11   -1    0    0    0    0  0.00000000000E+00  0.00000000000E+00  0.45593999997E+02  0.45594000000E+02  0.51100000000E-03 0. -1.
         11   -1    0    0    0    0 -0.00000000000E+00 -0.00000000000E+00 -0.45593999997E+02  0.45594000000E+02  0.51100000000E-03 0.  1.
    9900012    2    1    2    0    0  0.18686822927E+02  0.17729696491E+02  0.18793111956E+02  0.59301944337E+02  0.50000000564E+02 0.  0.
        -12    1    1    2    0    0 -0.18686822927E+02 -0.17729696491E+02 -0.18793111956E+02  0.31886055663E+02  0.00000000000E+00 0.  1.
         11    1    3    3    0    0  0.54648485072E+01  0.82213376524E+01  0.73873864790E+01  0.12329981397E+02  0.51100000000E-03 0. -1.
        -11    1    3    3    0    0  0.15400090485E+02 -0.12662552472E+02  0.14259940977E+02  0.24512220197E+02  0.51100000000E-03 0.  1.
         12    1    3    3    0    0 -0.21781160648E+01  0.22170911311E+02 -0.28542155006E+01  0.22459742743E+02  0.00000000000E+00 0. -1.
</event>
<event>
 7    1  0.6515090E-012  0.5930196E+02  0.7816164E-02  0.1266605E+00
        -11   -1    0    0    0    0  0.00000000000E+00  0.00000000000E+00  0.45593999997E+02  0.45594000000E+02  0.51100000000E-03 0.  1.
         11   -1    0    0    0    0 -0.00000000000E+00 -0.00000000000E+00 -0.45593999997E+02  0.45594000000E+02  0.51100000000E-03 0. -1.
    9900012    2    1    2    0    0  0.82156145320E+01  0.36259640967E+01 -0.30595356066E+02  0.59301956806E+02  0.50000023304E+02 0.  0.
        -12    1    1    2    0    0 -0.82156145320E+01 -0.36259640967E+01  0.30595356066E+02  0.31886043194E+02  0.00000000000E+00 0.  1.
         11    1    3    3    0    0 -0.35775201691E+01 -0.35445816053E+01 -0.28007126396E+02  0.28456314563E+02  0.51100000000E-03 0. -1.
        -11    1    3    3    0    0  0.13225735494E+02 -0.79583290871E+01 -0.25765867888E+01  0.15649085627E+02  0.51100000000E-03 0.  1.
        -12    1    3    3    0    0 -0.14326007930E+01  0.15128874789E+02 -0.11642881241E-01  0.15196556616E+02  0.00000000000E+00 0.  1.
</event>
<event>
 7    1  0.6515090E-012  0.5930195E+02  0.7816164E-02  0.1266605E+00
        -11   -1    0    0    0    0  0.00000000000E+00  0.00000000000E+00  0.45593999997E+02  0.45594000000E+02  0.51100000000E-03 0.  1.
         11   -1    0    0    0    0 -0.00000000000E+00 -0.00000000000E+00 -0.45593999997E+02  0.45594000000E+02  0.51100000000E-03 0. -1.
    9900012    2    1    2    0    0  0.73324996600E+01 -0.17890039915E+02 -0.25355497155E+02  0.59301947949E+02  0.50000007151E+02 0.  0.
        -12    1    1    2    0    0 -0.73324996600E+01  0.17890039915E+02  0.25355497155E+02  0.31886052051E+02  0.00000000000E+00 0.  1.
         11    1    3    3    0    0  0.15024808424E+02 -0.19781646603E+02 -0.16069869532E+02  0.29585454492E+02  0.51100000000E-03 0. -1.
        -11    1    3    3    0    0  0.62255262563E+01 -0.47389905735E+01 -0.11737483046E+02  0.14106158844E+02  0.51100000000E-03 0.  1.
        -12    1    3    3    0    0 -0.13917835020E+02  0.66305972612E+01  0.24518554232E+01  0.15610334612E+02  0.00000000000E+00 0.  1.
</event>
<event>
 7    1  0.6515090E-012  0.5930199E+02  0.7816164E-02  0.1266605E+00
        -11   -1    0    0    0    0  0.00000000000E+00  0.00000000000E+00  0.45593999997E+02  0.45594000000E+02  0.51100000000E-03 0.  1.
         11   -1    0    0    0    0 -0.00000000000E+00 -0.00000000000E+00 -0.45593999997E+02  0.45594000000E+02  0.51100000000E-03 0. -1.
    9900012    2    1    2    0    0  0.13058163797E+02  0.12826900490E+02 -0.26108860617E+02  0.59301990205E+02  0.50000084215E+02 0.  0.
        -12    1    1    2    0    0 -0.13058163797E+02 -0.12826900490E+02  0.26108860617E+02  0.31886009795E+02  0.00000000000E+00 0.  1.
         11    1    3    3    0    0  0.16531638824E+01 -0.44061325949E+01  0.77618304887E+01  0.90770572358E+01  0.51100000000E-03 0.  1.
        -11    1    3    3    0    0 -0.91194405679E+01  0.13280431505E+02 -0.13182699463E+02  0.20816282632E+02  0.51100000000E-03 0. -1.
         12    1    3    3    0    0  0.20524440483E+02  0.39526015799E+01 -0.20687991643E+02  0.29408650336E+02  0.00000000000E+00 0. -1.
</event>
<event>
 7    1  0.6515090E-012  0.5930194E+02  0.7816164E-02  0.1266605E+00
        -11   -1    0    0    0    0  0.00000000000E+00  0.00000000000E+00  0.45593999997E+02  0.45594000000E+02  0.51100000000E-03 0. -1.
         11   -1    0    0    0    0 -0.00000000000E+00 -0.00000000000E+00 -0.45593999997E+02  0.45594000000E+02  0.51100000000E-03 0.  1.
    9900012    2    1    2    0    0  0.31216278947E+02  0.62164662836E+01  0.19027477384E+01  0.59301937632E+02  0.49999988336E+02 0.  0.
        -12    1    1    2    0    0 -0.31216278947E+02 -0.62164662836E+01 -0.19027477384E+01  0.31886062368E+02  0.00000000000E+00 0.  1.
         11    1    3    3    0    0  0.24292173816E+02  0.20660109162E+02 -0.19532413113E+01  0.31949412689E+02  0.51100000000E-03 0. -1.
        -11    1    3    3    0    0  0.99433519803E+01  0.19963562181E+01 -0.23393668943E+00  0.10144476989E+02  0.51100000000E-03 0.  1.
         12    1    3    3    0    0 -0.30192468487E+01 -0.16439999097E+02  0.40899257391E+01  0.17208047954E+02  0.00000000000E+00 0. -1.
</event>
<event>
 7    1  0.6515090E-012  0.5930192E+02  0.7816164E-02  0.1266605E+00
        -11   -1    0    0    0    0  0.00000000000E+00  0.00000000000E+00  0.45593999997E+02  0.45594000000E+02  0.51100000000E-03 0.  1.
         11   -1    0    0    0    0 -0.00000000000E+00 -0.00000000000E+00 -0.45593999997E+02  0.45594000000E+02  0.51100000000E-03 0. -1.
    9900012    2    1    2    0    0 -0.13020150205E+02  0.20819639879E+01 -0.29032104239E+02  0.59301922130E+02  0.49999960063E+02 0.  0.
        -12    1    1    2    0    0  0.13020150205E+02 -0.20819639879E+01  0.29032104239E+02  0.31886077870E+02  0.00000000000E+00 0.  1.
         11    1    3    3    0    0 -0.14710290887E+02  0.10026923171E+01 -0.24504834083E+02  0.28598687794E+02  0.51100000000E-03 0. -1.
        -11    1    3    3    0    0  0.41315225550E+01 -0.15146282837E+01 -0.17088874540E+02  0.17646337035E+02  0.51100000000E-03 0.  1.
        -12    1    3    3    0    0 -0.24413818726E+01  0.25938999545E+01  0.12561604384E+02  0.13056897300E+02  0.00000000000E+00 0.  1.
</event>
<event>
 7    1  0.6515090E-012  0.5930193E+02  0.7816164E-02  0.1266605E+00
        -11   -1    0    0    0    0  0.00000000000E+00  0.00000000000E+00  0.45593999997E+02  0.45594000000E+02  0.51100000000E-03 0.  1.
         11   -1    0    0    0    0 -0.00000000000E+00 -0.00000000000E+00 -0.45593999997E+02  0.45594000000E+02  0.51100000000E-03 0. -1.
    9900012    2    1    2    0    0  0.14460824239E+02  0.71701207089E+01 -0.27499007772E+02  0.59301929418E+02  0.49999973356E+02 0.  0.
        -12    1    1    2    0    0 -0.14460824239E+02 -0.71701207089E+01  0.27499007772E+02  0.31886070582E+02  0.00000000000E+00 0.  1.
         11    1    3    3    0    0  0.14576203592E+01  0.16014524709E+02 -0.13249615579E+02  0.20836073815E+02  0.51100000000E-03 0. -1.
        -11    1    3    3    0    0  0.10788138230E+02  0.10119054451E+02 -0.25413083763E+00  0.14793369197E+02  0.51100000000E-03 0.  1.
        -12    1    3    3    0    0  0.22150656507E+01 -0.18963458451E+02 -0.13995261355E+02  0.23672486407E+02  0.00000000000E+00 0.  1.
</event>
<event>
 7    1  0.6515090E-012  0.5930187E+02  0.7816164E-02  0.1266605E+00
        -11   -1    0    0    0    0  0.00000000000E+00  0.00000000000E+00  0.45593999997E+02  0.45594000000E+02  0.51100000000E-03 0.  1.
         11   -1    0    0    0    0 -0.00000000000E+00 -0.00000000000E+00 -0.45593999997E+02  0.45594000000E+02  0.51100000000E-03 0. -1.
    9900012    2    1    2    0    0 -0.28904068415E+02 -0.52650461102E+01 -0.12391904512E+02  0.59301871685E+02  0.49999868064E+02 0.  0.
        -12    1    1    2    0    0  0.28904068415E+02  0.52650461102E+01  0.12391904512E+02  0.31886128315E+02  0.00000000000E+00 0.  1.
         11    1    3    3    0    0 -0.32009094800E+02 -0.10778232867E+02 -0.29511834421E+01  0.33903715690E+02  0.51100000000E-03 0. -1.
        -11    1    3    3    0    0  0.45539504404E+01 -0.84017444498E+01 -0.44798834395E+01  0.10554483896E+02  0.51100000000E-03 0.  1.
        -12    1    3    3    0    0 -0.14489240557E+01  0.13914931206E+02 -0.49608376301E+01  0.14843672099E+02  0.00000000000E+00 0.  1.
</event>
<event>
 7    1  0.6515090E-012  0.5930192E+02  0.7816164E-02  0.1266605E+00
        -11   -1    0    0    0    0  0.00000000000E+00  0.00000000000E+00  0.45593999997E+02  0.45594000000E+02  0.51100000000E-03 0. -1.
         11   -1    0    0    0    0 -0.00000000000E+00 -0.00000000000E+00 -0.45593999997E+02  0.45594000000E+02  0.51100000000E-03 0.  1.
    9900012    2    1    2    0    0 -0.25103889643E+02  0.19529247950E+02  0.22638661683E+01  0.59301923246E+02  0.49999962100E+02 0.  0.
        -12    1    1    2    0    0  0.25103889643E+02 -0.19529247950E+02 -0.22638661683E+01  0.31886076754E+02  0.00000000000E+00 0.  1.
         11    1    3    3    0    0 -0.19042242699E+02 -0.37434842502E+01  0.14041265375E+02  0.23953659740E+02  0.51100000000E-03 0. -1.
        -11    1    3    3    0    0 -0.44397850899E+01  0.33252920311E+01  0.62896741456E+01  0.83862542208E+01  0.51100000000E-03 0.  1.
        -12    1    3    3    0    0 -0.16218618542E+01  0.19947440169E+02 -0.18067073353E+02  0.26962009286E+02  0.00000000000E+00 0.  1.
</event>
<event>
 7    1  0.6515090E-012  0.5930191E+02  0.7816164E-02  0.1266605E+00
        -11   -1    0    0    0    0  0.00000000000E+00  0.00000000000E+00  0.45593999997E+02  0.45594000000E+02  0.51100000000E-03 0.  1.
         11   -1    0    0    0    0 -0.00000000000E+00 -0.00000000000E+00 -0.45593999997E+02  0.45594000000E+02  0.51100000000E-03 0. -1.
    9900012    2    1    2    0    0 -0.28926054319E+01  0.30616210154E+02  0.84263372764E+01  0.59301911336E+02  0.49999940378E+02 0.  0.
        -12    1    1    2    0    0  0.28926054319E+01 -0.30616210154E+02 -0.84263372764E+01  0.31886088664E+02  0.00000000000E+00 0.  1.
         11    1    3    3    0    0 -0.25137248335E+01 -0.19908063157E+00  0.83056570251E+01  0.86799991081E+01  0.51100000000E-03 0.  1.
        -11    1    3    3    0    0  0.16119734858E+02  0.93379605620E+01  0.10772647441E+02  0.21519602517E+02  0.51100000000E-03 0. -1.
        -12    1    3    3    0    0 -0.16498615456E+02  0.21477330224E+02 -0.10651967189E+02  0.29102309711E+02  0.00000000000E+00 0.  1.
</event>
<event>
 7    1  0.6515090E-012  0.5930194E+02  0.7816164E-02  0.1266605E+00
        -11   -1    0    0    0    0  0.00000000000E+00  0.00000000000E+00  0.45593999997E+02  0.45594000000E+02  0.51100000000E-03 0. -1.
         11   -1    0    0    0    0 -0.00000000000E+00 -0.00000000000E+00 -0.45593999997E+02  0.45594000000E+02  0.51100000000E-03 0.  1.
    9900012    2    1    2    0    0  0.14153129861E+02 -0.13686165540E+02  0.25081844385E+02  0.59301935179E+02  0.49999983861E+02 0.  0.
        -12    1    1    2    0    0 -0.14153129861E+02  0.13686165540E+02 -0.25081844385E+02  0.31886064821E+02  0.00000000000E+00 0.  1.
         11    1    3    3    0    0  0.36182395072E+01 -0.74600312797E+01  0.51098648447E+01  0.97393245565E+01  0.51100000000E-03 0. -1.
        -11    1    3    3    0    0  0.14059900465E+02 -0.23553265456E+02  0.95939203951E+01  0.29059945347E+02  0.51100000000E-03 0.  1.
        -12    1    3    3    0    0 -0.35250101118E+01  0.17327131196E+02  0.10378059145E+02  0.20502665275E+02  0.00000000000E+00 0.  1.
</event>
<event>
 7    1  0.6515090E-012  0.5930195E+02  0.7816164E-02  0.1266605E+00
        -11   -1    0    0    0    0  0.00000000000E+00  0.00000000000E+00  0.45593999997E+02  0.45594000000E+02  0.51100000000E-03 0.  1.
         11   -1    0    0    0    0 -0.00000000000E+00 -0.00000000000E+00 -0.45593999997E+02  0.45594000000E+02  0.51100000000E-03 0. -1.
    9900012    2    1    2    0    0 -0.11743246570E+02 -0.69088107129E+01 -0.28828535018E+02  0.59301953886E+02  0.50000017979E+02 0.  0.
        -12    1    1    2    0    0  0.11743246570E+02  0.69088107129E+01  0.28828535018E+02  0.31886046114E+02  0.00000000000E+00 0.  1.
         11    1    3    3    0    0  0.83346954275E+01 -0.59448041623E+01  0.37327457266E+01  0.10896845200E+02  0.51100000000E-03 0. -1.
        -11    1    3    3    0    0 -0.56850830829E+01 -0.48892435601E+01  0.42968892238E+01  0.86422294295E+01  0.51100000000E-03 0.  1.
         12    1    3    3    0    0 -0.14392858915E+02  0.39252370094E+01 -0.36858169969E+02  0.39762879256E+02  0.00000000000E+00 0. -1.
</event>
<event>
 7    1  0.6515090E-012  0.5930195E+02  0.7816164E-02  0.1266605E+00
        -11   -1    0    0    0    0  0.00000000000E+00  0.00000000000E+00  0.45593999997E+02  0.45594000000E+02  0.51100000000E-03 0. -1.
         11   -1    0    0    0    0 -0.00000000000E+00 -0.00000000000E+00 -0.45593999997E+02  0.45594000000E+02  0.51100000000E-03 0.  1.
    9900012    2    1    2    0    0 -0.85466769958E+01 -0.14963286798E+02  0.26828618781E+02  0.59301946228E+02  0.50000004013E+02 0.  0.
        -12    1    1    2    0    0  0.85466769958E+01  0.14963286798E+02 -0.26828618781E+02  0.31886053772E+02  0.00000000000E+00 0.  1.
         11    1    3    3    0    0  0.49698205601E+01 -0.43647529077E+01  0.51667234751E+01  0.83931648425E+01  0.51100000000E-03 0.  1.
        -11    1    3    3    0    0 -0.22718576750E+02  0.89042135406E+01  0.13205286553E+02  0.27745239980E+02  0.51100000000E-03 0. -1.
         12    1    3    3    0    0  0.92020791946E+01 -0.19502747431E+02  0.84566087528E+01  0.23163541406E+02  0.00000000000E+00 0. -1.
</event>
<event>
 7    1  0.6515090E-012  0.5930195E+02  0.7816164E-02  0.1266605E+00
        -11   -1    0    0    0    0  0.00000000000E+00  0.00000000000E+00  0.45593999997E+02  0.45594000000E+02  0.51100000000E-03 0. -1.
         11   -1    0    0    0    0 -0.00000000000E+00 -0.00000000000E+00 -0.45593999997E+02  0.45594000000E+02  0.51100000000E-03 0.  1.
    9900012    2    1    2    0    0 -0.15715240792E+02 -0.24495406391E+02  0.13027919276E+02  0.59301946496E+02  0.50000004502E+02 0.  0.
        -12    1    1    2    0    0  0.15715240792E+02  0.24495406391E+02 -0.13027919276E+02  0.31886053504E+02  0.00000000000E+00 0.  1.
         11    1    3    3    0    0 -0.28796412343E+02 -0.13842300558E+02  0.29123768876E+01  0.32083088816E+02  0.51100000000E-03 0. -1.
        -11    1    3    3    0    0 -0.24280828263E+01 -0.24970975901E+00 -0.33860395343E+01  0.41741113023E+01  0.51100000000E-03 0.  1.
        -12    1    3    3    0    0  0.15509254378E+02 -0.10403396074E+02  0.13501581922E+02  0.23044746378E+02  0.00000000000E+00 0.  1.
</event>
<event>
 7    1  0.6515090E-012  0.5930193E+02  0.7816164E-02  0.1266605E+00
        -11   -1    0    0    0    0  0.00000000000E+00  0.00000000000E+00  0.45593999997E+02  0.45594000000E+02  0.51100000000E-03 0. -1.
         11   -1    0    0    0    0 -0.00000000000E+00 -0.00000000000E+00 -0.45593999997E+02  0.45594000000E+02  0.51100000000E-03 0.  1.
    9900012    2    1    2    0    0 -0.63003393272E+01  0.29617014631E+02 -0.99929710566E+01  0.59301932481E+02  0.49999978941E+02 0.  0.
        -12    1    1    2    0    0  0.63003393272E+01 -0.29617014631E+02  0.99929710566E+01  0.31886067519E+02  0.00000000000E+00 0.  1.
         11    1    3    3    0    0  0.76197454242E+01  0.16395477555E+02  0.69102952522E+01  0.19355215972E+02  0.51100000000E-03 0. -1.
        -11    1    3    3    0    0  0.84248054628E+00  0.19314035135E+02 -0.13603911331E+02  0.23639122878E+02  0.51100000000E-03 0.  1.
        -12    1    3    3    0    0 -0.14762565298E+02 -0.60924980592E+01 -0.32993549780E+01  0.16307593631E+02  0.00000000000E+00 0.  1.
</event>
<event>
 7    1  0.6515090E-012  0.5930196E+02  0.7816164E-02  0.1266605E+00
        -11   -1    0    0    0    0  0.00000000000E+00  0.00000000000E+00  0.45593999997E+02  0.45594000000E+02  0.51100000000E-03 0. -1.
         11   -1    0    0    0    0 -0.00000000000E+00 -0.00000000000E+00 -0.45593999997E+02  0.45594000000E+02  0.51100000000E-03 0.  1.
    9900012    2    1    2    0    0  0.73415151327E+01  0.29063146952E+02  0.10869916965E+02  0.59301961519E+02  0.50000031899E+02 0.  0.
        -12    1    1    2    0    0 -0.73415151327E+01 -0.29063146952E+02 -0.10869916965E+02  0.31886038481E+02  0.00000000000E+00 0.  1.
         11    1    3    3    0    0 -0.10329079843E+02  0.26400478930E+00  0.61617389754E+00  0.10350809604E+02  0.51100000000E-03 0. -1.
        -11    1    3    3    0    0  0.26551610070E+02  0.17825597855E+02  0.85531162471E+00  0.31991741035E+02  0.51100000000E-03 0.  1.
         12    1    3    3    0    0 -0.88810150948E+01  0.10973544307E+02  0.93984314427E+01  0.16959410879E+02  0.00000000000E+00 0. -1.
</event>
<event>
 7    1  0.6515090E-012  0.5930196E+02  0.7816164E-02  0.1266605E+00
        -11   -1    0    0    0    0  0.00000000000E+00  0.00000000000E+00  0.45593999997E+02  0.45594000000E+02  0.51100000000E-03 0. -1.
         11   -1    0    0    0    0 -0.00000000000E+00 -0.00000000000E+00 -0.45593999997E+02  0.45594000000E+02  0.51100000000E-03 0.  1.
    9900012    2    1    2    0    0 -0.35607861954E+01  0.57505045481E+01  0.31160427650E+02  0.59301956780E+02  0.50000023257E+02 0.  0.
        -12    1    1    2    0    0  0.35607861954E+01 -0.57505045481E+01 -0.31160427650E+02  0.31886043220E+02  0.00000000000E+00 0.  1.
         11    1    3    3    0    0  0.83688043980E+00  0.16872120361E+02  0.61890568927E+01  0.17990921039E+02  0.51100000000E-03 0. -1.
        -11    1    3    3    0    0 -0.15025384320E+02  0.19256891507E+01  0.16744156348E+02  0.22579575389E+02  0.51100000000E-03 0.  1.
         12    1    3    3    0    0  0.10627717685E+02 -0.13047304963E+02  0.82272144093E+01  0.18731460352E+02  0.00000000000E+00 0. -1.
</event>
<event>
 7    1  0.6515090E-012  0.5930194E+02  0.7816164E-02  0.1266605E+00
        -11   -1    0    0    0    0  0.00000000000E+00  0.00000000000E+00  0.45593999997E+02  0.45594000000E+02  0.51100000000E-03 0.  1.
         11   -1    0    0    0    0 -0.00000000000E+00 -0.00000000000E+00 -0.45593999997E+02  0.45594000000E+02  0.51100000000E-03 0. -1.
    9900012    2    1    2    0    0  0.83001119796E+00  0.31251552547E+02 -0.62747260270E+01  0.59301942829E+02  0.49999997814E+02 0.  0.
        -12    1    1    2    0    0 -0.83001119796E+00 -0.31251552547E+02  0.62747260270E+01  0.31886057171E+02  0.00000000000E+00 0.  1.
         11    1    3    3    0    0  0.19958079513E+01  0.24071503066E+02 -0.74621787302E+01  0.25280518604E+02  0.51100000000E-03 0. -1.
        -11    1    3    3    0    0 -0.44812178919E+01  0.20135298484E+02  0.73413023649E+00  0.20640990924E+02  0.51100000000E-03 0.  1.
        -12    1    3    3    0    0  0.33154211386E+01 -0.12955249003E+02  0.45332246672E+00  0.13380433301E+02  0.00000000000E+00 0.  1.
</event>
<event>
 7    1  0.6515090E-012  0.5930193E+02  0.7816164E-02  0.1266605E+00
        -11   -1    0    0    0    0  0.00000000000E+00  0.00000000000E+00  0.45593999997E+02  0.45594000000E+02  0.51100000000E-03 0.  1.
         11   -1    0    0    0    0 -0.00000000000E+00 -0.00000000000E+00 -0.45593999997E+02  0.45594000000E+02  0.51100000000E-03 0. -1.
    9900012    2    1    2    0    0  0.60542709366E+01  0.23162505326E+02 -0.21060997178E+02  0.59301930131E+02  0.49999974656E+02 0.  0.
        -12    1    1    2    0    0 -0.60542709366E+01 -0.23162505326E+02  0.21060997178E+02  0.31886069869E+02  0.00000000000E+00 0.  1.
         11    1    3    3    0    0  0.68872092309E+01  0.17914257746E+02 -0.14128372913E+02  0.23832020540E+02  0.51100000000E-03 0. -1.
        -11    1    3    3    0    0  0.10171467903E+02  0.32553308468E+01  0.10358115451E+02  0.14877718043E+02  0.51100000000E-03 0.  1.
         12    1    3    3    0    0 -0.11004406197E+02  0.19929167323E+01 -0.17290739716E+02  0.20592191548E+02  0.00000000000E+00 0. -1.
</event>
<event>
 7    1  0.6515090E-012  0.5930196E+02  0.7816164E-02  0.1266605E+00
        -11   -1    0    0    0    0  0.00000000000E+00  0.00000000000E+00  0.45593999997E+02  0.45594000000E+02  0.51100000000E-03 0.  1.
         11   -1    0    0    0    0 -0.00000000000E+00 -0.00000000000E+00 -0.45593999997E+02  0.45594000000E+02  0.51100000000E-03 0. -1.
    9900012    2    1    2    0    0  0.39337244870E+00 -0.29562171714E+02 -0.11943316440E+02  0.59301960015E+02  0.50000029157E+02 0.  0.
        -12    1    1    2    0    0 -0.39337244870E+00  0.29562171714E+02  0.11943316440E+02  0.31886039985E+02  0.00000000000E+00 0.  1.
         11    1    3    3    0    0 -0.99799829779E+01 -0.73486457155E+01  0.13566937490E+01  0.12467689131E+02  0.51100000000E-03 0.  1.
        -11    1    3    3    0    0  0.24743763252E+01  0.15934843013E+01  0.11314562136E+02  0.11691066974E+02  0.51100000000E-03 0. -1.
         12    1    3    3    0    0  0.78989791014E+01 -0.23807010300E+02 -0.24614572325E+02  0.35143203909E+02  0.00000000000E+00 0. -1.
</event>
<event>
 7    1  0.6515090E-012  0.5930196E+02  0.7816164E-02  0.1266605E+00
        -11   -1    0    0    0    0  0.00000000000E+00  0.00000000000E+00  0.45593999997E+02  0.45594000000E+02  0.51100000000E-03 0.  1.
         11   -1    0    0    0    0 -0.00000000000E+00 -0.00000000000E+00 -0.45593999997E+02  0.45594000000E+02  0.51100000000E-03 0. -1.
    9900012    2    1    2    0    0 -0.12948883411E+02 -0.28083701353E+02  0.77686506778E+01  0.59301956084E+02  0.50000021988E+02 0.  0.
        -12    1    1    2    0    0  0.12948883411E+02  0.28083701353E+02 -0.77686506778E+01  0.31886043916E+02  0.00000000000E+00 0.  1.
         11    1    3    3    0    0  0.57242137041E+00  0.27116236780E+01 -0.60717167238E+01  0.66743024678E+01  0.51100000000E-03 0. -1.
        -11    1    3    3    0    0  0.45593986828E+01  0.25203634360E+01 -0.74967430733E+01  0.91291568705E+01  0.51100000000E-03 0.  1.
         12    1    3    3    0    0 -0.18080703464E+02 -0.33315688467E+02  0.21337110475E+02  0.43498496746E+02  0.00000000000E+00 0. -1.
</event>
<event>
 7    1  0.6515090E-012  0.5930195E+02  0.7816164E-02  0.1266605E+00
        -11   -1    0    0    0    0  0.00000000000E+00  0.00000000000E+00  0.45593999997E+02  0.45594000000E+02  0.51100000000E-03 0. -1.
         11   -1    0    0    0    0 -0.00000000000E+00 -0.00000000000E+00 -0.45593999997E+02  0.45594000000E+02  0.51100000000E-03 0.  1.
    9900012    2    1    2    0    0  0.27995577470E+02  0.90829277211E+01 -0.12266555620E+02  0.59301947867E+02  0.50000007001E+02 0.  0.
        -12    1    1    2    0    0 -0.27995577470E+02 -0.90829277211E+01  0.12266555620E+02  0.31886052133E+02  0.00000000000E+00 0.  1.
         11    1    3    3    0    0 -0.46634498811E+00  0.11404400512E+02 -0.34638586996E+01  0.11927956490E+02  0.51100000000E-03 0. -1.
        -11    1    3    3    0    0  0.11298584080E+02  0.16210521716E+02 -0.98802821556E+01  0.22092057221E+02  0.51100000000E-03 0.  1.
         12    1    3    3    0    0  0.17163338378E+02 -0.18531994507E+02  0.10775852357E+01  0.25281934155E+02  0.00000000000E+00 0. -1.
</event>
<event>
 7    1  0.6515090E-012  0.5930195E+02  0.7816164E-02  0.1266605E+00
        -11   -1    0    0    0    0  0.00000000000E+00  0.00000000000E+00  0.45593999997E+02  0.45594000000E+02  0.51100000000E-03 0. -1.
         11   -1    0    0    0    0 -0.00000000000E+00 -0.00000000000E+00 -0.45593999997E+02  0.45594000000E+02  0.51100000000E-03 0.  1.
    9900012    2    1    2    0    0  0.70330263940E+01 -0.21623500110E+02  0.22353540636E+02  0.59301952954E+02  0.50000016278E+02 0.  0.
        -12    1    1    2    0    0 -0.70330263940E+01  0.21623500110E+02 -0.22353540636E+02  0.31886047046E+02  0.00000000000E+00 0.  1.
         11    1    3    3    0    0 -0.11712636247E+02 -0.97203072175E+01  0.13024038609E+02  0.20032368861E+02  0.51100000000E-03 0. -1.
        -11    1    3    3    0    0 -0.86209602740E+01 -0.46438988509E+01  0.16161652999E+01  0.99246532998E+01  0.51100000000E-03 0.  1.
        -12    1    3    3    0    0  0.27366622915E+02 -0.72592940417E+01  0.77133367273E+01  0.29344930792E+02  0.00000000000E+00 0.  1.
</event>
<event>
 7    1  0.6515090E-012  0.5930194E+02  0.7816164E-02  0.1266605E+00
        -11   -1    0    0    0    0  0.00000000000E+00  0.00000000000E+00  0.45593999997E+02  0.45594000000E+02  0.51100000000E-03 0. -1.
         11   -1    0    0    0    0 -0.00000000000E+00 -0.00000000000E+00 -0.45593999997E+02  0.45594000000E+02  0.51100000000E-03 0.  1.
    9900012    2    1    2    0    0 -0.45279401271E+01  0.27184462135E+02  0.16038200846E+02  0.59301935493E+02  0.49999984434E+02 0.  0.
        -12    1    1    2    0    0  0.45279401271E+01 -0.27184462135E+02 -0.16038200846E+02  0.31886064507E+02  0.00000000000E+00 0.  1.
         11    1    3    3    0    0  0.16278426373E+01  0.19335418938E+02  0.12597924605E+01  0.19444674707E+02  0.51100000000E-03 0. -1.
        -11    1    3    3    0    0  0.47590641120E+01  0.19852900029E+02  0.11034622548E+02  0.23206663392E+02  0.51100000000E-03 0.  1.
        -12    1    3    3    0    0 -0.10914846876E+02 -0.12003856831E+02  0.37437858380E+01  0.16650597394E+02  0.00000000000E+00 0.  1.
</event>
<event>
 7    1  0.6515090E-012  0.5930194E+02  0.7816164E-02  0.1266605E+00
        -11   -1    0    0    0    0  0.00000000000E+00  0.00000000000E+00  0.45593999997E+02  0.45594000000E+02  0.51100000000E-03 0. -1.
         11   -1    0    0    0    0 -0.00000000000E+00 -0.00000000000E+00 -0.45593999997E+02  0.45594000000E+02  0.51100000000E-03 0.  1.
    9900012    2    1    2    0    0  0.29256400909E+02  0.78060610702E+01  0.99924632902E+01  0.59301938685E+02  0.49999990256E+02 0.  0.
        -12    1    1    2    0    0 -0.29256400909E+02 -0.78060610702E+01 -0.99924632902E+01  0.31886061315E+02  0.00000000000E+00 0.  1.
         11    1    3    3    0    0  0.20602863625E+02 -0.21687970582E+01  0.13576923900E+02  0.24769225524E+02  0.51100000000E-03 0. -1.
        -11    1    3    3    0    0 -0.43450757343E+01 -0.55158324072E+01  0.84609974923E+01  0.10995115693E+02  0.51100000000E-03 0.  1.
        -12    1    3    3    0    0  0.12998613018E+02  0.15490690536E+02 -0.12045458102E+02  0.23537597467E+02  0.00000000000E+00 0.  1.
</event>
<event>
 7    1  0.6515090E-012  0.5930192E+02  0.7816164E-02  0.1266605E+00
        -11   -1    0    0    0    0  0.00000000000E+00  0.00000000000E+00  0.45593999997E+02  0.45594000000E+02  0.51100000000E-03 0.  1.
         11   -1    0    0    0    0 -0.00000000000E+00 -0.00000000000E+00 -0.45593999997E+02  0.45594000000E+02  0.51100000000E-03 0. -1.
    9900012    2    1    2    0    0 -0.38489358083E-01  0.31574974642E+02 -0.44431852616E+01  0.59301915256E+02  0.49999947527E+02 0.  0.
        -12    1    1    2    0    0  0.38489358083E-01 -0.31574974642E+02  0.44431852616E+01  0.31886084744E+02  0.00000000000E+00 0.  1.
         11    1    3    3    0    0  0.56469065791E+01  0.77296243916E+00 -0.20852844491E+02  0.21617727644E+02  0.51100000000E-03 0. -1.
        -11    1    3    3    0    0  0.33608634699E+01  0.34998211908E+01  0.67288778589E+00  0.48986661312E+01  0.51100000000E-03 0.  1.
         12    1    3    3    0    0 -0.90462594071E+01  0.27302191012E+02  0.15736771444E+02  0.32785521481E+02  0.00000000000E+00 0. -1.
</event>
<event>
 7    1  0.6515090E-012  0.5930197E+02  0.7816164E-02  0.1266605E+00
        -11   -1    0    0    0    0  0.00000000000E+00  0.00000000000E+00  0.45593999997E+02  0.45594000000E+02  0.51100000000E-03 0.  1.
         11   -1    0    0    0    0 -0.00000000000E+00 -0.00000000000E+00 -0.45593999997E+02  0.45594000000E+02  0.51100000000E-03 0. -1.
    9900012    2    1    2    0    0 -0.31531971249E+02 -0.34675634824E+01 -0.32294734119E+01  0.59301973188E+02  0.50000053181E+02 0.  0.
        -12    1    1    2    0    0  0.31531971249E+02  0.34675634824E+01  0.32294734119E+01  0.31886026812E+02  0.00000000000E+00 0.  1.
         11    1    3    3    0    0 -0.20702731486E+02 -0.24628678695E+02  0.59148264209E+00  0.32179570495E+02  0.51100000000E-03 0. -1.
        -11    1    3    3    0    0 -0.86572309493E+01  0.46732124530E+01 -0.36437317865E+01  0.10491107851E+02  0.51100000000E-03 0.  1.
        -12    1    3    3    0    0 -0.21720088139E+01  0.16487902760E+02 -0.17722426746E+00  0.16631294842E+02  0.00000000000E+00 0.  1.
</event>
<event>
 7    1  0.6515090E-012  0.5930195E+02  0.7816164E-02  0.1266605E+00
        -11   -1    0    0    0    0  0.00000000000E+00  0.00000000000E+00  0.45593999997E+02  0.45594000000E+02  0.51100000000E-03 0.  1.
         11   -1    0    0    0    0 -0.00000000000E+00 -0.00000000000E+00 -0.45593999997E+02  0.45594000000E+02  0.51100000000E-03 0. -1.
    9900012    2    1    2    0    0  0.15719093718E+02 -0.14093044654E+02 -0.23895947791E+02  0.59301950766E+02  0.50000012288E+02 0.  0.
        -12    1    1    2    0    0 -0.15719093718E+02  0.14093044654E+02  0.23895947791E+02  0.31886049234E+02  0.00000000000E+00 0.  1.
         11    1    3    3    0    0  0.26503092833E+01 -0.99418467393E+01  0.66882128050E+01  0.12271782538E+02  0.51100000000E-03 0. -1.
        -11    1    3    3    0    0  0.90262404263E+01 -0.20442462227E+01  0.54289670179E+01  0.10729661784E+02  0.51100000000E-03 0.  1.
         12    1    3    3    0    0  0.40425440086E+01 -0.21069516920E+01 -0.36013127614E+02  0.36300506443E+02  0.00000000000E+00 0. -1.
</event>
<event>
 7    1  0.6515090E-012  0.5930195E+02  0.7816164E-02  0.1266605E+00
        -11   -1    0    0    0    0  0.00000000000E+00  0.00000000000E+00  0.45593999997E+02  0.45594000000E+02  0.51100000000E-03 0. -1.
         11   -1    0    0    0    0 -0.00000000000E+00 -0.00000000000E+00 -0.45593999997E+02  0.45594000000E+02  0.51100000000E-03 0.  1.
    9900012    2    1    2    0    0 -0.12933223954E+02  0.27722202389E+02 -0.89961865704E+01  0.59301950386E+02  0.50000011597E+02 0.  0.
        -12    1    1    2    0    0  0.12933223954E+02 -0.27722202389E+02  0.89961865704E+01  0.31886049614E+02  0.00000000000E+00 0.  1.
         11    1    3    3    0    0 -0.16683619811E+02  0.32976473122E+02 -0.39228203859E+01  0.37164222978E+02  0.51100000000E-03 0. -1.
        -11    1    3    3    0    0 -0.43540908694E+01  0.21785144825E+01 -0.91864942998E+01  0.10396908696E+02  0.51100000000E-03 0.  1.
         12    1    3    3    0    0  0.81044867259E+01 -0.74327852150E+01  0.41131281153E+01  0.11740818712E+02  0.00000000000E+00 0. -1.
</event>
<event>
 7    1  0.6515090E-012  0.5930193E+02  0.7816164E-02  0.1266605E+00
        -11   -1    0    0    0    0  0.00000000000E+00  0.00000000000E+00  0.45593999997E+02  0.45594000000E+02  0.51100000000E-03 0.  1.
         11   -1    0    0    0    0 -0.00000000000E+00 -0.00000000000E+00 -0.45593999997E+02  0.45594000000E+02  0.51100000000E-03 0. -1.
    9900012    2    1    2    0    0  0.26430779830E+02  0.13433279436E+02 -0.11733814379E+02  0.59301929080E+02  0.49999972739E+02 0.  0.
        -12    1    1    2    0    0 -0.26430779830E+02 -0.13433279436E+02  0.11733814379E+02  0.31886070920E+02  0.00000000000E+00 0.  1.
         11    1    3    3    0    0  0.23484995668E+02  0.70450462685E+00 -0.17012591488E+01  0.23557071788E+02  0.51100000000E-03 0. -1.
        -11    1    3    3    0    0  0.12635822869E+02  0.18191448351E+02 -0.10705406764E+02  0.24600783461E+02  0.51100000000E-03 0.  1.
        -12    1    3    3    0    0 -0.96900387062E+01 -0.54626735412E+01  0.67285153396E+00  0.11144073830E+02  0.00000000000E+00 0.  1.
</event>
<event>
 7    1  0.6515090E-012  0.5930195E+02  0.7816164E-02  0.1266605E+00
        -11   -1    0    0    0    0  0.00000000000E+00  0.00000000000E+00  0.45593999997E+02  0.45594000000E+02  0.51100000000E-03 0. -1.
         11   -1    0    0    0    0 -0.00000000000E+00 -0.00000000000E+00 -0.45593999997E+02  0.45594000000E+02  0.51100000000E-03 0.  1.
    9900012    2    1    2    0    0 -0.34738712955E+01 -0.28214208770E+02  0.14443368689E+02  0.59301948859E+02  0.50000008811E+02 0.  0.
        -12    1    1    2    0    0  0.34738712955E+01  0.28214208770E+02 -0.14443368689E+02  0.31886051141E+02  0.00000000000E+00 0.  1.
         11    1    3    3    0    0 -0.27121036581E+01 -0.11903373022E+02  0.55992814829E+01  0.13431222913E+02  0.51100000000E-03 0. -1.
        -11    1    3    3    0    0 -0.97301912442E+01 -0.52582995441E+01  0.23171049001E+02  0.25675354872E+02  0.51100000000E-03 0.  1.
        -12    1    3    3    0    0  0.89684236068E+01 -0.11052536204E+02 -0.14326961795E+02  0.20195371074E+02  0.00000000000E+00 0.  1.
</event>
<event>
 7    1  0.6515090E-012  0.5930195E+02  0.7816164E-02  0.1266605E+00
        -11   -1    0    0    0    0  0.00000000000E+00  0.00000000000E+00  0.45593999997E+02  0.45594000000E+02  0.51100000000E-03 0.  1.
         11   -1    0    0    0    0 -0.00000000000E+00 -0.00000000000E+00 -0.45593999997E+02  0.45594000000E+02  0.51100000000E-03 0. -1.
    9900012    2    1    2    0    0  0.21875584322E+02  0.84009653466E+01 -0.21624126009E+02  0.59301949228E+02  0.50000009485E+02 0.  0.
        -12    1    1    2    0    0 -0.21875584322E+02 -0.84009653466E+01  0.21624126009E+02  0.31886050772E+02  0.00000000000E+00 0.  1.
         11    1    3    3    0    0  0.30215406561E+02  0.74099235347E+01 -0.95591294905E+01  0.32546193591E+02  0.51100000000E-03 0. -1.
        -11    1    3    3    0    0  0.45374302891E+01 -0.19812493083E-01  0.40644501621E+01  0.60916682071E+01  0.51100000000E-03 0.  1.
         12    1    3    3    0    0 -0.12877252528E+02  0.10108543049E+01 -0.16129446680E+02  0.20664087430E+02  0.00000000000E+00 0. -1.
</event>
<event>
 7    1  0.6515090E-012  0.5930197E+02  0.7816164E-02  0.1266605E+00
        -11   -1    0    0    0    0  0.00000000000E+00  0.00000000000E+00  0.45593999997E+02  0.45594000000E+02  0.51100000000E-03 0. -1.
         11   -1    0    0    0    0 -0.00000000000E+00 -0.00000000000E+00 -0.45593999997E+02  0.45594000000E+02  0.51100000000E-03 0.  1.
    9900012    2    1    2    0    0  0.76783574863E+01 -0.17105352722E+02  0.25790869459E+02  0.59301965237E+02  0.50000038681E+02 0.  0.
        -12    1    1    2    0    0 -0.76783574863E+01  0.17105352722E+02 -0.25790869459E+02  0.31886034763E+02  0.00000000000E+00 0.  1.
         11    1    3    3    0    0  0.82448135629E+01 -0.39368350722E+01  0.97639412547E+01  0.13371992004E+02  0.51100000000E-03 0. -1.
        -11    1    3    3    0    0  0.94552484093E+01 -0.24425616534E+02  0.16311154440E+02  0.30855570404E+02  0.51100000000E-03 0.  1.
         12    1    3    3    0    0 -0.10021704486E+02  0.11257098884E+02 -0.28422623561E+00  0.15074402829E+02  0.00000000000E+00 0. -1.
</event>
<event>
 7    1  0.6515090E-012  0.5930194E+02  0.7816164E-02  0.1266605E+00
        -11   -1    0    0    0    0  0.00000000000E+00  0.00000000000E+00  0.45593999997E+02  0.45594000000E+02  0.51100000000E-03 0.  1.
         11   -1    0    0    0    0 -0.00000000000E+00 -0.00000000000E+00 -0.45593999997E+02  0.45594000000E+02  0.51100000000E-03 0. -1.
    9900012    2    1    2    0    0  0.25643445297E+01 -0.31695871874E+02 -0.23487142809E+01  0.59301943243E+02  0.49999998569E+02 0.  0.
        -12    1    1    2    0    0 -0.25643445297E+01  0.31695871874E+02  0.23487142809E+01  0.31886056757E+02  0.00000000000E+00 0.  1.
         11    1    3    3    0    0  0.88184219510E+01 -0.12297933850E+02 -0.92860334453E+01  0.17754834837E+02  0.51100000000E-03 0. -1.
        -11    1    3    3    0    0  0.11354613136E+02  0.26091544873E+01  0.65378130898E+01  0.13359563124E+02  0.51100000000E-03 0.  1.
         12    1    3    3    0    0 -0.17608690557E+02 -0.22007092511E+02  0.39950607458E+00  0.28187545282E+02  0.00000000000E+00 0. -1.
</event>
<event>
 7    1  0.6515090E-012  0.5930195E+02  0.7816164E-02  0.1266605E+00
        -11   -1    0    0    0    0  0.00000000000E+00  0.00000000000E+00  0.45593999997E+02  0.45594000000E+02  0.51100000000E-03 0.  1.
         11   -1    0    0    0    0 -0.00000000000E+00 -0.00000000000E+00 -0.45593999997E+02  0.45594000000E+02  0.51100000000E-03 0. -1.
    9900012    2    1    2    0    0 -0.26533932669E+02  0.10264734699E+01 -0.17652681448E+02  0.59301946732E+02  0.50000004933E+02 0.  0.
        -12    1    1    2    0    0  0.26533932669E+02 -0.10264734699E+01  0.17652681448E+02  0.31886053268E+02  0.00000000000E+00 0.  1.
         11    1    3    3    0    0  0.55004347984E+01  0.10874451410E+01  0.44319710991E+01  0.71470055261E+01  0.51100000000E-03 0. -1.
        -11    1    3    3    0    0 -0.11604281956E+01  0.13167893858E+02 -0.31199884213E+01  0.13582133495E+02  0.51100000000E-03 0.  1.
        -12    1    3    3    0    0 -0.30873939272E+02 -0.13228865529E+02 -0.18964664126E+02  0.38572807712E+02  0.00000000000E+00 0.  1.
</event>
<event>
 7    1  0.6515090E-012  0.5930194E+02  0.7816164E-02  0.1266605E+00
        -11   -1    0    0    0    0  0.00000000000E+00  0.00000000000E+00  0.45593999997E+02  0.45594000000E+02  0.51100000000E-03 0.  1.
         11   -1    0    0    0    0 -0.00000000000E+00 -0.00000000000E+00 -0.45593999997E+02  0.45594000000E+02  0.51100000000E-03 0. -1.
    9900012    2    1    2    0    0 -0.25449338281E+02  0.12525805138E+02 -0.14565583467E+02  0.59301939801E+02  0.49999992291E+02 0.  0.
        -12    1    1    2    0    0  0.25449338281E+02 -0.12525805138E+02  0.14565583467E+02  0.31886060199E+02  0.00000000000E+00 0.  1.
         11    1    3    3    0    0 -0.25858986381E+01  0.57868921391E+01  0.14613525925E+02  0.15928908707E+02  0.51100000000E-03 0. -1.
        -11    1    3    3    0    0 -0.50739358513E+00  0.60413107098E+01  0.64145737958E+00  0.60964211775E+01  0.51100000000E-03 0.  1.
         12    1    3    3    0    0 -0.22356046058E+02  0.69760228889E+00 -0.29820566771E+02  0.37276609916E+02  0.00000000000E+00 0. -1.
</event>
<event>
 7    1  0.6515090E-012  0.5930195E+02  0.7816164E-02  0.1266605E+00
        -11   -1    0    0    0    0  0.00000000000E+00  0.00000000000E+00  0.45593999997E+02  0.45594000000E+02  0.51100000000E-03 0. -1.
         11   -1    0    0    0    0 -0.00000000000E+00 -0.00000000000E+00 -0.45593999997E+02  0.45594000000E+02  0.51100000000E-03 0.  1.
    9900012    2    1    2    0    0 -0.27735508771E+02  0.34662005355E+01  0.15344292424E+02  0.59301948144E+02  0.50000007507E+02 0.  0.
        -12    1    1    2    0    0  0.27735508771E+02 -0.34662005355E+01 -0.15344292424E+02  0.31886051856E+02  0.00000000000E+00 0.  1.
         11    1    3    3    0    0 -0.22486014199E+02 -0.20493413860E+01 -0.11750066219E+01  0.22609760624E+02  0.51100000000E-03 0. -1.
        -11    1    3    3    0    0  0.20776147850E+01 -0.54280930070E+01 -0.73862970577E+01  0.93988329793E+01  0.51100000000E-03 0.  1.
         12    1    3    3    0    0 -0.73271093573E+01  0.10943634928E+02  0.23905596104E+02  0.27293354540E+02  0.00000000000E+00 0. -1.
</event>
<event>
 7    1  0.6515090E-012  0.5930187E+02  0.7816164E-02  0.1266605E+00
        -11   -1    0    0    0    0  0.00000000000E+00  0.00000000000E+00  0.45593999997E+02  0.45594000000E+02  0.51100000000E-03 0.  1.
         11   -1    0    0    0    0 -0.00000000000E+00 -0.00000000000E+00 -0.45593999997E+02  0.45594000000E+02  0.51100000000E-03 0. -1.
    9900012    2    1    2    0    0  0.73312691941E+01  0.25741153313E+02 -0.17331210757E+02  0.59301869031E+02  0.49999863223E+02 0.  0.
        -12    1    1    2    0    0 -0.73312691941E+01 -0.25741153313E+02  0.17331210757E+02  0.31886130969E+02  0.00000000000E+00 0.  1.
         11    1    3    3    0    0  0.12946624058E+02  0.99463792294E+01 -0.23311940251E+02  0.28460360026E+02  0.51100000000E-03 0. -1.
        -11    1    3    3    0    0  0.99233684645E+01  0.75639430240E+01  0.76783929185E+00  0.12501042084E+02  0.51100000000E-03 0.  1.
        -12    1    3    3    0    0 -0.15538723328E+02  0.82308310600E+01  0.52128902024E+01  0.18340466921E+02  0.00000000000E+00 0.  1.
</event>
<event>
 7    1  0.6515090E-012  0.5930192E+02  0.7816164E-02  0.1266605E+00
        -11   -1    0    0    0    0  0.00000000000E+00  0.00000000000E+00  0.45593999997E+02  0.45594000000E+02  0.51100000000E-03 0. -1.
         11   -1    0    0    0    0 -0.00000000000E+00 -0.00000000000E+00 -0.45593999997E+02  0.45594000000E+02  0.51100000000E-03 0.  1.
    9900012    2    1    2    0    0  0.25849542154E+02  0.15432292322E+02  0.10505597942E+02  0.59301920529E+02  0.49999957145E+02 0.  0.
        -12    1    1    2    0    0 -0.25849542154E+02 -0.15432292322E+02 -0.10505597942E+02  0.31886079471E+02  0.00000000000E+00 0.  1.
         11    1    3    3    0    0 -0.66332675522E+01  0.57102175366E+01  0.68182011109E+01  0.11094804612E+02  0.51100000000E-03 0. -1.
        -11    1    3    3    0    0  0.55354952797E+01 -0.12082038555E+02  0.25011054064E+01  0.13523050401E+02  0.51100000000E-03 0.  1.
         12    1    3    3    0    0  0.26947314426E+02  0.21804113341E+02  0.11862914251E+01  0.34684065516E+02  0.00000000000E+00 0. -1.
</event>
<event>
 7    1  0.6515090E-012  0.5930195E+02  0.7816164E-02  0.1266605E+00
        -11   -1    0    0    0    0  0.00000000000E+00  0.00000000000E+00  0.45593999997E+02  0.45594000000E+02  0.51100000000E-03 0. -1.
         11   -1    0    0    0    0 -0.00000000000E+00 -0.00000000000E+00 -0.45593999997E+02  0.45594000000E+02  0.51100000000E-03 0.  1.
    9900012    2    1    2    0    0  0.30665743104E+02  0.69804052465E+01 -0.52541901748E+01  0.59301947063E+02  0.50000005536E+02 0.  0.
        -12    1    1    2    0    0 -0.30665743104E+02 -0.69804052465E+01  0.52541901748E+01  0.31886052937E+02  0.00000000000E+00 0.  1.
         11    1    3    3    0    0  0.15537838586E+02 -0.96987462204E+01 -0.11795110463E+02  0.21785654391E+02  0.51100000000E-03 0. -1.
        -11    1    3    3    0    0  0.92680138175E+01  0.93492555622E+01 -0.11305609964E+02  0.17352852117E+02  0.51100000000E-03 0.  1.
        -12    1    3    3    0    0  0.58598907006E+01  0.73298959047E+01  0.17846530251E+02  0.20163440555E+02  0.00000000000E+00 0.  1.
</event>
<event>
 7    1  0.6515090E-012  0.5930195E+02  0.7816164E-02  0.1266605E+00
        -11   -1    0    0    0    0  0.00000000000E+00  0.00000000000E+00  0.45593999997E+02  0.45594000000E+02  0.51100000000E-03 0.  1.
         11   -1    0    0    0    0 -0.00000000000E+00 -0.00000000000E+00 -0.45593999997E+02  0.45594000000E+02  0.51100000000E-03 0. -1.
    9900012    2    1    2    0    0 -0.24350378665E+02  0.20038866944E+02 -0.47141505301E+01  0.59301947489E+02  0.50000006313E+02 0.  0.
        -12    1    1    2    0    0  0.24350378665E+02 -0.20038866944E+02  0.47141505301E+01  0.31886052511E+02  0.00000000000E+00 0.  1.
         11    1    3    3    0    0 -0.22340225171E+02  0.61080504665E+01 -0.10511346559E+02  0.25433881888E+02  0.51100000000E-03 0. -1.
        -11    1    3    3    0    0 -0.11312625389E+02 -0.45125331436E+01 -0.73969622413E+00  0.12201868682E+02  0.51100000000E-03 0.  1.
        -12    1    3    3    0    0  0.93024718949E+01  0.18443349621E+02  0.65368922528E+01  0.21666196918E+02  0.00000000000E+00 0.  1.
</event>
<event>
 7    1  0.6515090E-012  0.5930196E+02  0.7816164E-02  0.1266605E+00
        -11   -1    0    0    0    0  0.00000000000E+00  0.00000000000E+00  0.45593999997E+02  0.45594000000E+02  0.51100000000E-03 0.  1.
         11   -1    0    0    0    0 -0.00000000000E+00 -0.00000000000E+00 -0.45593999997E+02  0.45594000000E+02  0.51100000000E-03 0. -1.
    9900012    2    1    2    0    0  0.22403900823E+02 -0.70678534009E+00 -0.22677857273E+02  0.59301960294E+02  0.50000029666E+02 0.  0.
        -12    1    1    2    0    0 -0.22403900823E+02  0.70678534009E+00  0.22677857273E+02  0.31886039706E+02  0.00000000000E+00 0.  1.
         11    1    3    3    0    0  0.17878820378E+02  0.11985408660E+02  0.15776978816E+00  0.21525034969E+02  0.51100000000E-03 0. -1.
        -11    1    3    3    0    0  0.17353620797E+00 -0.11616430005E+02  0.26367145698E+01  0.11913178621E+02  0.51100000000E-03 0.  1.
         12    1    3    3    0    0  0.43515442374E+01 -0.10757639945E+01 -0.25472341631E+02  0.25863746704E+02  0.00000000000E+00 0. -1.
</event>
<event>
 7    1  0.6515090E-012  0.5930197E+02  0.7816164E-02  0.1266605E+00
        -11   -1    0    0    0    0  0.00000000000E+00  0.00000000000E+00  0.45593999997E+02  0.45594000000E+02  0.51100000000E-03 0. -1.
         11   -1    0    0    0    0 -0.00000000000E+00 -0.00000000000E+00 -0.45593999997E+02  0.45594000000E+02  0.51100000000E-03 0.  1.
    9900012    2    1    2    0    0 -0.81665844988E+01 -0.26417685656E+02 -0.15878655476E+02  0.59301969869E+02  0.50000047128E+02 0.  0.
        -12    1    1    2    0    0  0.81665844988E+01  0.26417685656E+02  0.15878655476E+02  0.31886030131E+02  0.00000000000E+00 0.  1.
         11    1    3    3    0    0 -0.12814890052E+02 -0.13317289120E+02  0.13565105885E+01  0.18531371179E+02  0.51100000000E-03 0. -1.
        -11    1    3    3    0    0 -0.12134491728E+02 -0.48377034454E+01 -0.17771727063E+02  0.22056372031E+02  0.51100000000E-03 0.  1.
        -12    1    3    3    0    0  0.16782797281E+02 -0.82626930906E+01  0.53656099853E+00  0.18714226658E+02  0.00000000000E+00 0.  1.
</event>
<event>
 7    1  0.6515090E-012  0.5930193E+02  0.7816164E-02  0.1266605E+00
        -11   -1    0    0    0    0  0.00000000000E+00  0.00000000000E+00  0.45593999997E+02  0.45594000000E+02  0.51100000000E-03 0. -1.
         11   -1    0    0    0    0 -0.00000000000E+00 -0.00000000000E+00 -0.45593999997E+02  0.45594000000E+02  0.51100000000E-03 0.  1.
    9900012    2    1    2    0    0 -0.26384625335E+02  0.22190747921E+00  0.17903177648E+02  0.59301929893E+02  0.49999974221E+02 0.  0.
        -12    1    1    2    0    0  0.26384625335E+02 -0.22190747921E+00 -0.17903177648E+02  0.31886070107E+02  0.00000000000E+00 0.  1.
         11    1    3    3    0    0 -0.98885844668E+01 -0.50010358811E+01  0.33559443206E+01  0.11578291117E+02  0.51100000000E-03 0. -1.
        -11    1    3    3    0    0 -0.11646279079E+02  0.21197322109E+02 -0.19356454914E+01  0.24263326332E+02  0.51100000000E-03 0.  1.
         12    1    3    3    0    0 -0.48497617896E+01 -0.15974378748E+02  0.16482878818E+02  0.23460312444E+02  0.00000000000E+00 0. -1.
</event>
<event>
 7    1  0.6515090E-012  0.5930199E+02  0.7816164E-02  0.1266605E+00
        -11   -1    0    0    0    0  0.00000000000E+00  0.00000000000E+00  0.45593999997E+02  0.45594000000E+02  0.51100000000E-03 0.  1.
         11   -1    0    0    0    0 -0.00000000000E+00 -0.00000000000E+00 -0.45593999997E+02  0.45594000000E+02  0.51100000000E-03 0. -1.
    9900012    2    1    2    0    0 -0.19482308005E+02 -0.26514932419E+01 -0.25102329514E+02  0.59301989139E+02  0.50000082272E+02 0.  0.
        -12    1    1    2    0    0  0.19482308005E+02  0.26514932419E+01  0.25102329514E+02  0.31886010861E+02  0.00000000000E+00 0.  1.
         11    1    3    3    0    0 -0.54530864573E+01 -0.10955743538E+02 -0.96898767601E+01  0.15609554134E+02  0.51100000000E-03 0.  1.
        -11    1    3    3    0    0 -0.15435224713E+02 -0.12545875689E+02 -0.60251181945E+01  0.20783339680E+02  0.51100000000E-03 0. -1.
         12    1    3    3    0    0  0.14060031648E+01  0.20850125985E+02 -0.93873345590E+01  0.22909095325E+02  0.00000000000E+00 0. -1.
</event>
<event>
 7    1  0.6515090E-012  0.5930196E+02  0.7816164E-02  0.1266605E+00
        -11   -1    0    0    0    0  0.00000000000E+00  0.00000000000E+00  0.45593999997E+02  0.45594000000E+02  0.51100000000E-03 0.  1.
         11   -1    0    0    0    0 -0.00000000000E+00 -0.00000000000E+00 -0.45593999997E+02  0.45594000000E+02  0.51100000000E-03 0. -1.
    9900012    2    1    2    0    0  0.10355745569E+02 -0.18129918853E+02 -0.24099459863E+02  0.59301962467E+02  0.50000033628E+02 0.  0.
        -12    1    1    2    0    0 -0.10355745569E+02  0.18129918853E+02  0.24099459863E+02  0.31886037533E+02  0.00000000000E+00 0.  1.
         11    1    3    3    0    0  0.57874907874E+01 -0.10503270689E+02 -0.29850150909E+02  0.32169010776E+02  0.51100000000E-03 0. -1.
        -11    1    3    3    0    0 -0.78888717040E+01 -0.33447905281E+01 -0.51827395429E+01  0.10014125517E+02  0.51100000000E-03 0.  1.
        -12    1    3    3    0    0  0.12457126486E+02 -0.42818576357E+01  0.10933430589E+02  0.17118826173E+02  0.00000000000E+00 0.  1.
</event>
<event>
 7    1  0.6515090E-012  0.5930193E+02  0.7816164E-02  0.1266605E+00
        -11   -1    0    0    0    0  0.00000000000E+00  0.00000000000E+00  0.45593999997E+02  0.45594000000E+02  0.51100000000E-03 0.  1.
         11   -1    0    0    0    0 -0.00000000000E+00 -0.00000000000E+00 -0.45593999997E+02  0.45594000000E+02  0.51100000000E-03 0. -1.
    9900012    2    1    2    0    0  0.22406239256E+02 -0.13433670172E+02 -0.18281642926E+02  0.59301929061E+02  0.49999972703E+02 0.  0.
        -12    1    1    2    0    0 -0.22406239256E+02  0.13433670172E+02  0.18281642926E+02  0.31886070939E+02  0.00000000000E+00 0.  1.
         11    1    3    3    0    0 -0.13867244195E+01 -0.61303793246E+01  0.37667570619E+01  0.73275517265E+01  0.51100000000E-03 0.  1.
        -11    1    3    3    0    0  0.21821495770E+01 -0.28071482686E+01  0.11376172888E+02  0.11918857664E+02  0.51100000000E-03 0. -1.
         12    1    3    3    0    0  0.21610814098E+02 -0.44961425790E+01 -0.33424572876E+02  0.40055519670E+02  0.00000000000E+00 0. -1.
</event>
<event>
 7    1  0.6515090E-012  0.5930193E+02  0.7816164E-02  0.1266605E+00
        -11   -1    0    0    0    0  0.00000000000E+00  0.00000000000E+00  0.45593999997E+02  0.45594000000E+02  0.51100000000E-03 0. -1.
         11   -1    0    0    0    0 -0.00000000000E+00 -0.00000000000E+00 -0.45593999997E+02  0.45594000000E+02  0.51100000000E-03 0.  1.
    9900012    2    1    2    0    0  0.15235496832E+02  0.26223192447E+02  0.98460750844E+01  0.59301931249E+02  0.49999976695E+02 0.  0.
        -12    1    1    2    0    0 -0.15235496832E+02 -0.26223192447E+02 -0.98460750844E+01  0.31886068751E+02  0.00000000000E+00 0.  1.
         11    1    3    3    0    0  0.38863272789E+01  0.18381651649E+02 -0.68286011201E+00  0.18800397742E+02  0.51100000000E-03 0. -1.
        -11    1    3    3    0    0 -0.38308463662E+01 -0.19119900183E+01 -0.11356740542E+02  0.12136994921E+02  0.51100000000E-03 0.  1.
        -12    1    3    3    0    0  0.15180015919E+02  0.97535308168E+01  0.21885675739E+02  0.28364538586E+02  0.00000000000E+00 0.  1.
</event>
<event>
 7    1  0.6515090E-012  0.5930181E+02  0.7816164E-02  0.1266605E+00
        -11   -1    0    0    0    0  0.00000000000E+00  0.00000000000E+00  0.45593999997E+02  0.45594000000E+02  0.51100000000E-03 0.  1.
         11   -1    0    0    0    0 -0.00000000000E+00 -0.00000000000E+00 -0.45593999997E+02  0.45594000000E+02  0.51100000000E-03 0. -1.
    9900012    2    1    2    0    0  0.44428052671E+00 -0.68026282204E+01 -0.31148930808E+02  0.59301811354E+02  0.49999758035E+02 0.  0.
        -12    1    1    2    0    0 -0.44428052671E+00  0.68026282204E+01  0.31148930808E+02  0.31886188646E+02  0.00000000000E+00 0.  1.
         11    1    3    3    0    0 -0.13083723474E+02 -0.70206207256E+01 -0.20657134304E+02  0.25439931863E+02  0.51100000000E-03 0. -1.
        -11    1    3    3    0    0 -0.27971079135E+01  0.96087773762E+01 -0.11194197710E+02  0.15015408019E+02  0.51100000000E-03 0.  1.
        -12    1    3    3    0    0  0.16325111914E+02 -0.93907848710E+01  0.70240120574E+00  0.18846471472E+02  0.00000000000E+00 0.  1.
</event>
<event>
 7    1  0.6515090E-012  0.5930194E+02  0.7816164E-02  0.1266605E+00
        -11   -1    0    0    0    0  0.00000000000E+00  0.00000000000E+00  0.45593999997E+02  0.45594000000E+02  0.51100000000E-03 0.  1.
         11   -1    0    0    0    0 -0.00000000000E+00 -0.00000000000E+00 -0.45593999997E+02  0.45594000000E+02  0.51100000000E-03 0. -1.
    9900012    2    1    2    0    0  0.34586788277E+01 -0.23257269664E+01 -0.31612490505E+02  0.59301936883E+02  0.49999986970E+02 0.  0.
        -12    1    1    2    0    0 -0.34586788277E+01  0.23257269664E+01  0.31612490505E+02  0.31886063117E+02  0.00000000000E+00 0.  1.
         11    1    3    3    0    0  0.18684486251E+02  0.75187574776E+00 -0.12939322116E+02  0.22739863692E+02  0.51100000000E-03 0. -1.
        -11    1    3    3    0    0  0.32387889489E+00 -0.11363526193E+02 -0.69495764285E+00  0.11389363084E+02  0.51100000000E-03 0.  1.
         12    1    3    3    0    0 -0.15549686319E+02  0.82859234789E+01 -0.17978210746E+02  0.25172710107E+02  0.00000000000E+00 0. -1.
</event>
<event>
 7    1  0.6515090E-012  0.5930193E+02  0.7816164E-02  0.1266605E+00
        -11   -1    0    0    0    0  0.00000000000E+00  0.00000000000E+00  0.45593999997E+02  0.45594000000E+02  0.51100000000E-03 0.  1.
         11   -1    0    0    0    0 -0.00000000000E+00 -0.00000000000E+00 -0.45593999997E+02  0.45594000000E+02  0.51100000000E-03 0. -1.
    9900012    2    1    2    0    0 -0.59141417760E+01 -0.22512699690E+02 -0.21792724256E+02  0.59301928577E+02  0.49999971822E+02 0.  0.
        -12    1    1    2    0    0  0.59141417760E+01  0.22512699690E+02  0.21792724256E+02  0.31886071423E+02  0.00000000000E+00 0.  1.
         11    1    3    3    0    0  0.57471409873E+01 -0.15238596917E+02 -0.16594614366E+02  0.23251358923E+02  0.51100000000E-03 0. -1.
        -11    1    3    3    0    0  0.21208273133E+01 -0.88716236560E+01  0.11281730959E+02  0.14507965690E+02  0.51100000000E-03 0.  1.
        -12    1    3    3    0    0 -0.13782110077E+02  0.15975208832E+01 -0.16479840849E+02  0.21542603964E+02  0.00000000000E+00 0.  1.
</event>
<event>
 7    1  0.6515090E-012  0.5930193E+02  0.7816164E-02  0.1266605E+00
        -11   -1    0    0    0    0  0.00000000000E+00  0.00000000000E+00  0.45593999997E+02  0.45594000000E+02  0.51100000000E-03 0.  1.
         11   -1    0    0    0    0 -0.00000000000E+00 -0.00000000000E+00 -0.45593999997E+02  0.45594000000E+02  0.51100000000E-03 0. -1.
    9900012    2    1    2    0    0  0.10262244531E+02 -0.16233091728E+02 -0.25453773517E+02  0.59301929120E+02  0.49999972812E+02 0.  0.
        -12    1    1    2    0    0 -0.10262244531E+02  0.16233091728E+02  0.25453773517E+02  0.31886070880E+02  0.00000000000E+00 0.  1.
         11    1    3    3    0    0  0.86819913724E+01  0.20223514908E+01 -0.11154778836E+02  0.14279214645E+02  0.51100000000E-03 0. -1.
        -11    1    3    3    0    0  0.28801565334E+00  0.87662703979E+01  0.64849103501E+01  0.10908002210E+02  0.51100000000E-03 0.  1.
         12    1    3    3    0    0  0.12922375056E+01 -0.27021713617E+02 -0.20783905031E+02  0.34114712265E+02  0.00000000000E+00 0. -1.
</event>
<event>
 7    1  0.6515090E-012  0.5930168E+02  0.7816164E-02  0.1266606E+00
        -11   -1    0    0    0    0  0.00000000000E+00  0.00000000000E+00  0.45593999997E+02  0.45594000000E+02  0.51100000000E-03 0. -1.
         11   -1    0    0    0    0 -0.00000000000E+00 -0.00000000000E+00 -0.45593999997E+02  0.45594000000E+02  0.51100000000E-03 0.  1.
    9900012    2    1    2    0    0  0.16236147049E+02  0.14509177449E+02  0.23293957733E+02  0.59301683685E+02  0.49999525195E+02 0.  0.
        -12    1    1    2    0    0 -0.16236147049E+02 -0.14509177449E+02 -0.23293957733E+02  0.31886316315E+02  0.00000000000E+00 0.  1.
         11    1    3    3    0    0  0.15845192213E+02 -0.93411904427E+01  0.12225564813E+02  0.22086022513E+02  0.51100000000E-03 0. -1.
        -11    1    3    3    0    0  0.49663917537E+01  0.40070024814E+01 -0.73669823686E+01  0.97464632261E+01  0.51100000000E-03 0.  1.
        -12    1    3    3    0    0 -0.45754369177E+01  0.19843365410E+02  0.18435375289E+02  0.27469197947E+02  0.00000000000E+00 0.  1.
</event>
<event>
 7    1  0.6515090E-012  0.5930195E+02  0.7816164E-02  0.1266605E+00
        -11   -1    0    0    0    0  0.00000000000E+00  0.00000000000E+00  0.45593999997E+02  0.45594000000E+02  0.51100000000E-03 0.  1.
         11   -1    0    0    0    0 -0.00000000000E+00 -0.00000000000E+00 -0.45593999997E+02  0.45594000000E+02  0.51100000000E-03 0. -1.
    9900012    2    1    2    0    0  0.12248497331E+02  0.66830799978E+01 -0.28671081701E+02  0.59301950213E+02  0.50000011280E+02 0.  0.
        -12    1    1    2    0    0 -0.12248497331E+02 -0.66830799978E+01  0.28671081701E+02  0.31886049787E+02  0.00000000000E+00 0.  1.
         11    1    3    3    0    0 -0.21295346207E+01  0.11140863038E+02 -0.90054271989E+01  0.14482798977E+02  0.51100000000E-03 0. -1.
        -11    1    3    3    0    0  0.19958205202E+02  0.10686395399E+02 -0.17331783674E+02  0.28511747177E+02  0.51100000000E-03 0.  1.
        -12    1    3    3    0    0 -0.55801732503E+01 -0.15144178438E+02 -0.23338708277E+01  0.16307404058E+02  0.00000000000E+00 0.  1.
</event>
<event>
 7    1  0.6515090E-012  0.5930196E+02  0.7816164E-02  0.1266605E+00
        -11   -1    0    0    0    0  0.00000000000E+00  0.00000000000E+00  0.45593999997E+02  0.45594000000E+02  0.51100000000E-03 0.  1.
         11   -1    0    0    0    0 -0.00000000000E+00 -0.00000000000E+00 -0.45593999997E+02  0.45594000000E+02  0.51100000000E-03 0. -1.
    9900012    2    1    2    0    0 -0.13438981856E+02 -0.98767438172E+01 -0.27176514636E+02  0.59301964663E+02  0.50000037634E+02 0.  0.
        -12    1    1    2    0    0  0.13438981856E+02  0.98767438172E+01  0.27176514636E+02  0.31886035337E+02  0.00000000000E+00 0.  1.
         11    1    3    3    0    0  0.80281456808E+01 -0.89010857554E+01 -0.22509534134E+02  0.25502148495E+02  0.51100000000E-03 0. -1.
        -11    1    3    3    0    0 -0.74773588642E+00 -0.80760643826E+01 -0.82925626943E+01  0.11599505212E+02  0.51100000000E-03 0.  1.
         12    1    3    3    0    0 -0.20719391651E+02  0.71004063209E+01  0.36255821918E+01  0.22200310955E+02  0.00000000000E+00 0. -1.
</event>
<event>
 7    1  0.6515090E-012  0.5930197E+02  0.7816164E-02  0.1266605E+00
        -11   -1    0    0    0    0  0.00000000000E+00  0.00000000000E+00  0.45593999997E+02  0.45594000000E+02  0.51100000000E-03 0. -1.
         11   -1    0    0    0    0 -0.00000000000E+00 -0.00000000000E+00 -0.45593999997E+02  0.45594000000E+02  0.51100000000E-03 0.  1.
    9900012    2    1    2    0    0 -0.49293990297E+00  0.21131558270E+02  0.23873271012E+02  0.59301971500E+02  0.50000050103E+02 0.  0.
        -12    1    1    2    0    0  0.49293990297E+00 -0.21131558270E+02 -0.23873271012E+02  0.31886028500E+02  0.00000000000E+00 0.  1.
         11    1    3    3    0    0  0.80879349640E+01  0.30952955316E+02  0.28027158872E+02  0.42532596553E+02  0.51100000000E-03 0. -1.
        -11    1    3    3    0    0  0.16239752101E+01  0.17863900049E+00  0.55530829791E+00  0.17255651081E+01  0.51100000000E-03 0.  1.
        -12    1    3    3    0    0 -0.10204850077E+02 -0.10000036046E+02 -0.47091961581E+01  0.15043809839E+02  0.00000000000E+00 0.  1.
</event>
<event>
 7    1  0.6515090E-012  0.5930191E+02  0.7816164E-02  0.1266605E+00
        -11   -1    0    0    0    0  0.00000000000E+00  0.00000000000E+00  0.45593999997E+02  0.45594000000E+02  0.51100000000E-03 0. -1.
         11   -1    0    0    0    0 -0.00000000000E+00 -0.00000000000E+00 -0.45593999997E+02  0.45594000000E+02  0.51100000000E-03 0.  1.
    9900012    2    1    2    0    0 -0.24506348105E+01 -0.31381479858E+02 -0.50911288887E+01  0.59301913968E+02  0.49999945179E+02 0.  0.
        -12    1    1    2    0    0  0.24506348105E+01  0.31381479858E+02  0.50911288887E+01  0.31886086032E+02  0.00000000000E+00 0.  1.
         11    1    3    3    0    0 -0.19804152043E+02 -0.41006323540E+01  0.11618261761E+01  0.20257577945E+02  0.51100000000E-03 0. -1.
        -11    1    3    3    0    0 -0.39683601266E+00  0.26404414861E+01 -0.31301234884E+01  0.41142536840E+01  0.51100000000E-03 0.  1.
         12    1    3    3    0    0  0.17750353246E+02 -0.29921288990E+02 -0.31228315764E+01  0.34930082339E+02  0.00000000000E+00 0. -1.
</event>
<event>
 7    1  0.6515090E-012  0.5930197E+02  0.7816164E-02  0.1266605E+00
        -11   -1    0    0    0    0  0.00000000000E+00  0.00000000000E+00  0.45593999997E+02  0.45594000000E+02  0.51100000000E-03 0. -1.
         11   -1    0    0    0    0 -0.00000000000E+00 -0.00000000000E+00 -0.45593999997E+02  0.45594000000E+02  0.51100000000E-03 0.  1.
    9900012    2    1    2    0    0  0.61461937487E+01  0.18159338742E+02  0.25479045743E+02  0.59301967743E+02  0.50000043250E+02 0.  0.
        -12    1    1    2    0    0 -0.61461937487E+01 -0.18159338742E+02 -0.25479045743E+02  0.31886032257E+02  0.00000000000E+00 0.  1.
         11    1    3    3    0    0 -0.37773625871E+01  0.19820617861E+01  0.66887245362E+00  0.43179193668E+01  0.51100000000E-03 0. -1.
        -11    1    3    3    0    0 -0.51278125633E+01  0.14040905930E+02 -0.93240441450E+01  0.17617584979E+02  0.51100000000E-03 0.  1.
         12    1    3    3    0    0  0.15051368899E+02  0.21363710253E+01  0.34134217434E+02  0.37366463396E+02  0.00000000000E+00 0. -1.
</event>
<event>
 7    1  0.6515090E-012  0.5930195E+02  0.7816164E-02  0.1266605E+00
        -11   -1    0    0    0    0  0.00000000000E+00  0.00000000000E+00  0.45593999997E+02  0.45594000000E+02  0.51100000000E-03 0.  1.
         11   -1    0    0    0    0 -0.00000000000E+00 -0.00000000000E+00 -0.45593999997E+02  0.45594000000E+02  0.51100000000E-03 0. -1.
    9900012    2    1    2    0    0 -0.29345268665E+02 -0.74582336309E+01 -0.99975182812E+01  0.59301946408E+02  0.50000004340E+02 0.  0.
        -12    1    1    2    0    0  0.29345268665E+02  0.74582336309E+01  0.99975182812E+01  0.31886053592E+02  0.00000000000E+00 0.  1.
         11    1    3    3    0    0 -0.94933700572E+01 -0.12518257969E+01 -0.10827660102E+02  0.14454389175E+02  0.51100000000E-03 0. -1.
        -11    1    3    3    0    0  0.26577642456E+01 -0.18839186809E+02  0.14870164428E+00  0.19026318163E+02  0.51100000000E-03 0.  1.
         12    1    3    3    0    0 -0.22509662853E+02  0.12632778975E+02  0.68144017644E+00  0.25821239070E+02  0.00000000000E+00 0. -1.
</event>
<event>
 7    1  0.6515090E-012  0.5930170E+02  0.7816164E-02  0.1266606E+00
        -11   -1    0    0    0    0  0.00000000000E+00  0.00000000000E+00  0.45593999997E+02  0.45594000000E+02  0.51100000000E-03 0.  1.
         11   -1    0    0    0    0 -0.00000000000E+00 -0.00000000000E+00 -0.45593999997E+02  0.45594000000E+02  0.51100000000E-03 0. -1.
    9900012    2    1    2    0    0 -0.26517355787E+01 -0.15984753314E+02 -0.27462563243E+02  0.59301695417E+02  0.49999546592E+02 0.  0.
        -12    1    1    2    0    0  0.26517355787E+01  0.15984753314E+02  0.27462563243E+02  0.31886304583E+02  0.00000000000E+00 0.  1.
         11    1    3    3    0    0 -0.13462025296E+02  0.21851659869E+01 -0.51426712338E+01  0.14575600953E+02  0.51100000000E-03 0. -1.
        -11    1    3    3    0    0  0.57213788645E+01 -0.19888781690E+02  0.10742626730E+01  0.20723220160E+02  0.51100000000E-03 0.  1.
         12    1    3    3    0    0  0.50889108527E+01  0.17188623893E+01 -0.23394154682E+02  0.24002874304E+02  0.00000000000E+00 0. -1.
</event>
<event>
 7    1  0.6515090E-012  0.5930193E+02  0.7816164E-02  0.1266605E+00
        -11   -1    0    0    0    0  0.00000000000E+00  0.00000000000E+00  0.45593999997E+02  0.45594000000E+02  0.51100000000E-03 0.  1.
         11   -1    0    0    0    0 -0.00000000000E+00 -0.00000000000E+00 -0.45593999997E+02  0.45594000000E+02  0.51100000000E-03 0. -1.
    9900012    2    1    2    0    0 -0.23394257781E+02  0.12648423398E+02  0.17591126780E+02  0.59301926975E+02  0.49999968899E+02 0.  0.
        -12    1    1    2    0    0  0.23394257781E+02 -0.12648423398E+02 -0.17591126780E+02  0.31886073025E+02  0.00000000000E+00 0.  1.
         11    1    3    3    0    0 -0.35744368445E+02  0.14215657220E+02  0.13089145084E+02  0.40633366892E+02  0.51100000000E-03 0. -1.
        -11    1    3    3    0    0  0.11221624838E+01  0.20453133265E+01  0.63178302594E+01  0.67348002711E+01  0.51100000000E-03 0.  1.
        -12    1    3    3    0    0  0.11227948180E+02 -0.36125471480E+01 -0.18158485630E+01  0.11933759812E+02  0.00000000000E+00 0.  1.
</event>
<event>
 7    1  0.6515090E-012  0.5930197E+02  0.7816164E-02  0.1266605E+00
        -11   -1    0    0    0    0  0.00000000000E+00  0.00000000000E+00  0.45593999997E+02  0.45594000000E+02  0.51100000000E-03 0.  1.
         11   -1    0    0    0    0 -0.00000000000E+00 -0.00000000000E+00 -0.45593999997E+02  0.45594000000E+02  0.51100000000E-03 0. -1.
    9900012    2    1    2    0    0  0.50038767885E+01 -0.31477914765E+02  0.90595983387E+00  0.59301973842E+02  0.50000054375E+02 0.  0.
        -12    1    1    2    0    0 -0.50038767885E+01  0.31477914765E+02 -0.90595983387E+00  0.31886026158E+02  0.00000000000E+00 0.  1.
         11    1    3    3    0    0 -0.34935872453E+00 -0.52165732121E+01  0.48224790012E+01  0.71127344653E+01  0.51100000000E-03 0. -1.
        -11    1    3    3    0    0  0.65213115736E+01 -0.30356391435E+02  0.13793120822E+02  0.33974816966E+02  0.51100000000E-03 0.  1.
        -12    1    3    3    0    0 -0.11680760606E+01  0.40950498815E+01 -0.17709639990E+02  0.18214422411E+02  0.00000000000E+00 0.  1.
</event>
<event>
 7    1  0.6515090E-012  0.5930193E+02  0.7816164E-02  0.1266605E+00
        -11   -1    0    0    0    0  0.00000000000E+00  0.00000000000E+00  0.45593999997E+02  0.45594000000E+02  0.51100000000E-03 0.  1.
         11   -1    0    0    0    0 -0.00000000000E+00 -0.00000000000E+00 -0.45593999997E+02  0.45594000000E+02  0.51100000000E-03 0. -1.
    9900012    2    1    2    0    0  0.29142287133E+01 -0.13920504405E+02 -0.28538536165E+02  0.59301933791E+02  0.49999981330E+02 0.  0.
        -12    1    1    2    0    0 -0.29142287133E+01  0.13920504405E+02  0.28538536165E+02  0.31886066209E+02  0.00000000000E+00 0.  1.
         11    1    3    3    0    0  0.29120117600E+00  0.21836340645E+01  0.55313571010E+01  0.59539035508E+01  0.51100000000E-03 0. -1.
        -11    1    3    3    0    0  0.17354363069E+02 -0.15171574092E+02 -0.10031133553E+02  0.25139097410E+02  0.51100000000E-03 0.  1.
         12    1    3    3    0    0 -0.14731335532E+02 -0.93256437697E+00 -0.24038759713E+02  0.28208932830E+02  0.00000000000E+00 0. -1.
</event>
<event>
 7    1  0.6515090E-012  0.5930186E+02  0.7816164E-02  0.1266605E+00
        -11   -1    0    0    0    0  0.00000000000E+00  0.00000000000E+00  0.45593999997E+02  0.45594000000E+02  0.51100000000E-03 0. -1.
         11   -1    0    0    0    0 -0.00000000000E+00 -0.00000000000E+00 -0.45593999997E+02  0.45594000000E+02  0.51100000000E-03 0.  1.
    9900012    2    1    2    0    0 -0.10649750137E+02  0.25687797083E+01  0.29945113329E+02  0.59301864777E+02  0.49999855466E+02 0.  0.
        -12    1    1    2    0    0  0.10649750137E+02 -0.25687797083E+01 -0.29945113329E+02  0.31886135223E+02  0.00000000000E+00 0.  1.
         11    1    3    3    0    0  0.87028962615E+01  0.45921573154E+01  0.86961842297E+01  0.13132095513E+02  0.51100000000E-03 0. -1.
        -11    1    3    3    0    0  0.52095073061E+01 -0.80050759928E+01 -0.40781160527E+01  0.10385145104E+02  0.51100000000E-03 0.  1.
         12    1    3    3    0    0 -0.24562153705E+02  0.59816983858E+01  0.25327045152E+02  0.35784624161E+02  0.00000000000E+00 0. -1.
</event>
<event>
 7    1  0.6515090E-012  0.5930196E+02  0.7816164E-02  0.1266605E+00
        -11   -1    0    0    0    0  0.00000000000E+00  0.00000000000E+00  0.45593999997E+02  0.45594000000E+02  0.51100000000E-03 0. -1.
         11   -1    0    0    0    0 -0.00000000000E+00 -0.00000000000E+00 -0.45593999997E+02  0.45594000000E+02  0.51100000000E-03 0.  1.
    9900012    2    1    2    0    0 -0.13549381406E+02  0.28624783487E+02  0.37088746127E+01  0.59301957332E+02  0.50000024263E+02 0.  0.
        -12    1    1    2    0    0  0.13549381406E+02 -0.28624783487E+02 -0.37088746127E+01  0.31886042668E+02  0.00000000000E+00 0.  1.
         11    1    3    3    0    0 -0.12331776008E+02  0.33757488207E+02  0.14403128949E+02  0.38718094392E+02  0.51100000000E-03 0. -1.
        -11    1    3    3    0    0  0.45831490520E+01 -0.13058114292E+01  0.27122128091E+01  0.54832925605E+01  0.51100000000E-03 0.  1.
        -12    1    3    3    0    0 -0.58007544500E+01 -0.38268932913E+01 -0.13406467145E+02  0.15100570379E+02  0.00000000000E+00 0.  1.
</event>
<event>
 7    1  0.6515090E-012  0.5930204E+02  0.7816164E-02  0.1266604E+00
        -11   -1    0    0    0    0  0.00000000000E+00  0.00000000000E+00  0.45593999997E+02  0.45594000000E+02  0.51100000000E-03 0.  1.
         11   -1    0    0    0    0 -0.00000000000E+00 -0.00000000000E+00 -0.45593999997E+02  0.45594000000E+02  0.51100000000E-03 0. -1.
    9900012    2    1    2    0    0  0.38078936469E+01  0.31069855102E+02 -0.60727802126E+01  0.59302037421E+02  0.50000170326E+02 0.  0.
        -12    1    1    2    0    0 -0.38078936469E+01 -0.31069855102E+02  0.60727802126E+01  0.31885962579E+02  0.00000000000E+00 0.  1.
         11    1    3    3    0    0 -0.33454496875E+01  0.26266512043E+02  0.92298635069E+01  0.28041256554E+02  0.51100000000E-03 0. -1.
        -11    1    3    3    0    0 -0.89884975444E+01  0.62187149382E+01 -0.47084651425E+01  0.11901056585E+02  0.51100000000E-03 0.  1.
         12    1    3    3    0    0  0.16141840879E+02 -0.14153718795E+01 -0.10594178577E+02  0.19359724281E+02  0.00000000000E+00 0. -1.
</event>
<event>
 7    1  0.6515090E-012  0.5930193E+02  0.7816164E-02  0.1266605E+00
        -11   -1    0    0    0    0  0.00000000000E+00  0.00000000000E+00  0.45593999997E+02  0.45594000000E+02  0.51100000000E-03 0. -1.
         11   -1    0    0    0    0 -0.00000000000E+00 -0.00000000000E+00 -0.45593999997E+02  0.45594000000E+02  0.51100000000E-03 0.  1.
    9900012    2    1    2    0    0 -0.16010221226E+02 -0.11575769019E+02  0.25027895768E+02  0.59301934413E+02  0.49999982464E+02 0.  0.
        -12    1    1    2    0    0  0.16010221226E+02  0.11575769019E+02 -0.25027895768E+02  0.31886065587E+02  0.00000000000E+00 0.  1.
         11    1    3    3    0    0 -0.14361921240E+02 -0.14396666757E+02  0.19751384271E+02  0.28348650343E+02  0.51100000000E-03 0. -1.
        -11    1    3    3    0    0  0.96015622135E+01 -0.93847978654E+01  0.50729865443E+01  0.14352686879E+02  0.51100000000E-03 0.  1.
        -12    1    3    3    0    0 -0.11249862200E+02  0.12205695603E+02  0.20352495213E+00  0.16600597190E+02  0.00000000000E+00 0.  1.
</event>
<event>
 7    1  0.6515090E-012  0.5930201E+02  0.7816164E-02  0.1266605E+00
        -11   -1    0    0    0    0  0.00000000000E+00  0.00000000000E+00  0.45593999997E+02  0.45594000000E+02  0.51100000000E-03 0.  1.
         11   -1    0    0    0    0 -0.00000000000E+00 -0.00000000000E+00 -0.45593999997E+02  0.45594000000E+02  0.51100000000E-03 0. -1.
    9900012    2    1    2    0    0  0.31515807216E+02  0.36585568095E+01  0.31757490830E+01  0.59302007391E+02  0.50000115559E+02 0.  0.
        -12    1    1    2    0    0 -0.31515807216E+02 -0.36585568095E+01 -0.31757490830E+01  0.31885992609E+02  0.00000000000E+00 0.  1.
         11    1    3    3    0    0  0.14005600422E+02 -0.12160806415E+02 -0.11345846779E+02  0.21743281612E+02  0.51100000000E-03 0. -1.
        -11    1    3    3    0    0  0.74185775810E+01 -0.45279551998E+01  0.11841482164E+02  0.14688715795E+02  0.51100000000E-03 0.  1.
        -12    1    3    3    0    0  0.10091629213E+02  0.20347318424E+02  0.26801136984E+01  0.22870009984E+02  0.00000000000E+00 0.  1.
</event>
<event>
 7    1  0.6515090E-012  0.5930194E+02  0.7816164E-02  0.1266605E+00
        -11   -1    0    0    0    0  0.00000000000E+00  0.00000000000E+00  0.45593999997E+02  0.45594000000E+02  0.51100000000E-03 0. -1.
         11   -1    0    0    0    0 -0.00000000000E+00 -0.00000000000E+00 -0.45593999997E+02  0.45594000000E+02  0.51100000000E-03 0.  1.
    9900012    2    1    2    0    0  0.18847417586E+02 -0.25186494396E+02  0.52092361584E+01  0.59301940492E+02  0.49999993552E+02 0.  0.
        -12    1    1    2    0    0 -0.18847417586E+02  0.25186494396E+02 -0.52092361584E+01  0.31886059508E+02  0.00000000000E+00 0.  1.
         11    1    3    3    0    0  0.83670708017E+01  0.40997214259E-01  0.57719494194E+01  0.10164888338E+02  0.51100000000E-03 0. -1.
        -11    1    3    3    0    0  0.14099534743E+01  0.10446616643E+02 -0.56794447326E+01  0.11973965960E+02  0.51100000000E-03 0.  1.
        -12    1    3    3    0    0  0.90703933101E+01 -0.35674108253E+02  0.51167314717E+01  0.37163086193E+02  0.00000000000E+00 0.  1.
</event>
<event>
 7    1  0.6515090E-012  0.5930197E+02  0.7816164E-02  0.1266605E+00
        -11   -1    0    0    0    0  0.00000000000E+00  0.00000000000E+00  0.45593999997E+02  0.45594000000E+02  0.51100000000E-03 0.  1.
         11   -1    0    0    0    0 -0.00000000000E+00 -0.00000000000E+00 -0.45593999997E+02  0.45594000000E+02  0.51100000000E-03 0. -1.
    9900012    2    1    2    0    0 -0.80795210425E+01 -0.22396377728E+02 -0.21209497941E+02  0.59301965462E+02  0.50000039091E+02 0.  0.
        -12    1    1    2    0    0  0.80795210425E+01  0.22396377728E+02  0.21209497941E+02  0.31886034538E+02  0.00000000000E+00 0.  1.
         11    1    3    3    0    0 -0.73981565654E+01  0.72909342821E+01 -0.20260189118E+02  0.22767646049E+02  0.51100000000E-03 0. -1.
        -11    1    3    3    0    0  0.22327816514E+00  0.34015433355E+01  0.18262305466E+00  0.34137518427E+01  0.51100000000E-03 0.  1.
        -12    1    3    3    0    0 -0.90464264222E+00 -0.33088855346E+02 -0.11319318781E+01  0.33120567570E+02  0.00000000000E+00 0.  1.
</event>
<event>
 7    1  0.6515090E-012  0.5930195E+02  0.7816164E-02  0.1266605E+00
        -11   -1    0    0    0    0  0.00000000000E+00  0.00000000000E+00  0.45593999997E+02  0.45594000000E+02  0.51100000000E-03 0.  1.
         11   -1    0    0    0    0 -0.00000000000E+00 -0.00000000000E+00 -0.45593999997E+02  0.45594000000E+02  0.51100000000E-03 0. -1.
    9900012    2    1    2    0    0 -0.17443391456E+02 -0.26671528609E+02 -0.10383063774E+01  0.59301946246E+02  0.50000004046E+02 0.  0.
        -12    1    1    2    0    0  0.17443391456E+02  0.26671528609E+02  0.10383063774E+01  0.31886053754E+02  0.00000000000E+00 0.  1.
         11    1    3    3    0    0  0.44725155889E+01 -0.39285450754E+01 -0.60304943869E+01  0.84737078610E+01  0.51100000000E-03 0. -1.
        -11    1    3    3    0    0  0.75863638741E+01 -0.90077564270E+01 -0.95708501661E+01  0.15175432970E+02  0.51100000000E-03 0.  1.
        -12    1    3    3    0    0 -0.29502270919E+02 -0.13735227107E+02  0.14563038176E+02  0.35652805415E+02  0.00000000000E+00 0.  1.
</event>
<event>
 7    1  0.6515090E-012  0.5930195E+02  0.7816164E-02  0.1266605E+00
        -11   -1    0    0    0    0  0.00000000000E+00  0.00000000000E+00  0.45593999997E+02  0.45594000000E+02  0.51100000000E-03 0.  1.
         11   -1    0    0    0    0 -0.00000000000E+00 -0.00000000000E+00 -0.45593999997E+02  0.45594000000E+02  0.51100000000E-03 0. -1.
    9900012    2    1    2    0    0  0.31881732290E+02  0.47127414080E+00 -0.23032092526E+00  0.59301952881E+02  0.50000016146E+02 0.  0.
        -12    1    1    2    0    0 -0.31881732290E+02 -0.47127414080E+00  0.23032092526E+00  0.31886047119E+02  0.00000000000E+00 0.  1.
         11    1    3    3    0    0 -0.52235117799E+01 -0.89696678131E+01 -0.77329978541E+01  0.12943696229E+02  0.51100000000E-03 0. -1.
        -11    1    3    3    0    0  0.60320144415E+01 -0.70891763705E+01  0.61098253197E+01  0.11134252805E+02  0.51100000000E-03 0.  1.
         12    1    3    3    0    0  0.31073229629E+02  0.16530118324E+02  0.13928516091E+01  0.35224003847E+02  0.00000000000E+00 0. -1.
</event>
<event>
 7    1  0.6515090E-012  0.5930202E+02  0.7816164E-02  0.1266605E+00
        -11   -1    0    0    0    0  0.00000000000E+00  0.00000000000E+00  0.45593999997E+02  0.45594000000E+02  0.51100000000E-03 0.  1.
         11   -1    0    0    0    0 -0.00000000000E+00 -0.00000000000E+00 -0.45593999997E+02  0.45594000000E+02  0.51100000000E-03 0. -1.
    9900012    2    1    2    0    0  0.15868838340E+02 -0.14137741593E+02 -0.23770150063E+02  0.59302018728E+02  0.50000136236E+02 0.  0.
        -12    1    1    2    0    0 -0.15868838340E+02  0.14137741593E+02  0.23770150063E+02  0.31885981272E+02  0.00000000000E+00 0.  1.
         11    1    3    3    0    0  0.98291848912E+01 -0.58301898949E+01 -0.28089788602E+02  0.30325570296E+02  0.51100000000E-03 0. -1.
        -11    1    3    3    0    0  0.32268973994E+01  0.98014133649E+01  0.12356734215E+01  0.10392663751E+02  0.51100000000E-03 0.  1.
         12    1    3    3    0    0  0.28127560499E+01 -0.18108965063E+02  0.30839651169E+01  0.18583784681E+02  0.00000000000E+00 0. -1.
</event>
<event>
 7    1  0.6515090E-012  0.5930203E+02  0.7816164E-02  0.1266604E+00
        -11   -1    0    0    0    0  0.00000000000E+00  0.00000000000E+00  0.45593999997E+02  0.45594000000E+02  0.51100000000E-03 0.  1.
         11   -1    0    0    0    0 -0.00000000000E+00 -0.00000000000E+00 -0.45593999997E+02  0.45594000000E+02  0.51100000000E-03 0. -1.
    9900012    2    1    2    0    0  0.32875419457E+01  0.26933554606E+02 -0.16747867984E+02  0.59302025375E+02  0.50000148357E+02 0.  0.
        -12    1    1    2    0    0 -0.32875419457E+01 -0.26933554606E+02  0.16747867984E+02  0.31885974625E+02  0.00000000000E+00 0.  1.
         11    1    3    3    0    0  0.94445025880E+00  0.35509548404E+01  0.77685646161E+01  0.85937106669E+01  0.51100000000E-03 0. -1.
        -11    1    3    3    0    0 -0.84326766807E+01  0.43580640439E+01  0.73896485212E+01  0.12029532981E+02  0.51100000000E-03 0.  1.
         12    1    3    3    0    0  0.10775768368E+02  0.19024535722E+02 -0.31906081122E+02  0.38678781727E+02  0.00000000000E+00 0. -1.
</event>
<event>
 7    1  0.6515090E-012  0.5930177E+02  0.7816164E-02  0.1266605E+00
        -11   -1    0    0    0    0  0.00000000000E+00  0.00000000000E+00  0.45593999997E+02  0.45594000000E+02  0.51100000000E-03 0. -1.
         11   -1    0    0    0    0 -0.00000000000E+00 -0.00000000000E+00 -0.45593999997E+02  0.45594000000E+02  0.51100000000E-03 0.  1.
    9900012    2    1    2    0    0  0.15040931445E+02 -0.17216720831E+02  0.22228064941E+02  0.59301765260E+02  0.49999673969E+02 0.  0.
        -12    1    1    2    0    0 -0.15040931445E+02  0.17216720831E+02 -0.22228064941E+02  0.31886234740E+02  0.00000000000E+00 0.  1.
         11    1    3    3    0    0  0.10014077166E+02 -0.44749205654E+01 -0.22597904474E+01  0.11198808360E+02  0.51100000000E-03 0. -1.
        -11    1    3    3    0    0 -0.22619806178E+01 -0.12881558373E+01 -0.10371530286E+02  0.10693200760E+02  0.51100000000E-03 0.  1.
         12    1    3    3    0    0  0.72888348967E+01 -0.11453644428E+02  0.34859385674E+02  0.37409756139E+02  0.00000000000E+00 0. -1.
</event>
<event>
 7    1  0.6515090E-012  0.5930196E+02  0.7816164E-02  0.1266605E+00
        -11   -1    0    0    0    0  0.00000000000E+00  0.00000000000E+00  0.45593999997E+02  0.45594000000E+02  0.51100000000E-03 0.  1.
         11   -1    0    0    0    0 -0.00000000000E+00 -0.00000000000E+00 -0.45593999997E+02  0.45594000000E+02  0.51100000000E-03 0. -1.
    9900012    2    1    2    0    0  0.28961056343E+02  0.13191132769E+02  0.19927269885E+01  0.59301957143E+02  0.50000023919E+02 0.  0.
        -12    1    1    2    0    0 -0.28961056343E+02 -0.13191132769E+02 -0.19927269885E+01  0.31886042857E+02  0.00000000000E+00 0.  1.
         11    1    3    3    0    0  0.18689725695E+02  0.38553626003E+01  0.64900965417E+00  0.19094263042E+02  0.51100000000E-03 0. -1.
        -11    1    3    3    0    0  0.21444915657E+02  0.11187743844E+02  0.97746821887E+01  0.26088204845E+02  0.51100000000E-03 0.  1.
        -12    1    3    3    0    0 -0.11173585009E+02 -0.18519736753E+01 -0.84309648544E+01  0.14119489255E+02  0.00000000000E+00 0.  1.
</event>
<event>
 7    1  0.6515090E-012  0.5930195E+02  0.7816164E-02  0.1266605E+00
        -11   -1    0    0    0    0  0.00000000000E+00  0.00000000000E+00  0.45593999997E+02  0.45594000000E+02  0.51100000000E-03 0. -1.
         11   -1    0    0    0    0 -0.00000000000E+00 -0.00000000000E+00 -0.45593999997E+02  0.45594000000E+02  0.51100000000E-03 0.  1.
    9900012    2    1    2    0    0  0.11046318187E+02  0.15626919124E+02  0.25504866801E+02  0.59301953250E+02  0.50000016820E+02 0.  0.
        -12    1    1    2    0    0 -0.11046318187E+02 -0.15626919124E+02 -0.25504866801E+02  0.31886046750E+02  0.00000000000E+00 0.  1.
         11    1    3    3    0    0 -0.34271444497E+00  0.27340752142E+02  0.16167110107E+02  0.31764911937E+02  0.51100000000E-03 0. -1.
        -11    1    3    3    0    0 -0.33255168263E+01 -0.87403970701E+01 -0.85665950028E+00  0.93908183278E+01  0.51100000000E-03 0.  1.
        -12    1    3    3    0    0  0.14714549459E+02 -0.29734359477E+01  0.10194416194E+02  0.18146222986E+02  0.00000000000E+00 0.  1.
</event>
<event>
 7    1  0.6515090E-012  0.5930199E+02  0.7816164E-02  0.1266605E+00
        -11   -1    0    0    0    0  0.00000000000E+00  0.00000000000E+00  0.45593999997E+02  0.45594000000E+02  0.51100000000E-03 0. -1.
         11   -1    0    0    0    0 -0.00000000000E+00 -0.00000000000E+00 -0.45593999997E+02  0.45594000000E+02  0.51100000000E-03 0.  1.
    9900012    2    1    2    0    0  0.82541679506E+01  0.29453365129E+02 -0.90047667807E+01  0.59301986910E+02  0.50000078208E+02 0.  0.
        -12    1    1    2    0    0 -0.82541679506E+01 -0.29453365129E+02  0.90047667807E+01  0.31886013090E+02  0.00000000000E+00 0.  1.
         11    1    3    3    0    0  0.60208263348E+01 -0.27493373524E+00 -0.17292526831E+02  0.18312766660E+02  0.51100000000E-03 0. -1.
        -11    1    3    3    0    0 -0.43434290591E+01 -0.35136540478E+01 -0.13725603751E+01  0.57528308687E+01  0.51100000000E-03 0.  1.
         12    1    3    3    0    0  0.65767706749E+01  0.33241952912E+02  0.96603204249E+01  0.35236389381E+02  0.00000000000E+00 0. -1.
</event>
<event>
 7    1  0.6515090E-012  0.5930181E+02  0.7816164E-02  0.1266605E+00
        -11   -1    0    0    0    0  0.00000000000E+00  0.00000000000E+00  0.45593999997E+02  0.45594000000E+02  0.51100000000E-03 0.  1.
         11   -1    0    0    0    0 -0.00000000000E+00 -0.00000000000E+00 -0.45593999997E+02  0.45594000000E+02  0.51100000000E-03 0. -1.
    9900012    2    1    2    0    0 -0.48875403330E+01  0.29695172314E+02 -0.10537460640E+02  0.59301805715E+02  0.49999747750E+02 0.  0.
        -12    1    1    2    0    0  0.48875403330E+01 -0.29695172314E+02  0.10537460640E+02  0.31886194285E+02  0.00000000000E+00 0.  1.
         11    1    3    3    0    0  0.10292465087E+02 -0.13798879542E+01 -0.64277131544E+01  0.12212879472E+02  0.51100000000E-03 0. -1.
        -11    1    3    3    0    0  0.71526458783E+01 -0.41778153427E+00  0.31123650425E+01  0.78116388094E+01  0.51100000000E-03 0.  1.
        -12    1    3    3    0    0 -0.22332651299E+02  0.31492841802E+02 -0.72221125279E+01  0.39277287434E+02  0.00000000000E+00 0.  1.
</event>
<event>
 7    1  0.6515090E-012  0.5930195E+02  0.7816164E-02  0.1266605E+00
        -11   -1    0    0    0    0  0.00000000000E+00  0.00000000000E+00  0.45593999997E+02  0.45594000000E+02  0.51100000000E-03 0. -1.
         11   -1    0    0    0    0 -0.00000000000E+00 -0.00000000000E+00 -0.45593999997E+02  0.45594000000E+02  0.51100000000E-03 0.  1.
    9900012    2    1    2    0    0  0.24176718967E+02  0.84730179470E+01  0.18984578208E+02  0.59301953163E+02  0.50000016661E+02 0.  0.
        -12    1    1    2    0    0 -0.24176718967E+02 -0.84730179470E+01 -0.18984578208E+02  0.31886046837E+02  0.00000000000E+00 0.  1.
         11    1    3    3    0    0  0.83566146736E+01  0.24486039833E+01 -0.29877203145E+01  0.92062556563E+01  0.51100000000E-03 0.  1.
        -11    1    3    3    0    0 -0.27341590504E+00  0.11692678278E+02  0.29283443994E+02  0.31532738130E+02  0.51100000000E-03 0. -1.
         12    1    3    3    0    0  0.16093520199E+02 -0.56682643145E+01 -0.73111454717E+01  0.18562959377E+02  0.00000000000E+00 0. -1.
</event>
<event>
 7    1  0.6515090E-012  0.5930193E+02  0.7816164E-02  0.1266605E+00
        -11   -1    0    0    0    0  0.00000000000E+00  0.00000000000E+00  0.45593999997E+02  0.45594000000E+02  0.51100000000E-03 0. -1.
         11   -1    0    0    0    0 -0.00000000000E+00 -0.00000000000E+00 -0.45593999997E+02  0.45594000000E+02  0.51100000000E-03 0.  1.
    9900012    2    1    2    0    0  0.26155393774E+01  0.31061181877E+02  0.67144326964E+01  0.59301926672E+02  0.49999968347E+02 0.  0.
        -12    1    1    2    0    0 -0.26155393774E+01 -0.31061181877E+02 -0.67144326964E+01  0.31886073328E+02  0.00000000000E+00 0.  1.
         11    1    3    3    0    0 -0.70660006273E+01  0.19851009107E+02  0.11363973389E+00  0.21071398665E+02  0.51100000000E-03 0. -1.
        -11    1    3    3    0    0  0.10256876893E+01  0.76770927666E+01  0.20253261632E+02  0.21683735739E+02  0.51100000000E-03 0.  1.
        -12    1    3    3    0    0  0.86558523154E+01  0.35330800036E+01 -0.13652468669E+02  0.16546792269E+02  0.00000000000E+00 0.  1.
</event>
<event>
 7    1  0.6515090E-012  0.5930191E+02  0.7816164E-02  0.1266605E+00
        -11   -1    0    0    0    0  0.00000000000E+00  0.00000000000E+00  0.45593999997E+02  0.45594000000E+02  0.51100000000E-03 0.  1.
         11   -1    0    0    0    0 -0.00000000000E+00 -0.00000000000E+00 -0.45593999997E+02  0.45594000000E+02  0.51100000000E-03 0. -1.
    9900012    2    1    2    0    0  0.56126123949E+01 -0.20066993717E+02  0.24135810201E+02  0.59301906029E+02  0.49999930699E+02 0.  0.
        -12    1    1    2    0    0 -0.56126123949E+01  0.20066993717E+02 -0.24135810201E+02  0.31886093971E+02  0.00000000000E+00 0.  1.
         11    1    3    3    0    0  0.16641172108E+01 -0.50484220672E+01  0.28720983172E+02  0.29208744000E+02  0.51100000000E-03 0. -1.
        -11    1    3    3    0    0 -0.82834322891E+00  0.13203476346E+01  0.84877689066E+01  0.86296982366E+01  0.51100000000E-03 0.  1.
         12    1    3    3    0    0  0.47768384130E+01 -0.16338919284E+02 -0.13072941878E+02  0.21463463792E+02  0.00000000000E+00 0. -1.
</event>
<event>
 7    1  0.6515090E-012  0.5930194E+02  0.7816164E-02  0.1266605E+00
        -11   -1    0    0    0    0  0.00000000000E+00  0.00000000000E+00  0.45593999997E+02  0.45594000000E+02  0.51100000000E-03 0. -1.
         11   -1    0    0    0    0 -0.00000000000E+00 -0.00000000000E+00 -0.45593999997E+02  0.45594000000E+02  0.51100000000E-03 0.  1.
    9900012    2    1    2    0    0  0.26628814346E+02  0.13182507361E+02  0.11569304619E+02  0.59301936223E+02  0.49999985767E+02 0.  0.
        -12    1    1    2    0    0 -0.26628814346E+02 -0.13182507361E+02 -0.11569304619E+02  0.31886063777E+02  0.00000000000E+00 0.  1.
         11    1    3    3    0    0 -0.25264565832E+01 -0.70059769198E+01 -0.28374340421E+01  0.79698009807E+01  0.51100000000E-03 0. -1.
        -11    1    3    3    0    0 -0.12589890346E+01  0.79990381924E+01 -0.81998891027E+01  0.11524228692E+02  0.51100000000E-03 0.  1.
         12    1    3    3    0    0  0.30414259964E+02  0.12189446089E+02  0.22606627764E+02  0.39807906551E+02  0.00000000000E+00 0. -1.
</event>
<event>
 7    1  0.6515090E-012  0.5930194E+02  0.7816164E-02  0.1266605E+00
        -11   -1    0    0    0    0  0.00000000000E+00  0.00000000000E+00  0.45593999997E+02  0.45594000000E+02  0.51100000000E-03 0. -1.
         11   -1    0    0    0    0 -0.00000000000E+00 -0.00000000000E+00 -0.45593999997E+02  0.45594000000E+02  0.51100000000E-03 0.  1.
    9900012    2    1    2    0    0 -0.35733749168E+01 -0.11798070125E+02  0.29406751617E+02  0.59301944935E+02  0.50000001654E+02 0.  0.
        -12    1    1    2    0    0  0.35733749168E+01  0.11798070125E+02 -0.29406751617E+02  0.31886055065E+02  0.00000000000E+00 0.  1.
         11    1    3    3    0    0  0.11533873619E+02 -0.95595742562E+01 -0.35987894755E+01  0.15406718877E+02  0.51100000000E-03 0. -1.
        -11    1    3    3    0    0 -0.16400073490E+02 -0.12636947551E+01  0.70609781886E+01  0.17900188495E+02  0.51100000000E-03 0.  1.
        -12    1    3    3    0    0  0.12928249549E+01 -0.97480111386E+00  0.25944562904E+02  0.25995037562E+02  0.00000000000E+00 0.  1.
</event>
<event>
 7    1  0.6515090E-012  0.5930191E+02  0.7816164E-02  0.1266605E+00
        -11   -1    0    0    0    0  0.00000000000E+00  0.00000000000E+00  0.45593999997E+02  0.45594000000E+02  0.51100000000E-03 0.  1.
         11   -1    0    0    0    0 -0.00000000000E+00 -0.00000000000E+00 -0.45593999997E+02  0.45594000000E+02  0.51100000000E-03 0. -1.
    9900012    2    1    2    0    0 -0.80559077483E+01 -0.30549864089E+02  0.43047385794E+01  0.59301911815E+02  0.49999941251E+02 0.  0.
        -12    1    1    2    0    0  0.80559077483E+01  0.30549864089E+02 -0.43047385794E+01  0.31886088185E+02  0.00000000000E+00 0.  1.
         11    1    3    3    0    0 -0.10947946250E+02  0.17735291432E+01  0.59661012976E+01  0.12593541903E+02  0.51100000000E-03 0. -1.
        -11    1    3    3    0    0  0.89452938370E+00 -0.20632657695E+01  0.12881019572E+02  0.13075852322E+02  0.51100000000E-03 0.  1.
         12    1    3    3    0    0  0.19975091178E+01 -0.30260127463E+02 -0.14542382291E+02  0.33632517590E+02  0.00000000000E+00 0. -1.
</event>
<event>
 7    1  0.6515090E-012  0.5930193E+02  0.7816164E-02  0.1266605E+00
        -11   -1    0    0    0    0  0.00000000000E+00  0.00000000000E+00  0.45593999997E+02  0.45594000000E+02  0.51100000000E-03 0. -1.
         11   -1    0    0    0    0 -0.00000000000E+00 -0.00000000000E+00 -0.45593999997E+02  0.45594000000E+02  0.51100000000E-03 0.  1.
    9900012    2    1    2    0    0  0.13704801980E+01 -0.31343088920E+02 -0.56968284133E+01  0.59301932619E+02  0.49999979194E+02 0.  0.
        -12    1    1    2    0    0 -0.13704801980E+01  0.31343088920E+02  0.56968284133E+01  0.31886067381E+02  0.00000000000E+00 0.  1.
         11    1    3    3    0    0  0.33172643018E+01 -0.15787174093E+02  0.81115761472E+01  0.18056488478E+02  0.51100000000E-03 0. -1.
        -11    1    3    3    0    0 -0.14026085607E+02 -0.21289005232E+02 -0.89707447779E+01  0.27026414549E+02  0.51100000000E-03 0.  1.
         12    1    3    3    0    0  0.12079301503E+02  0.57330904053E+01 -0.48376597826E+01  0.14219029593E+02  0.00000000000E+00 0. -1.
</event>
<event>
 7    1  0.6515090E-012  0.5930195E+02  0.7816164E-02  0.1266605E+00
        -11   -1    0    0    0    0  0.00000000000E+00  0.00000000000E+00  0.45593999997E+02  0.45594000000E+02  0.51100000000E-03 0.  1.
         11   -1    0    0    0    0 -0.00000000000E+00 -0.00000000000E+00 -0.45593999997E+02  0.45594000000E+02  0.51100000000E-03 0. -1.
    9900012    2    1    2    0    0 -0.27620702253E+02 -0.15869928937E+02  0.14007619594E+01  0.59301953342E+02  0.50000016987E+02 0.  0.
        -12    1    1    2    0    0  0.27620702253E+02  0.15869928937E+02 -0.14007619594E+01  0.31886046658E+02  0.00000000000E+00 0.  1.
         11    1    3    3    0    0 -0.22848315566E+02 -0.13268358834E+02 -0.18807508511E+02  0.32431732100E+02  0.51100000000E-03 0. -1.
        -11    1    3    3    0    0 -0.42338585959E+01 -0.67420342837E+01  0.20263294036E+01  0.82150225809E+01  0.51100000000E-03 0.  1.
        -12    1    3    3    0    0 -0.53852809062E+00  0.41404641802E+01  0.18181941067E+02  0.18655198661E+02  0.00000000000E+00 0.  1.
</event>
<event>
 7    1  0.6515090E-012  0.5930195E+02  0.7816164E-02  0.1266605E+00
        -11   -1    0    0    0    0  0.00000000000E+00  0.00000000000E+00  0.45593999997E+02  0.45594000000E+02  0.51100000000E-03 0.  1.
         11   -1    0    0    0    0 -0.00000000000E+00 -0.00000000000E+00 -0.45593999997E+02  0.45594000000E+02  0.51100000000E-03 0. -1.
    9900012    2    1    2    0    0 -0.15772965272E+02 -0.10639228084E+02 -0.25587903946E+02  0.59301946057E+02  0.50000003702E+02 0.  0.
        -12    1    1    2    0    0  0.15772965272E+02  0.10639228084E+02  0.25587903946E+02  0.31886053943E+02  0.00000000000E+00 0.  1.
         11    1    3    3    0    0  0.11656929746E+01 -0.54116202199E+00  0.70312365340E+01  0.71477257853E+01  0.51100000000E-03 0. -1.
        -11    1    3    3    0    0 -0.83865449316E+01  0.12195016470E+02 -0.49483653066E+01  0.15605732347E+02  0.51100000000E-03 0.  1.
         12    1    3    3    0    0 -0.85521133146E+01 -0.22293082533E+02 -0.27670775173E+02  0.36548487926E+02  0.00000000000E+00 0. -1.
</event>
<event>
 7    1  0.6515090E-012  0.5930195E+02  0.7816164E-02  0.1266605E+00
        -11   -1    0    0    0    0  0.00000000000E+00  0.00000000000E+00  0.45593999997E+02  0.45594000000E+02  0.51100000000E-03 0.  1.
         11   -1    0    0    0    0 -0.00000000000E+00 -0.00000000000E+00 -0.45593999997E+02  0.45594000000E+02  0.51100000000E-03 0. -1.
    9900012    2    1    2    0    0  0.29204486074E+01  0.62721302932E+01 -0.31126385149E+02  0.59301945197E+02  0.50000002132E+02 0.  0.
        -12    1    1    2    0    0 -0.29204486074E+01 -0.62721302932E+01  0.31126385149E+02  0.31886054803E+02  0.00000000000E+00 0.  1.
         11    1    3    3    0    0  0.10828649240E+02  0.12046132898E+02 -0.43226058538E+01  0.16764661756E+02  0.51100000000E-03 0. -1.
        -11    1    3    3    0    0  0.50353080238E+01 -0.63727003658E+01  0.40481404131E+01  0.90748596635E+01  0.51100000000E-03 0.  1.
         12    1    3    3    0    0 -0.12943508657E+02  0.59869776078E+00 -0.30851919708E+02  0.33462423777E+02  0.00000000000E+00 0. -1.
</event>
<event>
 7    1  0.6515090E-012  0.5930193E+02  0.7816164E-02  0.1266605E+00
        -11   -1    0    0    0    0  0.00000000000E+00  0.00000000000E+00  0.45593999997E+02  0.45594000000E+02  0.51100000000E-03 0. -1.
         11   -1    0    0    0    0 -0.00000000000E+00 -0.00000000000E+00 -0.45593999997E+02  0.45594000000E+02  0.51100000000E-03 0.  1.
    9900012    2    1    2    0    0  0.47494644095E+01 -0.30597058043E+02  0.76147201306E+01  0.59301931949E+02  0.49999977972E+02 0.  0.
        -12    1    1    2    0    0 -0.47494644095E+01  0.30597058043E+02 -0.76147201306E+01  0.31886068051E+02  0.00000000000E+00 0.  1.
         11    1    3    3    0    0  0.93844757170E+01 -0.42400483601E+01  0.81118675606E+01  0.13109110960E+02  0.51100000000E-03 0. -1.
        -11    1    3    3    0    0  0.81723644627E+01 -0.65700952231E+01  0.14767375213E+02  0.18111572629E+02  0.51100000000E-03 0.  1.
         12    1    3    3    0    0 -0.12807375770E+02 -0.19786914460E+02 -0.15264522643E+02  0.28081248360E+02  0.00000000000E+00 0. -1.
</event>
<event>
 7    1  0.6515090E-012  0.5930194E+02  0.7816164E-02  0.1266605E+00
        -11   -1    0    0    0    0  0.00000000000E+00  0.00000000000E+00  0.45593999997E+02  0.45594000000E+02  0.51100000000E-03 0.  1.
         11   -1    0    0    0    0 -0.00000000000E+00 -0.00000000000E+00 -0.45593999997E+02  0.45594000000E+02  0.51100000000E-03 0. -1.
    9900012    2    1    2    0    0 -0.12299170951E+02 -0.20123188654E+02  0.21459459950E+02  0.59301941149E+02  0.49999994750E+02 0.  0.
        -12    1    1    2    0    0  0.12299170951E+02  0.20123188654E+02 -0.21459459950E+02  0.31886058851E+02  0.00000000000E+00 0.  1.
         11    1    3    3    0    0 -0.31486153246E+01 -0.14727568614E+02 -0.60210744367E+01  0.16219383261E+02  0.51100000000E-03 0. -1.
        -11    1    3    3    0    0  0.32672815639E+00  0.11731073790E+02  0.37485451187E+01  0.12319757884E+02  0.51100000000E-03 0.  1.
        -12    1    3    3    0    0 -0.94772837827E+01 -0.17126693830E+02  0.23731989268E+02  0.30762800004E+02  0.00000000000E+00 0.  1.
</event>
<event>
 7    1  0.6515090E-012  0.5930196E+02  0.7816164E-02  0.1266605E+00
        -11   -1    0    0    0    0  0.00000000000E+00  0.00000000000E+00  0.45593999997E+02  0.45594000000E+02  0.51100000000E-03 0.  1.
         11   -1    0    0    0    0 -0.00000000000E+00 -0.00000000000E+00 -0.45593999997E+02  0.45594000000E+02  0.51100000000E-03 0. -1.
    9900012    2    1    2    0    0  0.60232225144E+01 -0.99749592892E+01 -0.29680640606E+02  0.59301961534E+02  0.50000031927E+02 0.  0.
        -12    1    1    2    0    0 -0.60232225144E+01  0.99749592892E+01  0.29680640606E+02  0.31886038466E+02  0.00000000000E+00 0.  1.
         11    1    3    3    0    0  0.39262524251E+01 -0.94563159358E+01 -0.51744443849E+01  0.11472237974E+02  0.51100000000E-03 0. -1.
        -11    1    3    3    0    0 -0.73143288320E+01  0.16611202917E+01  0.97136171167E+01  0.12272452267E+02  0.51100000000E-03 0.  1.
         12    1    3    3    0    0  0.94112989214E+01 -0.21797636451E+01 -0.34219813338E+02  0.35557271293E+02  0.00000000000E+00 0. -1.
</event>
<event>
 7    1  0.6515090E-012  0.5930190E+02  0.7816164E-02  0.1266605E+00
        -11   -1    0    0    0    0  0.00000000000E+00  0.00000000000E+00  0.45593999997E+02  0.45594000000E+02  0.51100000000E-03 0. -1.
         11   -1    0    0    0    0 -0.00000000000E+00 -0.00000000000E+00 -0.45593999997E+02  0.45594000000E+02  0.51100000000E-03 0.  1.
    9900012    2    1    2    0    0  0.58447981872E+01  0.20751814087E+02  0.23493059039E+02  0.59301901513E+02  0.49999922463E+02 0.  0.
        -12    1    1    2    0    0 -0.58447981872E+01 -0.20751814087E+02 -0.23493059039E+02  0.31886098487E+02  0.00000000000E+00 0.  1.
         11    1    3    3    0    0 -0.12377777614E+02 -0.62536051328E+01  0.85992656102E+01  0.16317607824E+02  0.51100000000E-03 0.  1.
        -11    1    3    3    0    0 -0.18205841121E+01  0.17931840295E+02  0.41302693021E+01  0.18491201899E+02  0.51100000000E-03 0. -1.
        -12    1    3    3    0    0  0.20043159913E+02  0.90735789241E+01  0.10763524127E+02  0.24493091790E+02  0.00000000000E+00 0.  1.
</event>
<event>
 7    1  0.6515090E-012  0.5930196E+02  0.7816164E-02  0.1266605E+00
        -11   -1    0    0    0    0  0.00000000000E+00  0.00000000000E+00  0.45593999997E+02  0.45594000000E+02  0.51100000000E-03 0. -1.
         11   -1    0    0    0    0 -0.00000000000E+00 -0.00000000000E+00 -0.45593999997E+02  0.45594000000E+02  0.51100000000E-03 0.  1.
    9900012    2    1    2    0    0  0.12488878291E+02  0.23164458735E+02  0.18004315413E+02  0.59301959120E+02  0.50000027525E+02 0.  0.
        -12    1    1    2    0    0 -0.12488878291E+02 -0.23164458735E+02 -0.18004315413E+02  0.31886040880E+02  0.00000000000E+00 0.  1.
         11    1    3    3    0    0 -0.34564733788E+01 -0.47276267083E+01  0.10931456725E+02  0.12401387378E+02  0.51100000000E-03 0. -1.
        -11    1    3    3    0    0 -0.88121751120E+01  0.30993860259E+00  0.40815690497E+01  0.97164653198E+01  0.51100000000E-03 0.  1.
         12    1    3    3    0    0  0.24757526782E+02  0.27582146841E+02  0.29912896384E+01  0.37184106422E+02  0.00000000000E+00 0. -1.
</event>
<event>
 7    1  0.6515090E-012  0.5930196E+02  0.7816164E-02  0.1266605E+00
        -11   -1    0    0    0    0  0.00000000000E+00  0.00000000000E+00  0.45593999997E+02  0.45594000000E+02  0.51100000000E-03 0.  1.
         11   -1    0    0    0    0 -0.00000000000E+00 -0.00000000000E+00 -0.45593999997E+02  0.45594000000E+02  0.51100000000E-03 0. -1.
    9900012    2    1    2    0    0  0.42705476466E+01  0.92827930456E+01 -0.30204502150E+02  0.59301956437E+02  0.50000022632E+02 0.  0.
        -12    1    1    2    0    0 -0.42705476466E+01 -0.92827930456E+01  0.30204502150E+02  0.31886043563E+02  0.00000000000E+00 0.  1.
         11    1    3    3    0    0 -0.78183815514E+01  0.10822926009E+02 -0.21131249464E+02  0.24995850089E+02  0.51100000000E-03 0. -1.
        -11    1    3    3    0    0  0.28367775903E+01 -0.15560019183E+02 -0.15230030528E+01  0.15889652061E+02  0.51100000000E-03 0.  1.
         12    1    3    3    0    0  0.92521516077E+01  0.14019886219E+02 -0.75502496331E+01  0.18416454287E+02  0.00000000000E+00 0. -1.
</event>
<event>
 7    1  0.6515090E-012  0.5930231E+02  0.7816164E-02  0.1266603E+00
        -11   -1    0    0    0    0  0.00000000000E+00  0.00000000000E+00  0.45593999997E+02  0.45594000000E+02  0.51100000000E-03 0. -1.
         11   -1    0    0    0    0 -0.00000000000E+00 -0.00000000000E+00 -0.45593999997E+02  0.45594000000E+02  0.51100000000E-03 0.  1.
    9900012    2    1    2    0    0 -0.26562894613E+02  0.14016201510E+02 -0.10707737246E+02  0.59302314937E+02  0.50000676446E+02 0.  0.
        -12    1    1    2    0    0  0.26562894613E+02 -0.14016201510E+02  0.10707737246E+02  0.31885685063E+02  0.00000000000E+00 0.  1.
         11    1    3    3    0    0 -0.10989266422E+02 -0.63804201741E+01  0.21558612751E+01  0.12888812055E+02  0.51100000000E-03 0. -1.
        -11    1    3    3    0    0 -0.12927331893E+02 -0.30757402713E+01 -0.17868631845E+02  0.22268006025E+02  0.51100000000E-03 0.  1.
         12    1    3    3    0    0 -0.26462962979E+01  0.23472361956E+02  0.50050333236E+01  0.24145496857E+02  0.00000000000E+00 0. -1.
</event>
<event>
 7    1  0.6515090E-012  0.5930192E+02  0.7816164E-02  0.1266605E+00
        -11   -1    0    0    0    0  0.00000000000E+00  0.00000000000E+00  0.45593999997E+02  0.45594000000E+02  0.51100000000E-03 0. -1.
         11   -1    0    0    0    0 -0.00000000000E+00 -0.00000000000E+00 -0.45593999997E+02  0.45594000000E+02  0.51100000000E-03 0.  1.
    9900012    2    1    2    0    0  0.16630162278E+02 -0.11215576465E+02  0.24786500185E+02  0.59301920840E+02  0.49999957710E+02 0.  0.
        -12    1    1    2    0    0 -0.16630162278E+02  0.11215576465E+02 -0.24786500185E+02  0.31886079160E+02  0.00000000000E+00 0.  1.
         11    1    3    3    0    0  0.61245124251E+01 -0.14461046632E+01  0.11869805548E+02  0.13434774101E+02  0.51100000000E-03 0. -1.
        -11    1    3    3    0    0  0.79099081198E+01 -0.49525797948E+01  0.28162836227E+02  0.29668839507E+02  0.51100000000E-03 0.  1.
        -12    1    3    3    0    0  0.25957417329E+01 -0.48168920066E+01 -0.15246141591E+02  0.16198307231E+02  0.00000000000E+00 0.  1.
</event>
<event>
 7    1  0.6515090E-012  0.5930195E+02  0.7816164E-02  0.1266605E+00
        -11   -1    0    0    0    0  0.00000000000E+00  0.00000000000E+00  0.45593999997E+02  0.45594000000E+02  0.51100000000E-03 0.  1.
         11   -1    0    0    0    0 -0.00000000000E+00 -0.00000000000E+00 -0.45593999997E+02  0.45594000000E+02  0.51100000000E-03 0. -1.
    9900012    2    1    2    0    0  0.18624108153E+01 -0.20128692727E+00 -0.31830980958E+02  0.59301946008E+02  0.50000003611E+02 0.  0.
        -12    1    1    2    0    0 -0.18624108153E+01  0.20128692727E+00  0.31830980958E+02  0.31886053992E+02  0.00000000000E+00 0.  1.
         11    1    3    3    0    0 -0.87845646771E+01 -0.12311561286E+02 -0.66803725053E+01  0.16533919527E+02  0.51100000000E-03 0. -1.
        -11    1    3    3    0    0  0.12308339894E+02 -0.24506093566E+01  0.12092908583E+01  0.12608057019E+02  0.51100000000E-03 0.  1.
         12    1    3    3    0    0 -0.16613644014E+01  0.14560883715E+02 -0.26359899311E+02  0.30159969461E+02  0.00000000000E+00 0. -1.
</event>
<event>
 7    1  0.6515090E-012  0.5930191E+02  0.7816164E-02  0.1266605E+00
        -11   -1    0    0    0    0  0.00000000000E+00  0.00000000000E+00  0.45593999997E+02  0.45594000000E+02  0.51100000000E-03 0.  1.
         11   -1    0    0    0    0 -0.00000000000E+00 -0.00000000000E+00 -0.45593999997E+02  0.45594000000E+02  0.51100000000E-03 0. -1.
    9900012    2    1    2    0    0  0.25208543773E+02 -0.85950239474E-01 -0.19525481394E+02  0.59301913846E+02  0.49999944955E+02 0.  0.
        -12    1    1    2    0    0 -0.25208543773E+02  0.85950239474E-01  0.19525481394E+02  0.31886086154E+02  0.00000000000E+00 0.  1.
         11    1    3    3    0    0  0.15940897383E+01  0.29307851662E+01 -0.30426724813E+01  0.45153604368E+01  0.51100000000E-03 0. -1.
        -11    1    3    3    0    0  0.83105989134E+01  0.18558230786E+02 -0.19487983040E+02  0.28164791272E+02  0.51100000000E-03 0.  1.
        -12    1    3    3    0    0  0.15303855121E+02 -0.21574966192E+02  0.30051741271E+01  0.26621762137E+02  0.00000000000E+00 0.  1.
</event>
<event>
 7    1  0.6515090E-012  0.5930193E+02  0.7816164E-02  0.1266605E+00
        -11   -1    0    0    0    0  0.00000000000E+00  0.00000000000E+00  0.45593999997E+02  0.45594000000E+02  0.51100000000E-03 0.  1.
         11   -1    0    0    0    0 -0.00000000000E+00 -0.00000000000E+00 -0.45593999997E+02  0.45594000000E+02  0.51100000000E-03 0. -1.
    9900012    2    1    2    0    0  0.10803580063E+02 -0.29497525628E+02 -0.54680998358E+01  0.59301929747E+02  0.49999973956E+02 0.  0.
        -12    1    1    2    0    0 -0.10803580063E+02  0.29497525628E+02  0.54680998358E+01  0.31886070253E+02  0.00000000000E+00 0.  1.
         11    1    3    3    0    0  0.54088829194E+01  0.31100872228E+01  0.73304256261E+01  0.96262036696E+01  0.51100000000E-03 0. -1.
        -11    1    3    3    0    0 -0.10750566272E+02 -0.17415290303E+02  0.52041078240E+01  0.21117522346E+02  0.51100000000E-03 0.  1.
         12    1    3    3    0    0  0.16145263416E+02 -0.15192322548E+02 -0.18002633286E+02  0.28558203732E+02  0.00000000000E+00 0. -1.
</event>
<event>
 7    1  0.6515090E-012  0.5930197E+02  0.7816164E-02  0.1266605E+00
        -11   -1    0    0    0    0  0.00000000000E+00  0.00000000000E+00  0.45593999997E+02  0.45594000000E+02  0.51100000000E-03 0. -1.
         11   -1    0    0    0    0 -0.00000000000E+00 -0.00000000000E+00 -0.45593999997E+02  0.45594000000E+02  0.51100000000E-03 0.  1.
    9900012    2    1    2    0    0 -0.41031728181E+01 -0.20624597460E+02  0.23968915771E+02  0.59301969034E+02  0.50000045605E+02 0.  0.
        -12    1    1    2    0    0  0.41031728181E+01  0.20624597460E+02 -0.23968915771E+02  0.31886030966E+02  0.00000000000E+00 0.  1.
         11    1    3    3    0    0 -0.90901375472E+01  0.74784064614E-01  0.18538400995E+02  0.20647239646E+02  0.51100000000E-03 0. -1.
        -11    1    3    3    0    0 -0.12640075142E+02 -0.28861287164E+01 -0.21124348791E+00  0.12967106950E+02  0.51100000000E-03 0.  1.
         12    1    3    3    0    0  0.17627039872E+02 -0.17813252808E+02  0.56417582642E+01  0.25687622438E+02  0.00000000000E+00 0. -1.
</event>
<event>
 7    1  0.6515090E-012  0.5930194E+02  0.7816164E-02  0.1266605E+00
        -11   -1    0    0    0    0  0.00000000000E+00  0.00000000000E+00  0.45593999997E+02  0.45594000000E+02  0.51100000000E-03 0.  1.
         11   -1    0    0    0    0 -0.00000000000E+00 -0.00000000000E+00 -0.45593999997E+02  0.45594000000E+02  0.51100000000E-03 0. -1.
    9900012    2    1    2    0    0 -0.18249855243E+02  0.48984049784E+01 -0.25684025524E+02  0.59301941058E+02  0.49999994584E+02 0.  0.
        -12    1    1    2    0    0  0.18249855243E+02 -0.48984049784E+01  0.25684025524E+02  0.31886058942E+02  0.00000000000E+00 0.  1.
         11    1    3    3    0    0  0.50825093880E+01 -0.81538235426E+00  0.16628464659E+01  0.54094185171E+01  0.51100000000E-03 0.  1.
        -11    1    3    3    0    0 -0.24433788898E+02 -0.91674242926E+01 -0.28841656892E+02  0.38895923701E+02  0.51100000000E-03 0. -1.
         12    1    3    3    0    0  0.11014242667E+01  0.14881211625E+02  0.14947849013E+01  0.14996598839E+02  0.00000000000E+00 0. -1.
</event>
<event>
 7    1  0.6515090E-012  0.5930194E+02  0.7816164E-02  0.1266605E+00
        -11   -1    0    0    0    0  0.00000000000E+00  0.00000000000E+00  0.45593999997E+02  0.45594000000E+02  0.51100000000E-03 0.  1.
         11   -1    0    0    0    0 -0.00000000000E+00 -0.00000000000E+00 -0.45593999997E+02  0.45594000000E+02  0.51100000000E-03 0. -1.
    9900012    2    1    2    0    0 -0.28392113598E+02  0.11495794481E+02 -0.88575045313E+01  0.59301940478E+02  0.49999993525E+02 0.  0.
        -12    1    1    2    0    0  0.28392113598E+02 -0.11495794481E+02  0.88575045313E+01  0.31886059522E+02  0.00000000000E+00 0.  1.
         11    1    3    3    0    0 -0.16998884615E+02  0.10384782110E+02 -0.17336868979E+02  0.26407817098E+02  0.51100000000E-03 0. -1.
        -11    1    3    3    0    0 -0.86462203334E+01 -0.42684714933E+01 -0.97363542602E+01  0.13703049642E+02  0.51100000000E-03 0.  1.
        -12    1    3    3    0    0 -0.27470086504E+01  0.53794838645E+01  0.18215718708E+02  0.19191073738E+02  0.00000000000E+00 0.  1.
</event>
<event>
 7    1  0.6515090E-012  0.5930223E+02  0.7816164E-02  0.1266604E+00
        -11   -1    0    0    0    0  0.00000000000E+00  0.00000000000E+00  0.45593999997E+02  0.45594000000E+02  0.51100000000E-03 0.  1.
         11   -1    0    0    0    0 -0.00000000000E+00 -0.00000000000E+00 -0.45593999997E+02  0.45594000000E+02  0.51100000000E-03 0. -1.
    9900012    2    1    2    0    0 -0.99716527980E+01  0.22540799384E+02  0.20228219592E+02  0.59302229439E+02  0.50000520519E+02 0.  0.
        -12    1    1    2    0    0  0.99716527980E+01 -0.22540799384E+02 -0.20228219592E+02  0.31885770561E+02  0.00000000000E+00 0.  1.
         11    1    3    3    0    0  0.13217912087E+02  0.12595493936E+01  0.54865258166E+00  0.13289119028E+02  0.51100000000E-03 0. -1.
        -11    1    3    3    0    0  0.62600883926E+01  0.35326256729E+01  0.28726240789E+01  0.77408087554E+01  0.51100000000E-03 0.  1.
        -12    1    3    3    0    0 -0.29449653278E+02  0.17748624317E+02  0.16806942932E+02  0.38272301656E+02  0.00000000000E+00 0.  1.
</event>
<event>
 7    1  0.6515090E-012  0.5930198E+02  0.7816164E-02  0.1266605E+00
        -11   -1    0    0    0    0  0.00000000000E+00  0.00000000000E+00  0.45593999997E+02  0.45594000000E+02  0.51100000000E-03 0. -1.
         11   -1    0    0    0    0 -0.00000000000E+00 -0.00000000000E+00 -0.45593999997E+02  0.45594000000E+02  0.51100000000E-03 0.  1.
    9900012    2    1    2    0    0 -0.17285966991E+02  0.16083946679E+02  0.21429430820E+02  0.59301976403E+02  0.50000059044E+02 0.  0.
        -12    1    1    2    0    0  0.17285966991E+02 -0.16083946679E+02 -0.21429430820E+02  0.31886023597E+02  0.00000000000E+00 0.  1.
         11    1    3    3    0    0 -0.67854049343E+01  0.67793900650E+01  0.84129672646E+01  0.12758521397E+02  0.51100000000E-03 0.  1.
        -11    1    3    3    0    0 -0.23611975329E+02  0.12942662215E+02  0.17619747021E+02  0.32179082795E+02  0.51100000000E-03 0. -1.
        -12    1    3    3    0    0  0.13111413272E+02 -0.36381056016E+01 -0.46032834660E+01  0.14364372211E+02  0.00000000000E+00 0.  1.
</event>
<event>
 7    1  0.6515090E-012  0.5930197E+02  0.7816164E-02  0.1266605E+00
        -11   -1    0    0    0    0  0.00000000000E+00  0.00000000000E+00  0.45593999997E+02  0.45594000000E+02  0.51100000000E-03 0. -1.
         11   -1    0    0    0    0 -0.00000000000E+00 -0.00000000000E+00 -0.45593999997E+02  0.45594000000E+02  0.51100000000E-03 0.  1.
    9900012    2    1    2    0    0 -0.27026233116E+02  0.16868806033E+02 -0.13210753039E+01  0.59301966484E+02  0.50000040955E+02 0.  0.
        -12    1    1    2    0    0  0.27026233116E+02 -0.16868806033E+02  0.13210753039E+01  0.31886033516E+02  0.00000000000E+00 0.  1.
         11    1    3    3    0    0 -0.50198988957E+01  0.43725947857E+01  0.92136089879E+00  0.67207050412E+01  0.51100000000E-03 0. -1.
        -11    1    3    3    0    0 -0.95065800050E+01  0.20925394786E+02 -0.19158773854E+02  0.29921661488E+02  0.51100000000E-03 0.  1.
         12    1    3    3    0    0 -0.12499754215E+02 -0.84291835387E+01  0.16916337652E+02  0.22659599955E+02  0.00000000000E+00 0. -1.
</event>
<event>
 7    1  0.6515090E-012  0.5930196E+02  0.7816164E-02  0.1266605E+00
        -11   -1    0    0    0    0  0.00000000000E+00  0.00000000000E+00  0.45593999997E+02  0.45594000000E+02  0.51100000000E-03 0.  1.
         11   -1    0    0    0    0 -0.00000000000E+00 -0.00000000000E+00 -0.45593999997E+02  0.45594000000E+02  0.51100000000E-03 0. -1.
    9900012    2    1    2    0    0 -0.17576744400E+02 -0.50190504977E+01 -0.26126359825E+02  0.59301960903E+02  0.50000030776E+02 0.  0.
        -12    1    1    2    0    0  0.17576744400E+02  0.50190504977E+01  0.26126359825E+02  0.31886039097E+02  0.00000000000E+00 0.  1.
         11    1    3    3    0    0  0.80832265322E+01 -0.27561301158E+01  0.12062420887E+01  0.86249536012E+01  0.51100000000E-03 0.  1.
        -11    1    3    3    0    0  0.36682988388E+01  0.60988931546E+01 -0.17078759015E+02  0.18502349144E+02  0.51100000000E-03 0. -1.
         12    1    3    3    0    0 -0.29328269771E+02 -0.83618135365E+01 -0.10253842898E+02  0.32174658158E+02  0.00000000000E+00 0. -1.
</event>
<event>
 7    1  0.6515090E-012  0.5930196E+02  0.7816164E-02  0.1266605E+00
        -11   -1    0    0    0    0  0.00000000000E+00  0.00000000000E+00  0.45593999997E+02  0.45594000000E+02  0.51100000000E-03 0.  1.
         11   -1    0    0    0    0 -0.00000000000E+00 -0.00000000000E+00 -0.45593999997E+02  0.45594000000E+02  0.51100000000E-03 0. -1.
    9900012    2    1    2    0    0 -0.50720717073E+01 -0.16366015863E+02 -0.26891394120E+02  0.59301961295E+02  0.50000031490E+02 0.  0.
        -12    1    1    2    0    0  0.50720717073E+01  0.16366015863E+02  0.26891394120E+02  0.31886038705E+02  0.00000000000E+00 0.  1.
         11    1    3    3    0    0 -0.11676469426E+02 -0.80875780754E+01 -0.22111505479E+02  0.26280554259E+02  0.51100000000E-03 0. -1.
        -11    1    3    3    0    0 -0.95734016661E+01 -0.22741075387E+01 -0.10925751961E+02  0.14703524772E+02  0.51100000000E-03 0.  1.
        -12    1    3    3    0    0  0.16177799384E+02 -0.60043302491E+01  0.61458633199E+01  0.18317882263E+02  0.00000000000E+00 0.  1.
</event>
<event>
 7    1  0.6515090E-012  0.5930196E+02  0.7816164E-02  0.1266605E+00
        -11   -1    0    0    0    0  0.00000000000E+00  0.00000000000E+00  0.45593999997E+02  0.45594000000E+02  0.51100000000E-03 0.  1.
         11   -1    0    0    0    0 -0.00000000000E+00 -0.00000000000E+00 -0.45593999997E+02  0.45594000000E+02  0.51100000000E-03 0. -1.
    9900012    2    1    2    0    0  0.22742494609E+02 -0.26400683737E+01 -0.22192981447E+02  0.59301961558E+02  0.50000031971E+02 0.  0.
        -12    1    1    2    0    0 -0.22742494609E+02  0.26400683737E+01  0.22192981447E+02  0.31886038442E+02  0.00000000000E+00 0.  1.
         11    1    3    3    0    0 -0.38401007614E+01 -0.46268096274E+01 -0.15936219468E+02  0.17032816338E+02  0.51100000000E-03 0.  1.
        -11    1    3    3    0    0 -0.65557988859E+01 -0.42874654776E+01 -0.29885295611E+01  0.83840424887E+01  0.51100000000E-03 0. -1.
         12    1    3    3    0    0  0.33138394256E+02  0.62742067313E+01 -0.32682324169E+01  0.33885102731E+02  0.00000000000E+00 0. -1.
</event>
<event>
 7    1  0.6515090E-012  0.5930197E+02  0.7816164E-02  0.1266605E+00
        -11   -1    0    0    0    0  0.00000000000E+00  0.00000000000E+00  0.45593999997E+02  0.45594000000E+02  0.51100000000E-03 0. -1.
         11   -1    0    0    0    0 -0.00000000000E+00 -0.00000000000E+00 -0.45593999997E+02  0.45594000000E+02  0.51100000000E-03 0.  1.
    9900012    2    1    2    0    0 -0.27787628048E+02 -0.13401999311E+02  0.80593536738E+01  0.59301967953E+02  0.50000043634E+02 0.  0.
        -12    1    1    2    0    0  0.27787628048E+02  0.13401999311E+02 -0.80593536738E+01  0.31886032047E+02  0.00000000000E+00 0.  1.
         11    1    3    3    0    0 -0.78767823173E+01  0.94532635205E+01  0.29259475775E+01  0.12647887584E+02  0.51100000000E-03 0. -1.
        -11    1    3    3    0    0 -0.15749040081E+02 -0.78461745167E+01  0.18931689353E+02  0.25845765224E+02  0.51100000000E-03 0.  1.
        -12    1    3    3    0    0 -0.41618056504E+01 -0.15009088314E+02 -0.13798283257E+02  0.20808315144E+02  0.00000000000E+00 0.  1.
</event>
<event>
 7    1  0.6515090E-012  0.5930195E+02  0.7816164E-02  0.1266605E+00
        -11   -1    0    0    0    0  0.00000000000E+00  0.00000000000E+00  0.45593999997E+02  0.45594000000E+02  0.51100000000E-03 0.  1.
         11   -1    0    0    0    0 -0.00000000000E+00 -0.00000000000E+00 -0.45593999997E+02  0.45594000000E+02  0.51100000000E-03 0. -1.
    9900012    2    1    2    0    0  0.30376963314E+02  0.80002907744E+01 -0.54731717683E+01  0.59301950357E+02  0.50000011542E+02 0.  0.
        -12    1    1    2    0    0 -0.30376963314E+02 -0.80002907744E+01  0.54731717683E+01  0.31886049643E+02  0.00000000000E+00 0.  1.
         11    1    3    3    0    0  0.26753648718E+02 -0.71208960620E+01 -0.15798151894E+01  0.27730140583E+02  0.51100000000E-03 0. -1.
        -11    1    3    3    0    0  0.34660479514E+01 -0.76829639042E+01  0.49615917239E-01  0.84287534520E+01  0.51100000000E-03 0.  1.
        -12    1    3    3    0    0  0.15726664435E+00  0.22804150741E+02 -0.39429724962E+01  0.23143056322E+02  0.00000000000E+00 0.  1.
</event>
<event>
 7    1  0.6515090E-012  0.5930194E+02  0.7816164E-02  0.1266605E+00
        -11   -1    0    0    0    0  0.00000000000E+00  0.00000000000E+00  0.45593999997E+02  0.45594000000E+02  0.51100000000E-03 0. -1.
         11   -1    0    0    0    0 -0.00000000000E+00 -0.00000000000E+00 -0.45593999997E+02  0.45594000000E+02  0.51100000000E-03 0.  1.
    9900012    2    1    2    0    0 -0.17681553148E+01 -0.11589657277E+02  0.29652562554E+02  0.59301937292E+02  0.49999987715E+02 0.  0.
        -12    1    1    2    0    0  0.17681553148E+01  0.11589657277E+02 -0.29652562554E+02  0.31886062708E+02  0.00000000000E+00 0.  1.
         11    1    3    3    0    0 -0.96457951025E+01  0.66508598486E+01  0.25351456863E+02  0.27927972809E+02  0.51100000000E-03 0. -1.
        -11    1    3    3    0    0  0.11328972800E+02 -0.76836870166E+01  0.11717305104E+02  0.18018876492E+02  0.51100000000E-03 0.  1.
         12    1    3    3    0    0 -0.34513330127E+01 -0.10556830109E+02 -0.74161994127E+01  0.13355087991E+02  0.00000000000E+00 0. -1.
</event>
<event>
 7    1  0.6515090E-012  0.5930196E+02  0.7816164E-02  0.1266605E+00
        -11   -1    0    0    0    0  0.00000000000E+00  0.00000000000E+00  0.45593999997E+02  0.45594000000E+02  0.51100000000E-03 0. -1.
         11   -1    0    0    0    0 -0.00000000000E+00 -0.00000000000E+00 -0.45593999997E+02  0.45594000000E+02  0.51100000000E-03 0.  1.
    9900012    2    1    2    0    0  0.11788710488E+02  0.29188468098E+02 -0.50773099740E+01  0.59301961653E+02  0.50000032145E+02 0.  0.
        -12    1    1    2    0    0 -0.11788710488E+02 -0.29188468098E+02  0.50773099740E+01  0.31886038347E+02  0.00000000000E+00 0.  1.
         11    1    3    3    0    0 -0.64116507325E+01  0.11344019325E+02  0.13520656070E+02  0.18777757598E+02  0.51100000000E-03 0. -1.
        -11    1    3    3    0    0 -0.14949157354E+01  0.80640403632E+01 -0.16510557395E+02  0.18435347184E+02  0.51100000000E-03 0.  1.
        -12    1    3    3    0    0  0.19695276956E+02  0.97804084100E+01 -0.20874086495E+01  0.22088856872E+02  0.00000000000E+00 0.  1.
</event>
<event>
 7    1  0.6515090E-012  0.5930194E+02  0.7816164E-02  0.1266605E+00
        -11   -1    0    0    0    0  0.00000000000E+00  0.00000000000E+00  0.45593999997E+02  0.45594000000E+02  0.51100000000E-03 0.  1.
         11   -1    0    0    0    0 -0.00000000000E+00 -0.00000000000E+00 -0.45593999997E+02  0.45594000000E+02  0.51100000000E-03 0. -1.
    9900012    2    1    2    0    0 -0.28954684927E+02 -0.37379781581E+01 -0.12820867122E+02  0.59301938881E+02  0.49999990613E+02 0.  0.
        -12    1    1    2    0    0  0.28954684927E+02  0.37379781581E+01  0.12820867122E+02  0.31886061119E+02  0.00000000000E+00 0.  1.
         11    1    3    3    0    0 -0.31421384209E+01  0.12905207650E+02  0.48984044508E+01  0.14156686928E+02  0.51100000000E-03 0. -1.
        -11    1    3    3    0    0 -0.13469944764E+00 -0.33104158775E+01  0.65767565611E+01  0.73641512986E+01  0.51100000000E-03 0.  1.
        -12    1    3    3    0    0 -0.25677847058E+02 -0.13332769931E+02 -0.24296028134E+02  0.37781100655E+02  0.00000000000E+00 0.  1.
</event>
<event>
 7    1  0.6515090E-012  0.5930190E+02  0.7816164E-02  0.1266605E+00
        -11   -1    0    0    0    0  0.00000000000E+00  0.00000000000E+00  0.45593999997E+02  0.45594000000E+02  0.51100000000E-03 0. -1.
         11   -1    0    0    0    0 -0.00000000000E+00 -0.00000000000E+00 -0.45593999997E+02  0.45594000000E+02  0.51100000000E-03 0.  1.
    9900012    2    1    2    0    0  0.74015921642E+00 -0.28504401680E+02  0.14271459774E+02  0.59301900915E+02  0.49999921373E+02 0.  0.
        -12    1    1    2    0    0 -0.74015921642E+00  0.28504401680E+02 -0.14271459774E+02  0.31886099085E+02  0.00000000000E+00 0.  1.
         11    1    3    3    0    0  0.69353728052E+01 -0.55669464685E+01 -0.86409337938E+01  0.12399839758E+02  0.51100000000E-03 0. -1.
        -11    1    3    3    0    0 -0.34511998273E+01 -0.30498160128E+02  0.11155702612E+02  0.32657284830E+02  0.51100000000E-03 0.  1.
        -12    1    3    3    0    0 -0.27440137615E+01  0.75607049170E+01  0.11756690956E+02  0.14244776327E+02  0.00000000000E+00 0.  1.
</event>
<event>
 7    1  0.6515090E-012  0.5930193E+02  0.7816164E-02  0.1266605E+00
        -11   -1    0    0    0    0  0.00000000000E+00  0.00000000000E+00  0.45593999997E+02  0.45594000000E+02  0.51100000000E-03 0. -1.
         11   -1    0    0    0    0 -0.00000000000E+00 -0.00000000000E+00 -0.45593999997E+02  0.45594000000E+02  0.51100000000E-03 0.  1.
    9900012    2    1    2    0    0  0.15642340567E+02 -0.18954847439E+02  0.20316303403E+02  0.59301933391E+02  0.49999980601E+02 0.  0.
        -12    1    1    2    0    0 -0.15642340567E+02  0.18954847439E+02 -0.20316303403E+02  0.31886066609E+02  0.00000000000E+00 0.  1.
         11    1    3    3    0    0  0.39771595284E+01  0.11293875673E+02  0.36310269124E+00  0.11979201537E+02  0.51100000000E-03 0. -1.
        -11    1    3    3    0    0 -0.19629339967E+01  0.55291702554E-01 -0.52584731263E+01  0.56131726260E+01  0.51100000000E-03 0.  1.
         12    1    3    3    0    0  0.13628115036E+02 -0.30304014815E+02  0.25211673838E+02  0.41709559228E+02  0.00000000000E+00 0. -1.
</event>
<event>
 7    1  0.6515090E-012  0.5930192E+02  0.7816164E-02  0.1266605E+00
        -11   -1    0    0    0    0  0.00000000000E+00  0.00000000000E+00  0.45593999997E+02  0.45594000000E+02  0.51100000000E-03 0.  1.
         11   -1    0    0    0    0 -0.00000000000E+00 -0.00000000000E+00 -0.45593999997E+02  0.45594000000E+02  0.51100000000E-03 0. -1.
    9900012    2    1    2    0    0 -0.14323983645E+02  0.19094714591E+02 -0.21140888709E+02  0.59301924541E+02  0.49999964461E+02 0.  0.
        -12    1    1    2    0    0  0.14323983645E+02 -0.19094714591E+02  0.21140888709E+02  0.31886075459E+02  0.00000000000E+00 0.  1.
         11    1    3    3    0    0 -0.68308184487E+01  0.21620761569E+01 -0.98063073599E+01  0.12144888566E+02  0.51100000000E-03 0. -1.
        -11    1    3    3    0    0 -0.23600568187E+02  0.29413399922E+01 -0.99375197043E+01  0.25775814203E+02  0.51100000000E-03 0.  1.
         12    1    3    3    0    0  0.16107402991E+02  0.13991298442E+02 -0.13970616447E+01  0.21381221772E+02  0.00000000000E+00 0. -1.
</event>
<event>
 7    1  0.6515090E-012  0.5930206E+02  0.7816164E-02  0.1266604E+00
        -11   -1    0    0    0    0  0.00000000000E+00  0.00000000000E+00  0.45593999997E+02  0.45594000000E+02  0.51100000000E-03 0. -1.
         11   -1    0    0    0    0 -0.00000000000E+00 -0.00000000000E+00 -0.45593999997E+02  0.45594000000E+02  0.51100000000E-03 0.  1.
    9900012    2    1    2    0    0  0.24754498040E+02 -0.20092526543E+02  0.46732626825E+00  0.59302059683E+02  0.50000210926E+02 0.  0.
        -12    1    1    2    0    0 -0.24754498040E+02  0.20092526543E+02 -0.46732626825E+00  0.31885940317E+02  0.00000000000E+00 0.  1.
         11    1    3    3    0    0 -0.40777484832E+01  0.67469500274E+00  0.94186729981E+01  0.10285652500E+02  0.51100000000E-03 0. -1.
        -11    1    3    3    0    0 -0.43100788228E+01 -0.12127322855E+01  0.62104090717E+01  0.76561530911E+01  0.51100000000E-03 0.  1.
         12    1    3    3    0    0  0.33142325346E+02 -0.19554489260E+02 -0.15161755802E+02  0.41360254092E+02  0.00000000000E+00 0. -1.
</event>
<event>
 7    1  0.6515090E-012  0.5930196E+02  0.7816164E-02  0.1266605E+00
        -11   -1    0    0    0    0  0.00000000000E+00  0.00000000000E+00  0.45593999997E+02  0.45594000000E+02  0.51100000000E-03 0. -1.
         11   -1    0    0    0    0 -0.00000000000E+00 -0.00000000000E+00 -0.45593999997E+02  0.45594000000E+02  0.51100000000E-03 0.  1.
    9900012    2    1    2    0    0  0.95209947914E+01  0.23801870041E+02  0.18961566862E+02  0.59301962662E+02  0.50000033985E+02 0.  0.
        -12    1    1    2    0    0 -0.95209947914E+01 -0.23801870041E+02 -0.18961566862E+02  0.31886037338E+02  0.00000000000E+00 0.  1.
         11    1    3    3    0    0  0.56082174894E+01 -0.10591373402E+02 -0.42944170542E+01  0.12730723155E+02  0.51100000000E-03 0. -1.
        -11    1    3    3    0    0 -0.53928967044E+01  0.11315370761E+02  0.16622277592E+02  0.20818767085E+02  0.51100000000E-03 0.  1.
        -12    1    3    3    0    0  0.93056740065E+01  0.23077872682E+02  0.66337063237E+01  0.25752472422E+02  0.00000000000E+00 0.  1.
</event>
<event>
 7    1  0.6515090E-012  0.5930195E+02  0.7816164E-02  0.1266605E+00
        -11   -1    0    0    0    0  0.00000000000E+00  0.00000000000E+00  0.45593999997E+02  0.45594000000E+02  0.51100000000E-03 0. -1.
         11   -1    0    0    0    0 -0.00000000000E+00 -0.00000000000E+00 -0.45593999997E+02  0.45594000000E+02  0.51100000000E-03 0.  1.
    9900012    2    1    2    0    0 -0.19384249129E+02 -0.75133003926E+01  0.24176883123E+02  0.59301945452E+02  0.50000002598E+02 0.  0.
        -12    1    1    2    0    0  0.19384249129E+02  0.75133003926E+01 -0.24176883123E+02  0.31886054548E+02  0.00000000000E+00 0.  1.
         11    1    3    3    0    0 -0.24130226354E+02  0.51131799866E+01  0.14840158718E+02  0.28786155431E+02  0.51100000000E-03 0. -1.
        -11    1    3    3    0    0  0.61529561569E+01  0.70084977343E+01  0.37616169512E+01  0.10056225550E+02  0.51100000000E-03 0.  1.
         12    1    3    3    0    0 -0.14069789316E+01 -0.19634978113E+02  0.55751074539E+01  0.20459564471E+02  0.00000000000E+00 0. -1.
</event>
<event>
 7    1  0.6515090E-012  0.5930193E+02  0.7816164E-02  0.1266605E+00
        -11   -1    0    0    0    0  0.00000000000E+00  0.00000000000E+00  0.45593999997E+02  0.45594000000E+02  0.51100000000E-03 0.  1.
         11   -1    0    0    0    0 -0.00000000000E+00 -0.00000000000E+00 -0.45593999997E+02  0.45594000000E+02  0.51100000000E-03 0. -1.
    9900012    2    1    2    0    0 -0.53189818698E+01 -0.52687711912E+01 -0.30994676176E+02  0.59301929856E+02  0.49999974154E+02 0.  0.
        -12    1    1    2    0    0  0.53189818698E+01  0.52687711912E+01  0.30994676176E+02  0.31886070144E+02  0.00000000000E+00 0.  1.
         11    1    3    3    0    0  0.28145110641E+01  0.39218005901E+00 -0.32403349632E+02  0.32527716572E+02  0.51100000000E-03 0. -1.
        -11    1    3    3    0    0  0.63847298320E+01 -0.87215664548E+01 -0.31393585874E+01  0.11255490618E+02  0.51100000000E-03 0.  1.
         12    1    3    3    0    0 -0.14518222766E+02  0.30606152046E+01  0.45480320442E+01  0.15518722666E+02  0.00000000000E+00 0. -1.
</event>
<event>
 7    1  0.6515090E-012  0.5930200E+02  0.7816164E-02  0.1266605E+00
        -11   -1    0    0    0    0  0.00000000000E+00  0.00000000000E+00  0.45593999997E+02  0.45594000000E+02  0.51100000000E-03 0. -1.
         11   -1    0    0    0    0 -0.00000000000E+00 -0.00000000000E+00 -0.45593999997E+02  0.45594000000E+02  0.51100000000E-03 0.  1.
    9900012    2    1    2    0    0 -0.23212167798E+02  0.21680386708E+02 -0.28058691049E+01  0.59302003024E+02  0.50000107595E+02 0.  0.
        -12    1    1    2    0    0  0.23212167798E+02 -0.21680386708E+02  0.28058691049E+01  0.31885996976E+02  0.00000000000E+00 0.  1.
         11    1    3    3    0    0 -0.66988865539E+01 -0.40834455034E+01  0.14704563001E+01  0.79819703227E+01  0.51100000000E-03 0. -1.
        -11    1    3    3    0    0 -0.10285504376E+02 -0.24580493664E+00 -0.18395427961E+02  0.21077091603E+02  0.51100000000E-03 0.  1.
         12    1    3    3    0    0 -0.62277768685E+01  0.26009637148E+02  0.14119102556E+02  0.30242941098E+02  0.00000000000E+00 0. -1.
</event>
<event>
 7    1  0.6515090E-012  0.5930196E+02  0.7816164E-02  0.1266605E+00
        -11   -1    0    0    0    0  0.00000000000E+00  0.00000000000E+00  0.45593999997E+02  0.45594000000E+02  0.51100000000E-03 0. -1.
         11   -1    0    0    0    0 -0.00000000000E+00 -0.00000000000E+00 -0.45593999997E+02  0.45594000000E+02  0.51100000000E-03 0.  1.
    9900012    2    1    2    0    0 -0.55740691735E+01  0.18980744110E+02  0.25007614223E+02  0.59301958176E+02  0.50000025802E+02 0.  0.
        -12    1    1    2    0    0  0.55740691735E+01 -0.18980744110E+02 -0.25007614223E+02  0.31886041824E+02  0.00000000000E+00 0.  1.
         11    1    3    3    0    0  0.52421995390E+01 -0.19800874615E+01  0.23810312500E+02  0.24460833672E+02  0.51100000000E-03 0. -1.
        -11    1    3    3    0    0 -0.17124333469E+02  0.74015737236E+01  0.51873233900E+01  0.19363223248E+02  0.51100000000E-03 0.  1.
        -12    1    3    3    0    0  0.63080647565E+01  0.13559257848E+02 -0.39900216669E+01  0.15477901255E+02  0.00000000000E+00 0.  1.
</event>
<event>
 7    1  0.6515090E-012  0.5930198E+02  0.7816164E-02  0.1266605E+00
        -11   -1    0    0    0    0  0.00000000000E+00  0.00000000000E+00  0.45593999997E+02  0.45594000000E+02  0.51100000000E-03 0.  1.
         11   -1    0    0    0    0 -0.00000000000E+00 -0.00000000000E+00 -0.45593999997E+02  0.45594000000E+02  0.51100000000E-03 0. -1.
    9900012    2    1    2    0    0  0.17804381854E+02 -0.10523476059E+01 -0.26431323408E+02  0.59301979461E+02  0.50000064622E+02 0.  0.
        -12    1    1    2    0    0 -0.17804381854E+02  0.10523476059E+01  0.26431323408E+02  0.31886020539E+02  0.00000000000E+00 0.  1.
         11    1    3    3    0    0  0.13170480169E+02  0.82893062754E+01 -0.26458304130E+02  0.30695537201E+02  0.51100000000E-03 0. -1.
        -11    1    3    3    0    0 -0.40091847098E+00  0.15064067053E+01 -0.11731544404E+02  0.11834658049E+02  0.51100000000E-03 0.  1.
        -12    1    3    3    0    0  0.50348201567E+01 -0.10848060587E+02  0.11758525125E+02  0.16771784211E+02  0.00000000000E+00 0.  1.
</event>
<event>
 7    1  0.6515090E-012  0.5930196E+02  0.7816164E-02  0.1266605E+00
        -11   -1    0    0    0    0  0.00000000000E+00  0.00000000000E+00  0.45593999997E+02  0.45594000000E+02  0.51100000000E-03 0.  1.
         11   -1    0    0    0    0 -0.00000000000E+00 -0.00000000000E+00 -0.45593999997E+02  0.45594000000E+02  0.51100000000E-03 0. -1.
    9900012    2    1    2    0    0 -0.30669796661E+02  0.46767504189E+01  0.73628237461E+01  0.59301959241E+02  0.50000027746E+02 0.  0.
        -12    1    1    2    0    0  0.30669796661E+02 -0.46767504189E+01 -0.73628237461E+01  0.31886040759E+02  0.00000000000E+00 0.  1.
         11    1    3    3    0    0 -0.70219335871E+01  0.19300457245E+02 -0.35009525287E+01  0.20834391521E+02  0.51100000000E-03 0. -1.
        -11    1    3    3    0    0  0.34504237961E+01  0.63743502415E+00  0.60544939391E+01  0.69977599917E+01  0.51100000000E-03 0.  1.
         12    1    3    3    0    0 -0.27098286870E+02 -0.15261141851E+02  0.48092823358E+01  0.31469807729E+02  0.00000000000E+00 0. -1.
</event>
<event>
 7    1  0.6515090E-012  0.5930194E+02  0.7816164E-02  0.1266605E+00
        -11   -1    0    0    0    0  0.00000000000E+00  0.00000000000E+00  0.45593999997E+02  0.45594000000E+02  0.51100000000E-03 0. -1.
         11   -1    0    0    0    0 -0.00000000000E+00 -0.00000000000E+00 -0.45593999997E+02  0.45594000000E+02  0.51100000000E-03 0.  1.
    9900012    2    1    2    0    0  0.11268208929E+02 -0.21170352469E+02  0.21013439699E+02  0.59301937149E+02  0.49999987455E+02 0.  0.
        -12    1    1    2    0    0 -0.11268208929E+02  0.21170352469E+02 -0.21013439699E+02  0.31886062851E+02  0.00000000000E+00 0.  1.
         11    1    3    3    0    0 -0.13154164891E+01  0.73033484859E+01  0.84215355205E+01  0.11224592662E+02  0.51100000000E-03 0. -1.
        -11    1    3    3    0    0  0.26952093450E+01  0.78016136320E+01 -0.48748038821E+00  0.82684318989E+01  0.51100000000E-03 0.  1.
         12    1    3    3    0    0  0.98884160732E+01 -0.36275314587E+02  0.13079384567E+02  0.39808912588E+02  0.00000000000E+00 0. -1.
</event>
<event>
 7    1  0.6515090E-012  0.5930194E+02  0.7816164E-02  0.1266605E+00
        -11   -1    0    0    0    0  0.00000000000E+00  0.00000000000E+00  0.45593999997E+02  0.45594000000E+02  0.51100000000E-03 0. -1.
         11   -1    0    0    0    0 -0.00000000000E+00 -0.00000000000E+00 -0.45593999997E+02  0.45594000000E+02  0.51100000000E-03 0.  1.
    9900012    2    1    2    0    0  0.24593746720E+02 -0.11297373393E+02  0.16859351331E+02  0.59301941124E+02  0.49999994705E+02 0.  0.
        -12    1    1    2    0    0 -0.24593746720E+02  0.11297373393E+02 -0.16859351331E+02  0.31886058876E+02  0.00000000000E+00 0.  1.
         11    1    3    3    0    0  0.29899891916E+01 -0.16858085488E+02 -0.60401867253E+01  0.18155410699E+02  0.51100000000E-03 0. -1.
        -11    1    3    3    0    0 -0.47143623696E+01  0.25064380047E+01  0.10741651036E+02  0.11995437101E+02  0.51100000000E-03 0.  1.
         12    1    3    3    0    0  0.26318119898E+02  0.30542740903E+01  0.12157887020E+02  0.29151093324E+02  0.00000000000E+00 0. -1.
</event>
<event>
 7    1  0.6515090E-012  0.5930213E+02  0.7816164E-02  0.1266604E+00
        -11   -1    0    0    0    0  0.00000000000E+00  0.00000000000E+00  0.45593999997E+02  0.45594000000E+02  0.51100000000E-03 0. -1.
         11   -1    0    0    0    0 -0.00000000000E+00 -0.00000000000E+00 -0.45593999997E+02  0.45594000000E+02  0.51100000000E-03 0.  1.
    9900012    2    1    2    0    0 -0.22437453222E+02  0.15362345932E+02  0.16651349184E+02  0.59302134648E+02  0.50000347644E+02 0.  0.
        -12    1    1    2    0    0  0.22437453222E+02 -0.15362345932E+02 -0.16651349184E+02  0.31885865352E+02  0.00000000000E+00 0.  1.
         11    1    3    3    0    0  0.11866743097E+02  0.42691277174E+01  0.61306114991E+01  0.14022462010E+02  0.51100000000E-03 0.  1.
        -11    1    3    3    0    0 -0.13045544558E+01  0.10203895518E+02 -0.95285793115E+00  0.10330986621E+02  0.51100000000E-03 0. -1.
        -12    1    3    3    0    0 -0.32999641863E+02  0.88932269614E+00  0.11473595616E+02  0.34948686017E+02  0.00000000000E+00 0.  1.
</event>
<event>
 7    1  0.6515090E-012  0.5930193E+02  0.7816164E-02  0.1266605E+00
        -11   -1    0    0    0    0  0.00000000000E+00  0.00000000000E+00  0.45593999997E+02  0.45594000000E+02  0.51100000000E-03 0.  1.
         11   -1    0    0    0    0 -0.00000000000E+00 -0.00000000000E+00 -0.45593999997E+02  0.45594000000E+02  0.51100000000E-03 0. -1.
    9900012    2    1    2    0    0  0.17743104753E+02  0.67406147143E+01 -0.25621623271E+02  0.59301933575E+02  0.49999980937E+02 0.  0.
        -12    1    1    2    0    0 -0.17743104753E+02 -0.67406147143E+01  0.25621623271E+02  0.31886066425E+02  0.00000000000E+00 0.  1.
         11    1    3    3    0    0 -0.31710410876E+00  0.54296993866E+01  0.39060648211E+01  0.66962327537E+01  0.51100000000E-03 0. -1.
        -11    1    3    3    0    0 -0.31690428531E+01 -0.98867247967E+01  0.42085566598E+01  0.11202772390E+02  0.51100000000E-03 0.  1.
        -12    1    3    3    0    0  0.21229251715E+02  0.11197640124E+02 -0.33736244752E+02  0.41402928431E+02  0.00000000000E+00 0.  1.
</event>
<event>
 7    1  0.6515090E-012  0.5930196E+02  0.7816164E-02  0.1266605E+00
        -11   -1    0    0    0    0  0.00000000000E+00  0.00000000000E+00  0.45593999997E+02  0.45594000000E+02  0.51100000000E-03 0.  1.
         11   -1    0    0    0    0 -0.00000000000E+00 -0.00000000000E+00 -0.45593999997E+02  0.45594000000E+02  0.51100000000E-03 0. -1.
    9900012    2    1    2    0    0  0.31504245435E+02  0.14495068511E+01 -0.47012027691E+01  0.59301955121E+02  0.50000020231E+02 0.  0.
        -12    1    1    2    0    0 -0.31504245435E+02 -0.14495068511E+01  0.47012027691E+01  0.31886044879E+02  0.00000000000E+00 0.  1.
         11    1    3    3    0    0  0.10294462046E+02  0.21569497024E+02  0.50341706446E+01  0.24424619240E+02  0.51100000000E-03 0. -1.
        -11    1    3    3    0    0 -0.23059882923E+01 -0.41396142120E+01  0.24466643356E+00  0.47448761578E+01  0.51100000000E-03 0.  1.
         12    1    3    3    0    0  0.23515771681E+02 -0.15980375961E+02 -0.99800398473E+01  0.30132459723E+02  0.00000000000E+00 0. -1.
</event>
<event>
 7    1  0.6515090E-012  0.5930195E+02  0.7816164E-02  0.1266605E+00
        -11   -1    0    0    0    0  0.00000000000E+00  0.00000000000E+00  0.45593999997E+02  0.45594000000E+02  0.51100000000E-03 0.  1.
         11   -1    0    0    0    0 -0.00000000000E+00 -0.00000000000E+00 -0.45593999997E+02  0.45594000000E+02  0.51100000000E-03 0. -1.
    9900012    2    1    2    0    0 -0.22405720018E+02  0.79745076359E+01  0.21239375058E+02  0.59301951100E+02  0.50000012899E+02 0.  0.
        -12    1    1    2    0    0  0.22405720018E+02 -0.79745076359E+01 -0.21239375058E+02  0.31886048900E+02  0.00000000000E+00 0.  1.
         11    1    3    3    0    0  0.37980380224E+01 -0.10942580237E+02  0.72166336424E+00  0.11605427753E+02  0.51100000000E-03 0. -1.
        -11    1    3    3    0    0  0.38172456877E+01  0.42580783250E+01  0.11886831264E+02  0.13190881450E+02  0.51100000000E-03 0.  1.
         12    1    3    3    0    0 -0.30021003728E+02  0.14659009548E+02  0.86308804302E+01  0.34505641898E+02  0.00000000000E+00 0. -1.
</event>
<event>
 7    1  0.6515090E-012  0.5930199E+02  0.7816164E-02  0.1266605E+00
        -11   -1    0    0    0    0  0.00000000000E+00  0.00000000000E+00  0.45593999997E+02  0.45594000000E+02  0.51100000000E-03 0.  1.
         11   -1    0    0    0    0 -0.00000000000E+00 -0.00000000000E+00 -0.45593999997E+02  0.45594000000E+02  0.51100000000E-03 0. -1.
    9900012    2    1    2    0    0 -0.23373135704E+02 -0.78639384583E+01 -0.20213174571E+02  0.59301993243E+02  0.50000089756E+02 0.  0.
        -12    1    1    2    0    0  0.23373135704E+02  0.78639384583E+01  0.20213174571E+02  0.31886006757E+02  0.00000000000E+00 0.  1.
         11    1    3    3    0    0 -0.80116845121E+01 -0.14960869094E+02 -0.31086516381E+02  0.35417314886E+02  0.51100000000E-03 0. -1.
        -11    1    3    3    0    0 -0.55462482578E+01 -0.34030786903E+01  0.55662744183E+01  0.85630149755E+01  0.51100000000E-03 0.  1.
        -12    1    3    3    0    0 -0.98152029336E+01  0.10500009326E+02  0.53070673916E+01  0.15321663381E+02  0.00000000000E+00 0.  1.
</event>
<event>
 7    1  0.6515090E-012  0.5930195E+02  0.7816164E-02  0.1266605E+00
        -11   -1    0    0    0    0  0.00000000000E+00  0.00000000000E+00  0.45593999997E+02  0.45594000000E+02  0.51100000000E-03 0.  1.
         11   -1    0    0    0    0 -0.00000000000E+00 -0.00000000000E+00 -0.45593999997E+02  0.45594000000E+02  0.51100000000E-03 0. -1.
    9900012    2    1    2    0    0 -0.22023780261E+02 -0.17243114437E+02 -0.15308433198E+02  0.59301952590E+02  0.50000015615E+02 0.  0.
        -12    1    1    2    0    0  0.22023780261E+02  0.17243114437E+02  0.15308433198E+02  0.31886047410E+02  0.00000000000E+00 0.  1.
         11    1    3    3    0    0 -0.72168891031E+01 -0.18805307209E+02 -0.22527887570E+02  0.30219675481E+02  0.51100000000E-03 0. -1.
        -11    1    3    3    0    0  0.63352840746E+01  0.21994701857E+01  0.36379393885E+01  0.76294230882E+01  0.51100000000E-03 0.  1.
        -12    1    3    3    0    0 -0.21142175233E+02 -0.63727741379E+00  0.35815149838E+01  0.21452854021E+02  0.00000000000E+00 0.  1.
</event>
<event>
 7    1  0.6515090E-012  0.5930196E+02  0.7816164E-02  0.1266605E+00
        -11   -1    0    0    0    0  0.00000000000E+00  0.00000000000E+00  0.45593999997E+02  0.45594000000E+02  0.51100000000E-03 0. -1.
         11   -1    0    0    0    0 -0.00000000000E+00 -0.00000000000E+00 -0.45593999997E+02  0.45594000000E+02  0.51100000000E-03 0.  1.
    9900012    2    1    2    0    0 -0.34228273583E+01 -0.78886351201E+01  0.30704608875E+02  0.59301963599E+02  0.50000035694E+02 0.  0.
        -12    1    1    2    0    0  0.34228273583E+01  0.78886351201E+01 -0.30704608875E+02  0.31886036401E+02  0.00000000000E+00 0.  1.
         11    1    3    3    0    0 -0.10607558561E+02  0.66641264098E+01  0.25721281129E+02  0.28609704343E+02  0.51100000000E-03 0. -1.
        -11    1    3    3    0    0  0.55447362432E+00  0.68955871467E+01  0.44705299163E+01  0.82366377298E+01  0.51100000000E-03 0.  1.
         12    1    3    3    0    0  0.66302575784E+01 -0.21448348677E+02  0.51279782961E+00  0.22455621526E+02  0.00000000000E+00 0. -1.
</event>
<event>
 7    1  0.6515090E-012  0.5930197E+02  0.7816164E-02  0.1266605E+00
        -11   -1    0    0    0    0  0.00000000000E+00  0.00000000000E+00  0.45593999997E+02  0.45594000000E+02  0.51100000000E-03 0.  1.
         11   -1    0    0    0    0 -0.00000000000E+00 -0.00000000000E+00 -0.45593999997E+02  0.45594000000E+02  0.51100000000E-03 0. -1.
    9900012    2    1    2    0    0 -0.70748802604E+01  0.22582093354E+02 -0.21370862912E+02  0.59301974023E+02  0.50000054705E+02 0.  0.
        -12    1    1    2    0    0  0.70748802604E+01 -0.22582093354E+02  0.21370862912E+02  0.31886025977E+02  0.00000000000E+00 0.  1.
         11    1    3    3    0    0  0.73217072135E+01  0.71610895639E+00 -0.43584221935E+01  0.85507925268E+01  0.51100000000E-03 0. -1.
        -11    1    3    3    0    0  0.96815795957E+00  0.29535583604E+02 -0.15863709257E+02  0.33540204238E+02  0.51100000000E-03 0.  1.
         12    1    3    3    0    0 -0.15364745434E+02 -0.76695992061E+01 -0.11487314613E+01  0.17210977258E+02  0.00000000000E+00 0. -1.
</event>
<event>
 7    1  0.6515090E-012  0.5930195E+02  0.7816164E-02  0.1266605E+00
        -11   -1    0    0    0    0  0.00000000000E+00  0.00000000000E+00  0.45593999997E+02  0.45594000000E+02  0.51100000000E-03 0.  1.
         11   -1    0    0    0    0 -0.00000000000E+00 -0.00000000000E+00 -0.45593999997E+02  0.45594000000E+02  0.51100000000E-03 0. -1.
    9900012    2    1    2    0    0 -0.25902240997E+02  0.14674630558E+02 -0.11421432926E+02  0.59301952883E+02  0.50000016150E+02 0.  0.
        -12    1    1    2    0    0  0.25902240997E+02 -0.14674630558E+02  0.11421432926E+02  0.31886047117E+02  0.00000000000E+00 0.  1.
         11    1    3    3    0    0 -0.35771787335E+02  0.19814369138E+01 -0.90532535797E+01  0.36952784225E+02  0.51100000000E-03 0. -1.
        -11    1    3    3    0    0 -0.23579115953E+01  0.53238302369E+01 -0.51859689723E+01  0.77972552815E+01  0.51100000000E-03 0.  1.
        -12    1    3    3    0    0  0.12227457933E+02  0.73693634072E+01  0.28177896262E+01  0.14551913377E+02  0.00000000000E+00 0.  1.
</event>
<event>
 7    1  0.6515090E-012  0.5930192E+02  0.7816164E-02  0.1266605E+00
        -11   -1    0    0    0    0  0.00000000000E+00  0.00000000000E+00  0.45593999997E+02  0.45594000000E+02  0.51100000000E-03 0.  1.
         11   -1    0    0    0    0 -0.00000000000E+00 -0.00000000000E+00 -0.45593999997E+02  0.45594000000E+02  0.51100000000E-03 0. -1.
    9900012    2    1    2    0    0 -0.75018314709E+01  0.11290664127E+02 -0.28861136901E+02  0.59301924746E+02  0.49999964835E+02 0.  0.
        -12    1    1    2    0    0  0.75018314709E+01 -0.11290664127E+02  0.28861136901E+02  0.31886075254E+02  0.00000000000E+00 0.  1.
         11    1    3    3    0    0  0.28584038629E+01 -0.57487151541E+01 -0.85177139589E+01  0.10666285666E+02  0.51100000000E-03 0. -1.
        -11    1    3    3    0    0  0.21265138071E+01 -0.11944733162E+02 -0.89738063639E+01  0.15090656454E+02  0.51100000000E-03 0.  1.
        -12    1    3    3    0    0 -0.12486749141E+02  0.28984112443E+02 -0.11369616579E+02  0.33544982626E+02  0.00000000000E+00 0.  1.
</event>
<event>
 7    1  0.6515090E-012  0.5930194E+02  0.7816164E-02  0.1266605E+00
        -11   -1    0    0    0    0  0.00000000000E+00  0.00000000000E+00  0.45593999997E+02  0.45594000000E+02  0.51100000000E-03 0. -1.
         11   -1    0    0    0    0 -0.00000000000E+00 -0.00000000000E+00 -0.45593999997E+02  0.45594000000E+02  0.51100000000E-03 0.  1.
    9900012    2    1    2    0    0 -0.28319170152E+02 -0.11855940353E+02  0.86128993575E+01  0.59301941054E+02  0.49999994577E+02 0.  0.
        -12    1    1    2    0    0  0.28319170152E+02  0.11855940353E+02 -0.86128993575E+01  0.31886058946E+02  0.00000000000E+00 0.  1.
         11    1    3    3    0    0  0.83127118567E-01 -0.89294525513E+01  0.94336448900E+01  0.12989830220E+02  0.51100000000E-03 0. -1.
        -11    1    3    3    0    0  0.16384224205E+01 -0.32893027787E+01  0.12806314669E+02  0.13323124126E+02  0.51100000000E-03 0.  1.
        -12    1    3    3    0    0 -0.30040719691E+02  0.36281497701E+00 -0.13627060202E+02  0.32988986708E+02  0.00000000000E+00 0.  1.
</event>
<event>
 7    1  0.6515090E-012  0.5930195E+02  0.7816164E-02  0.1266605E+00
        -11   -1    0    0    0    0  0.00000000000E+00  0.00000000000E+00  0.45593999997E+02  0.45594000000E+02  0.51100000000E-03 0. -1.
         11   -1    0    0    0    0 -0.00000000000E+00 -0.00000000000E+00 -0.45593999997E+02  0.45594000000E+02  0.51100000000E-03 0.  1.
    9900012    2    1    2    0    0 -0.16687792322E+02 -0.13951058762E+02  0.23315349770E+02  0.59301953082E+02  0.50000016513E+02 0.  0.
        -12    1    1    2    0    0  0.16687792322E+02  0.13951058762E+02 -0.23315349770E+02  0.31886046918E+02  0.00000000000E+00 0.  1.
         11    1    3    3    0    0 -0.12810897829E+02  0.56727740409E+01 -0.78636597509E+01  0.16066630432E+02  0.51100000000E-03 0. -1.
        -11    1    3    3    0    0 -0.32138693023E+01 -0.18099283459E+02  0.80854831101E+01  0.20082033139E+02  0.51100000000E-03 0.  1.
        -12    1    3    3    0    0 -0.66302519058E+00 -0.15245493442E+01  0.23093526411E+02  0.23153289511E+02  0.00000000000E+00 0.  1.
</event>
<event>
 7    1  0.6515090E-012  0.5930205E+02  0.7816164E-02  0.1266604E+00
        -11   -1    0    0    0    0  0.00000000000E+00  0.00000000000E+00  0.45593999997E+02  0.45594000000E+02  0.51100000000E-03 0.  1.
         11   -1    0    0    0    0 -0.00000000000E+00 -0.00000000000E+00 -0.45593999997E+02  0.45594000000E+02  0.51100000000E-03 0. -1.
    9900012    2    1    2    0    0 -0.31868696380E+02  0.76723177259E+00 -0.71519195879E+00  0.59302047716E+02  0.50000189101E+02 0.  0.
        -12    1    1    2    0    0  0.31868696380E+02 -0.76723177259E+00  0.71519195879E+00  0.31885952284E+02  0.00000000000E+00 0.  1.
         11    1    3    3    0    0  0.59900348290E+01  0.11219906253E+01 -0.27119539065E+01  0.66703878798E+01  0.51100000000E-03 0. -1.
        -11    1    3    3    0    0 -0.78971756734E+01 -0.14580707905E+02 -0.74009315863E+01  0.18158640236E+02  0.51100000000E-03 0.  1.
         12    1    3    3    0    0 -0.29961555535E+02  0.14225949052E+02  0.93976935340E+01  0.34473019599E+02  0.00000000000E+00 0. -1.
</event>
<event>
 7    1  0.6515090E-012  0.5930194E+02  0.7816164E-02  0.1266605E+00
        -11   -1    0    0    0    0  0.00000000000E+00  0.00000000000E+00  0.45593999997E+02  0.45594000000E+02  0.51100000000E-03 0. -1.
         11   -1    0    0    0    0 -0.00000000000E+00 -0.00000000000E+00 -0.45593999997E+02  0.45594000000E+02  0.51100000000E-03 0.  1.
    9900012    2    1    2    0    0 -0.53792949000E+01  0.22190794594E+01  0.31350590702E+02  0.59301942473E+02  0.49999997164E+02 0.  0.
        -12    1    1    2    0    0  0.53792949000E+01 -0.22190794594E+01 -0.31350590702E+02  0.31886057527E+02  0.00000000000E+00 0.  1.
         11    1    3    3    0    0  0.14494334176E+01  0.10823269281E+02  0.11414297079E+02  0.15796524721E+02  0.51100000000E-03 0. -1.
        -11    1    3    3    0    0  0.12426680556E+02 -0.11872615363E+02  0.25843363897E+01  0.17379878596E+02  0.51100000000E-03 0.  1.
         12    1    3    3    0    0 -0.19255408873E+02  0.32684255410E+01  0.17351957233E+02  0.26125539156E+02  0.00000000000E+00 0. -1.
</event>
<event>
 7    1  0.6515090E-012  0.5930188E+02  0.7816164E-02  0.1266605E+00
        -11   -1    0    0    0    0  0.00000000000E+00  0.00000000000E+00  0.45593999997E+02  0.45594000000E+02  0.51100000000E-03 0.  1.
         11   -1    0    0    0    0 -0.00000000000E+00 -0.00000000000E+00 -0.45593999997E+02  0.45594000000E+02  0.51100000000E-03 0. -1.
    9900012    2    1    2    0    0  0.27379221920E+02  0.15836787501E+02 -0.40372238263E+01  0.59301877509E+02  0.49999878685E+02 0.  0.
        -12    1    1    2    0    0 -0.27379221920E+02 -0.15836787501E+02  0.40372238263E+01  0.31886122491E+02  0.00000000000E+00 0.  1.
         11    1    3    3    0    0  0.19384932366E+02 -0.53674646476E+01  0.71057307730E+01  0.21332526565E+02  0.51100000000E-03 0. -1.
        -11    1    3    3    0    0  0.10177766325E+02  0.36504564121E+01  0.67999488577E+01  0.12773099237E+02  0.51100000000E-03 0.  1.
         12    1    3    3    0    0 -0.21834767710E+01  0.17553795737E+02 -0.17942903457E+02  0.25196251707E+02  0.00000000000E+00 0. -1.
</event>
<event>
 7    1  0.6515090E-012  0.5930193E+02  0.7816164E-02  0.1266605E+00
        -11   -1    0    0    0    0  0.00000000000E+00  0.00000000000E+00  0.45593999997E+02  0.45594000000E+02  0.51100000000E-03 0. -1.
         11   -1    0    0    0    0 -0.00000000000E+00 -0.00000000000E+00 -0.45593999997E+02  0.45594000000E+02  0.51100000000E-03 0.  1.
    9900012    2    1    2    0    0  0.26198769455E+02  0.18167733883E+02  0.52844338449E+00  0.59301932073E+02  0.49999978198E+02 0.  0.
        -12    1    1    2    0    0 -0.26198769455E+02 -0.18167733883E+02 -0.52844338449E+00  0.31886067927E+02  0.00000000000E+00 0.  1.
         11    1    3    3    0    0 -0.85769577945E+00  0.16233216656E+02 -0.71235570867E+01  0.17748183876E+02  0.51100000000E-03 0. -1.
        -11    1    3    3    0    0  0.42421539736E+01 -0.10509855472E+02 -0.53065381773E+01  0.12514482813E+02  0.51100000000E-03 0.  1.
        -12    1    3    3    0    0  0.22814311261E+02  0.12444372699E+02  0.12958538648E+02  0.29039265385E+02  0.00000000000E+00 0.  1.
</event>
<event>
 7    1  0.6515090E-012  0.5930203E+02  0.7816164E-02  0.1266604E+00
        -11   -1    0    0    0    0  0.00000000000E+00  0.00000000000E+00  0.45593999997E+02  0.45594000000E+02  0.51100000000E-03 0.  1.
         11   -1    0    0    0    0 -0.00000000000E+00 -0.00000000000E+00 -0.45593999997E+02  0.45594000000E+02  0.51100000000E-03 0. -1.
    9900012    2    1    2    0    0 -0.19504936282E+02 -0.17673543426E+02 -0.17997742059E+02  0.59302025092E+02  0.50000147842E+02 0.  0.
        -12    1    1    2    0    0  0.19504936282E+02  0.17673543426E+02  0.17997742059E+02  0.31885974908E+02  0.00000000000E+00 0.  1.
         11    1    3    3    0    0 -0.11995462015E+02 -0.21840176657E+02 -0.14164771536E+01  0.24957781014E+02  0.51100000000E-03 0. -1.
        -11    1    3    3    0    0 -0.41836524847E+01 -0.11194191019E+02 -0.14016809009E+02  0.18419657861E+02  0.51100000000E-03 0.  1.
        -12    1    3    3    0    0 -0.33258217826E+01  0.15360824249E+02 -0.25644558971E+01  0.15924586218E+02  0.00000000000E+00 0.  1.
</event>
<event>
 7    1  0.6515090E-012  0.5930197E+02  0.7816164E-02  0.1266605E+00
        -11   -1    0    0    0    0  0.00000000000E+00  0.00000000000E+00  0.45593999997E+02  0.45594000000E+02  0.51100000000E-03 0.  1.
         11   -1    0    0    0    0 -0.00000000000E+00 -0.00000000000E+00 -0.45593999997E+02  0.45594000000E+02  0.51100000000E-03 0. -1.
    9900012    2    1    2    0    0  0.73093956849E+01 -0.22754995630E+02 -0.21106919949E+02  0.59301966049E+02  0.50000040161E+02 0.  0.
        -12    1    1    2    0    0 -0.73093956849E+01  0.22754995630E+02  0.21106919949E+02  0.31886033951E+02  0.00000000000E+00 0.  1.
         11    1    3    3    0    0 -0.33987090330E+01  0.10259544255E+02 -0.47311117325E+01  0.11798003640E+02  0.51100000000E-03 0. -1.
        -11    1    3    3    0    0  0.14056544597E+02 -0.35713859755E+01 -0.22509175126E+01  0.14676780087E+02  0.51100000000E-03 0.  1.
         12    1    3    3    0    0 -0.33484398796E+01 -0.29443153909E+02 -0.14124890704E+02  0.32827182322E+02  0.00000000000E+00 0. -1.
</event>
<event>
 7    1  0.6515090E-012  0.5930196E+02  0.7816164E-02  0.1266605E+00
        -11   -1    0    0    0    0  0.00000000000E+00  0.00000000000E+00  0.45593999997E+02  0.45594000000E+02  0.51100000000E-03 0. -1.
         11   -1    0    0    0    0 -0.00000000000E+00 -0.00000000000E+00 -0.45593999997E+02  0.45594000000E+02  0.51100000000E-03 0.  1.
    9900012    2    1    2    0    0  0.28753456054E+02  0.13757722033E+02  0.82670299664E+00  0.59301959348E+02  0.50000027940E+02 0.  0.
        -12    1    1    2    0    0 -0.28753456054E+02 -0.13757722033E+02 -0.82670299664E+00  0.31886040652E+02  0.00000000000E+00 0.  1.
         11    1    3    3    0    0  0.95050380214E+01  0.11560388930E+02  0.33304816562E+01  0.15332333428E+02  0.51100000000E-03 0. -1.
        -11    1    3    3    0    0 -0.33583476115E+01  0.77083543646E+01  0.13375603941E+02  0.15798860932E+02  0.51100000000E-03 0.  1.
         12    1    3    3    0    0  0.22606765645E+02 -0.55110212616E+01 -0.15879382601E+02  0.28170764988E+02  0.00000000000E+00 0. -1.
</event>
<event>
 7    1  0.6515090E-012  0.5930194E+02  0.7816164E-02  0.1266605E+00
        -11   -1    0    0    0    0  0.00000000000E+00  0.00000000000E+00  0.45593999997E+02  0.45594000000E+02  0.51100000000E-03 0.  1.
         11   -1    0    0    0    0 -0.00000000000E+00 -0.00000000000E+00 -0.45593999997E+02  0.45594000000E+02  0.51100000000E-03 0. -1.
    9900012    2    1    2    0    0 -0.20573527627E+02 -0.15309577585E+02 -0.18949076026E+02  0.59301942121E+02  0.49999996522E+02 0.  0.
        -12    1    1    2    0    0  0.20573527627E+02  0.15309577585E+02  0.18949076026E+02  0.31886057879E+02  0.00000000000E+00 0.  1.
         11    1    3    3    0    0 -0.76119415344E+01  0.24597860574E+01 -0.48747315810E+01  0.93677750623E+01  0.51100000000E-03 0. -1.
        -11    1    3    3    0    0 -0.37175393539E+01  0.66750375582E+01  0.11213195907E+02  0.13568787269E+02  0.51100000000E-03 0.  1.
        -12    1    3    3    0    0 -0.92440467386E+01 -0.24444401200E+02 -0.25287540352E+02  0.36365379789E+02  0.00000000000E+00 0.  1.
</event>
<event>
 7    1  0.6515090E-012  0.5930196E+02  0.7816164E-02  0.1266605E+00
        -11   -1    0    0    0    0  0.00000000000E+00  0.00000000000E+00  0.45593999997E+02  0.45594000000E+02  0.51100000000E-03 0.  1.
         11   -1    0    0    0    0 -0.00000000000E+00 -0.00000000000E+00 -0.45593999997E+02  0.45594000000E+02  0.51100000000E-03 0. -1.
    9900012    2    1    2    0    0  0.16486126148E+01  0.12745474391E+02 -0.29181411642E+02  0.59301955617E+02  0.50000021135E+02 0.  0.
        -12    1    1    2    0    0 -0.16486126148E+01 -0.12745474391E+02  0.29181411642E+02  0.31886044383E+02  0.00000000000E+00 0.  1.
         11    1    3    3    0    0 -0.30077901315E+01  0.21252365000E+01  0.10569202013E+02  0.11192473503E+02  0.51100000000E-03 0. -1.
        -11    1    3    3    0    0  0.34818425344E+01 -0.76747798467E+01 -0.91680236971E+01  0.12453037055E+02  0.51100000000E-03 0.  1.
         12    1    3    3    0    0  0.11745602120E+01  0.18295017737E+02 -0.30582589958E+02  0.35656445059E+02  0.00000000000E+00 0. -1.
</event>
<event>
 7    1  0.6515090E-012  0.5930196E+02  0.7816164E-02  0.1266605E+00
        -11   -1    0    0    0    0  0.00000000000E+00  0.00000000000E+00  0.45593999997E+02  0.45594000000E+02  0.51100000000E-03 0. -1.
         11   -1    0    0    0    0 -0.00000000000E+00 -0.00000000000E+00 -0.45593999997E+02  0.45594000000E+02  0.51100000000E-03 0.  1.
    9900012    2    1    2    0    0 -0.39738625296E+01  0.18756872760E+02  0.25477594087E+02  0.59301958233E+02  0.50000025907E+02 0.  0.
        -12    1    1    2    0    0  0.39738625296E+01 -0.18756872760E+02 -0.25477594087E+02  0.31886041767E+02  0.00000000000E+00 0.  1.
         11    1    3    3    0    0 -0.13659454799E+02  0.16482270873E+02  0.42305280497E+01  0.21820708659E+02  0.51100000000E-03 0. -1.
        -11    1    3    3    0    0 -0.74331026424E+01  0.78169822343E+01  0.17115341537E+01  0.10921793606E+02  0.51100000000E-03 0.  1.
         12    1    3    3    0    0  0.17118694911E+02 -0.55423803471E+01  0.19535531883E+02  0.26559455968E+02  0.00000000000E+00 0. -1.
</event>
<event>
 7    1  0.6515090E-012  0.5930194E+02  0.7816164E-02  0.1266605E+00
        -11   -1    0    0    0    0  0.00000000000E+00  0.00000000000E+00  0.45593999997E+02  0.45594000000E+02  0.51100000000E-03 0.  1.
         11   -1    0    0    0    0 -0.00000000000E+00 -0.00000000000E+00 -0.45593999997E+02  0.45594000000E+02  0.51100000000E-03 0. -1.
    9900012    2    1    2    0    0 -0.21561938997E+02 -0.48390446993E+01 -0.22986676169E+02  0.59301939594E+02  0.49999991915E+02 0.  0.
        -12    1    1    2    0    0  0.21561938997E+02  0.48390446993E+01  0.22986676169E+02  0.31886060406E+02  0.00000000000E+00 0.  1.
         11    1    3    3    0    0 -0.87342546855E+01 -0.28642210579E+00 -0.83132097896E+01  0.12061455128E+02  0.51100000000E-03 0. -1.
        -11    1    3    3    0    0 -0.11163260436E+02  0.87554971765E+01 -0.26043927285E+02  0.29657431835E+02  0.51100000000E-03 0.  1.
        -12    1    3    3    0    0 -0.16644238747E+01 -0.13308119770E+02  0.11370460905E+02  0.17583052632E+02  0.00000000000E+00 0.  1.
</event>
<event>
 7    1  0.6515090E-012  0.5930196E+02  0.7816164E-02  0.1266605E+00
        -11   -1    0    0    0    0  0.00000000000E+00  0.00000000000E+00  0.45593999997E+02  0.45594000000E+02  0.51100000000E-03 0. -1.
         11   -1    0    0    0    0 -0.00000000000E+00 -0.00000000000E+00 -0.45593999997E+02  0.45594000000E+02  0.51100000000E-03 0.  1.
    9900012    2    1    2    0    0  0.41760562933E+01 -0.23661519519E+02  0.20962167754E+02  0.59301961847E+02  0.50000032499E+02 0.  0.
        -12    1    1    2    0    0 -0.41760562933E+01  0.23661519519E+02 -0.20962167754E+02  0.31886038153E+02  0.00000000000E+00 0.  1.
         11    1    3    3    0    0  0.76260750921E+01 -0.17436950029E+02  0.34387561817E+01  0.19339836916E+02  0.51100000000E-03 0. -1.
        -11    1    3    3    0    0  0.12090834834E+02 -0.58310072847E+00 -0.40658471124E+01  0.12769471659E+02  0.51100000000E-03 0.  1.
         12    1    3    3    0    0 -0.15540853633E+02 -0.56414687618E+01  0.21589258685E+02  0.27192653272E+02  0.00000000000E+00 0. -1.
</event>
<event>
 7    1  0.6515090E-012  0.5930188E+02  0.7816164E-02  0.1266605E+00
        -11   -1    0    0    0    0  0.00000000000E+00  0.00000000000E+00  0.45593999997E+02  0.45594000000E+02  0.51100000000E-03 0.  1.
         11   -1    0    0    0    0 -0.00000000000E+00 -0.00000000000E+00 -0.45593999997E+02  0.45594000000E+02  0.51100000000E-03 0. -1.
    9900012    2    1    2    0    0 -0.23032911721E+02  0.15937890310E+01 -0.21992482465E+02  0.59301882789E+02  0.49999888315E+02 0.  0.
        -12    1    1    2    0    0  0.23032911721E+02 -0.15937890310E+01  0.21992482465E+02  0.31886117211E+02  0.00000000000E+00 0.  1.
         11    1    3    3    0    0 -0.83461342483E+00  0.32354608592E+00 -0.27722658468E+02  0.27737106094E+02  0.51100000000E-03 0. -1.
        -11    1    3    3    0    0  0.38563736344E+01  0.28304549611E+01 -0.23894085462E+00  0.47895914113E+01  0.51100000000E-03 0.  1.
         12    1    3    3    0    0 -0.26054671930E+02 -0.15602120160E+01  0.59691168578E+01  0.26775185284E+02  0.00000000000E+00 0. -1.
</event>
<event>
 7    1  0.6515090E-012  0.5930195E+02  0.7816164E-02  0.1266605E+00
        -11   -1    0    0    0    0  0.00000000000E+00  0.00000000000E+00  0.45593999997E+02  0.45594000000E+02  0.51100000000E-03 0. -1.
         11   -1    0    0    0    0 -0.00000000000E+00 -0.00000000000E+00 -0.45593999997E+02  0.45594000000E+02  0.51100000000E-03 0.  1.
    9900012    2    1    2    0    0  0.28981633435E+02  0.12120445506E+02 -0.54662302917E+01  0.59301953688E+02  0.50000017618E+02 0.  0.
        -12    1    1    2    0    0 -0.28981633435E+02 -0.12120445506E+02  0.54662302917E+01  0.31886046312E+02  0.00000000000E+00 0.  1.
         11    1    3    3    0    0  0.30226439085E+01  0.17200210827E+02 -0.27148840515E+01  0.17673545891E+02  0.51100000000E-03 0. -1.
        -11    1    3    3    0    0  0.76965489272E+01  0.11553965200E+02 -0.84838289123E+01  0.16269798109E+02  0.51100000000E-03 0.  1.
         12    1    3    3    0    0  0.18262440599E+02 -0.16633730522E+02  0.57324826721E+01  0.25358609688E+02  0.00000000000E+00 0. -1.
</event>
<event>
 7    1  0.6515090E-012  0.5930183E+02  0.7816164E-02  0.1266605E+00
        -11   -1    0    0    0    0  0.00000000000E+00  0.00000000000E+00  0.45593999997E+02  0.45594000000E+02  0.51100000000E-03 0.  1.
         11   -1    0    0    0    0 -0.00000000000E+00 -0.00000000000E+00 -0.45593999997E+02  0.45594000000E+02  0.51100000000E-03 0. -1.
    9900012    2    1    2    0    0  0.60007619142E+01 -0.81522778518E+00 -0.31305814241E+02  0.59301831444E+02  0.49999794674E+02 0.  0.
        -12    1    1    2    0    0 -0.60007619142E+01  0.81522778518E+00  0.31305814241E+02  0.31886168556E+02  0.00000000000E+00 0.  1.
         11    1    3    3    0    0  0.15517395519E+02  0.99651787205E+01 -0.30277122516E+02  0.35451353976E+02  0.51100000000E-03 0. -1.
        -11    1    3    3    0    0  0.19140320846E+01 -0.19102146308E+00  0.63318514930E+01  0.66175789841E+01  0.51100000000E-03 0.  1.
        -12    1    3    3    0    0 -0.11430665690E+02 -0.10589385043E+02 -0.73605432174E+01  0.17232898484E+02  0.00000000000E+00 0.  1.
</event>
<event>
 7    1  0.6515090E-012  0.5930184E+02  0.7816164E-02  0.1266605E+00
        -11   -1    0    0    0    0  0.00000000000E+00  0.00000000000E+00  0.45593999997E+02  0.45594000000E+02  0.51100000000E-03 0.  1.
         11   -1    0    0    0    0 -0.00000000000E+00 -0.00000000000E+00 -0.45593999997E+02  0.45594000000E+02  0.51100000000E-03 0. -1.
    9900012    2    1    2    0    0  0.11288441513E+02 -0.29178796704E+02  0.61559857261E+01  0.59301839222E+02  0.49999808859E+02 0.  0.
        -12    1    1    2    0    0 -0.11288441513E+02  0.29178796704E+02 -0.61559857261E+01  0.31886160778E+02  0.00000000000E+00 0.  1.
         11    1    3    3    0    0  0.19751857285E+01 -0.69840498832E+00 -0.18973101617E+01  0.28264667521E+01  0.51100000000E-03 0. -1.
        -11    1    3    3    0    0  0.31940814146E+01  0.11102813620E+02 -0.72032007631E+01  0.13614724671E+02  0.51100000000E-03 0.  1.
        -12    1    3    3    0    0  0.61191743698E+01 -0.39583205336E+02  0.15256496651E+02  0.42860647799E+02  0.00000000000E+00 0.  1.
</event>
<event>
 7    1  0.6515090E-012  0.5930194E+02  0.7816164E-02  0.1266605E+00
        -11   -1    0    0    0    0  0.00000000000E+00  0.00000000000E+00  0.45593999997E+02  0.45594000000E+02  0.51100000000E-03 0.  1.
         11   -1    0    0    0    0 -0.00000000000E+00 -0.00000000000E+00 -0.45593999997E+02  0.45594000000E+02  0.51100000000E-03 0. -1.
    9900012    2    1    2    0    0 -0.10378065603E+02  0.23874954211E+02 -0.18412032620E+02  0.59301943025E+02  0.49999998171E+02 0.  0.
        -12    1    1    2    0    0  0.10378065603E+02 -0.23874954211E+02  0.18412032620E+02  0.31886056975E+02  0.00000000000E+00 0.  1.
         11    1    3    3    0    0 -0.55492901521E+01  0.11903444921E+02  0.32456163216E+01  0.13528512400E+02  0.51100000000E-03 0. -1.
        -11    1    3    3    0    0 -0.14894726890E+02  0.71068569880E+01  0.46859562796E+01  0.17155713098E+02  0.51100000000E-03 0.  1.
        -12    1    3    3    0    0  0.10065951439E+02  0.48646523011E+01 -0.26343605222E+02  0.28617717527E+02  0.00000000000E+00 0.  1.
</event>
<event>
 7    1  0.6515090E-012  0.5930200E+02  0.7816164E-02  0.1266605E+00
        -11   -1    0    0    0    0  0.00000000000E+00  0.00000000000E+00  0.45593999997E+02  0.45594000000E+02  0.51100000000E-03 0. -1.
         11   -1    0    0    0    0 -0.00000000000E+00 -0.00000000000E+00 -0.45593999997E+02  0.45594000000E+02  0.51100000000E-03 0.  1.
    9900012    2    1    2    0    0  0.56408362184E+01  0.14827380412E+02  0.27659479459E+02  0.59301999199E+02  0.50000100620E+02 0.  0.
        -12    1    1    2    0    0 -0.56408362184E+01 -0.14827380412E+02 -0.27659479459E+02  0.31886000801E+02  0.00000000000E+00 0.  1.
         11    1    3    3    0    0  0.36313082269E+01  0.11477673909E+02  0.93681320736E+01  0.15254025587E+02  0.51100000000E-03 0. -1.
        -11    1    3    3    0    0 -0.11652106984E+02  0.63810239499E+01 -0.70944837457E+01  0.15060569833E+02  0.51100000000E-03 0.  1.
        -12    1    3    3    0    0  0.13661634976E+02 -0.30313174466E+01  0.25385831131E+02  0.28987403779E+02  0.00000000000E+00 0.  1.
</event>
<event>
 7    1  0.6515090E-012  0.5930193E+02  0.7816164E-02  0.1266605E+00
        -11   -1    0    0    0    0  0.00000000000E+00  0.00000000000E+00  0.45593999997E+02  0.45594000000E+02  0.51100000000E-03 0.  1.
         11   -1    0    0    0    0 -0.00000000000E+00 -0.00000000000E+00 -0.45593999997E+02  0.45594000000E+02  0.51100000000E-03 0. -1.
    9900012    2    1    2    0    0 -0.14731787238E+02  0.28242004608E+02  0.14438752372E+01  0.59301934780E+02  0.49999983135E+02 0.  0.
        -12    1    1    2    0    0  0.14731787238E+02 -0.28242004608E+02 -0.14438752372E+01  0.31886065220E+02  0.00000000000E+00 0.  1.
         11    1    3    3    0    0  0.39617797780E+01  0.96750009193E+01 -0.80040101524E+01  0.13166834114E+02  0.51100000000E-03 0. -1.
        -11    1    3    3    0    0  0.37585545061E+01  0.20539750023E+02 -0.17764507235E+01  0.20956236313E+02  0.51100000000E-03 0.  1.
        -12    1    3    3    0    0 -0.22452121522E+02 -0.19727463345E+01  0.11224336113E+02  0.25178864353E+02  0.00000000000E+00 0.  1.
</event>
<event>
 7    1  0.6515090E-012  0.5930193E+02  0.7816164E-02  0.1266605E+00
        -11   -1    0    0    0    0  0.00000000000E+00  0.00000000000E+00  0.45593999997E+02  0.45594000000E+02  0.51100000000E-03 0.  1.
         11   -1    0    0    0    0 -0.00000000000E+00 -0.00000000000E+00 -0.45593999997E+02  0.45594000000E+02  0.51100000000E-03 0. -1.
    9900012    2    1    2    0    0  0.25918795907E+02 -0.18464302052E+02 -0.20017752299E+01  0.59301928815E+02  0.49999972256E+02 0.  0.
        -12    1    1    2    0    0 -0.25918795907E+02  0.18464302052E+02  0.20017752299E+01  0.31886071185E+02  0.00000000000E+00 0.  1.
         11    1    3    3    0    0  0.10956665519E+02 -0.12155454535E+02 -0.96357933222E+01  0.18990842727E+02  0.51100000000E-03 0. -1.
        -11    1    3    3    0    0 -0.60234359056E+01 -0.15520694423E+02  0.37552137176E+01  0.17066791315E+02  0.51100000000E-03 0.  1.
         12    1    3    3    0    0  0.20985566294E+02  0.92118469067E+01  0.38788043747E+01  0.23244294773E+02  0.00000000000E+00 0. -1.
</event>
<event>
 7    1  0.6515090E-012  0.5930198E+02  0.7816164E-02  0.1266605E+00
        -11   -1    0    0    0    0  0.00000000000E+00  0.00000000000E+00  0.45593999997E+02  0.45594000000E+02  0.51100000000E-03 0.  1.
         11   -1    0    0    0    0 -0.00000000000E+00 -0.00000000000E+00 -0.45593999997E+02  0.45594000000E+02  0.51100000000E-03 0. -1.
    9900012    2    1    2    0    0  0.20302633032E+02  0.23568229459E+02 -0.70042917469E+01  0.59301977188E+02  0.50000060477E+02 0.  0.
        -12    1    1    2    0    0 -0.20302633032E+02 -0.23568229459E+02  0.70042917469E+01  0.31886022812E+02  0.00000000000E+00 0.  1.
         11    1    3    3    0    0  0.22106532921E+01  0.18587894757E+02 -0.23750472526E+02  0.30240399550E+02  0.51100000000E-03 0. -1.
        -11    1    3    3    0    0  0.11176143065E+02  0.10158875499E+02  0.10275127023E+02  0.18267105978E+02  0.51100000000E-03 0.  1.
        -12    1    3    3    0    0  0.69158366752E+01 -0.51785407971E+01  0.64710537567E+01  0.10794471660E+02  0.00000000000E+00 0.  1.
</event>
<event>
 7    1  0.6515090E-012  0.5930155E+02  0.7816164E-02  0.1266606E+00
        -11   -1    0    0    0    0  0.00000000000E+00  0.00000000000E+00  0.45593999997E+02  0.45594000000E+02  0.51100000000E-03 0.  1.
         11   -1    0    0    0    0 -0.00000000000E+00 -0.00000000000E+00 -0.45593999997E+02  0.45594000000E+02  0.51100000000E-03 0. -1.
    9900012    2    1    2    0    0 -0.16145762782E+01  0.17769137719E+02 -0.26427199080E+02  0.59301545775E+02  0.49999273677E+02 0.  0.
        -12    1    1    2    0    0  0.16145762782E+01 -0.17769137719E+02  0.26427199080E+02  0.31886454225E+02  0.00000000000E+00 0.  1.
         11    1    3    3    0    0 -0.15868813675E+01 -0.42325696047E+01  0.30363342005E+01  0.54453800208E+01  0.51100000000E-03 0. -1.
        -11    1    3    3    0    0 -0.11910509654E+02  0.22241013214E+02 -0.37209184612E+01  0.25502316433E+02  0.51100000000E-03 0.  1.
         12    1    3    3    0    0  0.11882814743E+02 -0.23930589084E+00 -0.25742614820E+02  0.28353849320E+02  0.00000000000E+00 0. -1.
</event>
<event>
 7    1  0.6515090E-012  0.5930195E+02  0.7816164E-02  0.1266605E+00
        -11   -1    0    0    0    0  0.00000000000E+00  0.00000000000E+00  0.45593999997E+02  0.45594000000E+02  0.51100000000E-03 0.  1.
         11   -1    0    0    0    0 -0.00000000000E+00 -0.00000000000E+00 -0.45593999997E+02  0.45594000000E+02  0.51100000000E-03 0. -1.
    9900012    2    1    2    0    0 -0.20810490618E+01 -0.25617630395E+02 -0.18871312887E+02  0.59301949722E+02  0.50000010386E+02 0.  0.
        -12    1    1    2    0    0  0.20810490618E+01  0.25617630395E+02  0.18871312887E+02  0.31886050278E+02  0.00000000000E+00 0.  1.
         11    1    3    3    0    0  0.76991467664E+00  0.22606667158E+01 -0.17280285111E+01  0.29477899189E+01  0.51100000000E-03 0. -1.
        -11    1    3    3    0    0  0.14063882411E+02  0.28551009836E+01  0.46139524465E+01  0.15074247827E+02  0.51100000000E-03 0.  1.
         12    1    3    3    0    0 -0.16914846150E+02 -0.30733398094E+02 -0.21757236822E+02  0.41279911977E+02  0.00000000000E+00 0. -1.
</event>
<event>
 7    1  0.6515090E-012  0.5930194E+02  0.7816164E-02  0.1266605E+00
        -11   -1    0    0    0    0  0.00000000000E+00  0.00000000000E+00  0.45593999997E+02  0.45594000000E+02  0.51100000000E-03 0.  1.
         11   -1    0    0    0    0 -0.00000000000E+00 -0.00000000000E+00 -0.45593999997E+02  0.45594000000E+02  0.51100000000E-03 0. -1.
    9900012    2    1    2    0    0  0.14357196338E+02 -0.25810780083E+02  0.12016468654E+02  0.59301937620E+02  0.49999988313E+02 0.  0.
        -12    1    1    2    0    0 -0.14357196338E+02  0.25810780083E+02 -0.12016468654E+02  0.31886062380E+02  0.00000000000E+00 0.  1.
         11    1    3    3    0    0  0.16730463247E+00 -0.13656367482E+02 -0.16757985409E+01  0.13759820663E+02  0.51100000000E-03 0. -1.
        -11    1    3    3    0    0  0.46487983529E+01 -0.20607786803E+02  0.21862202118E+02  0.30401448728E+02  0.51100000000E-03 0.  1.
         12    1    3    3    0    0  0.95410933529E+01  0.84533742020E+01 -0.81699349232E+01  0.15140668229E+02  0.00000000000E+00 0. -1.
</event>
<event>
 7    1  0.6515090E-012  0.5930197E+02  0.7816164E-02  0.1266605E+00
        -11   -1    0    0    0    0  0.00000000000E+00  0.00000000000E+00  0.45593999997E+02  0.45594000000E+02  0.51100000000E-03 0. -1.
         11   -1    0    0    0    0 -0.00000000000E+00 -0.00000000000E+00 -0.45593999997E+02  0.45594000000E+02  0.51100000000E-03 0.  1.
    9900012    2    1    2    0    0 -0.16051266795E+02 -0.14193943277E+02  0.23613719096E+02  0.59301969814E+02  0.50000047027E+02 0.  0.
        -12    1    1    2    0    0  0.16051266795E+02  0.14193943277E+02 -0.23613719096E+02  0.31886030186E+02  0.00000000000E+00 0.  1.
         11    1    3    3    0    0 -0.36154517210E+01  0.27078400402E+01  0.19979828851E+02  0.20484077963E+02  0.51100000000E-03 0. -1.
        -11    1    3    3    0    0 -0.11736156240E+02 -0.21665784755E+02  0.13313330842E+02  0.28006934333E+02  0.51100000000E-03 0.  1.
        -12    1    3    3    0    0 -0.69965883455E+00  0.47640014378E+01 -0.96794405968E+01  0.10810957518E+02  0.00000000000E+00 0.  1.
</event>
<event>
 7    1  0.6515090E-012  0.5930196E+02  0.7816164E-02  0.1266605E+00
        -11   -1    0    0    0    0  0.00000000000E+00  0.00000000000E+00  0.45593999997E+02  0.45594000000E+02  0.51100000000E-03 0.  1.
         11   -1    0    0    0    0 -0.00000000000E+00 -0.00000000000E+00 -0.45593999997E+02  0.45594000000E+02  0.51100000000E-03 0. -1.
    9900012    2    1    2    0    0  0.19050145134E+02 -0.25516817556E+02 -0.16442632988E+01  0.59301959016E+02  0.50000027336E+02 0.  0.
        -12    1    1    2    0    0 -0.19050145134E+02  0.25516817556E+02  0.16442632988E+01  0.31886040984E+02  0.00000000000E+00 0.  1.
         11    1    3    3    0    0 -0.15520558933E+01  0.50882080058E+01 -0.19971333236E+01  0.56821897169E+01  0.51100000000E-03 0. -1.
        -11    1    3    3    0    0 -0.42368270870E+01 -0.14671151909E+02  0.14352692153E+02  0.20956936188E+02  0.51100000000E-03 0.  1.
         12    1    3    3    0    0  0.24839028114E+02 -0.15933873653E+02 -0.13999822128E+02  0.32662833111E+02  0.00000000000E+00 0. -1.
</event>
<event>
 7    1  0.6515090E-012  0.5930209E+02  0.7816164E-02  0.1266604E+00
        -11   -1    0    0    0    0  0.00000000000E+00  0.00000000000E+00  0.45593999997E+02  0.45594000000E+02  0.51100000000E-03 0. -1.
         11   -1    0    0    0    0 -0.00000000000E+00 -0.00000000000E+00 -0.45593999997E+02  0.45594000000E+02  0.51100000000E-03 0.  1.
    9900012    2    1    2    0    0 -0.77962518054E+01  0.16218409128E+02  0.26322853282E+02  0.59302094936E+02  0.50000275219E+02 0.  0.
        -12    1    1    2    0    0  0.77962518054E+01 -0.16218409128E+02 -0.26322853282E+02  0.31885905064E+02  0.00000000000E+00 0.  1.
         11    1    3    3    0    0 -0.96990481224E+01  0.26772456461E+02  0.17324964972E+02  0.33331522182E+02  0.51100000000E-03 0. -1.
        -11    1    3    3    0    0  0.15787389451E+01  0.12405171275E+01  0.13270694755E+02  0.13421722652E+02  0.51100000000E-03 0.  1.
        -12    1    3    3    0    0  0.32405737196E+00 -0.11794564460E+02 -0.42728064444E+01  0.12548850102E+02  0.00000000000E+00 0.  1.
</event>
<event>
 7    1  0.6515090E-012  0.5930193E+02  0.7816164E-02  0.1266605E+00
        -11   -1    0    0    0    0  0.00000000000E+00  0.00000000000E+00  0.45593999997E+02  0.45594000000E+02  0.51100000000E-03 0. -1.
         11   -1    0    0    0    0 -0.00000000000E+00 -0.00000000000E+00 -0.45593999997E+02  0.45594000000E+02  0.51100000000E-03 0.  1.
    9900012    2    1    2    0    0  0.18294102399E+01  0.54993771824E+01  0.31354930281E+02  0.59301928681E+02  0.49999972011E+02 0.  0.
        -12    1    1    2    0    0 -0.18294102399E+01 -0.54993771824E+01 -0.31354930281E+02  0.31886071319E+02  0.00000000000E+00 0.  1.
         11    1    3    3    0    0  0.21496588773E+01  0.27679692858E+01 -0.74829408042E+00  0.35836617513E+01  0.51100000000E-03 0. -1.
        -11    1    3    3    0    0  0.12051087509E+02 -0.54040685895E+01 -0.62460905308E+01  0.14609802006E+02  0.51100000000E-03 0.  1.
         12    1    3    3    0    0 -0.12371336146E+02  0.81354764860E+01  0.38349314893E+02  0.41108464924E+02  0.00000000000E+00 0. -1.
</event>
<event>
 7    1  0.6515090E-012  0.5930197E+02  0.7816164E-02  0.1266605E+00
        -11   -1    0    0    0    0  0.00000000000E+00  0.00000000000E+00  0.45593999997E+02  0.45594000000E+02  0.51100000000E-03 0. -1.
         11   -1    0    0    0    0 -0.00000000000E+00 -0.00000000000E+00 -0.45593999997E+02  0.45594000000E+02  0.51100000000E-03 0.  1.
    9900012    2    1    2    0    0  0.29268017091E+02 -0.90658069442E+01  0.88268634417E+01  0.59301965468E+02  0.50000039102E+02 0.  0.
        -12    1    1    2    0    0 -0.29268017091E+02  0.90658069442E+01 -0.88268634417E+01  0.31886034532E+02  0.00000000000E+00 0.  1.
         11    1    3    3    0    0  0.23891930198E+01  0.89537002190E+01  0.12491249640E+02  0.15553401838E+02  0.51100000000E-03 0. -1.
        -11    1    3    3    0    0  0.51905310780E+01  0.68417320284E+01 -0.63010797940E+01  0.10651503032E+02  0.51100000000E-03 0.  1.
         12    1    3    3    0    0  0.21688292993E+02 -0.24861239192E+02  0.26366935955E+01  0.33097060598E+02  0.00000000000E+00 0. -1.
</event>
<event>
 7    1  0.6515090E-012  0.5930194E+02  0.7816164E-02  0.1266605E+00
        -11   -1    0    0    0    0  0.00000000000E+00  0.00000000000E+00  0.45593999997E+02  0.45594000000E+02  0.51100000000E-03 0. -1.
         11   -1    0    0    0    0 -0.00000000000E+00 -0.00000000000E+00 -0.45593999997E+02  0.45594000000E+02  0.51100000000E-03 0.  1.
    9900012    2    1    2    0    0 -0.58611755295E+00  0.25533907746E+02  0.19089181899E+02  0.59301939658E+02  0.49999992030E+02 0.  0.
        -12    1    1    2    0    0  0.58611755295E+00 -0.25533907746E+02 -0.19089181899E+02  0.31886060342E+02  0.00000000000E+00 0.  1.
         11    1    3    3    0    0 -0.94389972352E+00  0.10404686582E+02  0.26756665307E+02  0.28723989768E+02  0.51100000000E-03 0. -1.
        -11    1    3    3    0    0 -0.27421620531E+01 -0.44707955696E+00  0.78784106541E+01  0.83539623863E+01  0.51100000000E-03 0.  1.
         12    1    3    3    0    0  0.30999442236E+01  0.15576300721E+02 -0.15545894063E+02  0.22223987503E+02  0.00000000000E+00 0. -1.
</event>
<event>
 7    1  0.6515090E-012  0.5930193E+02  0.7816164E-02  0.1266605E+00
        -11   -1    0    0    0    0  0.00000000000E+00  0.00000000000E+00  0.45593999997E+02  0.45594000000E+02  0.51100000000E-03 0.  1.
         11   -1    0    0    0    0 -0.00000000000E+00 -0.00000000000E+00 -0.45593999997E+02  0.45594000000E+02  0.51100000000E-03 0. -1.
    9900012    2    1    2    0    0  0.93898847823E+01  0.27604477096E+02  0.12905213551E+02  0.59301927354E+02  0.49999969592E+02 0.  0.
        -12    1    1    2    0    0 -0.93898847823E+01 -0.27604477096E+02 -0.12905213551E+02  0.31886072646E+02  0.00000000000E+00 0.  1.
         11    1    3    3    0    0  0.24405313818E+02  0.15576780331E+02  0.14208524156E+02  0.32251164119E+02  0.51100000000E-03 0. -1.
        -11    1    3    3    0    0 -0.31723537564E+01 -0.51252987351E+01  0.88367049928E+00  0.60920759428E+01  0.51100000000E-03 0.  1.
        -12    1    3    3    0    0 -0.11843075280E+02  0.17152995500E+02 -0.21869811045E+01  0.20958687293E+02  0.00000000000E+00 0.  1.
</event>
<event>
 7    1  0.6515090E-012  0.5930199E+02  0.7816164E-02  0.1266605E+00
        -11   -1    0    0    0    0  0.00000000000E+00  0.00000000000E+00  0.45593999997E+02  0.45594000000E+02  0.51100000000E-03 0.  1.
         11   -1    0    0    0    0 -0.00000000000E+00 -0.00000000000E+00 -0.45593999997E+02  0.45594000000E+02  0.51100000000E-03 0. -1.
    9900012    2    1    2    0    0 -0.62434151181E+01  0.21863666646E+02 -0.22354354677E+02  0.59301994847E+02  0.50000092683E+02 0.  0.
        -12    1    1    2    0    0  0.62434151181E+01 -0.21863666646E+02  0.22354354677E+02  0.31886005153E+02  0.00000000000E+00 0.  1.
         11    1    3    3    0    0 -0.62876407891E+01  0.10842355817E+02 -0.20836013507E+02  0.24315233198E+02  0.51100000000E-03 0. -1.
        -11    1    3    3    0    0 -0.10581985740E+02  0.74589661373E+01 -0.13414321682E+02  0.18642924248E+02  0.51100000000E-03 0.  1.
        -12    1    3    3    0    0  0.10626211411E+02  0.35623446922E+01  0.11895980512E+02  0.16343837401E+02  0.00000000000E+00 0.  1.
</event>
<event>
 7    1  0.6515090E-012  0.5930194E+02  0.7816164E-02  0.1266605E+00
        -11   -1    0    0    0    0  0.00000000000E+00  0.00000000000E+00  0.45593999997E+02  0.45594000000E+02  0.51100000000E-03 0. -1.
         11   -1    0    0    0    0 -0.00000000000E+00 -0.00000000000E+00 -0.45593999997E+02  0.45594000000E+02  0.51100000000E-03 0.  1.
    9900012    2    1    2    0    0  0.35746389034E+00  0.27031440912E+02  0.16908404261E+02  0.59301941716E+02  0.49999995785E+02 0.  0.
        -12    1    1    2    0    0 -0.35746389034E+00 -0.27031440912E+02 -0.16908404261E+02  0.31886058284E+02  0.00000000000E+00 0.  1.
         11    1    3    3    0    0 -0.57033975193E+00 -0.29070873628E+01  0.92163425851E+01  0.96807755513E+01  0.51100000000E-03 0. -1.
        -11    1    3    3    0    0 -0.33039607382E+00 -0.94386401804E+01  0.31846280480E+01  0.99668924989E+01  0.51100000000E-03 0.  1.
         12    1    3    3    0    0  0.12581997161E+01  0.39377168455E+02  0.45074336275E+01  0.39654273666E+02  0.00000000000E+00 0. -1.
</event>
<event>
 7    1  0.6515090E-012  0.5930196E+02  0.7816164E-02  0.1266605E+00
        -11   -1    0    0    0    0  0.00000000000E+00  0.00000000000E+00  0.45593999997E+02  0.45594000000E+02  0.51100000000E-03 0. -1.
         11   -1    0    0    0    0 -0.00000000000E+00 -0.00000000000E+00 -0.45593999997E+02  0.45594000000E+02  0.51100000000E-03 0.  1.
    9900012    2    1    2    0    0  0.10777176190E+02  0.24820830061E+02  0.16867086083E+02  0.59301957215E+02  0.50000024050E+02 0.  0.
        -12    1    1    2    0    0 -0.10777176190E+02 -0.24820830061E+02 -0.16867086083E+02  0.31886042785E+02  0.00000000000E+00 0.  1.
         11    1    3    3    0    0 -0.36538054060E+01 -0.27543504624E+01 -0.31635394397E+01  0.55627980785E+01  0.51100000000E-03 0. -1.
        -11    1    3    3    0    0  0.69780520216E+01 -0.79803070597E+01  0.12935789648E+02  0.16724627495E+02  0.51100000000E-03 0.  1.
         12    1    3    3    0    0  0.74529295747E+01  0.35555487583E+02  0.70948358744E+01  0.37014531641E+02  0.00000000000E+00 0. -1.
</event>
<event>
 7    1  0.6515090E-012  0.5930181E+02  0.7816164E-02  0.1266605E+00
        -11   -1    0    0    0    0  0.00000000000E+00  0.00000000000E+00  0.45593999997E+02  0.45594000000E+02  0.51100000000E-03 0.  1.
         11   -1    0    0    0    0 -0.00000000000E+00 -0.00000000000E+00 -0.45593999997E+02  0.45594000000E+02  0.51100000000E-03 0. -1.
    9900012    2    1    2    0    0  0.57243154171E+01  0.17322728045E+02 -0.26151187071E+02  0.59301807391E+02  0.49999750806E+02 0.  0.
        -12    1    1    2    0    0 -0.57243154171E+01 -0.17322728045E+02  0.26151187071E+02  0.31886192609E+02  0.00000000000E+00 0.  1.
         11    1    3    3    0    0  0.90263389657E+01  0.10540562202E+01 -0.10413417688E+02  0.13821182939E+02  0.51100000000E-03 0. -1.
        -11    1    3    3    0    0  0.27176788862E+01  0.44030810249E+01  0.12902126961E+02  0.13900999295E+02  0.51100000000E-03 0.  1.
         12    1    3    3    0    0 -0.60197024349E+01  0.11865590800E+02 -0.28639896344E+02  0.31579625156E+02  0.00000000000E+00 0. -1.
</event>
<event>
 7    1  0.6515090E-012  0.5930196E+02  0.7816164E-02  0.1266605E+00
        -11   -1    0    0    0    0  0.00000000000E+00  0.00000000000E+00  0.45593999997E+02  0.45594000000E+02  0.51100000000E-03 0.  1.
         11   -1    0    0    0    0 -0.00000000000E+00 -0.00000000000E+00 -0.45593999997E+02  0.45594000000E+02  0.51100000000E-03 0. -1.
    9900012    2    1    2    0    0  0.24143585053E+02  0.14355629869E+02  0.15090487633E+02  0.59301958773E+02  0.50000026891E+02 0.  0.
        -12    1    1    2    0    0 -0.24143585053E+02 -0.14355629869E+02 -0.15090487633E+02  0.31886041227E+02  0.00000000000E+00 0.  1.
         11    1    3    3    0    0 -0.94417581441E+01 -0.82501185784E+00  0.85069473052E+01  0.12735603407E+02  0.51100000000E-03 0. -1.
        -11    1    3    3    0    0  0.15036584422E+02  0.31450034298E+01  0.16314215749E+02  0.22408559825E+02  0.51100000000E-03 0.  1.
         12    1    3    3    0    0  0.18548758775E+02  0.12035638297E+02 -0.97306754204E+01  0.24157795542E+02  0.00000000000E+00 0. -1.
</event>
<event>
 7    1  0.6515090E-012  0.5930193E+02  0.7816164E-02  0.1266605E+00
        -11   -1    0    0    0    0  0.00000000000E+00  0.00000000000E+00  0.45593999997E+02  0.45594000000E+02  0.51100000000E-03 0.  1.
         11   -1    0    0    0    0 -0.00000000000E+00 -0.00000000000E+00 -0.45593999997E+02  0.45594000000E+02  0.51100000000E-03 0. -1.
    9900012    2    1    2    0    0 -0.26938529007E+02  0.90728185394E+01  0.14447179912E+02  0.59301931118E+02  0.49999976456E+02 0.  0.
        -12    1    1    2    0    0  0.26938529007E+02 -0.90728185394E+01 -0.14447179912E+02  0.31886068882E+02  0.00000000000E+00 0.  1.
         11    1    3    3    0    0 -0.15842370538E+02  0.23193861927E+02  0.11166877038E+02  0.30226397046E+02  0.51100000000E-03 0. -1.
        -11    1    3    3    0    0  0.90186598491E+00  0.56195898571E+01  0.16081595216E+01  0.59143325680E+01  0.51100000000E-03 0.  1.
        -12    1    3    3    0    0 -0.11998024454E+02 -0.19740633245E+02  0.16721433527E+01  0.23161201504E+02  0.00000000000E+00 0.  1.
</event>
<event>
 7    1  0.6515090E-012  0.5930194E+02  0.7816164E-02  0.1266605E+00
        -11   -1    0    0    0    0  0.00000000000E+00  0.00000000000E+00  0.45593999997E+02  0.45594000000E+02  0.51100000000E-03 0.  1.
         11   -1    0    0    0    0 -0.00000000000E+00 -0.00000000000E+00 -0.45593999997E+02  0.45594000000E+02  0.51100000000E-03 0. -1.
    9900012    2    1    2    0    0  0.22616847595E+02 -0.37217506588E+01 -0.22166365717E+02  0.59301937336E+02  0.49999987796E+02 0.  0.
        -12    1    1    2    0    0 -0.22616847595E+02  0.37217506588E+01  0.22166365717E+02  0.31886062664E+02  0.00000000000E+00 0.  1.
         11    1    3    3    0    0 -0.28131079198E+01 -0.88637858294E+00 -0.23523768155E+01  0.37726542519E+01  0.51100000000E-03 0. -1.
        -11    1    3    3    0    0 -0.38086008863E+01 -0.18069511826E+02 -0.10618099878E+02  0.21301566694E+02  0.51100000000E-03 0.  1.
        -12    1    3    3    0    0  0.29238556401E+02  0.15234139750E+02 -0.91958890230E+01  0.34227716390E+02  0.00000000000E+00 0.  1.
</event>
<event>
 7    1  0.6515090E-012  0.5930192E+02  0.7816164E-02  0.1266605E+00
        -11   -1    0    0    0    0  0.00000000000E+00  0.00000000000E+00  0.45593999997E+02  0.45594000000E+02  0.51100000000E-03 0.  1.
         11   -1    0    0    0    0 -0.00000000000E+00 -0.00000000000E+00 -0.45593999997E+02  0.45594000000E+02  0.51100000000E-03 0. -1.
    9900012    2    1    2    0    0  0.70869029300E+01  0.15638956788E+02 -0.26868589684E+02  0.59301917234E+02  0.49999951134E+02 0.  0.
        -12    1    1    2    0    0 -0.70869029300E+01 -0.15638956788E+02  0.26868589684E+02  0.31886082766E+02  0.00000000000E+00 0.  1.
         11    1    3    3    0    0 -0.14372800441E+01  0.67169329331E+00 -0.19194774202E+02  0.19260225926E+02  0.51100000000E-03 0. -1.
        -11    1    3    3    0    0  0.14562998234E+01 -0.41558292315E+01 -0.17044260534E+02  0.17603935446E+02  0.51100000000E-03 0.  1.
         12    1    3    3    0    0  0.70678831507E+01  0.19123092726E+02  0.93704450512E+01  0.22437755862E+02  0.00000000000E+00 0. -1.
</event>
<event>
 7    1  0.6515090E-012  0.5930184E+02  0.7816164E-02  0.1266605E+00
        -11   -1    0    0    0    0  0.00000000000E+00  0.00000000000E+00  0.45593999997E+02  0.45594000000E+02  0.51100000000E-03 0.  1.
         11   -1    0    0    0    0 -0.00000000000E+00 -0.00000000000E+00 -0.45593999997E+02  0.45594000000E+02  0.51100000000E-03 0. -1.
    9900012    2    1    2    0    0  0.33208842138E+01  0.21797758576E+02 -0.23033808730E+02  0.59301844768E+02  0.49999818973E+02 0.  0.
        -12    1    1    2    0    0 -0.33208842138E+01 -0.21797758576E+02  0.23033808730E+02  0.31886155232E+02  0.00000000000E+00 0.  1.
         11    1    3    3    0    0  0.33079177177E+01  0.20498175110E+02 -0.17457236547E+02  0.27126972013E+02  0.51100000000E-03 0. -1.
        -11    1    3    3    0    0  0.14547086694E+02 -0.35742066352E+01 -0.74521578142E+01  0.16731029278E+02  0.51100000000E-03 0.  1.
        -12    1    3    3    0    0 -0.14534120198E+02  0.48737901011E+01  0.18755856316E+01  0.15443843477E+02  0.00000000000E+00 0.  1.
</event>
<event>
 7    1  0.6515090E-012  0.5930194E+02  0.7816164E-02  0.1266605E+00
        -11   -1    0    0    0    0  0.00000000000E+00  0.00000000000E+00  0.45593999997E+02  0.45594000000E+02  0.51100000000E-03 0.  1.
         11   -1    0    0    0    0 -0.00000000000E+00 -0.00000000000E+00 -0.45593999997E+02  0.45594000000E+02  0.51100000000E-03 0. -1.
    9900012    2    1    2    0    0  0.94789088675E+01  0.15054093806E+02 -0.26462154138E+02  0.59301936347E+02  0.49999985993E+02 0.  0.
        -12    1    1    2    0    0 -0.94789088675E+01 -0.15054093806E+02  0.26462154138E+02  0.31886063653E+02  0.00000000000E+00 0.  1.
         11    1    3    3    0    0  0.16532194435E+01  0.16279451869E+02 -0.70521333796E+01  0.17818144493E+02  0.51100000000E-03 0. -1.
        -11    1    3    3    0    0 -0.78594696639E+00  0.15463271325E+02 -0.15382388207E+01  0.15559455377E+02  0.51100000000E-03 0.  1.
        -12    1    3    3    0    0  0.86116363904E+01 -0.16688629388E+02 -0.17871781938E+02  0.25924336478E+02  0.00000000000E+00 0.  1.
</event>
<event>
 7    1  0.6515090E-012  0.5930195E+02  0.7816164E-02  0.1266605E+00
        -11   -1    0    0    0    0  0.00000000000E+00  0.00000000000E+00  0.45593999997E+02  0.45594000000E+02  0.51100000000E-03 0. -1.
         11   -1    0    0    0    0 -0.00000000000E+00 -0.00000000000E+00 -0.45593999997E+02  0.45594000000E+02  0.51100000000E-03 0.  1.
    9900012    2    1    2    0    0 -0.73688372180E+01 -0.26081671359E+02 -0.16797824110E+02  0.59301949168E+02  0.50000009374E+02 0.  0.
        -12    1    1    2    0    0  0.73688372180E+01  0.26081671359E+02  0.16797824110E+02  0.31886050832E+02  0.00000000000E+00 0.  1.
         11    1    3    3    0    0  0.41573686901E+01 -0.19211310214E+01  0.21134122742E+00  0.45846618417E+01  0.51100000000E-03 0. -1.
        -11    1    3    3    0    0 -0.14261960674E+02 -0.27010146435E+02  0.62060715569E+01  0.31168363081E+02  0.51100000000E-03 0.  1.
        -12    1    3    3    0    0  0.27357547657E+01  0.28496060975E+01 -0.23215236894E+02  0.23548924245E+02  0.00000000000E+00 0.  1.
</event>
<event>
 7    1  0.6515090E-012  0.5930197E+02  0.7816164E-02  0.1266605E+00
        -11   -1    0    0    0    0  0.00000000000E+00  0.00000000000E+00  0.45593999997E+02  0.45594000000E+02  0.51100000000E-03 0.  1.
         11   -1    0    0    0    0 -0.00000000000E+00 -0.00000000000E+00 -0.45593999997E+02  0.45594000000E+02  0.51100000000E-03 0. -1.
    9900012    2    1    2    0    0 -0.23679856163E+02  0.18763918064E+02  0.10193067866E+02  0.59301971061E+02  0.50000049302E+02 0.  0.
        -12    1    1    2    0    0  0.23679856163E+02 -0.18763918064E+02 -0.10193067866E+02  0.31886028939E+02  0.00000000000E+00 0.  1.
         11    1    3    3    0    0 -0.30059677923E+02  0.34951098717E+01  0.88370210699E+01  0.31526068126E+02  0.51100000000E-03 0. -1.
        -11    1    3    3    0    0  0.43005896348E+01  0.51427857635E+01  0.11488129607E+02  0.13301144265E+02  0.51100000000E-03 0.  1.
        -12    1    3    3    0    0  0.20792321257E+01  0.10126022429E+02 -0.10132082811E+02  0.14474758670E+02  0.00000000000E+00 0.  1.
</event>
<event>
 7    1  0.6515090E-012  0.5930187E+02  0.7816164E-02  0.1266605E+00
        -11   -1    0    0    0    0  0.00000000000E+00  0.00000000000E+00  0.45593999997E+02  0.45594000000E+02  0.51100000000E-03 0. -1.
         11   -1    0    0    0    0 -0.00000000000E+00 -0.00000000000E+00 -0.45593999997E+02  0.45594000000E+02  0.51100000000E-03 0.  1.
    9900012    2    1    2    0    0 -0.40994160019E+01 -0.24777800261E+02  0.19646390082E+02  0.59301870718E+02  0.49999866301E+02 0.  0.
        -12    1    1    2    0    0  0.40994160019E+01  0.24777800261E+02 -0.19646390082E+02  0.31886129282E+02  0.00000000000E+00 0.  1.
         11    1    3    3    0    0 -0.38930478787E+01 -0.11597955765E+02  0.62544111583E+01  0.13739943919E+02  0.51100000000E-03 0.  1.
        -11    1    3    3    0    0  0.61322639684E+01 -0.90777107201E+01  0.27477317067E+02  0.29580609303E+02  0.51100000000E-03 0. -1.
        -12    1    3    3    0    0 -0.63386320917E+01 -0.41021337757E+01 -0.14085338143E+02  0.15981317496E+02  0.00000000000E+00 0.  1.
</event>
<event>
 7    1  0.6515090E-012  0.5930205E+02  0.7816164E-02  0.1266604E+00
        -11   -1    0    0    0    0  0.00000000000E+00  0.00000000000E+00  0.45593999997E+02  0.45594000000E+02  0.51100000000E-03 0.  1.
         11   -1    0    0    0    0 -0.00000000000E+00 -0.00000000000E+00 -0.45593999997E+02  0.45594000000E+02  0.51100000000E-03 0. -1.
    9900012    2    1    2    0    0  0.26646624785E+01  0.10100132399E+01 -0.31758360443E+02  0.59302046809E+02  0.50000187448E+02 0.  0.
        -12    1    1    2    0    0 -0.26646624785E+01 -0.10100132399E+01  0.31758360443E+02  0.31885953191E+02  0.00000000000E+00 0.  1.
         11    1    3    3    0    0  0.96685061174E+01  0.10531114559E+02 -0.26418363845E+02  0.30038547450E+02  0.51100000000E-03 0. -1.
        -11    1    3    3    0    0  0.70587085483E+01  0.15081746634E+01 -0.84607047623E+01  0.11121307590E+02  0.51100000000E-03 0.  1.
        -12    1    3    3    0    0 -0.14062552187E+02 -0.11029275983E+02  0.31207081642E+01  0.18142191768E+02  0.00000000000E+00 0.  1.
</event>
<event>
 7    1  0.6515090E-012  0.5930191E+02  0.7816164E-02  0.1266605E+00
        -11   -1    0    0    0    0  0.00000000000E+00  0.00000000000E+00  0.45593999997E+02  0.45594000000E+02  0.51100000000E-03 0.  1.
         11   -1    0    0    0    0 -0.00000000000E+00 -0.00000000000E+00 -0.45593999997E+02  0.45594000000E+02  0.51100000000E-03 0. -1.
    9900012    2    1    2    0    0 -0.29299615243E+02 -0.99452682210E+01  0.77036946715E+01  0.59301910165E+02  0.49999938243E+02 0.  0.
        -12    1    1    2    0    0  0.29299615243E+02  0.99452682210E+01 -0.77036946715E+01  0.31886089835E+02  0.00000000000E+00 0.  1.
         11    1    3    3    0    0 -0.22611209521E+02  0.21793763797E+00 -0.56834218240E+01  0.23315565117E+02  0.51100000000E-03 0.  1.
        -11    1    3    3    0    0 -0.15223136211E+02 -0.11497112312E+02  0.17969838107E+02  0.26207681115E+02  0.51100000000E-03 0. -1.
        -12    1    3    3    0    0  0.85347304893E+01  0.13339064527E+01 -0.45827216113E+01  0.97786639331E+01  0.00000000000E+00 0.  1.
</event>
<event>
 7    1  0.6515090E-012  0.5930194E+02  0.7816164E-02  0.1266605E+00
        -11   -1    0    0    0    0  0.00000000000E+00  0.00000000000E+00  0.45593999997E+02  0.45594000000E+02  0.51100000000E-03 0.  1.
         11   -1    0    0    0    0 -0.00000000000E+00 -0.00000000000E+00 -0.45593999997E+02  0.45594000000E+02  0.51100000000E-03 0. -1.
    9900012    2    1    2    0    0 -0.26708561022E+01  0.14074572250E+02 -0.28486730265E+02  0.59301939448E+02  0.49999991648E+02 0.  0.
        -12    1    1    2    0    0  0.26708561022E+01 -0.14074572250E+02  0.28486730265E+02  0.31886060552E+02  0.00000000000E+00 0.  1.
         11    1    3    3    0    0 -0.14741284411E+01  0.11098365445E+00  0.36256929646E+01  0.39154848700E+01  0.51100000000E-03 0. -1.
        -11    1    3    3    0    0  0.19426381173E+02  0.59481261163E+01 -0.60493481908E+01  0.21198091979E+02  0.51100000000E-03 0.  1.
         12    1    3    3    0    0 -0.20623108834E+02  0.80154624789E+01 -0.26063075039E+02  0.34188362599E+02  0.00000000000E+00 0. -1.
</event>
<event>
 7    1  0.6515090E-012  0.5930195E+02  0.7816164E-02  0.1266605E+00
        -11   -1    0    0    0    0  0.00000000000E+00  0.00000000000E+00  0.45593999997E+02  0.45594000000E+02  0.51100000000E-03 0. -1.
         11   -1    0    0    0    0 -0.00000000000E+00 -0.00000000000E+00 -0.45593999997E+02  0.45594000000E+02  0.51100000000E-03 0.  1.
    9900012    2    1    2    0    0  0.17578948242E+02  0.13581574822E+01  0.26567958844E+02  0.59301945835E+02  0.50000003297E+02 0.  0.
        -12    1    1    2    0    0 -0.17578948242E+02 -0.13581574822E+01 -0.26567958844E+02  0.31886054165E+02  0.00000000000E+00 0.  1.
         11    1    3    3    0    0  0.61946587669E-01  0.54747237924E+01 -0.44876480784E+01  0.70792247824E+01  0.51100000000E-03 0. -1.
        -11    1    3    3    0    0 -0.31491380130E+00 -0.91216784095E+01  0.32392218782E+02  0.33653529170E+02  0.51100000000E-03 0.  1.
         12    1    3    3    0    0  0.17831915456E+02  0.50051120994E+01 -0.13366118589E+01  0.18569191883E+02  0.00000000000E+00 0. -1.
</event>
<event>
 7    1  0.6515090E-012  0.5930193E+02  0.7816164E-02  0.1266605E+00
        -11   -1    0    0    0    0  0.00000000000E+00  0.00000000000E+00  0.45593999997E+02  0.45594000000E+02  0.51100000000E-03 0.  1.
         11   -1    0    0    0    0 -0.00000000000E+00 -0.00000000000E+00 -0.45593999997E+02  0.45594000000E+02  0.51100000000E-03 0. -1.
    9900012    2    1    2    0    0  0.16079661002E+02  0.20636113352E+01 -0.27457371825E+02  0.59301933180E+02  0.49999980217E+02 0.  0.
        -12    1    1    2    0    0 -0.16079661002E+02 -0.20636113352E+01  0.27457371825E+02  0.31886066820E+02  0.00000000000E+00 0.  1.
         11    1    3    3    0    0 -0.25096117943E-01 -0.31960986779E+01 -0.91123415237E+00  0.33235560046E+01  0.51100000000E-03 0. -1.
        -11    1    3    3    0    0 -0.54079882575E+01  0.18620656622E+02 -0.13867436234E+00  0.19390575568E+02  0.51100000000E-03 0.  1.
        -12    1    3    3    0    0  0.21512745377E+02 -0.13360946609E+02 -0.26407463311E+02  0.36587801607E+02  0.00000000000E+00 0.  1.
</event>
<event>
 7    1  0.6515090E-012  0.5930206E+02  0.7816164E-02  0.1266604E+00
        -11   -1    0    0    0    0  0.00000000000E+00  0.00000000000E+00  0.45593999997E+02  0.45594000000E+02  0.51100000000E-03 0.  1.
         11   -1    0    0    0    0 -0.00000000000E+00 -0.00000000000E+00 -0.45593999997E+02  0.45594000000E+02  0.51100000000E-03 0. -1.
    9900012    2    1    2    0    0  0.25566489716E+02 -0.18586117664E+01 -0.18963473284E+02  0.59302060260E+02  0.50000211979E+02 0.  0.
        -12    1    1    2    0    0 -0.25566489716E+02  0.18586117664E+01  0.18963473284E+02  0.31885939740E+02  0.00000000000E+00 0.  1.
         11    1    3    3    0    0 -0.91651977804E+00 -0.57352081589E+01 -0.23446041749E+02  0.24154699234E+02  0.51100000000E-03 0.  1.
        -11    1    3    3    0    0 -0.56641800213E-01 -0.11605476293E+01 -0.60445299128E+01  0.61551946534E+01  0.51100000000E-03 0. -1.
         12    1    3    3    0    0  0.26539651295E+02  0.50371440219E+01  0.10527098377E+02  0.28992166373E+02  0.00000000000E+00 0. -1.
</event>
<event>
 7    1  0.6515090E-012  0.5930194E+02  0.7816164E-02  0.1266605E+00
        -11   -1    0    0    0    0  0.00000000000E+00  0.00000000000E+00  0.45593999997E+02  0.45594000000E+02  0.51100000000E-03 0. -1.
         11   -1    0    0    0    0 -0.00000000000E+00 -0.00000000000E+00 -0.45593999997E+02  0.45594000000E+02  0.51100000000E-03 0.  1.
    9900012    2    1    2    0    0 -0.24044857891E+02  0.10894499059E+02  0.17885057680E+02  0.59301943659E+02  0.49999999328E+02 0.  0.
        -12    1    1    2    0    0  0.24044857891E+02 -0.10894499059E+02 -0.17885057680E+02  0.31886056341E+02  0.00000000000E+00 0.  1.
         11    1    3    3    0    0 -0.12454864552E+02  0.18775867658E+02 -0.67041665999E+01  0.23507503215E+02  0.51100000000E-03 0. -1.
        -11    1    3    3    0    0  0.23570093785E+00  0.12321040471E+01 -0.36455588308E+01  0.38553514450E+01  0.51100000000E-03 0.  1.
        -12    1    3    3    0    0 -0.11825694276E+02 -0.91134726456E+01  0.28234783111E+02  0.31939088999E+02  0.00000000000E+00 0.  1.
</event>
<event>
 7    1  0.6515090E-012  0.5930206E+02  0.7816164E-02  0.1266604E+00
        -11   -1    0    0    0    0  0.00000000000E+00  0.00000000000E+00  0.45593999997E+02  0.45594000000E+02  0.51100000000E-03 0.  1.
         11   -1    0    0    0    0 -0.00000000000E+00 -0.00000000000E+00 -0.45593999997E+02  0.45594000000E+02  0.51100000000E-03 0. -1.
    9900012    2    1    2    0    0 -0.91611836722E+01  0.24933728259E+02 -0.17637893622E+02  0.59302056661E+02  0.50000205416E+02 0.  0.
        -12    1    1    2    0    0  0.91611836722E+01 -0.24933728259E+02  0.17637893622E+02  0.31885943339E+02  0.00000000000E+00 0.  1.
         11    1    3    3    0    0 -0.39026682317E+01 -0.52298731374E+01 -0.42369918501E+01  0.77803915428E+01  0.51100000000E-03 0. -1.
        -11    1    3    3    0    0  0.45946878403E+01  0.15525386139E+02  0.12309214025E+02  0.20338768923E+02  0.51100000000E-03 0.  1.
         12    1    3    3    0    0 -0.98532032807E+01  0.14638215257E+02 -0.25710115797E+02  0.31182896195E+02  0.00000000000E+00 0. -1.
</event>
<event>
 7    1  0.6515090E-012  0.5930195E+02  0.7816164E-02  0.1266605E+00
        -11   -1    0    0    0    0  0.00000000000E+00  0.00000000000E+00  0.45593999997E+02  0.45594000000E+02  0.51100000000E-03 0.  1.
         11   -1    0    0    0    0 -0.00000000000E+00 -0.00000000000E+00 -0.45593999997E+02  0.45594000000E+02  0.51100000000E-03 0. -1.
    9900012    2    1    2    0    0 -0.69663491045E+01  0.19220864993E+02 -0.24469338097E+02  0.59301950106E+02  0.50000011085E+02 0.  0.
        -12    1    1    2    0    0  0.69663491045E+01 -0.19220864993E+02  0.24469338097E+02  0.31886049894E+02  0.00000000000E+00 0.  1.
         11    1    3    3    0    0 -0.31175599813E+01  0.16234722729E+02  0.93497740566E+00  0.16557765107E+02  0.51100000000E-03 0. -1.
        -11    1    3    3    0    0 -0.90049915575E+01 -0.14095147501E+01  0.58060678905E+01  0.10806804773E+02  0.51100000000E-03 0.  1.
        -12    1    3    3    0    0  0.51562024344E+01  0.43956570143E+01 -0.31210383394E+02  0.31937380226E+02  0.00000000000E+00 0.  1.
</event>
<event>
 7    1  0.6515090E-012  0.5930196E+02  0.7816164E-02  0.1266605E+00
        -11   -1    0    0    0    0  0.00000000000E+00  0.00000000000E+00  0.45593999997E+02  0.45594000000E+02  0.51100000000E-03 0. -1.
         11   -1    0    0    0    0 -0.00000000000E+00 -0.00000000000E+00 -0.45593999997E+02  0.45594000000E+02  0.51100000000E-03 0.  1.
    9900012    2    1    2    0    0 -0.29279335315E+02 -0.12596786720E+02 -0.87238872518E+00  0.59301959571E+02  0.50000028347E+02 0.  0.
        -12    1    1    2    0    0  0.29279335315E+02  0.12596786720E+02  0.87238872518E+00  0.31886040429E+02  0.00000000000E+00 0.  1.
         11    1    3    3    0    0 -0.52716235360E+01 -0.81565213241E+01 -0.49756196189E+01  0.10912178777E+02  0.51100000000E-03 0. -1.
        -11    1    3    3    0    0 -0.22773139106E+02  0.15038220320E+02 -0.33548467909E+01  0.27495798449E+02  0.51100000000E-03 0.  1.
         12    1    3    3    0    0 -0.12345726732E+01 -0.19478485715E+02  0.74580776846E+01  0.20893982344E+02  0.00000000000E+00 0. -1.
</event>
<event>
 7    1  0.6515090E-012  0.5930195E+02  0.7816164E-02  0.1266605E+00
        -11   -1    0    0    0    0  0.00000000000E+00  0.00000000000E+00  0.45593999997E+02  0.45594000000E+02  0.51100000000E-03 0.  1.
         11   -1    0    0    0    0 -0.00000000000E+00 -0.00000000000E+00 -0.45593999997E+02  0.45594000000E+02  0.51100000000E-03 0. -1.
    9900012    2    1    2    0    0 -0.99927977300E+01  0.28406061451E+02 -0.10486162279E+02  0.59301953946E+02  0.50000018088E+02 0.  0.
        -12    1    1    2    0    0  0.99927977300E+01 -0.28406061451E+02  0.10486162279E+02  0.31886046054E+02  0.00000000000E+00 0.  1.
         11    1    3    3    0    0  0.35798634824E+01  0.22953413521E+02 -0.11889645104E+02  0.26096710056E+02  0.51100000000E-03 0. -1.
        -11    1    3    3    0    0 -0.19164126910E+02  0.83390488813E+01 -0.75844889938E+01  0.22233487581E+02  0.51100000000E-03 0.  1.
         12    1    3    3    0    0  0.55914656972E+01 -0.28864009511E+01  0.89879718184E+01  0.10971756309E+02  0.00000000000E+00 0. -1.
</event>
<event>
 7    1  0.6515090E-012  0.5930197E+02  0.7816164E-02  0.1266605E+00
        -11   -1    0    0    0    0  0.00000000000E+00  0.00000000000E+00  0.45593999997E+02  0.45594000000E+02  0.51100000000E-03 0.  1.
         11   -1    0    0    0    0 -0.00000000000E+00 -0.00000000000E+00 -0.45593999997E+02  0.45594000000E+02  0.51100000000E-03 0. -1.
    9900012    2    1    2    0    0  0.25904156608E+02 -0.88191623304E+01 -0.16368138289E+02  0.59301970069E+02  0.50000047492E+02 0.  0.
        -12    1    1    2    0    0 -0.25904156608E+02  0.88191623304E+01  0.16368138289E+02  0.31886029931E+02  0.00000000000E+00 0.  1.
         11    1    3    3    0    0  0.21297745698E+02 -0.24954456150E+02 -0.20252050346E+02  0.38554693580E+02  0.51100000000E-03 0. -1.
        -11    1    3    3    0    0 -0.21731968321E+01  0.43759763041E+01  0.51692488150E+01  0.71128817407E+01  0.51100000000E-03 0.  1.
        -12    1    3    3    0    0  0.67796077412E+01  0.11759317515E+02 -0.12853367571E+01  0.13634394747E+02  0.00000000000E+00 0.  1.
</event>
<event>
 7    1  0.6515090E-012  0.5930195E+02  0.7816164E-02  0.1266605E+00
        -11   -1    0    0    0    0  0.00000000000E+00  0.00000000000E+00  0.45593999997E+02  0.45594000000E+02  0.51100000000E-03 0.  1.
         11   -1    0    0    0    0 -0.00000000000E+00 -0.00000000000E+00 -0.45593999997E+02  0.45594000000E+02  0.51100000000E-03 0. -1.
    9900012    2    1    2    0    0  0.11848778821E+02 -0.27907085655E+02 -0.98752900320E+01  0.59301947523E+02  0.50000006375E+02 0.  0.
        -12    1    1    2    0    0 -0.11848778821E+02  0.27907085655E+02  0.98752900320E+01  0.31886052477E+02  0.00000000000E+00 0.  1.
         11    1    3    3    0    0  0.15996175434E+00 -0.15885418695E+01 -0.27522807214E+01  0.31818394782E+01  0.51100000000E-03 0. -1.
        -11    1    3    3    0    0  0.11292528035E+02  0.11200547129E+02 -0.94955147431E+01  0.18523991090E+02  0.51100000000E-03 0.  1.
        -12    1    3    3    0    0  0.39628903150E+00 -0.37519090915E+02  0.23725054326E+01  0.37596116955E+02  0.00000000000E+00 0.  1.
</event>
<event>
 7    1  0.6515090E-012  0.5930189E+02  0.7816164E-02  0.1266605E+00
        -11   -1    0    0    0    0  0.00000000000E+00  0.00000000000E+00  0.45593999997E+02  0.45594000000E+02  0.51100000000E-03 0.  1.
         11   -1    0    0    0    0 -0.00000000000E+00 -0.00000000000E+00 -0.45593999997E+02  0.45594000000E+02  0.51100000000E-03 0. -1.
    9900012    2    1    2    0    0 -0.80639237142E+01 -0.24411035662E+02 -0.18862620381E+02  0.59301890557E+02  0.49999902482E+02 0.  0.
        -12    1    1    2    0    0  0.80639237142E+01  0.24411035662E+02  0.18862620381E+02  0.31886109443E+02  0.00000000000E+00 0.  1.
         11    1    3    3    0    0 -0.77415803915E+01 -0.94394259009E+01  0.32101510509E+01  0.12622990863E+02  0.51100000000E-03 0. -1.
        -11    1    3    3    0    0 -0.13835343036E+02 -0.90538799712E+01  0.37362439576E+01  0.16951370996E+02  0.51100000000E-03 0.  1.
        -12    1    3    3    0    0  0.13512999714E+02 -0.59177297903E+01 -0.25809015389E+02  0.29727528698E+02  0.00000000000E+00 0.  1.
</event>
<event>
 7    1  0.6515090E-012  0.5930195E+02  0.7816164E-02  0.1266605E+00
        -11   -1    0    0    0    0  0.00000000000E+00  0.00000000000E+00  0.45593999997E+02  0.45594000000E+02  0.51100000000E-03 0.  1.
         11   -1    0    0    0    0 -0.00000000000E+00 -0.00000000000E+00 -0.45593999997E+02  0.45594000000E+02  0.51100000000E-03 0. -1.
    9900012    2    1    2    0    0  0.93444672869E+01 -0.26225342979E+02 -0.15544536364E+02  0.59301948284E+02  0.50000007763E+02 0.  0.
        -12    1    1    2    0    0 -0.93444672869E+01  0.26225342979E+02  0.15544536364E+02  0.31886051716E+02  0.00000000000E+00 0.  1.
         11    1    3    3    0    0  0.87447088258E+01  0.63244020668E+01  0.42559292407E+01  0.11600902030E+02  0.51100000000E-03 0. -1.
        -11    1    3    3    0    0  0.43425066528E+01 -0.19757721594E+02  0.38132031125E+01  0.20585563992E+02  0.51100000000E-03 0.  1.
         12    1    3    3    0    0 -0.37427481917E+01 -0.12792023452E+02 -0.23613668717E+02  0.27115482262E+02  0.00000000000E+00 0. -1.
</event>
<event>
 7    1  0.6515090E-012  0.5930195E+02  0.7816164E-02  0.1266605E+00
        -11   -1    0    0    0    0  0.00000000000E+00  0.00000000000E+00  0.45593999997E+02  0.45594000000E+02  0.51100000000E-03 0.  1.
         11   -1    0    0    0    0 -0.00000000000E+00 -0.00000000000E+00 -0.45593999997E+02  0.45594000000E+02  0.51100000000E-03 0. -1.
    9900012    2    1    2    0    0 -0.68020167659E+01 -0.25111462884E+02 -0.18435485566E+02  0.59301950882E+02  0.50000012501E+02 0.  0.
        -12    1    1    2    0    0  0.68020167659E+01  0.25111462884E+02  0.18435485566E+02  0.31886049118E+02  0.00000000000E+00 0.  1.
         11    1    3    3    0    0  0.13643300775E+02 -0.15071928581E+02  0.75142279918E+01  0.21674093055E+02  0.51100000000E-03 0. -1.
        -11    1    3    3    0    0  0.13522050608E+01 -0.16487251088E+01  0.64978066583E+00  0.22291182529E+01  0.51100000000E-03 0.  1.
         12    1    3    3    0    0 -0.21797522601E+02 -0.83908091945E+01 -0.26599494224E+02  0.35398739574E+02  0.00000000000E+00 0. -1.
</event>
<event>
 7    1  0.6515090E-012  0.5930195E+02  0.7816164E-02  0.1266605E+00
        -11   -1    0    0    0    0  0.00000000000E+00  0.00000000000E+00  0.45593999997E+02  0.45594000000E+02  0.51100000000E-03 0. -1.
         11   -1    0    0    0    0 -0.00000000000E+00 -0.00000000000E+00 -0.45593999997E+02  0.45594000000E+02  0.51100000000E-03 0.  1.
    9900012    2    1    2    0    0 -0.18844506367E+02  0.56766746117E+01  0.25087448432E+02  0.59301950955E+02  0.50000012633E+02 0.  0.
        -12    1    1    2    0    0  0.18844506367E+02 -0.56766746117E+01 -0.25087448432E+02  0.31886049045E+02  0.00000000000E+00 0.  1.
         11    1    3    3    0    0 -0.15004665196E+02  0.15191898025E+02  0.13657794685E+02  0.25346974162E+02  0.51100000000E-03 0. -1.
        -11    1    3    3    0    0 -0.57791310831E+01  0.10141647278E+02  0.12658877880E+01  0.11741117398E+02  0.51100000000E-03 0.  1.
         12    1    3    3    0    0  0.19392899122E+01 -0.19656870691E+02  0.10163765960E+02  0.22213859395E+02  0.00000000000E+00 0. -1.
</event>
<event>
 7    1  0.6515090E-012  0.5930192E+02  0.7816164E-02  0.1266605E+00
        -11   -1    0    0    0    0  0.00000000000E+00  0.00000000000E+00  0.45593999997E+02  0.45594000000E+02  0.51100000000E-03 0. -1.
         11   -1    0    0    0    0 -0.00000000000E+00 -0.00000000000E+00 -0.45593999997E+02  0.45594000000E+02  0.51100000000E-03 0.  1.
    9900012    2    1    2    0    0 -0.82789529376E+01  0.29810250263E+02  0.77155505109E+01  0.59301924635E+02  0.49999964632E+02 0.  0.
        -12    1    1    2    0    0  0.82789529376E+01 -0.29810250263E+02 -0.77155505109E+01  0.31886075365E+02  0.00000000000E+00 0.  1.
         11    1    3    3    0    0  0.17308093403E+01  0.73859473038E+01  0.15073626900E+02  0.16874896940E+02  0.51100000000E-03 0. -1.
        -11    1    3    3    0    0  0.28481247479E+01  0.30086646326E+01 -0.16796452692E+02  0.17299846841E+02  0.51100000000E-03 0.  1.
         12    1    3    3    0    0 -0.12857887026E+02  0.19415638327E+02  0.94383763029E+01  0.25127180854E+02  0.00000000000E+00 0. -1.
</event>
<event>
 7    1  0.6515090E-012  0.5930191E+02  0.7816164E-02  0.1266605E+00
        -11   -1    0    0    0    0  0.00000000000E+00  0.00000000000E+00  0.45593999997E+02  0.45594000000E+02  0.51100000000E-03 0.  1.
         11   -1    0    0    0    0 -0.00000000000E+00 -0.00000000000E+00 -0.45593999997E+02  0.45594000000E+02  0.51100000000E-03 0. -1.
    9900012    2    1    2    0    0  0.21279240017E+02  0.74902961554E+01 -0.22534687176E+02  0.59301910270E+02  0.49999938433E+02 0.  0.
        -12    1    1    2    0    0 -0.21279240017E+02 -0.74902961554E+01  0.22534687176E+02  0.31886089730E+02  0.00000000000E+00 0.  1.
         11    1    3    3    0    0  0.14209234701E+02  0.40541408037E+01 -0.28033648526E+02  0.31689491292E+02  0.51100000000E-03 0. -1.
        -11    1    3    3    0    0  0.87097343700E+01 -0.89155571837E+01  0.81254969658E+01  0.14878519210E+02  0.51100000000E-03 0.  1.
        -12    1    3    3    0    0 -0.16397290546E+01  0.12351712535E+02 -0.26265356157E+01  0.12733899767E+02  0.00000000000E+00 0.  1.
</event>
<event>
 7    1  0.6515090E-012  0.5930194E+02  0.7816164E-02  0.1266605E+00
        -11   -1    0    0    0    0  0.00000000000E+00  0.00000000000E+00  0.45593999997E+02  0.45594000000E+02  0.51100000000E-03 0.  1.
         11   -1    0    0    0    0 -0.00000000000E+00 -0.00000000000E+00 -0.45593999997E+02  0.45594000000E+02  0.51100000000E-03 0. -1.
    9900012    2    1    2    0    0 -0.16547623468E+02 -0.23579495757E+02 -0.13671296343E+02  0.59301940251E+02  0.49999993113E+02 0.  0.
        -12    1    1    2    0    0  0.16547623468E+02  0.23579495757E+02  0.13671296343E+02  0.31886059749E+02  0.00000000000E+00 0.  1.
         11    1    3    3    0    0 -0.27116673143E+02 -0.17954323649E+02  0.44259380057E+01  0.32821648763E+02  0.51100000000E-03 0. -1.
        -11    1    3    3    0    0  0.11600003451E+01  0.10108883302E+01  0.24697240144E+01  0.29098166584E+01  0.51100000000E-03 0.  1.
        -12    1    3    3    0    0  0.94090493295E+01 -0.66360604381E+01 -0.20566958363E+02  0.23570474830E+02  0.00000000000E+00 0.  1.
</event>
<event>
 7    1  0.6515090E-012  0.5930189E+02  0.7816164E-02  0.1266605E+00
        -11   -1    0    0    0    0  0.00000000000E+00  0.00000000000E+00  0.45593999997E+02  0.45594000000E+02  0.51100000000E-03 0.  1.
         11   -1    0    0    0    0 -0.00000000000E+00 -0.00000000000E+00 -0.45593999997E+02  0.45594000000E+02  0.51100000000E-03 0. -1.
    9900012    2    1    2    0    0 -0.12036869896E+02  0.14333487609E+02 -0.25814508739E+02  0.59301890715E+02  0.49999902770E+02 0.  0.
        -12    1    1    2    0    0  0.12036869896E+02 -0.14333487609E+02  0.25814508739E+02  0.31886109285E+02  0.00000000000E+00 0.  1.
         11    1    3    3    0    0  0.24829340879E+01 -0.54188656524E+01 -0.63023183451E+01  0.86745768443E+01  0.51100000000E-03 0. -1.
        -11    1    3    3    0    0 -0.27012257546E+02  0.89275353119E+01 -0.55407078570E+01  0.28983829773E+02  0.51100000000E-03 0.  1.
         12    1    3    3    0    0  0.12492453562E+02  0.10824817949E+02 -0.13971482536E+02  0.21643484098E+02  0.00000000000E+00 0. -1.
</event>
<event>
 7    1  0.6515090E-012  0.5930194E+02  0.7816164E-02  0.1266605E+00
        -11   -1    0    0    0    0  0.00000000000E+00  0.00000000000E+00  0.45593999997E+02  0.45594000000E+02  0.51100000000E-03 0. -1.
         11   -1    0    0    0    0 -0.00000000000E+00 -0.00000000000E+00 -0.45593999997E+02  0.45594000000E+02  0.51100000000E-03 0.  1.
    9900012    2    1    2    0    0  0.10184360728E+02  0.25850663594E+02  0.15644260906E+02  0.59301938610E+02  0.49999990119E+02 0.  0.
        -12    1    1    2    0    0 -0.10184360728E+02 -0.25850663594E+02 -0.15644260906E+02  0.31886061390E+02  0.00000000000E+00 0.  1.
         11    1    3    3    0    0  0.24064317590E+02  0.15556670396E+02  0.14579122068E+02  0.32150461512E+02  0.51100000000E-03 0.  1.
        -11    1    3    3    0    0 -0.45004507634E-01  0.12995530915E+02  0.12354335928E+01  0.13054200304E+02  0.51100000000E-03 0. -1.
         12    1    3    3    0    0 -0.13834952354E+02 -0.27015377173E+01 -0.17029475426E+00  0.14097276793E+02  0.00000000000E+00 0. -1.
</event>
<event>
 7    1  0.6515090E-012  0.5930195E+02  0.7816164E-02  0.1266605E+00
        -11   -1    0    0    0    0  0.00000000000E+00  0.00000000000E+00  0.45593999997E+02  0.45594000000E+02  0.51100000000E-03 0. -1.
         11   -1    0    0    0    0 -0.00000000000E+00 -0.00000000000E+00 -0.45593999997E+02  0.45594000000E+02  0.51100000000E-03 0.  1.
    9900012    2    1    2    0    0 -0.75783149648E+01 -0.30808583467E+02  0.31812958713E+01  0.59301947934E+02  0.50000007124E+02 0.  0.
        -12    1    1    2    0    0  0.75783149648E+01  0.30808583467E+02 -0.31812958713E+01  0.31886052066E+02  0.00000000000E+00 0.  1.
         11    1    3    3    0    0 -0.42361425280E+01 -0.84739821436E+01  0.11821178310E+02  0.15149043989E+02  0.51100000000E-03 0. -1.
        -11    1    3    3    0    0 -0.14905540500E+02 -0.38954842969E+01 -0.14974831894E+02  0.21484774284E+02  0.51100000000E-03 0.  1.
         12    1    3    3    0    0  0.11563368064E+02 -0.18439117027E+02  0.63349494549E+01  0.22668129660E+02  0.00000000000E+00 0. -1.
</event>
<event>
 7    1  0.6515090E-012  0.5930191E+02  0.7816164E-02  0.1266605E+00
        -11   -1    0    0    0    0  0.00000000000E+00  0.00000000000E+00  0.45593999997E+02  0.45594000000E+02  0.51100000000E-03 0.  1.
         11   -1    0    0    0    0 -0.00000000000E+00 -0.00000000000E+00 -0.45593999997E+02  0.45594000000E+02  0.51100000000E-03 0. -1.
    9900012    2    1    2    0    0  0.96047375956E+01 -0.25466410618E+02  0.16611243040E+02  0.59301914486E+02  0.49999946123E+02 0.  0.
        -12    1    1    2    0    0 -0.96047375956E+01  0.25466410618E+02 -0.16611243040E+02  0.31886085514E+02  0.00000000000E+00 0.  1.
         11    1    3    3    0    0 -0.57977348058E+01 -0.64721833607E+00 -0.39113929566E+01  0.70236468857E+01  0.51100000000E-03 0. -1.
        -11    1    3    3    0    0 -0.75273188653E+00 -0.56036135811E+00  0.23007535923E+02  0.23026665404E+02  0.51100000000E-03 0.  1.
         12    1    3    3    0    0  0.16155204288E+02 -0.24258830924E+02 -0.24848999263E+01  0.29251602196E+02  0.00000000000E+00 0. -1.
</event>
<event>
 7    1  0.6515090E-012  0.5930198E+02  0.7816164E-02  0.1266605E+00
        -11   -1    0    0    0    0  0.00000000000E+00  0.00000000000E+00  0.45593999997E+02  0.45594000000E+02  0.51100000000E-03 0.  1.
         11   -1    0    0    0    0 -0.00000000000E+00 -0.00000000000E+00 -0.45593999997E+02  0.45594000000E+02  0.51100000000E-03 0. -1.
    9900012    2    1    2    0    0  0.18507948947E+02 -0.81057872086E+01 -0.24667194659E+02  0.59301977156E+02  0.50000060418E+02 0.  0.
        -12    1    1    2    0    0 -0.18507948947E+02  0.81057872086E+01  0.24667194659E+02  0.31886022844E+02  0.00000000000E+00 0.  1.
         11    1    3    3    0    0 -0.29786419670E+01 -0.15778853063E+02 -0.39025752935E+01  0.16524969172E+02  0.51100000000E-03 0. -1.
        -11    1    3    3    0    0 -0.66622910874E+01  0.16371368731E+01  0.65830293635E+00  0.68920028070E+01  0.51100000000E-03 0.  1.
        -12    1    3    3    0    0  0.28148882001E+02  0.60359289817E+01 -0.21422922301E+02  0.35885005177E+02  0.00000000000E+00 0.  1.
</event>
<event>
 7    1  0.6515090E-012  0.5930193E+02  0.7816164E-02  0.1266605E+00
        -11   -1    0    0    0    0  0.00000000000E+00  0.00000000000E+00  0.45593999997E+02  0.45594000000E+02  0.51100000000E-03 0.  1.
         11   -1    0    0    0    0 -0.00000000000E+00 -0.00000000000E+00 -0.45593999997E+02  0.45594000000E+02  0.51100000000E-03 0. -1.
    9900012    2    1    2    0    0  0.17957493591E+02  0.19311765563E+02 -0.17924998370E+02  0.59301930443E+02  0.49999975225E+02 0.  0.
        -12    1    1    2    0    0 -0.17957493591E+02 -0.19311765563E+02  0.17924998370E+02  0.31886069557E+02  0.00000000000E+00 0.  1.
         11    1    3    3    0    0 -0.85246912719E+01  0.37373875215E+01 -0.13515073691E+02  0.16410229855E+02  0.51100000000E-03 0. -1.
        -11    1    3    3    0    0 -0.42877817719E+01  0.24978640135E+01 -0.78446774822E+01  0.92824222169E+01  0.51100000000E-03 0.  1.
        -12    1    3    3    0    0  0.30769966635E+02  0.13076514028E+02  0.34347528030E+01  0.33609278371E+02  0.00000000000E+00 0.  1.
</event>
<event>
 7    1  0.6515090E-012  0.5930195E+02  0.7816164E-02  0.1266605E+00
        -11   -1    0    0    0    0  0.00000000000E+00  0.00000000000E+00  0.45593999997E+02  0.45594000000E+02  0.51100000000E-03 0. -1.
         11   -1    0    0    0    0 -0.00000000000E+00 -0.00000000000E+00 -0.45593999997E+02  0.45594000000E+02  0.51100000000E-03 0.  1.
    9900012    2    1    2    0    0 -0.23945799022E+02 -0.11100947833E+02  0.17890991157E+02  0.59301954492E+02  0.50000019084E+02 0.  0.
        -12    1    1    2    0    0  0.23945799022E+02  0.11100947833E+02 -0.17890991157E+02  0.31886045508E+02  0.00000000000E+00 0.  1.
         11    1    3    3    0    0 -0.34646446954E+01  0.14007579423E+01  0.15843737329E+02  0.16278510327E+02  0.51100000000E-03 0. -1.
        -11    1    3    3    0    0  0.97078572561E+01  0.85318057452E+00 -0.13487718235E+01  0.98381703223E+01  0.51100000000E-03 0.  1.
         12    1    3    3    0    0 -0.30189011582E+02 -0.13354886350E+02  0.33960256516E+01  0.33185273842E+02  0.00000000000E+00 0. -1.
</event>
<event>
 7    1  0.6515090E-012  0.5930196E+02  0.7816164E-02  0.1266605E+00
        -11   -1    0    0    0    0  0.00000000000E+00  0.00000000000E+00  0.45593999997E+02  0.45594000000E+02  0.51100000000E-03 0.  1.
         11   -1    0    0    0    0 -0.00000000000E+00 -0.00000000000E+00 -0.45593999997E+02  0.45594000000E+02  0.51100000000E-03 0. -1.
    9900012    2    1    2    0    0 -0.54763235388E+00  0.19876210861E+02 -0.24927017032E+02  0.59301955443E+02  0.50000020818E+02 0.  0.
        -12    1    1    2    0    0  0.54763235388E+00 -0.19876210861E+02  0.24927017032E+02  0.31886044557E+02  0.00000000000E+00 0.  1.
         11    1    3    3    0    0 -0.62531799625E+01 -0.20823193013E+01 -0.14898642754E+02  0.16291343391E+02  0.51100000000E-03 0. -1.
        -11    1    3    3    0    0 -0.11979928180E+02  0.37944240405E-02 -0.86660194781E+01  0.14785756236E+02  0.51100000000E-03 0.  1.
        -12    1    3    3    0    0  0.17685475789E+02  0.21954735739E+02 -0.13623547995E+01  0.28224855816E+02  0.00000000000E+00 0.  1.
</event>
<event>
 7    1  0.6515090E-012  0.5930197E+02  0.7816164E-02  0.1266605E+00
        -11   -1    0    0    0    0  0.00000000000E+00  0.00000000000E+00  0.45593999997E+02  0.45594000000E+02  0.51100000000E-03 0.  1.
         11   -1    0    0    0    0 -0.00000000000E+00 -0.00000000000E+00 -0.45593999997E+02  0.45594000000E+02  0.51100000000E-03 0. -1.
    9900012    2    1    2    0    0 -0.60768162167E+01 -0.20881784085E+02 -0.23318279774E+02  0.59301972127E+02  0.50000051246E+02 0.  0.
        -12    1    1    2    0    0  0.60768162167E+01  0.20881784085E+02  0.23318279774E+02  0.31886027873E+02  0.00000000000E+00 0.  1.
         11    1    3    3    0    0 -0.19557824188E+00  0.23456197646E+00  0.14969991760E+01  0.15278340759E+01  0.51100000000E-03 0. -1.
        -11    1    3    3    0    0  0.18940656081E+02 -0.46662296596E+01 -0.80769873668E+00  0.19523691493E+02  0.51100000000E-03 0.  1.
         12    1    3    3    0    0 -0.24821894056E+02 -0.16450116401E+02 -0.24007580214E+02  0.38250446558E+02  0.00000000000E+00 0. -1.
</event>
<event>
 7    1  0.6515090E-012  0.5930192E+02  0.7816164E-02  0.1266605E+00
        -11   -1    0    0    0    0  0.00000000000E+00  0.00000000000E+00  0.45593999997E+02  0.45594000000E+02  0.51100000000E-03 0.  1.
         11   -1    0    0    0    0 -0.00000000000E+00 -0.00000000000E+00 -0.45593999997E+02  0.45594000000E+02  0.51100000000E-03 0. -1.
    9900012    2    1    2    0    0  0.21796238977E+02 -0.58739937369E+01 -0.22519818221E+02  0.59301920770E+02  0.49999957583E+02 0.  0.
        -12    1    1    2    0    0 -0.21796238977E+02  0.58739937369E+01  0.22519818221E+02  0.31886079230E+02  0.00000000000E+00 0.  1.
         11    1    3    3    0    0  0.13382263869E+01 -0.73110334898E+01 -0.55978164820E+01  0.93047090325E+01  0.51100000000E-03 0. -1.
        -11    1    3    3    0    0 -0.93690310010E+01 -0.11143784252E+02 -0.68874405119E+01  0.16105884217E+02  0.51100000000E-03 0.  1.
         12    1    3    3    0    0  0.29827043592E+02  0.12580824005E+02 -0.10034561227E+02  0.33891327520E+02  0.00000000000E+00 0. -1.
</event>
<event>
 7    1  0.6515090E-012  0.5930197E+02  0.7816164E-02  0.1266605E+00
        -11   -1    0    0    0    0  0.00000000000E+00  0.00000000000E+00  0.45593999997E+02  0.45594000000E+02  0.51100000000E-03 0.  1.
         11   -1    0    0    0    0 -0.00000000000E+00 -0.00000000000E+00 -0.45593999997E+02  0.45594000000E+02  0.51100000000E-03 0. -1.
    9900012    2    1    2    0    0  0.26993234091E+02  0.15666111740E+01  0.16900586718E+02  0.59301971889E+02  0.50000050813E+02 0.  0.
        -12    1    1    2    0    0 -0.26993234091E+02 -0.15666111740E+01 -0.16900586718E+02  0.31886028111E+02  0.00000000000E+00 0.  1.
         11    1    3    3    0    0  0.31360276988E+02  0.89871925510E+01  0.42910044962E+01  0.32903636920E+02  0.51100000000E-03 0. -1.
        -11    1    3    3    0    0  0.68629216791E+01 -0.38966068850E+01 -0.14904480040E+01  0.80314802312E+01  0.51100000000E-03 0.  1.
        -12    1    3    3    0    0 -0.11229964576E+02 -0.35239744920E+01  0.14100030226E+02  0.18366854738E+02  0.00000000000E+00 0.  1.
</event>
<event>
 7    1  0.6515090E-012  0.5930194E+02  0.7816164E-02  0.1266605E+00
        -11   -1    0    0    0    0  0.00000000000E+00  0.00000000000E+00  0.45593999997E+02  0.45594000000E+02  0.51100000000E-03 0. -1.
         11   -1    0    0    0    0 -0.00000000000E+00 -0.00000000000E+00 -0.45593999997E+02  0.45594000000E+02  0.51100000000E-03 0.  1.
    9900012    2    1    2    0    0  0.29506922598E+02 -0.28254360350E+01 -0.11750715374E+02  0.59301939067E+02  0.49999990953E+02 0.  0.
        -12    1    1    2    0    0 -0.29506922598E+02  0.28254360350E+01  0.11750715374E+02  0.31886060933E+02  0.00000000000E+00 0.  1.
         11    1    3    3    0    0  0.88676218787E+01 -0.49298562425E-01 -0.33029840693E+01  0.94629198536E+01  0.51100000000E-03 0. -1.
        -11    1    3    3    0    0  0.15139863587E+02 -0.30758127285E+01 -0.26659636462E+02  0.30812534948E+02  0.51100000000E-03 0.  1.
         12    1    3    3    0    0  0.54994371326E+01  0.29967525588E+00  0.18211905158E+02  0.19026484266E+02  0.00000000000E+00 0. -1.
</event>
<event>
 7    1  0.6515090E-012  0.5930197E+02  0.7816164E-02  0.1266605E+00
        -11   -1    0    0    0    0  0.00000000000E+00  0.00000000000E+00  0.45593999997E+02  0.45594000000E+02  0.51100000000E-03 0.  1.
         11   -1    0    0    0    0 -0.00000000000E+00 -0.00000000000E+00 -0.45593999997E+02  0.45594000000E+02  0.51100000000E-03 0. -1.
    9900012    2    1    2    0    0  0.20486595519E+02  0.27712483779E+01 -0.24276297938E+02  0.59301967711E+02  0.50000043193E+02 0.  0.
        -12    1    1    2    0    0 -0.20486595519E+02 -0.27712483779E+01  0.24276297938E+02  0.31886032289E+02  0.00000000000E+00 0.  1.
         11    1    3    3    0    0 -0.90511386573E+01  0.32090033959E+01  0.37780161918E+01  0.10319603694E+02  0.51100000000E-03 0. -1.
        -11    1    3    3    0    0  0.11310847650E+02 -0.94085825906E+01 -0.46392610618E+00  0.14719780182E+02  0.51100000000E-03 0.  1.
         12    1    3    3    0    0  0.18226886526E+02  0.89708275726E+01 -0.27590388023E+02  0.34262583835E+02  0.00000000000E+00 0. -1.
</event>
<event>
 7    1  0.6515090E-012  0.5930194E+02  0.7816164E-02  0.1266605E+00
        -11   -1    0    0    0    0  0.00000000000E+00  0.00000000000E+00  0.45593999997E+02  0.45594000000E+02  0.51100000000E-03 0.  1.
         11   -1    0    0    0    0 -0.00000000000E+00 -0.00000000000E+00 -0.45593999997E+02  0.45594000000E+02  0.51100000000E-03 0. -1.
    9900012    2    1    2    0    0 -0.20601241860E+02  0.88779931401E+01 -0.22660341169E+02  0.59301937367E+02  0.49999987852E+02 0.  0.
        -12    1    1    2    0    0  0.20601241860E+02 -0.88779931401E+01  0.22660341169E+02  0.31886062633E+02  0.00000000000E+00 0.  1.
         11    1    3    3    0    0 -0.24841197019E+02  0.15188105719E+02 -0.38418580900E+00  0.29118915221E+02  0.51100000000E-03 0. -1.
        -11    1    3    3    0    0 -0.54462671828E+01 -0.10422248094E+01 -0.24940365633E+00  0.55506991654E+01  0.51100000000E-03 0.  1.
        -12    1    3    3    0    0  0.96862223419E+01 -0.52678877696E+01 -0.22026751703E+02  0.24632322980E+02  0.00000000000E+00 0.  1.
</event>
<event>
 7    1  0.6515090E-012  0.5930194E+02  0.7816164E-02  0.1266605E+00
        -11   -1    0    0    0    0  0.00000000000E+00  0.00000000000E+00  0.45593999997E+02  0.45594000000E+02  0.51100000000E-03 0. -1.
         11   -1    0    0    0    0 -0.00000000000E+00 -0.00000000000E+00 -0.45593999997E+02  0.45594000000E+02  0.51100000000E-03 0.  1.
    9900012    2    1    2    0    0 -0.30144848945E+02  0.90284142032E+01  0.51474588289E+01  0.59301944846E+02  0.50000001492E+02 0.  0.
        -12    1    1    2    0    0  0.30144848945E+02 -0.90284142032E+01 -0.51474588289E+01  0.31886055154E+02  0.00000000000E+00 0.  1.
         11    1    3    3    0    0 -0.48541072697E+00  0.66500222319E+01 -0.12856883589E+01  0.67905385704E+01  0.51100000000E-03 0. -1.
        -11    1    3    3    0    0 -0.67571803508E+01  0.76274351327E+01 -0.16684017299E+02  0.19549774589E+02  0.51100000000E-03 0.  1.
        -12    1    3    3    0    0 -0.22902257867E+02 -0.52490431614E+01  0.23117164487E+02  0.32961631686E+02  0.00000000000E+00 0.  1.
</event>
<event>
 7    1  0.6515090E-012  0.5930197E+02  0.7816164E-02  0.1266605E+00
        -11   -1    0    0    0    0  0.00000000000E+00  0.00000000000E+00  0.45593999997E+02  0.45594000000E+02  0.51100000000E-03 0. -1.
         11   -1    0    0    0    0 -0.00000000000E+00 -0.00000000000E+00 -0.45593999997E+02  0.45594000000E+02  0.51100000000E-03 0.  1.
    9900012    2    1    2    0    0  0.16072436029E+02 -0.25828847330E+02  0.95533480147E+01  0.59301968378E+02  0.50000044409E+02 0.  0.
        -12    1    1    2    0    0 -0.16072436029E+02  0.25828847330E+02 -0.95533480147E+01  0.31886031622E+02  0.00000000000E+00 0.  1.
         11    1    3    3    0    0  0.13353568604E+02 -0.84762344564E+01 -0.52085134452E+01  0.16652115709E+02  0.51100000000E-03 0.  1.
        -11    1    3    3    0    0  0.13865691093E+02 -0.38424088936E+01 -0.59106874668E+01  0.15554990266E+02  0.51100000000E-03 0. -1.
         12    1    3    3    0    0 -0.11146823668E+02 -0.13510203980E+02  0.20672548927E+02  0.27094862402E+02  0.00000000000E+00 0. -1.
</event>
<event>
 7    1  0.6515090E-012  0.5930190E+02  0.7816164E-02  0.1266605E+00
        -11   -1    0    0    0    0  0.00000000000E+00  0.00000000000E+00  0.45593999997E+02  0.45594000000E+02  0.51100000000E-03 0.  1.
         11   -1    0    0    0    0 -0.00000000000E+00 -0.00000000000E+00 -0.45593999997E+02  0.45594000000E+02  0.51100000000E-03 0. -1.
    9900012    2    1    2    0    0  0.31348671358E+02  0.19740520056E+01 -0.54851634340E+01  0.59301904361E+02  0.49999927657E+02 0.  0.
        -12    1    1    2    0    0 -0.31348671358E+02 -0.19740520056E+01  0.54851634340E+01  0.31886095639E+02  0.00000000000E+00 0.  1.
         11    1    3    3    0    0 -0.23506850992E+01  0.25963247697E+00 -0.56172377236E+01  0.60947919869E+01  0.51100000000E-03 0. -1.
        -11    1    3    3    0    0  0.18892197158E+01  0.74390174261E+01  0.15592118515E+02  0.17378788550E+02  0.51100000000E-03 0.  1.
         12    1    3    3    0    0  0.31810136741E+02 -0.57245978975E+01 -0.15460044226E+02  0.35828323824E+02  0.00000000000E+00 0. -1.
</event>
<event>
 7    1  0.6515090E-012  0.5930193E+02  0.7816164E-02  0.1266605E+00
        -11   -1    0    0    0    0  0.00000000000E+00  0.00000000000E+00  0.45593999997E+02  0.45594000000E+02  0.51100000000E-03 0.  1.
         11   -1    0    0    0    0 -0.00000000000E+00 -0.00000000000E+00 -0.45593999997E+02  0.45594000000E+02  0.51100000000E-03 0. -1.
    9900012    2    1    2    0    0  0.17451877125E+02 -0.12618995205E+02 -0.23514133686E+02  0.59301928775E+02  0.49999972183E+02 0.  0.
        -12    1    1    2    0    0 -0.17451877125E+02  0.12618995205E+02  0.23514133686E+02  0.31886071225E+02  0.00000000000E+00 0.  1.
         11    1    3    3    0    0  0.11397295210E+02  0.19186450048E+01 -0.16439410309E+02  0.20095615152E+02  0.51100000000E-03 0. -1.
        -11    1    3    3    0    0 -0.48095212399E+01  0.75209348688E+00 -0.17210984199E+02  0.17886171098E+02  0.51100000000E-03 0.  1.
         12    1    3    3    0    0  0.10864103154E+02 -0.15289733696E+02  0.10136260823E+02  0.21320142526E+02  0.00000000000E+00 0. -1.
</event>
<event>
 7    1  0.6515090E-012  0.5930192E+02  0.7816164E-02  0.1266605E+00
        -11   -1    0    0    0    0  0.00000000000E+00  0.00000000000E+00  0.45593999997E+02  0.45594000000E+02  0.51100000000E-03 0. -1.
         11   -1    0    0    0    0 -0.00000000000E+00 -0.00000000000E+00 -0.45593999997E+02  0.45594000000E+02  0.51100000000E-03 0.  1.
    9900012    2    1    2    0    0  0.21876342312E+02 -0.23197465931E+02 -0.15976777690E+00  0.59301916761E+02  0.49999950273E+02 0.  0.
        -12    1    1    2    0    0 -0.21876342312E+02  0.23197465931E+02  0.15976777690E+00  0.31886083239E+02  0.00000000000E+00 0.  1.
         11    1    3    3    0    0 -0.70825703912E+01 -0.11951930787E+02  0.43758370776E+01  0.14565692680E+02  0.51100000000E-03 0. -1.
        -11    1    3    3    0    0  0.89500157501E+01 -0.18505669681E+02 -0.98545586348E+01  0.22796379503E+02  0.51100000000E-03 0.  1.
        -12    1    3    3    0    0  0.20008896953E+02  0.72601345374E+01  0.53189537803E+01  0.21939844578E+02  0.00000000000E+00 0.  1.
</event>
<event>
 7    1  0.6515090E-012  0.5930189E+02  0.7816164E-02  0.1266605E+00
        -11   -1    0    0    0    0  0.00000000000E+00  0.00000000000E+00  0.45593999997E+02  0.45594000000E+02  0.51100000000E-03 0.  1.
         11   -1    0    0    0    0 -0.00000000000E+00 -0.00000000000E+00 -0.45593999997E+02  0.45594000000E+02  0.51100000000E-03 0. -1.
    9900012    2    1    2    0    0  0.54946722832E+01 -0.55206449940E+01 -0.30920142981E+02  0.59301887245E+02  0.49999896442E+02 0.  0.
        -12    1    1    2    0    0 -0.54946722832E+01  0.55206449940E+01  0.30920142981E+02  0.31886112755E+02  0.00000000000E+00 0.  1.
         11    1    3    3    0    0  0.83266653799E+01  0.67838195048E+01 -0.13879340798E+02  0.17549634317E+02  0.51100000000E-03 0. -1.
        -11    1    3    3    0    0  0.66570832745E+01 -0.89672415232E+01  0.86734536429E+01  0.14140614436E+02  0.51100000000E-03 0.  1.
         12    1    3    3    0    0 -0.94890763712E+01 -0.33372229756E+01 -0.25714255826E+02  0.27611638493E+02  0.00000000000E+00 0. -1.
</event>
<event>
 7    1  0.6515090E-012  0.5930195E+02  0.7816164E-02  0.1266605E+00
        -11   -1    0    0    0    0  0.00000000000E+00  0.00000000000E+00  0.45593999997E+02  0.45594000000E+02  0.51100000000E-03 0.  1.
         11   -1    0    0    0    0 -0.00000000000E+00 -0.00000000000E+00 -0.45593999997E+02  0.45594000000E+02  0.51100000000E-03 0. -1.
    9900012    2    1    2    0    0 -0.26093034537E+02 -0.11233359950E+02 -0.14480523335E+02  0.59301946886E+02  0.50000005213E+02 0.  0.
        -12    1    1    2    0    0  0.26093034537E+02  0.11233359950E+02  0.14480523335E+02  0.31886053114E+02  0.00000000000E+00 0.  1.
         11    1    3    3    0    0  0.99022508033E+00  0.80000280067E+01 -0.54054526693E+00  0.80791820913E+01  0.51100000000E-03 0. -1.
        -11    1    3    3    0    0 -0.99270703269E+01  0.91939317830E+01  0.31312824131E+01  0.13888125745E+02  0.51100000000E-03 0.  1.
        -12    1    3    3    0    0 -0.17156189290E+02 -0.28427319740E+02 -0.17071260481E+02  0.37334639050E+02  0.00000000000E+00 0.  1.
</event>
<event>
 7    1  0.6515090E-012  0.5930196E+02  0.7816164E-02  0.1266605E+00
        -11   -1    0    0    0    0  0.00000000000E+00  0.00000000000E+00  0.45593999997E+02  0.45594000000E+02  0.51100000000E-03 0.  1.
         11   -1    0    0    0    0 -0.00000000000E+00 -0.00000000000E+00 -0.45593999997E+02  0.45594000000E+02  0.51100000000E-03 0. -1.
    9900012    2    1    2    0    0  0.24240131149E+02  0.10873702819E+02 -0.17632301685E+02  0.59301961773E+02  0.50000032362E+02 0.  0.
        -12    1    1    2    0    0 -0.24240131149E+02 -0.10873702819E+02  0.17632301685E+02  0.31886038227E+02  0.00000000000E+00 0.  1.
         11    1    3    3    0    0  0.20513973305E+02 -0.51069261711E+01 -0.72059101514E+01  0.22334478661E+02  0.51100000000E-03 0. -1.
        -11    1    3    3    0    0  0.16612152017E+01  0.71620628279E+01  0.11270227036E+02  0.13456329277E+02  0.51100000000E-03 0.  1.
         12    1    3    3    0    0  0.20649426423E+01  0.88185661618E+01 -0.21696618570E+02  0.23511153835E+02  0.00000000000E+00 0. -1.
</event>
<event>
 7    1  0.6515090E-012  0.5930194E+02  0.7816164E-02  0.1266605E+00
        -11   -1    0    0    0    0  0.00000000000E+00  0.00000000000E+00  0.45593999997E+02  0.45594000000E+02  0.51100000000E-03 0.  1.
         11   -1    0    0    0    0 -0.00000000000E+00 -0.00000000000E+00 -0.45593999997E+02  0.45594000000E+02  0.51100000000E-03 0. -1.
    9900012    2    1    2    0    0  0.21459866477E+02 -0.17347330323E+01 -0.23519897486E+02  0.59301941202E+02  0.49999994846E+02 0.  0.
        -12    1    1    2    0    0 -0.21459866477E+02  0.17347330323E+01  0.23519897486E+02  0.31886058798E+02  0.00000000000E+00 0.  1.
         11    1    3    3    0    0 -0.42110987326E+01  0.33648331086E+01 -0.78382299553E+01  0.95127968273E+01  0.51100000000E-03 0. -1.
        -11    1    3    3    0    0  0.25586277581E+02 -0.15394137767E+02 -0.22545635381E+02  0.37415808866E+02  0.51100000000E-03 0.  1.
         12    1    3    3    0    0  0.84687628964E-01  0.10294571626E+02  0.68639678505E+01  0.12373335509E+02  0.00000000000E+00 0. -1.
</event>
<event>
 7    1  0.6515090E-012  0.5930192E+02  0.7816164E-02  0.1266605E+00
        -11   -1    0    0    0    0  0.00000000000E+00  0.00000000000E+00  0.45593999997E+02  0.45594000000E+02  0.51100000000E-03 0. -1.
         11   -1    0    0    0    0 -0.00000000000E+00 -0.00000000000E+00 -0.45593999997E+02  0.45594000000E+02  0.51100000000E-03 0.  1.
    9900012    2    1    2    0    0 -0.28283728382E+02 -0.11910489381E+02  0.86540753934E+01  0.59301920445E+02  0.49999956991E+02 0.  0.
        -12    1    1    2    0    0  0.28283728382E+02  0.11910489381E+02 -0.86540753934E+01  0.31886079555E+02  0.00000000000E+00 0.  1.
         11    1    3    3    0    0 -0.28151578769E+02 -0.78664704225E+01  0.11135849475E+02  0.31279384391E+02  0.51100000000E-03 0. -1.
        -11    1    3    3    0    0 -0.34440570961E+01 -0.10845414236E+02 -0.11549599954E+02  0.16213506672E+02  0.51100000000E-03 0.  1.
        -12    1    3    3    0    0  0.33119074835E+01  0.68013952771E+01  0.90678258723E+01  0.11809029382E+02  0.00000000000E+00 0.  1.
</event>
<event>
 7    1  0.6515090E-012  0.5930193E+02  0.7816164E-02  0.1266605E+00
        -11   -1    0    0    0    0  0.00000000000E+00  0.00000000000E+00  0.45593999997E+02  0.45594000000E+02  0.51100000000E-03 0. -1.
         11   -1    0    0    0    0 -0.00000000000E+00 -0.00000000000E+00 -0.45593999997E+02  0.45594000000E+02  0.51100000000E-03 0.  1.
    9900012    2    1    2    0    0  0.24989753985E+01 -0.20163762011E+02  0.24574357861E+02  0.59301933438E+02  0.49999980687E+02 0.  0.
        -12    1    1    2    0    0 -0.24989753985E+01  0.20163762011E+02 -0.24574357861E+02  0.31886066562E+02  0.00000000000E+00 0.  1.
         11    1    3    3    0    0 -0.12500460844E+02 -0.46390658733E+01 -0.48928664440E+00  0.13342483096E+02  0.51100000000E-03 0. -1.
        -11    1    3    3    0    0 -0.57003645394E+01  0.46163687496E+01 -0.55070593822E+00  0.73558339844E+01  0.51100000000E-03 0.  1.
         12    1    3    3    0    0  0.20699800782E+02 -0.20141064888E+02  0.25614350444E+02  0.38603616358E+02  0.00000000000E+00 0. -1.
</event>
<event>
 7    1  0.6515090E-012  0.5930193E+02  0.7816164E-02  0.1266605E+00
        -11   -1    0    0    0    0  0.00000000000E+00  0.00000000000E+00  0.45593999997E+02  0.45594000000E+02  0.51100000000E-03 0.  1.
         11   -1    0    0    0    0 -0.00000000000E+00 -0.00000000000E+00 -0.45593999997E+02  0.45594000000E+02  0.51100000000E-03 0. -1.
    9900012    2    1    2    0    0 -0.11913452074E+02  0.28564182917E+02 -0.76732303938E+01  0.59301931714E+02  0.49999977543E+02 0.  0.
        -12    1    1    2    0    0  0.11913452074E+02 -0.28564182917E+02  0.76732303938E+01  0.31886068286E+02  0.00000000000E+00 0.  1.
         11    1    3    3    0    0 -0.64875306235E+01  0.16514265009E+01  0.36311675848E+01  0.76158152136E+01  0.51100000000E-03 0. -1.
        -11    1    3    3    0    0  0.41335545422E+01 -0.10714709905E+02 -0.10524980584E+01  0.11532520710E+02  0.51100000000E-03 0.  1.
         12    1    3    3    0    0 -0.95594759932E+01  0.37627466321E+02 -0.10251899920E+02  0.40153595791E+02  0.00000000000E+00 0. -1.
</event>
<event>
 7    1  0.6515090E-012  0.5930195E+02  0.7816164E-02  0.1266605E+00
        -11   -1    0    0    0    0  0.00000000000E+00  0.00000000000E+00  0.45593999997E+02  0.45594000000E+02  0.51100000000E-03 0.  1.
         11   -1    0    0    0    0 -0.00000000000E+00 -0.00000000000E+00 -0.45593999997E+02  0.45594000000E+02  0.51100000000E-03 0. -1.
    9900012    2    1    2    0    0  0.26607611897E+02 -0.12383880845E+02 -0.12465732017E+02  0.59301953046E+02  0.50000016446E+02 0.  0.
        -12    1    1    2    0    0 -0.26607611897E+02  0.12383880845E+02  0.12465732017E+02  0.31886046954E+02  0.00000000000E+00 0.  1.
         11    1    3    3    0    0  0.71113898751E-01 -0.38730418991E+01 -0.28477470964E+01  0.48078243026E+01  0.51100000000E-03 0. -1.
        -11    1    3    3    0    0 -0.50704983210E+01  0.11234087021E+02 -0.11932109843E+02  0.17154880064E+02  0.51100000000E-03 0.  1.
        -12    1    3    3    0    0  0.31606996319E+02 -0.19744925967E+02  0.23141249225E+01  0.37339248679E+02  0.00000000000E+00 0.  1.
</event>
<event>
 7    1  0.6515090E-012  0.5930191E+02  0.7816164E-02  0.1266605E+00
        -11   -1    0    0    0    0  0.00000000000E+00  0.00000000000E+00  0.45593999997E+02  0.45594000000E+02  0.51100000000E-03 0.  1.
         11   -1    0    0    0    0 -0.00000000000E+00 -0.00000000000E+00 -0.45593999997E+02  0.45594000000E+02  0.51100000000E-03 0. -1.
    9900012    2    1    2    0    0 -0.22218165000E+02  0.22494213882E+02 -0.41335517377E+01  0.59301909552E+02  0.49999937124E+02 0.  0.
        -12    1    1    2    0    0  0.22218165000E+02 -0.22494213882E+02  0.41335517377E+01  0.31886090448E+02  0.00000000000E+00 0.  1.
         11    1    3    3    0    0 -0.95635857892E+01  0.16141646384E+02  0.11900266592E+02  0.22217814167E+02  0.51100000000E-03 0. -1.
        -11    1    3    3    0    0  0.10031911354E+02  0.26566469876E+01 -0.61537030751E+01  0.12065035450E+02  0.51100000000E-03 0.  1.
         12    1    3    3    0    0 -0.22686490564E+02  0.36959205101E+01 -0.98801152547E+01  0.25019059934E+02  0.00000000000E+00 0. -1.
</event>
<event>
 7    1  0.6515090E-012  0.5930197E+02  0.7816164E-02  0.1266605E+00
        -11   -1    0    0    0    0  0.00000000000E+00  0.00000000000E+00  0.45593999997E+02  0.45594000000E+02  0.51100000000E-03 0.  1.
         11   -1    0    0    0    0 -0.00000000000E+00 -0.00000000000E+00 -0.45593999997E+02  0.45594000000E+02  0.51100000000E-03 0. -1.
    9900012    2    1    2    0    0  0.27707951594E+02 -0.46287611989E+01 -0.15085193986E+02  0.59301967174E+02  0.50000042213E+02 0.  0.
        -12    1    1    2    0    0 -0.27707951594E+02  0.46287611989E+01  0.15085193986E+02  0.31886032826E+02  0.00000000000E+00 0.  1.
         11    1    3    3    0    0  0.56202810802E+01  0.23012618980E+01 -0.15275850590E+02  0.16438825301E+02  0.51100000000E-03 0. -1.
        -11    1    3    3    0    0 -0.99325875644E+01 -0.15817613607E+01  0.23463546487E+01  0.10327809309E+02  0.51100000000E-03 0.  1.
         12    1    3    3    0    0  0.32020258078E+02 -0.53482617362E+01 -0.21556980439E+01  0.32535332564E+02  0.00000000000E+00 0. -1.
</event>
<event>
 7    1  0.6515090E-012  0.5930196E+02  0.7816164E-02  0.1266605E+00
        -11   -1    0    0    0    0  0.00000000000E+00  0.00000000000E+00  0.45593999997E+02  0.45594000000E+02  0.51100000000E-03 0. -1.
         11   -1    0    0    0    0 -0.00000000000E+00 -0.00000000000E+00 -0.45593999997E+02  0.45594000000E+02  0.51100000000E-03 0.  1.
    9900012    2    1    2    0    0 -0.82655838452E+01 -0.22983650139E+02 -0.20497597200E+02  0.59301960092E+02  0.50000029298E+02 0.  0.
        -12    1    1    2    0    0  0.82655838452E+01  0.22983650139E+02  0.20497597200E+02  0.31886039908E+02  0.00000000000E+00 0.  1.
         11    1    3    3    0    0  0.48950978761E+00  0.65454934315E+01  0.14297033357E+01  0.67176748941E+01  0.51100000000E-03 0. -1.
        -11    1    3    3    0    0  0.31038303767E+01 -0.59216899506E+01 -0.25100559255E+02  0.25975724245E+02  0.51100000000E-03 0.  1.
         12    1    3    3    0    0 -0.11858924009E+02 -0.23607453620E+02  0.31732587195E+01  0.26608560953E+02  0.00000000000E+00 0. -1.
</event>
<event>
 7    1  0.6515090E-012  0.5930191E+02  0.7816164E-02  0.1266605E+00
        -11   -1    0    0    0    0  0.00000000000E+00  0.00000000000E+00  0.45593999997E+02  0.45594000000E+02  0.51100000000E-03 0. -1.
         11   -1    0    0    0    0 -0.00000000000E+00 -0.00000000000E+00 -0.45593999997E+02  0.45594000000E+02  0.51100000000E-03 0.  1.
    9900012    2    1    2    0    0  0.49814506511E+00  0.24929921936E+02  0.19873934672E+02  0.59301914703E+02  0.49999946519E+02 0.  0.
        -12    1    1    2    0    0 -0.49814506511E+00 -0.24929921936E+02 -0.19873934672E+02  0.31886085297E+02  0.00000000000E+00 0.  1.
         11    1    3    3    0    0  0.22531241865E+01  0.28181539235E+01  0.13784157560E+02  0.14248563437E+02  0.51100000000E-03 0.  1.
        -11    1    3    3    0    0 -0.92356331290E+01  0.27868127890E+02  0.14196501732E+02  0.32610889793E+02  0.51100000000E-03 0. -1.
        -12    1    3    3    0    0  0.74806540077E+01 -0.57563598782E+01 -0.81067246203E+01  0.12442461473E+02  0.00000000000E+00 0.  1.
</event>
<event>
 7    1  0.6515090E-012  0.5930195E+02  0.7816164E-02  0.1266605E+00
        -11   -1    0    0    0    0  0.00000000000E+00  0.00000000000E+00  0.45593999997E+02  0.45594000000E+02  0.51100000000E-03 0. -1.
         11   -1    0    0    0    0 -0.00000000000E+00 -0.00000000000E+00 -0.45593999997E+02  0.45594000000E+02  0.51100000000E-03 0.  1.
    9900012    2    1    2    0    0  0.26309537573E+02 -0.15449146919E+02  0.92656600265E+01  0.59301947194E+02  0.50000005774E+02 0.  0.
        -12    1    1    2    0    0 -0.26309537573E+02  0.15449146919E+02 -0.92656600265E+01  0.31886052806E+02  0.00000000000E+00 0.  1.
         11    1    3    3    0    0  0.23844954991E+02 -0.20534194902E+02  0.84456980881E+00  0.31479331906E+02  0.51100000000E-03 0. -1.
        -11    1    3    3    0    0 -0.43581801688E+01  0.38053970181E+01 -0.80701841770E+01  0.99298868957E+01  0.51100000000E-03 0.  1.
         12    1    3    3    0    0  0.68227627506E+01  0.12796509654E+01  0.16491274395E+02  0.17892728392E+02  0.00000000000E+00 0. -1.
</event>
<event>
 7    1  0.6515090E-012  0.5930194E+02  0.7816164E-02  0.1266605E+00
        -11   -1    0    0    0    0  0.00000000000E+00  0.00000000000E+00  0.45593999997E+02  0.45594000000E+02  0.51100000000E-03 0.  1.
         11   -1    0    0    0    0 -0.00000000000E+00 -0.00000000000E+00 -0.45593999997E+02  0.45594000000E+02  0.51100000000E-03 0. -1.
    9900012    2    1    2    0    0 -0.20508051772E+02  0.33298899613E+01 -0.24187863424E+02  0.59301935776E+02  0.49999984952E+02 0.  0.
        -12    1    1    2    0    0  0.20508051772E+02 -0.33298899613E+01  0.24187863424E+02  0.31886064224E+02  0.00000000000E+00 0.  1.
         11    1    3    3    0    0  0.62278714246E+01 -0.26674543658E+01 -0.68509360013E-01  0.67754253792E+01  0.51100000000E-03 0. -1.
        -11    1    3    3    0    0  0.90289556018E+01  0.41266458836E+01 -0.11826866646E+01  0.99974993631E+01  0.51100000000E-03 0.  1.
         12    1    3    3    0    0 -0.35764878799E+02  0.18706984435E+01 -0.22936667400E+02  0.42529011034E+02  0.00000000000E+00 0. -1.
</event>
<event>
 7    1  0.6515090E-012  0.5930196E+02  0.7816164E-02  0.1266605E+00
        -11   -1    0    0    0    0  0.00000000000E+00  0.00000000000E+00  0.45593999997E+02  0.45594000000E+02  0.51100000000E-03 0.  1.
         11   -1    0    0    0    0 -0.00000000000E+00 -0.00000000000E+00 -0.45593999997E+02  0.45594000000E+02  0.51100000000E-03 0. -1.
    9900012    2    1    2    0    0  0.16363416166E+02 -0.24723981389E+02 -0.11733844320E+02  0.59301956864E+02  0.50000023410E+02 0.  0.
        -12    1    1    2    0    0 -0.16363416166E+02  0.24723981389E+02  0.11733844320E+02  0.31886043136E+02  0.00000000000E+00 0.  1.
         11    1    3    3    0    0  0.19426028051E+02  0.59998565756E+01 -0.11835377276E+02  0.23525411799E+02  0.51100000000E-03 0. -1.
        -11    1    3    3    0    0 -0.48926670220E+01 -0.23107234207E+00  0.17062348556E+01  0.51867930997E+01  0.51100000000E-03 0.  1.
        -12    1    3    3    0    0  0.18300551367E+01 -0.30492765622E+02 -0.16047019000E+01  0.30589751965E+02  0.00000000000E+00 0.  1.
</event>
<event>
 7    1  0.6515090E-012  0.5930194E+02  0.7816164E-02  0.1266605E+00
        -11   -1    0    0    0    0  0.00000000000E+00  0.00000000000E+00  0.45593999997E+02  0.45594000000E+02  0.51100000000E-03 0. -1.
         11   -1    0    0    0    0 -0.00000000000E+00 -0.00000000000E+00 -0.45593999997E+02  0.45594000000E+02  0.51100000000E-03 0.  1.
    9900012    2    1    2    0    0  0.12459792970E+02  0.11299278454E+02  0.27088758486E+02  0.59301937673E+02  0.49999988410E+02 0.  0.
        -12    1    1    2    0    0 -0.12459792970E+02 -0.11299278454E+02 -0.27088758486E+02  0.31886062327E+02  0.00000000000E+00 0.  1.
         11    1    3    3    0    0  0.71565048484E+01  0.11215251461E+02  0.34779157443E+00  0.13308583179E+02  0.51100000000E-03 0. -1.
        -11    1    3    3    0    0  0.15163077475E+02  0.73158719889E+01  0.27355268673E+00  0.16837925430E+02  0.51100000000E-03 0.  1.
        -12    1    3    3    0    0 -0.98597893533E+01 -0.72318449962E+01  0.26467414225E+02  0.29155429064E+02  0.00000000000E+00 0.  1.
</event>
<event>
 7    1  0.6515090E-012  0.5930195E+02  0.7816164E-02  0.1266605E+00
        -11   -1    0    0    0    0  0.00000000000E+00  0.00000000000E+00  0.45593999997E+02  0.45594000000E+02  0.51100000000E-03 0. -1.
         11   -1    0    0    0    0 -0.00000000000E+00 -0.00000000000E+00 -0.45593999997E+02  0.45594000000E+02  0.51100000000E-03 0.  1.
    9900012    2    1    2    0    0  0.12525937800E+02  0.24407455899E+02  0.16251065988E+02  0.59301950276E+02  0.50000011396E+02 0.  0.
        -12    1    1    2    0    0 -0.12525937800E+02 -0.24407455899E+02 -0.16251065988E+02  0.31886049724E+02  0.00000000000E+00 0.  1.
         11    1    3    3    0    0  0.17124857714E+02  0.12445791197E+02  0.26919762965E+02  0.34246636457E+02  0.51100000000E-03 0. -1.
        -11    1    3    3    0    0  0.52558853560E+01  0.40939363411E+00  0.16265321782E+01  0.55170228575E+01  0.51100000000E-03 0.  1.
        -12    1    3    3    0    0 -0.98548052694E+01  0.11552271067E+02 -0.12295229155E+02  0.19538290962E+02  0.00000000000E+00 0.  1.
</event>
<event>
 7    1  0.6515090E-012  0.5930193E+02  0.7816164E-02  0.1266605E+00
        -11   -1    0    0    0    0  0.00000000000E+00  0.00000000000E+00  0.45593999997E+02  0.45594000000E+02  0.51100000000E-03 0. -1.
         11   -1    0    0    0    0 -0.00000000000E+00 -0.00000000000E+00 -0.45593999997E+02  0.45594000000E+02  0.51100000000E-03 0.  1.
    9900012    2    1    2    0    0  0.19292393625E+02  0.25370668921E+02 -0.92407877006E+00  0.59301933845E+02  0.49999981429E+02 0.  0.
        -12    1    1    2    0    0 -0.19292393625E+02 -0.25370668921E+02  0.92407877006E+00  0.31886066155E+02  0.00000000000E+00 0.  1.
         11    1    3    3    0    0  0.28591432942E+02  0.15656889880E+02 -0.14674877984E+02  0.35748570357E+02  0.51100000000E-03 0. -1.
        -11    1    3    3    0    0 -0.49634926652E+01  0.11849862394E+02  0.54660188788E+01  0.13961835869E+02  0.51100000000E-03 0.  1.
        -12    1    3    3    0    0 -0.43355466527E+01 -0.21360833533E+01  0.82847803352E+01  0.95915276193E+01  0.00000000000E+00 0.  1.
</event>
<event>
 7    1  0.6515090E-012  0.5930194E+02  0.7816164E-02  0.1266605E+00
        -11   -1    0    0    0    0  0.00000000000E+00  0.00000000000E+00  0.45593999997E+02  0.45594000000E+02  0.51100000000E-03 0.  1.
         11   -1    0    0    0    0 -0.00000000000E+00 -0.00000000000E+00 -0.45593999997E+02  0.45594000000E+02  0.51100000000E-03 0. -1.
    9900012    2    1    2    0    0 -0.26217920753E+02 -0.13725402884E+02 -0.11872447949E+02  0.59301936065E+02  0.49999985478E+02 0.  0.
        -12    1    1    2    0    0  0.26217920753E+02  0.13725402884E+02  0.11872447949E+02  0.31886063935E+02  0.00000000000E+00 0.  1.
         11    1    3    3    0    0 -0.62753051614E+01  0.46389939041E+01  0.59754656349E+00  0.78266711613E+01  0.51100000000E-03 0.  1.
        -11    1    3    3    0    0 -0.14097221014E+02 -0.31593902557E+02 -0.13111899514E+02  0.36997678686E+02  0.51100000000E-03 0. -1.
         12    1    3    3    0    0 -0.58453945779E+01  0.13229505769E+02  0.64190500138E+00  0.14477586217E+02  0.00000000000E+00 0. -1.
</event>
<event>
 7    1  0.6515090E-012  0.5930196E+02  0.7816164E-02  0.1266605E+00
        -11   -1    0    0    0    0  0.00000000000E+00  0.00000000000E+00  0.45593999997E+02  0.45594000000E+02  0.51100000000E-03 0. -1.
         11   -1    0    0    0    0 -0.00000000000E+00 -0.00000000000E+00 -0.45593999997E+02  0.45594000000E+02  0.51100000000E-03 0.  1.
    9900012    2    1    2    0    0  0.20496335360E+02  0.11291139276E+02 -0.21659410345E+02  0.59301958449E+02  0.50000026301E+02 0.  0.
        -12    1    1    2    0    0 -0.20496335360E+02 -0.11291139276E+02  0.21659410345E+02  0.31886041551E+02  0.00000000000E+00 0.  1.
         11    1    3    3    0    0 -0.12639241891E+01 -0.29942214074E+01  0.60711534862E+00  0.33062751700E+01  0.51100000000E-03 0. -1.
        -11    1    3    3    0    0  0.62298302606E+01 -0.14118969370E+02  0.19671762638E+01  0.15557180460E+02  0.51100000000E-03 0.  1.
         12    1    3    3    0    0  0.15530429288E+02  0.28404330054E+02 -0.24233701957E+02  0.40438502819E+02  0.00000000000E+00 0. -1.
</event>
<event>
 7    1  0.6515090E-012  0.5930189E+02  0.7816164E-02  0.1266605E+00
        -11   -1    0    0    0    0  0.00000000000E+00  0.00000000000E+00  0.45593999997E+02  0.45594000000E+02  0.51100000000E-03 0. -1.
         11   -1    0    0    0    0 -0.00000000000E+00 -0.00000000000E+00 -0.45593999997E+02  0.45594000000E+02  0.51100000000E-03 0.  1.
    9900012    2    1    2    0    0 -0.10115881178E+01  0.71245700430E+01  0.31063502505E+02  0.59301890223E+02  0.49999901874E+02 0.  0.
        -12    1    1    2    0    0  0.10115881178E+01 -0.71245700430E+01 -0.31063502505E+02  0.31886109777E+02  0.00000000000E+00 0.  1.
         11    1    3    3    0    0  0.64469640078E+01 -0.67399680554E+01  0.30963377328E+01  0.98274015855E+01  0.51100000000E-03 0. -1.
        -11    1    3    3    0    0 -0.78254221747E+01  0.26748173052E+02  0.20282981652E+02  0.34468845916E+02  0.51100000000E-03 0.  1.
         12    1    3    3    0    0  0.36687004912E+00 -0.12883634954E+02  0.76841831200E+01  0.15005642721E+02  0.00000000000E+00 0. -1.
</event>
<event>
 7    1  0.6515090E-012  0.5930193E+02  0.7816164E-02  0.1266605E+00
        -11   -1    0    0    0    0  0.00000000000E+00  0.00000000000E+00  0.45593999997E+02  0.45594000000E+02  0.51100000000E-03 0.  1.
         11   -1    0    0    0    0 -0.00000000000E+00 -0.00000000000E+00 -0.45593999997E+02  0.45594000000E+02  0.51100000000E-03 0. -1.
    9900012    2    1    2    0    0  0.20145295784E+02 -0.13487133459E+02 -0.20711966885E+02  0.59301932770E+02  0.49999979469E+02 0.  0.
        -12    1    1    2    0    0 -0.20145295784E+02  0.13487133459E+02  0.20711966885E+02  0.31886067230E+02  0.00000000000E+00 0.  1.
         11    1    3    3    0    0 -0.33396759512E+01 -0.81665743421E+01 -0.42175217678E+01  0.97792567236E+01  0.51100000000E-03 0. -1.
        -11    1    3    3    0    0  0.18147443952E+02 -0.17112666710E+02 -0.23954369683E+02  0.34583014777E+02  0.51100000000E-03 0.  1.
        -12    1    3    3    0    0  0.53375277829E+01  0.11792107593E+02  0.74599245664E+01  0.14939661269E+02  0.00000000000E+00 0.  1.
</event>
<event>
 7    1  0.6515090E-012  0.5930194E+02  0.7816164E-02  0.1266605E+00
        -11   -1    0    0    0    0  0.00000000000E+00  0.00000000000E+00  0.45593999997E+02  0.45594000000E+02  0.51100000000E-03 0. -1.
         11   -1    0    0    0    0 -0.00000000000E+00 -0.00000000000E+00 -0.45593999997E+02  0.45594000000E+02  0.51100000000E-03 0.  1.
    9900012    2    1    2    0    0 -0.22812497609E+02  0.11035947684E+02 -0.19352478420E+02  0.59301943338E+02  0.49999998742E+02 0.  0.
        -12    1    1    2    0    0  0.22812497609E+02 -0.11035947684E+02  0.19352478420E+02  0.31886056662E+02  0.00000000000E+00 0.  1.
         11    1    3    3    0    0 -0.20732558491E+02 -0.13286378567E+02 -0.10107899104E+02  0.26618348212E+02  0.51100000000E-03 0. -1.
        -11    1    3    3    0    0 -0.47504475779E+01  0.82028352246E-01  0.27678981256E+01  0.54986126555E+01  0.51100000000E-03 0.  1.
        -12    1    3    3    0    0  0.26705084600E+01  0.24240297898E+02 -0.12012477442E+02  0.27184982470E+02  0.00000000000E+00 0.  1.
</event>
<event>
 7    1  0.6515090E-012  0.5930195E+02  0.7816164E-02  0.1266605E+00
        -11   -1    0    0    0    0  0.00000000000E+00  0.00000000000E+00  0.45593999997E+02  0.45594000000E+02  0.51100000000E-03 0.  1.
         11   -1    0    0    0    0 -0.00000000000E+00 -0.00000000000E+00 -0.45593999997E+02  0.45594000000E+02  0.51100000000E-03 0. -1.
    9900012    2    1    2    0    0  0.13503647756E+02 -0.28384637444E+02 -0.53557701550E+01  0.59301946316E+02  0.50000004174E+02 0.  0.
        -12    1    1    2    0    0 -0.13503647756E+02  0.28384637444E+02  0.53557701550E+01  0.31886053684E+02  0.00000000000E+00 0.  1.
         11    1    3    3    0    0  0.46339074322E+01 -0.15564366273E+01 -0.90190355773E+01  0.10258586456E+02  0.51100000000E-03 0. -1.
        -11    1    3    3    0    0  0.19271017408E+01  0.83928120404E+01 -0.75309487540E+01  0.11439764179E+02  0.51100000000E-03 0.  1.
         12    1    3    3    0    0  0.69426385831E+01 -0.35221012857E+02  0.11194214176E+02  0.37603595682E+02  0.00000000000E+00 0. -1.
</event>
<event>
 7    1  0.6515090E-012  0.5930196E+02  0.7816164E-02  0.1266605E+00
        -11   -1    0    0    0    0  0.00000000000E+00  0.00000000000E+00  0.45593999997E+02  0.45594000000E+02  0.51100000000E-03 0.  1.
         11   -1    0    0    0    0 -0.00000000000E+00 -0.00000000000E+00 -0.45593999997E+02  0.45594000000E+02  0.51100000000E-03 0. -1.
    9900012    2    1    2    0    0 -0.58454783263E+00 -0.30512003944E+02 -0.92409584239E+01  0.59301962406E+02  0.50000033518E+02 0.  0.
        -12    1    1    2    0    0  0.58454783263E+00  0.30512003944E+02  0.92409584239E+01  0.31886037594E+02  0.00000000000E+00 0.  1.
         11    1    3    3    0    0 -0.79986012923E+01 -0.26812668153E+02 -0.29513853585E+01  0.28135519756E+02  0.51100000000E-03 0. -1.
        -11    1    3    3    0    0 -0.60849685760E+01  0.32499352757E+01 -0.12883085244E+02  0.14613788267E+02  0.51100000000E-03 0.  1.
        -12    1    3    3    0    0  0.13499022036E+02 -0.69492710665E+01  0.65935121784E+01  0.16552654383E+02  0.00000000000E+00 0.  1.
</event>
<event>
 7    1  0.6515090E-012  0.5930195E+02  0.7816164E-02  0.1266605E+00
        -11   -1    0    0    0    0  0.00000000000E+00  0.00000000000E+00  0.45593999997E+02  0.45594000000E+02  0.51100000000E-03 0. -1.
         11   -1    0    0    0    0 -0.00000000000E+00 -0.00000000000E+00 -0.45593999997E+02  0.45594000000E+02  0.51100000000E-03 0.  1.
    9900012    2    1    2    0    0  0.25687298838E+02 -0.11986839470E+02  0.14601314434E+02  0.59301952498E+02  0.50000015448E+02 0.  0.
        -12    1    1    2    0    0 -0.25687298838E+02  0.11986839470E+02 -0.14601314434E+02  0.31886047502E+02  0.00000000000E+00 0.  1.
         11    1    3    3    0    0  0.12277305378E+02 -0.11154542375E+02  0.20057691508E+02  0.26028196861E+02  0.51100000000E-03 0. -1.
        -11    1    3    3    0    0  0.15376095212E+02  0.11967756823E+02 -0.76382458037E+00  0.19499613730E+02  0.51100000000E-03 0.  1.
         12    1    3    3    0    0 -0.19661017518E+01 -0.12800053918E+02 -0.46925524935E+01  0.13774141908E+02  0.00000000000E+00 0. -1.
</event>
<event>
 7    1  0.6515090E-012  0.5930194E+02  0.7816164E-02  0.1266605E+00
        -11   -1    0    0    0    0  0.00000000000E+00  0.00000000000E+00  0.45593999997E+02  0.45594000000E+02  0.51100000000E-03 0.  1.
         11   -1    0    0    0    0 -0.00000000000E+00 -0.00000000000E+00 -0.45593999997E+02  0.45594000000E+02  0.51100000000E-03 0. -1.
    9900012    2    1    2    0    0  0.20222141963E+02  0.24343970235E+02  0.38931741013E+01  0.59301941652E+02  0.49999995667E+02 0.  0.
        -12    1    1    2    0    0 -0.20222141963E+02 -0.24343970235E+02 -0.38931741013E+01  0.31886058348E+02  0.00000000000E+00 0.  1.
         11    1    3    3    0    0  0.17676588670E+02  0.30670462863E+02 -0.74843603909E+01  0.36182243296E+02  0.51100000000E-03 0. -1.
        -11    1    3    3    0    0 -0.16723676867E+01  0.48587407334E+01  0.97953828703E+01  0.11061360722E+02  0.51100000000E-03 0.  1.
        -12    1    3    3    0    0  0.42179209803E+01 -0.11185233361E+02  0.15821516219E+01  0.12058337634E+02  0.00000000000E+00 0.  1.
</event>
<event>
 7    1  0.6515090E-012  0.5930197E+02  0.7816164E-02  0.1266605E+00
        -11   -1    0    0    0    0  0.00000000000E+00  0.00000000000E+00  0.45593999997E+02  0.45594000000E+02  0.51100000000E-03 0.  1.
         11   -1    0    0    0    0 -0.00000000000E+00 -0.00000000000E+00 -0.45593999997E+02  0.45594000000E+02  0.51100000000E-03 0. -1.
    9900012    2    1    2    0    0  0.44764599791E+01 -0.12041482013E+02 -0.29183607941E+02  0.59301969274E+02  0.50000046044E+02 0.  0.
        -12    1    1    2    0    0 -0.44764599791E+01  0.12041482013E+02  0.29183607941E+02  0.31886030726E+02  0.00000000000E+00 0.  1.
         11    1    3    3    0    0  0.33126824323E+00  0.14899165777E+01 -0.69040801938E+01  0.70707788567E+01  0.51100000000E-03 0. -1.
        -11    1    3    3    0    0 -0.56722803739E+01 -0.10909752434E+02 -0.34331513684E+02  0.36467112512E+02  0.51100000000E-03 0.  1.
        -12    1    3    3    0    0  0.98174721098E+01 -0.26216461562E+01  0.12051985937E+02  0.15764077906E+02  0.00000000000E+00 0.  1.
</event>
<event>
 7    1  0.6515090E-012  0.5930194E+02  0.7816164E-02  0.1266605E+00
        -11   -1    0    0    0    0  0.00000000000E+00  0.00000000000E+00  0.45593999997E+02  0.45594000000E+02  0.51100000000E-03 0.  1.
         11   -1    0    0    0    0 -0.00000000000E+00 -0.00000000000E+00 -0.45593999997E+02  0.45594000000E+02  0.51100000000E-03 0. -1.
    9900012    2    1    2    0    0  0.15450534478E+01  0.19983758028E+02 -0.24798846481E+02  0.59301944084E+02  0.50000000102E+02 0.  0.
        -12    1    1    2    0    0 -0.15450534478E+01 -0.19983758028E+02  0.24798846481E+02  0.31886055916E+02  0.00000000000E+00 0.  1.
         11    1    3    3    0    0 -0.68045944673E+01 -0.23384497201E+01 -0.77123757113E+01  0.10547587038E+02  0.51100000000E-03 0. -1.
        -11    1    3    3    0    0 -0.14157888526E+01  0.21295567878E+02  0.72269693785E+01  0.22532970420E+02  0.51100000000E-03 0.  1.
         12    1    3    3    0    0  0.97654367677E+01  0.10266398706E+01 -0.24313440149E+02  0.26221386625E+02  0.00000000000E+00 0. -1.
</event>
<event>
 7    1  0.6515090E-012  0.5930196E+02  0.7816164E-02  0.1266605E+00
        -11   -1    0    0    0    0  0.00000000000E+00  0.00000000000E+00  0.45593999997E+02  0.45594000000E+02  0.51100000000E-03 0. -1.
         11   -1    0    0    0    0 -0.00000000000E+00 -0.00000000000E+00 -0.45593999997E+02  0.45594000000E+02  0.51100000000E-03 0.  1.
    9900012    2    1    2    0    0  0.18711182728E+02 -0.18055814394E+02  0.18455318582E+02  0.59301959536E+02  0.50000028284E+02 0.  0.
        -12    1    1    2    0    0 -0.18711182728E+02  0.18055814394E+02 -0.18455318582E+02  0.31886040464E+02  0.00000000000E+00 0.  1.
         11    1    3    3    0    0  0.42846867305E+01  0.36864354008E+01 -0.44738500160E+01  0.72085838116E+01  0.51100000000E-03 0.  1.
        -11    1    3    3    0    0  0.12880270677E+02 -0.13749148497E+02  0.33689920541E+02  0.38599886055E+02  0.51100000000E-03 0. -1.
         12    1    3    3    0    0  0.15462253201E+01 -0.79931012976E+01 -0.10760751943E+02  0.13493489670E+02  0.00000000000E+00 0. -1.
</event>
<event>
 7    1  0.6515090E-012  0.5930195E+02  0.7816164E-02  0.1266605E+00
        -11   -1    0    0    0    0  0.00000000000E+00  0.00000000000E+00  0.45593999997E+02  0.45594000000E+02  0.51100000000E-03 0. -1.
         11   -1    0    0    0    0 -0.00000000000E+00 -0.00000000000E+00 -0.45593999997E+02  0.45594000000E+02  0.51100000000E-03 0.  1.
    9900012    2    1    2    0    0 -0.59197210386E+01  0.23430720684E+02  0.20800923561E+02  0.59301949917E+02  0.50000010740E+02 0.  0.
        -12    1    1    2    0    0  0.59197210386E+01 -0.23430720684E+02 -0.20800923561E+02  0.31886050083E+02  0.00000000000E+00 0.  1.
         11    1    3    3    0    0 -0.11551115992E+02  0.95167955379E+01  0.57595030178E+01  0.16036506891E+02  0.51100000000E-03 0. -1.
        -11    1    3    3    0    0 -0.90269176117E+01  0.21964754989E+02  0.10281912147E+02  0.25877662587E+02  0.51100000000E-03 0.  1.
        -12    1    3    3    0    0  0.14658312565E+02 -0.80508298432E+01  0.47595083960E+01  0.17387780439E+02  0.00000000000E+00 0.  1.
</event>
<event>
 7    1  0.6515090E-012  0.5930192E+02  0.7816164E-02  0.1266605E+00
        -11   -1    0    0    0    0  0.00000000000E+00  0.00000000000E+00  0.45593999997E+02  0.45594000000E+02  0.51100000000E-03 0.  1.
         11   -1    0    0    0    0 -0.00000000000E+00 -0.00000000000E+00 -0.45593999997E+02  0.45594000000E+02  0.51100000000E-03 0. -1.
    9900012    2    1    2    0    0  0.60223144719E+01 -0.18510130068E+02 -0.25255275612E+02  0.59301919448E+02  0.49999955173E+02 0.  0.
        -12    1    1    2    0    0 -0.60223144719E+01  0.18510130068E+02  0.25255275612E+02  0.31886080552E+02  0.00000000000E+00 0.  1.
         11    1    3    3    0    0 -0.32720193844E+00  0.21806723283E+01  0.54025022883E+01  0.58351884415E+01  0.51100000000E-03 0. -1.
        -11    1    3    3    0    0 -0.72854867593E+01 -0.23567414157E+02 -0.63891100062E+01  0.25481798490E+02  0.51100000000E-03 0.  1.
         12    1    3    3    0    0  0.13635003170E+02  0.28766117606E+01 -0.24268667894E+02  0.27984932517E+02  0.00000000000E+00 0. -1.
</event>
<event>
 7    1  0.6515090E-012  0.5930195E+02  0.7816164E-02  0.1266605E+00
        -11   -1    0    0    0    0  0.00000000000E+00  0.00000000000E+00  0.45593999997E+02  0.45594000000E+02  0.51100000000E-03 0. -1.
         11   -1    0    0    0    0 -0.00000000000E+00 -0.00000000000E+00 -0.45593999997E+02  0.45594000000E+02  0.51100000000E-03 0.  1.
    9900012    2    1    2    0    0  0.21916680733E+02  0.20824691006E+02 -0.10134675659E+02  0.59301948181E+02  0.50000007575E+02 0.  0.
        -12    1    1    2    0    0 -0.21916680733E+02 -0.20824691006E+02  0.10134675659E+02  0.31886051819E+02  0.00000000000E+00 0.  1.
         11    1    3    3    0    0  0.60476752000E+01  0.10643641418E+01 -0.59193313280E+01  0.85291107381E+01  0.51100000000E-03 0. -1.
        -11    1    3    3    0    0 -0.77804644282E+01  0.45205655853E+01 -0.17486113168E+02  0.19665586539E+02  0.51100000000E-03 0.  1.
         12    1    3    3    0    0  0.23649469962E+02  0.15239761279E+02  0.13270768837E+02  0.31107250905E+02  0.00000000000E+00 0. -1.
</event>
<event>
 7    1  0.6515090E-012  0.5930195E+02  0.7816164E-02  0.1266605E+00
        -11   -1    0    0    0    0  0.00000000000E+00  0.00000000000E+00  0.45593999997E+02  0.45594000000E+02  0.51100000000E-03 0. -1.
         11   -1    0    0    0    0 -0.00000000000E+00 -0.00000000000E+00 -0.45593999997E+02  0.45594000000E+02  0.51100000000E-03 0.  1.
    9900012    2    1    2    0    0  0.13022780128E+02  0.10032760773E+01  0.29088157420E+02  0.59301948704E+02  0.50000008529E+02 0.  0.
        -12    1    1    2    0    0 -0.13022780128E+02 -0.10032760773E+01 -0.29088157420E+02  0.31886051296E+02  0.00000000000E+00 0.  1.
         11    1    3    3    0    0  0.15809463777E+02 -0.51094878767E+01 -0.29411577041E+01  0.16872949362E+02  0.51100000000E-03 0. -1.
        -11    1    3    3    0    0 -0.10572522493E+02  0.44370064684E+01  0.23558400953E+01  0.11705350960E+02  0.51100000000E-03 0.  1.
        -12    1    3    3    0    0  0.77858388448E+01  0.16757574855E+01  0.29673475029E+02  0.30723648383E+02  0.00000000000E+00 0.  1.
</event>
<event>
 7    1  0.6515090E-012  0.5930203E+02  0.7816164E-02  0.1266604E+00
        -11   -1    0    0    0    0  0.00000000000E+00  0.00000000000E+00  0.45593999997E+02  0.45594000000E+02  0.51100000000E-03 0. -1.
         11   -1    0    0    0    0 -0.00000000000E+00 -0.00000000000E+00 -0.45593999997E+02  0.45594000000E+02  0.51100000000E-03 0.  1.
    9900012    2    1    2    0    0 -0.31539136183E+02 -0.46784679063E+01  0.33122971973E+00  0.59302033083E+02  0.50000162416E+02 0.  0.
        -12    1    1    2    0    0  0.31539136183E+02  0.46784679063E+01 -0.33122971973E+00  0.31885966917E+02  0.00000000000E+00 0.  1.
         11    1    3    3    0    0  0.13528933966E+01  0.42726194318E+01 -0.10245692267E+02  0.11183014247E+02  0.51100000000E-03 0. -1.
        -11    1    3    3    0    0  0.18550031472E+01  0.77572840829E+01 -0.53583268244E+00  0.79939733514E+01  0.51100000000E-03 0.  1.
         12    1    3    3    0    0 -0.34747032726E+02 -0.16708371421E+02  0.11112754669E+02  0.40125045485E+02  0.00000000000E+00 0. -1.
</event>
<event>
 7    1  0.6515090E-012  0.5930190E+02  0.7816164E-02  0.1266605E+00
        -11   -1    0    0    0    0  0.00000000000E+00  0.00000000000E+00  0.45593999997E+02  0.45594000000E+02  0.51100000000E-03 0.  1.
         11   -1    0    0    0    0 -0.00000000000E+00 -0.00000000000E+00 -0.45593999997E+02  0.45594000000E+02  0.51100000000E-03 0. -1.
    9900012    2    1    2    0    0  0.30860718750E+02 -0.60839297533E+01  0.52273709209E+01  0.59301896918E+02  0.49999914084E+02 0.  0.
        -12    1    1    2    0    0 -0.30860718750E+02  0.60839297533E+01 -0.52273709209E+01  0.31886103082E+02  0.00000000000E+00 0.  1.
         11    1    3    3    0    0  0.21695513861E+02 -0.30807587326E+01 -0.26610214190E+01  0.22074134894E+02  0.51100000000E-03 0. -1.
        -11    1    3    3    0    0  0.22476466026E+02  0.90148988496E+00  0.54103735184E+01  0.23136040087E+02  0.51100000000E-03 0.  1.
         12    1    3    3    0    0 -0.13311261138E+02 -0.39046609056E+01  0.24780188215E+01  0.14091721937E+02  0.00000000000E+00 0. -1.
</event>
<event>
 7    1  0.6515090E-012  0.5930194E+02  0.7816164E-02  0.1266605E+00
        -11   -1    0    0    0    0  0.00000000000E+00  0.00000000000E+00  0.45593999997E+02  0.45594000000E+02  0.51100000000E-03 0.  1.
         11   -1    0    0    0    0 -0.00000000000E+00 -0.00000000000E+00 -0.45593999997E+02  0.45594000000E+02  0.51100000000E-03 0. -1.
    9900012    2    1    2    0    0 -0.50954487648E+01  0.28205965199E+02 -0.13970701614E+02  0.59301943886E+02  0.49999999741E+02 0.  0.
        -12    1    1    2    0    0  0.50954487648E+01 -0.28205965199E+02  0.13970701614E+02  0.31886056114E+02  0.00000000000E+00 0.  1.
         11    1    3    3    0    0  0.10992252083E+02  0.12901535379E+01 -0.35582448553E+01  0.11625627240E+02  0.51100000000E-03 0.  1.
        -11    1    3    3    0    0  0.32443383093E+01  0.17064566194E+02 -0.17688685356E+02  0.24791424734E+02  0.51100000000E-03 0. -1.
        -12    1    3    3    0    0 -0.19332039157E+02  0.98512454672E+01  0.72762285969E+01  0.22884891912E+02  0.00000000000E+00 0.  1.
</event>
<event>
 7    1  0.6515090E-012  0.5930193E+02  0.7816164E-02  0.1266605E+00
        -11   -1    0    0    0    0  0.00000000000E+00  0.00000000000E+00  0.45593999997E+02  0.45594000000E+02  0.51100000000E-03 0.  1.
         11   -1    0    0    0    0 -0.00000000000E+00 -0.00000000000E+00 -0.45593999997E+02  0.45594000000E+02  0.51100000000E-03 0. -1.
    9900012    2    1    2    0    0  0.29165657526E+02  0.10251522002E+02 -0.78097362971E+01  0.59301933085E+02  0.49999980043E+02 0.  0.
        -12    1    1    2    0    0 -0.29165657526E+02 -0.10251522002E+02  0.78097362971E+01  0.31886066915E+02  0.00000000000E+00 0.  1.
         11    1    3    3    0    0  0.30097545629E+00 -0.11959014990E+01 -0.37346414610E+01  0.39329777172E+01  0.51100000000E-03 0. -1.
        -11    1    3    3    0    0  0.38743465951E+02  0.97353357205E+01 -0.12934269728E+02  0.41989620731E+02  0.51100000000E-03 0.  1.
        -12    1    3    3    0    0 -0.98787838817E+01  0.17120877808E+01  0.88591748920E+01  0.13379334637E+02  0.00000000000E+00 0.  1.
</event>
<event>
 7    1  0.6515090E-012  0.5930195E+02  0.7816164E-02  0.1266605E+00
        -11   -1    0    0    0    0  0.00000000000E+00  0.00000000000E+00  0.45593999997E+02  0.45594000000E+02  0.51100000000E-03 0. -1.
         11   -1    0    0    0    0 -0.00000000000E+00 -0.00000000000E+00 -0.45593999997E+02  0.45594000000E+02  0.51100000000E-03 0.  1.
    9900012    2    1    2    0    0 -0.13474190885E+02 -0.53257997115E+01  0.28404260090E+02  0.59301953619E+02  0.50000017492E+02 0.  0.
        -12    1    1    2    0    0  0.13474190885E+02  0.53257997115E+01 -0.28404260090E+02  0.31886046381E+02  0.00000000000E+00 0.  1.
         11    1    3    3    0    0 -0.61290962129E+01 -0.93732927929E+00  0.18208224350E+02  0.19234964019E+02  0.51100000000E-03 0. -1.
        -11    1    3    3    0    0 -0.15102208992E+02  0.12723889121E+02  0.31326267186E+01  0.19994684824E+02  0.51100000000E-03 0.  1.
        -12    1    3    3    0    0  0.77571143199E+01 -0.17112359553E+02  0.70634090218E+01  0.20072304777E+02  0.00000000000E+00 0.  1.
</event>
<event>
 7    1  0.6515090E-012  0.5930195E+02  0.7816164E-02  0.1266605E+00
        -11   -1    0    0    0    0  0.00000000000E+00  0.00000000000E+00  0.45593999997E+02  0.45594000000E+02  0.51100000000E-03 0. -1.
         11   -1    0    0    0    0 -0.00000000000E+00 -0.00000000000E+00 -0.45593999997E+02  0.45594000000E+02  0.51100000000E-03 0.  1.
    9900012    2    1    2    0    0  0.29562748342E+02 -0.27804860833E+01  0.11620363818E+02  0.59301952148E+02  0.50000014809E+02 0.  0.
        -12    1    1    2    0    0 -0.29562748342E+02  0.27804860833E+01 -0.11620363818E+02  0.31886047852E+02  0.00000000000E+00 0.  1.
         11    1    3    3    0    0 -0.19625470798E+00 -0.15843872689E+02  0.52746202119E+01  0.16699953184E+02  0.51100000000E-03 0. -1.
        -11    1    3    3    0    0  0.45119192786E+01 -0.29629773382E+01 -0.78281909778E+01  0.95087972178E+01  0.51100000000E-03 0.  1.
         12    1    3    3    0    0  0.25247083771E+02  0.16026363944E+02  0.14173934583E+02  0.33093201746E+02  0.00000000000E+00 0. -1.
</event>
<event>
 7    1  0.6515090E-012  0.5930197E+02  0.7816164E-02  0.1266605E+00
        -11   -1    0    0    0    0  0.00000000000E+00  0.00000000000E+00  0.45593999997E+02  0.45594000000E+02  0.51100000000E-03 0.  1.
         11   -1    0    0    0    0 -0.00000000000E+00 -0.00000000000E+00 -0.45593999997E+02  0.45594000000E+02  0.51100000000E-03 0. -1.
    9900012    2    1    2    0    0  0.30930217700E+02 -0.75787769922E+01  0.16133055025E+01  0.59301968853E+02  0.50000045275E+02 0.  0.
        -12    1    1    2    0    0 -0.30930217700E+02  0.75787769922E+01 -0.16133055025E+01  0.31886031147E+02  0.00000000000E+00 0.  1.
         11    1    3    3    0    0  0.74439364023E+01 -0.45457622771E+00  0.32775483163E+01  0.81462354456E+01  0.51100000000E-03 0. -1.
        -11    1    3    3    0    0  0.22096042598E+02 -0.23101163750E+02  0.72901781782E+01  0.32787887447E+02  0.51100000000E-03 0.  1.
        -12    1    3    3    0    0  0.13902386994E+01  0.15976962986E+02 -0.89544209921E+01  0.18367845960E+02  0.00000000000E+00 0.  1.
</event>
<event>
 7    1  0.6515090E-012  0.5930194E+02  0.7816164E-02  0.1266605E+00
        -11   -1    0    0    0    0  0.00000000000E+00  0.00000000000E+00  0.45593999997E+02  0.45594000000E+02  0.51100000000E-03 0.  1.
         11   -1    0    0    0    0 -0.00000000000E+00 -0.00000000000E+00 -0.45593999997E+02  0.45594000000E+02  0.51100000000E-03 0. -1.
    9900012    2    1    2    0    0 -0.23105530429E+02  0.50222694752E+01 -0.21392341534E+02  0.59301937161E+02  0.49999987476E+02 0.  0.
        -12    1    1    2    0    0  0.23105530429E+02 -0.50222694752E+01  0.21392341534E+02  0.31886062839E+02  0.00000000000E+00 0.  1.
         11    1    3    3    0    0 -0.14199460216E+02  0.79420011325E+01 -0.11761297613E+02  0.20075561617E+02  0.51100000000E-03 0.  1.
        -11    1    3    3    0    0 -0.21537255192E+02 -0.93304193946E+01 -0.86962790099E+01  0.25030688287E+02  0.51100000000E-03 0. -1.
        -12    1    3    3    0    0  0.12631184979E+02  0.64106877373E+01 -0.93476491103E+00  0.14195687256E+02  0.00000000000E+00 0.  1.
</event>
<event>
 7    1  0.6515090E-012  0.5930194E+02  0.7816164E-02  0.1266605E+00
        -11   -1    0    0    0    0  0.00000000000E+00  0.00000000000E+00  0.45593999997E+02  0.45594000000E+02  0.51100000000E-03 0.  1.
         11   -1    0    0    0    0 -0.00000000000E+00 -0.00000000000E+00 -0.45593999997E+02  0.45594000000E+02  0.51100000000E-03 0. -1.
    9900012    2    1    2    0    0 -0.12730502530E+02  0.26472604897E+01 -0.29114384938E+02  0.59301935754E+02  0.49999984911E+02 0.  0.
        -12    1    1    2    0    0  0.12730502530E+02 -0.26472604897E+01  0.29114384938E+02  0.31886064246E+02  0.00000000000E+00 0.  1.
         11    1    3    3    0    0 -0.15266952621E+02 -0.37764761750E+01 -0.25636802982E+02  0.30076357526E+02  0.51100000000E-03 0. -1.
        -11    1    3    3    0    0 -0.31602272435E+01  0.76965505364E-01 -0.14753118855E+02  0.15087991123E+02  0.51100000000E-03 0.  1.
        -12    1    3    3    0    0  0.56966773343E+01  0.63467711594E+01  0.11275536899E+02  0.14137587105E+02  0.00000000000E+00 0.  1.
</event>
<event>
 7    1  0.6515090E-012  0.5930192E+02  0.7816164E-02  0.1266605E+00
        -11   -1    0    0    0    0  0.00000000000E+00  0.00000000000E+00  0.45593999997E+02  0.45594000000E+02  0.51100000000E-03 0.  1.
         11   -1    0    0    0    0 -0.00000000000E+00 -0.00000000000E+00 -0.45593999997E+02  0.45594000000E+02  0.51100000000E-03 0. -1.
    9900012    2    1    2    0    0 -0.16657734258E+02  0.25894023700E+02  0.82910322692E+01  0.59301924825E+02  0.49999964978E+02 0.  0.
        -12    1    1    2    0    0  0.16657734258E+02 -0.25894023700E+02 -0.82910322692E+01  0.31886075175E+02  0.00000000000E+00 0.  1.
         11    1    3    3    0    0  0.44092070285E+00 -0.40245934171E+01  0.71997636732E+01  0.82600460320E+01  0.51100000000E-03 0. -1.
        -11    1    3    3    0    0  0.96233769168E+00  0.86133803594E+00  0.14307001386E+02  0.14365176155E+02  0.51100000000E-03 0.  1.
         12    1    3    3    0    0 -0.18060992653E+02  0.29057279081E+02 -0.13215732790E+02  0.36676702638E+02  0.00000000000E+00 0. -1.
</event>
<event>
 7    1  0.6515090E-012  0.5930197E+02  0.7816164E-02  0.1266605E+00
        -11   -1    0    0    0    0  0.00000000000E+00  0.00000000000E+00  0.45593999997E+02  0.45594000000E+02  0.51100000000E-03 0. -1.
         11   -1    0    0    0    0 -0.00000000000E+00 -0.00000000000E+00 -0.45593999997E+02  0.45594000000E+02  0.51100000000E-03 0.  1.
    9900012    2    1    2    0    0  0.25350082704E+02 -0.17878300065E+02  0.73795928971E+01  0.59301973317E+02  0.50000053417E+02 0.  0.
        -12    1    1    2    0    0 -0.25350082704E+02  0.17878300065E+02 -0.73795928971E+01  0.31886026683E+02  0.00000000000E+00 0.  1.
         11    1    3    3    0    0  0.28851890327E+02  0.25691665667E+01  0.47113042833E+00  0.28969883611E+02  0.51100000000E-03 0.  1.
        -11    1    3    3    0    0  0.84502714474E+01 -0.10714911636E+02  0.59558737816E+01  0.14889219310E+02  0.51100000000E-03 0. -1.
        -12    1    3    3    0    0 -0.11952079071E+02 -0.97325549952E+01  0.95258868725E+00  0.15442870396E+02  0.00000000000E+00 0.  1.
</event>
<event>
 7    1  0.6515090E-012  0.5930192E+02  0.7816164E-02  0.1266605E+00
        -11   -1    0    0    0    0  0.00000000000E+00  0.00000000000E+00  0.45593999997E+02  0.45594000000E+02  0.51100000000E-03 0. -1.
         11   -1    0    0    0    0 -0.00000000000E+00 -0.00000000000E+00 -0.45593999997E+02  0.45594000000E+02  0.51100000000E-03 0.  1.
    9900012    2    1    2    0    0  0.31830358585E+02  0.18841685135E+01 -0.20821460220E-01  0.59301917579E+02  0.49999951764E+02 0.  0.
        -12    1    1    2    0    0 -0.31830358585E+02 -0.18841685135E+01  0.20821460220E-01  0.31886082421E+02  0.00000000000E+00 0.  1.
         11    1    3    3    0    0 -0.26268598381E+01  0.44971504166E+01  0.12304889694E+02  0.13361701431E+02  0.51100000000E-03 0. -1.
        -11    1    3    3    0    0  0.86123122357E+00  0.87442603089E+01 -0.21585438961E+01  0.90478240248E+01  0.51100000000E-03 0.  1.
         12    1    3    3    0    0  0.33595987199E+02 -0.11357242212E+02 -0.10167167258E+02  0.36892392124E+02  0.00000000000E+00 0. -1.
</event>
<event>
 7    1  0.6515090E-012  0.5930198E+02  0.7816164E-02  0.1266605E+00
        -11   -1    0    0    0    0  0.00000000000E+00  0.00000000000E+00  0.45593999997E+02  0.45594000000E+02  0.51100000000E-03 0.  1.
         11   -1    0    0    0    0 -0.00000000000E+00 -0.00000000000E+00 -0.45593999997E+02  0.45594000000E+02  0.51100000000E-03 0. -1.
    9900012    2    1    2    0    0 -0.80717315836E+01  0.13606647072E+02 -0.27684377553E+02  0.59301977109E+02  0.50000060333E+02 0.  0.
        -12    1    1    2    0    0  0.80717315836E+01 -0.13606647072E+02  0.27684377553E+02  0.31886022891E+02  0.00000000000E+00 0.  1.
         11    1    3    3    0    0 -0.29460725517E+01  0.18631078123E+01  0.42587105457E+01  0.55033744169E+01  0.51100000000E-03 0. -1.
        -11    1    3    3    0    0  0.42190214104E+01  0.10324733474E+02  0.73678662279E+01  0.13367337655E+02  0.51100000000E-03 0.  1.
         12    1    3    3    0    0 -0.93446804423E+01  0.14188057853E+01 -0.39310954327E+02  0.40431265037E+02  0.00000000000E+00 0. -1.
</event>
<event>
 7    1  0.6515090E-012  0.5930195E+02  0.7816164E-02  0.1266605E+00
        -11   -1    0    0    0    0  0.00000000000E+00  0.00000000000E+00  0.45593999997E+02  0.45594000000E+02  0.51100000000E-03 0.  1.
         11   -1    0    0    0    0 -0.00000000000E+00 -0.00000000000E+00 -0.45593999997E+02  0.45594000000E+02  0.51100000000E-03 0. -1.
    9900012    2    1    2    0    0  0.45083368603E+01 -0.19887559534E+02 -0.24512857660E+02  0.59301947938E+02  0.50000007131E+02 0.  0.
        -12    1    1    2    0    0 -0.45083368603E+01  0.19887559534E+02  0.24512857660E+02  0.31886052062E+02  0.00000000000E+00 0.  1.
         11    1    3    3    0    0 -0.54877992923E+01 -0.15947011004E+02 -0.15018528734E+02  0.22582721418E+02  0.51100000000E-03 0. -1.
        -11    1    3    3    0    0 -0.70127853223E+01 -0.17691443421E+01 -0.16639302572E+02  0.18143192113E+02  0.51100000000E-03 0.  1.
        -12    1    3    3    0    0  0.17008921475E+02 -0.21714041884E+01  0.71449736473E+01  0.18576034408E+02  0.00000000000E+00 0.  1.
</event>
<event>
 7    1  0.6515090E-012  0.5930193E+02  0.7816164E-02  0.1266605E+00
        -11   -1    0    0    0    0  0.00000000000E+00  0.00000000000E+00  0.45593999997E+02  0.45594000000E+02  0.51100000000E-03 0. -1.
         11   -1    0    0    0    0 -0.00000000000E+00 -0.00000000000E+00 -0.45593999997E+02  0.45594000000E+02  0.51100000000E-03 0.  1.
    9900012    2    1    2    0    0 -0.26483798020E+02  0.34021843147E+01  0.17428563459E+02  0.59301933452E+02  0.49999980712E+02 0.  0.
        -12    1    1    2    0    0  0.26483798020E+02 -0.34021843147E+01 -0.17428563459E+02  0.31886066548E+02  0.00000000000E+00 0.  1.
         11    1    3    3    0    0 -0.20181444542E+02 -0.18171848285E+01  0.21261631552E+02  0.29370901263E+02  0.51100000000E-03 0. -1.
        -11    1    3    3    0    0  0.19429347589E+01  0.14645492097E+02  0.38130451673E+01  0.15257940489E+02  0.51100000000E-03 0.  1.
        -12    1    3    3    0    0 -0.82452882363E+01 -0.94261229541E+01 -0.76461132601E+01  0.14673091700E+02  0.00000000000E+00 0.  1.
</event>
<event>
 7    1  0.6515090E-012  0.5930194E+02  0.7816164E-02  0.1266605E+00
        -11   -1    0    0    0    0  0.00000000000E+00  0.00000000000E+00  0.45593999997E+02  0.45594000000E+02  0.51100000000E-03 0.  1.
         11   -1    0    0    0    0 -0.00000000000E+00 -0.00000000000E+00 -0.45593999997E+02  0.45594000000E+02  0.51100000000E-03 0. -1.
    9900012    2    1    2    0    0  0.11458914252E+02  0.17489283881E+02 -0.24073618405E+02  0.59301939259E+02  0.49999991303E+02 0.  0.
        -12    1    1    2    0    0 -0.11458914252E+02 -0.17489283881E+02  0.24073618405E+02  0.31886060741E+02  0.00000000000E+00 0.  1.
         11    1    3    3    0    0  0.15722444902E+02 -0.60262330496E+01 -0.12295411778E+02  0.20849170476E+02  0.51100000000E-03 0. -1.
        -11    1    3    3    0    0  0.87804173288E+01  0.16905781783E+02  0.93941253535E+00  0.19073114123E+02  0.51100000000E-03 0.  1.
        -12    1    3    3    0    0 -0.13043947979E+02  0.66097351472E+01 -0.12717619162E+02  0.19379654660E+02  0.00000000000E+00 0.  1.
</event>
<event>
 7    1  0.6515090E-012  0.5930192E+02  0.7816164E-02  0.1266605E+00
        -11   -1    0    0    0    0  0.00000000000E+00  0.00000000000E+00  0.45593999997E+02  0.45594000000E+02  0.51100000000E-03 0.  1.
         11   -1    0    0    0    0 -0.00000000000E+00 -0.00000000000E+00 -0.45593999997E+02  0.45594000000E+02  0.51100000000E-03 0. -1.
    9900012    2    1    2    0    0 -0.23220728998E+02  0.12065298114E+02  0.18219459528E+02  0.59301915586E+02  0.49999948129E+02 0.  0.
        -12    1    1    2    0    0  0.23220728998E+02 -0.12065298114E+02 -0.18219459528E+02  0.31886084414E+02  0.00000000000E+00 0.  1.
         11    1    3    3    0    0  0.44582038567E+01  0.58127190153E+00  0.76265386204E+01  0.88531096368E+01  0.51100000000E-03 0. -1.
        -11    1    3    3    0    0 -0.42463322898E+00  0.14974445210E+02 -0.82782741222E+01  0.17115611162E+02  0.51100000000E-03 0.  1.
         12    1    3    3    0    0 -0.27254299626E+02 -0.34904189977E+01  0.18871195029E+02  0.33333194787E+02  0.00000000000E+00 0. -1.
</event>
<event>
 7    1  0.6515090E-012  0.5930191E+02  0.7816164E-02  0.1266605E+00
        -11   -1    0    0    0    0  0.00000000000E+00  0.00000000000E+00  0.45593999997E+02  0.45594000000E+02  0.51100000000E-03 0. -1.
         11   -1    0    0    0    0 -0.00000000000E+00 -0.00000000000E+00 -0.45593999997E+02  0.45594000000E+02  0.51100000000E-03 0.  1.
    9900012    2    1    2    0    0 -0.10379036160E+02  0.16176087441E+02  0.25442734084E+02  0.59301907198E+02  0.49999932831E+02 0.  0.
        -12    1    1    2    0    0  0.10379036160E+02 -0.16176087441E+02 -0.25442734084E+02  0.31886092802E+02  0.00000000000E+00 0.  1.
         11    1    3    3    0    0 -0.14163489655E+02  0.10006687259E+02  0.32359745359E+02  0.36713639823E+02  0.51100000000E-03 0. -1.
        -11    1    3    3    0    0 -0.79055221265E+01  0.19013172676E-01 -0.55000629393E+00  0.79246544895E+01  0.51100000000E-03 0.  1.
         12    1    3    3    0    0  0.11689975622E+02  0.61503870093E+01 -0.63670049812E+01  0.14663612885E+02  0.00000000000E+00 0. -1.
</event>
<event>
 7    1  0.6515090E-012  0.5930195E+02  0.7816164E-02  0.1266605E+00
        -11   -1    0    0    0    0  0.00000000000E+00  0.00000000000E+00  0.45593999997E+02  0.45594000000E+02  0.51100000000E-03 0.  1.
         11   -1    0    0    0    0 -0.00000000000E+00 -0.00000000000E+00 -0.45593999997E+02  0.45594000000E+02  0.51100000000E-03 0. -1.
    9900012    2    1    2    0    0  0.13770073842E+02  0.17624905542E+02 -0.22725937662E+02  0.59301945500E+02  0.50000002685E+02 0.  0.
        -12    1    1    2    0    0 -0.13770073842E+02 -0.17624905542E+02  0.22725937662E+02  0.31886054500E+02  0.00000000000E+00 0.  1.
         11    1    3    3    0    0 -0.34752838417E+01  0.23593587499E+02 -0.15291042713E+02  0.28329330320E+02  0.51100000000E-03 0. -1.
        -11    1    3    3    0    0  0.17696389995E+02  0.13906939458E+01 -0.12773923136E+02  0.21869370385E+02  0.51100000000E-03 0.  1.
        -12    1    3    3    0    0 -0.45103231153E+00 -0.73593759022E+01  0.53390281871E+01  0.91032447951E+01  0.00000000000E+00 0.  1.
</event>
<event>
 7    1  0.6515090E-012  0.5930199E+02  0.7816164E-02  0.1266605E+00
        -11   -1    0    0    0    0  0.00000000000E+00  0.00000000000E+00  0.45593999997E+02  0.45594000000E+02  0.51100000000E-03 0.  1.
         11   -1    0    0    0    0 -0.00000000000E+00 -0.00000000000E+00 -0.45593999997E+02  0.45594000000E+02  0.51100000000E-03 0. -1.
    9900012    2    1    2    0    0  0.27274755452E+01  0.65051235236E-01 -0.31769075158E+02  0.59301992239E+02  0.50000087926E+02 0.  0.
        -12    1    1    2    0    0 -0.27274755452E+01 -0.65051235236E-01  0.31769075158E+02  0.31886007761E+02  0.00000000000E+00 0.  1.
         11    1    3    3    0    0 -0.11332306133E+02 -0.93920496570E+01 -0.34547087844E+01  0.15118424921E+02  0.51100000000E-03 0. -1.
        -11    1    3    3    0    0 -0.73775357206E+01 -0.80034464747E+00 -0.15497822020E+02  0.17182871485E+02  0.51100000000E-03 0.  1.
        -12    1    3    3    0    0  0.21437317399E+02  0.10257445540E+02 -0.12816544354E+02  0.27000695833E+02  0.00000000000E+00 0.  1.
</event>
<event>
 7    1  0.6515090E-012  0.5930189E+02  0.7816164E-02  0.1266605E+00
        -11   -1    0    0    0    0  0.00000000000E+00  0.00000000000E+00  0.45593999997E+02  0.45594000000E+02  0.51100000000E-03 0.  1.
         11   -1    0    0    0    0 -0.00000000000E+00 -0.00000000000E+00 -0.45593999997E+02  0.45594000000E+02  0.51100000000E-03 0. -1.
    9900012    2    1    2    0    0 -0.15131625785E+02  0.11988244397E+02 -0.25377937210E+02  0.59301893314E+02  0.49999907509E+02 0.  0.
        -12    1    1    2    0    0  0.15131625785E+02 -0.11988244397E+02  0.25377937210E+02  0.31886106686E+02  0.00000000000E+00 0.  1.
         11    1    3    3    0    0 -0.49421358377E+01 -0.88370240991E+01 -0.11692494300E+01  0.10192391577E+02  0.51100000000E-03 0. -1.
        -11    1    3    3    0    0 -0.77789976553E+01 -0.92521902024E+01 -0.37591070205E+01  0.12658859108E+02  0.51100000000E-03 0.  1.
         12    1    3    3    0    0 -0.24104922918E+01  0.30077458698E+02 -0.20449580759E+02  0.36450642629E+02  0.00000000000E+00 0. -1.
</event>
<event>
 7    1  0.6515090E-012  0.5930192E+02  0.7816164E-02  0.1266605E+00
        -11   -1    0    0    0    0  0.00000000000E+00  0.00000000000E+00  0.45593999997E+02  0.45594000000E+02  0.51100000000E-03 0. -1.
         11   -1    0    0    0    0 -0.00000000000E+00 -0.00000000000E+00 -0.45593999997E+02  0.45594000000E+02  0.51100000000E-03 0.  1.
    9900012    2    1    2    0    0  0.28633934612E+02 -0.13411520065E+02 -0.41171569103E+01  0.59301920548E+02  0.49999957179E+02 0.  0.
        -12    1    1    2    0    0 -0.28633934612E+02  0.13411520065E+02  0.41171569103E+01  0.31886079452E+02  0.00000000000E+00 0.  1.
         11    1    3    3    0    0  0.22956574489E+01  0.10047606094E+01  0.22792260935E+01  0.33873970614E+01  0.51100000000E-03 0. -1.
        -11    1    3    3    0    0  0.25877758940E+02  0.34636729022E+01 -0.20453071529E+02  0.33166000255E+02  0.51100000000E-03 0.  1.
         12    1    3    3    0    0  0.46051822290E+00 -0.17879953576E+02  0.14056688525E+02  0.22748523231E+02  0.00000000000E+00 0. -1.
</event>
<event>
 7    1  0.6515090E-012  0.5930199E+02  0.7816164E-02  0.1266605E+00
        -11   -1    0    0    0    0  0.00000000000E+00  0.00000000000E+00  0.45593999997E+02  0.45594000000E+02  0.51100000000E-03 0.  1.
         11   -1    0    0    0    0 -0.00000000000E+00 -0.00000000000E+00 -0.45593999997E+02  0.45594000000E+02  0.51100000000E-03 0. -1.
    9900012    2    1    2    0    0 -0.18317902302E+02  0.16699544099E+02 -0.20057348316E+02  0.59301991480E+02  0.50000086541E+02 0.  0.
        -12    1    1    2    0    0  0.18317902302E+02 -0.16699544099E+02  0.20057348316E+02  0.31886008520E+02  0.00000000000E+00 0.  1.
         11    1    3    3    0    0 -0.18485292001E+01  0.21596020267E+02 -0.20386906942E+02  0.29756194758E+02  0.51100000000E-03 0. -1.
        -11    1    3    3    0    0 -0.12598698606E+02  0.42264210858E+01 -0.89078687362E+01  0.15998123873E+02  0.51100000000E-03 0.  1.
        -12    1    3    3    0    0 -0.38706744961E+01 -0.91228972538E+01  0.92374273619E+01  0.13547672849E+02  0.00000000000E+00 0.  1.
</event>
<event>
 7    1  0.6515090E-012  0.5930203E+02  0.7816164E-02  0.1266604E+00
        -11   -1    0    0    0    0  0.00000000000E+00  0.00000000000E+00  0.45593999997E+02  0.45594000000E+02  0.51100000000E-03 0.  1.
         11   -1    0    0    0    0 -0.00000000000E+00 -0.00000000000E+00 -0.45593999997E+02  0.45594000000E+02  0.51100000000E-03 0. -1.
    9900012    2    1    2    0    0  0.52676532389E+01 -0.23608788157E+02 -0.20774792260E+02  0.59302030635E+02  0.50000157952E+02 0.  0.
        -12    1    1    2    0    0 -0.52676532389E+01  0.23608788157E+02  0.20774792260E+02  0.31885969365E+02  0.00000000000E+00 0.  1.
         11    1    3    3    0    0  0.93790325597E+01  0.81624107142E+01  0.27379655118E+01  0.12731365042E+02  0.51100000000E-03 0. -1.
        -11    1    3    3    0    0  0.99945615389E+01 -0.11260838406E+02 -0.63839718312E+01  0.16353985403E+02  0.51100000000E-03 0.  1.
        -12    1    3    3    0    0 -0.14105940860E+02 -0.20510360464E+02 -0.17128785941E+02  0.30216680190E+02  0.00000000000E+00 0.  1.
</event>
<event>
 7    1  0.6515090E-012  0.5930194E+02  0.7816164E-02  0.1266605E+00
        -11   -1    0    0    0    0  0.00000000000E+00  0.00000000000E+00  0.45593999997E+02  0.45594000000E+02  0.51100000000E-03 0. -1.
         11   -1    0    0    0    0 -0.00000000000E+00 -0.00000000000E+00 -0.45593999997E+02  0.45594000000E+02  0.51100000000E-03 0.  1.
    9900012    2    1    2    0    0  0.27026201231E+02 -0.11963815567E+02 -0.11965453948E+02  0.59301944677E+02  0.50000001184E+02 0.  0.
        -12    1    1    2    0    0 -0.27026201231E+02  0.11963815567E+02  0.11965453948E+02  0.31886055323E+02  0.00000000000E+00 0.  1.
         11    1    3    3    0    0  0.22063324858E+02  0.87324540648E+01 -0.38508282476E+00  0.23731716054E+02  0.51100000000E-03 0. -1.
        -11    1    3    3    0    0  0.90354244471E+01 -0.21831965201E+01 -0.13636501171E+02  0.16503315013E+02  0.51100000000E-03 0.  1.
         12    1    3    3    0    0 -0.40725480747E+01 -0.18513073112E+02  0.20561300474E+01  0.19066913610E+02  0.00000000000E+00 0. -1.
</event>
<event>
 7    1  0.6515090E-012  0.5930194E+02  0.7816164E-02  0.1266605E+00
        -11   -1    0    0    0    0  0.00000000000E+00  0.00000000000E+00  0.45593999997E+02  0.45594000000E+02  0.51100000000E-03 0. -1.
         11   -1    0    0    0    0 -0.00000000000E+00 -0.00000000000E+00 -0.45593999997E+02  0.45594000000E+02  0.51100000000E-03 0.  1.
    9900012    2    1    2    0    0 -0.25290116425E+02 -0.14472516973E+02  0.12949020545E+02  0.59301939262E+02  0.49999991308E+02 0.  0.
        -12    1    1    2    0    0  0.25290116425E+02  0.14472516973E+02 -0.12949020545E+02  0.31886060738E+02  0.00000000000E+00 0.  1.
         11    1    3    3    0    0 -0.22341054308E+02 -0.83679388149E+01 -0.64915728786E+01  0.24724191115E+02  0.51100000000E-03 0. -1.
        -11    1    3    3    0    0 -0.34747525207E+01  0.29064176365E+01 -0.60374859234E+01  0.75480066968E+01  0.51100000000E-03 0.  1.
         12    1    3    3    0    0  0.52569040328E+00 -0.90109957945E+01  0.25478079347E+02  0.27029741450E+02  0.00000000000E+00 0. -1.
</event>
<event>
 7    1  0.6515090E-012  0.5930198E+02  0.7816164E-02  0.1266605E+00
        -11   -1    0    0    0    0  0.00000000000E+00  0.00000000000E+00  0.45593999997E+02  0.45594000000E+02  0.51100000000E-03 0. -1.
         11   -1    0    0    0    0 -0.00000000000E+00 -0.00000000000E+00 -0.45593999997E+02  0.45594000000E+02  0.51100000000E-03 0.  1.
    9900012    2    1    2    0    0 -0.33774098992E+01  0.28093939543E+02  0.14698375102E+02  0.59301975360E+02  0.50000057143E+02 0.  0.
        -12    1    1    2    0    0  0.33774098992E+01 -0.28093939543E+02 -0.14698375102E+02  0.31886024640E+02  0.00000000000E+00 0.  1.
         11    1    3    3    0    0 -0.16623528340E+01  0.99487896125E+01  0.18192432868E+02  0.20801597189E+02  0.51100000000E-03 0. -1.
        -11    1    3    3    0    0 -0.45106690157E+01  0.10816218319E+02  0.14633969366E+02  0.18748060523E+02  0.51100000000E-03 0.  1.
        -12    1    3    3    0    0  0.27956119505E+01  0.73289316121E+01 -0.18128027133E+02  0.19752317648E+02  0.00000000000E+00 0.  1.
</event>
<event>
 7    1  0.6515090E-012  0.5930193E+02  0.7816164E-02  0.1266605E+00
        -11   -1    0    0    0    0  0.00000000000E+00  0.00000000000E+00  0.45593999997E+02  0.45594000000E+02  0.51100000000E-03 0.  1.
         11   -1    0    0    0    0 -0.00000000000E+00 -0.00000000000E+00 -0.45593999997E+02  0.45594000000E+02  0.51100000000E-03 0. -1.
    9900012    2    1    2    0    0  0.60027299003E+01 -0.30825627811E+02 -0.55199196107E+01  0.59301927669E+02  0.49999970166E+02 0.  0.
        -12    1    1    2    0    0 -0.60027299003E+01  0.30825627811E+02  0.55199196107E+01  0.31886072331E+02  0.00000000000E+00 0.  1.
         11    1    3    3    0    0 -0.20567316362E+02 -0.15080481659E+02 -0.53257402367E+01  0.26053770145E+02  0.51100000000E-03 0. -1.
        -11    1    3    3    0    0  0.10854167668E+02 -0.39796721432E+00 -0.25469018124E+01  0.11156076496E+02  0.51100000000E-03 0.  1.
        -12    1    3    3    0    0  0.15715878595E+02 -0.15347178937E+02  0.23527224384E+01  0.22092081029E+02  0.00000000000E+00 0.  1.
</event>
<event>
 7    1  0.6515090E-012  0.5930193E+02  0.7816164E-02  0.1266605E+00
        -11   -1    0    0    0    0  0.00000000000E+00  0.00000000000E+00  0.45593999997E+02  0.45594000000E+02  0.51100000000E-03 0. -1.
         11   -1    0    0    0    0 -0.00000000000E+00 -0.00000000000E+00 -0.45593999997E+02  0.45594000000E+02  0.51100000000E-03 0.  1.
    9900012    2    1    2    0    0 -0.54799092545E+01  0.57649480256E+01  0.30878101201E+02  0.59301934628E+02  0.49999982857E+02 0.  0.
        -12    1    1    2    0    0  0.54799092545E+01 -0.57649480256E+01 -0.30878101201E+02  0.31886065372E+02  0.00000000000E+00 0.  1.
         11    1    3    3    0    0 -0.25168007450E+01  0.41119992561E+01  0.12838504547E+02  0.13713862444E+02  0.51100000000E-03 0. -1.
        -11    1    3    3    0    0 -0.14062772264E+01  0.84801401961E+01  0.30285331860E+02  0.31481609227E+02  0.51100000000E-03 0.  1.
        -12    1    3    3    0    0 -0.15568312830E+01 -0.68271914266E+01 -0.12245735206E+02  0.14106462957E+02  0.00000000000E+00 0.  1.
</event>
<event>
 7    1  0.6515090E-012  0.5930195E+02  0.7816164E-02  0.1266605E+00
        -11   -1    0    0    0    0  0.00000000000E+00  0.00000000000E+00  0.45593999997E+02  0.45594000000E+02  0.51100000000E-03 0. -1.
         11   -1    0    0    0    0 -0.00000000000E+00 -0.00000000000E+00 -0.45593999997E+02  0.45594000000E+02  0.51100000000E-03 0.  1.
    9900012    2    1    2    0    0 -0.15954542155E+02  0.67132961736E+01  0.26778804120E+02  0.59301951154E+02  0.50000012996E+02 0.  0.
        -12    1    1    2    0    0  0.15954542155E+02 -0.67132961736E+01 -0.26778804120E+02  0.31886048846E+02  0.00000000000E+00 0.  1.
         11    1    3    3    0    0 -0.12220277259E+02 -0.34110537475E+00  0.21469416246E+02  0.24706018769E+02  0.51100000000E-03 0. -1.
        -11    1    3    3    0    0 -0.13182005483E+02  0.39580194076E+01 -0.95250678074E+01  0.16737924100E+02  0.51100000000E-03 0.  1.
        -12    1    3    3    0    0  0.94477405867E+01  0.30963821407E+01  0.14834455681E+02  0.17858008285E+02  0.00000000000E+00 0.  1.
</event>
<event>
 7    1  0.6515090E-012  0.5930194E+02  0.7816164E-02  0.1266605E+00
        -11   -1    0    0    0    0  0.00000000000E+00  0.00000000000E+00  0.45593999997E+02  0.45594000000E+02  0.51100000000E-03 0. -1.
         11   -1    0    0    0    0 -0.00000000000E+00 -0.00000000000E+00 -0.45593999997E+02  0.45594000000E+02  0.51100000000E-03 0.  1.
    9900012    2    1    2    0    0  0.24865992222E+02 -0.17425306030E+02 -0.97345827469E+01  0.59301937830E+02  0.49999988698E+02 0.  0.
        -12    1    1    2    0    0 -0.24865992222E+02  0.17425306030E+02  0.97345827469E+01  0.31886062170E+02  0.00000000000E+00 0.  1.
         11    1    3    3    0    0 -0.97591840129E+01 -0.18712631756E+02 -0.13524789706E+01  0.21147894918E+02  0.51100000000E-03 0. -1.
        -11    1    3    3    0    0  0.16950140526E+02 -0.47851050537E+01  0.14112306851E+00  0.17613188530E+02  0.51100000000E-03 0.  1.
        -12    1    3    3    0    0  0.17675035709E+02  0.60724307799E+01 -0.85232268449E+01  0.20540854382E+02  0.00000000000E+00 0.  1.
</event>
<event>
 7    1  0.6515090E-012  0.5930195E+02  0.7816164E-02  0.1266605E+00
        -11   -1    0    0    0    0  0.00000000000E+00  0.00000000000E+00  0.45593999997E+02  0.45594000000E+02  0.51100000000E-03 0. -1.
         11   -1    0    0    0    0 -0.00000000000E+00 -0.00000000000E+00 -0.45593999997E+02  0.45594000000E+02  0.51100000000E-03 0.  1.
    9900012    2    1    2    0    0  0.91209349285E+01  0.23732154000E+02  0.19243530019E+02  0.59301952346E+02  0.50000015170E+02 0.  0.
        -12    1    1    2    0    0 -0.91209349285E+01 -0.23732154000E+02 -0.19243530019E+02  0.31886047654E+02  0.00000000000E+00 0.  1.
         11    1    3    3    0    0  0.91685144382E+01  0.43793349047E+01  0.44554761619E+01  0.11094660847E+02  0.51100000000E-03 0. -1.
        -11    1    3    3    0    0  0.18583137973E+02  0.13131076846E+02 -0.13377765091E+01  0.22793592132E+02  0.51100000000E-03 0.  1.
         12    1    3    3    0    0 -0.18630717482E+02  0.62217422491E+01  0.16125830366E+02  0.25413699367E+02  0.00000000000E+00 0. -1.
</event>
<event>
 7    1  0.6515090E-012  0.5930191E+02  0.7816164E-02  0.1266605E+00
        -11   -1    0    0    0    0  0.00000000000E+00  0.00000000000E+00  0.45593999997E+02  0.45594000000E+02  0.51100000000E-03 0. -1.
         11   -1    0    0    0    0 -0.00000000000E+00 -0.00000000000E+00 -0.45593999997E+02  0.45594000000E+02  0.51100000000E-03 0.  1.
    9900012    2    1    2    0    0  0.65788790647E+01 -0.26484226636E+02  0.16493237927E+02  0.59301908870E+02  0.49999935880E+02 0.  0.
        -12    1    1    2    0    0 -0.65788790647E+01  0.26484226636E+02 -0.16493237927E+02  0.31886091130E+02  0.00000000000E+00 0.  1.
         11    1    3    3    0    0 -0.65224623975E+01  0.47591228268E+01 -0.29646756812E+00  0.80795828536E+01  0.51100000000E-03 0. -1.
        -11    1    3    3    0    0  0.15309530798E+02  0.16517899972E+01  0.45824529700E+01  0.16065771657E+02  0.51100000000E-03 0.  1.
        -12    1    3    3    0    0 -0.22081893356E+01 -0.32895139460E+02  0.12207252525E+02  0.35156554359E+02  0.00000000000E+00 0.  1.
</event>
<event>
 7    1  0.6515090E-012  0.5930195E+02  0.7816164E-02  0.1266605E+00
        -11   -1    0    0    0    0  0.00000000000E+00  0.00000000000E+00  0.45593999997E+02  0.45594000000E+02  0.51100000000E-03 0. -1.
         11   -1    0    0    0    0 -0.00000000000E+00 -0.00000000000E+00 -0.45593999997E+02  0.45594000000E+02  0.51100000000E-03 0.  1.
    9900012    2    1    2    0    0  0.29431614004E+02  0.12126421618E+02  0.18575507176E+01  0.59301945073E+02  0.50000001907E+02 0.  0.
        -12    1    1    2    0    0 -0.29431614004E+02 -0.12126421618E+02 -0.18575507176E+01  0.31886054927E+02  0.00000000000E+00 0.  1.
         11    1    3    3    0    0  0.35923436726E+01 -0.47655155314E+01  0.27586322353E+01  0.65745816150E+01  0.51100000000E-03 0. -1.
        -11    1    3    3    0    0 -0.70713580292E+01 -0.65423889580E+01  0.65434516441E+01  0.11645759629E+02  0.51100000000E-03 0.  1.
         12    1    3    3    0    0  0.32910628361E+02  0.23434326107E+02 -0.74445331618E+01  0.41081603829E+02  0.00000000000E+00 0. -1.
</event>
<event>
 7    1  0.6515090E-012  0.5930194E+02  0.7816164E-02  0.1266605E+00
        -11   -1    0    0    0    0  0.00000000000E+00  0.00000000000E+00  0.45593999997E+02  0.45594000000E+02  0.51100000000E-03 0. -1.
         11   -1    0    0    0    0 -0.00000000000E+00 -0.00000000000E+00 -0.45593999997E+02  0.45594000000E+02  0.51100000000E-03 0.  1.
    9900012    2    1    2    0    0 -0.15793205389E+02  0.27684931091E+02  0.91641874664E+00  0.59301943968E+02  0.49999999891E+02 0.  0.
        -12    1    1    2    0    0  0.15793205389E+02 -0.27684931091E+02 -0.91641874664E+00  0.31886056032E+02  0.00000000000E+00 0.  1.
         11    1    3    3    0    0  0.23184586188E+00  0.42271530678E+01  0.68190026428E+01  0.80262925979E+01  0.51100000000E-03 0. -1.
        -11    1    3    3    0    0  0.25190907855E+01  0.23077950429E+02  0.11441895296E+02  0.25881549077E+02  0.51100000000E-03 0.  1.
        -12    1    3    3    0    0 -0.18544142036E+02  0.37982759446E+00 -0.17344479192E+02  0.25394102293E+02  0.00000000000E+00 0.  1.
</event>
<event>
 7    1  0.6515090E-012  0.5930194E+02  0.7816164E-02  0.1266605E+00
        -11   -1    0    0    0    0  0.00000000000E+00  0.00000000000E+00  0.45593999997E+02  0.45594000000E+02  0.51100000000E-03 0.  1.
         11   -1    0    0    0    0 -0.00000000000E+00 -0.00000000000E+00 -0.45593999997E+02  0.45594000000E+02  0.51100000000E-03 0. -1.
    9900012    2    1    2    0    0 -0.31394453850E+02  0.44979296340E+01  0.32981395210E+01  0.59301939913E+02  0.49999992496E+02 0.  0.
        -12    1    1    2    0    0  0.31394453850E+02 -0.44979296340E+01 -0.32981395210E+01  0.31886060087E+02  0.00000000000E+00 0.  1.
         11    1    3    3    0    0  0.25115814972E+01  0.12976710711E+02 -0.76789802180E+01  0.15286261804E+02  0.51100000000E-03 0. -1.
        -11    1    3    3    0    0  0.27702674657E+01  0.31006255580E+01  0.84971270134E+00  0.42438511541E+01  0.51100000000E-03 0.  1.
         12    1    3    3    0    0 -0.36676302813E+02 -0.11579406635E+02  0.10127407038E+02  0.39771826955E+02  0.00000000000E+00 0. -1.
</event>
<event>
 7    1  0.6515090E-012  0.5930158E+02  0.7816164E-02  0.1266606E+00
        -11   -1    0    0    0    0  0.00000000000E+00  0.00000000000E+00  0.45593999997E+02  0.45594000000E+02  0.51100000000E-03 0.  1.
         11   -1    0    0    0    0 -0.00000000000E+00 -0.00000000000E+00 -0.45593999997E+02  0.45594000000E+02  0.51100000000E-03 0. -1.
    9900012    2    1    2    0    0  0.21633870258E+02  0.14163662597E+02 -0.18657706037E+02  0.59301581652E+02  0.49999339108E+02 0.  0.
        -12    1    1    2    0    0 -0.21633870258E+02 -0.14163662597E+02  0.18657706037E+02  0.31886418348E+02  0.00000000000E+00 0.  1.
         11    1    3    3    0    0  0.96552223842E+01  0.21694420187E+02 -0.13379814958E+02  0.27256020163E+02  0.51100000000E-03 0. -1.
        -11    1    3    3    0    0 -0.46454893020E+00  0.81950074493E+01 -0.84071270479E+01  0.11749627154E+02  0.51100000000E-03 0.  1.
        -12    1    3    3    0    0  0.12443196804E+02 -0.15725765039E+02  0.31292359682E+01  0.20295934335E+02  0.00000000000E+00 0.  1.
</event>
<event>
 7    1  0.6515090E-012  0.5930197E+02  0.7816164E-02  0.1266605E+00
        -11   -1    0    0    0    0  0.00000000000E+00  0.00000000000E+00  0.45593999997E+02  0.45594000000E+02  0.51100000000E-03 0.  1.
         11   -1    0    0    0    0 -0.00000000000E+00 -0.00000000000E+00 -0.45593999997E+02  0.45594000000E+02  0.51100000000E-03 0. -1.
    9900012    2    1    2    0    0  0.26215231848E+02  0.66052892699E+01 -0.16907123049E+02  0.59301967995E+02  0.50000043711E+02 0.  0.
        -12    1    1    2    0    0 -0.26215231848E+02 -0.66052892699E+01  0.16907123049E+02  0.31886032005E+02  0.00000000000E+00 0.  1.
         11    1    3    3    0    0  0.58111039453E+01  0.18584927342E+01 -0.12855204021E+02  0.14229518438E+02  0.51100000000E-03 0. -1.
        -11    1    3    3    0    0  0.32271943720E+02  0.48626643849E+00 -0.26130274925E+01  0.32381209357E+02  0.51100000000E-03 0.  1.
        -12    1    3    3    0    0 -0.11867815817E+02  0.42605300973E+01 -0.14388915360E+01  0.12691240200E+02  0.00000000000E+00 0.  1.
</event>
<event>
 7    1  0.6515090E-012  0.5930192E+02  0.7816164E-02  0.1266605E+00
        -11   -1    0    0    0    0  0.00000000000E+00  0.00000000000E+00  0.45593999997E+02  0.45594000000E+02  0.51100000000E-03 0. -1.
         11   -1    0    0    0    0 -0.00000000000E+00 -0.00000000000E+00 -0.45593999997E+02  0.45594000000E+02  0.51100000000E-03 0.  1.
    9900012    2    1    2    0    0  0.24906668190E+02  0.16348853655E+02 -0.11361983643E+02  0.59301924537E+02  0.49999964453E+02 0.  0.
        -12    1    1    2    0    0 -0.24906668190E+02 -0.16348853655E+02  0.11361983643E+02  0.31886075463E+02  0.00000000000E+00 0.  1.
         11    1    3    3    0    0  0.27166363933E+02  0.19288756227E+02  0.10003374726E+02  0.34786994011E+02  0.51100000000E-03 0. -1.
        -11    1    3    3    0    0 -0.13308489976E+01  0.37541730797E+00  0.11126005128E+01  0.17748175601E+01  0.51100000000E-03 0.  1.
        -12    1    3    3    0    0 -0.92884674558E+00 -0.33153198806E+01 -0.22477958882E+02  0.22740112966E+02  0.00000000000E+00 0.  1.
</event>
<event>
 7    1  0.6515090E-012  0.5930195E+02  0.7816164E-02  0.1266605E+00
        -11   -1    0    0    0    0  0.00000000000E+00  0.00000000000E+00  0.45593999997E+02  0.45594000000E+02  0.51100000000E-03 0. -1.
         11   -1    0    0    0    0 -0.00000000000E+00 -0.00000000000E+00 -0.45593999997E+02  0.45594000000E+02  0.51100000000E-03 0.  1.
    9900012    2    1    2    0    0 -0.12988156817E+02 -0.23304480028E+02  0.17462227455E+02  0.59301946707E+02  0.50000004887E+02 0.  0.
        -12    1    1    2    0    0  0.12988156817E+02  0.23304480028E+02 -0.17462227455E+02  0.31886053293E+02  0.00000000000E+00 0.  1.
         11    1    3    3    0    0 -0.45783157661E+01 -0.17148159600E+02  0.12073151995E+02  0.21465818230E+02  0.51100000000E-03 0. -1.
        -11    1    3    3    0    0  0.64303990116E+01 -0.76591615297E+01  0.16460352945E+02  0.19260218226E+02  0.51100000000E-03 0.  1.
        -12    1    3    3    0    0 -0.14840240063E+02  0.15028411014E+01 -0.11071277486E+02  0.18575910251E+02  0.00000000000E+00 0.  1.
</event>
<event>
 7    1  0.6515090E-012  0.5930193E+02  0.7816164E-02  0.1266605E+00
        -11   -1    0    0    0    0  0.00000000000E+00  0.00000000000E+00  0.45593999997E+02  0.45594000000E+02  0.51100000000E-03 0.  1.
         11   -1    0    0    0    0 -0.00000000000E+00 -0.00000000000E+00 -0.45593999997E+02  0.45594000000E+02  0.51100000000E-03 0. -1.
    9900012    2    1    2    0    0 -0.28238929574E+02  0.13641033836E+02 -0.57625158794E+01  0.59301928796E+02  0.49999972221E+02 0.  0.
        -12    1    1    2    0    0  0.28238929574E+02 -0.13641033836E+02  0.57625158794E+01  0.31886071204E+02  0.00000000000E+00 0.  1.
         11    1    3    3    0    0 -0.24610248017E+01 -0.12333331991E+02 -0.12095159009E+02  0.17448799179E+02  0.51100000000E-03 0. -1.
        -11    1    3    3    0    0  0.18251054311E+01  0.84546533349E+01  0.69711034259E+00  0.86774498523E+01  0.51100000000E-03 0.  1.
        -12    1    3    3    0    0 -0.27603010203E+02  0.17519712492E+02  0.56355327865E+01  0.33175679765E+02  0.00000000000E+00 0.  1.
</event>
<event>
 7    1  0.6515090E-012  0.5930200E+02  0.7816164E-02  0.1266605E+00
        -11   -1    0    0    0    0  0.00000000000E+00  0.00000000000E+00  0.45593999997E+02  0.45594000000E+02  0.51100000000E-03 0.  1.
         11   -1    0    0    0    0 -0.00000000000E+00 -0.00000000000E+00 -0.45593999997E+02  0.45594000000E+02  0.51100000000E-03 0. -1.
    9900012    2    1    2    0    0 -0.16311771597E+02  0.42741685352E+01 -0.27062418034E+02  0.59302001832E+02  0.50000105421E+02 0.  0.
        -12    1    1    2    0    0  0.16311771597E+02 -0.42741685352E+01  0.27062418034E+02  0.31885998168E+02  0.00000000000E+00 0.  1.
         11    1    3    3    0    0 -0.60578739825E+01 -0.72863363176E+01  0.70971482539E+00  0.95022223461E+01  0.51100000000E-03 0. -1.
        -11    1    3    3    0    0 -0.60394065479E+01 -0.12389124289E+02 -0.12848310975E+01  0.13842529513E+02  0.51100000000E-03 0.  1.
         12    1    3    3    0    0 -0.42144910668E+01  0.23949629142E+02 -0.26487301762E+02  0.35957249973E+02  0.00000000000E+00 0. -1.
</event>
<event>
 7    1  0.6515090E-012  0.5930195E+02  0.7816164E-02  0.1266605E+00
        -11   -1    0    0    0    0  0.00000000000E+00  0.00000000000E+00  0.45593999997E+02  0.45594000000E+02  0.51100000000E-03 0.  1.
         11   -1    0    0    0    0 -0.00000000000E+00 -0.00000000000E+00 -0.45593999997E+02  0.45594000000E+02  0.51100000000E-03 0. -1.
    9900012    2    1    2    0    0  0.32469949244E+01  0.31679270258E+02 -0.16126876624E+01  0.59301954437E+02  0.50000018984E+02 0.  0.
        -12    1    1    2    0    0 -0.32469949244E+01 -0.31679270258E+02  0.16126876624E+01  0.31886045563E+02  0.00000000000E+00 0.  1.
         11    1    3    3    0    0  0.78207130151E+01  0.31805336535E+02 -0.60729145848E+01  0.33311008330E+02  0.51100000000E-03 0. -1.
        -11    1    3    3    0    0 -0.10016688333E+02  0.96914689382E+01  0.48537352298E+01  0.14758636837E+02  0.51100000000E-03 0.  1.
        -12    1    3    3    0    0  0.54429702420E+01 -0.98175352150E+01 -0.39350830744E+00  0.11232309270E+02  0.00000000000E+00 0.  1.
</event>
<event>
 7    1  0.6515090E-012  0.5930196E+02  0.7816164E-02  0.1266605E+00
        -11   -1    0    0    0    0  0.00000000000E+00  0.00000000000E+00  0.45593999997E+02  0.45594000000E+02  0.51100000000E-03 0. -1.
         11   -1    0    0    0    0 -0.00000000000E+00 -0.00000000000E+00 -0.45593999997E+02  0.45594000000E+02  0.51100000000E-03 0.  1.
    9900012    2    1    2    0    0 -0.11922986610E+02 -0.75626293457E+01  0.28589663735E+02  0.59301955328E+02  0.50000020609E+02 0.  0.
        -12    1    1    2    0    0  0.11922986610E+02  0.75626293457E+01 -0.28589663735E+02  0.31886044672E+02  0.00000000000E+00 0.  1.
         11    1    3    3    0    0 -0.19283748837E+02  0.87152246901E+01 -0.19654210773E+01  0.21252787838E+02  0.51100000000E-03 0. -1.
        -11    1    3    3    0    0  0.29188193901E+01  0.16580327717E+01  0.16443367995E+01  0.37379704487E+01  0.51100000000E-03 0.  1.
         12    1    3    3    0    0  0.44419428367E+01 -0.17935886808E+02  0.28910748013E+02  0.34311197042E+02  0.00000000000E+00 0. -1.
</event>
<event>
 7    1  0.6515090E-012  0.5930203E+02  0.7816164E-02  0.1266604E+00
        -11   -1    0    0    0    0  0.00000000000E+00  0.00000000000E+00  0.45593999997E+02  0.45594000000E+02  0.51100000000E-03 0.  1.
         11   -1    0    0    0    0 -0.00000000000E+00 -0.00000000000E+00 -0.45593999997E+02  0.45594000000E+02  0.51100000000E-03 0. -1.
    9900012    2    1    2    0    0 -0.30387308417E+02 -0.88747734629E+01  0.38163887614E+01  0.59302032239E+02  0.50000160877E+02 0.  0.
        -12    1    1    2    0    0  0.30387308417E+02  0.88747734629E+01 -0.38163887614E+01  0.31885967761E+02  0.00000000000E+00 0.  1.
         11    1    3    3    0    0 -0.11153117953E+02  0.79064601546E+01 -0.40427221540E+01  0.14256498691E+02  0.51100000000E-03 0. -1.
        -11    1    3    3    0    0  0.30639940266E+01 -0.20814614933E+01 -0.11485595600E+02  0.12068116999E+02  0.51100000000E-03 0.  1.
         12    1    3    3    0    0 -0.22298184490E+02 -0.14699772124E+02  0.19344706516E+02  0.32977416549E+02  0.00000000000E+00 0. -1.
</event>
<event>
 7    1  0.6515090E-012  0.5930194E+02  0.7816164E-02  0.1266605E+00
        -11   -1    0    0    0    0  0.00000000000E+00  0.00000000000E+00  0.45593999997E+02  0.45594000000E+02  0.51100000000E-03 0. -1.
         11   -1    0    0    0    0 -0.00000000000E+00 -0.00000000000E+00 -0.45593999997E+02  0.45594000000E+02  0.51100000000E-03 0.  1.
    9900012    2    1    2    0    0 -0.24594857694E+01  0.28980790531E+01  0.31658691307E+02  0.59301942425E+02  0.49999997077E+02 0.  0.
        -12    1    1    2    0    0  0.24594857694E+01 -0.28980790531E+01 -0.31658691307E+02  0.31886057575E+02  0.00000000000E+00 0.  1.
         11    1    3    3    0    0  0.84640657127E+01 -0.89127005235E+01  0.28706131912E+01  0.12622086173E+02  0.51100000000E-03 0. -1.
        -11    1    3    3    0    0  0.62656205286E+01  0.86080514362E+01  0.27096561726E+02  0.29113230803E+02  0.51100000000E-03 0.  1.
         12    1    3    3    0    0 -0.17189172011E+02  0.32027281404E+01  0.16915163890E+01  0.17566625449E+02  0.00000000000E+00 0. -1.
</event>
<event>
 7    1  0.6515090E-012  0.5930197E+02  0.7816164E-02  0.1266605E+00
        -11   -1    0    0    0    0  0.00000000000E+00  0.00000000000E+00  0.45593999997E+02  0.45594000000E+02  0.51100000000E-03 0. -1.
         11   -1    0    0    0    0 -0.00000000000E+00 -0.00000000000E+00 -0.45593999997E+02  0.45594000000E+02  0.51100000000E-03 0.  1.
    9900012    2    1    2    0    0  0.26127624530E+02 -0.80013609825E+01  0.16433035693E+02  0.59301965388E+02  0.50000038957E+02 0.  0.
        -12    1    1    2    0    0 -0.26127624530E+02  0.80013609825E+01 -0.16433035693E+02  0.31886034612E+02  0.00000000000E+00 0.  1.
         11    1    3    3    0    0  0.99912758348E+00  0.72787680850E+01  0.36409320121E+01  0.81997016373E+01  0.51100000000E-03 0. -1.
        -11    1    3    3    0    0 -0.52576334338E+01 -0.62229400977E+01 -0.93709257486E+01  0.12417002151E+02  0.51100000000E-03 0.  1.
         12    1    3    3    0    0  0.30386130381E+02 -0.90571889699E+01  0.22163029429E+02  0.38685261600E+02  0.00000000000E+00 0. -1.
</event>
<event>
 7    1  0.6515090E-012  0.5930193E+02  0.7816164E-02  0.1266605E+00
        -11   -1    0    0    0    0  0.00000000000E+00  0.00000000000E+00  0.45593999997E+02  0.45594000000E+02  0.51100000000E-03 0.  1.
         11   -1    0    0    0    0 -0.00000000000E+00 -0.00000000000E+00 -0.45593999997E+02  0.45594000000E+02  0.51100000000E-03 0. -1.
    9900012    2    1    2    0    0 -0.22901037446E+01 -0.20492033302E+02 -0.24321875456E+02  0.59301927339E+02  0.49999969564E+02 0.  0.
        -12    1    1    2    0    0  0.22901037446E+01  0.20492033302E+02  0.24321875456E+02  0.31886072661E+02  0.00000000000E+00 0.  1.
         11    1    3    3    0    0 -0.95880368297E+01 -0.15518009186E+02 -0.35038742820E+02  0.39502563942E+02  0.51100000000E-03 0. -1.
        -11    1    3    3    0    0  0.50493083482E+00  0.14958692769E+00 -0.33327705345E+01  0.33741207883E+01  0.51100000000E-03 0.  1.
        -12    1    3    3    0    0  0.67930022502E+01 -0.51236110440E+01  0.14049637898E+02  0.16425242609E+02  0.00000000000E+00 0.  1.
</event>
<event>
 7    1  0.6515090E-012  0.5930194E+02  0.7816164E-02  0.1266605E+00
        -11   -1    0    0    0    0  0.00000000000E+00  0.00000000000E+00  0.45593999997E+02  0.45594000000E+02  0.51100000000E-03 0.  1.
         11   -1    0    0    0    0 -0.00000000000E+00 -0.00000000000E+00 -0.45593999997E+02  0.45594000000E+02  0.51100000000E-03 0. -1.
    9900012    2    1    2    0    0 -0.23569276471E+02  0.14085767078E+02 -0.16211139783E+02  0.59301942222E+02  0.49999996707E+02 0.  0.
        -12    1    1    2    0    0  0.23569276471E+02 -0.14085767078E+02  0.16211139783E+02  0.31886057778E+02  0.00000000000E+00 0.  1.
         11    1    3    3    0    0 -0.20446819880E+02  0.14061644115E+02 -0.32426422780E+01  0.25026326291E+02  0.51100000000E-03 0. -1.
        -11    1    3    3    0    0 -0.89285344168E+00  0.42147261229E+01 -0.22882113066E+02  0.23284162046E+02  0.51100000000E-03 0.  1.
         12    1    3    3    0    0 -0.22296031489E+01 -0.41906031597E+01  0.99136155602E+01  0.10991453886E+02  0.00000000000E+00 0. -1.
</event>
<event>
 7    1  0.6515090E-012  0.5930194E+02  0.7816164E-02  0.1266605E+00
        -11   -1    0    0    0    0  0.00000000000E+00  0.00000000000E+00  0.45593999997E+02  0.45594000000E+02  0.51100000000E-03 0.  1.
         11   -1    0    0    0    0 -0.00000000000E+00 -0.00000000000E+00 -0.45593999997E+02  0.45594000000E+02  0.51100000000E-03 0. -1.
    9900012    2    1    2    0    0  0.13831338041E+02  0.16105523133E+02 -0.23791322570E+02  0.59301940083E+02  0.49999992806E+02 0.  0.
        -12    1    1    2    0    0 -0.13831338041E+02 -0.16105523133E+02  0.23791322570E+02  0.31886059917E+02  0.00000000000E+00 0.  1.
         11    1    3    3    0    0  0.14555150433E+02 -0.10802040008E+01 -0.26106085851E+02  0.29908977975E+02  0.51100000000E-03 0. -1.
        -11    1    3    3    0    0  0.20780609568E+01 -0.52404788560E+01  0.37110964327E+01  0.67493105555E+01  0.51100000000E-03 0.  1.
        -12    1    3    3    0    0 -0.28018733482E+01  0.22426205990E+02 -0.13963331519E+01  0.22643651553E+02  0.00000000000E+00 0.  1.
</event>
<event>
 7    1  0.6515090E-012  0.5930198E+02  0.7816164E-02  0.1266605E+00
        -11   -1    0    0    0    0  0.00000000000E+00  0.00000000000E+00  0.45593999997E+02  0.45594000000E+02  0.51100000000E-03 0.  1.
         11   -1    0    0    0    0 -0.00000000000E+00 -0.00000000000E+00 -0.45593999997E+02  0.45594000000E+02  0.51100000000E-03 0. -1.
    9900012    2    1    2    0    0 -0.11415357917E+02  0.25590837229E+02 -0.15215680377E+02  0.59301979932E+02  0.50000065480E+02 0.  0.
        -12    1    1    2    0    0  0.11415357917E+02 -0.25590837229E+02  0.15215680377E+02  0.31886020068E+02  0.00000000000E+00 0.  1.
         11    1    3    3    0    0 -0.21240844407E+01  0.20954110968E+02 -0.30184244442E+02  0.36805911399E+02  0.51100000000E-03 0. -1.
        -11    1    3    3    0    0 -0.20422526376E+01  0.94967280124E-01 -0.23894191650E+01  0.31447001173E+01  0.51100000000E-03 0.  1.
        -12    1    3    3    0    0 -0.72490208388E+01  0.45417589807E+01  0.17357983229E+02  0.19351368415E+02  0.00000000000E+00 0.  1.
</event>
<event>
 7    1  0.6515090E-012  0.5930192E+02  0.7816164E-02  0.1266605E+00
        -11   -1    0    0    0    0  0.00000000000E+00  0.00000000000E+00  0.45593999997E+02  0.45594000000E+02  0.51100000000E-03 0. -1.
         11   -1    0    0    0    0 -0.00000000000E+00 -0.00000000000E+00 -0.45593999997E+02  0.45594000000E+02  0.51100000000E-03 0.  1.
    9900012    2    1    2    0    0 -0.25208911479E+02 -0.76123681187E+01  0.17980115694E+02  0.59301922683E+02  0.49999961072E+02 0.  0.
        -12    1    1    2    0    0  0.25208911479E+02  0.76123681187E+01 -0.17980115694E+02  0.31886077317E+02  0.00000000000E+00 0.  1.
         11    1    3    3    0    0 -0.52150611637E+01  0.25608477438E+01 -0.84244832480E+01  0.10233607495E+02  0.51100000000E-03 0. -1.
        -11    1    3    3    0    0 -0.16598137943E+01 -0.50673624305E+01 -0.80798175339E+01  0.96807332097E+01  0.51100000000E-03 0.  1.
         12    1    3    3    0    0 -0.18334036520E+02 -0.51058534320E+01  0.34484416476E+02  0.39387581978E+02  0.00000000000E+00 0. -1.
</event>
<event>
 7    1  0.6515090E-012  0.5930202E+02  0.7816164E-02  0.1266605E+00
        -11   -1    0    0    0    0  0.00000000000E+00  0.00000000000E+00  0.45593999997E+02  0.45594000000E+02  0.51100000000E-03 0.  1.
         11   -1    0    0    0    0 -0.00000000000E+00 -0.00000000000E+00 -0.45593999997E+02  0.45594000000E+02  0.51100000000E-03 0. -1.
    9900012    2    1    2    0    0  0.20968209728E+02  0.14568292414E+02 -0.19100132798E+02  0.59302015054E+02  0.50000129535E+02 0.  0.
        -12    1    1    2    0    0 -0.20968209728E+02 -0.14568292414E+02  0.19100132798E+02  0.31885984946E+02  0.00000000000E+00 0.  1.
         11    1    3    3    0    0  0.11901155253E+02  0.25425768372E+02 -0.17199927764E+02  0.32923315583E+02  0.51100000000E-03 0. -1.
        -11    1    3    3    0    0  0.58312267254E+01  0.63299981015E+01 -0.22130220656E+01  0.88864811940E+01  0.51100000000E-03 0.  1.
        -12    1    3    3    0    0  0.32358277503E+01 -0.17187474059E+02  0.31281703227E+00  0.17492218277E+02  0.00000000000E+00 0.  1.
</event>
<event>
 7    1  0.6515090E-012  0.5930194E+02  0.7816164E-02  0.1266605E+00
        -11   -1    0    0    0    0  0.00000000000E+00  0.00000000000E+00  0.45593999997E+02  0.45594000000E+02  0.51100000000E-03 0.  1.
         11   -1    0    0    0    0 -0.00000000000E+00 -0.00000000000E+00 -0.45593999997E+02  0.45594000000E+02  0.51100000000E-03 0. -1.
    9900012    2    1    2    0    0  0.25564255582E+02 -0.16983218317E+02 -0.86463848701E+01  0.59301939736E+02  0.49999992172E+02 0.  0.
        -12    1    1    2    0    0 -0.25564255582E+02  0.16983218317E+02  0.86463848701E+01  0.31886060264E+02  0.00000000000E+00 0.  1.
         11    1    3    3    0    0 -0.32256019202E-01 -0.12765602170E+01  0.17911106542E+01  0.21997099980E+01  0.51100000000E-03 0. -1.
        -11    1    3    3    0    0  0.31818356546E+02 -0.11720939646E+02  0.10014454436E+02  0.35356435586E+02  0.51100000000E-03 0.  1.
         12    1    3    3    0    0 -0.62218449447E+01 -0.39857184542E+01 -0.20451949960E+02  0.21745794151E+02  0.00000000000E+00 0. -1.
</event>
<event>
 7    1  0.6515090E-012  0.5930190E+02  0.7816164E-02  0.1266605E+00
        -11   -1    0    0    0    0  0.00000000000E+00  0.00000000000E+00  0.45593999997E+02  0.45594000000E+02  0.51100000000E-03 0.  1.
         11   -1    0    0    0    0 -0.00000000000E+00 -0.00000000000E+00 -0.45593999997E+02  0.45594000000E+02  0.51100000000E-03 0. -1.
    9900012    2    1    2    0    0 -0.27663163381E+02  0.80052038761E+01 -0.13689026409E+02  0.59301900499E+02  0.49999920615E+02 0.  0.
        -12    1    1    2    0    0  0.27663163381E+02 -0.80052038761E+01  0.13689026409E+02  0.31886099501E+02  0.00000000000E+00 0.  1.
         11    1    3    3    0    0  0.76826828559E+00 -0.59706065587E+01  0.14481837717E+01  0.61915761592E+01  0.51100000000E-03 0. -1.
        -11    1    3    3    0    0 -0.55431115269E+01  0.13427863728E+02  0.11104458086E+02  0.18285037581E+02  0.51100000000E-03 0.  1.
         12    1    3    3    0    0 -0.22888320140E+02  0.54794670659E+00 -0.26241668267E+02  0.34825286759E+02  0.00000000000E+00 0. -1.
</event>
<event>
 7    1  0.6515090E-012  0.5930189E+02  0.7816164E-02  0.1266605E+00
        -11   -1    0    0    0    0  0.00000000000E+00  0.00000000000E+00  0.45593999997E+02  0.45594000000E+02  0.51100000000E-03 0.  1.
         11   -1    0    0    0    0 -0.00000000000E+00 -0.00000000000E+00 -0.45593999997E+02  0.45594000000E+02  0.51100000000E-03 0. -1.
    9900012    2    1    2    0    0 -0.23656827179E+02  0.18618206409E+02  0.10509089230E+02  0.59301889567E+02  0.49999900677E+02 0.  0.
        -12    1    1    2    0    0  0.23656827179E+02 -0.18618206409E+02 -0.10509089230E+02  0.31886110433E+02  0.00000000000E+00 0.  1.
         11    1    3    3    0    0 -0.90367479641E+01  0.14441896549E+02  0.10307387761E+02  0.19911640626E+02  0.51100000000E-03 0. -1.
        -11    1    3    3    0    0 -0.89885146535E+01  0.12152068645E+01  0.18181213374E+02  0.20318135826E+02  0.51100000000E-03 0.  1.
        -12    1    3    3    0    0 -0.56315645618E+01  0.29611029951E+01 -0.17979511905E+02  0.19072113116E+02  0.00000000000E+00 0.  1.
</event>
<event>
 7    1  0.6515090E-012  0.5930196E+02  0.7816164E-02  0.1266605E+00
        -11   -1    0    0    0    0  0.00000000000E+00  0.00000000000E+00  0.45593999997E+02  0.45594000000E+02  0.51100000000E-03 0.  1.
         11   -1    0    0    0    0 -0.00000000000E+00 -0.00000000000E+00 -0.45593999997E+02  0.45594000000E+02  0.51100000000E-03 0. -1.
    9900012    2    1    2    0    0 -0.27524769604E+02 -0.10715905126E+02 -0.12011491039E+02  0.59301961027E+02  0.50000031003E+02 0.  0.
        -12    1    1    2    0    0  0.27524769604E+02  0.10715905126E+02  0.12011491039E+02  0.31886038973E+02  0.00000000000E+00 0.  1.
         11    1    3    3    0    0 -0.11709457670E+02  0.99854877800E+01  0.47336801828E+00  0.15396280157E+02  0.51100000000E-03 0. -1.
        -11    1    3    3    0    0 -0.72661383019E+00  0.62864301969E+01  0.52839157641E+01  0.82442063500E+01  0.51100000000E-03 0.  1.
        -12    1    3    3    0    0 -0.15088698104E+02 -0.26987823103E+02 -0.17768774821E+02  0.35661474520E+02  0.00000000000E+00 0.  1.
</event>
<event>
 7    1  0.6515090E-012  0.5930200E+02  0.7816164E-02  0.1266605E+00
        -11   -1    0    0    0    0  0.00000000000E+00  0.00000000000E+00  0.45593999997E+02  0.45594000000E+02  0.51100000000E-03 0. -1.
         11   -1    0    0    0    0 -0.00000000000E+00 -0.00000000000E+00 -0.45593999997E+02  0.45594000000E+02  0.51100000000E-03 0.  1.
    9900012    2    1    2    0    0  0.31086990895E+02 -0.67894489393E+01 -0.20541115746E+01  0.59302000029E+02  0.50000102133E+02 0.  0.
        -12    1    1    2    0    0 -0.31086990895E+02  0.67894489393E+01  0.20541115746E+01  0.31885999971E+02  0.00000000000E+00 0.  1.
         11    1    3    3    0    0  0.10187292810E+02  0.73045264246E+01 -0.76442480277E+01  0.14682355712E+02  0.51100000000E-03 0. -1.
        -11    1    3    3    0    0  0.89741582297E+01  0.11324870043E+02 -0.39262542982E+01  0.14973432155E+02  0.51100000000E-03 0.  1.
         12    1    3    3    0    0  0.11925539855E+02 -0.25418845407E+02  0.95163907513E+01  0.29646212162E+02  0.00000000000E+00 0. -1.
</event>
<event>
 7    1  0.6515090E-012  0.5930192E+02  0.7816164E-02  0.1266605E+00
        -11   -1    0    0    0    0  0.00000000000E+00  0.00000000000E+00  0.45593999997E+02  0.45594000000E+02  0.51100000000E-03 0. -1.
         11   -1    0    0    0    0 -0.00000000000E+00 -0.00000000000E+00 -0.45593999997E+02  0.45594000000E+02  0.51100000000E-03 0.  1.
    9900012    2    1    2    0    0 -0.22479958299E+02  0.78979368010E+01  0.21189528379E+02  0.59301920847E+02  0.49999957724E+02 0.  0.
        -12    1    1    2    0    0  0.22479958299E+02 -0.78979368010E+01 -0.21189528379E+02  0.31886079153E+02  0.00000000000E+00 0.  1.
         11    1    3    3    0    0 -0.14267830484E+02  0.55967119003E+01  0.27635440145E+01  0.15573417949E+02  0.51100000000E-03 0. -1.
        -11    1    3    3    0    0 -0.24533240215E+01  0.15127848353E+02  0.24105391708E+02  0.28564672311E+02  0.51100000000E-03 0.  1.
         12    1    3    3    0    0 -0.57588037934E+01 -0.12826623453E+02 -0.56794073439E+01  0.15163830588E+02  0.00000000000E+00 0. -1.
</event>
<event>
 7    1  0.6515090E-012  0.5930194E+02  0.7816164E-02  0.1266605E+00
        -11   -1    0    0    0    0  0.00000000000E+00  0.00000000000E+00  0.45593999997E+02  0.45594000000E+02  0.51100000000E-03 0. -1.
         11   -1    0    0    0    0 -0.00000000000E+00 -0.00000000000E+00 -0.45593999997E+02  0.45594000000E+02  0.51100000000E-03 0.  1.
    9900012    2    1    2    0    0  0.36702528650E+01 -0.29376907480E+02  0.11842621575E+02  0.59301935098E+02  0.49999983714E+02 0.  0.
        -12    1    1    2    0    0 -0.36702528650E+01  0.29376907480E+02 -0.11842621575E+02  0.31886064902E+02  0.00000000000E+00 0.  1.
         11    1    3    3    0    0  0.17287204688E+01  0.40737414771E+01  0.11915551719E+01  0.45829737148E+01  0.51100000000E-03 0. -1.
        -11    1    3    3    0    0  0.21072030212E+02 -0.24300407658E+02  0.35701144974E+01  0.32361798271E+02  0.51100000000E-03 0.  1.
         12    1    3    3    0    0 -0.19130497816E+02 -0.91502412995E+01  0.70809519053E+01  0.22357163112E+02  0.00000000000E+00 0. -1.
</event>
<event>
 7    1  0.6515090E-012  0.5930195E+02  0.7816164E-02  0.1266605E+00
        -11   -1    0    0    0    0  0.00000000000E+00  0.00000000000E+00  0.45593999997E+02  0.45594000000E+02  0.51100000000E-03 0.  1.
         11   -1    0    0    0    0 -0.00000000000E+00 -0.00000000000E+00 -0.45593999997E+02  0.45594000000E+02  0.51100000000E-03 0. -1.
    9900012    2    1    2    0    0  0.30446472408E+02 -0.65622461502E+01 -0.68315165729E+01  0.59301947010E+02  0.50000005438E+02 0.  0.
        -12    1    1    2    0    0 -0.30446472408E+02  0.65622461502E+01  0.68315165729E+01  0.31886052990E+02  0.00000000000E+00 0.  1.
         11    1    3    3    0    0  0.11585496776E+02 -0.74257099232E+01 -0.19101807361E+02  0.23542386203E+02  0.51100000000E-03 0. -1.
        -11    1    3    3    0    0 -0.68858082780E+01 -0.28231630262E+01  0.14131284304E+01  0.75750602199E+01  0.51100000000E-03 0.  1.
         12    1    3    3    0    0  0.25746783910E+02  0.36866267993E+01  0.10857162358E+02  0.28184500587E+02  0.00000000000E+00 0. -1.
</event>
<event>
 7    1  0.6515090E-012  0.5930188E+02  0.7816164E-02  0.1266605E+00
        -11   -1    0    0    0    0  0.00000000000E+00  0.00000000000E+00  0.45593999997E+02  0.45594000000E+02  0.51100000000E-03 0.  1.
         11   -1    0    0    0    0 -0.00000000000E+00 -0.00000000000E+00 -0.45593999997E+02  0.45594000000E+02  0.51100000000E-03 0. -1.
    9900012    2    1    2    0    0  0.29922274803E+02 -0.23115915206E+01 -0.10772114405E+02  0.59301883374E+02  0.49999889382E+02 0.  0.
        -12    1    1    2    0    0 -0.29922274803E+02  0.23115915206E+01  0.10772114405E+02  0.31886116626E+02  0.00000000000E+00 0.  1.
         11    1    3    3    0    0  0.16520086536E+02 -0.15464424197E+02 -0.19115716750E+01  0.22709376509E+02  0.51100000000E-03 0. -1.
        -11    1    3    3    0    0  0.30939994812E-01 -0.85504786870E+01 -0.69689575807E+01  0.11030775724E+02  0.51100000000E-03 0.  1.
        -12    1    3    3    0    0  0.13371248272E+02  0.21703311364E+02 -0.18915851494E+01  0.25561731140E+02  0.00000000000E+00 0.  1.
</event>
<event>
 7    1  0.6515090E-012  0.5930195E+02  0.7816164E-02  0.1266605E+00
        -11   -1    0    0    0    0  0.00000000000E+00  0.00000000000E+00  0.45593999997E+02  0.45594000000E+02  0.51100000000E-03 0. -1.
         11   -1    0    0    0    0 -0.00000000000E+00 -0.00000000000E+00 -0.45593999997E+02  0.45594000000E+02  0.51100000000E-03 0.  1.
    9900012    2    1    2    0    0  0.15345564625E+01 -0.31677060300E+02  0.33058961177E+01  0.59301953492E+02  0.50000017260E+02 0.  0.
        -12    1    1    2    0    0 -0.15345564625E+01  0.31677060300E+02 -0.33058961177E+01  0.31886046508E+02  0.00000000000E+00 0.  1.
         11    1    3    3    0    0  0.14194831798E+02 -0.67685540712E+01 -0.22081549038E+01  0.15880255739E+02  0.51100000000E-03 0.  1.
        -11    1    3    3    0    0 -0.68767310370E+01 -0.30073883238E+02  0.12207951844E+02  0.33177733064E+02  0.51100000000E-03 0. -1.
         12    1    3    3    0    0 -0.57835442989E+01  0.51653770096E+01 -0.66939008228E+01  0.10243964688E+02  0.00000000000E+00 0. -1.
</event>
<event>
 7    1  0.6515090E-012  0.5930191E+02  0.7816164E-02  0.1266605E+00
        -11   -1    0    0    0    0  0.00000000000E+00  0.00000000000E+00  0.45593999997E+02  0.45594000000E+02  0.51100000000E-03 0. -1.
         11   -1    0    0    0    0 -0.00000000000E+00 -0.00000000000E+00 -0.45593999997E+02  0.45594000000E+02  0.51100000000E-03 0.  1.
    9900012    2    1    2    0    0 -0.16724327293E+02  0.25857019898E+02  0.82724762951E+01  0.59301914234E+02  0.49999945664E+02 0.  0.
        -12    1    1    2    0    0  0.16724327293E+02 -0.25857019898E+02 -0.82724762951E+01  0.31886085766E+02  0.00000000000E+00 0.  1.
         11    1    3    3    0    0 -0.18371492144E+02  0.19085861813E+02 -0.86659825996E+01  0.27872586881E+02  0.51100000000E-03 0. -1.
        -11    1    3    3    0    0 -0.50328956674E+01  0.35029692073E+01 -0.52220862253E+01  0.80542545820E+01  0.51100000000E-03 0.  1.
        -12    1    3    3    0    0  0.66800605185E+01  0.32681888776E+01  0.22160545120E+02  0.23375072772E+02  0.00000000000E+00 0.  1.
</event>
<event>
 7    1  0.6515090E-012  0.5930194E+02  0.7816164E-02  0.1266605E+00
        -11   -1    0    0    0    0  0.00000000000E+00  0.00000000000E+00  0.45593999997E+02  0.45594000000E+02  0.51100000000E-03 0. -1.
         11   -1    0    0    0    0 -0.00000000000E+00 -0.00000000000E+00 -0.45593999997E+02  0.45594000000E+02  0.51100000000E-03 0.  1.
    9900012    2    1    2    0    0  0.12693322925E+02 -0.28707459836E+02  0.56108866062E+01  0.59301941203E+02  0.49999994849E+02 0.  0.
        -12    1    1    2    0    0 -0.12693322925E+02  0.28707459836E+02 -0.56108866062E+01  0.31886058797E+02  0.00000000000E+00 0.  1.
         11    1    3    3    0    0 -0.32557467673E+01  0.71138712322E+01  0.41251353607E+01  0.88444215711E+01  0.51100000000E-03 0. -1.
        -11    1    3    3    0    0  0.70796965923E+01 -0.12324752260E+00  0.10426101431E+02  0.12603209317E+02  0.51100000000E-03 0.  1.
         12    1    3    3    0    0  0.88693730996E+01 -0.35698083545E+02 -0.89403501852E+01  0.37854310315E+02  0.00000000000E+00 0. -1.
</event>
<event>
 7    1  0.6515090E-012  0.5930194E+02  0.7816164E-02  0.1266605E+00
        -11   -1    0    0    0    0  0.00000000000E+00  0.00000000000E+00  0.45593999997E+02  0.45594000000E+02  0.51100000000E-03 0.  1.
         11   -1    0    0    0    0 -0.00000000000E+00 -0.00000000000E+00 -0.45593999997E+02  0.45594000000E+02  0.51100000000E-03 0. -1.
    9900012    2    1    2    0    0 -0.16930044271E+02  0.17471719254E+02 -0.20611484454E+02  0.59301942481E+02  0.49999997179E+02 0.  0.
        -12    1    1    2    0    0  0.16930044271E+02 -0.17471719254E+02  0.20611484454E+02  0.31886057519E+02  0.00000000000E+00 0.  1.
         11    1    3    3    0    0  0.50231998335E+00  0.14456836674E+01 -0.11967948033E+02  0.12065409525E+02  0.51100000000E-03 0. -1.
        -11    1    3    3    0    0 -0.24089713307E+02 -0.37288952506E+01 -0.99952463610E+01  0.26346231174E+02  0.51100000000E-03 0.  1.
        -12    1    3    3    0    0  0.66573490525E+01  0.19754930837E+02  0.13517099394E+01  0.20890301782E+02  0.00000000000E+00 0.  1.
</event>
<event>
 7    1  0.6515090E-012  0.5930202E+02  0.7816164E-02  0.1266604E+00
        -11   -1    0    0    0    0  0.00000000000E+00  0.00000000000E+00  0.45593999997E+02  0.45594000000E+02  0.51100000000E-03 0.  1.
         11   -1    0    0    0    0 -0.00000000000E+00 -0.00000000000E+00 -0.45593999997E+02  0.45594000000E+02  0.51100000000E-03 0. -1.
    9900012    2    1    2    0    0  0.88209714247E+01  0.21924103851E+02 -0.21406530595E+02  0.59302024735E+02  0.50000147190E+02 0.  0.
        -12    1    1    2    0    0 -0.88209714247E+01 -0.21924103851E+02  0.21406530595E+02  0.31885975265E+02  0.00000000000E+00 0.  1.
         11    1    3    3    0    0  0.12451805946E+02 -0.75619646743E+01 -0.34350419026E+01  0.14967641571E+02  0.51100000000E-03 0. -1.
        -11    1    3    3    0    0  0.95716020638E+01  0.16404283330E+01 -0.42175254233E+01  0.10587449747E+02  0.51100000000E-03 0.  1.
        -12    1    3    3    0    0 -0.13202436585E+02  0.27845640192E+02 -0.13753963269E+02  0.33746933417E+02  0.00000000000E+00 0.  1.
</event>
<event>
 7    1  0.6515090E-012  0.5930196E+02  0.7816164E-02  0.1266605E+00
        -11   -1    0    0    0    0  0.00000000000E+00  0.00000000000E+00  0.45593999997E+02  0.45594000000E+02  0.51100000000E-03 0.  1.
         11   -1    0    0    0    0 -0.00000000000E+00 -0.00000000000E+00 -0.45593999997E+02  0.45594000000E+02  0.51100000000E-03 0. -1.
    9900012    2    1    2    0    0  0.18942377217E+02 -0.10368405345E+02 -0.23460652117E+02  0.59301957885E+02  0.50000025272E+02 0.  0.
        -12    1    1    2    0    0 -0.18942377217E+02  0.10368405345E+02  0.23460652117E+02  0.31886042115E+02  0.00000000000E+00 0.  1.
         11    1    3    3    0    0  0.15002908099E+02 -0.11228426517E+02 -0.11469894722E+02  0.21970964901E+02  0.51100000000E-03 0. -1.
        -11    1    3    3    0    0  0.17504345439E+02 -0.21202676542E+01  0.18430909826E+01  0.17728356630E+02  0.51100000000E-03 0.  1.
         12    1    3    3    0    0 -0.13564876321E+02  0.29802888257E+01 -0.13833848377E+02  0.19602636354E+02  0.00000000000E+00 0. -1.
</event>
<event>
 7    1  0.6515090E-012  0.5930196E+02  0.7816164E-02  0.1266605E+00
        -11   -1    0    0    0    0  0.00000000000E+00  0.00000000000E+00  0.45593999997E+02  0.45594000000E+02  0.51100000000E-03 0.  1.
         11   -1    0    0    0    0 -0.00000000000E+00 -0.00000000000E+00 -0.45593999997E+02  0.45594000000E+02  0.51100000000E-03 0. -1.
    9900012    2    1    2    0    0  0.15382214371E+02  0.21421746652E+02 -0.17922488873E+02  0.59301962993E+02  0.50000034589E+02 0.  0.
        -12    1    1    2    0    0 -0.15382214371E+02 -0.21421746652E+02  0.17922488873E+02  0.31886037007E+02  0.00000000000E+00 0.  1.
         11    1    3    3    0    0 -0.93395902771E+01  0.17943216197E+00  0.26619638827E+01  0.97131969206E+01  0.51100000000E-03 0. -1.
        -11    1    3    3    0    0 -0.66815126016E+01  0.14065831796E+01 -0.76592180918E+01  0.10260833734E+02  0.51100000000E-03 0.  1.
         12    1    3    3    0    0  0.31403317249E+02  0.19835731311E+02 -0.12925234664E+02  0.39327932338E+02  0.00000000000E+00 0. -1.
</event>
<event>
 7    1  0.6515090E-012  0.5930195E+02  0.7816164E-02  0.1266605E+00
        -11   -1    0    0    0    0  0.00000000000E+00  0.00000000000E+00  0.45593999997E+02  0.45594000000E+02  0.51100000000E-03 0.  1.
         11   -1    0    0    0    0 -0.00000000000E+00 -0.00000000000E+00 -0.45593999997E+02  0.45594000000E+02  0.51100000000E-03 0. -1.
    9900012    2    1    2    0    0 -0.12633520169E+02 -0.83247939272E+01 -0.28067991743E+02  0.59301949974E+02  0.50000010845E+02 0.  0.
        -12    1    1    2    0    0  0.12633520169E+02  0.83247939272E+01  0.28067991743E+02  0.31886050026E+02  0.00000000000E+00 0.  1.
         11    1    3    3    0    0 -0.71824667667E+01  0.13604184288E+01  0.15679927821E+01  0.74764409168E+01  0.51100000000E-03 0. -1.
        -11    1    3    3    0    0  0.17605134717E+00 -0.16076293489E+02  0.44582740734E+01  0.16683956797E+02  0.51100000000E-03 0.  1.
         12    1    3    3    0    0 -0.56271047498E+01  0.63910811331E+01 -0.34094258598E+02  0.35141552260E+02  0.00000000000E+00 0. -1.
</event>
<event>
 7    1  0.6515090E-012  0.5930186E+02  0.7816164E-02  0.1266605E+00
        -11   -1    0    0    0    0  0.00000000000E+00  0.00000000000E+00  0.45593999997E+02  0.45594000000E+02  0.51100000000E-03 0. -1.
         11   -1    0    0    0    0 -0.00000000000E+00 -0.00000000000E+00 -0.45593999997E+02  0.45594000000E+02  0.51100000000E-03 0.  1.
    9900012    2    1    2    0    0 -0.12372429861E+02  0.25634234766E+02  0.14371322596E+02  0.59301859973E+02  0.49999846703E+02 0.  0.
        -12    1    1    2    0    0  0.12372429861E+02 -0.25634234766E+02 -0.14371322596E+02  0.31886140027E+02  0.00000000000E+00 0.  1.
         11    1    3    3    0    0 -0.19432128434E+01 -0.13872169452E+01 -0.47045390636E+01  0.52757118069E+01  0.51100000000E-03 0. -1.
        -11    1    3    3    0    0  0.93067508295E+01  0.49916132539E+01 -0.85239032527E+01  0.13571615261E+02  0.51100000000E-03 0.  1.
         12    1    3    3    0    0 -0.19735967847E+02  0.22029838457E+02  0.27599764912E+02  0.40454532904E+02  0.00000000000E+00 0. -1.
</event>
<event>
 7    1  0.6515090E-012  0.5930187E+02  0.7816164E-02  0.1266605E+00
        -11   -1    0    0    0    0  0.00000000000E+00  0.00000000000E+00  0.45593999997E+02  0.45594000000E+02  0.51100000000E-03 0. -1.
         11   -1    0    0    0    0 -0.00000000000E+00 -0.00000000000E+00 -0.45593999997E+02  0.45594000000E+02  0.51100000000E-03 0.  1.
    9900012    2    1    2    0    0  0.28513058457E+01 -0.31736998387E+02 -0.11655306226E+01  0.59301867069E+02  0.49999859646E+02 0.  0.
        -12    1    1    2    0    0 -0.28513058457E+01  0.31736998387E+02  0.11655306226E+01  0.31886132931E+02  0.00000000000E+00 0.  1.
         11    1    3    3    0    0 -0.60842716831E+01 -0.23962780318E+01  0.27187727023E+01  0.70818243121E+01  0.51100000000E-03 0. -1.
        -11    1    3    3    0    0 -0.10569085967E+02 -0.23869293635E+02 -0.13951514387E+02  0.29598876850E+02  0.51100000000E-03 0.  1.
         12    1    3    3    0    0  0.19504663496E+02 -0.54714267203E+01  0.10067211062E+02  0.22621165907E+02  0.00000000000E+00 0. -1.
</event>
<event>
 7    1  0.6515090E-012  0.5930196E+02  0.7816164E-02  0.1266605E+00
        -11   -1    0    0    0    0  0.00000000000E+00  0.00000000000E+00  0.45593999997E+02  0.45594000000E+02  0.51100000000E-03 0.  1.
         11   -1    0    0    0    0 -0.00000000000E+00 -0.00000000000E+00 -0.45593999997E+02  0.45594000000E+02  0.51100000000E-03 0. -1.
    9900012    2    1    2    0    0  0.96540123115E+01 -0.29779825875E+02  0.60565506214E+01  0.59301956215E+02  0.50000022227E+02 0.  0.
        -12    1    1    2    0    0 -0.96540123115E+01  0.29779825875E+02 -0.60565506214E+01  0.31886043785E+02  0.00000000000E+00 0.  1.
         11    1    3    3    0    0 -0.97749344851E+01 -0.44697609385E+01 -0.10296005064E+02  0.14884079669E+02  0.51100000000E-03 0. -1.
        -11    1    3    3    0    0  0.12045385288E+02 -0.23233577077E+02 -0.20378037583E+00  0.26171204352E+02  0.51100000000E-03 0.  1.
         12    1    3    3    0    0  0.73835615087E+01 -0.20764878588E+01  0.16556336062E+02  0.18246672194E+02  0.00000000000E+00 0. -1.
</event>
<event>
 7    1  0.6515090E-012  0.5930207E+02  0.7816164E-02  0.1266604E+00
        -11   -1    0    0    0    0  0.00000000000E+00  0.00000000000E+00  0.45593999997E+02  0.45594000000E+02  0.51100000000E-03 0.  1.
         11   -1    0    0    0    0 -0.00000000000E+00 -0.00000000000E+00 -0.45593999997E+02  0.45594000000E+02  0.51100000000E-03 0. -1.
    9900012    2    1    2    0    0 -0.31444763911E+02 -0.51411112664E+01 -0.12281829754E+01  0.59302068370E+02  0.50000226770E+02 0.  0.
        -12    1    1    2    0    0  0.31444763911E+02  0.51411112664E+01  0.12281829754E+01  0.31885931630E+02  0.00000000000E+00 0.  1.
         11    1    3    3    0    0 -0.11033904817E+02 -0.10280165385E+02 -0.75545325521E+01  0.16867122404E+02  0.51100000000E-03 0. -1.
        -11    1    3    3    0    0 -0.19708207835E+02 -0.11666683826E+02 -0.31669923847E+01  0.23120441358E+02  0.51100000000E-03 0.  1.
        -12    1    3    3    0    0 -0.70265125996E+00  0.16805737945E+02  0.94933419614E+01  0.19314504608E+02  0.00000000000E+00 0.  1.
</event>
<event>
 7    1  0.6515090E-012  0.5930200E+02  0.7816164E-02  0.1266605E+00
        -11   -1    0    0    0    0  0.00000000000E+00  0.00000000000E+00  0.45593999997E+02  0.45594000000E+02  0.51100000000E-03 0. -1.
         11   -1    0    0    0    0 -0.00000000000E+00 -0.00000000000E+00 -0.45593999997E+02  0.45594000000E+02  0.51100000000E-03 0.  1.
    9900012    2    1    2    0    0  0.13862366314E+02  0.12606156655E+02  0.25799929871E+02  0.59302003594E+02  0.50000108635E+02 0.  0.
        -12    1    1    2    0    0 -0.13862366314E+02 -0.12606156655E+02 -0.25799929871E+02  0.31885996406E+02  0.00000000000E+00 0.  1.
         11    1    3    3    0    0  0.66403202460E+00  0.28886967739E+01  0.45838204474E+01  0.54586553048E+01  0.51100000000E-03 0.  1.
        -11    1    3    3    0    0  0.21886904627E+02  0.66882154484E+01  0.32206349972E+02  0.39509717777E+02  0.51100000000E-03 0. -1.
         12    1    3    3    0    0 -0.86885703371E+01  0.30292444330E+01 -0.10990240549E+02  0.14333630512E+02  0.00000000000E+00 0. -1.
</event>
<event>
 7    1  0.6515090E-012  0.5930193E+02  0.7816164E-02  0.1266605E+00
        -11   -1    0    0    0    0  0.00000000000E+00  0.00000000000E+00  0.45593999997E+02  0.45594000000E+02  0.51100000000E-03 0.  1.
         11   -1    0    0    0    0 -0.00000000000E+00 -0.00000000000E+00 -0.45593999997E+02  0.45594000000E+02  0.51100000000E-03 0. -1.
    9900012    2    1    2    0    0  0.24354772106E+02  0.20240436754E+02  0.37270780497E+01  0.59301932273E+02  0.49999978561E+02 0.  0.
        -12    1    1    2    0    0 -0.24354772106E+02 -0.20240436754E+02 -0.37270780497E+01  0.31886067727E+02  0.00000000000E+00 0.  1.
         11    1    3    3    0    0  0.27040859197E+02  0.14190404742E+02 -0.19956775146E+01  0.30603241362E+02  0.51100000000E-03 0. -1.
        -11    1    3    3    0    0  0.40797267814E+01 -0.97768596196E+01  0.11071286717E+00  0.10594499150E+02  0.51100000000E-03 0.  1.
        -12    1    3    3    0    0 -0.67658138725E+01  0.15826891632E+02  0.56120426972E+01  0.18104191761E+02  0.00000000000E+00 0.  1.
</event>
<event>
 7    1  0.6515090E-012  0.5930190E+02  0.7816164E-02  0.1266605E+00
        -11   -1    0    0    0    0  0.00000000000E+00  0.00000000000E+00  0.45593999997E+02  0.45594000000E+02  0.51100000000E-03 0.  1.
         11   -1    0    0    0    0 -0.00000000000E+00 -0.00000000000E+00 -0.45593999997E+02  0.45594000000E+02  0.51100000000E-03 0. -1.
    9900012    2    1    2    0    0  0.22445098182E+02 -0.77206061369E+01 -0.21291619833E+02  0.59301901671E+02  0.49999922752E+02 0.  0.
        -12    1    1    2    0    0 -0.22445098182E+02  0.77206061369E+01  0.21291619833E+02  0.31886098329E+02  0.00000000000E+00 0.  1.
         11    1    3    3    0    0  0.22583174702E+01  0.10428132239E+02 -0.19800159272E+01  0.10852022997E+02  0.51100000000E-03 0. -1.
        -11    1    3    3    0    0 -0.83102504844E+01 -0.55091067592E+01 -0.13428446552E+02  0.16725241327E+02  0.51100000000E-03 0.  1.
         12    1    3    3    0    0  0.28497031196E+02 -0.12639631617E+02 -0.58831573541E+01  0.31724637348E+02  0.00000000000E+00 0. -1.
</event>
<event>
 7    1  0.6515090E-012  0.5930195E+02  0.7816164E-02  0.1266605E+00
        -11   -1    0    0    0    0  0.00000000000E+00  0.00000000000E+00  0.45593999997E+02  0.45594000000E+02  0.51100000000E-03 0.  1.
         11   -1    0    0    0    0 -0.00000000000E+00 -0.00000000000E+00 -0.45593999997E+02  0.45594000000E+02  0.51100000000E-03 0. -1.
    9900012    2    1    2    0    0 -0.25129868913E+02  0.14667804338E+02 -0.13040907866E+02  0.59301951740E+02  0.50000014066E+02 0.  0.
        -12    1    1    2    0    0  0.25129868913E+02 -0.14667804338E+02  0.13040907866E+02  0.31886048260E+02  0.00000000000E+00 0.  1.
         11    1    3    3    0    0 -0.61805596053E+01 -0.76378033740E+01 -0.37316668253E+01  0.10510028305E+02  0.51100000000E-03 0.  1.
        -11    1    3    3    0    0 -0.25191110405E+02  0.12390059911E+01 -0.81321442071E+00  0.25234668558E+02  0.51100000000E-03 0. -1.
         12    1    3    3    0    0  0.62418010980E+01  0.21066601721E+02 -0.84960266199E+01  0.23557254877E+02  0.00000000000E+00 0. -1.
</event>
<event>
 7    1  0.6515090E-012  0.5930194E+02  0.7816164E-02  0.1266605E+00
        -11   -1    0    0    0    0  0.00000000000E+00  0.00000000000E+00  0.45593999997E+02  0.45594000000E+02  0.51100000000E-03 0.  1.
         11   -1    0    0    0    0 -0.00000000000E+00 -0.00000000000E+00 -0.45593999997E+02  0.45594000000E+02  0.51100000000E-03 0. -1.
    9900012    2    1    2    0    0 -0.31861202451E+02 -0.11457305631E+01 -0.52149247191E+00  0.59301939181E+02  0.49999991161E+02 0.  0.
        -12    1    1    2    0    0  0.31861202451E+02  0.11457305631E+01  0.52149247191E+00  0.31886060819E+02  0.00000000000E+00 0.  1.
         11    1    3    3    0    0  0.11326033270E+01 -0.12281920888E+02 -0.48865166999E+01  0.13266740999E+02  0.51100000000E-03 0. -1.
        -11    1    3    3    0    0  0.49082485714E+01 -0.16064614097E+01 -0.20131363175E+01  0.55429541216E+01  0.51100000000E-03 0.  1.
        -12    1    3    3    0    0 -0.37902054349E+02  0.12742651735E+02  0.63781605455E+01  0.40492244061E+02  0.00000000000E+00 0.  1.
</event>
<event>
 7    1  0.6515090E-012  0.5930200E+02  0.7816164E-02  0.1266605E+00
        -11   -1    0    0    0    0  0.00000000000E+00  0.00000000000E+00  0.45593999997E+02  0.45594000000E+02  0.51100000000E-03 0.  1.
         11   -1    0    0    0    0 -0.00000000000E+00 -0.00000000000E+00 -0.45593999997E+02  0.45594000000E+02  0.51100000000E-03 0. -1.
    9900012    2    1    2    0    0  0.23910606215E+02  0.16547208415E+02 -0.13083962630E+02  0.59301995641E+02  0.50000094130E+02 0.  0.
        -12    1    1    2    0    0 -0.23910606215E+02 -0.16547208415E+02  0.13083962630E+02  0.31886004359E+02  0.00000000000E+00 0.  1.
         11    1    3    3    0    0 -0.34629807665E+01 -0.57784749854E+01  0.71375590679E+01  0.98146705831E+01  0.51100000000E-03 0. -1.
        -11    1    3    3    0    0  0.22162170573E+01 -0.26192752506E+00  0.61928238016E+01  0.65826507558E+01  0.51100000000E-03 0.  1.
         12    1    3    3    0    0  0.25157369924E+02  0.22587610925E+02 -0.26414345500E+02  0.42904674302E+02  0.00000000000E+00 0. -1.
</event>
<event>
 7    1  0.6515090E-012  0.5930192E+02  0.7816164E-02  0.1266605E+00
        -11   -1    0    0    0    0  0.00000000000E+00  0.00000000000E+00  0.45593999997E+02  0.45594000000E+02  0.51100000000E-03 0. -1.
         11   -1    0    0    0    0 -0.00000000000E+00 -0.00000000000E+00 -0.45593999997E+02  0.45594000000E+02  0.51100000000E-03 0.  1.
    9900012    2    1    2    0    0 -0.10125354791E+02  0.21214978465E+02  0.21543533719E+02  0.59301922066E+02  0.49999959948E+02 0.  0.
        -12    1    1    2    0    0  0.10125354791E+02 -0.21214978465E+02 -0.21543533719E+02  0.31886077934E+02  0.00000000000E+00 0.  1.
         11    1    3    3    0    0 -0.19299101781E+01 -0.27584629622E+01  0.17642809260E+02  0.17961135545E+02  0.51100000000E-03 0. -1.
        -11    1    3    3    0    0 -0.10721846643E+02 -0.30331379382E+01 -0.57649137904E+01  0.12545602914E+02  0.51100000000E-03 0.  1.
         12    1    3    3    0    0  0.25264020301E+01  0.27006579365E+02  0.96656382485E+01  0.28795183607E+02  0.00000000000E+00 0. -1.
</event>
<event>
 7    1  0.6515090E-012  0.5930194E+02  0.7816164E-02  0.1266605E+00
        -11   -1    0    0    0    0  0.00000000000E+00  0.00000000000E+00  0.45593999997E+02  0.45594000000E+02  0.51100000000E-03 0.  1.
         11   -1    0    0    0    0 -0.00000000000E+00 -0.00000000000E+00 -0.45593999997E+02  0.45594000000E+02  0.51100000000E-03 0. -1.
    9900012    2    1    2    0    0  0.98602327562E+01 -0.20763750717E+02 -0.22098945547E+02  0.59301938341E+02  0.49999989628E+02 0.  0.
        -12    1    1    2    0    0 -0.98602327562E+01  0.20763750717E+02  0.22098945547E+02  0.31886061659E+02  0.00000000000E+00 0.  1.
         11    1    3    3    0    0 -0.31797770324E+01  0.87720507520E+01 -0.90146780968E+01  0.12973984655E+02  0.51100000000E-03 0. -1.
        -11    1    3    3    0    0 -0.83975746757E+01 -0.75343937582E+00 -0.11629703854E+01  0.85111357471E+01  0.51100000000E-03 0.  1.
         12    1    3    3    0    0  0.21437584464E+02 -0.28782362093E+02 -0.11921297065E+02  0.37816817939E+02  0.00000000000E+00 0. -1.
</event>
<event>
 7    1  0.6515090E-012  0.5930188E+02  0.7816164E-02  0.1266605E+00
        -11   -1    0    0    0    0  0.00000000000E+00  0.00000000000E+00  0.45593999997E+02  0.45594000000E+02  0.51100000000E-03 0.  1.
         11   -1    0    0    0    0 -0.00000000000E+00 -0.00000000000E+00 -0.45593999997E+02  0.45594000000E+02  0.51100000000E-03 0. -1.
    9900012    2    1    2    0    0  0.94547202773E+00  0.12040005339E+02 -0.29510491297E+02  0.59301878529E+02  0.49999880545E+02 0.  0.
        -12    1    1    2    0    0 -0.94547202773E+00 -0.12040005339E+02  0.29510491297E+02  0.31886121471E+02  0.00000000000E+00 0.  1.
         11    1    3    3    0    0  0.10826773291E+02  0.44127825082E+01 -0.36566780897E+02  0.38390378153E+02  0.51100000000E-03 0. -1.
        -11    1    3    3    0    0 -0.59122846304E+01  0.35688149058E+01 -0.43562914543E+01  0.81650979711E+01  0.51100000000E-03 0.  1.
        -12    1    3    3    0    0 -0.39690166329E+01  0.40584079253E+01  0.11412581054E+02  0.12746402404E+02  0.00000000000E+00 0.  1.
</event>
<event>
 7    1  0.6515090E-012  0.5930196E+02  0.7816164E-02  0.1266605E+00
        -11   -1    0    0    0    0  0.00000000000E+00  0.00000000000E+00  0.45593999997E+02  0.45594000000E+02  0.51100000000E-03 0. -1.
         11   -1    0    0    0    0 -0.00000000000E+00 -0.00000000000E+00 -0.45593999997E+02  0.45594000000E+02  0.51100000000E-03 0.  1.
    9900012    2    1    2    0    0 -0.26872608803E+02 -0.16859817591E+02  0.32139013270E+01  0.59301957366E+02  0.50000024326E+02 0.  0.
        -12    1    1    2    0    0  0.26872608803E+02  0.16859817591E+02 -0.32139013270E+01  0.31886042634E+02  0.00000000000E+00 0.  1.
         11    1    3    3    0    0 -0.19963598406E+02  0.89123678033E+01  0.70997117076E+00  0.21874177025E+02  0.51100000000E-03 0. -1.
        -11    1    3    3    0    0 -0.82279223185E-01 -0.11896121364E+02  0.13842384225E+02  0.18252015633E+02  0.51100000000E-03 0.  1.
        -12    1    3    3    0    0 -0.68267311740E+01 -0.13876064031E+02 -0.11338454068E+02  0.19175764709E+02  0.00000000000E+00 0.  1.
</event>
<event>
 7    1  0.6515090E-012  0.5930193E+02  0.7816164E-02  0.1266605E+00
        -11   -1    0    0    0    0  0.00000000000E+00  0.00000000000E+00  0.45593999997E+02  0.45594000000E+02  0.51100000000E-03 0. -1.
         11   -1    0    0    0    0 -0.00000000000E+00 -0.00000000000E+00 -0.45593999997E+02  0.45594000000E+02  0.51100000000E-03 0.  1.
    9900012    2    1    2    0    0 -0.12796985408E+02  0.49962751807E+01  0.28774920364E+02  0.59301927128E+02  0.49999969180E+02 0.  0.
        -12    1    1    2    0    0  0.12796985408E+02 -0.49962751807E+01 -0.28774920364E+02  0.31886072872E+02  0.00000000000E+00 0.  1.
         11    1    3    3    0    0 -0.63495790404E+01  0.71009777977E+01  0.30801563978E+01  0.10011413655E+02  0.51100000000E-03 0. -1.
        -11    1    3    3    0    0 -0.66223156938E+01  0.11987434712E+02 -0.57336847822E+01  0.14846844701E+02  0.51100000000E-03 0.  1.
         12    1    3    3    0    0  0.17490932584E+00 -0.14092137329E+02  0.31428448748E+02  0.34443668773E+02  0.00000000000E+00 0. -1.
</event>
<event>
 7    1  0.6515090E-012  0.5930194E+02  0.7816164E-02  0.1266605E+00
        -11   -1    0    0    0    0  0.00000000000E+00  0.00000000000E+00  0.45593999997E+02  0.45594000000E+02  0.51100000000E-03 0.  1.
         11   -1    0    0    0    0 -0.00000000000E+00 -0.00000000000E+00 -0.45593999997E+02  0.45594000000E+02  0.51100000000E-03 0. -1.
    9900012    2    1    2    0    0 -0.16893462201E+02 -0.20946432566E+02 -0.17104924325E+02  0.59301944450E+02  0.50000000770E+02 0.  0.
        -12    1    1    2    0    0  0.16893462201E+02  0.20946432566E+02  0.17104924325E+02  0.31886055550E+02  0.00000000000E+00 0.  1.
         11    1    3    3    0    0 -0.22908923823E+02 -0.19206635640E+02 -0.27466696461E+02  0.40597205053E+02  0.51100000000E-03 0. -1.
        -11    1    3    3    0    0 -0.30297435631E+01 -0.31611345214E+01 -0.60275954719E+00  0.44198910454E+01  0.51100000000E-03 0.  1.
        -12    1    3    3    0    0  0.90452051848E+01  0.14213375953E+01  0.10964531684E+02  0.14284848352E+02  0.00000000000E+00 0.  1.
</event>
<event>
 7    1  0.6515090E-012  0.5930194E+02  0.7816164E-02  0.1266605E+00
        -11   -1    0    0    0    0  0.00000000000E+00  0.00000000000E+00  0.45593999997E+02  0.45594000000E+02  0.51100000000E-03 0. -1.
         11   -1    0    0    0    0 -0.00000000000E+00 -0.00000000000E+00 -0.45593999997E+02  0.45594000000E+02  0.51100000000E-03 0.  1.
    9900012    2    1    2    0    0 -0.38181488760E+01  0.19427952954E+02  0.24993938539E+02  0.59301943791E+02  0.49999999569E+02 0.  0.
        -12    1    1    2    0    0  0.38181488760E+01 -0.19427952954E+02 -0.24993938539E+02  0.31886056209E+02  0.00000000000E+00 0.  1.
         11    1    3    3    0    0  0.98662613650E+00  0.50837416925E+01  0.17120815924E+02  0.17886872250E+02  0.51100000000E-03 0. -1.
        -11    1    3    3    0    0  0.16733430017E+01  0.72177301984E+01  0.22619662124E+02  0.23802202018E+02  0.51100000000E-03 0.  1.
        -12    1    3    3    0    0 -0.64781180143E+01  0.71264810635E+01 -0.14746539509E+02  0.17612869523E+02  0.00000000000E+00 0.  1.
</event>
<event>
 7    1  0.6515090E-012  0.5930189E+02  0.7816164E-02  0.1266605E+00
        -11   -1    0    0    0    0  0.00000000000E+00  0.00000000000E+00  0.45593999997E+02  0.45594000000E+02  0.51100000000E-03 0. -1.
         11   -1    0    0    0    0 -0.00000000000E+00 -0.00000000000E+00 -0.45593999997E+02  0.45594000000E+02  0.51100000000E-03 0.  1.
    9900012    2    1    2    0    0  0.10516577254E+02  0.31539316670E+01  0.29936241511E+02  0.59301886441E+02  0.49999894975E+02 0.  0.
        -12    1    1    2    0    0 -0.10516577254E+02 -0.31539316670E+01 -0.29936241511E+02  0.31886113559E+02  0.00000000000E+00 0.  1.
         11    1    3    3    0    0  0.55020793750E+01 -0.77360888577E+01 -0.32635622005E+01  0.10038465359E+02  0.51100000000E-03 0. -1.
        -11    1    3    3    0    0 -0.63129153250E+01  0.13613723922E+01 -0.50830797048E+01  0.82185116802E+01  0.51100000000E-03 0.  1.
         12    1    3    3    0    0  0.11327413204E+02  0.95286481324E+01  0.38282883417E+02  0.41044909402E+02  0.00000000000E+00 0. -1.
</event>
<event>
 7    1  0.6515090E-012  0.5930194E+02  0.7816164E-02  0.1266605E+00
        -11   -1    0    0    0    0  0.00000000000E+00  0.00000000000E+00  0.45593999997E+02  0.45594000000E+02  0.51100000000E-03 0.  1.
         11   -1    0    0    0    0 -0.00000000000E+00 -0.00000000000E+00 -0.45593999997E+02  0.45594000000E+02  0.51100000000E-03 0. -1.
    9900012    2    1    2    0    0  0.13972509178E+02  0.25827004219E+02 -0.12428008678E+02  0.59301944124E+02  0.50000000175E+02 0.  0.
        -12    1    1    2    0    0 -0.13972509178E+02 -0.25827004219E+02  0.12428008678E+02  0.31886055876E+02  0.00000000000E+00 0.  1.
         11    1    3    3    0    0  0.18343470875E+02  0.19018287026E+02 -0.59578735641E+01  0.27086425065E+02  0.51100000000E-03 0. -1.
        -11    1    3    3    0    0 -0.35991204311E+01  0.11041258801E+02  0.99181163379E+01  0.15271938179E+02  0.51100000000E-03 0.  1.
        -12    1    3    3    0    0 -0.77184126589E+00 -0.42325416076E+01 -0.16388251452E+02  0.16943580880E+02  0.00000000000E+00 0.  1.
</event>
<event>
 7    1  0.6515090E-012  0.5930204E+02  0.7816164E-02  0.1266604E+00
        -11   -1    0    0    0    0  0.00000000000E+00  0.00000000000E+00  0.45593999997E+02  0.45594000000E+02  0.51100000000E-03 0.  1.
         11   -1    0    0    0    0 -0.00000000000E+00 -0.00000000000E+00 -0.45593999997E+02  0.45594000000E+02  0.51100000000E-03 0. -1.
    9900012    2    1    2    0    0  0.21629049080E+01 -0.24570787172E+02 -0.20206744674E+02  0.59302042743E+02  0.50000180032E+02 0.  0.
        -12    1    1    2    0    0 -0.21629049080E+01  0.24570787172E+02  0.20206744674E+02  0.31885957257E+02  0.00000000000E+00 0.  1.
         11    1    3    3    0    0 -0.53115808311E+01  0.12974337208E+01 -0.24396358640E+02  0.25001570757E+02  0.51100000000E-03 0. -1.
        -11    1    3    3    0    0 -0.52510159475E+00 -0.20103425421E+02 -0.51069848394E+01  0.20748608141E+02  0.51100000000E-03 0.  1.
        -12    1    3    3    0    0  0.79995873338E+01 -0.57647954709E+01  0.92965988050E+01  0.13551863845E+02  0.00000000000E+00 0.  1.
</event>
<event>
 7    1  0.6515090E-012  0.5930195E+02  0.7816164E-02  0.1266605E+00
        -11   -1    0    0    0    0  0.00000000000E+00  0.00000000000E+00  0.45593999997E+02  0.45594000000E+02  0.51100000000E-03 0.  1.
         11   -1    0    0    0    0 -0.00000000000E+00 -0.00000000000E+00 -0.45593999997E+02  0.45594000000E+02  0.51100000000E-03 0. -1.
    9900012    2    1    2    0    0  0.27561477145E+02 -0.16030096784E+02 -0.34819957920E+00  0.59301948688E+02  0.50000008500E+02 0.  0.
        -12    1    1    2    0    0 -0.27561477145E+02  0.16030096784E+02  0.34819957920E+00  0.31886051312E+02  0.00000000000E+00 0.  1.
         11    1    3    3    0    0 -0.35755904377E+01 -0.76077302355E+01 -0.24015156719E+00  0.84095231346E+01  0.51100000000E-03 0. -1.
        -11    1    3    3    0    0  0.33031776503E+02 -0.20321495293E+02  0.97787597702E+00  0.38794557242E+02  0.51100000000E-03 0.  1.
         12    1    3    3    0    0 -0.18947089210E+01  0.11899128744E+02 -0.10859239890E+01  0.12097868311E+02  0.00000000000E+00 0. -1.
</event>
<event>
 7    1  0.6515090E-012  0.5930196E+02  0.7816164E-02  0.1266605E+00
        -11   -1    0    0    0    0  0.00000000000E+00  0.00000000000E+00  0.45593999997E+02  0.45594000000E+02  0.51100000000E-03 0. -1.
         11   -1    0    0    0    0 -0.00000000000E+00 -0.00000000000E+00 -0.45593999997E+02  0.45594000000E+02  0.51100000000E-03 0.  1.
    9900012    2    1    2    0    0 -0.15216260134E+02 -0.26958869232E+02  0.76422803984E+01  0.59301958345E+02  0.50000026111E+02 0.  0.
        -12    1    1    2    0    0  0.15216260134E+02  0.26958869232E+02 -0.76422803984E+01  0.31886041655E+02  0.00000000000E+00 0.  1.
         11    1    3    3    0    0  0.65737457141E+01 -0.10670681276E+02  0.21290594649E+02  0.24705606497E+02  0.51100000000E-03 0. -1.
        -11    1    3    3    0    0  0.26110949072E+01 -0.35894917564E+00 -0.14259005418E+01  0.29966404091E+01  0.51100000000E-03 0.  1.
        -12    1    3    3    0    0 -0.24401100756E+02 -0.15929238780E+02 -0.12222413708E+02  0.31599711439E+02  0.00000000000E+00 0.  1.
</event>
<event>
 7    1  0.6515090E-012  0.5930189E+02  0.7816164E-02  0.1266605E+00
        -11   -1    0    0    0    0  0.00000000000E+00  0.00000000000E+00  0.45593999997E+02  0.45594000000E+02  0.51100000000E-03 0.  1.
         11   -1    0    0    0    0 -0.00000000000E+00 -0.00000000000E+00 -0.45593999997E+02  0.45594000000E+02  0.51100000000E-03 0. -1.
    9900012    2    1    2    0    0  0.10389224222E+02  0.28851781908E+02 -0.87385718262E+01  0.59301891163E+02  0.49999903588E+02 0.  0.
        -12    1    1    2    0    0 -0.10389224222E+02 -0.28851781908E+02  0.87385718262E+01  0.31886108837E+02  0.00000000000E+00 0.  1.
         11    1    3    3    0    0  0.10010599683E+02  0.76589081678E+01  0.26958340287E+01  0.12889472515E+02  0.51100000000E-03 0. -1.
        -11    1    3    3    0    0  0.15581781437E+02  0.21473504480E+02  0.13225617181E+01  0.26564120109E+02  0.51100000000E-03 0.  1.
        -12    1    3    3    0    0 -0.15203156897E+02 -0.28063074067E+00 -0.12756967573E+02  0.19848298539E+02  0.00000000000E+00 0.  1.
</event>
<event>
 7    1  0.6515090E-012  0.5930196E+02  0.7816164E-02  0.1266605E+00
        -11   -1    0    0    0    0  0.00000000000E+00  0.00000000000E+00  0.45593999997E+02  0.45594000000E+02  0.51100000000E-03 0.  1.
         11   -1    0    0    0    0 -0.00000000000E+00 -0.00000000000E+00 -0.45593999997E+02  0.45594000000E+02  0.51100000000E-03 0. -1.
    9900012    2    1    2    0    0  0.31595165434E+02  0.81399932959E+00 -0.42192646153E+01  0.59301964379E+02  0.50000037116E+02 0.  0.
        -12    1    1    2    0    0 -0.31595165434E+02 -0.81399932959E+00  0.42192646153E+01  0.31886035621E+02  0.00000000000E+00 0.  1.
         11    1    3    3    0    0  0.19304878078E+02  0.16195007765E+02 -0.12288587918E+02  0.28035084937E+02  0.51100000000E-03 0.  1.
        -11    1    3    3    0    0  0.22913418695E+00 -0.52207503216E+01 -0.74769561867E+01  0.91221494438E+01  0.51100000000E-03 0. -1.
        -12    1    3    3    0    0  0.12061153169E+02 -0.10160258114E+02  0.15546279490E+02  0.22144729998E+02  0.00000000000E+00 0.  1.
</event>
<event>
 7    1  0.6515090E-012  0.5930194E+02  0.7816164E-02  0.1266605E+00
        -11   -1    0    0    0    0  0.00000000000E+00  0.00000000000E+00  0.45593999997E+02  0.45594000000E+02  0.51100000000E-03 0.  1.
         11   -1    0    0    0    0 -0.00000000000E+00 -0.00000000000E+00 -0.45593999997E+02  0.45594000000E+02  0.51100000000E-03 0. -1.
    9900012    2    1    2    0    0  0.88993189044E+01  0.29241673148E+02  0.90800680581E+01  0.59301937819E+02  0.49999988677E+02 0.  0.
        -12    1    1    2    0    0 -0.88993189044E+01 -0.29241673148E+02 -0.90800680581E+01  0.31886062181E+02  0.00000000000E+00 0.  1.
         11    1    3    3    0    0  0.10894880414E+02  0.14748538818E+02 -0.80941403973E+01  0.20043276318E+02  0.51100000000E-03 0. -1.
        -11    1    3    3    0    0 -0.35303213601E+01 -0.46973708942E+00 -0.86605389574E+01  0.93642275246E+01  0.51100000000E-03 0.  1.
         12    1    3    3    0    0  0.15347598504E+01  0.14962871419E+02  0.25834747413E+02  0.29894433977E+02  0.00000000000E+00 0. -1.
</event>
<event>
 7    1  0.6515090E-012  0.5930193E+02  0.7816164E-02  0.1266605E+00
        -11   -1    0    0    0    0  0.00000000000E+00  0.00000000000E+00  0.45593999997E+02  0.45594000000E+02  0.51100000000E-03 0.  1.
         11   -1    0    0    0    0 -0.00000000000E+00 -0.00000000000E+00 -0.45593999997E+02  0.45594000000E+02  0.51100000000E-03 0. -1.
    9900012    2    1    2    0    0  0.33242762490E+01  0.25995354447E+02  0.18163482187E+02  0.59301931717E+02  0.49999977547E+02 0.  0.
        -12    1    1    2    0    0 -0.33242762490E+01 -0.25995354447E+02 -0.18163482187E+02  0.31886068283E+02  0.00000000000E+00 0.  1.
         11    1    3    3    0    0 -0.10380359295E+02 -0.39434828771E+01  0.15033321558E+02  0.18689667563E+02  0.51100000000E-03 0. -1.
        -11    1    3    3    0    0 -0.59624647432E+01  0.24385313937E+01 -0.11148723844E+01  0.65376113273E+01  0.51100000000E-03 0.  1.
         12    1    3    3    0    0  0.19667100287E+02  0.27500305930E+02  0.42450330142E+01  0.34074652827E+02  0.00000000000E+00 0. -1.
</event>
<event>
 7    1  0.6515090E-012  0.5930196E+02  0.7816164E-02  0.1266605E+00
        -11   -1    0    0    0    0  0.00000000000E+00  0.00000000000E+00  0.45593999997E+02  0.45594000000E+02  0.51100000000E-03 0.  1.
         11   -1    0    0    0    0 -0.00000000000E+00 -0.00000000000E+00 -0.45593999997E+02  0.45594000000E+02  0.51100000000E-03 0. -1.
    9900012    2    1    2    0    0 -0.16885407614E+02  0.91819786822E+01 -0.25441974714E+02  0.59301956028E+02  0.50000021886E+02 0.  0.
        -12    1    1    2    0    0  0.16885407614E+02 -0.91819786822E+01  0.25441974714E+02  0.31886043972E+02  0.00000000000E+00 0.  1.
         11    1    3    3    0    0 -0.36355329651E+01  0.19226169303E+01  0.85136123744E+01  0.94549009367E+01  0.51100000000E-03 0. -1.
        -11    1    3    3    0    0 -0.18329321986E+01  0.58738197745E+01  0.58033663978E+01  0.84581594331E+01  0.51100000000E-03 0.  1.
         12    1    3    3    0    0 -0.11416942450E+02  0.13855419774E+01 -0.39758953486E+02  0.41388895658E+02  0.00000000000E+00 0. -1.
</event>
<event>
 7    1  0.6515090E-012  0.5930195E+02  0.7816164E-02  0.1266605E+00
        -11   -1    0    0    0    0  0.00000000000E+00  0.00000000000E+00  0.45593999997E+02  0.45594000000E+02  0.51100000000E-03 0.  1.
         11   -1    0    0    0    0 -0.00000000000E+00 -0.00000000000E+00 -0.45593999997E+02  0.45594000000E+02  0.51100000000E-03 0. -1.
    9900012    2    1    2    0    0  0.22184492191E+02 -0.22661034781E+02 -0.33235264227E+01  0.59301952596E+02  0.50000015627E+02 0.  0.
        -12    1    1    2    0    0 -0.22184492191E+02  0.22661034781E+02  0.33235264227E+01  0.31886047404E+02  0.00000000000E+00 0.  1.
         11    1    3    3    0    0  0.71157392044E+00  0.46591872695E+01  0.38818129142E+01  0.61059671813E+01  0.51100000000E-03 0. -1.
        -11    1    3    3    0    0  0.34129550646E+01  0.97591917104E+01 -0.59596217738E+01  0.11933447828E+02  0.51100000000E-03 0.  1.
        -12    1    3    3    0    0  0.18059963206E+02 -0.37079413761E+02 -0.12457175631E+01  0.41262537587E+02  0.00000000000E+00 0.  1.
</event>
<event>
 7    1  0.6515090E-012  0.5930202E+02  0.7816164E-02  0.1266604E+00
        -11   -1    0    0    0    0  0.00000000000E+00  0.00000000000E+00  0.45593999997E+02  0.45594000000E+02  0.51100000000E-03 0.  1.
         11   -1    0    0    0    0 -0.00000000000E+00 -0.00000000000E+00 -0.45593999997E+02  0.45594000000E+02  0.51100000000E-03 0. -1.
    9900012    2    1    2    0    0 -0.12624105841E+02 -0.14883062917E+02 -0.25215908606E+02  0.59302020998E+02  0.50000140375E+02 0.  0.
        -12    1    1    2    0    0  0.12624105841E+02  0.14883062917E+02  0.25215908606E+02  0.31885979002E+02  0.00000000000E+00 0.  1.
         11    1    3    3    0    0  0.34114747165E+01 -0.58723799013E+00  0.23600182684E+01  0.41895936183E+01  0.51100000000E-03 0. -1.
        -11    1    3    3    0    0  0.47819238577E+01 -0.15867441173E+02  0.41961096718E+01  0.17095315785E+02  0.51100000000E-03 0.  1.
         12    1    3    3    0    0 -0.20817504415E+02  0.15716162457E+01 -0.31772036546E+02  0.38017111595E+02  0.00000000000E+00 0. -1.
</event>
<event>
 7    1  0.6515090E-012  0.5930192E+02  0.7816164E-02  0.1266605E+00
        -11   -1    0    0    0    0  0.00000000000E+00  0.00000000000E+00  0.45593999997E+02  0.45594000000E+02  0.51100000000E-03 0. -1.
         11   -1    0    0    0    0 -0.00000000000E+00 -0.00000000000E+00 -0.45593999997E+02  0.45594000000E+02  0.51100000000E-03 0.  1.
    9900012    2    1    2    0    0  0.18765244735E+02 -0.25704983257E+02  0.19600453425E+01  0.59301916014E+02  0.49999948909E+02 0.  0.
        -12    1    1    2    0    0 -0.18765244735E+02  0.25704983257E+02 -0.19600453425E+01  0.31886083986E+02  0.00000000000E+00 0.  1.
         11    1    3    3    0    0  0.17003009610E+02 -0.13832654428E+02  0.54945291373E+01  0.22597223613E+02  0.51100000000E-03 0. -1.
        -11    1    3    3    0    0  0.13189896720E+02 -0.13168514387E+02 -0.12224801696E+02  0.22289659563E+02  0.51100000000E-03 0.  1.
        -12    1    3    3    0    0 -0.11427661594E+02  0.12961855581E+01  0.86903179009E+01  0.14415032838E+02  0.00000000000E+00 0.  1.
</event>
<event>
 7    1  0.6515090E-012  0.5930195E+02  0.7816164E-02  0.1266605E+00
        -11   -1    0    0    0    0  0.00000000000E+00  0.00000000000E+00  0.45593999997E+02  0.45594000000E+02  0.51100000000E-03 0.  1.
         11   -1    0    0    0    0 -0.00000000000E+00 -0.00000000000E+00 -0.45593999997E+02  0.45594000000E+02  0.51100000000E-03 0. -1.
    9900012    2    1    2    0    0  0.21957658992E+02 -0.36821634173E+01 -0.22825929089E+02  0.59301950470E+02  0.50000011749E+02 0.  0.
        -12    1    1    2    0    0 -0.21957658992E+02  0.36821634173E+01  0.22825929089E+02  0.31886049530E+02  0.00000000000E+00 0.  1.
         11    1    3    3    0    0  0.87759234952E+01  0.13058399944E+02 -0.20186267737E+02  0.25593437590E+02  0.51100000000E-03 0. -1.
        -11    1    3    3    0    0 -0.35410248079E+01 -0.16493383957E+02 -0.17604838333E+01  0.16960833548E+02  0.51100000000E-03 0.  1.
         12    1    3    3    0    0  0.16722760305E+02 -0.24717940370E+00 -0.87917751871E+00  0.16747679332E+02  0.00000000000E+00 0. -1.
</event>
<event>
 7    1  0.6515090E-012  0.5930194E+02  0.7816164E-02  0.1266605E+00
        -11   -1    0    0    0    0  0.00000000000E+00  0.00000000000E+00  0.45593999997E+02  0.45594000000E+02  0.51100000000E-03 0. -1.
         11   -1    0    0    0    0 -0.00000000000E+00 -0.00000000000E+00 -0.45593999997E+02  0.45594000000E+02  0.51100000000E-03 0.  1.
    9900012    2    1    2    0    0 -0.20007992837E+02 -0.23136333902E+02 -0.90061641479E+01  0.59301941660E+02  0.49999995683E+02 0.  0.
        -12    1    1    2    0    0  0.20007992837E+02  0.23136333902E+02  0.90061641479E+01  0.31886058340E+02  0.00000000000E+00 0.  1.
         11    1    3    3    0    0 -0.56036690462E+00  0.78640139486E+01  0.29154446360E+01  0.84057447105E+01  0.51100000000E-03 0. -1.
        -11    1    3    3    0    0 -0.85674370780E+01 -0.11426110272E+01 -0.16657956880E+02  0.18766834196E+02  0.51100000000E-03 0.  1.
         12    1    3    3    0    0 -0.10880188854E+02 -0.29857736823E+02  0.47363480961E+01  0.32129362754E+02  0.00000000000E+00 0. -1.
</event>
<event>
 7    1  0.6515090E-012  0.5930196E+02  0.7816164E-02  0.1266605E+00
        -11   -1    0    0    0    0  0.00000000000E+00  0.00000000000E+00  0.45593999997E+02  0.45594000000E+02  0.51100000000E-03 0.  1.
         11   -1    0    0    0    0 -0.00000000000E+00 -0.00000000000E+00 -0.45593999997E+02  0.45594000000E+02  0.51100000000E-03 0. -1.
    9900012    2    1    2    0    0 -0.16509541637E+02  0.20641917995E+02 -0.17834395879E+02  0.59301961991E+02  0.50000032761E+02 0.  0.
        -12    1    1    2    0    0  0.16509541637E+02 -0.20641917995E+02  0.17834395879E+02  0.31886038009E+02  0.00000000000E+00 0.  1.
         11    1    3    3    0    0 -0.89134162995E+01 -0.63872099744E+01  0.57140072248E+01  0.12365084723E+02  0.51100000000E-03 0.  1.
        -11    1    3    3    0    0 -0.17190704402E+02  0.24638325687E+02 -0.13832243828E+02  0.33074134608E+02  0.51100000000E-03 0. -1.
         12    1    3    3    0    0  0.95945790649E+01  0.23908022820E+01 -0.97161592757E+01  0.13862742660E+02  0.00000000000E+00 0. -1.
</event>
<event>
 7    1  0.6515090E-012  0.5930192E+02  0.7816164E-02  0.1266605E+00
        -11   -1    0    0    0    0  0.00000000000E+00  0.00000000000E+00  0.45593999997E+02  0.45594000000E+02  0.51100000000E-03 0.  1.
         11   -1    0    0    0    0 -0.00000000000E+00 -0.00000000000E+00 -0.45593999997E+02  0.45594000000E+02  0.51100000000E-03 0. -1.
    9900012    2    1    2    0    0  0.25067117091E+02  0.18049830465E+02 -0.79098310122E+01  0.59301918934E+02  0.49999954235E+02 0.  0.
        -12    1    1    2    0    0 -0.25067117091E+02 -0.18049830465E+02  0.79098310122E+01  0.31886081066E+02  0.00000000000E+00 0.  1.
         11    1    3    3    0    0  0.13398158280E+02 -0.67133354515E+01 -0.17230372512E+02  0.22835613750E+02  0.51100000000E-03 0. -1.
        -11    1    3    3    0    0  0.58767071364E+01 -0.29148247728E+01 -0.38067283703E+00  0.65709057437E+01  0.51100000000E-03 0.  1.
        -12    1    3    3    0    0  0.57922516754E+01  0.27677990690E+02  0.97012143370E+01  0.29895399440E+02  0.00000000000E+00 0.  1.
</event>
<event>
 7    1  0.6515090E-012  0.5930197E+02  0.7816164E-02  0.1266605E+00
        -11   -1    0    0    0    0  0.00000000000E+00  0.00000000000E+00  0.45593999997E+02  0.45594000000E+02  0.51100000000E-03 0.  1.
         11   -1    0    0    0    0 -0.00000000000E+00 -0.00000000000E+00 -0.45593999997E+02  0.45594000000E+02  0.51100000000E-03 0. -1.
    9900012    2    1    2    0    0  0.14221467483E+02 -0.10905861638E+02 -0.26372918962E+02  0.59301971554E+02  0.50000050202E+02 0.  0.
        -12    1    1    2    0    0 -0.14221467483E+02  0.10905861638E+02  0.26372918962E+02  0.31886028446E+02  0.00000000000E+00 0.  1.
         11    1    3    3    0    0 -0.62451381119E+01  0.93428024738E+01 -0.42337491647E+01  0.12008927527E+02  0.51100000000E-03 0. -1.
        -11    1    3    3    0    0 -0.93156022681E+00 -0.15003789582E+02  0.13443115159E+01  0.15092669744E+02  0.51100000000E-03 0.  1.
         12    1    3    3    0    0  0.21398165822E+02 -0.52448745299E+01 -0.23483481314E+02  0.32200374283E+02  0.00000000000E+00 0. -1.
</event>
<event>
 7    1  0.6515090E-012  0.5930195E+02  0.7816164E-02  0.1266605E+00
        -11   -1    0    0    0    0  0.00000000000E+00  0.00000000000E+00  0.45593999997E+02  0.45594000000E+02  0.51100000000E-03 0. -1.
         11   -1    0    0    0    0 -0.00000000000E+00 -0.00000000000E+00 -0.45593999997E+02  0.45594000000E+02  0.51100000000E-03 0.  1.
    9900012    2    1    2    0    0  0.66452825062E+01  0.28029167201E+02  0.13672102731E+02  0.59301946832E+02  0.50000005114E+02 0.  0.
        -12    1    1    2    0    0 -0.66452825062E+01 -0.28029167201E+02 -0.13672102731E+02  0.31886053168E+02  0.00000000000E+00 0.  1.
         11    1    3    3    0    0  0.23717060109E+02  0.12616255391E+02  0.80859811169E+01  0.28054445836E+02  0.51100000000E-03 0. -1.
        -11    1    3    3    0    0  0.41552789350E+01  0.60337871883E+01  0.29254236466E+01  0.78886649463E+01  0.51100000000E-03 0.  1.
        -12    1    3    3    0    0 -0.21227056538E+02  0.93791246217E+01  0.26606979669E+01  0.23358836050E+02  0.00000000000E+00 0.  1.
</event>
<event>
 7    1  0.6515090E-012  0.5930197E+02  0.7816164E-02  0.1266605E+00
        -11   -1    0    0    0    0  0.00000000000E+00  0.00000000000E+00  0.45593999997E+02  0.45594000000E+02  0.51100000000E-03 0.  1.
         11   -1    0    0    0    0 -0.00000000000E+00 -0.00000000000E+00 -0.45593999997E+02  0.45594000000E+02  0.51100000000E-03 0. -1.
    9900012    2    1    2    0    0  0.29225825660E+02  0.92085495189E+01  0.88188815824E+01  0.59301969483E+02  0.50000046424E+02 0.  0.
        -12    1    1    2    0    0 -0.29225825660E+02 -0.92085495189E+01 -0.88188815824E+01  0.31886030517E+02  0.00000000000E+00 0.  1.
         11    1    3    3    0    0  0.77384453836E+00  0.13833030780E+02  0.49604837873E+01  0.14715908929E+02  0.51100000000E-03 0. -1.
        -11    1    3    3    0    0  0.21966353017E+02  0.37537241183E+01  0.16765557744E+02  0.27887184088E+02  0.51100000000E-03 0.  1.
        -12    1    3    3    0    0  0.64856281050E+01 -0.83782053796E+01 -0.12907159949E+02  0.16698876466E+02  0.00000000000E+00 0.  1.
</event>
<event>
 7    1  0.6515090E-012  0.5930194E+02  0.7816164E-02  0.1266605E+00
        -11   -1    0    0    0    0  0.00000000000E+00  0.00000000000E+00  0.45593999997E+02  0.45594000000E+02  0.51100000000E-03 0. -1.
         11   -1    0    0    0    0 -0.00000000000E+00 -0.00000000000E+00 -0.45593999997E+02  0.45594000000E+02  0.51100000000E-03 0.  1.
    9900012    2    1    2    0    0  0.24385975910E+02 -0.67345917389E+01  0.19408513145E+02  0.59301938319E+02  0.49999989590E+02 0.  0.
        -12    1    1    2    0    0 -0.24385975910E+02  0.67345917389E+01 -0.19408513145E+02  0.31886061681E+02  0.00000000000E+00 0.  1.
         11    1    3    3    0    0  0.34166320570E+02 -0.49804978424E+01  0.86348939288E+01  0.35590788323E+02  0.51100000000E-03 0. -1.
        -11    1    3    3    0    0 -0.67440215227E+00  0.36879430988E+01 -0.40266322220E+01  0.55017733391E+01  0.51100000000E-03 0.  1.
         12    1    3    3    0    0 -0.91059425073E+01 -0.54420369953E+01  0.14800251438E+02  0.18209376657E+02  0.00000000000E+00 0. -1.
</event>
<event>
 7    1  0.6515090E-012  0.5930191E+02  0.7816164E-02  0.1266605E+00
        -11   -1    0    0    0    0  0.00000000000E+00  0.00000000000E+00  0.45593999997E+02  0.45594000000E+02  0.51100000000E-03 0.  1.
         11   -1    0    0    0    0 -0.00000000000E+00 -0.00000000000E+00 -0.45593999997E+02  0.45594000000E+02  0.51100000000E-03 0. -1.
    9900012    2    1    2    0    0  0.10856780102E+02  0.29980676416E+02  0.10886661133E+00  0.59301913936E+02  0.49999945120E+02 0.  0.
        -12    1    1    2    0    0 -0.10856780102E+02 -0.29980676416E+02 -0.10886661133E+00  0.31886086064E+02  0.00000000000E+00 0.  1.
         11    1    3    3    0    0 -0.70975630453E+01  0.74336386411E+01 -0.21143217292E+01  0.10493080637E+02  0.51100000000E-03 0. -1.
        -11    1    3    3    0    0 -0.11759963578E+02  0.50366465988E+01  0.59670710506E+01  0.14116319970E+02  0.51100000000E-03 0.  1.
         12    1    3    3    0    0  0.29714306725E+02  0.17510391176E+02 -0.37438827102E+01  0.34692513328E+02  0.00000000000E+00 0. -1.
</event>
<event>
 7    1  0.6515090E-012  0.5930194E+02  0.7816164E-02  0.1266605E+00
        -11   -1    0    0    0    0  0.00000000000E+00  0.00000000000E+00  0.45593999997E+02  0.45594000000E+02  0.51100000000E-03 0. -1.
         11   -1    0    0    0    0 -0.00000000000E+00 -0.00000000000E+00 -0.45593999997E+02  0.45594000000E+02  0.51100000000E-03 0.  1.
    9900012    2    1    2    0    0  0.31469509734E+02  0.51371037717E+01 -0.29457732921E-01  0.59301941199E+02  0.49999994841E+02 0.  0.
        -12    1    1    2    0    0 -0.31469509734E+02 -0.51371037717E+01  0.29457732921E-01  0.31886058801E+02  0.00000000000E+00 0.  1.
         11    1    3    3    0    0  0.14308893707E+01 -0.23080518891E+01  0.11562213187E+02  0.11876839730E+02  0.51100000000E-03 0. -1.
        -11    1    3    3    0    0  0.24771771402E+02  0.12447837477E+02  0.60241017240E+01  0.28370391574E+02  0.51100000000E-03 0.  1.
        -12    1    3    3    0    0  0.52668489618E+01 -0.50026818161E+01 -0.17615772644E+02  0.19054709895E+02  0.00000000000E+00 0.  1.
</event>
<event>
 7    1  0.6515090E-012  0.5930198E+02  0.7816164E-02  0.1266605E+00
        -11   -1    0    0    0    0  0.00000000000E+00  0.00000000000E+00  0.45593999997E+02  0.45594000000E+02  0.51100000000E-03 0.  1.
         11   -1    0    0    0    0 -0.00000000000E+00 -0.00000000000E+00 -0.45593999997E+02  0.45594000000E+02  0.51100000000E-03 0. -1.
    9900012    2    1    2    0    0 -0.31768657890E+02 -0.10416974370E+01  0.25269765342E+01  0.59301978485E+02  0.50000062841E+02 0.  0.
        -12    1    1    2    0    0  0.31768657890E+02  0.10416974370E+01 -0.25269765342E+01  0.31886021515E+02  0.00000000000E+00 0.  1.
         11    1    3    3    0    0 -0.18316914530E+02  0.12201537684E+02 -0.51876131542E+01  0.22611904171E+02  0.51100000000E-03 0. -1.
        -11    1    3    3    0    0 -0.52387633469E+01  0.88215399357E+01  0.82112367461E+01  0.13141104117E+02  0.51100000000E-03 0.  1.
         12    1    3    3    0    0 -0.82129800136E+01 -0.22064775057E+02 -0.49664705772E+00  0.23548970197E+02  0.00000000000E+00 0. -1.
</event>
<event>
 7    1  0.6515090E-012  0.5930197E+02  0.7816164E-02  0.1266605E+00
        -11   -1    0    0    0    0  0.00000000000E+00  0.00000000000E+00  0.45593999997E+02  0.45594000000E+02  0.51100000000E-03 0.  1.
         11   -1    0    0    0    0 -0.00000000000E+00 -0.00000000000E+00 -0.45593999997E+02  0.45594000000E+02  0.51100000000E-03 0. -1.
    9900012    2    1    2    0    0  0.30067553339E+01  0.58985125478E+01 -0.31191117486E+02  0.59301971117E+02  0.50000049404E+02 0.  0.
        -12    1    1    2    0    0 -0.30067553339E+01 -0.58985125478E+01  0.31191117486E+02  0.31886028883E+02  0.00000000000E+00 0.  1.
         11    1    3    3    0    0  0.12662309236E+02  0.11648621401E+02 -0.15813537130E+02  0.23368620253E+02  0.51100000000E-03 0. -1.
        -11    1    3    3    0    0  0.10228491925E+02 -0.49464745001E+01 -0.10464661677E+01  0.11409853142E+02  0.51100000000E-03 0.  1.
        -12    1    3    3    0    0 -0.19884045826E+02 -0.80363435281E+00 -0.14331114188E+02  0.24523497721E+02  0.00000000000E+00 0.  1.
</event>
<event>
 7    1  0.6515090E-012  0.5930194E+02  0.7816164E-02  0.1266605E+00
        -11   -1    0    0    0    0  0.00000000000E+00  0.00000000000E+00  0.45593999997E+02  0.45594000000E+02  0.51100000000E-03 0.  1.
         11   -1    0    0    0    0 -0.00000000000E+00 -0.00000000000E+00 -0.45593999997E+02  0.45594000000E+02  0.51100000000E-03 0. -1.
    9900012    2    1    2    0    0 -0.27784536432E+02 -0.13050790508E+02 -0.86265596462E+01  0.59301935191E+02  0.49999983885E+02 0.  0.
        -12    1    1    2    0    0  0.27784536432E+02  0.13050790508E+02  0.86265596462E+01  0.31886064809E+02  0.00000000000E+00 0.  1.
         11    1    3    3    0    0 -0.12587529926E+02 -0.14395891875E+02  0.18025993745E+01  0.19207732226E+02  0.51100000000E-03 0. -1.
        -11    1    3    3    0    0 -0.38555500513E+01 -0.41383231825E+01 -0.22166142402E+02  0.22876382017E+02  0.51100000000E-03 0.  1.
         12    1    3    3    0    0 -0.11341456455E+02  0.54834245495E+01  0.11736983381E+02  0.17217820948E+02  0.00000000000E+00 0. -1.
</event>
<event>
 7    1  0.6515090E-012  0.5930216E+02  0.7816164E-02  0.1266604E+00
        -11   -1    0    0    0    0  0.00000000000E+00  0.00000000000E+00  0.45593999997E+02  0.45594000000E+02  0.51100000000E-03 0. -1.
         11   -1    0    0    0    0 -0.00000000000E+00 -0.00000000000E+00 -0.45593999997E+02  0.45594000000E+02  0.51100000000E-03 0.  1.
    9900012    2    1    2    0    0 -0.84390605763E+01 -0.15009783634E+02  0.26836451685E+02  0.59302164788E+02  0.50000402611E+02 0.  0.
        -12    1    1    2    0    0  0.84390605763E+01  0.15009783634E+02 -0.26836451685E+02  0.31885835212E+02  0.00000000000E+00 0.  1.
         11    1    3    3    0    0  0.40759011975E+00 -0.57466855041E+01  0.13912478975E+02  0.15058140506E+02  0.51100000000E-03 0. -1.
        -11    1    3    3    0    0  0.12148645507E+02 -0.84958427021E+01 -0.59766921825E+01  0.15984047691E+02  0.51100000000E-03 0.  1.
         12    1    3    3    0    0 -0.20995296203E+02 -0.76725542820E+00  0.18900664892E+02  0.28259976591E+02  0.00000000000E+00 0. -1.
</event>
<event>
 7    1  0.6515090E-012  0.5930194E+02  0.7816164E-02  0.1266605E+00
        -11   -1    0    0    0    0  0.00000000000E+00  0.00000000000E+00  0.45593999997E+02  0.45594000000E+02  0.51100000000E-03 0.  1.
         11   -1    0    0    0    0 -0.00000000000E+00 -0.00000000000E+00 -0.45593999997E+02  0.45594000000E+02  0.51100000000E-03 0. -1.
    9900012    2    1    2    0    0 -0.22432205446E+02  0.55983021804E+00 -0.22653991080E+02  0.59301944068E+02  0.50000000073E+02 0.  0.
        -12    1    1    2    0    0  0.22432205446E+02 -0.55983021804E+00  0.22653991080E+02  0.31886055932E+02  0.00000000000E+00 0.  1.
         11    1    3    3    0    0 -0.62472508523E-01 -0.27971770891E+01 -0.13415403337E+02  0.13704055949E+02  0.51100000000E-03 0. -1.
        -11    1    3    3    0    0 -0.48943296171E+01  0.40396521046E+01 -0.22673255735E+02  0.23544633729E+02  0.51100000000E-03 0.  1.
        -12    1    3    3    0    0 -0.17475403320E+02 -0.68264479751E+00  0.13434667992E+02  0.22053254390E+02  0.00000000000E+00 0.  1.
</event>
<event>
 7    1  0.6515090E-012  0.5930194E+02  0.7816164E-02  0.1266605E+00
        -11   -1    0    0    0    0  0.00000000000E+00  0.00000000000E+00  0.45593999997E+02  0.45594000000E+02  0.51100000000E-03 0.  1.
         11   -1    0    0    0    0 -0.00000000000E+00 -0.00000000000E+00 -0.45593999997E+02  0.45594000000E+02  0.51100000000E-03 0. -1.
    9900012    2    1    2    0    0 -0.13333426621E+02 -0.16713858248E+02 -0.23655596463E+02  0.59301944003E+02  0.49999999955E+02 0.  0.
        -12    1    1    2    0    0  0.13333426621E+02  0.16713858248E+02  0.23655596463E+02  0.31886055997E+02  0.00000000000E+00 0.  1.
         11    1    3    3    0    0  0.58436880739E+01  0.13430095106E+02 -0.10599575643E+01  0.14684674159E+02  0.51100000000E-03 0. -1.
        -11    1    3    3    0    0  0.19987505559E+01 -0.18921141181E+01 -0.10269574269E+00  0.27542052025E+01  0.51100000000E-03 0.  1.
        -12    1    3    3    0    0 -0.21175865251E+02 -0.28251839236E+02 -0.22492943156E+02  0.41863064641E+02  0.00000000000E+00 0.  1.
</event>
<event>
 7    1  0.6515090E-012  0.5930194E+02  0.7816164E-02  0.1266605E+00
        -11   -1    0    0    0    0  0.00000000000E+00  0.00000000000E+00  0.45593999997E+02  0.45594000000E+02  0.51100000000E-03 0.  1.
         11   -1    0    0    0    0 -0.00000000000E+00 -0.00000000000E+00 -0.45593999997E+02  0.45594000000E+02  0.51100000000E-03 0. -1.
    9900012    2    1    2    0    0 -0.48363459501E+01  0.53012510445E+01 -0.31068108273E+02  0.59301939465E+02  0.49999991679E+02 0.  0.
        -12    1    1    2    0    0  0.48363459501E+01 -0.53012510445E+01  0.31068108273E+02  0.31886060535E+02  0.00000000000E+00 0.  1.
         11    1    3    3    0    0 -0.33325915116E+01  0.15550989079E+02 -0.31277107135E+02  0.35088414876E+02  0.51100000000E-03 0. -1.
        -11    1    3    3    0    0 -0.63902651264E+01  0.49128215315E+01  0.16164437598E+01  0.82209606784E+01  0.51100000000E-03 0.  1.
        -12    1    3    3    0    0  0.48865106879E+01 -0.15162559566E+02 -0.14074448971E+01  0.15992563910E+02  0.00000000000E+00 0.  1.
</event>
<event>
 7    1  0.6515090E-012  0.5930191E+02  0.7816164E-02  0.1266605E+00
        -11   -1    0    0    0    0  0.00000000000E+00  0.00000000000E+00  0.45593999997E+02  0.45594000000E+02  0.51100000000E-03 0. -1.
         11   -1    0    0    0    0 -0.00000000000E+00 -0.00000000000E+00 -0.45593999997E+02  0.45594000000E+02  0.51100000000E-03 0.  1.
    9900012    2    1    2    0    0  0.90565339559E+01 -0.29610531902E+02  0.76104150752E+01  0.59301908605E+02  0.49999935397E+02 0.  0.
        -12    1    1    2    0    0 -0.90565339559E+01  0.29610531902E+02 -0.76104150752E+01  0.31886091395E+02  0.00000000000E+00 0.  1.
         11    1    3    3    0    0 -0.43407421608E+01 -0.71432823385E+01  0.20243273923E+02  0.21901111033E+02  0.51100000000E-03 0. -1.
        -11    1    3    3    0    0  0.51473472462E+01 -0.24357000786E+02 -0.38275974653E+01  0.25187480493E+02  0.51100000000E-03 0.  1.
        -12    1    3    3    0    0  0.82499288705E+01  0.18897512224E+01 -0.88052613830E+01  0.12213317079E+02  0.00000000000E+00 0.  1.
</event>
<event>
 7    1  0.6515090E-012  0.5930200E+02  0.7816164E-02  0.1266605E+00
        -11   -1    0    0    0    0  0.00000000000E+00  0.00000000000E+00  0.45593999997E+02  0.45594000000E+02  0.51100000000E-03 0. -1.
         11   -1    0    0    0    0 -0.00000000000E+00 -0.00000000000E+00 -0.45593999997E+02  0.45594000000E+02  0.51100000000E-03 0.  1.
    9900012    2    1    2    0    0 -0.84679494708E+01 -0.11303136388E+02  0.28587585550E+02  0.59301998243E+02  0.50000098876E+02 0.  0.
        -12    1    1    2    0    0  0.84679494708E+01  0.11303136388E+02 -0.28587585550E+02  0.31886001757E+02  0.00000000000E+00 0.  1.
         11    1    3    3    0    0  0.70192337791E+01  0.59436300612E+01  0.11521516516E+02  0.14742514176E+02  0.51100000000E-03 0. -1.
        -11    1    3    3    0    0  0.70475979870E+01 -0.12297372988E+01 -0.53772296764E+01  0.89496083972E+01  0.51100000000E-03 0.  1.
         12    1    3    3    0    0 -0.22534781237E+02 -0.16017029150E+02  0.22443298711E+02  0.35609875670E+02  0.00000000000E+00 0. -1.
</event>
<event>
 7    1  0.6515090E-012  0.5930196E+02  0.7816164E-02  0.1266605E+00
        -11   -1    0    0    0    0  0.00000000000E+00  0.00000000000E+00  0.45593999997E+02  0.45594000000E+02  0.51100000000E-03 0.  1.
         11   -1    0    0    0    0 -0.00000000000E+00 -0.00000000000E+00 -0.45593999997E+02  0.45594000000E+02  0.51100000000E-03 0. -1.
    9900012    2    1    2    0    0  0.29522184088E+02 -0.99654841300E+01 -0.67712225202E+01  0.59301957886E+02  0.50000025275E+02 0.  0.
        -12    1    1    2    0    0 -0.29522184088E+02  0.99654841300E+01  0.67712225202E+01  0.31886042114E+02  0.00000000000E+00 0.  1.
         11    1    3    3    0    0  0.15753804513E+02 -0.11368652693E+02  0.42057370345E+01  0.19877546251E+02  0.51100000000E-03 0. -1.
        -11    1    3    3    0    0  0.63085875376E+01 -0.40038511939E+01  0.12299314980E+02  0.14391047576E+02  0.51100000000E-03 0.  1.
         12    1    3    3    0    0  0.74597920368E+01  0.54070197566E+01 -0.23276274535E+02  0.25033364059E+02  0.00000000000E+00 0. -1.
</event>
<event>
 7    1  0.6515090E-012  0.5930192E+02  0.7816164E-02  0.1266605E+00
        -11   -1    0    0    0    0  0.00000000000E+00  0.00000000000E+00  0.45593999997E+02  0.45594000000E+02  0.51100000000E-03 0. -1.
         11   -1    0    0    0    0 -0.00000000000E+00 -0.00000000000E+00 -0.45593999997E+02  0.45594000000E+02  0.51100000000E-03 0.  1.
    9900012    2    1    2    0    0 -0.47272463794E+01  0.13158771196E+02  0.28656972151E+02  0.59301918858E+02  0.49999954096E+02 0.  0.
        -12    1    1    2    0    0  0.47272463794E+01 -0.13158771196E+02 -0.28656972151E+02  0.31886081142E+02  0.00000000000E+00 0.  1.
         11    1    3    3    0    0  0.74494701917E+01  0.18735869979E+02  0.25275306758E+02  0.32332159872E+02  0.51100000000E-03 0. -1.
        -11    1    3    3    0    0  0.40630605334E+01  0.31308100259E+01  0.65005749227E+01  0.82805740685E+01  0.51100000000E-03 0.  1.
        -12    1    3    3    0    0 -0.16239777104E+02 -0.87079088091E+01 -0.31189095292E+01  0.18689184918E+02  0.00000000000E+00 0.  1.
</event>
<event>
 7    1  0.6515090E-012  0.5930192E+02  0.7816164E-02  0.1266605E+00
        -11   -1    0    0    0    0  0.00000000000E+00  0.00000000000E+00  0.45593999997E+02  0.45594000000E+02  0.51100000000E-03 0. -1.
         11   -1    0    0    0    0 -0.00000000000E+00 -0.00000000000E+00 -0.45593999997E+02  0.45594000000E+02  0.51100000000E-03 0.  1.
    9900012    2    1    2    0    0  0.31123502887E+02 -0.44947116924E+01  0.52770322770E+01  0.59301922555E+02  0.49999960840E+02 0.  0.
        -12    1    1    2    0    0 -0.31123502887E+02  0.44947116924E+01 -0.52770322770E+01  0.31886077445E+02  0.00000000000E+00 0.  1.
         11    1    3    3    0    0 -0.16221927309E+01 -0.14757037285E+02 -0.79469837292E-01  0.14846143419E+02  0.51100000000E-03 0. -1.
        -11    1    3    3    0    0 -0.12350506134E+01  0.75436181670E+01 -0.46260730090E+01  0.89348797873E+01  0.51100000000E-03 0.  1.
         12    1    3    3    0    0  0.33980746231E+02  0.27187074259E+01  0.99825751232E+01  0.35520899349E+02  0.00000000000E+00 0. -1.
</event>
<event>
 7    1  0.6515090E-012  0.5930189E+02  0.7816164E-02  0.1266605E+00
        -11   -1    0    0    0    0  0.00000000000E+00  0.00000000000E+00  0.45593999997E+02  0.45594000000E+02  0.51100000000E-03 0.  1.
         11   -1    0    0    0    0 -0.00000000000E+00 -0.00000000000E+00 -0.45593999997E+02  0.45594000000E+02  0.51100000000E-03 0. -1.
    9900012    2    1    2    0    0 -0.26096618660E-01  0.62161771666E+01 -0.31274307273E+02  0.59301892759E+02  0.49999906498E+02 0.  0.
        -12    1    1    2    0    0  0.26096618660E-01 -0.62161771666E+01  0.31274307273E+02  0.31886107241E+02  0.00000000000E+00 0.  1.
         11    1    3    3    0    0  0.81780279733E+01  0.46963604992E+01  0.29272179998E+00  0.94351274386E+01  0.51100000000E-03 0. -1.
        -11    1    3    3    0    0  0.11487905116E+02 -0.79230113219E+01 -0.21935198848E+02  0.25998058026E+02  0.51100000000E-03 0.  1.
         12    1    3    3    0    0 -0.19692029708E+02  0.94428279894E+01 -0.96318302246E+01  0.23868707295E+02  0.00000000000E+00 0. -1.
</event>
<event>
 7    1  0.6515090E-012  0.5930191E+02  0.7816164E-02  0.1266605E+00
        -11   -1    0    0    0    0  0.00000000000E+00  0.00000000000E+00  0.45593999997E+02  0.45594000000E+02  0.51100000000E-03 0.  1.
         11   -1    0    0    0    0 -0.00000000000E+00 -0.00000000000E+00 -0.45593999997E+02  0.45594000000E+02  0.51100000000E-03 0. -1.
    9900012    2    1    2    0    0 -0.51324607085E+00 -0.27641323882E+02 -0.15887616706E+02  0.59301912562E+02  0.49999942615E+02 0.  0.
        -12    1    1    2    0    0  0.51324607085E+00  0.27641323882E+02  0.15887616706E+02  0.31886087438E+02  0.00000000000E+00 0.  1.
         11    1    3    3    0    0 -0.59568716841E+01 -0.12379395486E+01 -0.12477298745E+02  0.13881635307E+02  0.51100000000E-03 0. -1.
        -11    1    3    3    0    0 -0.14544634935E+02 -0.18936611891E+02 -0.47852010398E+00  0.23882434069E+02  0.51100000000E-03 0.  1.
        -12    1    3    3    0    0  0.19988260548E+02 -0.74667724426E+01 -0.29317978573E+01  0.21537843186E+02  0.00000000000E+00 0.  1.
</event>
<event>
 7    1  0.6515090E-012  0.5930173E+02  0.7816164E-02  0.1266606E+00
        -11   -1    0    0    0    0  0.00000000000E+00  0.00000000000E+00  0.45593999997E+02  0.45594000000E+02  0.51100000000E-03 0. -1.
         11   -1    0    0    0    0 -0.00000000000E+00 -0.00000000000E+00 -0.45593999997E+02  0.45594000000E+02  0.51100000000E-03 0.  1.
    9900012    2    1    2    0    0 -0.90235162510E+01 -0.18168956887E+02 -0.24600806530E+02  0.59301725181E+02  0.49999600875E+02 0.  0.
        -12    1    1    2    0    0  0.90235162510E+01  0.18168956887E+02  0.24600806530E+02  0.31886274819E+02  0.00000000000E+00 0.  1.
         11    1    3    3    0    0 -0.11834610314E+02 -0.21443504027E+02  0.13944605975E+01  0.24532150065E+02  0.51100000000E-03 0. -1.
        -11    1    3    3    0    0 -0.18641068272E+00 -0.79348454191E+01 -0.20396105589E+02  0.21886014809E+02  0.51100000000E-03 0.  1.
         12    1    3    3    0    0  0.29975047453E+01  0.11209392559E+02 -0.55991615384E+01  0.12883560307E+02  0.00000000000E+00 0. -1.
</event>
<event>
 7    1  0.6515090E-012  0.5930195E+02  0.7816164E-02  0.1266605E+00
        -11   -1    0    0    0    0  0.00000000000E+00  0.00000000000E+00  0.45593999997E+02  0.45594000000E+02  0.51100000000E-03 0. -1.
         11   -1    0    0    0    0 -0.00000000000E+00 -0.00000000000E+00 -0.45593999997E+02  0.45594000000E+02  0.51100000000E-03 0.  1.
    9900012    2    1    2    0    0 -0.30297517345E+02  0.82410010045E+00  0.99046334959E+01  0.59301945635E+02  0.50000002932E+02 0.  0.
        -12    1    1    2    0    0  0.30297517345E+02 -0.82410010045E+00 -0.99046334959E+01  0.31886054365E+02  0.00000000000E+00 0.  1.
         11    1    3    3    0    0 -0.13654551956E+02  0.31603777197E+01  0.79020724842E+01  0.16089671416E+02  0.51100000000E-03 0. -1.
        -11    1    3    3    0    0 -0.19031581456E+02  0.14930739344E+02  0.68105649667E+01  0.25129899830E+02  0.51100000000E-03 0.  1.
        -12    1    3    3    0    0  0.23886160666E+01 -0.17267016963E+02 -0.48080039550E+01  0.18082374389E+02  0.00000000000E+00 0.  1.
</event>
<event>
 7    1  0.6515090E-012  0.5930195E+02  0.7816164E-02  0.1266605E+00
        -11   -1    0    0    0    0  0.00000000000E+00  0.00000000000E+00  0.45593999997E+02  0.45594000000E+02  0.51100000000E-03 0. -1.
         11   -1    0    0    0    0 -0.00000000000E+00 -0.00000000000E+00 -0.45593999997E+02  0.45594000000E+02  0.51100000000E-03 0.  1.
    9900012    2    1    2    0    0  0.96653345045E+01  0.24475484815E+02 -0.18007002459E+02  0.59301949985E+02  0.50000010865E+02 0.  0.
        -12    1    1    2    0    0 -0.96653345045E+01 -0.24475484815E+02  0.18007002459E+02  0.31886050015E+02  0.00000000000E+00 0.  1.
         11    1    3    3    0    0  0.27557753910E+02  0.13958056462E+02 -0.37201486289E+01  0.31114251506E+02  0.51100000000E-03 0. -1.
        -11    1    3    3    0    0 -0.72724743143E+01  0.32711460375E+01 -0.13021213405E+02  0.15268964531E+02  0.51100000000E-03 0.  1.
        -12    1    3    3    0    0 -0.10619945091E+02  0.72462823157E+01 -0.12656404253E+01  0.12918733948E+02  0.00000000000E+00 0.  1.
</event>
<event>
 7    1  0.6515090E-012  0.5930196E+02  0.7816164E-02  0.1266605E+00
        -11   -1    0    0    0    0  0.00000000000E+00  0.00000000000E+00  0.45593999997E+02  0.45594000000E+02  0.51100000000E-03 0. -1.
         11   -1    0    0    0    0 -0.00000000000E+00 -0.00000000000E+00 -0.45593999997E+02  0.45594000000E+02  0.51100000000E-03 0.  1.
    9900012    2    1    2    0    0 -0.29622629568E+02  0.11777665634E+02 -0.71142388805E+00  0.59301957375E+02  0.50000024343E+02 0.  0.
        -12    1    1    2    0    0  0.29622629568E+02 -0.11777665634E+02  0.71142388805E+00  0.31886042625E+02  0.00000000000E+00 0.  1.
         11    1    3    3    0    0 -0.22330697540E+02 -0.27468978556E+01  0.20887684898E+01  0.22595761871E+02  0.51100000000E-03 0. -1.
        -11    1    3    3    0    0 -0.17091668277E+02  0.45986131203E+01  0.76453149321E+01  0.19280124683E+02  0.51100000000E-03 0.  1.
        -12    1    3    3    0    0  0.97997362496E+01  0.99259503690E+01 -0.10445507310E+02  0.17426070821E+02  0.00000000000E+00 0.  1.
</event>
<event>
 7    1  0.6515090E-012  0.5930214E+02  0.7816164E-02  0.1266604E+00
        -11   -1    0    0    0    0  0.00000000000E+00  0.00000000000E+00  0.45593999997E+02  0.45594000000E+02  0.51100000000E-03 0. -1.
         11   -1    0    0    0    0 -0.00000000000E+00 -0.00000000000E+00 -0.45593999997E+02  0.45594000000E+02  0.51100000000E-03 0.  1.
    9900012    2    1    2    0    0  0.29445284202E+02  0.87579896828E+01  0.85428844125E+01  0.59302140766E+02  0.50000358802E+02 0.  0.
        -12    1    1    2    0    0 -0.29445284202E+02 -0.87579896828E+01 -0.85428844125E+01  0.31885859234E+02  0.00000000000E+00 0.  1.
         11    1    3    3    0    0 -0.10751783502E+02  0.22598455860E+01  0.89349943335E+01  0.14161280823E+02  0.51100000000E-03 0. -1.
        -11    1    3    3    0    0  0.21505567066E+02 -0.39885387526E+01 -0.65668128919E+01  0.22836831830E+02  0.51100000000E-03 0.  1.
        -12    1    3    3    0    0  0.18691500638E+02  0.10486682849E+02  0.61747029710E+01  0.22304028113E+02  0.00000000000E+00 0.  1.
</event>
<event>
 7    1  0.6515090E-012  0.5930193E+02  0.7816164E-02  0.1266605E+00
        -11   -1    0    0    0    0  0.00000000000E+00  0.00000000000E+00  0.45593999997E+02  0.45594000000E+02  0.51100000000E-03 0. -1.
         11   -1    0    0    0    0 -0.00000000000E+00 -0.00000000000E+00 -0.45593999997E+02  0.45594000000E+02  0.51100000000E-03 0.  1.
    9900012    2    1    2    0    0 -0.20026604480E+02 -0.21343388509E+02 -0.12653702621E+02  0.59301932352E+02  0.49999978706E+02 0.  0.
        -12    1    1    2    0    0  0.20026604480E+02  0.21343388509E+02  0.12653702621E+02  0.31886067648E+02  0.00000000000E+00 0.  1.
         11    1    3    3    0    0 -0.14549732538E+02 -0.60340077764E+01 -0.15169609539E+01  0.15824194690E+02  0.51100000000E-03 0. -1.
        -11    1    3    3    0    0  0.33121404863E+01 -0.26928241877E+02 -0.98043252217E+01  0.28848315003E+02  0.51100000000E-03 0.  1.
         12    1    3    3    0    0 -0.87890124287E+01  0.11618861145E+02 -0.13324164450E+01  0.14629422660E+02  0.00000000000E+00 0. -1.
</event>
<event>
 7    1  0.6515090E-012  0.5930200E+02  0.7816164E-02  0.1266605E+00
        -11   -1    0    0    0    0  0.00000000000E+00  0.00000000000E+00  0.45593999997E+02  0.45594000000E+02  0.51100000000E-03 0.  1.
         11   -1    0    0    0    0 -0.00000000000E+00 -0.00000000000E+00 -0.45593999997E+02  0.45594000000E+02  0.51100000000E-03 0. -1.
    9900012    2    1    2    0    0  0.28914614492E+02  0.69441095748E+01  0.11508307252E+02  0.59302004252E+02  0.50000109834E+02 0.  0.
        -12    1    1    2    0    0 -0.28914614492E+02 -0.69441095748E+01 -0.11508307252E+02  0.31885995748E+02  0.00000000000E+00 0.  1.
         11    1    3    3    0    0 -0.24402515214E+01  0.12423059518E+00 -0.12858515565E+02  0.13088608922E+02  0.51100000000E-03 0. -1.
        -11    1    3    3    0    0  0.10778194810E+02  0.82342229930E+01 -0.90453196256E+00  0.13593751873E+02  0.51100000000E-03 0.  1.
        -12    1    3    3    0    0  0.20576671204E+02 -0.14143440135E+01  0.25271354780E+02  0.32619643457E+02  0.00000000000E+00 0.  1.
</event>
<event>
 7    1  0.6515090E-012  0.5930194E+02  0.7816164E-02  0.1266605E+00
        -11   -1    0    0    0    0  0.00000000000E+00  0.00000000000E+00  0.45593999997E+02  0.45594000000E+02  0.51100000000E-03 0. -1.
         11   -1    0    0    0    0 -0.00000000000E+00 -0.00000000000E+00 -0.45593999997E+02  0.45594000000E+02  0.51100000000E-03 0.  1.
    9900012    2    1    2    0    0 -0.23233828396E+02  0.85719848294E+01  0.20085589929E+02  0.59301943037E+02  0.49999998193E+02 0.  0.
        -12    1    1    2    0    0  0.23233828396E+02 -0.85719848294E+01 -0.20085589929E+02  0.31886056963E+02  0.00000000000E+00 0.  1.
         11    1    3    3    0    0 -0.93652955799E+01 -0.30060741782E+01  0.10589783836E+01  0.98927589045E+01  0.51100000000E-03 0. -1.
        -11    1    3    3    0    0  0.38269936146E+01 -0.83788688250E+01  0.20728073038E+02  0.22682688003E+02  0.51100000000E-03 0.  1.
        -12    1    3    3    0    0 -0.17695526431E+02  0.19956927833E+02 -0.17014614922E+01  0.26726496130E+02  0.00000000000E+00 0.  1.
</event>
<event>
 7    1  0.6515090E-012  0.5930179E+02  0.7816164E-02  0.1266605E+00
        -11   -1    0    0    0    0  0.00000000000E+00  0.00000000000E+00  0.45593999997E+02  0.45594000000E+02  0.51100000000E-03 0. -1.
         11   -1    0    0    0    0 -0.00000000000E+00 -0.00000000000E+00 -0.45593999997E+02  0.45594000000E+02  0.51100000000E-03 0.  1.
    9900012    2    1    2    0    0  0.16862639038E+02  0.10865601686E+02 -0.24785487905E+02  0.59301791288E+02  0.49999721439E+02 0.  0.
        -12    1    1    2    0    0 -0.16862639038E+02 -0.10865601686E+02  0.24785487905E+02  0.31886208712E+02  0.00000000000E+00 0.  1.
         11    1    3    3    0    0  0.13531275578E+02  0.20969530191E+02 -0.34698230535E+01  0.25196354646E+02  0.51100000000E-03 0. -1.
        -11    1    3    3    0    0  0.10255997266E+02 -0.38743252747E+01 -0.13172563608E+00  0.10964179320E+02  0.51100000000E-03 0.  1.
        -12    1    3    3    0    0 -0.69246338060E+01 -0.62296032299E+01 -0.21183939216E+02  0.23141257322E+02  0.00000000000E+00 0.  1.
</event>
<event>
 7    1  0.6515090E-012  0.5930194E+02  0.7816164E-02  0.1266605E+00
        -11   -1    0    0    0    0  0.00000000000E+00  0.00000000000E+00  0.45593999997E+02  0.45594000000E+02  0.51100000000E-03 0. -1.
         11   -1    0    0    0    0 -0.00000000000E+00 -0.00000000000E+00 -0.45593999997E+02  0.45594000000E+02  0.51100000000E-03 0.  1.
    9900012    2    1    2    0    0  0.16313558557E+01 -0.55454772168E+01  0.31357732982E+02  0.59301936316E+02  0.49999985936E+02 0.  0.
        -12    1    1    2    0    0 -0.16313558557E+01  0.55454772168E+01 -0.31357732982E+02  0.31886063684E+02  0.00000000000E+00 0.  1.
         11    1    3    3    0    0  0.76730323949E+01  0.34074019992E+01 -0.49580280185E+01  0.97502746942E+01  0.51100000000E-03 0. -1.
        -11    1    3    3    0    0 -0.14686992404E+02 -0.11670302605E+02  0.90669183506E+01  0.20835371785E+02  0.51100000000E-03 0.  1.
         12    1    3    3    0    0  0.86453158646E+01  0.27174233894E+01  0.27248842650E+02  0.28716289837E+02  0.00000000000E+00 0. -1.
</event>
<event>
 7    1  0.6515090E-012  0.5930194E+02  0.7816164E-02  0.1266605E+00
        -11   -1    0    0    0    0  0.00000000000E+00  0.00000000000E+00  0.45593999997E+02  0.45594000000E+02  0.51100000000E-03 0.  1.
         11   -1    0    0    0    0 -0.00000000000E+00 -0.00000000000E+00 -0.45593999997E+02  0.45594000000E+02  0.51100000000E-03 0. -1.
    9900012    2    1    2    0    0  0.58241682018E+01 -0.31348454855E+02 -0.27297791082E+00  0.59301936053E+02  0.49999985457E+02 0.  0.
        -12    1    1    2    0    0 -0.58241682018E+01  0.31348454855E+02  0.27297791082E+00  0.31886063947E+02  0.00000000000E+00 0.  1.
         11    1    3    3    0    0  0.97558072029E+00 -0.73983296737E+01 -0.58270395259E+01  0.94679158002E+01  0.51100000000E-03 0. -1.
        -11    1    3    3    0    0 -0.19192217804E+02 -0.12096527349E+02  0.34528212368E+01  0.22947530867E+02  0.51100000000E-03 0.  1.
         12    1    3    3    0    0  0.24040805286E+02 -0.11853597833E+02  0.21012403783E+01  0.26886489386E+02  0.00000000000E+00 0. -1.
</event>
<event>
 7    1  0.6515090E-012  0.5930197E+02  0.7816164E-02  0.1266605E+00
        -11   -1    0    0    0    0  0.00000000000E+00  0.00000000000E+00  0.45593999997E+02  0.45594000000E+02  0.51100000000E-03 0. -1.
         11   -1    0    0    0    0 -0.00000000000E+00 -0.00000000000E+00 -0.45593999997E+02  0.45594000000E+02  0.51100000000E-03 0.  1.
    9900012    2    1    2    0    0 -0.15490963670E+02 -0.22745339409E+02  0.16105860848E+02  0.59301965848E+02  0.50000039795E+02 0.  0.
        -12    1    1    2    0    0  0.15490963670E+02  0.22745339409E+02 -0.16105860848E+02  0.31886034152E+02  0.00000000000E+00 0.  1.
         11    1    3    3    0    0  0.80074555545E+01 -0.20342314999E+02  0.13413963942E+02  0.25648850908E+02  0.51100000000E-03 0. -1.
        -11    1    3    3    0    0 -0.33038014242E+01 -0.21316043305E+01 -0.93473289142E+01  0.10140581786E+02  0.51100000000E-03 0.  1.
        -12    1    3    3    0    0 -0.20194617801E+02 -0.27142007962E+00  0.12039225820E+02  0.23512533154E+02  0.00000000000E+00 0.  1.
</event>
<event>
 7    1  0.6515090E-012  0.5930196E+02  0.7816164E-02  0.1266605E+00
        -11   -1    0    0    0    0  0.00000000000E+00  0.00000000000E+00  0.45593999997E+02  0.45594000000E+02  0.51100000000E-03 0.  1.
         11   -1    0    0    0    0 -0.00000000000E+00 -0.00000000000E+00 -0.45593999997E+02  0.45594000000E+02  0.51100000000E-03 0. -1.
    9900012    2    1    2    0    0  0.23337186289E+02  0.18842919313E+02 -0.10818499994E+02  0.59301955808E+02  0.50000021484E+02 0.  0.
        -12    1    1    2    0    0 -0.23337186289E+02 -0.18842919313E+02  0.10818499994E+02  0.31886044192E+02  0.00000000000E+00 0.  1.
         11    1    3    3    0    0 -0.17812954213E+01 -0.99277920616E+01 -0.37885917612E+01  0.10774390767E+02  0.51100000000E-03 0. -1.
        -11    1    3    3    0    0  0.46003519506E+01 -0.59739847115E+01  0.15740989966E+00  0.75416516454E+01  0.51100000000E-03 0.  1.
         12    1    3    3    0    0  0.20518129760E+02  0.34744696086E+02 -0.71873181326E+01  0.40985913396E+02  0.00000000000E+00 0. -1.
</event>
<event>
 7    1  0.6515090E-012  0.5930195E+02  0.7816164E-02  0.1266605E+00
        -11   -1    0    0    0    0  0.00000000000E+00  0.00000000000E+00  0.45593999997E+02  0.45594000000E+02  0.51100000000E-03 0.  1.
         11   -1    0    0    0    0 -0.00000000000E+00 -0.00000000000E+00 -0.45593999997E+02  0.45594000000E+02  0.51100000000E-03 0. -1.
    9900012    2    1    2    0    0 -0.58447833338E+01 -0.19471429813E+02 -0.24564649467E+02  0.59301951725E+02  0.50000014038E+02 0.  0.
        -12    1    1    2    0    0  0.58447833338E+01  0.19471429813E+02  0.24564649467E+02  0.31886048275E+02  0.00000000000E+00 0.  1.
         11    1    3    3    0    0 -0.22448464270E+01  0.17491387438E+01  0.51882278482E+01  0.59174766829E+01  0.51100000000E-03 0. -1.
        -11    1    3    3    0    0 -0.15310605715E+02 -0.24548595841E+01  0.95918478886E+00  0.15535797973E+02  0.51100000000E-03 0.  1.
         12    1    3    3    0    0  0.11710668809E+02 -0.18765708973E+02 -0.30712062104E+02  0.37848677069E+02  0.00000000000E+00 0. -1.
</event>
<event>
 7    1  0.6515090E-012  0.5930222E+02  0.7816164E-02  0.1266604E+00
        -11   -1    0    0    0    0  0.00000000000E+00  0.00000000000E+00  0.45593999997E+02  0.45594000000E+02  0.51100000000E-03 0. -1.
         11   -1    0    0    0    0 -0.00000000000E+00 -0.00000000000E+00 -0.45593999997E+02  0.45594000000E+02  0.51100000000E-03 0.  1.
    9900012    2    1    2    0    0  0.11102997212E+02  0.14835356651E+02  0.25948767725E+02  0.59302221031E+02  0.50000505184E+02 0.  0.
        -12    1    1    2    0    0 -0.11102997212E+02 -0.14835356651E+02 -0.25948767725E+02  0.31885778969E+02  0.00000000000E+00 0.  1.
         11    1    3    3    0    0  0.73457950903E+01  0.19310849792E+02  0.69642732331E+00  0.20672557570E+02  0.51100000000E-03 0. -1.
        -11    1    3    3    0    0 -0.10076628105E+02  0.10439535071E+01  0.10144719723E+01  0.10181229127E+02  0.51100000000E-03 0.  1.
         12    1    3    3    0    0  0.13833830226E+02 -0.55194466486E+01  0.24237868429E+02  0.28448434334E+02  0.00000000000E+00 0. -1.
</event>
<event>
 7    1  0.6515090E-012  0.5930196E+02  0.7816164E-02  0.1266605E+00
        -11   -1    0    0    0    0  0.00000000000E+00  0.00000000000E+00  0.45593999997E+02  0.45594000000E+02  0.51100000000E-03 0. -1.
         11   -1    0    0    0    0 -0.00000000000E+00 -0.00000000000E+00 -0.45593999997E+02  0.45594000000E+02  0.51100000000E-03 0.  1.
    9900012    2    1    2    0    0  0.11823227722E+01 -0.31764759125E+02 -0.25142935740E+01  0.59301961024E+02  0.50000030998E+02 0.  0.
        -12    1    1    2    0    0 -0.11823227722E+01  0.31764759125E+02  0.25142935740E+01  0.31886038976E+02  0.00000000000E+00 0.  1.
         11    1    3    3    0    0  0.31231717234E+01 -0.11933020077E+02  0.10368260620E+02  0.16113720809E+02  0.51100000000E-03 0. -1.
        -11    1    3    3    0    0  0.13429469903E+02 -0.21572675906E+02 -0.52869528429E+01  0.25955401717E+02  0.51100000000E-03 0.  1.
         12    1    3    3    0    0 -0.15370318855E+02  0.17409368592E+01 -0.75956013506E+01  0.17232838498E+02  0.00000000000E+00 0. -1.
</event>
<event>
 7    1  0.6515090E-012  0.5930194E+02  0.7816164E-02  0.1266605E+00
        -11   -1    0    0    0    0  0.00000000000E+00  0.00000000000E+00  0.45593999997E+02  0.45594000000E+02  0.51100000000E-03 0.  1.
         11   -1    0    0    0    0 -0.00000000000E+00 -0.00000000000E+00 -0.45593999997E+02  0.45594000000E+02  0.51100000000E-03 0. -1.
    9900012    2    1    2    0    0  0.42256798283E+01 -0.85637586808E+01 -0.30422469883E+02  0.59301937112E+02  0.49999987387E+02 0.  0.
        -12    1    1    2    0    0 -0.42256798283E+01  0.85637586808E+01  0.30422469883E+02  0.31886062888E+02  0.00000000000E+00 0.  1.
         11    1    3    3    0    0 -0.12061510595E+02  0.54544553300E+00 -0.25130269471E+02  0.27880243769E+02  0.51100000000E-03 0. -1.
        -11    1    3    3    0    0 -0.54322189023E+01 -0.65910962906E+01  0.11721503322E+01  0.86212231833E+01  0.51100000000E-03 0.  1.
         12    1    3    3    0    0  0.21719409326E+02 -0.25181079232E+01 -0.64643507442E+01  0.22800470160E+02  0.00000000000E+00 0. -1.
</event>
<event>
 7    1  0.6515090E-012  0.5930208E+02  0.7816164E-02  0.1266604E+00
        -11   -1    0    0    0    0  0.00000000000E+00  0.00000000000E+00  0.45593999997E+02  0.45594000000E+02  0.51100000000E-03 0.  1.
         11   -1    0    0    0    0 -0.00000000000E+00 -0.00000000000E+00 -0.45593999997E+02  0.45594000000E+02  0.51100000000E-03 0. -1.
    9900012    2    1    2    0    0 -0.10562155861E+02 -0.19027800025E+02 -0.23304410647E+02  0.59302080446E+02  0.50000248793E+02 0.  0.
        -12    1    1    2    0    0  0.10562155861E+02  0.19027800025E+02  0.23304410647E+02  0.31885919554E+02  0.00000000000E+00 0.  1.
         11    1    3    3    0    0 -0.10677906217E+02 -0.27102588630E+00 -0.14669343904E+02  0.18146095642E+02  0.51100000000E-03 0. -1.
        -11    1    3    3    0    0 -0.50766115485E+01  0.24843682150E+01  0.10613331484E+02  0.12024428290E+02  0.51100000000E-03 0.  1.
        -12    1    3    3    0    0  0.51923619050E+01 -0.21241142354E+02 -0.19248398227E+02  0.29131556514E+02  0.00000000000E+00 0.  1.
</event>
<event>
 7    1  0.6515090E-012  0.5930194E+02  0.7816164E-02  0.1266605E+00
        -11   -1    0    0    0    0  0.00000000000E+00  0.00000000000E+00  0.45593999997E+02  0.45594000000E+02  0.51100000000E-03 0.  1.
         11   -1    0    0    0    0 -0.00000000000E+00 -0.00000000000E+00 -0.45593999997E+02  0.45594000000E+02  0.51100000000E-03 0. -1.
    9900012    2    1    2    0    0 -0.19729177538E+02 -0.23021070292E+02 -0.98747479539E+01  0.59301940807E+02  0.49999994125E+02 0.  0.
        -12    1    1    2    0    0  0.19729177538E+02  0.23021070292E+02  0.98747479539E+01  0.31886059193E+02  0.00000000000E+00 0.  1.
         11    1    3    3    0    0  0.18417515878E+01 -0.10558646326E+02 -0.89867126604E+01  0.13987067808E+02  0.51100000000E-03 0. -1.
        -11    1    3    3    0    0  0.70717597092E+00 -0.10158840056E+02  0.14803653223E+02  0.17968034900E+02  0.51100000000E-03 0.  1.
         12    1    3    3    0    0 -0.22278105097E+02 -0.23035839106E+01 -0.15691688517E+02  0.27346838100E+02  0.00000000000E+00 0. -1.
</event>
<event>
 7    1  0.6515090E-012  0.5930206E+02  0.7816164E-02  0.1266604E+00
        -11   -1    0    0    0    0  0.00000000000E+00  0.00000000000E+00  0.45593999997E+02  0.45594000000E+02  0.51100000000E-03 0. -1.
         11   -1    0    0    0    0 -0.00000000000E+00 -0.00000000000E+00 -0.45593999997E+02  0.45594000000E+02  0.51100000000E-03 0.  1.
    9900012    2    1    2    0    0 -0.15755916807E+02  0.15391680629E+02  0.23055592113E+02  0.59302061489E+02  0.50000214221E+02 0.  0.
        -12    1    1    2    0    0  0.15755916807E+02 -0.15391680629E+02 -0.23055592113E+02  0.31885938511E+02  0.00000000000E+00 0.  1.
         11    1    3    3    0    0 -0.59535229455E+00 -0.45725772473E+01 -0.42176517774E+01  0.62491194430E+01  0.51100000000E-03 0. -1.
        -11    1    3    3    0    0 -0.15818514709E+01  0.15953107829E+02 -0.58223286096E+01  0.17055890893E+02  0.51100000000E-03 0.  1.
         12    1    3    3    0    0 -0.13578713042E+02  0.40111500478E+01  0.33095572500E+02  0.35997051153E+02  0.00000000000E+00 0. -1.
</event>
<event>
 7    1  0.6515090E-012  0.5930194E+02  0.7816164E-02  0.1266605E+00
        -11   -1    0    0    0    0  0.00000000000E+00  0.00000000000E+00  0.45593999997E+02  0.45594000000E+02  0.51100000000E-03 0.  1.
         11   -1    0    0    0    0 -0.00000000000E+00 -0.00000000000E+00 -0.45593999997E+02  0.45594000000E+02  0.51100000000E-03 0. -1.
    9900012    2    1    2    0    0  0.57109708178E+01 -0.25649273369E+02 -0.18061565621E+02  0.59301944040E+02  0.50000000022E+02 0.  0.
        -12    1    1    2    0    0 -0.57109708178E+01  0.25649273369E+02  0.18061565621E+02  0.31886055960E+02  0.00000000000E+00 0.  1.
         11    1    3    3    0    0  0.53146089679E+01  0.15006735065E+01 -0.91188727643E+01  0.10660719029E+02  0.51100000000E-03 0. -1.
        -11    1    3    3    0    0  0.13595617582E+02  0.31283327998E+01  0.14215721464E+01  0.14023129150E+02  0.51100000000E-03 0.  1.
         12    1    3    3    0    0 -0.13199255732E+02 -0.30278279675E+02 -0.10364265003E+02  0.34618095861E+02  0.00000000000E+00 0. -1.
</event>
<event>
 7    1  0.6515090E-012  0.5930191E+02  0.7816164E-02  0.1266605E+00
        -11   -1    0    0    0    0  0.00000000000E+00  0.00000000000E+00  0.45593999997E+02  0.45594000000E+02  0.51100000000E-03 0.  1.
         11   -1    0    0    0    0 -0.00000000000E+00 -0.00000000000E+00 -0.45593999997E+02  0.45594000000E+02  0.51100000000E-03 0. -1.
    9900012    2    1    2    0    0  0.28077980844E+01 -0.84243076643E+01 -0.30624659080E+02  0.59301914736E+02  0.49999946578E+02 0.  0.
        -12    1    1    2    0    0 -0.28077980844E+01  0.84243076643E+01  0.30624659080E+02  0.31886085264E+02  0.00000000000E+00 0.  1.
         11    1    3    3    0    0 -0.62498032283E+01 -0.80136974763E+01 -0.30819030544E+02  0.32451379501E+02  0.51100000000E-03 0.  1.
        -11    1    3    3    0    0 -0.33420459406E+00 -0.51848242206E+01 -0.10576450857E+02  0.11783692457E+02  0.51100000000E-03 0. -1.
         12    1    3    3    0    0  0.93918059068E+01  0.47742140326E+01  0.10770822321E+02  0.15066842778E+02  0.00000000000E+00 0. -1.
</event>
<event>
 7    1  0.6515090E-012  0.5930194E+02  0.7816164E-02  0.1266605E+00
        -11   -1    0    0    0    0  0.00000000000E+00  0.00000000000E+00  0.45593999997E+02  0.45594000000E+02  0.51100000000E-03 0. -1.
         11   -1    0    0    0    0 -0.00000000000E+00 -0.00000000000E+00 -0.45593999997E+02  0.45594000000E+02  0.51100000000E-03 0.  1.
    9900012    2    1    2    0    0 -0.17027812826E+02  0.20034306752E+02  0.18038872147E+02  0.59301940899E+02  0.49999994294E+02 0.  0.
        -12    1    1    2    0    0  0.17027812826E+02 -0.20034306752E+02 -0.18038872147E+02  0.31886059101E+02  0.00000000000E+00 0.  1.
         11    1    3    3    0    0  0.14510141645E+00 -0.35560840939E+01  0.51893203364E+01  0.62925220952E+01  0.51100000000E-03 0. -1.
        -11    1    3    3    0    0 -0.11830555006E+02 -0.10405082795E+02  0.95860170743E+01  0.18442329119E+02  0.51100000000E-03 0.  1.
         12    1    3    3    0    0 -0.53423592358E+01  0.33995473641E+02  0.32635347361E+01  0.34567089685E+02  0.00000000000E+00 0. -1.
</event>
<event>
 7    1  0.6515090E-012  0.5930194E+02  0.7816164E-02  0.1266605E+00
        -11   -1    0    0    0    0  0.00000000000E+00  0.00000000000E+00  0.45593999997E+02  0.45594000000E+02  0.51100000000E-03 0. -1.
         11   -1    0    0    0    0 -0.00000000000E+00 -0.00000000000E+00 -0.45593999997E+02  0.45594000000E+02  0.51100000000E-03 0.  1.
    9900012    2    1    2    0    0 -0.15723782842E+02  0.17913492506E+01  0.27681664176E+02  0.59301940184E+02  0.49999992990E+02 0.  0.
        -12    1    1    2    0    0  0.15723782842E+02 -0.17913492506E+01 -0.27681664176E+02  0.31886059816E+02  0.00000000000E+00 0.  1.
         11    1    3    3    0    0  0.60495399113E+01 -0.61500043095E+01 -0.31351571588E+01  0.91787088862E+01  0.51100000000E-03 0. -1.
        -11    1    3    3    0    0  0.82204730235E+01 -0.23984154693E+00  0.86838276796E+01  0.11960040306E+02  0.51100000000E-03 0.  1.
         12    1    3    3    0    0 -0.29993795777E+02  0.81811951071E+01  0.22132993656E+02  0.38163190992E+02  0.00000000000E+00 0. -1.
</event>
<event>
 7    1  0.6515090E-012  0.5930195E+02  0.7816164E-02  0.1266605E+00
        -11   -1    0    0    0    0  0.00000000000E+00  0.00000000000E+00  0.45593999997E+02  0.45594000000E+02  0.51100000000E-03 0.  1.
         11   -1    0    0    0    0 -0.00000000000E+00 -0.00000000000E+00 -0.45593999997E+02  0.45594000000E+02  0.51100000000E-03 0. -1.
    9900012    2    1    2    0    0 -0.91182230872E+01 -0.17996187725E+02 -0.24692421506E+02  0.59301945921E+02  0.50000003453E+02 0.  0.
        -12    1    1    2    0    0  0.91182230872E+01  0.17996187725E+02  0.24692421506E+02  0.31886054079E+02  0.00000000000E+00 0.  1.
         11    1    3    3    0    0 -0.12617252710E+02 -0.30600110534E+02 -0.13704182300E+02  0.35824104224E+02  0.51100000000E-03 0. -1.
        -11    1    3    3    0    0 -0.37948700622E+01  0.71466968479E+01 -0.11826629782E+02  0.14329880910E+02  0.51100000000E-03 0.  1.
        -12    1    3    3    0    0  0.72938996853E+01  0.54572259611E+01  0.83839057675E+00  0.91479607874E+01  0.00000000000E+00 0.  1.
</event>
<event>
 7    1  0.6515090E-012  0.5930196E+02  0.7816164E-02  0.1266605E+00
        -11   -1    0    0    0    0  0.00000000000E+00  0.00000000000E+00  0.45593999997E+02  0.45594000000E+02  0.51100000000E-03 0. -1.
         11   -1    0    0    0    0 -0.00000000000E+00 -0.00000000000E+00 -0.45593999997E+02  0.45594000000E+02  0.51100000000E-03 0.  1.
    9900012    2    1    2    0    0 -0.18342319695E+02  0.95921633401E+01  0.24254259345E+02  0.59301962527E+02  0.50000033739E+02 0.  0.
        -12    1    1    2    0    0  0.18342319695E+02 -0.95921633401E+01 -0.24254259345E+02  0.31886037473E+02  0.00000000000E+00 0.  1.
         11    1    3    3    0    0 -0.18385903809E+02 -0.11845769285E+02  0.25272846193E+02  0.33422753683E+02  0.51100000000E-03 0. -1.
        -11    1    3    3    0    0 -0.63499156233E+01  0.50569053549E+01 -0.16494820880E+01  0.82833876893E+01  0.51100000000E-03 0.  1.
        -12    1    3    3    0    0  0.63934997367E+01  0.16381027270E+02  0.63089523980E+00  0.17595821155E+02  0.00000000000E+00 0.  1.
</event>
<event>
 7    1  0.6515090E-012  0.5930192E+02  0.7816164E-02  0.1266605E+00
        -11   -1    0    0    0    0  0.00000000000E+00  0.00000000000E+00  0.45593999997E+02  0.45594000000E+02  0.51100000000E-03 0. -1.
         11   -1    0    0    0    0 -0.00000000000E+00 -0.00000000000E+00 -0.45593999997E+02  0.45594000000E+02  0.51100000000E-03 0.  1.
    9900012    2    1    2    0    0  0.14277108510E+02 -0.86919251726E+01  0.27153949732E+02  0.59301915626E+02  0.49999948202E+02 0.  0.
        -12    1    1    2    0    0 -0.14277108510E+02  0.86919251726E+01 -0.27153949732E+02  0.31886084374E+02  0.00000000000E+00 0.  1.
         11    1    3    3    0    0  0.15031559944E+01  0.10363938391E+02  0.11675939965E+02  0.15684332030E+02  0.51100000000E-03 0. -1.
        -11    1    3    3    0    0 -0.64434441056E+01 -0.23827303746E+01  0.16790567292E+02  0.18141624134E+02  0.51100000000E-03 0.  1.
        -12    1    3    3    0    0  0.19217396621E+02 -0.16673133189E+02 -0.13125575246E+01  0.25475959462E+02  0.00000000000E+00 0.  1.
</event>
<event>
 7    1  0.6515090E-012  0.5930195E+02  0.7816164E-02  0.1266605E+00
        -11   -1    0    0    0    0  0.00000000000E+00  0.00000000000E+00  0.45593999997E+02  0.45594000000E+02  0.51100000000E-03 0.  1.
         11   -1    0    0    0    0 -0.00000000000E+00 -0.00000000000E+00 -0.45593999997E+02  0.45594000000E+02  0.51100000000E-03 0. -1.
    9900012    2    1    2    0    0 -0.24945251864E+02  0.39346195495E+01 -0.19467232217E+02  0.59301953651E+02  0.50000017551E+02 0.  0.
        -12    1    1    2    0    0  0.24945251864E+02 -0.39346195495E+01  0.19467232217E+02  0.31886046349E+02  0.00000000000E+00 0.  1.
         11    1    3    3    0    0 -0.54692955954E+01  0.13516156090E+02 -0.26618459150E+01  0.14821777684E+02  0.51100000000E-03 0. -1.
        -11    1    3    3    0    0 -0.64292692313E+01  0.12562694410E+02 -0.65948242543E+00  0.14127693054E+02  0.51100000000E-03 0.  1.
         12    1    3    3    0    0 -0.13046687037E+02 -0.22144230951E+02 -0.16145903876E+02  0.30352482914E+02  0.00000000000E+00 0. -1.
</event>
<event>
 7    1  0.6515090E-012  0.5930195E+02  0.7816164E-02  0.1266605E+00
        -11   -1    0    0    0    0  0.00000000000E+00  0.00000000000E+00  0.45593999997E+02  0.45594000000E+02  0.51100000000E-03 0.  1.
         11   -1    0    0    0    0 -0.00000000000E+00 -0.00000000000E+00 -0.45593999997E+02  0.45594000000E+02  0.51100000000E-03 0. -1.
    9900012    2    1    2    0    0 -0.19927973193E+02 -0.11556640283E+02 -0.22046322733E+02  0.59301946681E+02  0.50000004839E+02 0.  0.
        -12    1    1    2    0    0  0.19927973193E+02  0.11556640283E+02  0.22046322733E+02  0.31886053319E+02  0.00000000000E+00 0.  1.
         11    1    3    3    0    0 -0.63002688757E+01 -0.20900132448E+02 -0.56373065838E+01  0.22545246728E+02  0.51100000000E-03 0. -1.
        -11    1    3    3    0    0 -0.18196879965E+02 -0.40993368852E+01 -0.10208485663E+02  0.21263682258E+02  0.51100000000E-03 0.  1.
        -12    1    3    3    0    0  0.45691756474E+01  0.13442829051E+02 -0.62005304858E+01  0.15493017695E+02  0.00000000000E+00 0.  1.
</event>
<event>
 7    1  0.6515090E-012  0.5930197E+02  0.7816164E-02  0.1266605E+00
        -11   -1    0    0    0    0  0.00000000000E+00  0.00000000000E+00  0.45593999997E+02  0.45594000000E+02  0.51100000000E-03 0. -1.
         11   -1    0    0    0    0 -0.00000000000E+00 -0.00000000000E+00 -0.45593999997E+02  0.45594000000E+02  0.51100000000E-03 0.  1.
    9900012    2    1    2    0    0  0.22654624636E+02 -0.21481826847E+02 -0.64821321659E+01  0.59301969524E+02  0.50000046499E+02 0.  0.
        -12    1    1    2    0    0 -0.22654624636E+02  0.21481826847E+02  0.64821321659E+01  0.31886030476E+02  0.00000000000E+00 0.  1.
         11    1    3    3    0    0 -0.83744249646E+01 -0.65013735423E+01  0.72975052072E+01  0.12870603480E+02  0.51100000000E-03 0. -1.
        -11    1    3    3    0    0 -0.19325451103E+01  0.59135518963E+00  0.50222102013E+01  0.54135965061E+01  0.51100000000E-03 0.  1.
        -12    1    3    3    0    0  0.32961594711E+02 -0.15571808495E+02 -0.18801847574E+02  0.41017769538E+02  0.00000000000E+00 0.  1.
</event>
<event>
 7    1  0.6515090E-012  0.5930199E+02  0.7816164E-02  0.1266605E+00
        -11   -1    0    0    0    0  0.00000000000E+00  0.00000000000E+00  0.45593999997E+02  0.45594000000E+02  0.51100000000E-03 0. -1.
         11   -1    0    0    0    0 -0.00000000000E+00 -0.00000000000E+00 -0.45593999997E+02  0.45594000000E+02  0.51100000000E-03 0.  1.
    9900012    2    1    2    0    0  0.26380018768E+02 -0.17576018079E+02  0.34490721698E+01  0.59301985816E+02  0.50000076211E+02 0.  0.
        -12    1    1    2    0    0 -0.26380018768E+02  0.17576018079E+02 -0.34490721698E+01  0.31886014184E+02  0.00000000000E+00 0.  1.
         11    1    3    3    0    0  0.13428421886E+02 -0.56228593972E+01 -0.16658002505E+02  0.22123022169E+02  0.51100000000E-03 0. -1.
        -11    1    3    3    0    0 -0.28715895149E+01 -0.57504960624E+00 -0.47574364901E+01  0.55865830890E+01  0.51100000000E-03 0.  1.
         12    1    3    3    0    0  0.15823186397E+02 -0.11378109076E+02  0.24864511165E+02  0.31592380558E+02  0.00000000000E+00 0. -1.
</event>
<event>
 7    1  0.6515090E-012  0.5930193E+02  0.7816164E-02  0.1266605E+00
        -11   -1    0    0    0    0  0.00000000000E+00  0.00000000000E+00  0.45593999997E+02  0.45594000000E+02  0.51100000000E-03 0.  1.
         11   -1    0    0    0    0 -0.00000000000E+00 -0.00000000000E+00 -0.45593999997E+02  0.45594000000E+02  0.51100000000E-03 0. -1.
    9900012    2    1    2    0    0 -0.20955920003E+02  0.22602803960E+02 -0.81660249599E+01  0.59301932609E+02  0.49999979175E+02 0.  0.
        -12    1    1    2    0    0  0.20955920003E+02 -0.22602803960E+02  0.81660249599E+01  0.31886067391E+02  0.00000000000E+00 0.  1.
         11    1    3    3    0    0  0.25221247657E+01  0.23253730597E+02 -0.15378359780E+02  0.27992696366E+02  0.51100000000E-03 0. -1.
        -11    1    3    3    0    0 -0.39637100412E+01 -0.14151546349E+01 -0.62889484899E+01  0.75673333019E+01  0.51100000000E-03 0.  1.
         12    1    3    3    0    0 -0.19514334727E+02  0.76422799718E+00  0.13501283310E+02  0.23741902942E+02  0.00000000000E+00 0. -1.
</event>
<event>
 7    1  0.6515090E-012  0.5930195E+02  0.7816164E-02  0.1266605E+00
        -11   -1    0    0    0    0  0.00000000000E+00  0.00000000000E+00  0.45593999997E+02  0.45594000000E+02  0.51100000000E-03 0.  1.
         11   -1    0    0    0    0 -0.00000000000E+00 -0.00000000000E+00 -0.45593999997E+02  0.45594000000E+02  0.51100000000E-03 0. -1.
    9900012    2    1    2    0    0 -0.15184370306E+02  0.26610920483E+02 -0.88325484320E+01  0.59301951290E+02  0.50000013244E+02 0.  0.
        -12    1    1    2    0    0  0.15184370306E+02 -0.26610920483E+02  0.88325484320E+01  0.31886048710E+02  0.00000000000E+00 0.  1.
         11    1    3    3    0    0  0.56208156663E+01  0.25218068437E+02  0.12064398393E+02  0.28514807615E+02  0.51100000000E-03 0.  1.
        -11    1    3    3    0    0 -0.48542427223E+01 -0.21591478743E+00 -0.10794545480E+02  0.11837757557E+02  0.51100000000E-03 0. -1.
        -12    1    3    3    0    0 -0.15950943250E+02  0.16087668329E+01 -0.10102401345E+02  0.18949386118E+02  0.00000000000E+00 0.  1.
</event>
<event>
 7    1  0.6515090E-012  0.5930194E+02  0.7816164E-02  0.1266605E+00
        -11   -1    0    0    0    0  0.00000000000E+00  0.00000000000E+00  0.45593999997E+02  0.45594000000E+02  0.51100000000E-03 0. -1.
         11   -1    0    0    0    0 -0.00000000000E+00 -0.00000000000E+00 -0.45593999997E+02  0.45594000000E+02  0.51100000000E-03 0.  1.
    9900012    2    1    2    0    0  0.11662611079E+02 -0.22440246467E+02  0.19420080000E+02  0.59301942453E+02  0.49999997129E+02 0.  0.
        -12    1    1    2    0    0 -0.11662611079E+02  0.22440246467E+02 -0.19420080000E+02  0.31886057547E+02  0.00000000000E+00 0.  1.
         11    1    3    3    0    0 -0.11614429566E+02 -0.32223475095E+01  0.13594269600E+02  0.18168177229E+02  0.51100000000E-03 0. -1.
        -11    1    3    3    0    0  0.77316067923E+01  0.37879899030E+01  0.98451021051E+01  0.13078709677E+02  0.51100000000E-03 0.  1.
        -12    1    3    3    0    0  0.15545433853E+02 -0.23005888860E+02 -0.40192917057E+01  0.28055055547E+02  0.00000000000E+00 0.  1.
</event>
<event>
 7    1  0.6515090E-012  0.5930195E+02  0.7816164E-02  0.1266605E+00
        -11   -1    0    0    0    0  0.00000000000E+00  0.00000000000E+00  0.45593999997E+02  0.45594000000E+02  0.51100000000E-03 0. -1.
         11   -1    0    0    0    0 -0.00000000000E+00 -0.00000000000E+00 -0.45593999997E+02  0.45594000000E+02  0.51100000000E-03 0.  1.
    9900012    2    1    2    0    0 -0.27250056724E+02  0.12568140028E+02  0.10779452779E+02  0.59301947604E+02  0.50000006521E+02 0.  0.
        -12    1    1    2    0    0  0.27250056724E+02 -0.12568140028E+02 -0.10779452779E+02  0.31886052396E+02  0.00000000000E+00 0.  1.
         11    1    3    3    0    0 -0.10488645253E+02  0.99897921194E+01  0.64383310835E+01  0.15851174506E+02  0.51100000000E-03 0. -1.
        -11    1    3    3    0    0 -0.35665545109E+01  0.16533086206E+02 -0.98488813421E+01  0.19572013554E+02  0.51100000000E-03 0.  1.
         12    1    3    3    0    0 -0.13194856960E+02 -0.13954738298E+02  0.14190003037E+02  0.23878759544E+02  0.00000000000E+00 0. -1.
</event>
<event>
 7    1  0.6515090E-012  0.5930195E+02  0.7816164E-02  0.1266605E+00
        -11   -1    0    0    0    0  0.00000000000E+00  0.00000000000E+00  0.45593999997E+02  0.45594000000E+02  0.51100000000E-03 0.  1.
         11   -1    0    0    0    0 -0.00000000000E+00 -0.00000000000E+00 -0.45593999997E+02  0.45594000000E+02  0.51100000000E-03 0. -1.
    9900012    2    1    2    0    0 -0.98527180519E+01  0.22870258034E+02 -0.19914699761E+02  0.59301952548E+02  0.50000015538E+02 0.  0.
        -12    1    1    2    0    0  0.98527180519E+01 -0.22870258034E+02  0.19914699761E+02  0.31886047452E+02  0.00000000000E+00 0.  1.
         11    1    3    3    0    0 -0.91240409970E+00  0.64197706032E+01  0.17705729907E+01  0.67216712815E+01  0.51100000000E-03 0. -1.
        -11    1    3    3    0    0  0.10421945850E+02 -0.10092767980E+02 -0.31085393921E+01  0.14837248336E+02  0.51100000000E-03 0.  1.
         12    1    3    3    0    0 -0.19362259802E+02  0.26543255410E+02 -0.18576733360E+02  0.37743032930E+02  0.00000000000E+00 0. -1.
</event>
<event>
 7    1  0.6515090E-012  0.5930196E+02  0.7816164E-02  0.1266605E+00
        -11   -1    0    0    0    0  0.00000000000E+00  0.00000000000E+00  0.45593999997E+02  0.45594000000E+02  0.51100000000E-03 0.  1.
         11   -1    0    0    0    0 -0.00000000000E+00 -0.00000000000E+00 -0.45593999997E+02  0.45594000000E+02  0.51100000000E-03 0. -1.
    9900012    2    1    2    0    0  0.30894335855E+01 -0.31163293000E+02  0.60020196885E+01  0.59301958057E+02  0.50000025585E+02 0.  0.
        -12    1    1    2    0    0 -0.30894335855E+01  0.31163293000E+02 -0.60020196885E+01  0.31886041943E+02  0.00000000000E+00 0.  1.
         11    1    3    3    0    0 -0.14128718911E+02 -0.78132446220E+01  0.27155339986E+01  0.16371976507E+02  0.51100000000E-03 0. -1.
        -11    1    3    3    0    0 -0.86673845984E+01 -0.10473438611E+02 -0.13012793788E+01  0.13656859097E+02  0.51100000000E-03 0.  1.
        -12    1    3    3    0    0  0.25885537095E+02 -0.12876609767E+02  0.45877650688E+01  0.29273122453E+02  0.00000000000E+00 0.  1.
</event>
<event>
 7    1  0.6515090E-012  0.5930195E+02  0.7816164E-02  0.1266605E+00
        -11   -1    0    0    0    0  0.00000000000E+00  0.00000000000E+00  0.45593999997E+02  0.45594000000E+02  0.51100000000E-03 0. -1.
         11   -1    0    0    0    0 -0.00000000000E+00 -0.00000000000E+00 -0.45593999997E+02  0.45594000000E+02  0.51100000000E-03 0.  1.
    9900012    2    1    2    0    0  0.72326204984E+01 -0.26469529742E+02  0.16241108448E+02  0.59301946502E+02  0.50000004513E+02 0.  0.
        -12    1    1    2    0    0 -0.72326204984E+01  0.26469529742E+02 -0.16241108448E+02  0.31886053498E+02  0.00000000000E+00 0.  1.
         11    1    3    3    0    0 -0.19890696368E+01  0.81888460810E+01  0.76075529248E+00  0.84612260953E+01  0.51100000000E-03 0. -1.
        -11    1    3    3    0    0 -0.15515141824E+01  0.54145743826E+01  0.60905980232E+01  0.82957939068E+01  0.51100000000E-03 0.  1.
         12    1    3    3    0    0  0.10773204318E+02 -0.40072950206E+02  0.93897551320E+01  0.42544926500E+02  0.00000000000E+00 0. -1.
</event>
<event>
 7    1  0.6515090E-012  0.5930191E+02  0.7816164E-02  0.1266605E+00
        -11   -1    0    0    0    0  0.00000000000E+00  0.00000000000E+00  0.45593999997E+02  0.45594000000E+02  0.51100000000E-03 0. -1.
         11   -1    0    0    0    0 -0.00000000000E+00 -0.00000000000E+00 -0.45593999997E+02  0.45594000000E+02  0.51100000000E-03 0.  1.
    9900012    2    1    2    0    0  0.91089364610E+01 -0.76713858733E+01  0.29578704805E+02  0.59301911143E+02  0.49999940026E+02 0.  0.
        -12    1    1    2    0    0 -0.91089364610E+01  0.76713858733E+01 -0.29578704805E+02  0.31886088857E+02  0.00000000000E+00 0.  1.
         11    1    3    3    0    0  0.14689815326E+02 -0.19909322053E+02  0.60346516533E+01  0.25467406616E+02  0.51100000000E-03 0. -1.
        -11    1    3    3    0    0  0.55530172944E+01 -0.16546320843E+01  0.26140462676E+01  0.63566537232E+01  0.51100000000E-03 0.  1.
         12    1    3    3    0    0 -0.11133896160E+02  0.13892568263E+02  0.20930006884E+02  0.27477850804E+02  0.00000000000E+00 0. -1.
</event>
<event>
 7    1  0.6515090E-012  0.5930198E+02  0.7816164E-02  0.1266605E+00
        -11   -1    0    0    0    0  0.00000000000E+00  0.00000000000E+00  0.45593999997E+02  0.45594000000E+02  0.51100000000E-03 0.  1.
         11   -1    0    0    0    0 -0.00000000000E+00 -0.00000000000E+00 -0.45593999997E+02  0.45594000000E+02  0.51100000000E-03 0. -1.
    9900012    2    1    2    0    0  0.53604552545E+01 -0.10356854501E+01 -0.31415141987E+02  0.59301980008E+02  0.50000065619E+02 0.  0.
        -12    1    1    2    0    0 -0.53604552545E+01  0.10356854501E+01  0.31415141987E+02  0.31886019992E+02  0.00000000000E+00 0.  1.
         11    1    3    3    0    0  0.26368303389E+01 -0.19631670859E+02 -0.43808383079E+01  0.20286624152E+02  0.51100000000E-03 0. -1.
        -11    1    3    3    0    0  0.93521534766E+01  0.19244407396E+01 -0.56218207496E+01  0.11080212796E+02  0.51100000000E-03 0.  1.
        -12    1    3    3    0    0 -0.66285285611E+01  0.16671544669E+02 -0.21412482929E+02  0.27935143059E+02  0.00000000000E+00 0.  1.
</event>
<event>
 7    1  0.6515090E-012  0.5930180E+02  0.7816164E-02  0.1266605E+00
        -11   -1    0    0    0    0  0.00000000000E+00  0.00000000000E+00  0.45593999997E+02  0.45594000000E+02  0.51100000000E-03 0.  1.
         11   -1    0    0    0    0 -0.00000000000E+00 -0.00000000000E+00 -0.45593999997E+02  0.45594000000E+02  0.51100000000E-03 0. -1.
    9900012    2    1    2    0    0 -0.63367410241E+01 -0.14945965981E+02 -0.27444376399E+02  0.59301796372E+02  0.49999730710E+02 0.  0.
        -12    1    1    2    0    0  0.63367410241E+01  0.14945965981E+02  0.27444376399E+02  0.31886203628E+02  0.00000000000E+00 0.  1.
         11    1    3    3    0    0 -0.18165940524E+02  0.12002136653E-01 -0.14833146984E+02  0.23452585975E+02  0.51100000000E-03 0. -1.
        -11    1    3    3    0    0 -0.15187877781E+01 -0.23998834984E+01  0.78692316798E+01  0.83660602802E+01  0.51100000000E-03 0.  1.
         12    1    3    3    0    0  0.13347987278E+02 -0.12558084619E+02 -0.20480461094E+02  0.27483150117E+02  0.00000000000E+00 0. -1.
</event>
<event>
 7    1  0.6515090E-012  0.5930196E+02  0.7816164E-02  0.1266605E+00
        -11   -1    0    0    0    0  0.00000000000E+00  0.00000000000E+00  0.45593999997E+02  0.45594000000E+02  0.51100000000E-03 0.  1.
         11   -1    0    0    0    0 -0.00000000000E+00 -0.00000000000E+00 -0.45593999997E+02  0.45594000000E+02  0.51100000000E-03 0. -1.
    9900012    2    1    2    0    0  0.22118061378E+02  0.15352924245E+02  0.17082117066E+02  0.59301958455E+02  0.50000026311E+02 0.  0.
        -12    1    1    2    0    0 -0.22118061378E+02 -0.15352924245E+02 -0.17082117066E+02  0.31886041545E+02  0.00000000000E+00 0.  1.
         11    1    3    3    0    0  0.20019463528E+01  0.42910630531E+01  0.14980092635E+01  0.49663913800E+01  0.51100000000E-03 0.  1.
        -11    1    3    3    0    0  0.89137734084E+01  0.16006706193E+02  0.30166170753E+02  0.35294020140E+02  0.51100000000E-03 0. -1.
         12    1    3    3    0    0  0.11202341617E+02 -0.49448450010E+01 -0.14582062950E+02  0.19041546935E+02  0.00000000000E+00 0. -1.
</event>
<event>
 7    1  0.6515090E-012  0.5930196E+02  0.7816164E-02  0.1266605E+00
        -11   -1    0    0    0    0  0.00000000000E+00  0.00000000000E+00  0.45593999997E+02  0.45594000000E+02  0.51100000000E-03 0. -1.
         11   -1    0    0    0    0 -0.00000000000E+00 -0.00000000000E+00 -0.45593999997E+02  0.45594000000E+02  0.51100000000E-03 0.  1.
    9900012    2    1    2    0    0 -0.29269896739E+02 -0.10579441322E+02  0.69331061477E+01  0.59301962387E+02  0.50000033482E+02 0.  0.
        -12    1    1    2    0    0  0.29269896739E+02  0.10579441322E+02 -0.69331061477E+01  0.31886037613E+02  0.00000000000E+00 0.  1.
         11    1    3    3    0    0  0.23582103984E+00  0.22990527539E+01 -0.11353377409E+02  0.11586217415E+02  0.51100000000E-03 0. -1.
        -11    1    3    3    0    0  0.16395725908E+01  0.13640848435E+01  0.12866620311E+02  0.13042194763E+02  0.51100000000E-03 0.  1.
         12    1    3    3    0    0 -0.31145290370E+02 -0.14242578920E+02  0.54198632455E+01  0.34673550209E+02  0.00000000000E+00 0. -1.
</event>
<event>
 7    1  0.6515090E-012  0.5930183E+02  0.7816164E-02  0.1266605E+00
        -11   -1    0    0    0    0  0.00000000000E+00  0.00000000000E+00  0.45593999997E+02  0.45594000000E+02  0.51100000000E-03 0. -1.
         11   -1    0    0    0    0 -0.00000000000E+00 -0.00000000000E+00 -0.45593999997E+02  0.45594000000E+02  0.51100000000E-03 0.  1.
    9900012    2    1    2    0    0  0.11298090669E+02  0.11041609035E+02  0.27697721819E+02  0.59301830948E+02  0.49999793768E+02 0.  0.
        -12    1    1    2    0    0 -0.11298090669E+02 -0.11041609035E+02 -0.27697721819E+02  0.31886169052E+02  0.00000000000E+00 0.  1.
         11    1    3    3    0    0 -0.30151913345E+01 -0.78991805970E+01  0.21984219273E+02  0.23554072476E+02  0.51100000000E-03 0. -1.
        -11    1    3    3    0    0 -0.81592790984E+00  0.29734875720E+01  0.12383963832E+02  0.12762050272E+02  0.51100000000E-03 0.  1.
        -12    1    3    3    0    0  0.15129209913E+02  0.15967302060E+02 -0.66704612854E+01  0.22985708200E+02  0.00000000000E+00 0.  1.
</event>
<event>
 7    1  0.6515090E-012  0.5930193E+02  0.7816164E-02  0.1266605E+00
        -11   -1    0    0    0    0  0.00000000000E+00  0.00000000000E+00  0.45593999997E+02  0.45594000000E+02  0.51100000000E-03 0. -1.
         11   -1    0    0    0    0 -0.00000000000E+00 -0.00000000000E+00 -0.45593999997E+02  0.45594000000E+02  0.51100000000E-03 0.  1.
    9900012    2    1    2    0    0 -0.57488382477E+01  0.31301464081E+02  0.19725207980E+01  0.59301927286E+02  0.49999969468E+02 0.  0.
        -12    1    1    2    0    0  0.57488382477E+01 -0.31301464081E+02 -0.19725207980E+01  0.31886072714E+02  0.00000000000E+00 0.  1.
         11    1    3    3    0    0 -0.87928603662E+01  0.19216735393E+02 -0.31525519566E+01  0.21366700651E+02  0.51100000000E-03 0. -1.
        -11    1    3    3    0    0 -0.15591640260E+02  0.81431559730E+01  0.66986913429E+01  0.18822398922E+02  0.51100000000E-03 0.  1.
         12    1    3    3    0    0  0.18635662379E+02  0.39415727144E+01 -0.15736185882E+01  0.19112827714E+02  0.00000000000E+00 0. -1.
</event>
<event>
 7    1  0.6515090E-012  0.5930195E+02  0.7816164E-02  0.1266605E+00
        -11   -1    0    0    0    0  0.00000000000E+00  0.00000000000E+00  0.45593999997E+02  0.45594000000E+02  0.51100000000E-03 0.  1.
         11   -1    0    0    0    0 -0.00000000000E+00 -0.00000000000E+00 -0.45593999997E+02  0.45594000000E+02  0.51100000000E-03 0. -1.
    9900012    2    1    2    0    0 -0.14399274169E+02  0.90057945277E+01 -0.26986605695E+02  0.59301947899E+02  0.50000007060E+02 0.  0.
        -12    1    1    2    0    0  0.14399274169E+02 -0.90057945277E+01  0.26986605695E+02  0.31886052101E+02  0.00000000000E+00 0.  1.
         11    1    3    3    0    0  0.18814110888E+01  0.74800951228E+00  0.59678658237E+01  0.63019559397E+01  0.51100000000E-03 0. -1.
        -11    1    3    3    0    0  0.10420192179E+02  0.86024549111E+01 -0.51802693021E+01  0.14471275889E+02  0.51100000000E-03 0.  1.
         12    1    3    3    0    0 -0.26700877437E+02 -0.34466989569E+00 -0.27774202216E+02  0.38528716070E+02  0.00000000000E+00 0. -1.
</event>
<event>
 7    1  0.6515090E-012  0.5930201E+02  0.7816164E-02  0.1266605E+00
        -11   -1    0    0    0    0  0.00000000000E+00  0.00000000000E+00  0.45593999997E+02  0.45594000000E+02  0.51100000000E-03 0.  1.
         11   -1    0    0    0    0 -0.00000000000E+00 -0.00000000000E+00 -0.45593999997E+02  0.45594000000E+02  0.51100000000E-03 0. -1.
    9900012    2    1    2    0    0  0.34256959273E+01 -0.62927462900E+01 -0.31070598294E+02  0.59302013629E+02  0.50000126937E+02 0.  0.
        -12    1    1    2    0    0 -0.34256959273E+01  0.62927462900E+01  0.31070598294E+02  0.31885986371E+02  0.00000000000E+00 0.  1.
         11    1    3    3    0    0  0.28998378476E+01 -0.85211565410E+01 -0.56406176550E+01  0.10622416680E+02  0.51100000000E-03 0. -1.
        -11    1    3    3    0    0 -0.36164758276E+01 -0.79513761255E+01 -0.33771053247E+02  0.34882478659E+02  0.51100000000E-03 0.  1.
        -12    1    3    3    0    0  0.41423339074E+01  0.10179786376E+02  0.83410726078E+01  0.13797118290E+02  0.00000000000E+00 0.  1.
</event>
<event>
 7    1  0.6515090E-012  0.5930196E+02  0.7816164E-02  0.1266605E+00
        -11   -1    0    0    0    0  0.00000000000E+00  0.00000000000E+00  0.45593999997E+02  0.45594000000E+02  0.51100000000E-03 0. -1.
         11   -1    0    0    0    0 -0.00000000000E+00 -0.00000000000E+00 -0.45593999997E+02  0.45594000000E+02  0.51100000000E-03 0.  1.
    9900012    2    1    2    0    0 -0.21438304752E+02  0.21952864894E+02 -0.86712323142E+01  0.59301961401E+02  0.50000031684E+02 0.  0.
        -12    1    1    2    0    0  0.21438304752E+02 -0.21952864894E+02  0.86712323142E+01  0.31886038599E+02  0.00000000000E+00 0.  1.
         11    1    3    3    0    0  0.18791731258E+01  0.13186037814E+02 -0.87418265427E+01  0.15931805185E+02  0.51100000000E-03 0.  1.
        -11    1    3    3    0    0 -0.58665784668E+01  0.20172186702E+02  0.57163087781E+01  0.21771771760E+02  0.51100000000E-03 0. -1.
         12    1    3    3    0    0 -0.17450899411E+02 -0.11405359622E+02 -0.56457145496E+01  0.21598384456E+02  0.00000000000E+00 0. -1.
</event>
<event>
 7    1  0.6515090E-012  0.5930194E+02  0.7816164E-02  0.1266605E+00
        -11   -1    0    0    0    0  0.00000000000E+00  0.00000000000E+00  0.45593999997E+02  0.45594000000E+02  0.51100000000E-03 0. -1.
         11   -1    0    0    0    0 -0.00000000000E+00 -0.00000000000E+00 -0.45593999997E+02  0.45594000000E+02  0.51100000000E-03 0.  1.
    9900012    2    1    2    0    0  0.29580688004E+01 -0.22738960960E+02  0.22156502891E+02  0.59301935067E+02  0.49999983658E+02 0.  0.
        -12    1    1    2    0    0 -0.29580688004E+01  0.22738960960E+02 -0.22156502891E+02  0.31886064933E+02  0.00000000000E+00 0.  1.
         11    1    3    3    0    0 -0.15732569738E+01 -0.12632363708E+02 -0.60723809335E+01  0.14104097306E+02  0.51100000000E-03 0. -1.
        -11    1    3    3    0    0  0.12840240976E+02  0.71809125271E+01  0.61349937251E+01  0.15939744079E+02  0.51100000000E-03 0.  1.
         12    1    3    3    0    0 -0.83089152014E+01 -0.17287509779E+02  0.22093890099E+02  0.29258093682E+02  0.00000000000E+00 0. -1.
</event>
<event>
 7    1  0.6515090E-012  0.5930199E+02  0.7816164E-02  0.1266605E+00
        -11   -1    0    0    0    0  0.00000000000E+00  0.00000000000E+00  0.45593999997E+02  0.45594000000E+02  0.51100000000E-03 0. -1.
         11   -1    0    0    0    0 -0.00000000000E+00 -0.00000000000E+00 -0.45593999997E+02  0.45594000000E+02  0.51100000000E-03 0.  1.
    9900012    2    1    2    0    0  0.23354513736E+02 -0.20502495870E+02 -0.71366767125E+01  0.59301987342E+02  0.50000078995E+02 0.  0.
        -12    1    1    2    0    0 -0.23354513736E+02  0.20502495870E+02  0.71366767125E+01  0.31886012658E+02  0.00000000000E+00 0.  1.
         11    1    3    3    0    0  0.96133088289E+00  0.39466374140E+01 -0.38562258914E+01  0.56009447712E+01  0.51100000000E-03 0. -1.
        -11    1    3    3    0    0  0.16276040935E+02  0.69006188158E+01 -0.11025031712E+02  0.20834571584E+02  0.51100000000E-03 0.  1.
         12    1    3    3    0    0  0.61171419175E+01 -0.31349752100E+02  0.77445808911E+01  0.32866470987E+02  0.00000000000E+00 0. -1.
</event>
<event>
 7    1  0.6515090E-012  0.5930194E+02  0.7816164E-02  0.1266605E+00
        -11   -1    0    0    0    0  0.00000000000E+00  0.00000000000E+00  0.45593999997E+02  0.45594000000E+02  0.51100000000E-03 0.  1.
         11   -1    0    0    0    0 -0.00000000000E+00 -0.00000000000E+00 -0.45593999997E+02  0.45594000000E+02  0.51100000000E-03 0. -1.
    9900012    2    1    2    0    0 -0.31705124806E+02 -0.24229307462E+01  0.23738097729E+01  0.59301944973E+02  0.50000001723E+02 0.  0.
        -12    1    1    2    0    0  0.31705124806E+02  0.24229307462E+01 -0.23738097729E+01  0.31886055027E+02  0.00000000000E+00 0.  1.
         11    1    3    3    0    0 -0.26713862071E+02 -0.13179317172E+02  0.12483755792E+02  0.32298126676E+02  0.51100000000E-03 0. -1.
        -11    1    3    3    0    0 -0.20571917367E-01  0.99960208201E+01  0.49298925019E+01  0.11145613298E+02  0.51100000000E-03 0.  1.
        -12    1    3    3    0    0 -0.49706908182E+01  0.76036560544E+00 -0.15039838521E+02  0.15858204999E+02  0.00000000000E+00 0.  1.
</event>
<event>
 7    1  0.6515090E-012  0.5930195E+02  0.7816164E-02  0.1266605E+00
        -11   -1    0    0    0    0  0.00000000000E+00  0.00000000000E+00  0.45593999997E+02  0.45594000000E+02  0.51100000000E-03 0. -1.
         11   -1    0    0    0    0 -0.00000000000E+00 -0.00000000000E+00 -0.45593999997E+02  0.45594000000E+02  0.51100000000E-03 0.  1.
    9900012    2    1    2    0    0 -0.98622788662E+01 -0.22592506793E+02  0.20224597098E+02  0.59301949204E+02  0.50000009440E+02 0.  0.
        -12    1    1    2    0    0  0.98622788662E+01  0.22592506793E+02 -0.20224597098E+02  0.31886050796E+02  0.00000000000E+00 0.  1.
         11    1    3    3    0    0  0.73099679366E+01 -0.17294003191E+02  0.91570521853E+00  0.18797784282E+02  0.51100000000E-03 0. -1.
        -11    1    3    3    0    0 -0.33498987333E+00  0.26177633895E+01 -0.74551829053E+01  0.79085179264E+01  0.51100000000E-03 0.  1.
         12    1    3    3    0    0 -0.16837256929E+02 -0.79162669911E+01  0.26764074784E+02  0.32595646995E+02  0.00000000000E+00 0. -1.
</event>
<event>
 7    1  0.6515090E-012  0.5930222E+02  0.7816164E-02  0.1266604E+00
        -11   -1    0    0    0    0  0.00000000000E+00  0.00000000000E+00  0.45593999997E+02  0.45594000000E+02  0.51100000000E-03 0. -1.
         11   -1    0    0    0    0 -0.00000000000E+00 -0.00000000000E+00 -0.45593999997E+02  0.45594000000E+02  0.51100000000E-03 0.  1.
    9900012    2    1    2    0    0  0.18661938183E+01 -0.31791975197E+02  0.15782202484E+01  0.59302217189E+02  0.50000498178E+02 0.  0.
        -12    1    1    2    0    0 -0.18661938183E+01  0.31791975197E+02 -0.15782202484E+01  0.31885782811E+02  0.00000000000E+00 0.  1.
         11    1    3    3    0    0 -0.12141987909E+01  0.73470871827E+01  0.71584295306E+01  0.10329427979E+02  0.51100000000E-03 0. -1.
        -11    1    3    3    0    0  0.71717669286E+01  0.30111251512E+00 -0.59434473164E+01  0.93193066206E+01  0.51100000000E-03 0.  1.
         12    1    3    3    0    0 -0.40913743194E+01 -0.39440174895E+02  0.36323803427E+00  0.39653482589E+02  0.00000000000E+00 0. -1.
</event>
<event>
 7    1  0.6515090E-012  0.5930193E+02  0.7816164E-02  0.1266605E+00
        -11   -1    0    0    0    0  0.00000000000E+00  0.00000000000E+00  0.45593999997E+02  0.45594000000E+02  0.51100000000E-03 0.  1.
         11   -1    0    0    0    0 -0.00000000000E+00 -0.00000000000E+00 -0.45593999997E+02  0.45594000000E+02  0.51100000000E-03 0. -1.
    9900012    2    1    2    0    0 -0.83916101418E+01 -0.13861029776E+02 -0.27462231802E+02  0.59301930270E+02  0.49999974910E+02 0.  0.
        -12    1    1    2    0    0  0.83916101418E+01  0.13861029776E+02  0.27462231802E+02  0.31886069730E+02  0.00000000000E+00 0.  1.
         11    1    3    3    0    0 -0.21570228625E+02 -0.36934908654E+01 -0.11678985620E+02  0.24805550650E+02  0.51100000000E-03 0. -1.
        -11    1    3    3    0    0  0.44932399203E+01 -0.37946291692E+01  0.70909074937E+01  0.92124581334E+01  0.51100000000E-03 0.  1.
         12    1    3    3    0    0  0.86853785625E+01 -0.63729097418E+01 -0.22874153676E+02  0.25283921487E+02  0.00000000000E+00 0. -1.
</event>
<event>
 7    1  0.6515090E-012  0.5930217E+02  0.7816164E-02  0.1266604E+00
        -11   -1    0    0    0    0  0.00000000000E+00  0.00000000000E+00  0.45593999997E+02  0.45594000000E+02  0.51100000000E-03 0. -1.
         11   -1    0    0    0    0 -0.00000000000E+00 -0.00000000000E+00 -0.45593999997E+02  0.45594000000E+02  0.51100000000E-03 0.  1.
    9900012    2    1    2    0    0  0.18083465293E+02 -0.13997449035E+02  0.22220849289E+02  0.59302165533E+02  0.50000403972E+02 0.  0.
        -12    1    1    2    0    0 -0.18083465293E+02  0.13997449035E+02 -0.22220849289E+02  0.31885834467E+02  0.00000000000E+00 0.  1.
         11    1    3    3    0    0  0.16057876488E+02 -0.17678756066E+02  0.26277548895E+02  0.35509201477E+02  0.51100000000E-03 0. -1.
        -11    1    3    3    0    0  0.11085096470E+02 -0.35387411282E+01 -0.39327159836E+00  0.11642882604E+02  0.51100000000E-03 0.  1.
        -12    1    3    3    0    0 -0.90595076648E+01  0.72200481589E+01 -0.36634280072E+01  0.12150081453E+02  0.00000000000E+00 0.  1.
</event>
<event>
 7    1  0.6515090E-012  0.5930194E+02  0.7816164E-02  0.1266605E+00
        -11   -1    0    0    0    0  0.00000000000E+00  0.00000000000E+00  0.45593999997E+02  0.45594000000E+02  0.51100000000E-03 0.  1.
         11   -1    0    0    0    0 -0.00000000000E+00 -0.00000000000E+00 -0.45593999997E+02  0.45594000000E+02  0.51100000000E-03 0. -1.
    9900012    2    1    2    0    0  0.62428628451E-01  0.12731355066E+02 -0.29234050679E+02  0.59301936927E+02  0.49999987051E+02 0.  0.
        -12    1    1    2    0    0 -0.62428628451E-01 -0.12731355066E+02  0.29234050679E+02  0.31886063073E+02  0.00000000000E+00 0.  1.
         11    1    3    3    0    0  0.14498703997E+02  0.84239226121E+01 -0.63040879188E+01  0.17914140072E+02  0.51100000000E-03 0. -1.
        -11    1    3    3    0    0 -0.46978442478E+01 -0.12270290710E+02 -0.25763207663E+01  0.13389070305E+02  0.51100000000E-03 0.  1.
         12    1    3    3    0    0 -0.97384311210E+01  0.16577723164E+02 -0.20353641994E+02  0.27998726550E+02  0.00000000000E+00 0. -1.
</event>
<event>
 7    1  0.6515090E-012  0.5930192E+02  0.7816164E-02  0.1266605E+00
        -11   -1    0    0    0    0  0.00000000000E+00  0.00000000000E+00  0.45593999997E+02  0.45594000000E+02  0.51100000000E-03 0. -1.
         11   -1    0    0    0    0 -0.00000000000E+00 -0.00000000000E+00 -0.45593999997E+02  0.45594000000E+02  0.51100000000E-03 0.  1.
    9900012    2    1    2    0    0  0.24585736551E+01  0.25259030424E+02  0.19304367296E+02  0.59301924684E+02  0.49999964721E+02 0.  0.
        -12    1    1    2    0    0 -0.24585736551E+01 -0.25259030424E+02 -0.19304367296E+02  0.31886075316E+02  0.00000000000E+00 0.  1.
         11    1    3    3    0    0 -0.17157890466E+02  0.12827123849E+02  0.14045894975E+02  0.25616703094E+02  0.51100000000E-03 0. -1.
        -11    1    3    3    0    0 -0.50469497424E+01 -0.10509354413E+01  0.10969882497E+01  0.52706309380E+01  0.51100000000E-03 0.  1.
        -12    1    3    3    0    0  0.24663413863E+02  0.13482842017E+02  0.41614840710E+01  0.28414590652E+02  0.00000000000E+00 0.  1.
</event>
<event>
 7    1  0.6515090E-012  0.5930194E+02  0.7816164E-02  0.1266605E+00
        -11   -1    0    0    0    0  0.00000000000E+00  0.00000000000E+00  0.45593999997E+02  0.45594000000E+02  0.51100000000E-03 0.  1.
         11   -1    0    0    0    0 -0.00000000000E+00 -0.00000000000E+00 -0.45593999997E+02  0.45594000000E+02  0.51100000000E-03 0. -1.
    9900012    2    1    2    0    0 -0.89686325561E+01  0.19637573816E+02 -0.23465940436E+02  0.59301936652E+02  0.49999986548E+02 0.  0.
        -12    1    1    2    0    0  0.89686325561E+01 -0.19637573816E+02  0.23465940436E+02  0.31886063348E+02  0.00000000000E+00 0.  1.
         11    1    3    3    0    0 -0.40398019206E+01  0.24927434559E+01 -0.24485377633E+00  0.47532855087E+01  0.51100000000E-03 0. -1.
        -11    1    3    3    0    0 -0.24253733844E+02  0.36658687555E+01 -0.56893495747E+01  0.25180367312E+02  0.51100000000E-03 0.  1.
         12    1    3    3    0    0  0.19324903209E+02  0.13478961605E+02 -0.17531737085E+02  0.29368283831E+02  0.00000000000E+00 0. -1.
</event>
<event>
 7    1  0.6515090E-012  0.5930197E+02  0.7816164E-02  0.1266605E+00
        -11   -1    0    0    0    0  0.00000000000E+00  0.00000000000E+00  0.45593999997E+02  0.45594000000E+02  0.51100000000E-03 0.  1.
         11   -1    0    0    0    0 -0.00000000000E+00 -0.00000000000E+00 -0.45593999997E+02  0.45594000000E+02  0.51100000000E-03 0. -1.
    9900012    2    1    2    0    0  0.16858721885E+01 -0.12377085125E+02 -0.29337424636E+02  0.59301970371E+02  0.50000048044E+02 0.  0.
        -12    1    1    2    0    0 -0.16858721885E+01  0.12377085125E+02  0.29337424636E+02  0.31886029629E+02  0.00000000000E+00 0.  1.
         11    1    3    3    0    0 -0.88501137594E+01 -0.14831142335E+02 -0.76784029894E+01  0.18900930380E+02  0.51100000000E-03 0. -1.
        -11    1    3    3    0    0  0.14063541417E+02 -0.11845103445E+02 -0.71546936138E+01  0.19730162538E+02  0.51100000000E-03 0.  1.
         12    1    3    3    0    0 -0.35275554686E+01  0.14299160654E+02 -0.14504328033E+02  0.20670877453E+02  0.00000000000E+00 0. -1.
</event>
<event>
 7    1  0.6515090E-012  0.5930186E+02  0.7816164E-02  0.1266605E+00
        -11   -1    0    0    0    0  0.00000000000E+00  0.00000000000E+00  0.45593999997E+02  0.45594000000E+02  0.51100000000E-03 0.  1.
         11   -1    0    0    0    0 -0.00000000000E+00 -0.00000000000E+00 -0.45593999997E+02  0.45594000000E+02  0.51100000000E-03 0. -1.
    9900012    2    1    2    0    0 -0.12117408462E+02 -0.28917919790E+02 -0.58007105188E+01  0.59301860138E+02  0.49999847004E+02 0.  0.
        -12    1    1    2    0    0  0.12117408462E+02  0.28917919790E+02  0.58007105188E+01  0.31886139862E+02  0.00000000000E+00 0.  1.
         11    1    3    3    0    0 -0.17363681162E+02 -0.23439898246E+02  0.16932126421E+02  0.33728669684E+02  0.51100000000E-03 0. -1.
        -11    1    3    3    0    0  0.96308891065E+00  0.38494609580E+00  0.55734740870E+00  0.11774379566E+01  0.51100000000E-03 0.  1.
        -12    1    3    3    0    0  0.42831837889E+01 -0.58629676392E+01 -0.23290184348E+02  0.24395752497E+02  0.00000000000E+00 0.  1.
</event>
<event>
 7    1  0.6515090E-012  0.5930201E+02  0.7816164E-02  0.1266605E+00
        -11   -1    0    0    0    0  0.00000000000E+00  0.00000000000E+00  0.45593999997E+02  0.45594000000E+02  0.51100000000E-03 0. -1.
         11   -1    0    0    0    0 -0.00000000000E+00 -0.00000000000E+00 -0.45593999997E+02  0.45594000000E+02  0.51100000000E-03 0.  1.
    9900012    2    1    2    0    0  0.43772165348E+01 -0.28772923664E+02  0.13025942696E+02  0.59302010226E+02  0.50000120729E+02 0.  0.
        -12    1    1    2    0    0 -0.43772165348E+01  0.28772923664E+02 -0.13025942696E+02  0.31885989774E+02  0.00000000000E+00 0.  1.
         11    1    3    3    0    0 -0.48746467124E+01 -0.37771149055E+02  0.13761151567E+02  0.40494335088E+02  0.51100000000E-03 0. -1.
        -11    1    3    3    0    0 -0.22062312241E+01  0.29002831443E+01 -0.40128536567E+01  0.54205251833E+01  0.51100000000E-03 0.  1.
        -12    1    3    3    0    0  0.11458094471E+02  0.60979422468E+01  0.32776447849E+01  0.13387149954E+02  0.00000000000E+00 0.  1.
</event>
<event>
 7    1  0.6515090E-012  0.5930196E+02  0.7816164E-02  0.1266605E+00
        -11   -1    0    0    0    0  0.00000000000E+00  0.00000000000E+00  0.45593999997E+02  0.45594000000E+02  0.51100000000E-03 0. -1.
         11   -1    0    0    0    0 -0.00000000000E+00 -0.00000000000E+00 -0.45593999997E+02  0.45594000000E+02  0.51100000000E-03 0.  1.
    9900012    2    1    2    0    0  0.25999897693E+02  0.25739814668E+00  0.18456945497E+02  0.59301956487E+02  0.50000022722E+02 0.  0.
        -12    1    1    2    0    0 -0.25999897693E+02 -0.25739814668E+00 -0.18456945497E+02  0.31886043513E+02  0.00000000000E+00 0.  1.
         11    1    3    3    0    0  0.82680663518E+01  0.66241333051E+01  0.33612800953E+01  0.11114776983E+02  0.51100000000E-03 0. -1.
        -11    1    3    3    0    0  0.25393132899E+02  0.10199820808E+02  0.71729776293E+01  0.28289559051E+02  0.51100000000E-03 0.  1.
        -12    1    3    3    0    0 -0.76613015578E+01 -0.16566555967E+02  0.79226877727E+01  0.19897620453E+02  0.00000000000E+00 0.  1.
</event>
<event>
 7    1  0.6515090E-012  0.5930195E+02  0.7816164E-02  0.1266605E+00
        -11   -1    0    0    0    0  0.00000000000E+00  0.00000000000E+00  0.45593999997E+02  0.45594000000E+02  0.51100000000E-03 0. -1.
         11   -1    0    0    0    0 -0.00000000000E+00 -0.00000000000E+00 -0.45593999997E+02  0.45594000000E+02  0.51100000000E-03 0.  1.
    9900012    2    1    2    0    0  0.21605009553E+02  0.86442010328E+01 -0.21799577079E+02  0.59301949600E+02  0.50000010162E+02 0.  0.
        -12    1    1    2    0    0 -0.21605009553E+02 -0.86442010328E+01  0.21799577079E+02  0.31886050400E+02  0.00000000000E+00 0.  1.
         11    1    3    3    0    0  0.75743405968E+01  0.71536897354E+01 -0.21637063831E+02  0.24014754710E+02  0.51100000000E-03 0.  1.
        -11    1    3    3    0    0 -0.42382699395E+01 -0.25449790420E+01  0.11995647853E+02  0.12974413978E+02  0.51100000000E-03 0. -1.
         12    1    3    3    0    0  0.18268938896E+02  0.40354903394E+01 -0.12158161101E+02  0.22312780912E+02  0.00000000000E+00 0. -1.
</event>
<event>
 7    1  0.6515090E-012  0.5930194E+02  0.7816164E-02  0.1266605E+00
        -11   -1    0    0    0    0  0.00000000000E+00  0.00000000000E+00  0.45593999997E+02  0.45594000000E+02  0.51100000000E-03 0. -1.
         11   -1    0    0    0    0 -0.00000000000E+00 -0.00000000000E+00 -0.45593999997E+02  0.45594000000E+02  0.51100000000E-03 0.  1.
    9900012    2    1    2    0    0 -0.12555509995E+02 -0.12831645535E+02  0.26352019666E+02  0.59301938800E+02  0.49999990466E+02 0.  0.
        -12    1    1    2    0    0  0.12555509995E+02  0.12831645535E+02 -0.26352019666E+02  0.31886061200E+02  0.00000000000E+00 0.  1.
         11    1    3    3    0    0 -0.36012265173E+01 -0.47864506791E+01  0.26188234867E+02  0.26864522856E+02  0.51100000000E-03 0. -1.
        -11    1    3    3    0    0 -0.19158668837E+02  0.16102430559E+00  0.17868961704E+01  0.19242492526E+02  0.51100000000E-03 0.  1.
        -12    1    3    3    0    0  0.10204385359E+02 -0.82062191614E+01 -0.16231113714E+01  0.13194923418E+02  0.00000000000E+00 0.  1.
</event>
<event>
 7    1  0.6515090E-012  0.5930190E+02  0.7816164E-02  0.1266605E+00
        -11   -1    0    0    0    0  0.00000000000E+00  0.00000000000E+00  0.45593999997E+02  0.45594000000E+02  0.51100000000E-03 0. -1.
         11   -1    0    0    0    0 -0.00000000000E+00 -0.00000000000E+00 -0.45593999997E+02  0.45594000000E+02  0.51100000000E-03 0.  1.
    9900012    2    1    2    0    0  0.42902254710E+01 -0.20992081092E+02  0.23614606910E+02  0.59301903301E+02  0.49999925725E+02 0.  0.
        -12    1    1    2    0    0 -0.42902254710E+01  0.20992081092E+02 -0.23614606910E+02  0.31886096699E+02  0.00000000000E+00 0.  1.
         11    1    3    3    0    0 -0.14631852642E+02 -0.15153482304E+02  0.13477757119E+02  0.25007380409E+02  0.51100000000E-03 0. -1.
        -11    1    3    3    0    0 -0.19610565155E+01  0.76280219401E+01  0.31466656666E+01  0.84813894176E+01  0.51100000000E-03 0.  1.
         12    1    3    3    0    0  0.20883134628E+02 -0.13466620728E+02  0.69901841242E+01  0.25813133475E+02  0.00000000000E+00 0. -1.
</event>
<event>
 7    1  0.6515090E-012  0.5930197E+02  0.7816164E-02  0.1266605E+00
        -11   -1    0    0    0    0  0.00000000000E+00  0.00000000000E+00  0.45593999997E+02  0.45594000000E+02  0.51100000000E-03 0. -1.
         11   -1    0    0    0    0 -0.00000000000E+00 -0.00000000000E+00 -0.45593999997E+02  0.45594000000E+02  0.51100000000E-03 0.  1.
    9900012    2    1    2    0    0  0.18423017690E+02  0.26002656689E+02  0.10831928966E+01  0.59301967909E+02  0.50000043553E+02 0.  0.
        -12    1    1    2    0    0 -0.18423017690E+02 -0.26002656689E+02 -0.10831928966E+01  0.31886032091E+02  0.00000000000E+00 0.  1.
         11    1    3    3    0    0  0.10809824366E+02  0.76338138372E+01 -0.20810113046E+01  0.13396194416E+02  0.51100000000E-03 0. -1.
        -11    1    3    3    0    0  0.17133398456E+01  0.16195591766E+02 -0.17736784931E+02  0.24079581932E+02  0.51100000000E-03 0.  1.
         12    1    3    3    0    0  0.58998534783E+01  0.21732510858E+01  0.20900989132E+02  0.21826191561E+02  0.00000000000E+00 0. -1.
</event>
<event>
 7    1  0.6515090E-012  0.5930197E+02  0.7816164E-02  0.1266605E+00
        -11   -1    0    0    0    0  0.00000000000E+00  0.00000000000E+00  0.45593999997E+02  0.45594000000E+02  0.51100000000E-03 0. -1.
         11   -1    0    0    0    0 -0.00000000000E+00 -0.00000000000E+00 -0.45593999997E+02  0.45594000000E+02  0.51100000000E-03 0.  1.
    9900012    2    1    2    0    0 -0.26697513761E+01 -0.30339083331E+02  0.94409351692E+01  0.59301971607E+02  0.50000050298E+02 0.  0.
        -12    1    1    2    0    0  0.26697513761E+01  0.30339083331E+02 -0.94409351692E+01  0.31886028393E+02  0.00000000000E+00 0.  1.
         11    1    3    3    0    0  0.48367232235E+00 -0.12989412240E+01 -0.68116827208E+01  0.69512739098E+01  0.51100000000E-03 0. -1.
        -11    1    3    3    0    0  0.72742828160E+01 -0.18484856925E+02 -0.99662973476E+01  0.22224585690E+02  0.51100000000E-03 0.  1.
         12    1    3    3    0    0 -0.10427706515E+02 -0.10555285183E+02  0.26218915238E+02  0.30126112007E+02  0.00000000000E+00 0. -1.
</event>
<event>
 7    1  0.6515090E-012  0.5930191E+02  0.7816164E-02  0.1266605E+00
        -11   -1    0    0    0    0  0.00000000000E+00  0.00000000000E+00  0.45593999997E+02  0.45594000000E+02  0.51100000000E-03 0. -1.
         11   -1    0    0    0    0 -0.00000000000E+00 -0.00000000000E+00 -0.45593999997E+02  0.45594000000E+02  0.51100000000E-03 0.  1.
    9900012    2    1    2    0    0  0.54812230152E+01  0.31528170765E+01  0.31252819578E+02  0.59301909101E+02  0.49999936301E+02 0.  0.
        -12    1    1    2    0    0 -0.54812230152E+01 -0.31528170765E+01 -0.31252819578E+02  0.31886090899E+02  0.00000000000E+00 0.  1.
         11    1    3    3    0    0  0.96844063691E+01 -0.66065055447E+01 -0.87104037982E-01  0.11723533154E+02  0.51100000000E-03 0.  1.
        -11    1    3    3    0    0 -0.84546720401E+01 -0.11043602954E+02  0.16963098665E+02  0.21936028859E+02  0.51100000000E-03 0. -1.
        -12    1    3    3    0    0  0.42514886861E+01  0.20802925575E+02  0.14376824951E+02  0.25642347088E+02  0.00000000000E+00 0.  1.
</event>
<event>
 7    1  0.6515090E-012  0.5930194E+02  0.7816164E-02  0.1266605E+00
        -11   -1    0    0    0    0  0.00000000000E+00  0.00000000000E+00  0.45593999997E+02  0.45594000000E+02  0.51100000000E-03 0.  1.
         11   -1    0    0    0    0 -0.00000000000E+00 -0.00000000000E+00 -0.45593999997E+02  0.45594000000E+02  0.51100000000E-03 0. -1.
    9900012    2    1    2    0    0  0.95397142572E+01 -0.29089255240E+02 -0.89179589467E+01  0.59301938620E+02  0.49999990138E+02 0.  0.
        -12    1    1    2    0    0 -0.95397142572E+01  0.29089255240E+02  0.89179589467E+01  0.31886061380E+02  0.00000000000E+00 0.  1.
         11    1    3    3    0    0  0.11961388833E+02 -0.80885333897E+01 -0.19760247332E+02  0.24473793537E+02  0.51100000000E-03 0. -1.
        -11    1    3    3    0    0 -0.12297174461E+01 -0.12132239011E+02 -0.75725476767E+01  0.14354334084E+02  0.51100000000E-03 0.  1.
        -12    1    3    3    0    0 -0.11919571299E+01 -0.88684828398E+01  0.18414836062E+02  0.20473811000E+02  0.00000000000E+00 0.  1.
</event>
<event>
 7    1  0.6515090E-012  0.5930208E+02  0.7816164E-02  0.1266604E+00
        -11   -1    0    0    0    0  0.00000000000E+00  0.00000000000E+00  0.45593999997E+02  0.45594000000E+02  0.51100000000E-03 0. -1.
         11   -1    0    0    0    0 -0.00000000000E+00 -0.00000000000E+00 -0.45593999997E+02  0.45594000000E+02  0.51100000000E-03 0.  1.
    9900012    2    1    2    0    0 -0.30516258400E+02 -0.92448993616E+01  0.42328555602E-01  0.59302078614E+02  0.50000245453E+02 0.  0.
        -12    1    1    2    0    0  0.30516258400E+02  0.92448993616E+01 -0.42328555602E-01  0.31885921386E+02  0.00000000000E+00 0.  1.
         11    1    3    3    0    0 -0.48921281232E+01 -0.72863908008E+01 -0.10873409438E+02  0.13973383325E+02  0.51100000000E-03 0. -1.
        -11    1    3    3    0    0  0.52998173661E+01  0.52547541552E+01 -0.57922377403E+01  0.94472495281E+01  0.51100000000E-03 0.  1.
         12    1    3    3    0    0 -0.30923947642E+02 -0.72132627160E+01  0.16707975734E+02  0.35881445761E+02  0.00000000000E+00 0. -1.
</event>
<event>
 7    1  0.6515090E-012  0.5930196E+02  0.7816164E-02  0.1266605E+00
        -11   -1    0    0    0    0  0.00000000000E+00  0.00000000000E+00  0.45593999997E+02  0.45594000000E+02  0.51100000000E-03 0. -1.
         11   -1    0    0    0    0 -0.00000000000E+00 -0.00000000000E+00 -0.45593999997E+02  0.45594000000E+02  0.51100000000E-03 0.  1.
    9900012    2    1    2    0    0  0.68417945207E+01 -0.31077868463E+02  0.20188167545E+01  0.59301957888E+02  0.50000025277E+02 0.  0.
        -12    1    1    2    0    0 -0.68417945207E+01  0.31077868463E+02 -0.20188167545E+01  0.31886042112E+02  0.00000000000E+00 0.  1.
         11    1    3    3    0    0 -0.81884974573E+01 -0.17425149764E+01  0.16421332595E+01  0.85313803663E+01  0.51100000000E-03 0. -1.
        -11    1    3    3    0    0  0.70367247833E+01  0.59382586522E+01 -0.95492685644E+01  0.13265253178E+02  0.51100000000E-03 0.  1.
        -12    1    3    3    0    0  0.79935671947E+01 -0.35273612139E+02  0.99259520594E+01  0.37505324344E+02  0.00000000000E+00 0.  1.
</event>
<event>
 7    1  0.6515090E-012  0.5930194E+02  0.7816164E-02  0.1266605E+00
        -11   -1    0    0    0    0  0.00000000000E+00  0.00000000000E+00  0.45593999997E+02  0.45594000000E+02  0.51100000000E-03 0. -1.
         11   -1    0    0    0    0 -0.00000000000E+00 -0.00000000000E+00 -0.45593999997E+02  0.45594000000E+02  0.51100000000E-03 0.  1.
    9900012    2    1    2    0    0  0.13678672253E+02 -0.27773004669E+02  0.76338218394E+01  0.59301935664E+02  0.49999984747E+02 0.  0.
        -12    1    1    2    0    0 -0.13678672253E+02  0.27773004669E+02 -0.76338218394E+01  0.31886064336E+02  0.00000000000E+00 0.  1.
         11    1    3    3    0    0  0.10621508329E+02  0.99876606148E+01  0.40505492105E+01  0.15131977826E+02  0.51100000000E-03 0.  1.
        -11    1    3    3    0    0  0.21208553141E+00 -0.69912229438E+01  0.10393360113E+02  0.12527733762E+02  0.51100000000E-03 0. -1.
        -12    1    3    3    0    0  0.28450783923E+01 -0.30769442340E+02 -0.68100874839E+01  0.31642224076E+02  0.00000000000E+00 0.  1.
</event>
<event>
 7    1  0.6515090E-012  0.5930194E+02  0.7816164E-02  0.1266605E+00
        -11   -1    0    0    0    0  0.00000000000E+00  0.00000000000E+00  0.45593999997E+02  0.45594000000E+02  0.51100000000E-03 0.  1.
         11   -1    0    0    0    0 -0.00000000000E+00 -0.00000000000E+00 -0.45593999997E+02  0.45594000000E+02  0.51100000000E-03 0. -1.
    9900012    2    1    2    0    0 -0.23689692955E+02 -0.69084011479E+01 -0.20193890293E+02  0.59301940916E+02  0.49999994325E+02 0.  0.
        -12    1    1    2    0    0  0.23689692955E+02  0.69084011479E+01  0.20193890293E+02  0.31886059084E+02  0.00000000000E+00 0.  1.
         11    1    3    3    0    0 -0.70109741947E+01 -0.43468325991E+01  0.78772633041E+01  0.11406138270E+02  0.51100000000E-03 0. -1.
        -11    1    3    3    0    0  0.44155692182E+00  0.36836307826E+00  0.79156945465E+01  0.79365536782E+01  0.51100000000E-03 0.  1.
         12    1    3    3    0    0 -0.17120275682E+02 -0.29299316270E+01 -0.35986848144E+02  0.39959248968E+02  0.00000000000E+00 0. -1.
</event>
<event>
 7    1  0.6515090E-012  0.5930192E+02  0.7816164E-02  0.1266605E+00
        -11   -1    0    0    0    0  0.00000000000E+00  0.00000000000E+00  0.45593999997E+02  0.45594000000E+02  0.51100000000E-03 0.  1.
         11   -1    0    0    0    0 -0.00000000000E+00 -0.00000000000E+00 -0.45593999997E+02  0.45594000000E+02  0.51100000000E-03 0. -1.
    9900012    2    1    2    0    0 -0.48528816310E+01  0.46227116036E+01 -0.31173746861E+02  0.59301915010E+02  0.49999947078E+02 0.  0.
        -12    1    1    2    0    0  0.48528816310E+01 -0.46227116036E+01  0.31173746861E+02  0.31886084990E+02  0.00000000000E+00 0.  1.
         11    1    3    3    0    0  0.79585669020E+00 -0.86905980404E+01  0.94728207587E+00  0.87782245223E+01  0.51100000000E-03 0. -1.
        -11    1    3    3    0    0  0.13726398049E+02  0.14005804968E+02 -0.16043025140E+02  0.25336835479E+02  0.51100000000E-03 0.  1.
        -12    1    3    3    0    0 -0.19375136370E+02 -0.69249532422E+00 -0.16078003796E+02  0.25186855008E+02  0.00000000000E+00 0.  1.
</event>
<event>
 7    1  0.6515090E-012  0.5930194E+02  0.7816164E-02  0.1266605E+00
        -11   -1    0    0    0    0  0.00000000000E+00  0.00000000000E+00  0.45593999997E+02  0.45594000000E+02  0.51100000000E-03 0.  1.
         11   -1    0    0    0    0 -0.00000000000E+00 -0.00000000000E+00 -0.45593999997E+02  0.45594000000E+02  0.51100000000E-03 0. -1.
    9900012    2    1    2    0    0 -0.12265511092E+02 -0.38647353703E+01 -0.29177761489E+02  0.59301941803E+02  0.49999995943E+02 0.  0.
        -12    1    1    2    0    0  0.12265511092E+02  0.38647353703E+01  0.29177761489E+02  0.31886058197E+02  0.00000000000E+00 0.  1.
         11    1    3    3    0    0  0.11152145142E+00  0.39073739262E+01 -0.30910750288E+02  0.31156933284E+02  0.51100000000E-03 0. -1.
        -11    1    3    3    0    0  0.23981682036E+01 -0.38396892474E+01 -0.85809487287E+01  0.97019124710E+01  0.51100000000E-03 0.  1.
        -12    1    3    3    0    0 -0.14775200747E+02 -0.39324200491E+01  0.10313937527E+02  0.18443096049E+02  0.00000000000E+00 0.  1.
</event>
<event>
 7    1  0.6515090E-012  0.5930193E+02  0.7816164E-02  0.1266605E+00
        -11   -1    0    0    0    0  0.00000000000E+00  0.00000000000E+00  0.45593999997E+02  0.45594000000E+02  0.51100000000E-03 0. -1.
         11   -1    0    0    0    0 -0.00000000000E+00 -0.00000000000E+00 -0.45593999997E+02  0.45594000000E+02  0.51100000000E-03 0.  1.
    9900012    2    1    2    0    0 -0.23813998436E+02  0.28173958119E+01  0.21016112469E+02  0.59301933702E+02  0.49999981169E+02 0.  0.
        -12    1    1    2    0    0  0.23813998436E+02 -0.28173958119E+01 -0.21016112469E+02  0.31886066298E+02  0.00000000000E+00 0.  1.
         11    1    3    3    0    0  0.13068876994E+02  0.56697059443E+00  0.12070787646E+02  0.17799463930E+02  0.51100000000E-03 0. -1.
        -11    1    3    3    0    0 -0.56846226657E+01 -0.13993908406E+01 -0.44508377153E+01  0.73541271546E+01  0.51100000000E-03 0.  1.
         12    1    3    3    0    0 -0.31198252764E+02  0.36498160581E+01  0.13396162538E+02  0.34148342617E+02  0.00000000000E+00 0. -1.
</event>
<event>
 7    1  0.6515090E-012  0.5930195E+02  0.7816164E-02  0.1266605E+00
        -11   -1    0    0    0    0  0.00000000000E+00  0.00000000000E+00  0.45593999997E+02  0.45594000000E+02  0.51100000000E-03 0.  1.
         11   -1    0    0    0    0 -0.00000000000E+00 -0.00000000000E+00 -0.45593999997E+02  0.45594000000E+02  0.51100000000E-03 0. -1.
    9900012    2    1    2    0    0 -0.17698253022E+02 -0.21339905828E+02 -0.15751197616E+02  0.59301953411E+02  0.50000017112E+02 0.  0.
        -12    1    1    2    0    0  0.17698253022E+02  0.21339905828E+02  0.15751197616E+02  0.31886046589E+02  0.00000000000E+00 0.  1.
         11    1    3    3    0    0 -0.26859413935E+02 -0.36455451717E+01 -0.69439244874E+01  0.27980997196E+02  0.51100000000E-03 0. -1.
        -11    1    3    3    0    0 -0.47693763807E+01 -0.97451702159E+01 -0.10617078198E+02  0.15180172704E+02  0.51100000000E-03 0.  1.
        -12    1    3    3    0    0  0.13930537294E+02 -0.79491904404E+01  0.18098050694E+01  0.16140783511E+02  0.00000000000E+00 0.  1.
</event>
<event>
 7    1  0.6515090E-012  0.5930217E+02  0.7816164E-02  0.1266604E+00
        -11   -1    0    0    0    0  0.00000000000E+00  0.00000000000E+00  0.45593999997E+02  0.45594000000E+02  0.51100000000E-03 0. -1.
         11   -1    0    0    0    0 -0.00000000000E+00 -0.00000000000E+00 -0.45593999997E+02  0.45594000000E+02  0.51100000000E-03 0.  1.
    9900012    2    1    2    0    0 -0.18140516214E+02 -0.44253266627E+01 -0.25846555603E+02  0.59302168018E+02  0.50000408504E+02 0.  0.
        -12    1    1    2    0    0  0.18140516214E+02  0.44253266627E+01  0.25846555603E+02  0.31885831982E+02  0.00000000000E+00 0.  1.
         11    1    3    3    0    0 -0.12422317002E+02 -0.25770768438E+01 -0.11684108603E+02  0.17247425282E+02  0.51100000000E-03 0. -1.
        -11    1    3    3    0    0 -0.31735968000E+01  0.15014575332E+02 -0.18908964843E+02  0.24352785072E+02  0.51100000000E-03 0.  1.
        -12    1    3    3    0    0 -0.25446024123E+01 -0.16862825151E+02  0.47465178424E+01  0.17701957664E+02  0.00000000000E+00 0.  1.
</event>
<event>
 7    1  0.6515090E-012  0.5930197E+02  0.7816164E-02  0.1266605E+00
        -11   -1    0    0    0    0  0.00000000000E+00  0.00000000000E+00  0.45593999997E+02  0.45594000000E+02  0.51100000000E-03 0.  1.
         11   -1    0    0    0    0 -0.00000000000E+00 -0.00000000000E+00 -0.45593999997E+02  0.45594000000E+02  0.51100000000E-03 0. -1.
    9900012    2    1    2    0    0  0.25424057547E+02  0.89180075306E+01 -0.17053023439E+02  0.59301965928E+02  0.50000039941E+02 0.  0.
        -12    1    1    2    0    0 -0.25424057547E+02 -0.89180075306E+01  0.17053023439E+02  0.31886034072E+02  0.00000000000E+00 0.  1.
         11    1    3    3    0    0  0.18446825589E+02 -0.41733981965E+01 -0.18731670837E+02  0.26619130704E+02  0.51100000000E-03 0. -1.
        -11    1    3    3    0    0  0.75919714330E+01 -0.66504839374E+01 -0.57081821546E+01  0.11595271045E+02  0.51100000000E-03 0.  1.
        -12    1    3    3    0    0 -0.61473947535E+00  0.19741889665E+02  0.73868295531E+01  0.21087564179E+02  0.00000000000E+00 0.  1.
</event>
<event>
 7    1  0.6515090E-012  0.5930194E+02  0.7816164E-02  0.1266605E+00
        -11   -1    0    0    0    0  0.00000000000E+00  0.00000000000E+00  0.45593999997E+02  0.45594000000E+02  0.51100000000E-03 0. -1.
         11   -1    0    0    0    0 -0.00000000000E+00 -0.00000000000E+00 -0.45593999997E+02  0.45594000000E+02  0.51100000000E-03 0.  1.
    9900012    2    1    2    0    0  0.92113374931E+01 -0.19132459914E+02  0.23786990473E+02  0.59301942287E+02  0.49999996825E+02 0.  0.
        -12    1    1    2    0    0 -0.92113374931E+01  0.19132459914E+02 -0.23786990473E+02  0.31886057713E+02  0.00000000000E+00 0.  1.
         11    1    3    3    0    0 -0.27355932242E+01 -0.16438861480E+02 -0.61995599854E+01  0.17780724994E+02  0.51100000000E-03 0. -1.
        -11    1    3    3    0    0  0.46322463006E+01  0.78877556864E+01  0.28279108826E+00  0.91517411796E+01  0.51100000000E-03 0.  1.
         12    1    3    3    0    0  0.73146844167E+01 -0.10581354120E+02  0.29703759370E+02  0.32369476113E+02  0.00000000000E+00 0. -1.
</event>
<event>
 7    1  0.6515090E-012  0.5930196E+02  0.7816164E-02  0.1266605E+00
        -11   -1    0    0    0    0  0.00000000000E+00  0.00000000000E+00  0.45593999997E+02  0.45594000000E+02  0.51100000000E-03 0.  1.
         11   -1    0    0    0    0 -0.00000000000E+00 -0.00000000000E+00 -0.45593999997E+02  0.45594000000E+02  0.51100000000E-03 0. -1.
    9900012    2    1    2    0    0 -0.59354730877E+01  0.10644414253E+02 -0.29464994321E+02  0.59301964093E+02  0.50000036593E+02 0.  0.
        -12    1    1    2    0    0  0.59354730877E+01 -0.10644414253E+02  0.29464994321E+02  0.31886035907E+02  0.00000000000E+00 0.  1.
         11    1    3    3    0    0  0.75783790857E+01  0.14489222645E+02 -0.20963740620E+02  0.26586609853E+02  0.51100000000E-03 0. -1.
        -11    1    3    3    0    0 -0.14072347444E+01  0.11716307014E+02 -0.42789991634E+01  0.12552370046E+02  0.51100000000E-03 0.  1.
        -12    1    3    3    0    0 -0.12106617429E+02 -0.15561115405E+02 -0.42222545374E+01  0.20162984194E+02  0.00000000000E+00 0.  1.
</event>
<event>
 7    1  0.6515090E-012  0.5930200E+02  0.7816164E-02  0.1266605E+00
        -11   -1    0    0    0    0  0.00000000000E+00  0.00000000000E+00  0.45593999997E+02  0.45594000000E+02  0.51100000000E-03 0.  1.
         11   -1    0    0    0    0 -0.00000000000E+00 -0.00000000000E+00 -0.45593999997E+02  0.45594000000E+02  0.51100000000E-03 0. -1.
    9900012    2    1    2    0    0 -0.16683702495E+02  0.12462172650E+02 -0.24146740453E+02  0.59302003848E+02  0.50000109097E+02 0.  0.
        -12    1    1    2    0    0  0.16683702495E+02 -0.12462172650E+02  0.24146740453E+02  0.31885996152E+02  0.00000000000E+00 0.  1.
         11    1    3    3    0    0 -0.31499578147E+01 -0.43892829120E+01  0.36087390849E+01  0.64970021364E+01  0.51100000000E-03 0. -1.
        -11    1    3    3    0    0 -0.75800448525E+01 -0.12015051585E+02 -0.15089475431E+02  0.20724642665E+02  0.51100000000E-03 0.  1.
         12    1    3    3    0    0 -0.59536998276E+01  0.28866507147E+02 -0.12666004108E+02  0.32080359046E+02  0.00000000000E+00 0. -1.
</event>
<event>
 7    1  0.6515090E-012  0.5930194E+02  0.7816164E-02  0.1266605E+00
        -11   -1    0    0    0    0  0.00000000000E+00  0.00000000000E+00  0.45593999997E+02  0.45594000000E+02  0.51100000000E-03 0.  1.
         11   -1    0    0    0    0 -0.00000000000E+00 -0.00000000000E+00 -0.45593999997E+02  0.45594000000E+02  0.51100000000E-03 0. -1.
    9900012    2    1    2    0    0 -0.25249017730E+02  0.19352740390E+02  0.21631741611E+01  0.59301940673E+02  0.49999993882E+02 0.  0.
        -12    1    1    2    0    0  0.25249017730E+02 -0.19352740390E+02 -0.21631741611E+01  0.31886059327E+02  0.00000000000E+00 0.  1.
         11    1    3    3    0    0 -0.68755327692E+01 -0.28790603973E+01 -0.15039519201E+02  0.16785382858E+02  0.51100000000E-03 0. -1.
        -11    1    3    3    0    0  0.10800822914E+01 -0.33895668554E+01 -0.28935211967E+01  0.45856522328E+01  0.51100000000E-03 0.  1.
         12    1    3    3    0    0 -0.19453567252E+02  0.25621367643E+02  0.20096214559E+02  0.37930905583E+02  0.00000000000E+00 0. -1.
</event>
<event>
 7    1  0.6515090E-012  0.5930195E+02  0.7816164E-02  0.1266605E+00
        -11   -1    0    0    0    0  0.00000000000E+00  0.00000000000E+00  0.45593999997E+02  0.45594000000E+02  0.51100000000E-03 0. -1.
         11   -1    0    0    0    0 -0.00000000000E+00 -0.00000000000E+00 -0.45593999997E+02  0.45594000000E+02  0.51100000000E-03 0.  1.
    9900012    2    1    2    0    0  0.30108962486E+02 -0.57492339060E-02  0.10496221238E+02  0.59301947951E+02  0.50000007155E+02 0.  0.
        -12    1    1    2    0    0 -0.30108962486E+02  0.57492339060E-02 -0.10496221238E+02  0.31886052049E+02  0.00000000000E+00 0.  1.
         11    1    3    3    0    0 -0.51011619008E+01 -0.24436458731E+01 -0.27886674465E-01  0.56563270608E+01  0.51100000000E-03 0. -1.
        -11    1    3    3    0    0  0.27146165200E+01  0.16795281044E+02  0.21742953880E+01  0.17151622923E+02  0.51100000000E-03 0.  1.
        -12    1    3    3    0    0  0.32495507866E+02 -0.14357384405E+02  0.83498125241E+01  0.36493997967E+02  0.00000000000E+00 0.  1.
</event>
<event>
 7    1  0.6515090E-012  0.5930193E+02  0.7816164E-02  0.1266605E+00
        -11   -1    0    0    0    0  0.00000000000E+00  0.00000000000E+00  0.45593999997E+02  0.45594000000E+02  0.51100000000E-03 0.  1.
         11   -1    0    0    0    0 -0.00000000000E+00 -0.00000000000E+00 -0.45593999997E+02  0.45594000000E+02  0.51100000000E-03 0. -1.
    9900012    2    1    2    0    0 -0.21426096791E+02  0.23399480039E+02 -0.31793041974E+01  0.59301933059E+02  0.49999979995E+02 0.  0.
        -12    1    1    2    0    0  0.21426096791E+02 -0.23399480039E+02  0.31793041974E+01  0.31886066941E+02  0.00000000000E+00 0.  1.
         11    1    3    3    0    0 -0.95169307368E+01 -0.11718566924E+02 -0.34054629765E+01  0.15475592387E+02  0.51100000000E-03 0. -1.
        -11    1    3    3    0    0 -0.85870884565E+01  0.26417260248E+01  0.58201847990E+01  0.10704735210E+02  0.51100000000E-03 0.  1.
         12    1    3    3    0    0 -0.33220775975E+01  0.32476320938E+02 -0.55940260200E+01  0.33121605462E+02  0.00000000000E+00 0. -1.
</event>
<event>
 7    1  0.6515090E-012  0.5930198E+02  0.7816164E-02  0.1266605E+00
        -11   -1    0    0    0    0  0.00000000000E+00  0.00000000000E+00  0.45593999997E+02  0.45594000000E+02  0.51100000000E-03 0.  1.
         11   -1    0    0    0    0 -0.00000000000E+00 -0.00000000000E+00 -0.45593999997E+02  0.45594000000E+02  0.51100000000E-03 0. -1.
    9900012    2    1    2    0    0  0.72854305869E+00 -0.15606439382E+02 -0.27796164978E+02  0.59301976218E+02  0.50000058707E+02 0.  0.
        -12    1    1    2    0    0 -0.72854305869E+00  0.15606439382E+02  0.27796164978E+02  0.31886023782E+02  0.00000000000E+00 0.  1.
         11    1    3    3    0    0  0.66741780174E+01 -0.62587946617E+01 -0.11017022921E+02  0.14321031985E+02  0.51100000000E-03 0. -1.
        -11    1    3    3    0    0  0.10569898589E+02 -0.58572227402E+01 -0.23805194800E+02  0.26696762241E+02  0.51100000000E-03 0.  1.
         12    1    3    3    0    0 -0.16515533548E+02 -0.34904219802E+01  0.70260527430E+01  0.18284181992E+02  0.00000000000E+00 0. -1.
</event>
<event>
 7    1  0.6515090E-012  0.5930199E+02  0.7816164E-02  0.1266605E+00
        -11   -1    0    0    0    0  0.00000000000E+00  0.00000000000E+00  0.45593999997E+02  0.45594000000E+02  0.51100000000E-03 0.  1.
         11   -1    0    0    0    0 -0.00000000000E+00 -0.00000000000E+00 -0.45593999997E+02  0.45594000000E+02  0.51100000000E-03 0. -1.
    9900012    2    1    2    0    0 -0.12862075473E+02 -0.27137379229E+02  0.10716696095E+02  0.59301985635E+02  0.50000075881E+02 0.  0.
        -12    1    1    2    0    0  0.12862075473E+02  0.27137379229E+02 -0.10716696095E+02  0.31886014365E+02  0.00000000000E+00 0.  1.
         11    1    3    3    0    0 -0.78219047854E+01  0.32530154739E+01 -0.11170979517E+02  0.14019810547E+02  0.51100000000E-03 0. -1.
        -11    1    3    3    0    0 -0.76526997763E+01 -0.73433785351E+00  0.11335296208E+02  0.13696423122E+02  0.51100000000E-03 0.  1.
        -12    1    3    3    0    0  0.26125290887E+01 -0.29656056850E+02  0.10552379405E+02  0.31585751965E+02  0.00000000000E+00 0.  1.
</event>
<event>
 7    1  0.6515090E-012  0.5930195E+02  0.7816164E-02  0.1266605E+00
        -11   -1    0    0    0    0  0.00000000000E+00  0.00000000000E+00  0.45593999997E+02  0.45594000000E+02  0.51100000000E-03 0.  1.
         11   -1    0    0    0    0 -0.00000000000E+00 -0.00000000000E+00 -0.45593999997E+02  0.45594000000E+02  0.51100000000E-03 0. -1.
    9900012    2    1    2    0    0 -0.54482314500E+00  0.25189566348E+02 -0.19542501021E+02  0.59301946133E+02  0.50000003839E+02 0.  0.
        -12    1    1    2    0    0  0.54482314500E+00 -0.25189566348E+02  0.19542501021E+02  0.31886053867E+02  0.00000000000E+00 0.  1.
         11    1    3    3    0    0 -0.55260658493E+01  0.35299432623E+01 -0.23021668938E+02  0.23937316979E+02  0.51100000000E-03 0. -1.
        -11    1    3    3    0    0  0.30872589261E+01 -0.63638845109E+01  0.13106171012E+01  0.71936021013E+01  0.51100000000E-03 0.  1.
         12    1    3    3    0    0  0.18939837782E+01  0.28023507596E+02  0.21685508155E+01  0.28171027052E+02  0.00000000000E+00 0. -1.
</event>
<event>
 7    1  0.6515090E-012  0.5930194E+02  0.7816164E-02  0.1266605E+00
        -11   -1    0    0    0    0  0.00000000000E+00  0.00000000000E+00  0.45593999997E+02  0.45594000000E+02  0.51100000000E-03 0.  1.
         11   -1    0    0    0    0 -0.00000000000E+00 -0.00000000000E+00 -0.45593999997E+02  0.45594000000E+02  0.51100000000E-03 0. -1.
    9900012    2    1    2    0    0 -0.97603069625E+01  0.28158280318E+02 -0.11338810741E+02  0.59301937661E+02  0.49999988389E+02 0.  0.
        -12    1    1    2    0    0  0.97603069625E+01 -0.28158280318E+02  0.11338810741E+02  0.31886062339E+02  0.00000000000E+00 0.  1.
         11    1    3    3    0    0 -0.29028094783E+01  0.75262163762E+01  0.94081657963E+01  0.12392893920E+02  0.51100000000E-03 0. -1.
        -11    1    3    3    0    0 -0.11886791102E+01  0.38459987254E+01  0.10357603151E+02  0.11112362823E+02  0.51100000000E-03 0.  1.
         12    1    3    3    0    0 -0.56688183740E+01  0.16786065216E+02 -0.31104579688E+02  0.35796680918E+02  0.00000000000E+00 0. -1.
</event>
<event>
 7    1  0.6515090E-012  0.5930195E+02  0.7816164E-02  0.1266605E+00
        -11   -1    0    0    0    0  0.00000000000E+00  0.00000000000E+00  0.45593999997E+02  0.45594000000E+02  0.51100000000E-03 0. -1.
         11   -1    0    0    0    0 -0.00000000000E+00 -0.00000000000E+00 -0.45593999997E+02  0.45594000000E+02  0.51100000000E-03 0.  1.
    9900012    2    1    2    0    0 -0.31123981762E+02  0.96733200813E+00  0.68616303501E+01  0.59301953789E+02  0.50000017802E+02 0.  0.
        -12    1    1    2    0    0  0.31123981762E+02 -0.96733200813E+00 -0.68616303501E+01  0.31886046211E+02  0.00000000000E+00 0.  1.
         11    1    3    3    0    0 -0.11549310749E+02  0.16414311480E+02  0.85078434789E+01  0.21799073399E+02  0.51100000000E-03 0. -1.
        -11    1    3    3    0    0 -0.26669166133E+02 -0.10024543734E+02 -0.45727720113E+00  0.28494648655E+02  0.51100000000E-03 0.  1.
        -12    1    3    3    0    0  0.70944951200E+01 -0.54224357376E+01 -0.11889359277E+01  0.90082317341E+01  0.00000000000E+00 0.  1.
</event>
<event>
 7    1  0.6515090E-012  0.5930194E+02  0.7816164E-02  0.1266605E+00
        -11   -1    0    0    0    0  0.00000000000E+00  0.00000000000E+00  0.45593999997E+02  0.45594000000E+02  0.51100000000E-03 0.  1.
         11   -1    0    0    0    0 -0.00000000000E+00 -0.00000000000E+00 -0.45593999997E+02  0.45594000000E+02  0.51100000000E-03 0. -1.
    9900012    2    1    2    0    0  0.24421827351E+02  0.11460532527E+02 -0.16998574089E+02  0.59301937558E+02  0.49999988202E+02 0.  0.
        -12    1    1    2    0    0 -0.24421827351E+02 -0.11460532527E+02  0.16998574089E+02  0.31886062442E+02  0.00000000000E+00 0.  1.
         11    1    3    3    0    0 -0.64706233247E+00 -0.92860663646E+01 -0.13629448003E+02  0.16504895375E+02  0.51100000000E-03 0. -1.
        -11    1    3    3    0    0 -0.39588237862E+01 -0.29037201131E+01 -0.20808039996E+01  0.53323186149E+01  0.51100000000E-03 0.  1.
         12    1    3    3    0    0  0.29027713470E+02  0.23650319004E+02 -0.12883220862E+01  0.37464723569E+02  0.00000000000E+00 0. -1.
</event>
<event>
 7    1  0.6515090E-012  0.5930190E+02  0.7816164E-02  0.1266605E+00
        -11   -1    0    0    0    0  0.00000000000E+00  0.00000000000E+00  0.45593999997E+02  0.45594000000E+02  0.51100000000E-03 0. -1.
         11   -1    0    0    0    0 -0.00000000000E+00 -0.00000000000E+00 -0.45593999997E+02  0.45594000000E+02  0.51100000000E-03 0.  1.
    9900012    2    1    2    0    0 -0.16828128860E+02  0.23347263177E+02  0.13727451236E+02  0.59301897444E+02  0.49999915042E+02 0.  0.
        -12    1    1    2    0    0  0.16828128860E+02 -0.23347263177E+02 -0.13727451236E+02  0.31886102556E+02  0.00000000000E+00 0.  1.
         11    1    3    3    0    0  0.92270072002E+01 -0.83347586903E+00 -0.37027280449E+01  0.99771007378E+01  0.51100000000E-03 0. -1.
        -11    1    3    3    0    0  0.24411605048E+01 -0.45473901167E+00 -0.49294511895E+01  0.55195598982E+01  0.51100000000E-03 0.  1.
         12    1    3    3    0    0 -0.28496296565E+02  0.24635478058E+02  0.22359630470E+02  0.43805236808E+02  0.00000000000E+00 0. -1.
</event>
<event>
 7    1  0.6515090E-012  0.5930195E+02  0.7816164E-02  0.1266605E+00
        -11   -1    0    0    0    0  0.00000000000E+00  0.00000000000E+00  0.45593999997E+02  0.45594000000E+02  0.51100000000E-03 0. -1.
         11   -1    0    0    0    0 -0.00000000000E+00 -0.00000000000E+00 -0.45593999997E+02  0.45594000000E+02  0.51100000000E-03 0.  1.
    9900012    2    1    2    0    0  0.25223714048E+02  0.19448714294E+02 -0.14939656251E+01  0.59301950208E+02  0.50000011271E+02 0.  0.
        -12    1    1    2    0    0 -0.25223714048E+02 -0.19448714294E+02  0.14939656251E+01  0.31886049792E+02  0.00000000000E+00 0.  1.
         11    1    3    3    0    0  0.80215563581E+01 -0.98332727064E+01  0.97804221550E+01  0.16021712652E+02  0.51100000000E-03 0.  1.
        -11    1    3    3    0    0  0.17932072223E+02  0.11849481661E+02  0.16652935916E+01  0.21557890269E+02  0.51100000000E-03 0. -1.
        -12    1    3    3    0    0 -0.72991453355E+00  0.17432505339E+02 -0.12939681372E+02  0.21722347286E+02  0.00000000000E+00 0.  1.
</event>
<event>
 7    1  0.6515090E-012  0.5930190E+02  0.7816164E-02  0.1266605E+00
        -11   -1    0    0    0    0  0.00000000000E+00  0.00000000000E+00  0.45593999997E+02  0.45594000000E+02  0.51100000000E-03 0.  1.
         11   -1    0    0    0    0 -0.00000000000E+00 -0.00000000000E+00 -0.45593999997E+02  0.45594000000E+02  0.51100000000E-03 0. -1.
    9900012    2    1    2    0    0 -0.17830992014E+02 -0.35262742147E+01 -0.26198175193E+02  0.59301901627E+02  0.49999922671E+02 0.  0.
        -12    1    1    2    0    0  0.17830992014E+02  0.35262742147E+01  0.26198175193E+02  0.31886098373E+02  0.00000000000E+00 0.  1.
         11    1    3    3    0    0 -0.37612006453E+01 -0.11184468585E+02  0.68559611012E+01  0.13647093856E+02  0.51100000000E-03 0. -1.
        -11    1    3    3    0    0  0.36352804979E+01 -0.56777829015E+01 -0.12004126851E+01  0.68478809752E+01  0.51100000000E-03 0.  1.
         12    1    3    3    0    0 -0.17705071866E+02  0.13335977272E+02 -0.31853723609E+02  0.38806926796E+02  0.00000000000E+00 0. -1.
</event>
<event>
 7    1  0.6515090E-012  0.5930194E+02  0.7816164E-02  0.1266605E+00
        -11   -1    0    0    0    0  0.00000000000E+00  0.00000000000E+00  0.45593999997E+02  0.45594000000E+02  0.51100000000E-03 0.  1.
         11   -1    0    0    0    0 -0.00000000000E+00 -0.00000000000E+00 -0.45593999997E+02  0.45594000000E+02  0.51100000000E-03 0. -1.
    9900012    2    1    2    0    0 -0.21076978709E+02 -0.20741153414E+02 -0.11928375742E+02  0.59301943105E+02  0.49999998318E+02 0.  0.
        -12    1    1    2    0    0  0.21076978709E+02  0.20741153414E+02  0.11928375742E+02  0.31886056895E+02  0.00000000000E+00 0.  1.
         11    1    3    3    0    0 -0.14909235763E+02  0.69403044821E+01 -0.38915859914E+01  0.16899632515E+02  0.51100000000E-03 0. -1.
        -11    1    3    3    0    0  0.91056284908E+01 -0.64844197364E+01  0.60599528756E+01  0.12715470839E+02  0.51100000000E-03 0.  1.
        -12    1    3    3    0    0 -0.15273371437E+02 -0.21197038159E+02 -0.14096742626E+02  0.29686839752E+02  0.00000000000E+00 0.  1.
</event>
<event>
 7    1  0.6515090E-012  0.5930194E+02  0.7816164E-02  0.1266605E+00
        -11   -1    0    0    0    0  0.00000000000E+00  0.00000000000E+00  0.45593999997E+02  0.45594000000E+02  0.51100000000E-03 0. -1.
         11   -1    0    0    0    0 -0.00000000000E+00 -0.00000000000E+00 -0.45593999997E+02  0.45594000000E+02  0.51100000000E-03 0.  1.
    9900012    2    1    2    0    0 -0.23298270816E+02 -0.46886561774E+01  0.21258592245E+02  0.59301942483E+02  0.49999997183E+02 0.  0.
        -12    1    1    2    0    0  0.23298270816E+02  0.46886561774E+01 -0.21258592245E+02  0.31886057517E+02  0.00000000000E+00 0.  1.
         11    1    3    3    0    0 -0.23840646099E+02 -0.70061520543E+01  0.23014549926E+02  0.33869338369E+02  0.51100000000E-03 0. -1.
        -11    1    3    3    0    0 -0.71714022162E+01  0.11226549695E+02  0.90210478395E+00  0.13352086769E+02  0.51100000000E-03 0.  1.
         12    1    3    3    0    0  0.77137774994E+01 -0.89090538177E+01 -0.26580624652E+01  0.12080517344E+02  0.00000000000E+00 0. -1.
</event>
<event>
 7    1  0.6515090E-012  0.5930194E+02  0.7816164E-02  0.1266605E+00
        -11   -1    0    0    0    0  0.00000000000E+00  0.00000000000E+00  0.45593999997E+02  0.45594000000E+02  0.51100000000E-03 0.  1.
         11   -1    0    0    0    0 -0.00000000000E+00 -0.00000000000E+00 -0.45593999997E+02  0.45594000000E+02  0.51100000000E-03 0. -1.
    9900012    2    1    2    0    0 -0.19187993360E+02 -0.14281918616E+02  0.21084799348E+02  0.59301936397E+02  0.49999986083E+02 0.  0.
        -12    1    1    2    0    0  0.19187993360E+02  0.14281918616E+02 -0.21084799348E+02  0.31886063603E+02  0.00000000000E+00 0.  1.
         11    1    3    3    0    0 -0.43757015521E+01 -0.94336219283E+01 -0.27708514930E+01  0.10761858809E+02  0.51100000000E-03 0. -1.
        -11    1    3    3    0    0 -0.14124447647E+02 -0.10713154220E+02 -0.55274805494E+01  0.18569457078E+02  0.51100000000E-03 0.  1.
        -12    1    3    3    0    0 -0.68784416115E+00  0.58648575327E+01  0.29383131391E+02  0.29970620511E+02  0.00000000000E+00 0.  1.
</event>
<event>
 7    1  0.6515090E-012  0.5930193E+02  0.7816164E-02  0.1266605E+00
        -11   -1    0    0    0    0  0.00000000000E+00  0.00000000000E+00  0.45593999997E+02  0.45594000000E+02  0.51100000000E-03 0. -1.
         11   -1    0    0    0    0 -0.00000000000E+00 -0.00000000000E+00 -0.45593999997E+02  0.45594000000E+02  0.51100000000E-03 0.  1.
    9900012    2    1    2    0    0 -0.19928970151E+01 -0.11038536914E+02  0.29847954784E+02  0.59301931874E+02  0.49999977835E+02 0.  0.
        -12    1    1    2    0    0  0.19928970151E+01  0.11038536914E+02 -0.29847954784E+02  0.31886068126E+02  0.00000000000E+00 0.  1.
         11    1    3    3    0    0  0.95257982255E+01 -0.17652286283E+02 -0.20212057528E+00  0.20059533790E+02  0.51100000000E-03 0. -1.
        -11    1    3    3    0    0 -0.10467625593E+02 -0.50993283509E+01  0.76172602489E+01  0.13913913509E+02  0.51100000000E-03 0.  1.
        -12    1    3    3    0    0 -0.10510696476E+01  0.11713077720E+02  0.22432815111E+02  0.25328484575E+02  0.00000000000E+00 0.  1.
</event>
<event>
 7    1  0.6515090E-012  0.5930189E+02  0.7816164E-02  0.1266605E+00
        -11   -1    0    0    0    0  0.00000000000E+00  0.00000000000E+00  0.45593999997E+02  0.45594000000E+02  0.51100000000E-03 0.  1.
         11   -1    0    0    0    0 -0.00000000000E+00 -0.00000000000E+00 -0.45593999997E+02  0.45594000000E+02  0.51100000000E-03 0. -1.
    9900012    2    1    2    0    0 -0.60773593925E+01 -0.26210348820E+02 -0.17111607148E+02  0.59301893596E+02  0.49999908024E+02 0.  0.
        -12    1    1    2    0    0  0.60773593925E+01  0.26210348820E+02  0.17111607148E+02  0.31886106404E+02  0.00000000000E+00 0.  1.
         11    1    3    3    0    0 -0.14047274178E+01  0.59451745288E+01  0.11458076544E+02  0.12984832600E+02  0.51100000000E-03 0. -1.
        -11    1    3    3    0    0 -0.52326658086E+01 -0.30668833461E+01 -0.83645134745E+00  0.61225987979E+01  0.51100000000E-03 0.  1.
         12    1    3    3    0    0  0.56003383387E+00 -0.29088640003E+02 -0.27733232345E+02  0.40194462198E+02  0.00000000000E+00 0. -1.
</event>
<event>
 7    1  0.6515090E-012  0.5930192E+02  0.7816164E-02  0.1266605E+00
        -11   -1    0    0    0    0  0.00000000000E+00  0.00000000000E+00  0.45593999997E+02  0.45594000000E+02  0.51100000000E-03 0.  1.
         11   -1    0    0    0    0 -0.00000000000E+00 -0.00000000000E+00 -0.45593999997E+02  0.45594000000E+02  0.51100000000E-03 0. -1.
    9900012    2    1    2    0    0  0.19637487899E+02  0.17547321668E+02 -0.17977280866E+02  0.59301920654E+02  0.49999957372E+02 0.  0.
        -12    1    1    2    0    0 -0.19637487899E+02 -0.17547321668E+02  0.17977280866E+02  0.31886079346E+02  0.00000000000E+00 0.  1.
         11    1    3    3    0    0  0.55515432550E+01  0.17922118329E+01 -0.10646259748E+01  0.59300155560E+01  0.51100000000E-03 0. -1.
        -11    1    3    3    0    0  0.86243296999E+01  0.31996714554E+02 -0.81502891367E+01  0.34126177903E+02  0.51100000000E-03 0.  1.
         12    1    3    3    0    0  0.54616149442E+01 -0.16241604719E+02 -0.87623657545E+01  0.19245727195E+02  0.00000000000E+00 0. -1.
</event>
<event>
 7    1  0.6515090E-012  0.5930194E+02  0.7816164E-02  0.1266605E+00
        -11   -1    0    0    0    0  0.00000000000E+00  0.00000000000E+00  0.45593999997E+02  0.45594000000E+02  0.51100000000E-03 0.  1.
         11   -1    0    0    0    0 -0.00000000000E+00 -0.00000000000E+00 -0.45593999997E+02  0.45594000000E+02  0.51100000000E-03 0. -1.
    9900012    2    1    2    0    0 -0.17355937319E+02 -0.16554406152E+02 -0.21010567168E+02  0.59301939472E+02  0.49999991691E+02 0.  0.
        -12    1    1    2    0    0  0.17355937319E+02  0.16554406152E+02  0.21010567168E+02  0.31886060528E+02  0.00000000000E+00 0.  1.
         11    1    3    3    0    0 -0.16257579006E+02 -0.50846854635E+01 -0.18266452172E+02  0.24976512499E+02  0.51100000000E-03 0. -1.
        -11    1    3    3    0    0 -0.15530349225E+02 -0.26647693545E+00  0.13860311302E+01  0.15594352810E+02  0.51100000000E-03 0.  1.
        -12    1    3    3    0    0  0.14431990912E+02 -0.11203243753E+02 -0.41301461265E+01  0.18731074163E+02  0.00000000000E+00 0.  1.
</event>
<event>
 7    1  0.6515090E-012  0.5930182E+02  0.7816164E-02  0.1266605E+00
        -11   -1    0    0    0    0  0.00000000000E+00  0.00000000000E+00  0.45593999997E+02  0.45594000000E+02  0.51100000000E-03 0.  1.
         11   -1    0    0    0    0 -0.00000000000E+00 -0.00000000000E+00 -0.45593999997E+02  0.45594000000E+02  0.51100000000E-03 0. -1.
    9900012    2    1    2    0    0  0.19435114666E+02  0.11138387658E+02 -0.22692311047E+02  0.59301822080E+02  0.49999777597E+02 0.  0.
        -12    1    1    2    0    0 -0.19435114666E+02 -0.11138387658E+02  0.22692311047E+02  0.31886177920E+02  0.00000000000E+00 0.  1.
         11    1    3    3    0    0  0.17033167295E+02  0.24443041791E+00 -0.14890625248E+02  0.22625632696E+02  0.51100000000E-03 0. -1.
        -11    1    3    3    0    0  0.78252129921E+01 -0.84089046959E+01  0.53767481895E+01  0.12682785889E+02  0.51100000000E-03 0.  1.
         12    1    3    3    0    0 -0.54232656215E+01  0.19302861936E+02 -0.13178433988E+02  0.23993403495E+02  0.00000000000E+00 0. -1.
</event>
<event>
 7    1  0.6515090E-012  0.5930195E+02  0.7816164E-02  0.1266605E+00
        -11   -1    0    0    0    0  0.00000000000E+00  0.00000000000E+00  0.45593999997E+02  0.45594000000E+02  0.51100000000E-03 0.  1.
         11   -1    0    0    0    0 -0.00000000000E+00 -0.00000000000E+00 -0.45593999997E+02  0.45594000000E+02  0.51100000000E-03 0. -1.
    9900012    2    1    2    0    0 -0.50364925209E+01  0.25227280854E+02  0.18839810310E+02  0.59301946486E+02  0.50000004483E+02 0.  0.
        -12    1    1    2    0    0  0.50364925209E+01 -0.25227280854E+02 -0.18839810310E+02  0.31886053514E+02  0.00000000000E+00 0.  1.
         11    1    3    3    0    0 -0.16256747360E+01 -0.68745935810E+01  0.10724564517E+02  0.12842084706E+02  0.51100000000E-03 0. -1.
        -11    1    3    3    0    0  0.20971997044E+01  0.12466155042E+01  0.14304944042E+02  0.14511503062E+02  0.51100000000E-03 0.  1.
         12    1    3    3    0    0 -0.55080174894E+01  0.30855258931E+02 -0.61896982488E+01  0.31948358718E+02  0.00000000000E+00 0. -1.
</event>
<event>
 7    1  0.6515090E-012  0.5930193E+02  0.7816164E-02  0.1266605E+00
        -11   -1    0    0    0    0  0.00000000000E+00  0.00000000000E+00  0.45593999997E+02  0.45594000000E+02  0.51100000000E-03 0.  1.
         11   -1    0    0    0    0 -0.00000000000E+00 -0.00000000000E+00 -0.45593999997E+02  0.45594000000E+02  0.51100000000E-03 0. -1.
    9900012    2    1    2    0    0  0.11847915430E+02  0.25729243853E+02 -0.14640846457E+02  0.59301929777E+02  0.49999974010E+02 0.  0.
        -12    1    1    2    0    0 -0.11847915430E+02 -0.25729243853E+02  0.14640846457E+02  0.31886070223E+02  0.00000000000E+00 0.  1.
         11    1    3    3    0    0  0.81267837045E+01 -0.10056168098E+02  0.23677873965E+01  0.13144487347E+02  0.51100000000E-03 0. -1.
        -11    1    3    3    0    0 -0.46742606426E+00 -0.34163630447E+01 -0.86281342232E+00  0.35545000833E+01  0.51100000000E-03 0.  1.
         12    1    3    3    0    0  0.41885577893E+01  0.39201774996E+02 -0.16145820431E+02  0.42602942347E+02  0.00000000000E+00 0. -1.
</event>
<event>
 7    1  0.6515090E-012  0.5930200E+02  0.7816164E-02  0.1266605E+00
        -11   -1    0    0    0    0  0.00000000000E+00  0.00000000000E+00  0.45593999997E+02  0.45594000000E+02  0.51100000000E-03 0.  1.
         11   -1    0    0    0    0 -0.00000000000E+00 -0.00000000000E+00 -0.45593999997E+02  0.45594000000E+02  0.51100000000E-03 0. -1.
    9900012    2    1    2    0    0 -0.24389578389E+02 -0.91284104214E+01 -0.18399385037E+02  0.59302003379E+02  0.50000108242E+02 0.  0.
        -12    1    1    2    0    0  0.24389578389E+02  0.91284104214E+01  0.18399385037E+02  0.31885996621E+02  0.00000000000E+00 0.  1.
         11    1    3    3    0    0 -0.32655409508E+02 -0.66551217824E+01 -0.15856557703E+02  0.36906596138E+02  0.51100000000E-03 0. -1.
        -11    1    3    3    0    0 -0.27773884865E+01  0.42908796557E+01  0.52127098070E+01  0.73005396251E+01  0.51100000000E-03 0.  1.
        -12    1    3    3    0    0  0.11043219606E+02 -0.67641682947E+01 -0.77555371411E+01  0.15094867615E+02  0.00000000000E+00 0.  1.
</event>
<event>
 7    1  0.6515090E-012  0.5930195E+02  0.7816164E-02  0.1266605E+00
        -11   -1    0    0    0    0  0.00000000000E+00  0.00000000000E+00  0.45593999997E+02  0.45594000000E+02  0.51100000000E-03 0. -1.
         11   -1    0    0    0    0 -0.00000000000E+00 -0.00000000000E+00 -0.45593999997E+02  0.45594000000E+02  0.51100000000E-03 0.  1.
    9900012    2    1    2    0    0  0.25152953957E+02  0.55450622951E+01  0.18796307649E+02  0.59301953054E+02  0.50000016461E+02 0.  0.
        -12    1    1    2    0    0 -0.25152953957E+02 -0.55450622951E+01 -0.18796307649E+02  0.31886046946E+02  0.00000000000E+00 0.  1.
         11    1    3    3    0    0  0.10142407016E+02  0.18618011881E+02  0.64211566352E+01  0.22152427390E+02  0.51100000000E-03 0. -1.
        -11    1    3    3    0    0  0.92779334293E+01  0.84316096467E+01  0.24169927790E+01  0.12767691424E+02  0.51100000000E-03 0.  1.
        -12    1    3    3    0    0  0.57326135118E+01 -0.21504559232E+02  0.99581582346E+01  0.24381834239E+02  0.00000000000E+00 0.  1.
</event>
<event>
 7    1  0.6515090E-012  0.5930191E+02  0.7816164E-02  0.1266605E+00
        -11   -1    0    0    0    0  0.00000000000E+00  0.00000000000E+00  0.45593999997E+02  0.45594000000E+02  0.51100000000E-03 0. -1.
         11   -1    0    0    0    0 -0.00000000000E+00 -0.00000000000E+00 -0.45593999997E+02  0.45594000000E+02  0.51100000000E-03 0.  1.
    9900012    2    1    2    0    0  0.14283411517E+02 -0.21125367663E+02 -0.19142245869E+02  0.59301912433E+02  0.49999942379E+02 0.  0.
        -12    1    1    2    0    0 -0.14283411517E+02  0.21125367663E+02  0.19142245869E+02  0.31886087567E+02  0.00000000000E+00 0.  1.
         11    1    3    3    0    0  0.14317718083E+02 -0.24359519530E+02 -0.15241728977E+02  0.32104416290E+02  0.51100000000E-03 0. -1.
        -11    1    3    3    0    0  0.12846669545E+02  0.40613058150E-01  0.13672273075E+01  0.12919283207E+02  0.51100000000E-03 0.  1.
        -12    1    3    3    0    0 -0.12880976111E+02  0.31935388094E+01 -0.52677441995E+01  0.14278212936E+02  0.00000000000E+00 0.  1.
</event>
<event>
 7    1  0.6515090E-012  0.5930194E+02  0.7816164E-02  0.1266605E+00
        -11   -1    0    0    0    0  0.00000000000E+00  0.00000000000E+00  0.45593999997E+02  0.45594000000E+02  0.51100000000E-03 0.  1.
         11   -1    0    0    0    0 -0.00000000000E+00 -0.00000000000E+00 -0.45593999997E+02  0.45594000000E+02  0.51100000000E-03 0. -1.
    9900012    2    1    2    0    0  0.16122781874E+02 -0.19129846543E+02 -0.19769312804E+02  0.59301939521E+02  0.49999991781E+02 0.  0.
        -12    1    1    2    0    0 -0.16122781874E+02  0.19129846543E+02  0.19769312804E+02  0.31886060479E+02  0.00000000000E+00 0.  1.
         11    1    3    3    0    0 -0.21919677646E+01 -0.13743717705E+02  0.10482779375E+02  0.17423638045E+02  0.51100000000E-03 0. -1.
        -11    1    3    3    0    0  0.40353910019E+01 -0.42043843586E+01  0.23368035337E+01  0.62786845270E+01  0.51100000000E-03 0.  1.
        -12    1    3    3    0    0  0.14279358637E+02 -0.11817444796E+01 -0.32588895713E+02  0.35599616949E+02  0.00000000000E+00 0.  1.
</event>
<event>
 7    1  0.6515090E-012  0.5930194E+02  0.7816164E-02  0.1266605E+00
        -11   -1    0    0    0    0  0.00000000000E+00  0.00000000000E+00  0.45593999997E+02  0.45594000000E+02  0.51100000000E-03 0.  1.
         11   -1    0    0    0    0 -0.00000000000E+00 -0.00000000000E+00 -0.45593999997E+02  0.45594000000E+02  0.51100000000E-03 0. -1.
    9900012    2    1    2    0    0 -0.10070982935E+02  0.25736258929E+02 -0.15904130021E+02  0.59301936074E+02  0.49999985495E+02 0.  0.
        -12    1    1    2    0    0  0.10070982935E+02 -0.25736258929E+02  0.15904130021E+02  0.31886063926E+02  0.00000000000E+00 0.  1.
         11    1    3    3    0    0 -0.20473553383E+02  0.31483286669E+02 -0.52952144485E+01  0.37926284077E+02  0.51100000000E-03 0. -1.
        -11    1    3    3    0    0 -0.83962197712E+00  0.15878757955E+01  0.21872863602E+01  0.28302891176E+01  0.51100000000E-03 0.  1.
         12    1    3    3    0    0  0.11242192426E+02 -0.73349035351E+01 -0.12796201933E+02  0.18545362879E+02  0.00000000000E+00 0. -1.
</event>
<event>
 7    1  0.6515090E-012  0.5930195E+02  0.7816164E-02  0.1266605E+00
        -11   -1    0    0    0    0  0.00000000000E+00  0.00000000000E+00  0.45593999997E+02  0.45594000000E+02  0.51100000000E-03 0.  1.
         11   -1    0    0    0    0 -0.00000000000E+00 -0.00000000000E+00 -0.45593999997E+02  0.45594000000E+02  0.51100000000E-03 0. -1.
    9900012    2    1    2    0    0 -0.22179666072E+02  0.13685317094E+02 -0.18371036167E+02  0.59301945668E+02  0.50000002991E+02 0.  0.
        -12    1    1    2    0    0  0.22179666072E+02 -0.13685317094E+02  0.18371036167E+02  0.31886054332E+02  0.00000000000E+00 0.  1.
         11    1    3    3    0    0 -0.14284328904E+01  0.26094163120E+02 -0.14529500624E+01  0.26173590384E+02  0.51100000000E-03 0.  1.
        -11    1    3    3    0    0 -0.38406991266E+01 -0.18781682452E+01 -0.11813574358E+02  0.12563400221E+02  0.51100000000E-03 0. -1.
        -12    1    3    3    0    0 -0.16910534056E+02 -0.10530677781E+02 -0.51045117467E+01  0.20564955063E+02  0.00000000000E+00 0.  1.
</event>
<event>
 7    1  0.6515090E-012  0.5930194E+02  0.7816164E-02  0.1266605E+00
        -11   -1    0    0    0    0  0.00000000000E+00  0.00000000000E+00  0.45593999997E+02  0.45594000000E+02  0.51100000000E-03 0. -1.
         11   -1    0    0    0    0 -0.00000000000E+00 -0.00000000000E+00 -0.45593999997E+02  0.45594000000E+02  0.51100000000E-03 0.  1.
    9900012    2    1    2    0    0  0.22586918722E+02  0.21613423618E+02 -0.62778761056E+01  0.59301941820E+02  0.49999995974E+02 0.  0.
        -12    1    1    2    0    0 -0.22586918722E+02 -0.21613423618E+02  0.62778761056E+01  0.31886058180E+02  0.00000000000E+00 0.  1.
         11    1    3    3    0    0  0.68524185673E+00  0.10872680938E+02 -0.98920523499E+01  0.14715211420E+02  0.51100000000E-03 0. -1.
        -11    1    3    3    0    0 -0.46460633550E+01  0.61853398078E+01 -0.11378800089E+02  0.13759412232E+02  0.51100000000E-03 0.  1.
         12    1    3    3    0    0  0.26547740220E+02  0.45554028718E+01  0.14992976333E+02  0.30827318168E+02  0.00000000000E+00 0. -1.
</event>
<event>
 7    1  0.6515090E-012  0.5930161E+02  0.7816164E-02  0.1266606E+00
        -11   -1    0    0    0    0  0.00000000000E+00  0.00000000000E+00  0.45593999997E+02  0.45594000000E+02  0.51100000000E-03 0.  1.
         11   -1    0    0    0    0 -0.00000000000E+00 -0.00000000000E+00 -0.45593999997E+02  0.45594000000E+02  0.51100000000E-03 0. -1.
    9900012    2    1    2    0    0  0.29531249491E+02  0.10022999453E+02 -0.66472931467E+01  0.59301612298E+02  0.49999395001E+02 0.  0.
        -12    1    1    2    0    0 -0.29531249491E+02 -0.10022999453E+02  0.66472931467E+01  0.31886387702E+02  0.00000000000E+00 0.  1.
         11    1    3    3    0    0  0.32280593564E+01 -0.53949553813E+01 -0.41412518344E+01  0.75283383154E+01  0.51100000000E-03 0.  1.
        -11    1    3    3    0    0  0.23297445792E+02  0.16032181923E+02 -0.19598362310E+02  0.34407813693E+02  0.51100000000E-03 0. -1.
         12    1    3    3    0    0  0.30057443425E+01 -0.61422708898E+00  0.17092320998E+02  0.17365460290E+02  0.00000000000E+00 0. -1.
</event>
<event>
 7    1  0.6515090E-012  0.5930194E+02  0.7816164E-02  0.1266605E+00
        -11   -1    0    0    0    0  0.00000000000E+00  0.00000000000E+00  0.45593999997E+02  0.45594000000E+02  0.51100000000E-03 0.  1.
         11   -1    0    0    0    0 -0.00000000000E+00 -0.00000000000E+00 -0.45593999997E+02  0.45594000000E+02  0.51100000000E-03 0. -1.
    9900012    2    1    2    0    0  0.90281227234E+01 -0.21283876083E+02 -0.21959286062E+02  0.59301943088E+02  0.49999998287E+02 0.  0.
        -12    1    1    2    0    0 -0.90281227234E+01  0.21283876083E+02  0.21959286062E+02  0.31886056912E+02  0.00000000000E+00 0.  1.
         11    1    3    3    0    0 -0.91514367613E+01  0.37890718571E+01 -0.28996870338E+01  0.10320564204E+02  0.51100000000E-03 0. -1.
        -11    1    3    3    0    0  0.10780112693E+02  0.60333833730E+00 -0.19462898993E+02  0.22257117609E+02  0.51100000000E-03 0.  1.
         12    1    3    3    0    0  0.73994467921E+01 -0.25676286278E+02  0.40329996445E+00  0.26724261275E+02  0.00000000000E+00 0. -1.
</event>
<event>
 7    1  0.6515090E-012  0.5930195E+02  0.7816164E-02  0.1266605E+00
        -11   -1    0    0    0    0  0.00000000000E+00  0.00000000000E+00  0.45593999997E+02  0.45594000000E+02  0.51100000000E-03 0.  1.
         11   -1    0    0    0    0 -0.00000000000E+00 -0.00000000000E+00 -0.45593999997E+02  0.45594000000E+02  0.51100000000E-03 0. -1.
    9900012    2    1    2    0    0  0.20909070233E+02 -0.23845349915E+02 -0.33060832518E+01  0.59301951060E+02  0.50000012825E+02 0.  0.
        -12    1    1    2    0    0 -0.20909070233E+02  0.23845349915E+02  0.33060832518E+01  0.31886048940E+02  0.00000000000E+00 0.  1.
         11    1    3    3    0    0  0.25301903895E+02 -0.13927879129E+02  0.63876622319E+01  0.29579965970E+02  0.51100000000E-03 0. -1.
        -11    1    3    3    0    0  0.41234037323E+01  0.75678457674E+01 -0.23522453529E+01  0.89335214983E+01  0.51100000000E-03 0.  1.
        -12    1    3    3    0    0 -0.85162373943E+01 -0.17485316553E+02 -0.73415001308E+01  0.20788463591E+02  0.00000000000E+00 0.  1.
</event>
<event>
 7    1  0.6515090E-012  0.5930194E+02  0.7816164E-02  0.1266605E+00
        -11   -1    0    0    0    0  0.00000000000E+00  0.00000000000E+00  0.45593999997E+02  0.45594000000E+02  0.51100000000E-03 0.  1.
         11   -1    0    0    0    0 -0.00000000000E+00 -0.00000000000E+00 -0.45593999997E+02  0.45594000000E+02  0.51100000000E-03 0. -1.
    9900012    2    1    2    0    0  0.39644725230E+00  0.21083165698E+02 -0.23917851224E+02  0.59301942648E+02  0.49999997483E+02 0.  0.
        -12    1    1    2    0    0 -0.39644725230E+00 -0.21083165698E+02  0.23917851224E+02  0.31886057352E+02  0.00000000000E+00 0.  1.
         11    1    3    3    0    0 -0.53758738272E+01 -0.95913974322E+01 -0.16370186775E+02  0.19719988322E+02  0.51100000000E-03 0. -1.
        -11    1    3    3    0    0 -0.50982494670E+01  0.12082831834E+02  0.56973814268E+01  0.14298500905E+02  0.51100000000E-03 0.  1.
        -12    1    3    3    0    0  0.10870570547E+02  0.18591731296E+02 -0.13245045876E+02  0.25283453420E+02  0.00000000000E+00 0.  1.
</event>
<event>
 7    1  0.6515090E-012  0.5930190E+02  0.7816164E-02  0.1266605E+00
        -11   -1    0    0    0    0  0.00000000000E+00  0.00000000000E+00  0.45593999997E+02  0.45594000000E+02  0.51100000000E-03 0. -1.
         11   -1    0    0    0    0 -0.00000000000E+00 -0.00000000000E+00 -0.45593999997E+02  0.45594000000E+02  0.51100000000E-03 0.  1.
    9900012    2    1    2    0    0  0.31430936418E+00 -0.41686564957E+01  0.31610865736E+02  0.59301900836E+02  0.49999921228E+02 0.  0.
        -12    1    1    2    0    0 -0.31430936418E+00  0.41686564957E+01 -0.31610865736E+02  0.31886099164E+02  0.00000000000E+00 0.  1.
         11    1    3    3    0    0 -0.21185583595E+01 -0.84613267009E+01  0.23451554591E+01  0.90322806340E+01  0.51100000000E-03 0. -1.
        -11    1    3    3    0    0 -0.34694814966E+01  0.16079526034E+02 -0.17757561828E+01  0.16545143384E+02  0.51100000000E-03 0.  1.
         12    1    3    3    0    0  0.59023492202E+01 -0.11786855829E+02  0.31041466459E+02  0.33724476817E+02  0.00000000000E+00 0. -1.
</event>
<event>
 7    1  0.6515090E-012  0.5930194E+02  0.7816164E-02  0.1266605E+00
        -11   -1    0    0    0    0  0.00000000000E+00  0.00000000000E+00  0.45593999997E+02  0.45594000000E+02  0.51100000000E-03 0.  1.
         11   -1    0    0    0    0 -0.00000000000E+00 -0.00000000000E+00 -0.45593999997E+02  0.45594000000E+02  0.51100000000E-03 0. -1.
    9900012    2    1    2    0    0 -0.24450263325E+01 -0.23719836854E+02 -0.21168653975E+02  0.59301941521E+02  0.49999995429E+02 0.  0.
        -12    1    1    2    0    0  0.24450263325E+01  0.23719836854E+02  0.21168653975E+02  0.31886058479E+02  0.00000000000E+00 0.  1.
         11    1    3    3    0    0  0.58954701277E+00 -0.12931383768E+02 -0.77403076121E+01  0.15082460477E+02  0.51100000000E-03 0. -1.
        -11    1    3    3    0    0  0.53614402646E+01 -0.24491555376E+02 -0.34623882736E+01  0.25309473706E+02  0.51100000000E-03 0.  1.
         12    1    3    3    0    0 -0.83960136099E+01  0.13703102290E+02 -0.99659580897E+01  0.18910007339E+02  0.00000000000E+00 0. -1.
</event>
<event>
 7    1  0.6515090E-012  0.5930185E+02  0.7816164E-02  0.1266605E+00
        -11   -1    0    0    0    0  0.00000000000E+00  0.00000000000E+00  0.45593999997E+02  0.45594000000E+02  0.51100000000E-03 0.  1.
         11   -1    0    0    0    0 -0.00000000000E+00 -0.00000000000E+00 -0.45593999997E+02  0.45594000000E+02  0.51100000000E-03 0. -1.
    9900012    2    1    2    0    0  0.25156872031E+02  0.17453105902E+02 -0.89021133242E+01  0.59301847243E+02  0.49999823488E+02 0.  0.
        -12    1    1    2    0    0 -0.25156872031E+02 -0.17453105902E+02  0.89021133242E+01  0.31886152757E+02  0.00000000000E+00 0.  1.
         11    1    3    3    0    0  0.15651263308E+02  0.12194811468E+00 -0.20047359731E+02  0.25433708871E+02  0.51100000000E-03 0. -1.
        -11    1    3    3    0    0  0.72750419923E+01  0.38840497359E+01 -0.72448076697E+01  0.10977218080E+02  0.51100000000E-03 0.  1.
        -12    1    3    3    0    0  0.22305667308E+01  0.13447108051E+02  0.18390054077E+02  0.22890920292E+02  0.00000000000E+00 0.  1.
</event>
<event>
 7    1  0.6515090E-012  0.5930194E+02  0.7816164E-02  0.1266605E+00
        -11   -1    0    0    0    0  0.00000000000E+00  0.00000000000E+00  0.45593999997E+02  0.45594000000E+02  0.51100000000E-03 0.  1.
         11   -1    0    0    0    0 -0.00000000000E+00 -0.00000000000E+00 -0.45593999997E+02  0.45594000000E+02  0.51100000000E-03 0. -1.
    9900012    2    1    2    0    0 -0.83825560435E+01  0.23020171927E+02 -0.20408950028E+02  0.59301940309E+02  0.49999993218E+02 0.  0.
        -12    1    1    2    0    0  0.83825560435E+01 -0.23020171927E+02  0.20408950028E+02  0.31886059691E+02  0.00000000000E+00 0.  1.
         11    1    3    3    0    0 -0.42874924813E+01 -0.24332961044E+01  0.15359593493E+01  0.51635930409E+01  0.51100000000E-03 0. -1.
        -11    1    3    3    0    0  0.16152029711E+02  0.22270923565E+02 -0.18993950652E+02  0.33431306613E+02  0.51100000000E-03 0.  1.
         12    1    3    3    0    0 -0.20247093273E+02  0.31825444661E+01 -0.29509587251E+01  0.20707040655E+02  0.00000000000E+00 0. -1.
</event>
<event>
 7    1  0.6515090E-012  0.5930198E+02  0.7816164E-02  0.1266605E+00
        -11   -1    0    0    0    0  0.00000000000E+00  0.00000000000E+00  0.45593999997E+02  0.45594000000E+02  0.51100000000E-03 0.  1.
         11   -1    0    0    0    0 -0.00000000000E+00 -0.00000000000E+00 -0.45593999997E+02  0.45594000000E+02  0.51100000000E-03 0. -1.
    9900012    2    1    2    0    0 -0.21768312168E+02 -0.13690966721E+02 -0.18852480180E+02  0.59301984362E+02  0.50000073559E+02 0.  0.
        -12    1    1    2    0    0  0.21768312168E+02  0.13690966721E+02  0.18852480180E+02  0.31886015638E+02  0.00000000000E+00 0.  1.
         11    1    3    3    0    0 -0.29774026351E+01  0.12368105613E+02 -0.10619608474E+02  0.16571392437E+02  0.51100000000E-03 0. -1.
        -11    1    3    3    0    0  0.44704346027E+01 -0.65765599867E+01 -0.94663719218E+01  0.12363176146E+02  0.51100000000E-03 0.  1.
         12    1    3    3    0    0 -0.23261344135E+02 -0.19482512346E+02  0.12335002157E+01  0.30367415779E+02  0.00000000000E+00 0. -1.
</event>
<event>
 7    1  0.6515090E-012  0.5930200E+02  0.7816164E-02  0.1266605E+00
        -11   -1    0    0    0    0  0.00000000000E+00  0.00000000000E+00  0.45593999997E+02  0.45594000000E+02  0.51100000000E-03 0.  1.
         11   -1    0    0    0    0 -0.00000000000E+00 -0.00000000000E+00 -0.45593999997E+02  0.45594000000E+02  0.51100000000E-03 0. -1.
    9900012    2    1    2    0    0 -0.12751592638E+02 -0.29213448880E+02  0.82956655895E+00  0.59302001648E+02  0.50000105085E+02 0.  0.
        -12    1    1    2    0    0  0.12751592638E+02  0.29213448880E+02 -0.82956655895E+00  0.31885998352E+02  0.00000000000E+00 0.  1.
         11    1    3    3    0    0 -0.14826044071E+02  0.58551054967E+01  0.12264610207E+02  0.20112546009E+02  0.51100000000E-03 0. -1.
        -11    1    3    3    0    0  0.90078464962E+00  0.84003893671E+00  0.50267855369E+00  0.13303249188E+01  0.51100000000E-03 0.  1.
         12    1    3    3    0    0  0.11736667839E+01 -0.35908593313E+02 -0.11937722202E+02  0.37859130719E+02  0.00000000000E+00 0. -1.
</event>
<event>
 7    1  0.6515090E-012  0.5930206E+02  0.7816164E-02  0.1266604E+00
        -11   -1    0    0    0    0  0.00000000000E+00  0.00000000000E+00  0.45593999997E+02  0.45594000000E+02  0.51100000000E-03 0.  1.
         11   -1    0    0    0    0 -0.00000000000E+00 -0.00000000000E+00 -0.45593999997E+02  0.45594000000E+02  0.51100000000E-03 0. -1.
    9900012    2    1    2    0    0  0.23413867824E+02 -0.68410931276E+01 -0.20535416936E+02  0.59302060930E+02  0.50000213202E+02 0.  0.
        -12    1    1    2    0    0 -0.23413867824E+02  0.68410931276E+01  0.20535416936E+02  0.31885939070E+02  0.00000000000E+00 0.  1.
         11    1    3    3    0    0 -0.24956912950E+01  0.13626687126E+02 -0.10268364980E+02  0.17243966965E+02  0.51100000000E-03 0. -1.
        -11    1    3    3    0    0  0.21569660004E+02 -0.20977879497E+02 -0.16599928364E+02  0.34363924148E+02  0.51100000000E-03 0.  1.
         12    1    3    3    0    0  0.43398991144E+01  0.51009924327E+00  0.63328764087E+01  0.76941698167E+01  0.00000000000E+00 0. -1.
</event>
<event>
 7    1  0.6515090E-012  0.5930195E+02  0.7816164E-02  0.1266605E+00
        -11   -1    0    0    0    0  0.00000000000E+00  0.00000000000E+00  0.45593999997E+02  0.45594000000E+02  0.51100000000E-03 0.  1.
         11   -1    0    0    0    0 -0.00000000000E+00 -0.00000000000E+00 -0.45593999997E+02  0.45594000000E+02  0.51100000000E-03 0. -1.
    9900012    2    1    2    0    0  0.14492455227E+02  0.12252167932E+02 -0.25623690903E+02  0.59301946418E+02  0.50000004359E+02 0.  0.
        -12    1    1    2    0    0 -0.14492455227E+02 -0.12252167932E+02  0.25623690903E+02  0.31886053582E+02  0.00000000000E+00 0.  1.
         11    1    3    3    0    0 -0.10239405960E+02 -0.34988146944E+01  0.64902009791E+01  0.12617838472E+02  0.51100000000E-03 0. -1.
        -11    1    3    3    0    0  0.46450061759E+01  0.11098596063E+01  0.13831755578E+01  0.49720263078E+01  0.51100000000E-03 0.  1.
         12    1    3    3    0    0  0.20086855012E+02  0.14641123020E+02 -0.33497067440E+02  0.41712081639E+02  0.00000000000E+00 0. -1.
</event>
<event>
 7    1  0.6515090E-012  0.5930193E+02  0.7816164E-02  0.1266605E+00
        -11   -1    0    0    0    0  0.00000000000E+00  0.00000000000E+00  0.45593999997E+02  0.45594000000E+02  0.51100000000E-03 0.  1.
         11   -1    0    0    0    0 -0.00000000000E+00 -0.00000000000E+00 -0.45593999997E+02  0.45594000000E+02  0.51100000000E-03 0. -1.
    9900012    2    1    2    0    0 -0.74282022969E+01  0.12344799214E+02 -0.28445545327E+02  0.59301932417E+02  0.49999978825E+02 0.  0.
        -12    1    1    2    0    0  0.74282022969E+01 -0.12344799214E+02  0.28445545327E+02  0.31886067583E+02  0.00000000000E+00 0.  1.
         11    1    3    3    0    0  0.75325929213E+00  0.16561509444E+02 -0.97350776955E+01  0.19225574963E+02  0.51100000000E-03 0. -1.
        -11    1    3    3    0    0  0.69655043482E+01  0.10335225808E+02 -0.82832728371E+00  0.12490847436E+02  0.51100000000E-03 0.  1.
        -12    1    3    3    0    0 -0.15146965937E+02 -0.14551936038E+02 -0.17882140347E+02  0.27585510018E+02  0.00000000000E+00 0.  1.
</event>
<event>
 7    1  0.6515090E-012  0.5930195E+02  0.7816164E-02  0.1266605E+00
        -11   -1    0    0    0    0  0.00000000000E+00  0.00000000000E+00  0.45593999997E+02  0.45594000000E+02  0.51100000000E-03 0.  1.
         11   -1    0    0    0    0 -0.00000000000E+00 -0.00000000000E+00 -0.45593999997E+02  0.45594000000E+02  0.51100000000E-03 0. -1.
    9900012    2    1    2    0    0  0.92995111426E+01 -0.94495020839E+01 -0.28999076557E+02  0.59301946022E+02  0.50000003638E+02 0.  0.
        -12    1    1    2    0    0 -0.92995111426E+01  0.94495020839E+01  0.28999076557E+02  0.31886053978E+02  0.00000000000E+00 0.  1.
         11    1    3    3    0    0  0.51510631588E+00  0.10085818100E+01  0.22494048314E+01  0.25184110349E+01  0.51100000000E-03 0. -1.
        -11    1    3    3    0    0 -0.34799861944E+01  0.11525612559E+02  0.46771710649E+01  0.12916113123E+02  0.51100000000E-03 0.  1.
         12    1    3    3    0    0  0.12264391021E+02 -0.21983696453E+02 -0.35925652453E+02  0.43867421864E+02  0.00000000000E+00 0. -1.
</event>
<event>
 7    1  0.6515090E-012  0.5930192E+02  0.7816164E-02  0.1266605E+00
        -11   -1    0    0    0    0  0.00000000000E+00  0.00000000000E+00  0.45593999997E+02  0.45594000000E+02  0.51100000000E-03 0.  1.
         11   -1    0    0    0    0 -0.00000000000E+00 -0.00000000000E+00 -0.45593999997E+02  0.45594000000E+02  0.51100000000E-03 0. -1.
    9900012    2    1    2    0    0  0.26058397990E+02  0.18015642968E+02 -0.36219264944E+01  0.59301923902E+02  0.49999963296E+02 0.  0.
        -12    1    1    2    0    0 -0.26058397990E+02 -0.18015642968E+02  0.36219264944E+01  0.31886076098E+02  0.00000000000E+00 0.  1.
         11    1    3    3    0    0 -0.60457244743E+01  0.20616597546E+01  0.42577735359E+01  0.76765787371E+01  0.51100000000E-03 0. -1.
        -11    1    3    3    0    0  0.38275778649E+01  0.18473673994E+02 -0.12820635279E+02  0.22809990626E+02  0.51100000000E-03 0.  1.
        -12    1    3    3    0    0  0.28276544599E+02 -0.25196907800E+01  0.49409352486E+01  0.28815354540E+02  0.00000000000E+00 0.  1.
</event>
<event>
 7    1  0.6515090E-012  0.5930194E+02  0.7816164E-02  0.1266605E+00
        -11   -1    0    0    0    0  0.00000000000E+00  0.00000000000E+00  0.45593999997E+02  0.45594000000E+02  0.51100000000E-03 0.  1.
         11   -1    0    0    0    0 -0.00000000000E+00 -0.00000000000E+00 -0.45593999997E+02  0.45594000000E+02  0.51100000000E-03 0. -1.
    9900012    2    1    2    0    0  0.15170443905E+02 -0.12206512749E+02 -0.25250338289E+02  0.59301938696E+02  0.49999990276E+02 0.  0.
        -12    1    1    2    0    0 -0.15170443905E+02  0.12206512749E+02  0.25250338289E+02  0.31886061304E+02  0.00000000000E+00 0.  1.
         11    1    3    3    0    0  0.90232603941E-01 -0.10339069360E+02  0.22453684370E+01  0.10580462033E+02  0.51100000000E-03 0. -1.
        -11    1    3    3    0    0 -0.47052124220E+01 -0.13704260935E+02 -0.24777250992E+01  0.14699826994E+02  0.51100000000E-03 0.  1.
         12    1    3    3    0    0  0.19785423723E+02  0.11836817546E+02 -0.25017981627E+02  0.34021649669E+02  0.00000000000E+00 0. -1.
</event>
<event>
 7    1  0.6515090E-012  0.5930194E+02  0.7816164E-02  0.1266605E+00
        -11   -1    0    0    0    0  0.00000000000E+00  0.00000000000E+00  0.45593999997E+02  0.45594000000E+02  0.51100000000E-03 0. -1.
         11   -1    0    0    0    0 -0.00000000000E+00 -0.00000000000E+00 -0.45593999997E+02  0.45594000000E+02  0.51100000000E-03 0.  1.
    9900012    2    1    2    0    0  0.18793770346E+02 -0.17241621787E+02  0.19137441930E+02  0.59301937068E+02  0.49999987306E+02 0.  0.
        -12    1    1    2    0    0 -0.18793770346E+02  0.17241621787E+02 -0.19137441930E+02  0.31886062932E+02  0.00000000000E+00 0.  1.
         11    1    3    3    0    0  0.19364084280E+02 -0.17907484183E+02  0.11996665605E+02  0.28975260752E+02  0.51100000000E-03 0. -1.
        -11    1    3    3    0    0 -0.35100226404E+01 -0.24520364549E+01 -0.10938420569E+02  0.11746564882E+02  0.51100000000E-03 0.  1.
         12    1    3    3    0    0  0.29397087063E+01  0.31178988506E+01  0.18079196895E+02  0.18580111434E+02  0.00000000000E+00 0. -1.
</event>
<event>
 7    1  0.6515090E-012  0.5930195E+02  0.7816164E-02  0.1266605E+00
        -11   -1    0    0    0    0  0.00000000000E+00  0.00000000000E+00  0.45593999997E+02  0.45594000000E+02  0.51100000000E-03 0.  1.
         11   -1    0    0    0    0 -0.00000000000E+00 -0.00000000000E+00 -0.45593999997E+02  0.45594000000E+02  0.51100000000E-03 0. -1.
    9900012    2    1    2    0    0 -0.26846241436E+01 -0.25925313642E+02 -0.18368210754E+02  0.59301948809E+02  0.50000008720E+02 0.  0.
        -12    1    1    2    0    0  0.26846241436E+01  0.25925313642E+02  0.18368210754E+02  0.31886051191E+02  0.00000000000E+00 0.  1.
         11    1    3    3    0    0  0.10717519161E+02 -0.28882368255E+02 -0.76033962878E+01  0.31731184163E+02  0.51100000000E-03 0. -1.
        -11    1    3    3    0    0  0.57136431435E+01 -0.14879507237E+00 -0.73933204612E+00  0.57631996391E+01  0.51100000000E-03 0.  1.
         12    1    3    3    0    0 -0.19115786448E+02  0.31058496854E+01 -0.10025482420E+02  0.21807565007E+02  0.00000000000E+00 0. -1.
</event>
<event>
 7    1  0.6515090E-012  0.5930195E+02  0.7816164E-02  0.1266605E+00
        -11   -1    0    0    0    0  0.00000000000E+00  0.00000000000E+00  0.45593999997E+02  0.45594000000E+02  0.51100000000E-03 0.  1.
         11   -1    0    0    0    0 -0.00000000000E+00 -0.00000000000E+00 -0.45593999997E+02  0.45594000000E+02  0.51100000000E-03 0. -1.
    9900012    2    1    2    0    0  0.12334566515E+01 -0.16078215418E+02 -0.27507991403E+02  0.59301952623E+02  0.50000015675E+02 0.  0.
        -12    1    1    2    0    0 -0.12334566515E+01  0.16078215418E+02  0.27507991403E+02  0.31886047377E+02  0.00000000000E+00 0.  1.
         11    1    3    3    0    0  0.29807463848E+01 -0.17181528974E+02 -0.28700728607E+02  0.33583055396E+02  0.51100000000E-03 0. -1.
        -11    1    3    3    0    0 -0.12471888725E+02 -0.24080417429E+01 -0.39714370648E+01  0.13308605713E+02  0.51100000000E-03 0.  1.
         12    1    3    3    0    0  0.10724598992E+02  0.35113552997E+01  0.51641742688E+01  0.12410291513E+02  0.00000000000E+00 0. -1.
</event>
<event>
 7    1  0.6515090E-012  0.5930194E+02  0.7816164E-02  0.1266605E+00
        -11   -1    0    0    0    0  0.00000000000E+00  0.00000000000E+00  0.45593999997E+02  0.45594000000E+02  0.51100000000E-03 0.  1.
         11   -1    0    0    0    0 -0.00000000000E+00 -0.00000000000E+00 -0.45593999997E+02  0.45594000000E+02  0.51100000000E-03 0. -1.
    9900012    2    1    2    0    0 -0.17206821937E+02 -0.18945840376E+02 -0.19018446183E+02  0.59301939034E+02  0.49999990893E+02 0.  0.
        -12    1    1    2    0    0  0.17206821937E+02  0.18945840376E+02  0.19018446183E+02  0.31886060966E+02  0.00000000000E+00 0.  1.
         11    1    3    3    0    0 -0.17548356848E+02  0.11978088611E+01  0.37969019348E+01  0.17994333516E+02  0.51100000000E-03 0. -1.
        -11    1    3    3    0    0 -0.41887541437E+01  0.48234141928E+01  0.10490359661E+01  0.64739062760E+01  0.51100000000E-03 0.  1.
        -12    1    3    3    0    0  0.45302890547E+01 -0.24967063430E+02 -0.23864384084E+02  0.34833699242E+02  0.00000000000E+00 0.  1.
</event>
<event>
 7    1  0.6515090E-012  0.5930195E+02  0.7816164E-02  0.1266605E+00
        -11   -1    0    0    0    0  0.00000000000E+00  0.00000000000E+00  0.45593999997E+02  0.45594000000E+02  0.51100000000E-03 0.  1.
         11   -1    0    0    0    0 -0.00000000000E+00 -0.00000000000E+00 -0.45593999997E+02  0.45594000000E+02  0.51100000000E-03 0. -1.
    9900012    2    1    2    0    0 -0.16389075624E+02  0.24077905016E+02 -0.12975862330E+02  0.59301947987E+02  0.50000007222E+02 0.  0.
        -12    1    1    2    0    0  0.16389075624E+02 -0.24077905016E+02  0.12975862330E+02  0.31886052013E+02  0.00000000000E+00 0.  1.
         11    1    3    3    0    0  0.22070382202E+01  0.18893312444E+02 -0.14693245080E+02  0.24035800882E+02  0.51100000000E-03 0. -1.
        -11    1    3    3    0    0  0.13404272525E+01  0.10239233025E+02 -0.74648850080E+01  0.12742179822E+02  0.51100000000E-03 0.  1.
        -12    1    3    3    0    0 -0.19936541097E+02 -0.50546404534E+01  0.91822677582E+01  0.22523967284E+02  0.00000000000E+00 0.  1.
</event>
<event>
 7    1  0.6515090E-012  0.5930217E+02  0.7816164E-02  0.1266604E+00
        -11   -1    0    0    0    0  0.00000000000E+00  0.00000000000E+00  0.45593999997E+02  0.45594000000E+02  0.51100000000E-03 0.  1.
         11   -1    0    0    0    0 -0.00000000000E+00 -0.00000000000E+00 -0.45593999997E+02  0.45594000000E+02  0.51100000000E-03 0. -1.
    9900012    2    1    2    0    0 -0.29684482416E+02 -0.54502436183E+01  0.10287479423E+02  0.59302174236E+02  0.50000419843E+02 0.  0.
        -12    1    1    2    0    0  0.29684482416E+02  0.54502436183E+01 -0.10287479423E+02  0.31885825764E+02  0.00000000000E+00 0.  1.
         11    1    3    3    0    0 -0.59356110749E+01 -0.11492312905E+02  0.18305221445E+02  0.22413965895E+02  0.51100000000E-03 0. -1.
        -11    1    3    3    0    0 -0.21520293384E+02 -0.10097665923E+01  0.48163277951E+01  0.22075771099E+02  0.51100000000E-03 0.  1.
         12    1    3    3    0    0 -0.22285779564E+01  0.70518358793E+01 -0.12834069817E+02  0.14812437242E+02  0.00000000000E+00 0. -1.
</event>
<event>
 7    1  0.6515090E-012  0.5930192E+02  0.7816164E-02  0.1266605E+00
        -11   -1    0    0    0    0  0.00000000000E+00  0.00000000000E+00  0.45593999997E+02  0.45594000000E+02  0.51100000000E-03 0.  1.
         11   -1    0    0    0    0 -0.00000000000E+00 -0.00000000000E+00 -0.45593999997E+02  0.45594000000E+02  0.51100000000E-03 0. -1.
    9900012    2    1    2    0    0 -0.16930129205E+02 -0.92398227545E+01 -0.25391313811E+02  0.59301915003E+02  0.49999947065E+02 0.  0.
        -12    1    1    2    0    0  0.16930129205E+02  0.92398227545E+01  0.25391313811E+02  0.31886084997E+02  0.00000000000E+00 0.  1.
         11    1    3    3    0    0 -0.39350855676E+01 -0.11799139289E+02 -0.16680942604E+02  0.20807653227E+02  0.51100000000E-03 0. -1.
        -11    1    3    3    0    0  0.11255401580E+02  0.20610195703E+01  0.25954465767E+01  0.11733209688E+02  0.51100000000E-03 0.  1.
         12    1    3    3    0    0 -0.24250445217E+02  0.49829696468E+00 -0.11305817784E+02  0.26761052088E+02  0.00000000000E+00 0. -1.
</event>
<event>
 7    1  0.6515090E-012  0.5930189E+02  0.7816164E-02  0.1266605E+00
        -11   -1    0    0    0    0  0.00000000000E+00  0.00000000000E+00  0.45593999997E+02  0.45594000000E+02  0.51100000000E-03 0.  1.
         11   -1    0    0    0    0 -0.00000000000E+00 -0.00000000000E+00 -0.45593999997E+02  0.45594000000E+02  0.51100000000E-03 0. -1.
    9900012    2    1    2    0    0 -0.95160637363E+01  0.21629863793E+02  0.21408346575E+02  0.59301893624E+02  0.49999908075E+02 0.  0.
        -12    1    1    2    0    0  0.95160637363E+01 -0.21629863793E+02 -0.21408346575E+02  0.31886106376E+02  0.00000000000E+00 0.  1.
         11    1    3    3    0    0  0.21859237249E+01  0.12264248485E+02 -0.52097243744E+01  0.13503010100E+02  0.51100000000E-03 0. -1.
        -11    1    3    3    0    0 -0.61177284322E+01 -0.19706945278E+00 -0.76434371829E+01  0.97922198592E+01  0.51100000000E-03 0.  1.
        -12    1    3    3    0    0 -0.55842590290E+01  0.95626847604E+01  0.34261508133E+02  0.36006663665E+02  0.00000000000E+00 0.  1.
</event>
<event>
 7    1  0.6515090E-012  0.5930191E+02  0.7816164E-02  0.1266605E+00
        -11   -1    0    0    0    0  0.00000000000E+00  0.00000000000E+00  0.45593999997E+02  0.45594000000E+02  0.51100000000E-03 0. -1.
         11   -1    0    0    0    0 -0.00000000000E+00 -0.00000000000E+00 -0.45593999997E+02  0.45594000000E+02  0.51100000000E-03 0.  1.
    9900012    2    1    2    0    0 -0.23262830345E+02  0.20990213691E+02  0.59139037504E+01  0.59301912062E+02  0.49999941702E+02 0.  0.
        -12    1    1    2    0    0  0.23262830345E+02 -0.20990213691E+02 -0.59139037504E+01  0.31886087938E+02  0.00000000000E+00 0.  1.
         11    1    3    3    0    0 -0.10997026106E+02  0.10767310377E+02 -0.82255013549E+01  0.17450742927E+02  0.51100000000E-03 0. -1.
        -11    1    3    3    0    0 -0.22790417894E+02 -0.19722510677E+01  0.53193773200E+01  0.23485925517E+02  0.51100000000E-03 0.  1.
         12    1    3    3    0    0  0.10524613655E+02  0.12195154382E+02  0.88200277852E+01  0.18365243617E+02  0.00000000000E+00 0. -1.
</event>
<event>
 7    1  0.6515090E-012  0.5930193E+02  0.7816164E-02  0.1266605E+00
        -11   -1    0    0    0    0  0.00000000000E+00  0.00000000000E+00  0.45593999997E+02  0.45594000000E+02  0.51100000000E-03 0.  1.
         11   -1    0    0    0    0 -0.00000000000E+00 -0.00000000000E+00 -0.45593999997E+02  0.45594000000E+02  0.51100000000E-03 0. -1.
    9900012    2    1    2    0    0  0.23376820252E+02 -0.26930990396E+01 -0.21517267534E+02  0.59301932358E+02  0.49999978718E+02 0.  0.
        -12    1    1    2    0    0 -0.23376820252E+02  0.26930990396E+01  0.21517267534E+02  0.31886067642E+02  0.00000000000E+00 0.  1.
         11    1    3    3    0    0  0.19151983229E+02  0.16477876112E+02 -0.69408184463E+01  0.26201027150E+02  0.51100000000E-03 0. -1.
        -11    1    3    3    0    0  0.90520900344E+01  0.47447622260E+00 -0.20066227966E+01  0.92839645080E+01  0.51100000000E-03 0.  1.
        -12    1    3    3    0    0 -0.48272530113E+01 -0.19645451374E+02 -0.12569826291E+02  0.23816940700E+02  0.00000000000E+00 0.  1.
</event>
<event>
 7    1  0.6515090E-012  0.5930203E+02  0.7816164E-02  0.1266604E+00
        -11   -1    0    0    0    0  0.00000000000E+00  0.00000000000E+00  0.45593999997E+02  0.45594000000E+02  0.51100000000E-03 0.  1.
         11   -1    0    0    0    0 -0.00000000000E+00 -0.00000000000E+00 -0.45593999997E+02  0.45594000000E+02  0.51100000000E-03 0. -1.
    9900012    2    1    2    0    0  0.17463169423E+01 -0.29473504978E+02  0.12040682740E+02  0.59302028799E+02  0.50000154603E+02 0.  0.
        -12    1    1    2    0    0 -0.17463169423E+01  0.29473504978E+02 -0.12040682740E+02  0.31885971201E+02  0.00000000000E+00 0.  1.
         11    1    3    3    0    0 -0.20391888161E+01 -0.87871585477E+01  0.11250904326E+02  0.14420655144E+02  0.51100000000E-03 0. -1.
        -11    1    3    3    0    0  0.23519836356E+01 -0.19633815970E+02  0.18501877505E+02  0.27080214697E+02  0.51100000000E-03 0.  1.
         12    1    3    3    0    0  0.14335221228E+01 -0.10525304608E+01 -0.17712099091E+02  0.17801158958E+02  0.00000000000E+00 0. -1.
</event>
<event>
 7    1  0.6515090E-012  0.5930192E+02  0.7816164E-02  0.1266605E+00
        -11   -1    0    0    0    0  0.00000000000E+00  0.00000000000E+00  0.45593999997E+02  0.45594000000E+02  0.51100000000E-03 0.  1.
         11   -1    0    0    0    0 -0.00000000000E+00 -0.00000000000E+00 -0.45593999997E+02  0.45594000000E+02  0.51100000000E-03 0. -1.
    9900012    2    1    2    0    0 -0.11972852432E+02 -0.43268893634E+01 -0.29234411196E+02  0.59301922084E+02  0.49999959979E+02 0.  0.
        -12    1    1    2    0    0  0.11972852432E+02  0.43268893634E+01  0.29234411196E+02  0.31886077916E+02  0.00000000000E+00 0.  1.
         11    1    3    3    0    0 -0.10423042899E+02  0.72044959120E+00 -0.23347431596E+02  0.25578534619E+02  0.51100000000E-03 0. -1.
        -11    1    3    3    0    0 -0.85187276106E+01  0.12033376704E+02 -0.21218430489E+01  0.14895405103E+02  0.51100000000E-03 0.  1.
        -12    1    3    3    0    0  0.69689180770E+01 -0.17080715658E+02 -0.37651365506E+01  0.18827982361E+02  0.00000000000E+00 0.  1.
</event>
<event>
 7    1  0.6515090E-012  0.5930197E+02  0.7816164E-02  0.1266605E+00
        -11   -1    0    0    0    0  0.00000000000E+00  0.00000000000E+00  0.45593999997E+02  0.45594000000E+02  0.51100000000E-03 0.  1.
         11   -1    0    0    0    0 -0.00000000000E+00 -0.00000000000E+00 -0.45593999997E+02  0.45594000000E+02  0.51100000000E-03 0. -1.
    9900012    2    1    2    0    0  0.15406545081E+02 -0.27187044375E+02  0.63420808869E+01  0.59301968526E+02  0.50000044679E+02 0.  0.
        -12    1    1    2    0    0 -0.15406545081E+02  0.27187044375E+02 -0.63420808869E+01  0.31886031474E+02  0.00000000000E+00 0.  1.
         11    1    3    3    0    0  0.17605140502E+01 -0.14532112049E+02  0.87349238914E+01  0.17046424434E+02  0.51100000000E-03 0.  1.
        -11    1    3    3    0    0  0.73879550328E+01 -0.18763386286E+02  0.13393978783E+02  0.24208370709E+02  0.51100000000E-03 0. -1.
         12    1    3    3    0    0  0.62580759976E+01  0.61084539604E+01 -0.15786821787E+02  0.18047173383E+02  0.00000000000E+00 0. -1.
</event>
<event>
 7    1  0.6515090E-012  0.5930194E+02  0.7816164E-02  0.1266605E+00
        -11   -1    0    0    0    0  0.00000000000E+00  0.00000000000E+00  0.45593999997E+02  0.45594000000E+02  0.51100000000E-03 0.  1.
         11   -1    0    0    0    0 -0.00000000000E+00 -0.00000000000E+00 -0.45593999997E+02  0.45594000000E+02  0.51100000000E-03 0. -1.
    9900012    2    1    2    0    0 -0.98572100516E+01 -0.11620343209E+02 -0.28009351325E+02  0.59301941480E+02  0.49999995354E+02 0.  0.
        -12    1    1    2    0    0  0.98572100516E+01  0.11620343209E+02  0.28009351325E+02  0.31886058520E+02  0.00000000000E+00 0.  1.
         11    1    3    3    0    0  0.81371482228E+01 -0.15855476191E+01 -0.30261629046E+02  0.31376636774E+02  0.51100000000E-03 0. -1.
        -11    1    3    3    0    0 -0.46071038726E+01 -0.36840074953E+01 -0.79761749033E+01  0.99205183165E+01  0.51100000000E-03 0.  1.
        -12    1    3    3    0    0 -0.13387254402E+02 -0.63507880951E+01  0.10228452625E+02  0.18004786390E+02  0.00000000000E+00 0.  1.
</event>
<event>
 7    1  0.6515090E-012  0.5930192E+02  0.7816164E-02  0.1266605E+00
        -11   -1    0    0    0    0  0.00000000000E+00  0.00000000000E+00  0.45593999997E+02  0.45594000000E+02  0.51100000000E-03 0.  1.
         11   -1    0    0    0    0 -0.00000000000E+00 -0.00000000000E+00 -0.45593999997E+02  0.45594000000E+02  0.51100000000E-03 0. -1.
    9900012    2    1    2    0    0  0.16193158130E+02 -0.18883439423E+02 -0.19947913329E+02  0.59301923088E+02  0.49999961812E+02 0.  0.
        -12    1    1    2    0    0 -0.16193158130E+02  0.18883439423E+02  0.19947913329E+02  0.31886076912E+02  0.00000000000E+00 0.  1.
         11    1    3    3    0    0  0.14027572295E+02  0.96243498137E+01 -0.73147918306E+01  0.18517750231E+02  0.51100000000E-03 0. -1.
        -11    1    3    3    0    0 -0.10880232894E+02 -0.61132185616E+01 -0.68236191891E+01  0.14223666479E+02  0.51100000000E-03 0.  1.
         12    1    3    3    0    0  0.13045818728E+02 -0.22394570675E+02 -0.58095023091E+01  0.26560506378E+02  0.00000000000E+00 0. -1.
</event>
<event>
 7    1  0.6515090E-012  0.5930195E+02  0.7816164E-02  0.1266605E+00
        -11   -1    0    0    0    0  0.00000000000E+00  0.00000000000E+00  0.45593999997E+02  0.45594000000E+02  0.51100000000E-03 0.  1.
         11   -1    0    0    0    0 -0.00000000000E+00 -0.00000000000E+00 -0.45593999997E+02  0.45594000000E+02  0.51100000000E-03 0. -1.
    9900012    2    1    2    0    0  0.31909772142E+01 -0.34052099545E+01 -0.31542712007E+02  0.59301945506E+02  0.50000002696E+02 0.  0.
        -12    1    1    2    0    0 -0.31909772142E+01  0.34052099545E+01  0.31542712007E+02  0.31886054494E+02  0.00000000000E+00 0.  1.
         11    1    3    3    0    0 -0.24146138423E+01  0.80755614929E+01 -0.91008877887E+01  0.12404483554E+02  0.51100000000E-03 0. -1.
        -11    1    3    3    0    0  0.18850932180E+02  0.20766654287E+01 -0.20368536800E+02  0.27830693038E+02  0.51100000000E-03 0.  1.
        -12    1    3    3    0    0 -0.13245341123E+02 -0.13557436876E+02 -0.20732874192E+01  0.19066768914E+02  0.00000000000E+00 0.  1.
</event>
<event>
 7    1  0.6515090E-012  0.5930197E+02  0.7816164E-02  0.1266605E+00
        -11   -1    0    0    0    0  0.00000000000E+00  0.00000000000E+00  0.45593999997E+02  0.45594000000E+02  0.51100000000E-03 0. -1.
         11   -1    0    0    0    0 -0.00000000000E+00 -0.00000000000E+00 -0.45593999997E+02  0.45594000000E+02  0.51100000000E-03 0.  1.
    9900012    2    1    2    0    0  0.41856375903E+01 -0.74272859304E+01  0.30725151692E+02  0.59301967245E+02  0.50000042343E+02 0.  0.
        -12    1    1    2    0    0 -0.41856375903E+01  0.74272859304E+01 -0.30725151692E+02  0.31886032755E+02  0.00000000000E+00 0.  1.
         11    1    3    3    0    0  0.16518271431E+02  0.59243117381E+01  0.16790867356E+02  0.24287527405E+02  0.51100000000E-03 0. -1.
        -11    1    3    3    0    0  0.77920008833E+01 -0.67213280877E+01  0.79301029506E+01  0.12991461122E+02  0.51100000000E-03 0.  1.
        -12    1    3    3    0    0 -0.20124634724E+02 -0.66302695807E+01  0.60041813852E+01  0.22022978717E+02  0.00000000000E+00 0.  1.
</event>
<event>
 7    1  0.6515090E-012  0.5930178E+02  0.7816164E-02  0.1266605E+00
        -11   -1    0    0    0    0  0.00000000000E+00  0.00000000000E+00  0.45593999997E+02  0.45594000000E+02  0.51100000000E-03 0.  1.
         11   -1    0    0    0    0 -0.00000000000E+00 -0.00000000000E+00 -0.45593999997E+02  0.45594000000E+02  0.51100000000E-03 0. -1.
    9900012    2    1    2    0    0 -0.24310722734E+02 -0.20597748025E+02  0.12051944672E+01  0.59301781077E+02  0.49999702816E+02 0.  0.
        -12    1    1    2    0    0  0.24310722734E+02  0.20597748025E+02 -0.12051944672E+01  0.31886218923E+02  0.00000000000E+00 0.  1.
         11    1    3    3    0    0 -0.12456592943E+02 -0.23018651165E+02 -0.12366796888E+02  0.28947584955E+02  0.51100000000E-03 0. -1.
        -11    1    3    3    0    0 -0.78832709099E+01  0.49226395230E+01 -0.54416714315E+01  0.10769871324E+02  0.51100000000E-03 0.  1.
        -12    1    3    3    0    0 -0.39708588810E+01 -0.25017363826E+01  0.19013662787E+02  0.19584324797E+02  0.00000000000E+00 0.  1.
</event>
<event>
 7    1  0.6515090E-012  0.5930190E+02  0.7816164E-02  0.1266605E+00
        -11   -1    0    0    0    0  0.00000000000E+00  0.00000000000E+00  0.45593999997E+02  0.45594000000E+02  0.51100000000E-03 0.  1.
         11   -1    0    0    0    0 -0.00000000000E+00 -0.00000000000E+00 -0.45593999997E+02  0.45594000000E+02  0.51100000000E-03 0. -1.
    9900012    2    1    2    0    0 -0.31192597175E+02 -0.40025020330E+01  0.52654954761E+01  0.59301896700E+02  0.49999913685E+02 0.  0.
        -12    1    1    2    0    0  0.31192597175E+02  0.40025020330E+01 -0.52654954761E+01  0.31886103300E+02  0.00000000000E+00 0.  1.
         11    1    3    3    0    0 -0.20530076097E+02  0.17388164970E+01 -0.44798542130E+01  0.21084985212E+02  0.51100000000E-03 0. -1.
        -11    1    3    3    0    0 -0.15467762290E+02  0.11309904224E+02  0.62913328522E+01  0.20167956593E+02  0.51100000000E-03 0.  1.
        -12    1    3    3    0    0  0.48052412111E+01 -0.17051222754E+02  0.34540168369E+01  0.18048954895E+02  0.00000000000E+00 0.  1.
</event>
<event>
 7    1  0.6515090E-012  0.5930193E+02  0.7816164E-02  0.1266605E+00
        -11   -1    0    0    0    0  0.00000000000E+00  0.00000000000E+00  0.45593999997E+02  0.45594000000E+02  0.51100000000E-03 0. -1.
         11   -1    0    0    0    0 -0.00000000000E+00 -0.00000000000E+00 -0.45593999997E+02  0.45594000000E+02  0.51100000000E-03 0.  1.
    9900012    2    1    2    0    0 -0.25408978876E+02 -0.18978449199E+02  0.33051098746E+01  0.59301929487E+02  0.49999973481E+02 0.  0.
        -12    1    1    2    0    0  0.25408978876E+02  0.18978449199E+02 -0.33051098746E+01  0.31886070513E+02  0.00000000000E+00 0.  1.
         11    1    3    3    0    0 -0.23625948916E+02 -0.38613815053E+00  0.15466718343E+02  0.28240997529E+02  0.51100000000E-03 0. -1.
        -11    1    3    3    0    0  0.31127068942E+01  0.30306599482E+01  0.19695891404E+01  0.47700236450E+01  0.51100000000E-03 0.  1.
        -12    1    3    3    0    0 -0.48957368537E+01 -0.21622970996E+02 -0.14131197609E+02  0.26290908313E+02  0.00000000000E+00 0.  1.
</event>
<event>
 7    1  0.6515090E-012  0.5930192E+02  0.7816164E-02  0.1266605E+00
        -11   -1    0    0    0    0  0.00000000000E+00  0.00000000000E+00  0.45593999997E+02  0.45594000000E+02  0.51100000000E-03 0. -1.
         11   -1    0    0    0    0 -0.00000000000E+00 -0.00000000000E+00 -0.45593999997E+02  0.45594000000E+02  0.51100000000E-03 0.  1.
    9900012    2    1    2    0    0 -0.64271992835E+01  0.24162363981E+02  0.19788710805E+02  0.59301924683E+02  0.49999964720E+02 0.  0.
        -12    1    1    2    0    0  0.64271992835E+01 -0.24162363981E+02 -0.19788710805E+02  0.31886075317E+02  0.00000000000E+00 0.  1.
         11    1    3    3    0    0 -0.16948307275E+02  0.46935466592E+01 -0.68097641720E+01  0.18858615751E+02  0.51100000000E-03 0. -1.
        -11    1    3    3    0    0  0.53279398371E+00  0.12759528308E-01 -0.33317713828E+01  0.33741270046E+01  0.51100000000E-03 0.  1.
         12    1    3    3    0    0  0.99883140073E+01  0.19456057794E+02  0.29930246360E+02  0.37069181927E+02  0.00000000000E+00 0. -1.
</event>
<event>
 7    1  0.6515090E-012  0.5930192E+02  0.7816164E-02  0.1266605E+00
        -11   -1    0    0    0    0  0.00000000000E+00  0.00000000000E+00  0.45593999997E+02  0.45594000000E+02  0.51100000000E-03 0.  1.
         11   -1    0    0    0    0 -0.00000000000E+00 -0.00000000000E+00 -0.45593999997E+02  0.45594000000E+02  0.51100000000E-03 0. -1.
    9900012    2    1    2    0    0  0.26575963085E+02 -0.53736686801E+01 -0.16779872619E+02  0.59301917549E+02  0.49999951709E+02 0.  0.
        -12    1    1    2    0    0 -0.26575963085E+02  0.53736686801E+01  0.16779872619E+02  0.31886082451E+02  0.00000000000E+00 0.  1.
         11    1    3    3    0    0  0.22718249511E+02 -0.14839560749E+02 -0.16881680698E+02  0.31958137735E+02  0.51100000000E-03 0. -1.
        -11    1    3    3    0    0  0.32943622031E+01 -0.40048798126E+01  0.95590427793E+01  0.10875071667E+02  0.51100000000E-03 0.  1.
        -12    1    3    3    0    0  0.56335137105E+00  0.13470771882E+02 -0.94572346999E+01  0.16468708147E+02  0.00000000000E+00 0.  1.
</event>
<event>
 7    1  0.6515090E-012  0.5930193E+02  0.7816164E-02  0.1266605E+00
        -11   -1    0    0    0    0  0.00000000000E+00  0.00000000000E+00  0.45593999997E+02  0.45594000000E+02  0.51100000000E-03 0.  1.
         11   -1    0    0    0    0 -0.00000000000E+00 -0.00000000000E+00 -0.45593999997E+02  0.45594000000E+02  0.51100000000E-03 0. -1.
    9900012    2    1    2    0    0  0.28661595934E+02  0.84469410299E+01  0.11130291331E+02  0.59301932834E+02  0.49999979585E+02 0.  0.
        -12    1    1    2    0    0 -0.28661595934E+02 -0.84469410299E+01 -0.11130291331E+02  0.31886067166E+02  0.00000000000E+00 0.  1.
         11    1    3    3    0    0 -0.65651232681E+01 -0.71343540152E+00  0.13562554749E+01  0.67416068390E+01  0.51100000000E-03 0. -1.
        -11    1    3    3    0    0  0.44282283751E+01  0.15558548252E+02  0.13253377248E+02  0.20912427860E+02  0.51100000000E-03 0.  1.
        -12    1    3    3    0    0  0.30798490827E+02 -0.63981718203E+01 -0.34793413922E+01  0.31647898135E+02  0.00000000000E+00 0.  1.
</event>
<event>
 7    1  0.6515090E-012  0.5930194E+02  0.7816164E-02  0.1266605E+00
        -11   -1    0    0    0    0  0.00000000000E+00  0.00000000000E+00  0.45593999997E+02  0.45594000000E+02  0.51100000000E-03 0. -1.
         11   -1    0    0    0    0 -0.00000000000E+00 -0.00000000000E+00 -0.45593999997E+02  0.45594000000E+02  0.51100000000E-03 0.  1.
    9900012    2    1    2    0    0 -0.33665693527E+01  0.19967887526E+02 -0.24630677389E+02  0.59301943642E+02  0.49999999296E+02 0.  0.
        -12    1    1    2    0    0  0.33665693527E+01 -0.19967887526E+02  0.24630677389E+02  0.31886056358E+02  0.00000000000E+00 0.  1.
         11    1    3    3    0    0 -0.16257094106E+02  0.86916080041E+01 -0.12829306670E+02  0.22459480590E+02  0.51100000000E-03 0. -1.
        -11    1    3    3    0    0  0.31372831953E+01  0.45291528834E+00  0.10073109815E+02  0.10560076690E+02  0.51100000000E-03 0.  1.
         12    1    3    3    0    0  0.97532415583E+01  0.10823364233E+02 -0.21874480534E+02  0.26282386361E+02  0.00000000000E+00 0. -1.
</event>
<event>
 7    1  0.6515090E-012  0.5930195E+02  0.7816164E-02  0.1266605E+00
        -11   -1    0    0    0    0  0.00000000000E+00  0.00000000000E+00  0.45593999997E+02  0.45594000000E+02  0.51100000000E-03 0.  1.
         11   -1    0    0    0    0 -0.00000000000E+00 -0.00000000000E+00 -0.45593999997E+02  0.45594000000E+02  0.51100000000E-03 0. -1.
    9900012    2    1    2    0    0  0.27824138020E+02 -0.11641066886E+02 -0.10345209164E+02  0.59301945879E+02  0.50000003375E+02 0.  0.
        -12    1    1    2    0    0 -0.27824138020E+02  0.11641066886E+02  0.10345209164E+02  0.31886054121E+02  0.00000000000E+00 0.  1.
         11    1    3    3    0    0  0.14152978695E+02 -0.10574980132E+02 -0.67737659353E+01  0.18921440641E+02  0.51100000000E-03 0. -1.
        -11    1    3    3    0    0 -0.46866177169E+01 -0.10108021399E+02  0.10687538836E+02  0.15438910870E+02  0.51100000000E-03 0.  1.
         12    1    3    3    0    0  0.18357777042E+02  0.90419346446E+01 -0.14258982065E+02  0.24941594367E+02  0.00000000000E+00 0. -1.
</event>
<event>
 7    1  0.6515090E-012  0.5930195E+02  0.7816164E-02  0.1266605E+00
        -11   -1    0    0    0    0  0.00000000000E+00  0.00000000000E+00  0.45593999997E+02  0.45594000000E+02  0.51100000000E-03 0.  1.
         11   -1    0    0    0    0 -0.00000000000E+00 -0.00000000000E+00 -0.45593999997E+02  0.45594000000E+02  0.51100000000E-03 0. -1.
    9900012    2    1    2    0    0 -0.17638025642E+02  0.15150818193E+01 -0.26520272587E+02  0.59301948511E+02  0.50000008177E+02 0.  0.
        -12    1    1    2    0    0  0.17638025642E+02 -0.15150818193E+01  0.26520272587E+02  0.31886051489E+02  0.00000000000E+00 0.  1.
         11    1    3    3    0    0 -0.30051308855E+01  0.59502056022E+01  0.20928673956E+01  0.69868342290E+01  0.51100000000E-03 0. -1.
        -11    1    3    3    0    0  0.58103103715E+01  0.55151596204E+01  0.66136266610E+01  0.10388298712E+02  0.51100000000E-03 0.  1.
         12    1    3    3    0    0 -0.20443205128E+02 -0.99502834032E+01 -0.35226766644E+02  0.41926815570E+02  0.00000000000E+00 0. -1.
</event>
<event>
 7    1  0.6515090E-012  0.5930160E+02  0.7816164E-02  0.1266606E+00
        -11   -1    0    0    0    0  0.00000000000E+00  0.00000000000E+00  0.45593999997E+02  0.45594000000E+02  0.51100000000E-03 0.  1.
         11   -1    0    0    0    0 -0.00000000000E+00 -0.00000000000E+00 -0.45593999997E+02  0.45594000000E+02  0.51100000000E-03 0. -1.
    9900012    2    1    2    0    0 -0.80513704577E+01 -0.16106023366E+02 -0.26315655305E+02  0.59301603699E+02  0.49999379319E+02 0.  0.
        -12    1    1    2    0    0  0.80513704577E+01  0.16106023366E+02  0.26315655305E+02  0.31886396301E+02  0.00000000000E+00 0.  1.
         11    1    3    3    0    0  0.96366631043E+01  0.96478324769E-01 -0.16163834850E+02  0.18818717840E+02  0.51100000000E-03 0. -1.
        -11    1    3    3    0    0  0.89521219512E+01 -0.46028181989E+01 -0.15836515970E+01  0.10189915380E+02  0.51100000000E-03 0.  1.
        -12    1    3    3    0    0 -0.26640155513E+02 -0.11599683492E+02 -0.85681688584E+01  0.30292970479E+02  0.00000000000E+00 0.  1.
</event>
<event>
 7    1  0.6515090E-012  0.5930195E+02  0.7816164E-02  0.1266605E+00
        -11   -1    0    0    0    0  0.00000000000E+00  0.00000000000E+00  0.45593999997E+02  0.45594000000E+02  0.51100000000E-03 0.  1.
         11   -1    0    0    0    0 -0.00000000000E+00 -0.00000000000E+00 -0.45593999997E+02  0.45594000000E+02  0.51100000000E-03 0. -1.
    9900012    2    1    2    0    0 -0.29275690759E+02 -0.88338366865E+01 -0.90342447432E+01  0.59301947906E+02  0.50000007074E+02 0.  0.
        -12    1    1    2    0    0  0.29275690759E+02  0.88338366865E+01  0.90342447432E+01  0.31886052094E+02  0.00000000000E+00 0.  1.
         11    1    3    3    0    0 -0.70246973780E+01  0.16140814774E+02 -0.14105938322E+02  0.22557698708E+02  0.51100000000E-03 0. -1.
        -11    1    3    3    0    0 -0.16107527040E+02 -0.74525871493E+01  0.36703118689E+01  0.18123594347E+02  0.51100000000E-03 0.  1.
        -12    1    3    3    0    0 -0.61434663413E+01 -0.17522064311E+02  0.14013817098E+01  0.18620654852E+02  0.00000000000E+00 0.  1.
</event>
<event>
 7    1  0.6515090E-012  0.5930204E+02  0.7816164E-02  0.1266604E+00
        -11   -1    0    0    0    0  0.00000000000E+00  0.00000000000E+00  0.45593999997E+02  0.45594000000E+02  0.51100000000E-03 0.  1.
         11   -1    0    0    0    0 -0.00000000000E+00 -0.00000000000E+00 -0.45593999997E+02  0.45594000000E+02  0.51100000000E-03 0. -1.
    9900012    2    1    2    0    0 -0.61351130209E+01 -0.79777429476E+01 -0.30256077306E+02  0.59302043714E+02  0.50000181804E+02 0.  0.
        -12    1    1    2    0    0  0.61351130209E+01  0.79777429476E+01  0.30256077306E+02  0.31885956286E+02  0.00000000000E+00 0.  1.
         11    1    3    3    0    0 -0.57049673152E+01  0.92158580973E+01 -0.26749337261E+02  0.28861838761E+02  0.51100000000E-03 0. -1.
        -11    1    3    3    0    0  0.29035451002E+01  0.36374456844E+01 -0.76371175780E+01  0.89435535676E+01  0.51100000000E-03 0.  1.
        -12    1    3    3    0    0 -0.33336908059E+01 -0.20831046729E+02  0.41303775331E+01  0.21496651386E+02  0.00000000000E+00 0.  1.
</event>
<event>
 7    1  0.6515090E-012  0.5930196E+02  0.7816164E-02  0.1266605E+00
        -11   -1    0    0    0    0  0.00000000000E+00  0.00000000000E+00  0.45593999997E+02  0.45594000000E+02  0.51100000000E-03 0.  1.
         11   -1    0    0    0    0 -0.00000000000E+00 -0.00000000000E+00 -0.45593999997E+02  0.45594000000E+02  0.51100000000E-03 0. -1.
    9900012    2    1    2    0    0  0.27977893467E+02  0.43428540104E+01  0.14666177295E+02  0.59301958222E+02  0.50000025888E+02 0.  0.
        -12    1    1    2    0    0 -0.27977893467E+02 -0.43428540104E+01 -0.14666177295E+02  0.31886041778E+02  0.00000000000E+00 0.  1.
         11    1    3    3    0    0  0.51798017749E+01 -0.68364960881E+01 -0.18315258709E+01  0.87705480140E+01  0.51100000000E-03 0. -1.
        -11    1    3    3    0    0  0.32397578577E+02  0.13114992096E+02  0.48059078028E+01  0.35280346730E+02  0.51100000000E-03 0.  1.
        -12    1    3    3    0    0 -0.95994868851E+01 -0.19356419976E+01  0.11691795363E+02  0.15251063478E+02  0.00000000000E+00 0.  1.
</event>
<event>
 7    1  0.6515090E-012  0.5930193E+02  0.7816164E-02  0.1266605E+00
        -11   -1    0    0    0    0  0.00000000000E+00  0.00000000000E+00  0.45593999997E+02  0.45594000000E+02  0.51100000000E-03 0. -1.
         11   -1    0    0    0    0 -0.00000000000E+00 -0.00000000000E+00 -0.45593999997E+02  0.45594000000E+02  0.51100000000E-03 0.  1.
    9900012    2    1    2    0    0  0.14067924989E+02 -0.16665995135E+02  0.23260681075E+02  0.59301934213E+02  0.49999982099E+02 0.  0.
        -12    1    1    2    0    0 -0.14067924989E+02  0.16665995135E+02 -0.23260681075E+02  0.31886065787E+02  0.00000000000E+00 0.  1.
         11    1    3    3    0    0  0.83117389084E+01 -0.33680289722E+01  0.70147614717E+01  0.11385758719E+02  0.51100000000E-03 0. -1.
        -11    1    3    3    0    0  0.15556764963E+02 -0.18303314526E+02 -0.44934277903E+01  0.24437985849E+02  0.51100000000E-03 0.  1.
        -12    1    3    3    0    0 -0.98005788831E+01  0.50053483635E+01  0.20739347394E+02  0.23478189645E+02  0.00000000000E+00 0.  1.
</event>
<event>
 7    1  0.6515090E-012  0.5930195E+02  0.7816164E-02  0.1266605E+00
        -11   -1    0    0    0    0  0.00000000000E+00  0.00000000000E+00  0.45593999997E+02  0.45594000000E+02  0.51100000000E-03 0. -1.
         11   -1    0    0    0    0 -0.00000000000E+00 -0.00000000000E+00 -0.45593999997E+02  0.45594000000E+02  0.51100000000E-03 0.  1.
    9900012    2    1    2    0    0 -0.17284879943E+02 -0.26668711458E+02 -0.25947421852E+01  0.59301953954E+02  0.50000018103E+02 0.  0.
        -12    1    1    2    0    0  0.17284879943E+02  0.26668711458E+02  0.25947421852E+01  0.31886046046E+02  0.00000000000E+00 0.  1.
         11    1    3    3    0    0 -0.92002111528E+01 -0.23289737369E+02  0.13117082306E+02  0.28268597426E+02  0.51100000000E-03 0. -1.
        -11    1    3    3    0    0 -0.44505071193E+01 -0.14131931516E+02 -0.56231081963E+01  0.15847329366E+02  0.51100000000E-03 0.  1.
         12    1    3    3    0    0 -0.36341616708E+01  0.10752957427E+02 -0.10088716294E+02  0.15186027161E+02  0.00000000000E+00 0. -1.
</event>
<event>
 7    1  0.6515090E-012  0.5930195E+02  0.7816164E-02  0.1266605E+00
        -11   -1    0    0    0    0  0.00000000000E+00  0.00000000000E+00  0.45593999997E+02  0.45594000000E+02  0.51100000000E-03 0.  1.
         11   -1    0    0    0    0 -0.00000000000E+00 -0.00000000000E+00 -0.45593999997E+02  0.45594000000E+02  0.51100000000E-03 0. -1.
    9900012    2    1    2    0    0  0.21850362087E+02  0.18553534647E+02  0.13965971506E+02  0.59301947699E+02  0.50000006696E+02 0.  0.
        -12    1    1    2    0    0 -0.21850362087E+02 -0.18553534647E+02 -0.13965971506E+02  0.31886052301E+02  0.00000000000E+00 0.  1.
         11    1    3    3    0    0 -0.28346694717E+01  0.15535339472E+02  0.18573068568E+01  0.15900682770E+02  0.51100000000E-03 0. -1.
        -11    1    3    3    0    0  0.25497092354E+01  0.15294499618E+02  0.39504462319E+00  0.15510602705E+02  0.51100000000E-03 0.  1.
         12    1    3    3    0    0  0.22135322323E+02 -0.12276304444E+02  0.11713620026E+02  0.27890662224E+02  0.00000000000E+00 0. -1.
</event>
<event>
 7    1  0.6515090E-012  0.5930195E+02  0.7816164E-02  0.1266605E+00
        -11   -1    0    0    0    0  0.00000000000E+00  0.00000000000E+00  0.45593999997E+02  0.45594000000E+02  0.51100000000E-03 0.  1.
         11   -1    0    0    0    0 -0.00000000000E+00 -0.00000000000E+00 -0.45593999997E+02  0.45594000000E+02  0.51100000000E-03 0. -1.
    9900012    2    1    2    0    0  0.22644458171E+02 -0.90094197060E+01 -0.20561587600E+02  0.59301952676E+02  0.50000015772E+02 0.  0.
        -12    1    1    2    0    0 -0.22644458171E+02  0.90094197060E+01  0.20561587600E+02  0.31886047324E+02  0.00000000000E+00 0.  1.
         11    1    3    3    0    0  0.16921122724E+02 -0.17049229501E+01 -0.17033523935E+02  0.24070149447E+02  0.51100000000E-03 0. -1.
        -11    1    3    3    0    0  0.76593270828E+01 -0.18919183086E+02 -0.89276368587E+01  0.22277869740E+02  0.51100000000E-03 0.  1.
         12    1    3    3    0    0 -0.19359916352E+01  0.11614686330E+02  0.53995731936E+01  0.12953933489E+02  0.00000000000E+00 0. -1.
</event>
<event>
 7    1  0.6515090E-012  0.5930212E+02  0.7816164E-02  0.1266604E+00
        -11   -1    0    0    0    0  0.00000000000E+00  0.00000000000E+00  0.45593999997E+02  0.45594000000E+02  0.51100000000E-03 0. -1.
         11   -1    0    0    0    0 -0.00000000000E+00 -0.00000000000E+00 -0.45593999997E+02  0.45594000000E+02  0.51100000000E-03 0.  1.
    9900012    2    1    2    0    0 -0.17879537991E+02 -0.20970271492E+02  0.16039919428E+02  0.59302122554E+02  0.50000325589E+02 0.  0.
        -12    1    1    2    0    0  0.17879537991E+02  0.20970271492E+02 -0.16039919428E+02  0.31885877446E+02  0.00000000000E+00 0.  1.
         11    1    3    3    0    0 -0.11517986440E+01 -0.13265977944E+02  0.15626335696E+02  0.20530347744E+02  0.51100000000E-03 0. -1.
        -11    1    3    3    0    0 -0.16900297593E+02 -0.20040772954E+02 -0.16293684155E+01  0.26266089945E+02  0.51100000000E-03 0.  1.
        -12    1    3    3    0    0  0.17255824607E+00  0.12336479406E+02  0.20429521474E+01  0.12505684865E+02  0.00000000000E+00 0.  1.
</event>
<event>
 7    1  0.6515090E-012  0.5930205E+02  0.7816164E-02  0.1266604E+00
        -11   -1    0    0    0    0  0.00000000000E+00  0.00000000000E+00  0.45593999997E+02  0.45594000000E+02  0.51100000000E-03 0. -1.
         11   -1    0    0    0    0 -0.00000000000E+00 -0.00000000000E+00 -0.45593999997E+02  0.45594000000E+02  0.51100000000E-03 0.  1.
    9900012    2    1    2    0    0  0.12459795903E+02 -0.29073713163E+02 -0.40232666286E+01  0.59302047209E+02  0.50000188177E+02 0.  0.
        -12    1    1    2    0    0 -0.12459795903E+02  0.29073713163E+02  0.40232666286E+01  0.31885952791E+02  0.00000000000E+00 0.  1.
         11    1    3    3    0    0 -0.49771596534E+01 -0.25111991958E+02 -0.76531147502E+01  0.26719925598E+02  0.51100000000E-03 0. -1.
        -11    1    3    3    0    0 -0.48096735107E+01  0.58570357995E+01 -0.15100937093E+01  0.77277558779E+01  0.51100000000E-03 0.  1.
        -12    1    3    3    0    0  0.22246629067E+02 -0.98187570044E+01  0.51399418309E+01  0.24854365733E+02  0.00000000000E+00 0.  1.
</event>
<event>
 7    1  0.6515090E-012  0.5930195E+02  0.7816164E-02  0.1266605E+00
        -11   -1    0    0    0    0  0.00000000000E+00  0.00000000000E+00  0.45593999997E+02  0.45594000000E+02  0.51100000000E-03 0.  1.
         11   -1    0    0    0    0 -0.00000000000E+00 -0.00000000000E+00 -0.45593999997E+02  0.45594000000E+02  0.51100000000E-03 0. -1.
    9900012    2    1    2    0    0 -0.31875930465E+02 -0.49221124385E+00  0.63487700229E+00  0.59301948445E+02  0.50000008056E+02 0.  0.
        -12    1    1    2    0    0  0.31875930465E+02  0.49221124385E+00 -0.63487700229E+00  0.31886051555E+02  0.00000000000E+00 0.  1.
         11    1    3    3    0    0 -0.18553124612E+02 -0.33427465651E+01 -0.78318294747E+01  0.20413964354E+02  0.51100000000E-03 0. -1.
        -11    1    3    3    0    0 -0.20710886454E+02 -0.56707732841E+01  0.14680038088E+02  0.26011574459E+02  0.51100000000E-03 0.  1.
        -12    1    3    3    0    0  0.73880806000E+01  0.85213086053E+01 -0.62133316110E+01  0.12876409632E+02  0.00000000000E+00 0.  1.
</event>
<event>
 7    1  0.6515090E-012  0.5930197E+02  0.7816164E-02  0.1266605E+00
        -11   -1    0    0    0    0  0.00000000000E+00  0.00000000000E+00  0.45593999997E+02  0.45594000000E+02  0.51100000000E-03 0.  1.
         11   -1    0    0    0    0 -0.00000000000E+00 -0.00000000000E+00 -0.45593999997E+02  0.45594000000E+02  0.51100000000E-03 0. -1.
    9900012    2    1    2    0    0 -0.20174327643E+02  0.20667672604E+02  0.13511580260E+02  0.59301968766E+02  0.50000045118E+02 0.  0.
        -12    1    1    2    0    0  0.20174327643E+02 -0.20667672604E+02 -0.13511580260E+02  0.31886031234E+02  0.00000000000E+00 0.  1.
         11    1    3    3    0    0 -0.28177777248E+02  0.12696064598E+02 -0.38975849253E+01  0.31150736034E+02  0.51100000000E-03 0. -1.
        -11    1    3    3    0    0 -0.34032546145E+01  0.75230752874E+01  0.13972023370E+02  0.16229486778E+02  0.51100000000E-03 0.  1.
        -12    1    3    3    0    0  0.11406704220E+02  0.44853271893E+00  0.34371418147E+01  0.11921745955E+02  0.00000000000E+00 0.  1.
</event>
<event>
 7    1  0.6515090E-012  0.5930197E+02  0.7816164E-02  0.1266605E+00
        -11   -1    0    0    0    0  0.00000000000E+00  0.00000000000E+00  0.45593999997E+02  0.45594000000E+02  0.51100000000E-03 0. -1.
         11   -1    0    0    0    0 -0.00000000000E+00 -0.00000000000E+00 -0.45593999997E+02  0.45594000000E+02  0.51100000000E-03 0.  1.
    9900012    2    1    2    0    0  0.11039563288E+02  0.23579502502E+02  0.18407989314E+02  0.59301969102E+02  0.50000045730E+02 0.  0.
        -12    1    1    2    0    0 -0.11039563288E+02 -0.23579502502E+02 -0.18407989314E+02  0.31886030898E+02  0.00000000000E+00 0.  1.
         11    1    3    3    0    0  0.14739261310E+02  0.22381822519E+02  0.80659954025E+01  0.27986641194E+02  0.51100000000E-03 0. -1.
        -11    1    3    3    0    0  0.95530008307E+01  0.31116249784E+01 -0.47722731435E+01  0.11122797584E+02  0.51100000000E-03 0.  1.
         12    1    3    3    0    0 -0.13252698852E+02 -0.19139449954E+01  0.15114267055E+02  0.20192530325E+02  0.00000000000E+00 0. -1.
</event>
<event>
 7    1  0.6515090E-012  0.5930196E+02  0.7816164E-02  0.1266605E+00
        -11   -1    0    0    0    0  0.00000000000E+00  0.00000000000E+00  0.45593999997E+02  0.45594000000E+02  0.51100000000E-03 0.  1.
         11   -1    0    0    0    0 -0.00000000000E+00 -0.00000000000E+00 -0.45593999997E+02  0.45594000000E+02  0.51100000000E-03 0. -1.
    9900012    2    1    2    0    0  0.75862735920E+01 -0.10106804082E+02 -0.29274916972E+02  0.59301956039E+02  0.50000021906E+02 0.  0.
        -12    1    1    2    0    0 -0.75862735920E+01  0.10106804082E+02  0.29274916972E+02  0.31886043961E+02  0.00000000000E+00 0.  1.
         11    1    3    3    0    0  0.39269815896E+01  0.10490884840E+02 -0.21847619752E+02  0.24551951821E+02  0.51100000000E-03 0. -1.
        -11    1    3    3    0    0 -0.39912250719E+01  0.41842669340E+01 -0.66359788691E+01  0.88019420108E+01  0.51100000000E-03 0.  1.
        -12    1    3    3    0    0  0.76505170744E+01 -0.24781955856E+02 -0.79131835067E+00  0.25948062207E+02  0.00000000000E+00 0.  1.
</event>
<event>
 7    1  0.6515090E-012  0.5930193E+02  0.7816164E-02  0.1266605E+00
        -11   -1    0    0    0    0  0.00000000000E+00  0.00000000000E+00  0.45593999997E+02  0.45594000000E+02  0.51100000000E-03 0. -1.
         11   -1    0    0    0    0 -0.00000000000E+00 -0.00000000000E+00 -0.45593999997E+02  0.45594000000E+02  0.51100000000E-03 0.  1.
    9900012    2    1    2    0    0 -0.83505928656E+01  0.17414435048E+02  0.25371761319E+02  0.59301933738E+02  0.49999981234E+02 0.  0.
        -12    1    1    2    0    0  0.83505928656E+01 -0.17414435048E+02 -0.25371761319E+02  0.31886066262E+02  0.00000000000E+00 0.  1.
         11    1    3    3    0    0 -0.19686801263E+02 -0.48792770124E+01  0.26894004034E+02  0.33684787982E+02  0.51100000000E-03 0. -1.
        -11    1    3    3    0    0  0.11419661989E+01  0.69040821203E+00  0.89591123522E+00  0.16072981992E+01  0.51100000000E-03 0.  1.
         12    1    3    3    0    0  0.10194242199E+02  0.21603303848E+02 -0.24181539511E+01  0.24009847557E+02  0.00000000000E+00 0. -1.
</event>
<event>
 7    1  0.6515090E-012  0.5930195E+02  0.7816164E-02  0.1266605E+00
        -11   -1    0    0    0    0  0.00000000000E+00  0.00000000000E+00  0.45593999997E+02  0.45594000000E+02  0.51100000000E-03 0. -1.
         11   -1    0    0    0    0 -0.00000000000E+00 -0.00000000000E+00 -0.45593999997E+02  0.45594000000E+02  0.51100000000E-03 0.  1.
    9900012    2    1    2    0    0 -0.61509855141E+01 -0.28453262295E+02  0.13011426161E+02  0.59301953384E+02  0.50000017064E+02 0.  0.
        -12    1    1    2    0    0  0.61509855141E+01  0.28453262295E+02 -0.13011426161E+02  0.31886046616E+02  0.00000000000E+00 0.  1.
         11    1    3    3    0    0 -0.17555880671E+02 -0.11282717899E+02  0.18869654902E+02  0.28134899070E+02  0.51100000000E-03 0. -1.
        -11    1    3    3    0    0 -0.59703923670E+01 -0.32008012363E+00  0.87790900220E+00  0.60430754405E+01  0.51100000000E-03 0.  1.
         12    1    3    3    0    0  0.17375287524E+02 -0.16850464273E+02 -0.67361377437E+01  0.25123978874E+02  0.00000000000E+00 0. -1.
</event>
<event>
 7    1  0.6515090E-012  0.5930195E+02  0.7816164E-02  0.1266605E+00
        -11   -1    0    0    0    0  0.00000000000E+00  0.00000000000E+00  0.45593999997E+02  0.45594000000E+02  0.51100000000E-03 0.  1.
         11   -1    0    0    0    0 -0.00000000000E+00 -0.00000000000E+00 -0.45593999997E+02  0.45594000000E+02  0.51100000000E-03 0. -1.
    9900012    2    1    2    0    0  0.13885877601E+02 -0.13413653105E+02 -0.25376691053E+02  0.59301950776E+02  0.50000012306E+02 0.  0.
        -12    1    1    2    0    0 -0.13885877601E+02  0.13413653105E+02  0.25376691053E+02  0.31886049224E+02  0.00000000000E+00 0.  1.
         11    1    3    3    0    0  0.85991078697E+01  0.34967938885E+01 -0.28432601121E+02  0.29909614348E+02  0.51100000000E-03 0. -1.
        -11    1    3    3    0    0 -0.79614118939E+01 -0.64784293723E+00 -0.92816149644E+00  0.80414714971E+01  0.51100000000E-03 0.  1.
        -12    1    3    3    0    0  0.13248181625E+02 -0.16262604056E+02  0.39840715650E+01  0.21350864931E+02  0.00000000000E+00 0.  1.
</event>
<event>
 7    1  0.6515090E-012  0.5930190E+02  0.7816164E-02  0.1266605E+00
        -11   -1    0    0    0    0  0.00000000000E+00  0.00000000000E+00  0.45593999997E+02  0.45594000000E+02  0.51100000000E-03 0.  1.
         11   -1    0    0    0    0 -0.00000000000E+00 -0.00000000000E+00 -0.45593999997E+02  0.45594000000E+02  0.51100000000E-03 0. -1.
    9900012    2    1    2    0    0 -0.44108269658E+01 -0.20223695520E+02 -0.24254276420E+02  0.59301903035E+02  0.49999925239E+02 0.  0.
        -12    1    1    2    0    0  0.44108269658E+01  0.20223695520E+02  0.24254276420E+02  0.31886096965E+02  0.00000000000E+00 0.  1.
         11    1    3    3    0    0  0.19478895157E+01  0.94182696451E+00 -0.31249000209E+01  0.38008304353E+01  0.51100000000E-03 0. -1.
        -11    1    3    3    0    0  0.13956912609E+02  0.70324574023E+01 -0.17960766877E+01  0.15731394040E+02  0.51100000000E-03 0.  1.
         12    1    3    3    0    0 -0.20315629091E+02 -0.28197979887E+02 -0.19333299711E+02  0.39769678560E+02  0.00000000000E+00 0. -1.
</event>
<event>
 7    1  0.6515090E-012  0.5930192E+02  0.7816164E-02  0.1266605E+00
        -11   -1    0    0    0    0  0.00000000000E+00  0.00000000000E+00  0.45593999997E+02  0.45594000000E+02  0.51100000000E-03 0.  1.
         11   -1    0    0    0    0 -0.00000000000E+00 -0.00000000000E+00 -0.45593999997E+02  0.45594000000E+02  0.51100000000E-03 0. -1.
    9900012    2    1    2    0    0  0.14918553410E+01 -0.16622035135E+02 -0.27169912681E+02  0.59301924050E+02  0.49999963565E+02 0.  0.
        -12    1    1    2    0    0 -0.14918553410E+01  0.16622035135E+02  0.27169912681E+02  0.31886075950E+02  0.00000000000E+00 0.  1.
         11    1    3    3    0    0 -0.20113223529E+02  0.45883181858E+00 -0.57799505698E+01  0.20932274511E+02  0.51100000000E-03 0. -1.
        -11    1    3    3    0    0 -0.17789786176E+01  0.61572123660E+00 -0.36203696026E+01  0.40805580358E+01  0.51100000000E-03 0.  1.
         12    1    3    3    0    0  0.23384057487E+02 -0.17696588190E+02 -0.17769592509E+02  0.34289091503E+02  0.00000000000E+00 0. -1.
</event>
<event>
 7    1  0.6515090E-012  0.5930201E+02  0.7816164E-02  0.1266605E+00
        -11   -1    0    0    0    0  0.00000000000E+00  0.00000000000E+00  0.45593999997E+02  0.45594000000E+02  0.51100000000E-03 0.  1.
         11   -1    0    0    0    0 -0.00000000000E+00 -0.00000000000E+00 -0.45593999997E+02  0.45594000000E+02  0.51100000000E-03 0. -1.
    9900012    2    1    2    0    0  0.16318474264E+02  0.21120243954E+02 -0.17445888691E+02  0.59302010299E+02  0.50000120862E+02 0.  0.
        -12    1    1    2    0    0 -0.16318474264E+02 -0.21120243954E+02  0.17445888691E+02  0.31885989701E+02  0.00000000000E+00 0.  1.
         11    1    3    3    0    0  0.68755589260E+01  0.25752089607E+01 -0.33009328357E+01  0.80499173650E+01  0.51100000000E-03 0. -1.
        -11    1    3    3    0    0  0.26368451938E+02  0.35084417101E+01 -0.83796984560E+01  0.27889492059E+02  0.51100000000E-03 0.  1.
        -12    1    3    3    0    0 -0.16925536600E+02  0.15036593284E+02 -0.57652573994E+01  0.23362600875E+02  0.00000000000E+00 0.  1.
</event>
<event>
 7    1  0.6515090E-012  0.5930196E+02  0.7816164E-02  0.1266605E+00
        -11   -1    0    0    0    0  0.00000000000E+00  0.00000000000E+00  0.45593999997E+02  0.45594000000E+02  0.51100000000E-03 0.  1.
         11   -1    0    0    0    0 -0.00000000000E+00 -0.00000000000E+00 -0.45593999997E+02  0.45594000000E+02  0.51100000000E-03 0. -1.
    9900012    2    1    2    0    0  0.22876283292E+02 -0.22171340807E+02 -0.13517179246E+01  0.59301955533E+02  0.50000020982E+02 0.  0.
        -12    1    1    2    0    0 -0.22876283292E+02  0.22171340807E+02  0.13517179246E+01  0.31886044467E+02  0.00000000000E+00 0.  1.
         11    1    3    3    0    0 -0.68380847979E-01 -0.32656909457E+00  0.37699362499E+01  0.37846720998E+01  0.51100000000E-03 0. -1.
        -11    1    3    3    0    0 -0.12293428999E+02 -0.13177196873E+02  0.31589795353E+01  0.18296066953E+02  0.51100000000E-03 0.  1.
         12    1    3    3    0    0  0.35238093138E+02 -0.86675748397E+01 -0.82806337098E+01  0.37221216480E+02  0.00000000000E+00 0. -1.
</event>
<event>
 7    1  0.6515090E-012  0.5930193E+02  0.7816164E-02  0.1266605E+00
        -11   -1    0    0    0    0  0.00000000000E+00  0.00000000000E+00  0.45593999997E+02  0.45594000000E+02  0.51100000000E-03 0. -1.
         11   -1    0    0    0    0 -0.00000000000E+00 -0.00000000000E+00 -0.45593999997E+02  0.45594000000E+02  0.51100000000E-03 0.  1.
    9900012    2    1    2    0    0  0.28080660579E+02 -0.14577214500E+02 -0.39626561954E+01  0.59301932114E+02  0.49999978271E+02 0.  0.
        -12    1    1    2    0    0 -0.28080660579E+02  0.14577214500E+02  0.39626561954E+01  0.31886067886E+02  0.00000000000E+00 0.  1.
         11    1    3    3    0    0  0.10655987570E+02 -0.11691616120E+02 -0.17602781512E+02  0.23666471554E+02  0.51100000000E-03 0. -1.
        -11    1    3    3    0    0  0.87137287505E+01  0.31510908031E+01 -0.75436594049E+01  0.11948440880E+02  0.51100000000E-03 0.  1.
         12    1    3    3    0    0  0.87109442583E+01 -0.60366891832E+01  0.21183784722E+02  0.23687019679E+02  0.00000000000E+00 0. -1.
</event>
<event>
 7    1  0.6515090E-012  0.5930194E+02  0.7816164E-02  0.1266605E+00
        -11   -1    0    0    0    0  0.00000000000E+00  0.00000000000E+00  0.45593999997E+02  0.45594000000E+02  0.51100000000E-03 0.  1.
         11   -1    0    0    0    0 -0.00000000000E+00 -0.00000000000E+00 -0.45593999997E+02  0.45594000000E+02  0.51100000000E-03 0. -1.
    9900012    2    1    2    0    0  0.31797526882E+02  0.84966173307E-01  0.23728891992E+01  0.59301944455E+02  0.50000000779E+02 0.  0.
        -12    1    1    2    0    0 -0.31797526882E+02 -0.84966173307E-01 -0.23728891992E+01  0.31886055545E+02  0.00000000000E+00 0.  1.
         11    1    3    3    0    0  0.22001063470E+02 -0.41910631509E+01 -0.14712584389E+02  0.26796864440E+02  0.51100000000E-03 0. -1.
        -11    1    3    3    0    0  0.17037810224E+02 -0.30897941578E+01  0.10329512816E+02  0.20162654598E+02  0.51100000000E-03 0.  1.
        -12    1    3    3    0    0 -0.72413468117E+01  0.73658234821E+01  0.67559607724E+01  0.12342425417E+02  0.00000000000E+00 0.  1.
</event>
<event>
 7    1  0.6515090E-012  0.5930198E+02  0.7816164E-02  0.1266605E+00
        -11   -1    0    0    0    0  0.00000000000E+00  0.00000000000E+00  0.45593999997E+02  0.45594000000E+02  0.51100000000E-03 0. -1.
         11   -1    0    0    0    0 -0.00000000000E+00 -0.00000000000E+00 -0.45593999997E+02  0.45594000000E+02  0.51100000000E-03 0.  1.
    9900012    2    1    2    0    0  0.22450462585E+02 -0.32888982157E+01  0.22402638510E+02  0.59301979020E+02  0.50000063817E+02 0.  0.
        -12    1    1    2    0    0 -0.22450462585E+02  0.32888982157E+01 -0.22402638510E+02  0.31886020980E+02  0.00000000000E+00 0.  1.
         11    1    3    3    0    0  0.18782415532E+02  0.10504340216E+02  0.57875852464E+01  0.22284892637E+02  0.51100000000E-03 0. -1.
        -11    1    3    3    0    0  0.10660887709E+02  0.46478990852E+01  0.12102932927E+02  0.16785067124E+02  0.51100000000E-03 0.  1.
        -12    1    3    3    0    0 -0.69928406566E+01 -0.18441137517E+02  0.45121203360E+01  0.20232019259E+02  0.00000000000E+00 0.  1.
</event>
<event>
 7    1  0.6515090E-012  0.5930194E+02  0.7816164E-02  0.1266605E+00
        -11   -1    0    0    0    0  0.00000000000E+00  0.00000000000E+00  0.45593999997E+02  0.45594000000E+02  0.51100000000E-03 0. -1.
         11   -1    0    0    0    0 -0.00000000000E+00 -0.00000000000E+00 -0.45593999997E+02  0.45594000000E+02  0.51100000000E-03 0.  1.
    9900012    2    1    2    0    0  0.24533586953E+02 -0.19436277202E+02 -0.60872908220E+01  0.59301939255E+02  0.49999991296E+02 0.  0.
        -12    1    1    2    0    0 -0.24533586953E+02  0.19436277202E+02  0.60872908220E+01  0.31886060745E+02  0.00000000000E+00 0.  1.
         11    1    3    3    0    0  0.23265227331E+01 -0.26560222068E+02 -0.11976401236E+02  0.29228278963E+02  0.51100000000E-03 0. -1.
        -11    1    3    3    0    0 -0.30077337416E+01  0.21756069041E+00  0.20580016404E+01  0.36509130265E+01  0.51100000000E-03 0.  1.
        -12    1    3    3    0    0  0.25214797962E+02  0.69063841757E+01  0.38311087736E+01  0.26422747266E+02  0.00000000000E+00 0.  1.
</event>
<event>
 7    1  0.6515090E-012  0.5930197E+02  0.7816164E-02  0.1266605E+00
        -11   -1    0    0    0    0  0.00000000000E+00  0.00000000000E+00  0.45593999997E+02  0.45594000000E+02  0.51100000000E-03 0.  1.
         11   -1    0    0    0    0 -0.00000000000E+00 -0.00000000000E+00 -0.45593999997E+02  0.45594000000E+02  0.51100000000E-03 0. -1.
    9900012    2    1    2    0    0  0.33336584799E+01  0.19892570654E+02 -0.24695976137E+02  0.59301970403E+02  0.50000048103E+02 0.  0.
        -12    1    1    2    0    0 -0.33336584799E+01 -0.19892570654E+02  0.24695976137E+02  0.31886029597E+02  0.00000000000E+00 0.  1.
         11    1    3    3    0    0 -0.32046235663E+00  0.23912183441E+01  0.80381465325E+00  0.25429784799E+01  0.51100000000E-03 0. -1.
        -11    1    3    3    0    0 -0.19285171556E+02  0.18871985346E+02 -0.89083439704E+01  0.28415282251E+02  0.51100000000E-03 0.  1.
         12    1    3    3    0    0  0.22939292393E+02 -0.13706330365E+01 -0.16591446820E+02  0.28343709672E+02  0.00000000000E+00 0. -1.
</event>
<event>
 7    1  0.6515090E-012  0.5930192E+02  0.7816164E-02  0.1266605E+00
        -11   -1    0    0    0    0  0.00000000000E+00  0.00000000000E+00  0.45593999997E+02  0.45594000000E+02  0.51100000000E-03 0. -1.
         11   -1    0    0    0    0 -0.00000000000E+00 -0.00000000000E+00 -0.45593999997E+02  0.45594000000E+02  0.51100000000E-03 0.  1.
    9900012    2    1    2    0    0  0.30235083010E+02  0.99782044932E+01  0.17312482969E+01  0.59301921059E+02  0.49999958111E+02 0.  0.
        -12    1    1    2    0    0 -0.30235083010E+02 -0.99782044932E+01 -0.17312482969E+01  0.31886078941E+02  0.00000000000E+00 0.  1.
         11    1    3    3    0    0  0.36890822035E+01 -0.62943096505E+00 -0.15972725043E+01  0.40690036322E+01  0.51100000000E-03 0. -1.
        -11    1    3    3    0    0  0.89316758646E+01 -0.10316549625E+02 -0.16528604116E+02  0.21433636747E+02  0.51100000000E-03 0.  1.
        -12    1    3    3    0    0  0.17614324942E+02  0.20924185083E+02  0.19857124917E+02  0.33799280681E+02  0.00000000000E+00 0.  1.
</event>
<event>
 7    1  0.6515090E-012  0.5930195E+02  0.7816164E-02  0.1266605E+00
        -11   -1    0    0    0    0  0.00000000000E+00  0.00000000000E+00  0.45593999997E+02  0.45594000000E+02  0.51100000000E-03 0.  1.
         11   -1    0    0    0    0 -0.00000000000E+00 -0.00000000000E+00 -0.45593999997E+02  0.45594000000E+02  0.51100000000E-03 0. -1.
    9900012    2    1    2    0    0  0.22451850825E+02 -0.18599300095E+02 -0.12911260873E+02  0.59301949338E+02  0.50000009685E+02 0.  0.
        -12    1    1    2    0    0 -0.22451850825E+02  0.18599300095E+02  0.12911260873E+02  0.31886050662E+02  0.00000000000E+00 0.  1.
         11    1    3    3    0    0 -0.16008459659E+01 -0.71729334106E+01 -0.21429420367E+01  0.76554478872E+01  0.51100000000E-03 0. -1.
        -11    1    3    3    0    0 -0.78901735695E+01 -0.16263565808E+02 -0.56333615102E+01  0.18933915968E+02  0.51100000000E-03 0.  1.
        -12    1    3    3    0    0  0.31942870360E+02  0.48371991231E+01 -0.51349573260E+01  0.32712585482E+02  0.00000000000E+00 0.  1.
</event>
<event>
 7    1  0.6515090E-012  0.5930194E+02  0.7816164E-02  0.1266605E+00
        -11   -1    0    0    0    0  0.00000000000E+00  0.00000000000E+00  0.45593999997E+02  0.45594000000E+02  0.51100000000E-03 0.  1.
         11   -1    0    0    0    0 -0.00000000000E+00 -0.00000000000E+00 -0.45593999997E+02  0.45594000000E+02  0.51100000000E-03 0. -1.
    9900012    2    1    2    0    0  0.24754195971E+01  0.16267456244E+02 -0.27312323394E+02  0.59301939660E+02  0.49999992034E+02 0.  0.
        -12    1    1    2    0    0 -0.24754195971E+01 -0.16267456244E+02  0.27312323394E+02  0.31886060340E+02  0.00000000000E+00 0.  1.
         11    1    3    3    0    0 -0.57478120256E-01 -0.74989184197E+01  0.28287957229E+01  0.80149339799E+01  0.51100000000E-03 0. -1.
        -11    1    3    3    0    0  0.65284397278E+01  0.62491493217E+01  0.60540996256E+01  0.10877707252E+02  0.51100000000E-03 0.  1.
         12    1    3    3    0    0 -0.39955420105E+01  0.17517225342E+02 -0.36195218742E+02  0.40409298428E+02  0.00000000000E+00 0. -1.
</event>
<event>
 7    1  0.6515090E-012  0.5930208E+02  0.7816164E-02  0.1266604E+00
        -11   -1    0    0    0    0  0.00000000000E+00  0.00000000000E+00  0.45593999997E+02  0.45594000000E+02  0.51100000000E-03 0.  1.
         11   -1    0    0    0    0 -0.00000000000E+00 -0.00000000000E+00 -0.45593999997E+02  0.45594000000E+02  0.51100000000E-03 0. -1.
    9900012    2    1    2    0    0  0.17560652043E+02 -0.16126512903E+02  0.21172406886E+02  0.59302082545E+02  0.50000252622E+02 0.  0.
        -12    1    1    2    0    0 -0.17560652043E+02  0.16126512903E+02 -0.21172406886E+02  0.31885917455E+02  0.00000000000E+00 0.  1.
         11    1    3    3    0    0  0.14446622423E+01 -0.72912498504E+01  0.65564575458E+01  0.99114332560E+01  0.51100000000E-03 0. -1.
        -11    1    3    3    0    0 -0.14345310025E+02  0.63175355394E+00  0.91513197595E+01  0.17027439205E+02  0.51100000000E-03 0.  1.
        -12    1    3    3    0    0  0.30461299826E+02 -0.94670166066E+01  0.54646295809E+01  0.32363210084E+02  0.00000000000E+00 0.  1.
</event>
<event>
 7    1  0.6515090E-012  0.5930195E+02  0.7816164E-02  0.1266605E+00
        -11   -1    0    0    0    0  0.00000000000E+00  0.00000000000E+00  0.45593999997E+02  0.45594000000E+02  0.51100000000E-03 0. -1.
         11   -1    0    0    0    0 -0.00000000000E+00 -0.00000000000E+00 -0.45593999997E+02  0.45594000000E+02  0.51100000000E-03 0.  1.
    9900012    2    1    2    0    0 -0.12671331469E+02  0.24155770003E+02  0.16512307270E+02  0.59301950432E+02  0.50000011680E+02 0.  0.
        -12    1    1    2    0    0  0.12671331469E+02 -0.24155770003E+02 -0.16512307270E+02  0.31886049568E+02  0.00000000000E+00 0.  1.
         11    1    3    3    0    0 -0.64952271305E+01  0.86740595256E+01 -0.58680367694E+01  0.12323195199E+02  0.51100000000E-03 0. -1.
        -11    1    3    3    0    0  0.92165688382E+01 -0.73386550013E+01  0.45955764896E+00  0.11790343162E+02  0.51100000000E-03 0.  1.
         12    1    3    3    0    0 -0.15392673176E+02  0.22820365479E+02  0.21920786391E+02  0.35188412071E+02  0.00000000000E+00 0. -1.
</event>
<event>
 7    1  0.6515090E-012  0.5930195E+02  0.7816164E-02  0.1266605E+00
        -11   -1    0    0    0    0  0.00000000000E+00  0.00000000000E+00  0.45593999997E+02  0.45594000000E+02  0.51100000000E-03 0.  1.
         11   -1    0    0    0    0 -0.00000000000E+00 -0.00000000000E+00 -0.45593999997E+02  0.45594000000E+02  0.51100000000E-03 0. -1.
    9900012    2    1    2    0    0  0.25090548159E+02  0.14639471710E+02 -0.13148011486E+02  0.59301953759E+02  0.50000017747E+02 0.  0.
        -12    1    1    2    0    0 -0.25090548159E+02 -0.14639471710E+02  0.13148011486E+02  0.31886046241E+02  0.00000000000E+00 0.  1.
         11    1    3    3    0    0  0.15757307327E+02  0.24652854869E+02 -0.12876247905E+02  0.31966447218E+02  0.51100000000E-03 0. -1.
        -11    1    3    3    0    0 -0.56480325132E+01 -0.26161028739E+01 -0.69610765398E+01  0.93381396633E+01  0.51100000000E-03 0.  1.
        -12    1    3    3    0    0  0.14981273345E+02 -0.73972802846E+01  0.66893129589E+01  0.17997366877E+02  0.00000000000E+00 0.  1.
</event>
<event>
 7    1  0.6515090E-012  0.5930234E+02  0.7816164E-02  0.1266603E+00
        -11   -1    0    0    0    0  0.00000000000E+00  0.00000000000E+00  0.45593999997E+02  0.45594000000E+02  0.51100000000E-03 0.  1.
         11   -1    0    0    0    0 -0.00000000000E+00 -0.00000000000E+00 -0.45593999997E+02  0.45594000000E+02  0.51100000000E-03 0. -1.
    9900012    2    1    2    0    0 -0.21508349780E+02 -0.61502999475E+01 -0.22721350802E+02  0.59302343633E+02  0.50000728779E+02 0.  0.
        -12    1    1    2    0    0  0.21508349780E+02  0.61502999475E+01  0.22721350802E+02  0.31885656367E+02  0.00000000000E+00 0.  1.
         11    1    3    3    0    0 -0.16174226809E+02 -0.49918769862E+01 -0.15369226663E+02  0.22863455058E+02  0.51100000000E-03 0. -1.
        -11    1    3    3    0    0 -0.11974730934E+02  0.13934867467E+02  0.27782655778E-01  0.18373227381E+02  0.51100000000E-03 0.  1.
        -12    1    3    3    0    0  0.66406079628E+01 -0.15093290428E+02 -0.73799067949E+01  0.18065661194E+02  0.00000000000E+00 0.  1.
</event>
<event>
 7    1  0.6515090E-012  0.5930195E+02  0.7816164E-02  0.1266605E+00
        -11   -1    0    0    0    0  0.00000000000E+00  0.00000000000E+00  0.45593999997E+02  0.45594000000E+02  0.51100000000E-03 0.  1.
         11   -1    0    0    0    0 -0.00000000000E+00 -0.00000000000E+00 -0.45593999997E+02  0.45594000000E+02  0.51100000000E-03 0. -1.
    9900012    2    1    2    0    0  0.25962921670E+02  0.41184761240E+01  0.18046750080E+02  0.59301947631E+02  0.50000006572E+02 0.  0.
        -12    1    1    2    0    0 -0.25962921670E+02 -0.41184761240E+01 -0.18046750080E+02  0.31886052369E+02  0.00000000000E+00 0.  1.
         11    1    3    3    0    0  0.45924609813E+01 -0.79644241967E+01  0.46668189966E+01  0.10310283723E+02  0.51100000000E-03 0. -1.
        -11    1    3    3    0    0  0.31328802120E+01 -0.88968107874E+01 -0.92015507562E+01  0.13177128564E+02  0.51100000000E-03 0.  1.
         12    1    3    3    0    0  0.18237580477E+02  0.20979711108E+02  0.22581481840E+02  0.35814535344E+02  0.00000000000E+00 0. -1.
</event>
<event>
 7    1  0.6515090E-012  0.5930197E+02  0.7816164E-02  0.1266605E+00
        -11   -1    0    0    0    0  0.00000000000E+00  0.00000000000E+00  0.45593999997E+02  0.45594000000E+02  0.51100000000E-03 0.  1.
         11   -1    0    0    0    0 -0.00000000000E+00 -0.00000000000E+00 -0.45593999997E+02  0.45594000000E+02  0.51100000000E-03 0. -1.
    9900012    2    1    2    0    0  0.22296589288E+02  0.64285982614E+01 -0.21869020692E+02  0.59301971155E+02  0.50000049473E+02 0.  0.
        -12    1    1    2    0    0 -0.22296589288E+02 -0.64285982614E+01  0.21869020692E+02  0.31886028845E+02  0.00000000000E+00 0.  1.
         11    1    3    3    0    0  0.96210001422E+01 -0.56860900739E+01 -0.69871554542E+00  0.11197475954E+02  0.51100000000E-03 0. -1.
        -11    1    3    3    0    0  0.24484752679E+02  0.17185894603E+02 -0.11616647806E+02  0.32090568607E+02  0.51100000000E-03 0.  1.
        -12    1    3    3    0    0 -0.11809163533E+02 -0.50712062676E+01 -0.95536573410E+01  0.16013926594E+02  0.00000000000E+00 0.  1.
</event>
<event>
 7    1  0.6515090E-012  0.5930196E+02  0.7816164E-02  0.1266605E+00
        -11   -1    0    0    0    0  0.00000000000E+00  0.00000000000E+00  0.45593999997E+02  0.45594000000E+02  0.51100000000E-03 0. -1.
         11   -1    0    0    0    0 -0.00000000000E+00 -0.00000000000E+00 -0.45593999997E+02  0.45594000000E+02  0.51100000000E-03 0.  1.
    9900012    2    1    2    0    0 -0.34720122707E+01 -0.31690505735E+02 -0.61360372688E+00  0.59301960225E+02  0.50000029541E+02 0.  0.
        -12    1    1    2    0    0  0.34720122707E+01  0.31690505735E+02  0.61360372688E+00  0.31886039775E+02  0.00000000000E+00 0.  1.
         11    1    3    3    0    0 -0.39896010491E+01 -0.10548175230E+02 -0.23704019263E+01  0.11523876204E+02  0.51100000000E-03 0. -1.
        -11    1    3    3    0    0 -0.79511419949E+01 -0.28399926864E+02 -0.10407697463E+02  0.31274537113E+02  0.51100000000E-03 0.  1.
        -12    1    3    3    0    0  0.84687307733E+01  0.72575963591E+01  0.12164495662E+02  0.16503546908E+02  0.00000000000E+00 0.  1.
</event>
<event>
 7    1  0.6515090E-012  0.5930195E+02  0.7816164E-02  0.1266605E+00
        -11   -1    0    0    0    0  0.00000000000E+00  0.00000000000E+00  0.45593999997E+02  0.45594000000E+02  0.51100000000E-03 0. -1.
         11   -1    0    0    0    0 -0.00000000000E+00 -0.00000000000E+00 -0.45593999997E+02  0.45594000000E+02  0.51100000000E-03 0.  1.
    9900012    2    1    2    0    0 -0.83495118402E+01  0.18481442482E+02  0.24605727882E+02  0.59301954325E+02  0.50000018779E+02 0.  0.
        -12    1    1    2    0    0  0.83495118402E+01 -0.18481442482E+02 -0.24605727882E+02  0.31886045675E+02  0.00000000000E+00 0.  1.
         11    1    3    3    0    0  0.31593817698E+01 -0.12124958757E+01 -0.45209144776E+01  0.56471680859E+01  0.51100000000E-03 0. -1.
        -11    1    3    3    0    0  0.10912934372E+02  0.18794672710E+02  0.90411695852E+01  0.23538789404E+02  0.51100000000E-03 0.  1.
         12    1    3    3    0    0 -0.22421827982E+02  0.89926564833E+00  0.20085472775E+02  0.30115996835E+02  0.00000000000E+00 0. -1.
</event>
<event>
 7    1  0.6515090E-012  0.5930195E+02  0.7816164E-02  0.1266605E+00
        -11   -1    0    0    0    0  0.00000000000E+00  0.00000000000E+00  0.45593999997E+02  0.45594000000E+02  0.51100000000E-03 0.  1.
         11   -1    0    0    0    0 -0.00000000000E+00 -0.00000000000E+00 -0.45593999997E+02  0.45594000000E+02  0.51100000000E-03 0. -1.
    9900012    2    1    2    0    0  0.15407328050E+02 -0.27648581709E+02 -0.38587985310E+01  0.59301950476E+02  0.50000011759E+02 0.  0.
        -12    1    1    2    0    0 -0.15407328050E+02  0.27648581709E+02  0.38587985310E+01  0.31886049524E+02  0.00000000000E+00 0.  1.
         11    1    3    3    0    0  0.55410944833E+01 -0.64693554702E+01 -0.15278497290E+02  0.17492534636E+02  0.51100000000E-03 0. -1.
        -11    1    3    3    0    0  0.38299546585E+01  0.34032039300E+01 -0.82781964859E+01  0.97354448792E+01  0.51100000000E-03 0.  1.
        -12    1    3    3    0    0  0.60362789082E+01 -0.24582430169E+02  0.19697895245E+02  0.32073970960E+02  0.00000000000E+00 0.  1.
</event>
<event>
 7    1  0.6515090E-012  0.5930197E+02  0.7816164E-02  0.1266605E+00
        -11   -1    0    0    0    0  0.00000000000E+00  0.00000000000E+00  0.45593999997E+02  0.45594000000E+02  0.51100000000E-03 0. -1.
         11   -1    0    0    0    0 -0.00000000000E+00 -0.00000000000E+00 -0.45593999997E+02  0.45594000000E+02  0.51100000000E-03 0.  1.
    9900012    2    1    2    0    0 -0.54106678113E+01  0.12295539547E+02 -0.28918217013E+02  0.59301970236E+02  0.50000047797E+02 0.  0.
        -12    1    1    2    0    0  0.54106678113E+01 -0.12295539547E+02  0.28918217013E+02  0.31886029764E+02  0.00000000000E+00 0.  1.
         11    1    3    3    0    0  0.74906512097E+01 -0.66292325872E+00 -0.14554417078E+02  0.16382319113E+02  0.51100000000E-03 0. -1.
        -11    1    3    3    0    0 -0.20213373010E+02  0.10985568648E+02 -0.22236330613E+02  0.31995586670E+02  0.51100000000E-03 0.  1.
         12    1    3    3    0    0  0.73120539885E+01  0.19728941578E+01  0.78725306783E+01  0.10924064453E+02  0.00000000000E+00 0. -1.
</event>
<event>
 7    1  0.6515090E-012  0.5930194E+02  0.7816164E-02  0.1266605E+00
        -11   -1    0    0    0    0  0.00000000000E+00  0.00000000000E+00  0.45593999997E+02  0.45594000000E+02  0.51100000000E-03 0. -1.
         11   -1    0    0    0    0 -0.00000000000E+00 -0.00000000000E+00 -0.45593999997E+02  0.45594000000E+02  0.51100000000E-03 0.  1.
    9900012    2    1    2    0    0  0.49462938697E+01 -0.15723694073E+02  0.27295058147E+02  0.59301943838E+02  0.49999999654E+02 0.  0.
        -12    1    1    2    0    0 -0.49462938697E+01  0.15723694073E+02 -0.27295058147E+02  0.31886056162E+02  0.00000000000E+00 0.  1.
         11    1    3    3    0    0  0.17669388252E+01  0.23545963314E+01  0.34604381863E+02  0.34729374326E+02  0.51100000000E-03 0. -1.
        -11    1    3    3    0    0  0.17489141308E+01 -0.12343416037E+02  0.28781681990E+01  0.12794626705E+02  0.51100000000E-03 0.  1.
        -12    1    3    3    0    0  0.14304409137E+01 -0.57348743681E+01 -0.10187491915E+02  0.11777942806E+02  0.00000000000E+00 0.  1.
</event>
<event>
 7    1  0.6515090E-012  0.5930197E+02  0.7816164E-02  0.1266605E+00
        -11   -1    0    0    0    0  0.00000000000E+00  0.00000000000E+00  0.45593999997E+02  0.45594000000E+02  0.51100000000E-03 0. -1.
         11   -1    0    0    0    0 -0.00000000000E+00 -0.00000000000E+00 -0.45593999997E+02  0.45594000000E+02  0.51100000000E-03 0.  1.
    9900012    2    1    2    0    0  0.30919891291E+02  0.31686221576E+01 -0.71161229317E+01  0.59301967801E+02  0.50000043357E+02 0.  0.
        -12    1    1    2    0    0 -0.30919891291E+02 -0.31686221576E+01  0.71161229317E+01  0.31886032199E+02  0.00000000000E+00 0.  1.
         11    1    3    3    0    0 -0.45247244293E+01 -0.88111686510E+01  0.68396124875E+01  0.12037031337E+02  0.51100000000E-03 0. -1.
        -11    1    3    3    0    0  0.68059272312E+01 -0.20345959902E+01 -0.13640780402E+02  0.15379568153E+02  0.51100000000E-03 0.  1.
        -12    1    3    3    0    0  0.28638688489E+02  0.14014386799E+02 -0.31495501706E+00  0.31885368312E+02  0.00000000000E+00 0.  1.
</event>
<event>
 7    1  0.6515090E-012  0.5930190E+02  0.7816164E-02  0.1266605E+00
        -11   -1    0    0    0    0  0.00000000000E+00  0.00000000000E+00  0.45593999997E+02  0.45594000000E+02  0.51100000000E-03 0.  1.
         11   -1    0    0    0    0 -0.00000000000E+00 -0.00000000000E+00 -0.45593999997E+02  0.45594000000E+02  0.51100000000E-03 0. -1.
    9900012    2    1    2    0    0  0.34794700658E+01  0.10282771646E+02 -0.29981350355E+02  0.59301898423E+02  0.49999916828E+02 0.  0.
        -12    1    1    2    0    0 -0.34794700658E+01 -0.10282771646E+02  0.29981350355E+02  0.31886101577E+02  0.00000000000E+00 0.  1.
         11    1    3    3    0    0 -0.20688670623E+02  0.89232121700E+01 -0.13534175209E+02  0.26283430264E+02  0.51100000000E-03 0. -1.
        -11    1    3    3    0    0 -0.21671651693E+01  0.68203340099E+00 -0.10274891473E+01  0.24934932605E+01  0.51100000000E-03 0.  1.
         12    1    3    3    0    0  0.26335305859E+02  0.67752607502E+00 -0.15419685998E+02  0.30524974898E+02  0.00000000000E+00 0. -1.
</event>
<event>
 7    1  0.6515090E-012  0.5930198E+02  0.7816164E-02  0.1266605E+00
        -11   -1    0    0    0    0  0.00000000000E+00  0.00000000000E+00  0.45593999997E+02  0.45594000000E+02  0.51100000000E-03 0.  1.
         11   -1    0    0    0    0 -0.00000000000E+00 -0.00000000000E+00 -0.45593999997E+02  0.45594000000E+02  0.51100000000E-03 0. -1.
    9900012    2    1    2    0    0 -0.27006696458E+01  0.21270294237E+02 -0.23600828393E+02  0.59301982151E+02  0.50000069527E+02 0.  0.
        -12    1    1    2    0    0  0.27006696458E+01 -0.21270294237E+02  0.23600828393E+02  0.31886017849E+02  0.00000000000E+00 0.  1.
         11    1    3    3    0    0  0.16250468216E+01 -0.25350781716E+01 -0.33993247166E+01  0.45412341162E+01  0.51100000000E-03 0. -1.
        -11    1    3    3    0    0  0.28000256377E+01 -0.12173048934E+02 -0.11692038472E+02  0.17109267308E+02  0.51100000000E-03 0.  1.
         12    1    3    3    0    0 -0.71257421051E+01  0.35978421343E+02 -0.85094652040E+01  0.37651480727E+02  0.00000000000E+00 0. -1.
</event>
<event>
 7    1  0.6515090E-012  0.5930193E+02  0.7816164E-02  0.1266605E+00
        -11   -1    0    0    0    0  0.00000000000E+00  0.00000000000E+00  0.45593999997E+02  0.45594000000E+02  0.51100000000E-03 0.  1.
         11   -1    0    0    0    0 -0.00000000000E+00 -0.00000000000E+00 -0.45593999997E+02  0.45594000000E+02  0.51100000000E-03 0. -1.
    9900012    2    1    2    0    0 -0.22117199597E+02 -0.19436321369E+02 -0.12238482211E+02  0.59301928540E+02  0.49999971753E+02 0.  0.
        -12    1    1    2    0    0  0.22117199597E+02  0.19436321369E+02  0.12238482211E+02  0.31886071460E+02  0.00000000000E+00 0.  1.
         11    1    3    3    0    0 -0.57502216390E+01  0.11772899628E+02  0.23950825557E+00  0.13104334360E+02  0.51100000000E-03 0. -1.
        -11    1    3    3    0    0  0.15391636991E+01 -0.12397384577E+02  0.64511839880E+01  0.14059941122E+02  0.51100000000E-03 0.  1.
         12    1    3    3    0    0 -0.17906141657E+02 -0.18811836419E+02 -0.18929174455E+02  0.32137653058E+02  0.00000000000E+00 0. -1.
</event>
<event>
 7    1  0.6515090E-012  0.5930193E+02  0.7816164E-02  0.1266605E+00
        -11   -1    0    0    0    0  0.00000000000E+00  0.00000000000E+00  0.45593999997E+02  0.45594000000E+02  0.51100000000E-03 0. -1.
         11   -1    0    0    0    0 -0.00000000000E+00 -0.00000000000E+00 -0.45593999997E+02  0.45594000000E+02  0.51100000000E-03 0.  1.
    9900012    2    1    2    0    0  0.26218574231E+02  0.15532558986E+02  0.93833626085E+01  0.59301929104E+02  0.49999972782E+02 0.  0.
        -12    1    1    2    0    0 -0.26218574231E+02 -0.15532558986E+02 -0.93833626085E+01  0.31886070896E+02  0.00000000000E+00 0.  1.
         11    1    3    3    0    0 -0.44551978422E+01  0.74172894941E+01  0.71106645407E+01  0.11199398275E+02  0.51100000000E-03 0. -1.
        -11    1    3    3    0    0  0.45640689634E+01  0.18997583258E+02  0.32108219467E+01  0.19800208913E+02  0.51100000000E-03 0.  1.
        -12    1    3    3    0    0  0.26109703110E+02 -0.10882313767E+02 -0.93812387892E+00  0.28302321916E+02  0.00000000000E+00 0.  1.
</event>
<event>
 7    1  0.6515090E-012  0.5930194E+02  0.7816164E-02  0.1266605E+00
        -11   -1    0    0    0    0  0.00000000000E+00  0.00000000000E+00  0.45593999997E+02  0.45594000000E+02  0.51100000000E-03 0.  1.
         11   -1    0    0    0    0 -0.00000000000E+00 -0.00000000000E+00 -0.45593999997E+02  0.45594000000E+02  0.51100000000E-03 0. -1.
    9900012    2    1    2    0    0  0.16430544075E+02 -0.99925476488E+01 -0.25434367092E+02  0.59301940092E+02  0.49999992822E+02 0.  0.
        -12    1    1    2    0    0 -0.16430544075E+02  0.99925476488E+01  0.25434367092E+02  0.31886059908E+02  0.00000000000E+00 0.  1.
         11    1    3    3    0    0 -0.28248700530E+01  0.10310548999E+02 -0.50648579292E+01  0.11829627956E+02  0.51100000000E-03 0. -1.
        -11    1    3    3    0    0 -0.65245716651E+01  0.34256620638E+01 -0.99975029286E+00  0.74367127750E+01  0.51100000000E-03 0.  1.
         12    1    3    3    0    0  0.25779985793E+02 -0.23728758712E+02 -0.19369758869E+02  0.40035599361E+02  0.00000000000E+00 0. -1.
</event>
<event>
 7    1  0.6515090E-012  0.5930180E+02  0.7816164E-02  0.1266605E+00
        -11   -1    0    0    0    0  0.00000000000E+00  0.00000000000E+00  0.45593999997E+02  0.45594000000E+02  0.51100000000E-03 0.  1.
         11   -1    0    0    0    0 -0.00000000000E+00 -0.00000000000E+00 -0.45593999997E+02  0.45594000000E+02  0.51100000000E-03 0. -1.
    9900012    2    1    2    0    0 -0.20954940540E+02 -0.67995254862E+01 -0.23051819426E+02  0.59301804574E+02  0.49999745670E+02 0.  0.
        -12    1    1    2    0    0  0.20954940540E+02  0.67995254862E+01  0.23051819426E+02  0.31886195426E+02  0.00000000000E+00 0.  1.
         11    1    3    3    0    0 -0.28508245396E+01  0.83923220024E+01 -0.10852607523E+02  0.14012043372E+02  0.51100000000E-03 0. -1.
        -11    1    3    3    0    0 -0.36192891231E+01  0.99669529268E+01 -0.12325265946E+02  0.16258892499E+02  0.51100000000E-03 0.  1.
        -12    1    3    3    0    0 -0.14484826877E+02 -0.25158800415E+02  0.12605404318E+00  0.29030868703E+02  0.00000000000E+00 0.  1.
</event>
<event>
 7    1  0.6515090E-012  0.5930186E+02  0.7816164E-02  0.1266605E+00
        -11   -1    0    0    0    0  0.00000000000E+00  0.00000000000E+00  0.45593999997E+02  0.45594000000E+02  0.51100000000E-03 0.  1.
         11   -1    0    0    0    0 -0.00000000000E+00 -0.00000000000E+00 -0.45593999997E+02  0.45594000000E+02  0.51100000000E-03 0. -1.
    9900012    2    1    2    0    0 -0.31220921106E+02 -0.62792949938E+01 -0.15970337429E+01  0.59301859169E+02  0.49999845238E+02 0.  0.
        -12    1    1    2    0    0  0.31220921106E+02  0.62792949938E+01  0.15970337429E+01  0.31886140831E+02  0.00000000000E+00 0.  1.
         11    1    3    3    0    0 -0.25419447079E+02  0.11064152166E+02 -0.92897637082E+00  0.27738542685E+02  0.51100000000E-03 0. -1.
        -11    1    3    3    0    0  0.38678421050E+01  0.39591674276E+01  0.50365566780E+01  0.74834559330E+01  0.51100000000E-03 0.  1.
        -12    1    3    3    0    0 -0.96693161322E+01 -0.21302614587E+02 -0.57046140501E+01  0.24079860551E+02  0.00000000000E+00 0.  1.
</event>
<event>
 7    1  0.6515090E-012  0.5930196E+02  0.7816164E-02  0.1266605E+00
        -11   -1    0    0    0    0  0.00000000000E+00  0.00000000000E+00  0.45593999997E+02  0.45594000000E+02  0.51100000000E-03 0.  1.
         11   -1    0    0    0    0 -0.00000000000E+00 -0.00000000000E+00 -0.45593999997E+02  0.45594000000E+02  0.51100000000E-03 0. -1.
    9900012    2    1    2    0    0  0.20590578161E+02 -0.18851699053E+02 -0.15406536124E+02  0.59301955693E+02  0.50000021275E+02 0.  0.
        -12    1    1    2    0    0 -0.20590578161E+02  0.18851699053E+02  0.15406536124E+02  0.31886044307E+02  0.00000000000E+00 0.  1.
         11    1    3    3    0    0  0.11758649760E+02 -0.14493694503E+02  0.19458831978E+01  0.18764847087E+02  0.51100000000E-03 0. -1.
        -11    1    3    3    0    0  0.82562522548E+01 -0.81974082791E+01  0.84911419298E+01  0.14403565368E+02  0.51100000000E-03 0.  1.
         12    1    3    3    0    0  0.57567614591E+00  0.38394037282E+01 -0.25843561251E+02  0.26133543238E+02  0.00000000000E+00 0. -1.
</event>
<event>
 7    1  0.6515090E-012  0.5930193E+02  0.7816164E-02  0.1266605E+00
        -11   -1    0    0    0    0  0.00000000000E+00  0.00000000000E+00  0.45593999997E+02  0.45594000000E+02  0.51100000000E-03 0.  1.
         11   -1    0    0    0    0 -0.00000000000E+00 -0.00000000000E+00 -0.45593999997E+02  0.45594000000E+02  0.51100000000E-03 0. -1.
    9900012    2    1    2    0    0  0.20722471480E+02  0.78840289591E+01 -0.22915991528E+02  0.59301930870E+02  0.49999976004E+02 0.  0.
        -12    1    1    2    0    0 -0.20722471480E+02 -0.78840289591E+01  0.22915991528E+02  0.31886069130E+02  0.00000000000E+00 0.  1.
         11    1    3    3    0    0  0.12654402474E+02  0.52372797104E+01 -0.65566403262E+01  0.15183956446E+02  0.51100000000E-03 0. -1.
        -11    1    3    3    0    0  0.93768731795E+01 -0.98438256297E+01 -0.25286512378E+02  0.28709482095E+02  0.51100000000E-03 0.  1.
         12    1    3    3    0    0 -0.13088041738E+01  0.12490574878E+02  0.89271611768E+01  0.15408492328E+02  0.00000000000E+00 0. -1.
</event>
<event>
 7    1  0.6515090E-012  0.5930196E+02  0.7816164E-02  0.1266605E+00
        -11   -1    0    0    0    0  0.00000000000E+00  0.00000000000E+00  0.45593999997E+02  0.45594000000E+02  0.51100000000E-03 0. -1.
         11   -1    0    0    0    0 -0.00000000000E+00 -0.00000000000E+00 -0.45593999997E+02  0.45594000000E+02  0.51100000000E-03 0.  1.
    9900012    2    1    2    0    0  0.22455417646E+02 -0.22633156883E+02  0.46229408950E+00  0.59301964060E+02  0.50000036535E+02 0.  0.
        -12    1    1    2    0    0 -0.22455417646E+02  0.22633156883E+02 -0.46229408950E+00  0.31886035940E+02  0.00000000000E+00 0.  1.
         11    1    3    3    0    0  0.19938914817E+02 -0.48497434463E+01  0.14114175761E+02  0.24905627742E+02  0.51100000000E-03 0. -1.
        -11    1    3    3    0    0  0.48601304344E+01  0.34096560999E+01 -0.11530055015E+02  0.12968762141E+02  0.51100000000E-03 0.  1.
        -12    1    3    3    0    0 -0.23436276053E+01 -0.21193069537E+02 -0.21218266564E+01  0.21427574177E+02  0.00000000000E+00 0.  1.
</event>
<event>
 7    1  0.6515090E-012  0.5930195E+02  0.7816164E-02  0.1266605E+00
        -11   -1    0    0    0    0  0.00000000000E+00  0.00000000000E+00  0.45593999997E+02  0.45594000000E+02  0.51100000000E-03 0. -1.
         11   -1    0    0    0    0 -0.00000000000E+00 -0.00000000000E+00 -0.45593999997E+02  0.45594000000E+02  0.51100000000E-03 0.  1.
    9900012    2    1    2    0    0 -0.78396920785E+01  0.86723398051E+01  0.29665636544E+02  0.59301949113E+02  0.50000009275E+02 0.  0.
        -12    1    1    2    0    0  0.78396920785E+01 -0.86723398051E+01 -0.29665636544E+02  0.31886050887E+02  0.00000000000E+00 0.  1.
         11    1    3    3    0    0 -0.94133023029E+01  0.91400263437E+01  0.20609157233E+02  0.24431285351E+02  0.51100000000E-03 0. -1.
        -11    1    3    3    0    0 -0.10851129822E+02  0.11198591685E+02  0.49147339342E-01  0.15593520766E+02  0.51100000000E-03 0.  1.
         12    1    3    3    0    0  0.12424740047E+02 -0.11666278224E+02  0.90073319720E+01  0.19277142996E+02  0.00000000000E+00 0. -1.
</event>
<event>
 7    1  0.6515090E-012  0.5930194E+02  0.7816164E-02  0.1266605E+00
        -11   -1    0    0    0    0  0.00000000000E+00  0.00000000000E+00  0.45593999997E+02  0.45594000000E+02  0.51100000000E-03 0.  1.
         11   -1    0    0    0    0 -0.00000000000E+00 -0.00000000000E+00 -0.45593999997E+02  0.45594000000E+02  0.51100000000E-03 0. -1.
    9900012    2    1    2    0    0  0.61052311277E+00 -0.31286348717E+02 -0.61247609900E+01  0.59301936403E+02  0.49999986094E+02 0.  0.
        -12    1    1    2    0    0 -0.61052311277E+00  0.31286348717E+02  0.61247609900E+01  0.31886063597E+02  0.00000000000E+00 0.  1.
         11    1    3    3    0    0 -0.13360759738E+02  0.31281152905E+01  0.26031099633E+01  0.13966788743E+02  0.51100000000E-03 0. -1.
        -11    1    3    3    0    0  0.13390778508E+02 -0.38784091076E+01 -0.30306758527E+01  0.14266744641E+02  0.51100000000E-03 0.  1.
         12    1    3    3    0    0  0.58050434224E+00 -0.30536054900E+02 -0.56971951006E+01  0.31068403019E+02  0.00000000000E+00 0. -1.
</event>
<event>
 7    1  0.6515090E-012  0.5930194E+02  0.7816164E-02  0.1266605E+00
        -11   -1    0    0    0    0  0.00000000000E+00  0.00000000000E+00  0.45593999997E+02  0.45594000000E+02  0.51100000000E-03 0.  1.
         11   -1    0    0    0    0 -0.00000000000E+00 -0.00000000000E+00 -0.45593999997E+02  0.45594000000E+02  0.51100000000E-03 0. -1.
    9900012    2    1    2    0    0 -0.10089407404E+02  0.29508248707E+02 -0.66474226399E+01  0.59301935469E+02  0.49999984392E+02 0.  0.
        -12    1    1    2    0    0  0.10089407404E+02 -0.29508248707E+02  0.66474226399E+01  0.31886064531E+02  0.00000000000E+00 0.  1.
         11    1    3    3    0    0 -0.86010210010E+00  0.78653887318E+01 -0.75146352246E+01  0.10912096881E+02  0.51100000000E-03 0. -1.
        -11    1    3    3    0    0 -0.23642728643E+02  0.23896754110E+02  0.25073285214E+01  0.33709348425E+02  0.51100000000E-03 0.  1.
         12    1    3    3    0    0  0.14413423339E+02 -0.22538941351E+01 -0.16401159366E+01  0.14680490163E+02  0.00000000000E+00 0. -1.
</event>
<event>
 7    1  0.6515090E-012  0.5930195E+02  0.7816164E-02  0.1266605E+00
        -11   -1    0    0    0    0  0.00000000000E+00  0.00000000000E+00  0.45593999997E+02  0.45594000000E+02  0.51100000000E-03 0. -1.
         11   -1    0    0    0    0 -0.00000000000E+00 -0.00000000000E+00 -0.45593999997E+02  0.45594000000E+02  0.51100000000E-03 0.  1.
    9900012    2    1    2    0    0  0.10896792842E+02  0.24083849149E+02  0.17831104046E+02  0.59301950455E+02  0.50000011722E+02 0.  0.
        -12    1    1    2    0    0 -0.10896792842E+02 -0.24083849149E+02 -0.17831104046E+02  0.31886049545E+02  0.00000000000E+00 0.  1.
         11    1    3    3    0    0 -0.31817283320E+01 -0.56150429094E+00  0.13051896993E+02  0.13445843135E+02  0.51100000000E-03 0. -1.
        -11    1    3    3    0    0 -0.51388548764E+01 -0.58623081542E+01 -0.39779010373E+01  0.87520388059E+01  0.51100000000E-03 0.  1.
         12    1    3    3    0    0  0.19217376051E+02  0.30507661594E+02  0.87571080909E+01  0.37104068514E+02  0.00000000000E+00 0. -1.
</event>
<event>
 7    1  0.6515090E-012  0.5930172E+02  0.7816164E-02  0.1266606E+00
        -11   -1    0    0    0    0  0.00000000000E+00  0.00000000000E+00  0.45593999997E+02  0.45594000000E+02  0.51100000000E-03 0.  1.
         11   -1    0    0    0    0 -0.00000000000E+00 -0.00000000000E+00 -0.45593999997E+02  0.45594000000E+02  0.51100000000E-03 0. -1.
    9900012    2    1    2    0    0 -0.26701212602E+02  0.12469062281E+02 -0.12177949321E+02  0.59301722101E+02  0.49999595257E+02 0.  0.
        -12    1    1    2    0    0  0.26701212602E+02 -0.12469062281E+02  0.12177949321E+02  0.31886277899E+02  0.00000000000E+00 0.  1.
         11    1    3    3    0    0 -0.22340445656E+02  0.11671053669E+02 -0.15712466569E+02  0.29701693753E+02  0.51100000000E-03 0. -1.
        -11    1    3    3    0    0 -0.46281640030E+01  0.10900411290E+02  0.11670181341E+02  0.16626244348E+02  0.51100000000E-03 0.  1.
         12    1    3    3    0    0  0.26739705701E+00 -0.10102402678E+02 -0.81356640926E+01  0.12973784000E+02  0.00000000000E+00 0. -1.
</event>
<event>
 7    1  0.6515090E-012  0.5930199E+02  0.7816164E-02  0.1266605E+00
        -11   -1    0    0    0    0  0.00000000000E+00  0.00000000000E+00  0.45593999997E+02  0.45594000000E+02  0.51100000000E-03 0.  1.
         11   -1    0    0    0    0 -0.00000000000E+00 -0.00000000000E+00 -0.45593999997E+02  0.45594000000E+02  0.51100000000E-03 0. -1.
    9900012    2    1    2    0    0  0.61172052816E+01 -0.88851990755E+01 -0.30005848100E+02  0.59301986086E+02  0.50000076705E+02 0.  0.
        -12    1    1    2    0    0 -0.61172052816E+01  0.88851990755E+01  0.30005848100E+02  0.31886013914E+02  0.00000000000E+00 0.  1.
         11    1    3    3    0    0  0.12684480422E+02  0.28247207129E+01 -0.32695520161E+02  0.35183407020E+02  0.51100000000E-03 0. -1.
        -11    1    3    3    0    0 -0.78595945283E+00 -0.14499507663E+01 -0.80276241993E+01  0.81952937734E+01  0.51100000000E-03 0.  1.
        -12    1    3    3    0    0 -0.57813156877E+01 -0.10259969022E+02  0.10717296259E+02  0.15923285293E+02  0.00000000000E+00 0.  1.
</event>
<event>
 7    1  0.6515090E-012  0.5930196E+02  0.7816164E-02  0.1266605E+00
        -11   -1    0    0    0    0  0.00000000000E+00  0.00000000000E+00  0.45593999997E+02  0.45594000000E+02  0.51100000000E-03 0.  1.
         11   -1    0    0    0    0 -0.00000000000E+00 -0.00000000000E+00 -0.45593999997E+02  0.45594000000E+02  0.51100000000E-03 0. -1.
    9900012    2    1    2    0    0  0.73726138189E+01  0.50762117344E+01 -0.30603859543E+02  0.59301959496E+02  0.50000028210E+02 0.  0.
        -12    1    1    2    0    0 -0.73726138189E+01 -0.50762117344E+01  0.30603859543E+02  0.31886040504E+02  0.00000000000E+00 0.  1.
         11    1    3    3    0    0 -0.57390089263E+00 -0.23322896608E+01  0.61197597038E+01  0.65742221129E+01  0.51100000000E-03 0. -1.
        -11    1    3    3    0    0  0.39118732135E+00 -0.10286596901E+02  0.10386248663E+01  0.10346296207E+02  0.51100000000E-03 0.  1.
         12    1    3    3    0    0  0.75553273902E+01  0.17695098296E+02 -0.37762244113E+02  0.42381441176E+02  0.00000000000E+00 0. -1.
</event>
<event>
 7    1  0.6515090E-012  0.5930195E+02  0.7816164E-02  0.1266605E+00
        -11   -1    0    0    0    0  0.00000000000E+00  0.00000000000E+00  0.45593999997E+02  0.45594000000E+02  0.51100000000E-03 0. -1.
         11   -1    0    0    0    0 -0.00000000000E+00 -0.00000000000E+00 -0.45593999997E+02  0.45594000000E+02  0.51100000000E-03 0.  1.
    9900012    2    1    2    0    0  0.18618752774E+02 -0.25663058027E+02  0.33867184454E+01  0.59301947187E+02  0.50000005762E+02 0.  0.
        -12    1    1    2    0    0 -0.18618752774E+02  0.25663058027E+02 -0.33867184454E+01  0.31886052813E+02  0.00000000000E+00 0.  1.
         11    1    3    3    0    0  0.28870265227E+00  0.14611606852E+01  0.10162837506E+00  0.14928725188E+01  0.51100000000E-03 0. -1.
        -11    1    3    3    0    0  0.18920608941E+02  0.82464737230E+01  0.79691931433E+01  0.22124687821E+02  0.51100000000E-03 0.  1.
         12    1    3    3    0    0 -0.59055881870E+00 -0.35370692435E+02 -0.46841030730E+01  0.35684386847E+02  0.00000000000E+00 0. -1.
</event>
<event>
 7    1  0.6515090E-012  0.5930195E+02  0.7816164E-02  0.1266605E+00
        -11   -1    0    0    0    0  0.00000000000E+00  0.00000000000E+00  0.45593999997E+02  0.45594000000E+02  0.51100000000E-03 0.  1.
         11   -1    0    0    0    0 -0.00000000000E+00 -0.00000000000E+00 -0.45593999997E+02  0.45594000000E+02  0.51100000000E-03 0. -1.
    9900012    2    1    2    0    0  0.71990393599E+01  0.20259337584E+00 -0.31062082506E+02  0.59301950050E+02  0.50000010984E+02 0.  0.
        -12    1    1    2    0    0 -0.71990393599E+01 -0.20259337584E+00  0.31062082506E+02  0.31886049950E+02  0.00000000000E+00 0.  1.
         11    1    3    3    0    0  0.12862477890E+02  0.18539359694E+02 -0.21639933483E+02  0.31264003530E+02  0.51100000000E-03 0.  1.
        -11    1    3    3    0    0 -0.25361757288E+01 -0.84603148449E+01 -0.14126319433E+02  0.16660192544E+02  0.51100000000E-03 0. -1.
        -12    1    3    3    0    0 -0.31272628011E+01 -0.98764514728E+01  0.47041704096E+01  0.11377753977E+02  0.00000000000E+00 0.  1.
</event>
<event>
 7    1  0.6515090E-012  0.5930194E+02  0.7816164E-02  0.1266605E+00
        -11   -1    0    0    0    0  0.00000000000E+00  0.00000000000E+00  0.45593999997E+02  0.45594000000E+02  0.51100000000E-03 0. -1.
         11   -1    0    0    0    0 -0.00000000000E+00 -0.00000000000E+00 -0.45593999997E+02  0.45594000000E+02  0.51100000000E-03 0.  1.
    9900012    2    1    2    0    0 -0.80469672017E+01  0.56462065913E+01  0.30332948132E+02  0.59301936079E+02  0.49999985503E+02 0.  0.
        -12    1    1    2    0    0  0.80469672017E+01 -0.56462065913E+01 -0.30332948132E+02  0.31886063921E+02  0.00000000000E+00 0.  1.
         11    1    3    3    0    0 -0.16532122795E+02 -0.88000178045E+01  0.23095670598E+02  0.29734851574E+02  0.51100000000E-03 0. -1.
        -11    1    3    3    0    0 -0.69717337560E+01 -0.13802763567E+00  0.40899110163E+01  0.80840271879E+01  0.51100000000E-03 0.  1.
        -12    1    3    3    0    0  0.15456889350E+02  0.14584252032E+02  0.31473665174E+01  0.21483057317E+02  0.00000000000E+00 0.  1.
</event>
<event>
 7    1  0.6515090E-012  0.5930193E+02  0.7816164E-02  0.1266605E+00
        -11   -1    0    0    0    0  0.00000000000E+00  0.00000000000E+00  0.45593999997E+02  0.45594000000E+02  0.51100000000E-03 0.  1.
         11   -1    0    0    0    0 -0.00000000000E+00 -0.00000000000E+00 -0.45593999997E+02  0.45594000000E+02  0.51100000000E-03 0. -1.
    9900012    2    1    2    0    0 -0.12119053891E+02 -0.23388883020E+02 -0.17966914269E+02  0.59301932126E+02  0.49999978294E+02 0.  0.
        -12    1    1    2    0    0  0.12119053891E+02  0.23388883020E+02  0.17966914269E+02  0.31886067874E+02  0.00000000000E+00 0.  1.
         11    1    3    3    0    0 -0.42661874105E+01 -0.14732287988E+02 -0.21183545058E+02  0.26153073354E+02  0.51100000000E-03 0. -1.
        -11    1    3    3    0    0 -0.47950879250E+01 -0.50677540182E+01 -0.13814967052E+02  0.15476702295E+02  0.51100000000E-03 0.  1.
        -12    1    3    3    0    0 -0.30577785555E+01 -0.35888410133E+01  0.17031597841E+02  0.17672156477E+02  0.00000000000E+00 0.  1.
</event>
<event>
 7    1  0.6515090E-012  0.5930196E+02  0.7816164E-02  0.1266605E+00
        -11   -1    0    0    0    0  0.00000000000E+00  0.00000000000E+00  0.45593999997E+02  0.45594000000E+02  0.51100000000E-03 0.  1.
         11   -1    0    0    0    0 -0.00000000000E+00 -0.00000000000E+00 -0.45593999997E+02  0.45594000000E+02  0.51100000000E-03 0. -1.
    9900012    2    1    2    0    0  0.27242945227E+02 -0.14753229040E+02 -0.75421329372E+01  0.59301959151E+02  0.50000027582E+02 0.  0.
        -12    1    1    2    0    0 -0.27242945227E+02  0.14753229040E+02  0.75421329372E+01  0.31886040849E+02  0.00000000000E+00 0.  1.
         11    1    3    3    0    0  0.87238277145E+01 -0.95110760054E+01 -0.15129545261E+01  0.12994412970E+02  0.51100000000E-03 0. -1.
        -11    1    3    3    0    0 -0.10452140046E+02 -0.93548445083E+01  0.52074277061E+01  0.14962541592E+02  0.51100000000E-03 0.  1.
         12    1    3    3    0    0  0.28971257559E+02  0.41126914739E+01 -0.11236606117E+02  0.31345004590E+02  0.00000000000E+00 0. -1.
</event>
<event>
 7    1  0.6515090E-012  0.5930195E+02  0.7816164E-02  0.1266605E+00
        -11   -1    0    0    0    0  0.00000000000E+00  0.00000000000E+00  0.45593999997E+02  0.45594000000E+02  0.51100000000E-03 0.  1.
         11   -1    0    0    0    0 -0.00000000000E+00 -0.00000000000E+00 -0.45593999997E+02  0.45594000000E+02  0.51100000000E-03 0. -1.
    9900012    2    1    2    0    0 -0.10599891384E+02  0.19500341675E+02 -0.22893208466E+02  0.59301952633E+02  0.50000015695E+02 0.  0.
        -12    1    1    2    0    0  0.10599891384E+02 -0.19500341675E+02  0.22893208466E+02  0.31886047367E+02  0.00000000000E+00 0.  1.
         11    1    3    3    0    0  0.45752049290E+01 -0.53960318514E+00 -0.13479926625E+02  0.14245423609E+02  0.51100000000E-03 0. -1.
        -11    1    3    3    0    0 -0.21295149095E+02  0.46752446476E+01  0.58260028451E+01  0.22567312576E+02  0.51100000000E-03 0.  1.
         12    1    3    3    0    0  0.61200527821E+01  0.15364700213E+02 -0.15239284686E+02  0.22489216448E+02  0.00000000000E+00 0. -1.
</event>
<event>
 7    1  0.6515090E-012  0.5930195E+02  0.7816164E-02  0.1266605E+00
        -11   -1    0    0    0    0  0.00000000000E+00  0.00000000000E+00  0.45593999997E+02  0.45594000000E+02  0.51100000000E-03 0.  1.
         11   -1    0    0    0    0 -0.00000000000E+00 -0.00000000000E+00 -0.45593999997E+02  0.45594000000E+02  0.51100000000E-03 0. -1.
    9900012    2    1    2    0    0  0.26641258723E+02 -0.53270595793E+01  0.16690897644E+02  0.59301948281E+02  0.50000007757E+02 0.  0.
        -12    1    1    2    0    0 -0.26641258723E+02  0.53270595793E+01 -0.16690897644E+02  0.31886051719E+02  0.00000000000E+00 0.  1.
         11    1    3    3    0    0  0.12843442154E+02 -0.61304972241E+01  0.10631145317E+02  0.17763959401E+02  0.51100000000E-03 0.  1.
        -11    1    3    3    0    0  0.12054400938E+02 -0.15767207985E+02  0.12742504636E+02  0.23585691727E+02  0.51100000000E-03 0. -1.
         12    1    3    3    0    0  0.17434156309E+01  0.16570645630E+02 -0.66827523087E+01  0.17952297153E+02  0.00000000000E+00 0. -1.
</event>
<event>
 7    1  0.6515090E-012  0.5930164E+02  0.7816164E-02  0.1266606E+00
        -11   -1    0    0    0    0  0.00000000000E+00  0.00000000000E+00  0.45593999997E+02  0.45594000000E+02  0.51100000000E-03 0.  1.
         11   -1    0    0    0    0 -0.00000000000E+00 -0.00000000000E+00 -0.45593999997E+02  0.45594000000E+02  0.51100000000E-03 0. -1.
    9900012    2    1    2    0    0 -0.21787277460E+02 -0.71454467133E+01 -0.22158460897E+02  0.59301635247E+02  0.49999436855E+02 0.  0.
        -12    1    1    2    0    0  0.21787277460E+02  0.71454467133E+01  0.22158460897E+02  0.31886364753E+02  0.00000000000E+00 0.  1.
         11    1    3    3    0    0 -0.84287922515E+01 -0.21542832594E+02 -0.76930873332E+01  0.24378715470E+02  0.51100000000E-03 0. -1.
        -11    1    3    3    0    0 -0.50076086175E+01  0.49051577406E+01  0.70666384163E+01  0.99535971032E+01  0.51100000000E-03 0.  1.
         12    1    3    3    0    0 -0.83508765907E+01  0.94922281400E+01 -0.21532011980E+02  0.24969322674E+02  0.00000000000E+00 0. -1.
</event>
<event>
 7    1  0.6515090E-012  0.5930193E+02  0.7816164E-02  0.1266605E+00
        -11   -1    0    0    0    0  0.00000000000E+00  0.00000000000E+00  0.45593999997E+02  0.45594000000E+02  0.51100000000E-03 0. -1.
         11   -1    0    0    0    0 -0.00000000000E+00 -0.00000000000E+00 -0.45593999997E+02  0.45594000000E+02  0.51100000000E-03 0.  1.
    9900012    2    1    2    0    0  0.30997830675E+02 -0.72838724903E+01  0.16736609472E+01  0.59301930221E+02  0.49999974820E+02 0.  0.
        -12    1    1    2    0    0 -0.30997830675E+02  0.72838724903E+01 -0.16736609472E+01  0.31886069779E+02  0.00000000000E+00 0.  1.
         11    1    3    3    0    0  0.12708017717E+02 -0.37781366981E+01  0.12782444990E+01  0.13319231978E+02  0.51100000000E-03 0. -1.
        -11    1    3    3    0    0  0.19412001483E+02 -0.13091518944E+02 -0.15003983650E+02  0.27808869007E+02  0.51100000000E-03 0.  1.
         12    1    3    3    0    0 -0.11221885261E+01  0.95857831514E+01  0.15399400098E+02  0.18173829236E+02  0.00000000000E+00 0. -1.
</event>
<event>
 7    1  0.6515090E-012  0.5930190E+02  0.7816164E-02  0.1266605E+00
        -11   -1    0    0    0    0  0.00000000000E+00  0.00000000000E+00  0.45593999997E+02  0.45594000000E+02  0.51100000000E-03 0.  1.
         11   -1    0    0    0    0 -0.00000000000E+00 -0.00000000000E+00 -0.45593999997E+02  0.45594000000E+02  0.51100000000E-03 0. -1.
    9900012    2    1    2    0    0 -0.31104189296E+02 -0.32922010554E+00  0.70102855413E+01  0.59301904582E+02  0.49999928061E+02 0.  0.
        -12    1    1    2    0    0  0.31104189296E+02  0.32922010554E+00 -0.70102855413E+01  0.31886095418E+02  0.00000000000E+00 0.  1.
         11    1    3    3    0    0  0.86395741535E+01  0.31348517099E+01 -0.10447460038E+02  0.13914702954E+02  0.51100000000E-03 0. -1.
        -11    1    3    3    0    0 -0.64786759536E+00  0.11242353008E+01 -0.12517792086E+01  0.18029389566E+01  0.51100000000E-03 0.  1.
        -12    1    3    3    0    0 -0.39095895854E+02 -0.45883071162E+01  0.18709524788E+02  0.43584262671E+02  0.00000000000E+00 0.  1.
</event>
<event>
 7    1  0.6515090E-012  0.5930158E+02  0.7816164E-02  0.1266606E+00
        -11   -1    0    0    0    0  0.00000000000E+00  0.00000000000E+00  0.45593999997E+02  0.45594000000E+02  0.51100000000E-03 0.  1.
         11   -1    0    0    0    0 -0.00000000000E+00 -0.00000000000E+00 -0.45593999997E+02  0.45594000000E+02  0.51100000000E-03 0. -1.
    9900012    2    1    2    0    0 -0.95560187296E+01 -0.72368138296E+01 -0.29547505481E+02  0.59301575796E+02  0.49999328429E+02 0.  0.
        -12    1    1    2    0    0  0.95560187296E+01  0.72368138296E+01  0.29547505481E+02  0.31886424204E+02  0.00000000000E+00 0.  1.
         11    1    3    3    0    0 -0.61089579325E+01  0.12106229925E+02 -0.12035969206E+02  0.18131318899E+02  0.51100000000E-03 0. -1.
        -11    1    3    3    0    0 -0.95352656907E+01 -0.51554486802E-01  0.51137653988E+01  0.10820099190E+02  0.51100000000E-03 0.  1.
         12    1    3    3    0    0  0.60882048937E+01 -0.19291489268E+02 -0.22625301674E+02  0.30350157707E+02  0.00000000000E+00 0. -1.
</event>
<event>
 7    1  0.6515090E-012  0.5930195E+02  0.7816164E-02  0.1266605E+00
        -11   -1    0    0    0    0  0.00000000000E+00  0.00000000000E+00  0.45593999997E+02  0.45594000000E+02  0.51100000000E-03 0.  1.
         11   -1    0    0    0    0 -0.00000000000E+00 -0.00000000000E+00 -0.45593999997E+02  0.45594000000E+02  0.51100000000E-03 0. -1.
    9900012    2    1    2    0    0  0.31749459282E+02  0.23811831547E+01  0.17384704373E+01  0.59301945409E+02  0.50000002518E+02 0.  0.
        -12    1    1    2    0    0 -0.31749459282E+02 -0.23811831547E+01 -0.17384704373E+01  0.31886054591E+02  0.00000000000E+00 0.  1.
         11    1    3    3    0    0  0.36980996400E+00  0.19665572980E+02 -0.99271942306E+00  0.19694085716E+02  0.51100000000E-03 0. -1.
        -11    1    3    3    0    0  0.97330277138E+01  0.15876856585E+01 -0.30317960487E+01  0.10317187687E+02  0.51100000000E-03 0.  1.
        -12    1    3    3    0    0  0.21646621605E+02 -0.18872075484E+02  0.57629859090E+01  0.29290672006E+02  0.00000000000E+00 0.  1.
</event>
<event>
 7    1  0.6515090E-012  0.5930195E+02  0.7816164E-02  0.1266605E+00
        -11   -1    0    0    0    0  0.00000000000E+00  0.00000000000E+00  0.45593999997E+02  0.45594000000E+02  0.51100000000E-03 0.  1.
         11   -1    0    0    0    0 -0.00000000000E+00 -0.00000000000E+00 -0.45593999997E+02  0.45594000000E+02  0.51100000000E-03 0. -1.
    9900012    2    1    2    0    0  0.27604404906E+01 -0.31660707882E+02  0.25883635813E+01  0.59301951620E+02  0.50000013846E+02 0.  0.
        -12    1    1    2    0    0 -0.27604404906E+01  0.31660707882E+02 -0.25883635813E+01  0.31886048380E+02  0.00000000000E+00 0.  1.
         11    1    3    3    0    0 -0.11136984870E+02 -0.29070786297E+01  0.29063803203E+01  0.11871418828E+02  0.51100000000E-03 0. -1.
        -11    1    3    3    0    0  0.16121312250E+02 -0.88609870694E+01  0.13748253168E+02  0.22965806450E+02  0.51100000000E-03 0.  1.
         12    1    3    3    0    0 -0.22238868891E+01 -0.19892642183E+02 -0.14066269907E+02  0.24464726342E+02  0.00000000000E+00 0. -1.
</event>
<event>
 7    1  0.6515090E-012  0.5930196E+02  0.7816164E-02  0.1266605E+00
        -11   -1    0    0    0    0  0.00000000000E+00  0.00000000000E+00  0.45593999997E+02  0.45594000000E+02  0.51100000000E-03 0.  1.
         11   -1    0    0    0    0 -0.00000000000E+00 -0.00000000000E+00 -0.45593999997E+02  0.45594000000E+02  0.51100000000E-03 0. -1.
    9900012    2    1    2    0    0  0.17584225999E+02  0.23637465854E+02 -0.12197740051E+02  0.59301958252E+02  0.50000025942E+02 0.  0.
        -12    1    1    2    0    0 -0.17584225999E+02 -0.23637465854E+02  0.12197740051E+02  0.31886041748E+02  0.00000000000E+00 0.  1.
         11    1    3    3    0    0  0.50199628413E+01  0.32996282741E+01 -0.17628845945E+01  0.62606178633E+01  0.51100000000E-03 0.  1.
        -11    1    3    3    0    0  0.27945854477E+02  0.11623265125E+02 -0.16348487815E+02  0.34399769312E+02  0.51100000000E-03 0. -1.
        -12    1    3    3    0    0 -0.15381591319E+02  0.87145724546E+01  0.59136323583E+01  0.18641571077E+02  0.00000000000E+00 0.  1.
</event>
<event>
 7    1  0.6515090E-012  0.5930194E+02  0.7816164E-02  0.1266605E+00
        -11   -1    0    0    0    0  0.00000000000E+00  0.00000000000E+00  0.45593999997E+02  0.45594000000E+02  0.51100000000E-03 0.  1.
         11   -1    0    0    0    0 -0.00000000000E+00 -0.00000000000E+00 -0.45593999997E+02  0.45594000000E+02  0.51100000000E-03 0. -1.
    9900012    2    1    2    0    0  0.15357703982E+02 -0.27287433375E+02 -0.60214525656E+01  0.59301937484E+02  0.49999988065E+02 0.  0.
        -12    1    1    2    0    0 -0.15357703982E+02  0.27287433375E+02  0.60214525656E+01  0.31886062516E+02  0.00000000000E+00 0.  1.
         11    1    3    3    0    0  0.76627980225E+01  0.29988963370E+01  0.14234406807E+01  0.83509302720E+01  0.51100000000E-03 0. -1.
        -11    1    3    3    0    0  0.23947103471E+02 -0.19691413225E+02 -0.45878334670E+01  0.31341087021E+02  0.51100000000E-03 0.  1.
         12    1    3    3    0    0 -0.16252197512E+02 -0.10594916487E+02 -0.28570597794E+01  0.19609920191E+02  0.00000000000E+00 0. -1.
</event>
<event>
 7    1  0.6515090E-012  0.5930196E+02  0.7816164E-02  0.1266605E+00
        -11   -1    0    0    0    0  0.00000000000E+00  0.00000000000E+00  0.45593999997E+02  0.45594000000E+02  0.51100000000E-03 0.  1.
         11   -1    0    0    0    0 -0.00000000000E+00 -0.00000000000E+00 -0.45593999997E+02  0.45594000000E+02  0.51100000000E-03 0. -1.
    9900012    2    1    2    0    0 -0.44661932334E+00 -0.27436533084E+01 -0.31764637019E+02  0.59301964385E+02  0.50000037127E+02 0.  0.
        -12    1    1    2    0    0  0.44661932334E+00  0.27436533084E+01  0.31764637019E+02  0.31886035615E+02  0.00000000000E+00 0.  1.
         11    1    3    3    0    0 -0.14095961998E+02  0.13377410767E+02 -0.25290839543E+02  0.31894793126E+02  0.51100000000E-03 0. -1.
        -11    1    3    3    0    0  0.62661837829E+01 -0.13322741693E+01 -0.86191630288E+01  0.10739179915E+02  0.51100000000E-03 0.  1.
        -12    1    3    3    0    0  0.73831588913E+01 -0.14788789906E+02  0.21453655531E+01  0.16667991345E+02  0.00000000000E+00 0.  1.
</event>
<event>
 7    1  0.6515090E-012  0.5930192E+02  0.7816164E-02  0.1266605E+00
        -11   -1    0    0    0    0  0.00000000000E+00  0.00000000000E+00  0.45593999997E+02  0.45594000000E+02  0.51100000000E-03 0. -1.
         11   -1    0    0    0    0 -0.00000000000E+00 -0.00000000000E+00 -0.45593999997E+02  0.45594000000E+02  0.51100000000E-03 0.  1.
    9900012    2    1    2    0    0 -0.22854525327E+02 -0.12372726306E+02  0.18474542308E+02  0.59301915298E+02  0.49999947603E+02 0.  0.
        -12    1    1    2    0    0  0.22854525327E+02  0.12372726306E+02 -0.18474542308E+02  0.31886084702E+02  0.00000000000E+00 0.  1.
         11    1    3    3    0    0  0.30986562473E+01  0.32920575144E+01  0.16411784058E+02  0.17023101053E+02  0.51100000000E-03 0. -1.
        -11    1    3    3    0    0 -0.19148284957E+02 -0.16372796086E+02  0.13775772123E+02  0.28714058688E+02  0.51100000000E-03 0.  1.
         12    1    3    3    0    0 -0.68048966173E+01  0.70801226604E+00 -0.11713013873E+02  0.13564755557E+02  0.00000000000E+00 0. -1.
</event>
<event>
 7    1  0.6515090E-012  0.5930194E+02  0.7816164E-02  0.1266605E+00
        -11   -1    0    0    0    0  0.00000000000E+00  0.00000000000E+00  0.45593999997E+02  0.45594000000E+02  0.51100000000E-03 0.  1.
         11   -1    0    0    0    0 -0.00000000000E+00 -0.00000000000E+00 -0.45593999997E+02  0.45594000000E+02  0.51100000000E-03 0. -1.
    9900012    2    1    2    0    0 -0.80945685207E+01 -0.22996680794E+02 -0.20551189548E+02  0.59301940995E+02  0.49999994468E+02 0.  0.
        -12    1    1    2    0    0  0.80945685207E+01  0.22996680794E+02  0.20551189548E+02  0.31886059005E+02  0.00000000000E+00 0.  1.
         11    1    3    3    0    0  0.94022527598E+00  0.11078182142E+01 -0.25712970359E+02  0.25753992500E+02  0.51100000000E-03 0. -1.
        -11    1    3    3    0    0  0.57989492839E+01 -0.18140761079E+01 -0.76718740726E+00  0.61243172437E+01  0.51100000000E-03 0.  1.
        -12    1    3    3    0    0 -0.14833743081E+02 -0.22290422900E+02  0.59289682183E+01  0.27423631251E+02  0.00000000000E+00 0.  1.
</event>
<event>
 7    1  0.6515090E-012  0.5930193E+02  0.7816164E-02  0.1266605E+00
        -11   -1    0    0    0    0  0.00000000000E+00  0.00000000000E+00  0.45593999997E+02  0.45594000000E+02  0.51100000000E-03 0.  1.
         11   -1    0    0    0    0 -0.00000000000E+00 -0.00000000000E+00 -0.45593999997E+02  0.45594000000E+02  0.51100000000E-03 0. -1.
    9900012    2    1    2    0    0 -0.12924371190E+02 -0.17766088320E+02 -0.23109484705E+02  0.59301928618E+02  0.49999971896E+02 0.  0.
        -12    1    1    2    0    0  0.12924371190E+02  0.17766088320E+02  0.23109484705E+02  0.31886071382E+02  0.00000000000E+00 0.  1.
         11    1    3    3    0    0  0.65167367259E+01 -0.60608346612E+01 -0.11048644509E+02  0.14187111055E+02  0.51100000000E-03 0. -1.
        -11    1    3    3    0    0  0.27649203858E+01 -0.17328580296E+02 -0.13533835824E+02  0.22160532308E+02  0.51100000000E-03 0.  1.
        -12    1    3    3    0    0 -0.22206028302E+02  0.56233266377E+01  0.14729956282E+01  0.22954285254E+02  0.00000000000E+00 0.  1.
</event>
<event>
 7    1  0.6515090E-012  0.5930194E+02  0.7816164E-02  0.1266605E+00
        -11   -1    0    0    0    0  0.00000000000E+00  0.00000000000E+00  0.45593999997E+02  0.45594000000E+02  0.51100000000E-03 0. -1.
         11   -1    0    0    0    0 -0.00000000000E+00 -0.00000000000E+00 -0.45593999997E+02  0.45594000000E+02  0.51100000000E-03 0.  1.
    9900012    2    1    2    0    0  0.27764744275E+01 -0.14787568861E+02  0.28112978908E+02  0.59301943704E+02  0.49999999409E+02 0.  0.
        -12    1    1    2    0    0 -0.27764744275E+01  0.14787568861E+02 -0.28112978908E+02  0.31886056296E+02  0.00000000000E+00 0.  1.
         11    1    3    3    0    0 -0.36742147277E+01  0.49868197748E+01 -0.43783562841E-01  0.61943637763E+01  0.51100000000E-03 0. -1.
        -11    1    3    3    0    0 -0.17761942822E+00  0.78092033040E+01 -0.51505002270E+01  0.93564340298E+01  0.51100000000E-03 0.  1.
         12    1    3    3    0    0  0.66283085834E+01 -0.27583591939E+02  0.33307262698E+02  0.43751145898E+02  0.00000000000E+00 0. -1.
</event>
<event>
 7    1  0.6515090E-012  0.5930192E+02  0.7816164E-02  0.1266605E+00
        -11   -1    0    0    0    0  0.00000000000E+00  0.00000000000E+00  0.45593999997E+02  0.45594000000E+02  0.51100000000E-03 0.  1.
         11   -1    0    0    0    0 -0.00000000000E+00 -0.00000000000E+00 -0.45593999997E+02  0.45594000000E+02  0.51100000000E-03 0. -1.
    9900012    2    1    2    0    0  0.10757608200E+02  0.18186573763E+02 -0.23879798100E+02  0.59301915940E+02  0.49999948774E+02 0.  0.
        -12    1    1    2    0    0 -0.10757608200E+02 -0.18186573763E+02  0.23879798100E+02  0.31886084060E+02  0.00000000000E+00 0.  1.
         11    1    3    3    0    0 -0.12853855488E+02  0.28371794841E+01 -0.18708972143E+02  0.22875682006E+02  0.51100000000E-03 0. -1.
        -11    1    3    3    0    0  0.78901694184E+01 -0.51548565393E+00 -0.10807295245E+02  0.13390971947E+02  0.51100000000E-03 0.  1.
        -12    1    3    3    0    0  0.15721294269E+02  0.15864879933E+02  0.56364692879E+01  0.23035261987E+02  0.00000000000E+00 0.  1.
</event>
<event>
 7    1  0.6515090E-012  0.5930193E+02  0.7816164E-02  0.1266605E+00
        -11   -1    0    0    0    0  0.00000000000E+00  0.00000000000E+00  0.45593999997E+02  0.45594000000E+02  0.51100000000E-03 0.  1.
         11   -1    0    0    0    0 -0.00000000000E+00 -0.00000000000E+00 -0.45593999997E+02  0.45594000000E+02  0.51100000000E-03 0. -1.
    9900012    2    1    2    0    0  0.26320002000E+02  0.17639255893E+02 -0.35826768641E+01  0.59301930514E+02  0.49999975355E+02 0.  0.
        -12    1    1    2    0    0 -0.26320002000E+02 -0.17639255893E+02  0.35826768641E+01  0.31886069486E+02  0.00000000000E+00 0.  1.
         11    1    3    3    0    0  0.21957610618E+02  0.27688514967E+02 -0.14902005208E+02  0.38351796367E+02  0.51100000000E-03 0. -1.
        -11    1    3    3    0    0  0.61937398356E+01 -0.29459379083E+00  0.42895116149E+00  0.62155609572E+01  0.51100000000E-03 0.  1.
        -12    1    3    3    0    0 -0.18313484531E+01 -0.97546652827E+01  0.10890377182E+02  0.14734573190E+02  0.00000000000E+00 0.  1.
</event>
<event>
 7    1  0.6515090E-012  0.5930194E+02  0.7816164E-02  0.1266605E+00
        -11   -1    0    0    0    0  0.00000000000E+00  0.00000000000E+00  0.45593999997E+02  0.45594000000E+02  0.51100000000E-03 0. -1.
         11   -1    0    0    0    0 -0.00000000000E+00 -0.00000000000E+00 -0.45593999997E+02  0.45594000000E+02  0.51100000000E-03 0.  1.
    9900012    2    1    2    0    0  0.13554611711E+02 -0.25564556378E+02  0.13395768212E+02  0.59301942743E+02  0.49999997657E+02 0.  0.
        -12    1    1    2    0    0 -0.13554611711E+02  0.25564556378E+02 -0.13395768212E+02  0.31886057257E+02  0.00000000000E+00 0.  1.
         11    1    3    3    0    0  0.78328111042E+01 -0.35993230600E+02  0.20978333850E+02  0.42390518636E+02  0.51100000000E-03 0. -1.
        -11    1    3    3    0    0  0.62315754329E+01  0.22247807479E+01 -0.17866770238E+01  0.68537870408E+01  0.51100000000E-03 0.  1.
        -12    1    3    3    0    0 -0.50977482599E+00  0.82038934747E+01 -0.57958886148E+01  0.10057637066E+02  0.00000000000E+00 0.  1.
</event>
<event>
 7    1  0.6515090E-012  0.5930193E+02  0.7816164E-02  0.1266605E+00
        -11   -1    0    0    0    0  0.00000000000E+00  0.00000000000E+00  0.45593999997E+02  0.45594000000E+02  0.51100000000E-03 0.  1.
         11   -1    0    0    0    0 -0.00000000000E+00 -0.00000000000E+00 -0.45593999997E+02  0.45594000000E+02  0.51100000000E-03 0. -1.
    9900012    2    1    2    0    0  0.25455758057E+02  0.18849915438E+01 -0.19109483271E+02  0.59301934669E+02  0.49999982932E+02 0.  0.
        -12    1    1    2    0    0 -0.25455758057E+02 -0.18849915438E+01  0.19109483271E+02  0.31886065331E+02  0.00000000000E+00 0.  1.
         11    1    3    3    0    0  0.19714913506E+02 -0.15216204220E+02 -0.82757404332E+01  0.26243066997E+02  0.51100000000E-03 0. -1.
        -11    1    3    3    0    0  0.11941545665E+02  0.43536815468E+00  0.52093582375E+00  0.11960829098E+02  0.51100000000E-03 0.  1.
         12    1    3    3    0    0 -0.62007011142E+01  0.16665827609E+02 -0.11354678662E+02  0.21098038575E+02  0.00000000000E+00 0. -1.
</event>
<event>
 7    1  0.6515090E-012  0.5930199E+02  0.7816164E-02  0.1266605E+00
        -11   -1    0    0    0    0  0.00000000000E+00  0.00000000000E+00  0.45593999997E+02  0.45594000000E+02  0.51100000000E-03 0.  1.
         11   -1    0    0    0    0 -0.00000000000E+00 -0.00000000000E+00 -0.45593999997E+02  0.45594000000E+02  0.51100000000E-03 0. -1.
    9900012    2    1    2    0    0  0.92001909647E+01 -0.10888516610E+02 -0.28522168623E+02  0.59301993497E+02  0.50000090220E+02 0.  0.
        -12    1    1    2    0    0 -0.92001909647E+01  0.10888516610E+02  0.28522168623E+02  0.31886006503E+02  0.00000000000E+00 0.  1.
         11    1    3    3    0    0  0.71127655965E+00 -0.31137353707E+01  0.13417490015E+01  0.34643257566E+01  0.51100000000E-03 0. -1.
        -11    1    3    3    0    0  0.25982091922E+02  0.52054522762E+00 -0.24577329656E+02  0.35768494534E+02  0.51100000000E-03 0.  1.
         12    1    3    3    0    0 -0.17493177517E+02 -0.82953264668E+01 -0.52865879687E+01  0.20069173206E+02  0.00000000000E+00 0. -1.
</event>
<event>
 7    1  0.6515090E-012  0.5930196E+02  0.7816164E-02  0.1266605E+00
        -11   -1    0    0    0    0  0.00000000000E+00  0.00000000000E+00  0.45593999997E+02  0.45594000000E+02  0.51100000000E-03 0. -1.
         11   -1    0    0    0    0 -0.00000000000E+00 -0.00000000000E+00 -0.45593999997E+02  0.45594000000E+02  0.51100000000E-03 0.  1.
    9900012    2    1    2    0    0  0.16167188043E+02 -0.25645092130E+02  0.98828495738E+01  0.59301961750E+02  0.50000032322E+02 0.  0.
        -12    1    1    2    0    0 -0.16167188043E+02  0.25645092130E+02 -0.98828495738E+01  0.31886038250E+02  0.00000000000E+00 0.  1.
         11    1    3    3    0    0  0.10674763734E+02 -0.72658781460E+01  0.72436280962E+01  0.14805867562E+02  0.51100000000E-03 0. -1.
        -11    1    3    3    0    0  0.17190010141E+02 -0.17517565867E+02 -0.10664672967E+02  0.26759985282E+02  0.51100000000E-03 0.  1.
        -12    1    3    3    0    0 -0.11697585831E+02 -0.86164811713E+00  0.13303894444E+02  0.17736108907E+02  0.00000000000E+00 0.  1.
</event>
<event>
 7    1  0.6515090E-012  0.5930195E+02  0.7816164E-02  0.1266605E+00
        -11   -1    0    0    0    0  0.00000000000E+00  0.00000000000E+00  0.45593999997E+02  0.45594000000E+02  0.51100000000E-03 0.  1.
         11   -1    0    0    0    0 -0.00000000000E+00 -0.00000000000E+00 -0.45593999997E+02  0.45594000000E+02  0.51100000000E-03 0. -1.
    9900012    2    1    2    0    0  0.23907215818E+01  0.16098278892E+02 -0.27419881028E+02  0.59301952760E+02  0.50000015926E+02 0.  0.
        -12    1    1    2    0    0 -0.23907215818E+01 -0.16098278892E+02  0.27419881028E+02  0.31886047240E+02  0.00000000000E+00 0.  1.
         11    1    3    3    0    0  0.14051536587E+02  0.13232915203E+02 -0.26318475605E+02  0.32637675831E+02  0.51100000000E-03 0. -1.
        -11    1    3    3    0    0  0.24058381816E+00  0.10516005808E+02  0.45086119144E+01  0.11444292918E+02  0.51100000000E-03 0.  1.
         12    1    3    3    0    0 -0.11901398824E+02 -0.76506421188E+01 -0.56100173372E+01  0.15219984011E+02  0.00000000000E+00 0. -1.
</event>
<event>
 7    1  0.6515090E-012  0.5930185E+02  0.7816164E-02  0.1266605E+00
        -11   -1    0    0    0    0  0.00000000000E+00  0.00000000000E+00  0.45593999997E+02  0.45594000000E+02  0.51100000000E-03 0.  1.
         11   -1    0    0    0    0 -0.00000000000E+00 -0.00000000000E+00 -0.45593999997E+02  0.45594000000E+02  0.51100000000E-03 0. -1.
    9900012    2    1    2    0    0  0.14053795858E+00  0.28933088077E+02  0.13400877809E+02  0.59301845283E+02  0.49999819913E+02 0.  0.
        -12    1    1    2    0    0 -0.14053795858E+00 -0.28933088077E+02 -0.13400877809E+02  0.31886154717E+02  0.00000000000E+00 0.  1.
         11    1    3    3    0    0  0.12799651105E+02  0.42475345484E+01 -0.29647939356E+01  0.13808063640E+02  0.51100000000E-03 0. -1.
        -11    1    3    3    0    0 -0.12235644378E+02 -0.16544233332E+01 -0.31103034490E+01  0.12732717609E+02  0.51100000000E-03 0.  1.
        -12    1    3    3    0    0 -0.42346876838E+00  0.26339976862E+02  0.19475975194E+02  0.32761064034E+02  0.00000000000E+00 0.  1.
</event>
<event>
 7    1  0.6515090E-012  0.5930196E+02  0.7816164E-02  0.1266605E+00
        -11   -1    0    0    0    0  0.00000000000E+00  0.00000000000E+00  0.45593999997E+02  0.45594000000E+02  0.51100000000E-03 0.  1.
         11   -1    0    0    0    0 -0.00000000000E+00 -0.00000000000E+00 -0.45593999997E+02  0.45594000000E+02  0.51100000000E-03 0. -1.
    9900012    2    1    2    0    0 -0.21672051172E+02 -0.81738806341E+00 -0.23374635033E+02  0.59301960920E+02  0.50000030808E+02 0.  0.
        -12    1    1    2    0    0  0.21672051172E+02  0.81738806341E+00  0.23374635033E+02  0.31886039080E+02  0.00000000000E+00 0.  1.
         11    1    3    3    0    0 -0.33997528559E+01  0.89192030704E+01 -0.39228885576E+01  0.10319862295E+02  0.51100000000E-03 0. -1.
        -11    1    3    3    0    0  0.12691108224E+02 -0.11926115702E+01 -0.69130922554E+01  0.14500944628E+02  0.51100000000E-03 0.  1.
        -12    1    3    3    0    0 -0.30963406540E+02 -0.85439795637E+01 -0.12538654220E+02  0.34481153998E+02  0.00000000000E+00 0.  1.
</event>
<event>
 7    1  0.6515090E-012  0.5930195E+02  0.7816164E-02  0.1266605E+00
        -11   -1    0    0    0    0  0.00000000000E+00  0.00000000000E+00  0.45593999997E+02  0.45594000000E+02  0.51100000000E-03 0. -1.
         11   -1    0    0    0    0 -0.00000000000E+00 -0.00000000000E+00 -0.45593999997E+02  0.45594000000E+02  0.51100000000E-03 0.  1.
    9900012    2    1    2    0    0 -0.22983411781E+02  0.20241035748E+02 -0.88760132782E+01  0.59301947297E+02  0.50000005963E+02 0.  0.
        -12    1    1    2    0    0  0.22983411781E+02 -0.20241035748E+02  0.88760132782E+01  0.31886052703E+02  0.00000000000E+00 0.  1.
         11    1    3    3    0    0 -0.57452925606E+01  0.11683580584E+02 -0.15528326097E+02  0.20264336986E+02  0.51100000000E-03 0. -1.
        -11    1    3    3    0    0  0.80371541081E+01  0.26871043208E+01 -0.57871205834E+01  0.10261926754E+02  0.51100000000E-03 0.  1.
         12    1    3    3    0    0 -0.25275273328E+02  0.58703508431E+01  0.12439433402E+02  0.28775683558E+02  0.00000000000E+00 0. -1.
</event>
<event>
 7    1  0.6515090E-012  0.5930194E+02  0.7816164E-02  0.1266605E+00
        -11   -1    0    0    0    0  0.00000000000E+00  0.00000000000E+00  0.45593999997E+02  0.45594000000E+02  0.51100000000E-03 0.  1.
         11   -1    0    0    0    0 -0.00000000000E+00 -0.00000000000E+00 -0.45593999997E+02  0.45594000000E+02  0.51100000000E-03 0. -1.
    9900012    2    1    2    0    0 -0.64441898356E+01 -0.19403308528E+02 -0.24468449060E+02  0.59301937780E+02  0.49999988606E+02 0.  0.
        -12    1    1    2    0    0  0.64441898356E+01  0.19403308528E+02  0.24468449060E+02  0.31886062220E+02  0.00000000000E+00 0.  1.
         11    1    3    3    0    0 -0.88694759105E+01 -0.11260398207E+01 -0.15149897519E+01  0.90681179312E+01  0.51100000000E-03 0. -1.
        -11    1    3    3    0    0 -0.11493701564E+02 -0.24566086485E+01  0.69479974669E+01  0.13653379463E+02  0.51100000000E-03 0.  1.
         12    1    3    3    0    0  0.13918987639E+02 -0.15820660059E+02 -0.29901456775E+02  0.36580440386E+02  0.00000000000E+00 0. -1.
</event>
<event>
 7    1  0.6515090E-012  0.5930202E+02  0.7816164E-02  0.1266605E+00
        -11   -1    0    0    0    0  0.00000000000E+00  0.00000000000E+00  0.45593999997E+02  0.45594000000E+02  0.51100000000E-03 0. -1.
         11   -1    0    0    0    0 -0.00000000000E+00 -0.00000000000E+00 -0.45593999997E+02  0.45594000000E+02  0.51100000000E-03 0.  1.
    9900012    2    1    2    0    0 -0.49940944273E+00  0.14627968519E+02  0.28328238529E+02  0.59302016073E+02  0.50000131394E+02 0.  0.
        -12    1    1    2    0    0  0.49940944273E+00 -0.14627968519E+02 -0.28328238529E+02  0.31885983927E+02  0.00000000000E+00 0.  1.
         11    1    3    3    0    0  0.40627004753E+01 -0.54003271117E+01  0.70319841965E+01  0.97528390772E+01  0.51100000000E-03 0. -1.
        -11    1    3    3    0    0 -0.43960452195E+00 -0.25901350097E+00 -0.11095414649E+02  0.11107140344E+02  0.51100000000E-03 0.  1.
         12    1    3    3    0    0 -0.41225053961E+01  0.20287309132E+02  0.32391668982E+02  0.38442036652E+02  0.00000000000E+00 0. -1.
</event>
<event>
 7    1  0.6515090E-012  0.5930191E+02  0.7816164E-02  0.1266605E+00
        -11   -1    0    0    0    0  0.00000000000E+00  0.00000000000E+00  0.45593999997E+02  0.45594000000E+02  0.51100000000E-03 0.  1.
         11   -1    0    0    0    0 -0.00000000000E+00 -0.00000000000E+00 -0.45593999997E+02  0.45594000000E+02  0.51100000000E-03 0. -1.
    9900012    2    1    2    0    0 -0.63344593014E+01 -0.86795037150E+01 -0.30021049772E+02  0.59301912300E+02  0.49999942137E+02 0.  0.
        -12    1    1    2    0    0  0.63344593014E+01  0.86795037150E+01  0.30021049772E+02  0.31886087700E+02  0.00000000000E+00 0.  1.
         11    1    3    3    0    0 -0.90352356866E+01 -0.10849383412E+02 -0.35258445049E+02  0.37980291624E+02  0.51100000000E-03 0. -1.
        -11    1    3    3    0    0 -0.35525014311E+01 -0.48406506118E+01 -0.47160872877E+01  0.76350274610E+01  0.51100000000E-03 0.  1.
        -12    1    3    3    0    0  0.62532778164E+01  0.70105303086E+01  0.99534825652E+01  0.13686593215E+02  0.00000000000E+00 0.  1.
</event>
<event>
 7    1  0.6515090E-012  0.5930195E+02  0.7816164E-02  0.1266605E+00
        -11   -1    0    0    0    0  0.00000000000E+00  0.00000000000E+00  0.45593999997E+02  0.45594000000E+02  0.51100000000E-03 0. -1.
         11   -1    0    0    0    0 -0.00000000000E+00 -0.00000000000E+00 -0.45593999997E+02  0.45594000000E+02  0.51100000000E-03 0.  1.
    9900012    2    1    2    0    0 -0.17966481786E+02 -0.14854933859E+02  0.21754464254E+02  0.59301949089E+02  0.50000009231E+02 0.  0.
        -12    1    1    2    0    0  0.17966481786E+02  0.14854933859E+02 -0.21754464254E+02  0.31886050911E+02  0.00000000000E+00 0.  1.
         11    1    3    3    0    0 -0.87920415565E+01 -0.27937381947E+01  0.13927855938E+02  0.16705991114E+02  0.51100000000E-03 0. -1.
        -11    1    3    3    0    0 -0.18545208394E+02  0.19235503698E+01  0.15356456483E+02  0.24154617703E+02  0.51100000000E-03 0.  1.
        -12    1    3    3    0    0  0.93707681645E+01 -0.13984746034E+02 -0.75298481665E+01  0.18441340272E+02  0.00000000000E+00 0.  1.
</event>
<event>
 7    1  0.6515090E-012  0.5930193E+02  0.7816164E-02  0.1266605E+00
        -11   -1    0    0    0    0  0.00000000000E+00  0.00000000000E+00  0.45593999997E+02  0.45594000000E+02  0.51100000000E-03 0.  1.
         11   -1    0    0    0    0 -0.00000000000E+00 -0.00000000000E+00 -0.45593999997E+02  0.45594000000E+02  0.51100000000E-03 0. -1.
    9900012    2    1    2    0    0 -0.14255576834E+02 -0.24915810044E+02 -0.13881721772E+02  0.59301933131E+02  0.49999980126E+02 0.  0.
        -12    1    1    2    0    0  0.14255576834E+02  0.24915810044E+02  0.13881721772E+02  0.31886066869E+02  0.00000000000E+00 0.  1.
         11    1    3    3    0    0 -0.10027086562E+01 -0.24446240707E+02 -0.14677258312E+02  0.28531491745E+02  0.51100000000E-03 0. -1.
        -11    1    3    3    0    0  0.81710996371E+01  0.15991303184E+01 -0.31239416049E+01  0.88928678426E+01  0.51100000000E-03 0.  1.
         12    1    3    3    0    0 -0.21423967815E+02 -0.20686996561E+01  0.39194781454E+01  0.21877573543E+02  0.00000000000E+00 0. -1.
</event>
<event>
 7    1  0.6515090E-012  0.5930193E+02  0.7816164E-02  0.1266605E+00
        -11   -1    0    0    0    0  0.00000000000E+00  0.00000000000E+00  0.45593999997E+02  0.45594000000E+02  0.51100000000E-03 0.  1.
         11   -1    0    0    0    0 -0.00000000000E+00 -0.00000000000E+00 -0.45593999997E+02  0.45594000000E+02  0.51100000000E-03 0. -1.
    9900012    2    1    2    0    0  0.10231390491E+02 -0.20613162581E+01 -0.30129573663E+02  0.59301928037E+02  0.49999970837E+02 0.  0.
        -12    1    1    2    0    0 -0.10231390491E+02  0.20613162581E+01  0.30129573663E+02  0.31886071963E+02  0.00000000000E+00 0.  1.
         11    1    3    3    0    0  0.14221596494E+02  0.12829686851E+02 -0.26900347324E+02  0.33022467472E+02  0.51100000000E-03 0. -1.
        -11    1    3    3    0    0 -0.75421985599E+01  0.16455159640E+00 -0.70719522990E+01  0.10340422908E+02  0.51100000000E-03 0.  1.
        -12    1    3    3    0    0  0.35519925563E+01 -0.15055554706E+02  0.38427259596E+01  0.15939037657E+02  0.00000000000E+00 0.  1.
</event>
<event>
 7    1  0.6515090E-012  0.5930194E+02  0.7816164E-02  0.1266605E+00
        -11   -1    0    0    0    0  0.00000000000E+00  0.00000000000E+00  0.45593999997E+02  0.45594000000E+02  0.51100000000E-03 0.  1.
         11   -1    0    0    0    0 -0.00000000000E+00 -0.00000000000E+00 -0.45593999997E+02  0.45594000000E+02  0.51100000000E-03 0. -1.
    9900012    2    1    2    0    0 -0.27267388906E+02 -0.95928625855E+01  0.13460573742E+02  0.59301944179E+02  0.50000000277E+02 0.  0.
        -12    1    1    2    0    0  0.27267388906E+02  0.95928625855E+01 -0.13460573742E+02  0.31886055821E+02  0.00000000000E+00 0.  1.
         11    1    3    3    0    0 -0.34050938245E+01  0.10431957823E+02  0.18084036591E+01  0.11121633514E+02  0.51100000000E-03 0. -1.
        -11    1    3    3    0    0 -0.12781662713E+02  0.73655453988E+01 -0.32235460459E+01  0.15100112917E+02  0.51100000000E-03 0.  1.
         12    1    3    3    0    0 -0.11080632369E+02 -0.27390365807E+02  0.14875716128E+02  0.33080197748E+02  0.00000000000E+00 0. -1.
</event>
<event>
 7    1  0.6515090E-012  0.5930191E+02  0.7816164E-02  0.1266605E+00
        -11   -1    0    0    0    0  0.00000000000E+00  0.00000000000E+00  0.45593999997E+02  0.45594000000E+02  0.51100000000E-03 0.  1.
         11   -1    0    0    0    0 -0.00000000000E+00 -0.00000000000E+00 -0.45593999997E+02  0.45594000000E+02  0.51100000000E-03 0. -1.
    9900012    2    1    2    0    0 -0.50592052267E+01 -0.27013594983E+02 -0.16167642011E+02  0.59301913385E+02  0.49999944114E+02 0.  0.
        -12    1    1    2    0    0  0.50592052267E+01  0.27013594983E+02  0.16167642011E+02  0.31886086615E+02  0.00000000000E+00 0.  1.
         11    1    3    3    0    0 -0.14575998016E+02 -0.29766343714E+02 -0.13730105623E+02  0.35874931874E+02  0.51100000000E-03 0. -1.
        -11    1    3    3    0    0 -0.40432874958E+01 -0.45097951726E+01 -0.49730578641E+01  0.78369465389E+01  0.51100000000E-03 0.  1.
        -12    1    3    3    0    0  0.13560080285E+02  0.72625439029E+01  0.25355214766E+01  0.15590034972E+02  0.00000000000E+00 0.  1.
</event>
<event>
 7    1  0.6515090E-012  0.5930194E+02  0.7816164E-02  0.1266605E+00
        -11   -1    0    0    0    0  0.00000000000E+00  0.00000000000E+00  0.45593999997E+02  0.45594000000E+02  0.51100000000E-03 0.  1.
         11   -1    0    0    0    0 -0.00000000000E+00 -0.00000000000E+00 -0.45593999997E+02  0.45594000000E+02  0.51100000000E-03 0. -1.
    9900012    2    1    2    0    0 -0.25071925831E+02 -0.77465972921E+00 -0.19685507737E+02  0.59301940704E+02  0.49999993938E+02 0.  0.
        -12    1    1    2    0    0  0.25071925831E+02  0.77465972921E+00  0.19685507737E+02  0.31886059296E+02  0.00000000000E+00 0.  1.
         11    1    3    3    0    0 -0.14173233231E+02  0.63224743966E+01  0.54394196315E+01  0.16445105926E+02  0.51100000000E-03 0.  1.
        -11    1    3    3    0    0 -0.14586251313E+02 -0.16821766947E+02 -0.23425680287E+02  0.32318617974E+02  0.51100000000E-03 0. -1.
         12    1    3    3    0    0  0.36875587139E+01  0.97246328209E+01 -0.16992470823E+01  0.10538216804E+02  0.00000000000E+00 0. -1.
</event>
<event>
 7    1  0.6515090E-012  0.5930197E+02  0.7816164E-02  0.1266605E+00
        -11   -1    0    0    0    0  0.00000000000E+00  0.00000000000E+00  0.45593999997E+02  0.45594000000E+02  0.51100000000E-03 0.  1.
         11   -1    0    0    0    0 -0.00000000000E+00 -0.00000000000E+00 -0.45593999997E+02  0.45594000000E+02  0.51100000000E-03 0. -1.
    9900012    2    1    2    0    0  0.16263969287E+02  0.71518054423E+01 -0.26477423917E+02  0.59301968649E+02  0.50000044903E+02 0.  0.
        -12    1    1    2    0    0 -0.16263969287E+02 -0.71518054423E+01  0.26477423917E+02  0.31886031351E+02  0.00000000000E+00 0.  1.
         11    1    3    3    0    0  0.14744202817E+02 -0.13392042167E+02 -0.14241022789E+02  0.24485608844E+02  0.51100000000E-03 0. -1.
        -11    1    3    3    0    0  0.31093833482E+01 -0.90769194433E+00  0.58670119300E+01  0.67017907099E+01  0.51100000000E-03 0.  1.
         12    1    3    3    0    0 -0.15896168788E+01  0.21451539554E+02 -0.18103413059E+02  0.28114569095E+02  0.00000000000E+00 0. -1.
</event>
<event>
 7    1  0.6515090E-012  0.5930201E+02  0.7816164E-02  0.1266605E+00
        -11   -1    0    0    0    0  0.00000000000E+00  0.00000000000E+00  0.45593999997E+02  0.45594000000E+02  0.51100000000E-03 0.  1.
         11   -1    0    0    0    0 -0.00000000000E+00 -0.00000000000E+00 -0.45593999997E+02  0.45594000000E+02  0.51100000000E-03 0. -1.
    9900012    2    1    2    0    0  0.20628290193E+02 -0.54133449958E+01 -0.23704131533E+02  0.59302007589E+02  0.50000115920E+02 0.  0.
        -12    1    1    2    0    0 -0.20628290193E+02  0.54133449958E+01  0.23704131533E+02  0.31885992411E+02  0.00000000000E+00 0.  1.
         11    1    3    3    0    0  0.23772393471E+02 -0.57051083960E+01 -0.99029966294E+01  0.26376965248E+02  0.51100000000E-03 0. -1.
        -11    1    3    3    0    0  0.14426484625E-01 -0.14365642340E+02 -0.98535494606E+01  0.17420227472E+02  0.51100000000E-03 0.  1.
         12    1    3    3    0    0 -0.31585297625E+01  0.14657405740E+02 -0.39475854426E+01  0.15504814869E+02  0.00000000000E+00 0. -1.
</event>
<event>
 7    1  0.6515090E-012  0.5930191E+02  0.7816164E-02  0.1266605E+00
        -11   -1    0    0    0    0  0.00000000000E+00  0.00000000000E+00  0.45593999997E+02  0.45594000000E+02  0.51100000000E-03 0. -1.
         11   -1    0    0    0    0 -0.00000000000E+00 -0.00000000000E+00 -0.45593999997E+02  0.45594000000E+02  0.51100000000E-03 0.  1.
    9900012    2    1    2    0    0 -0.45145794548E+01  0.10966305059E+02  0.29598673469E+02  0.59301909845E+02  0.49999937658E+02 0.  0.
        -12    1    1    2    0    0  0.45145794548E+01 -0.10966305059E+02 -0.29598673469E+02  0.31886090155E+02  0.00000000000E+00 0.  1.
         11    1    3    3    0    0  0.51506126397E+01  0.45790366669E+01 -0.75962586864E+01  0.10256682390E+02  0.51100000000E-03 0. -1.
        -11    1    3    3    0    0  0.61143595084E+01 -0.80444314804E+01  0.16095859063E+02  0.19004603370E+02  0.51100000000E-03 0.  1.
         12    1    3    3    0    0 -0.15779551603E+02  0.14431699873E+02  0.21099073092E+02  0.30040624084E+02  0.00000000000E+00 0. -1.
</event>
<event>
 7    1  0.6515090E-012  0.5930199E+02  0.7816164E-02  0.1266605E+00
        -11   -1    0    0    0    0  0.00000000000E+00  0.00000000000E+00  0.45593999997E+02  0.45594000000E+02  0.51100000000E-03 0.  1.
         11   -1    0    0    0    0 -0.00000000000E+00 -0.00000000000E+00 -0.45593999997E+02  0.45594000000E+02  0.51100000000E-03 0. -1.
    9900012    2    1    2    0    0  0.11370563340E+02 -0.17915132855E+01 -0.29735804848E+02  0.59301994912E+02  0.50000092801E+02 0.  0.
        -12    1    1    2    0    0 -0.11370563340E+02  0.17915132855E+01  0.29735804848E+02  0.31886005088E+02  0.00000000000E+00 0.  1.
         11    1    3    3    0    0  0.49452553819E-01  0.85259283792E+01 -0.18498539797E+01  0.87244403998E+01  0.51100000000E-03 0. -1.
        -11    1    3    3    0    0 -0.68730233926E+01  0.11276464966E+02 -0.46215491680E+01  0.13991276913E+02  0.51100000000E-03 0.  1.
         12    1    3    3    0    0  0.18194134179E+02 -0.21593906631E+02 -0.23264401700E+02  0.36586277599E+02  0.00000000000E+00 0. -1.
</event>
<event>
 7    1  0.6515090E-012  0.5930193E+02  0.7816164E-02  0.1266605E+00
        -11   -1    0    0    0    0  0.00000000000E+00  0.00000000000E+00  0.45593999997E+02  0.45594000000E+02  0.51100000000E-03 0.  1.
         11   -1    0    0    0    0 -0.00000000000E+00 -0.00000000000E+00 -0.45593999997E+02  0.45594000000E+02  0.51100000000E-03 0. -1.
    9900012    2    1    2    0    0 -0.91259865955E+01 -0.12106816480E+02 -0.28051078665E+02  0.59301927007E+02  0.49999968958E+02 0.  0.
        -12    1    1    2    0    0  0.91259865955E+01  0.12106816480E+02  0.28051078665E+02  0.31886072993E+02  0.00000000000E+00 0.  1.
         11    1    3    3    0    0 -0.18996523135E+01 -0.16382568009E+02 -0.40199905139E+00  0.16497236647E+02  0.51100000000E-03 0. -1.
        -11    1    3    3    0    0 -0.52366873648E+01 -0.13304031140E+02 -0.80761524891E+01  0.16420851940E+02  0.51100000000E-03 0.  1.
         12    1    3    3    0    0 -0.19896469173E+01  0.17579782669E+02 -0.19572927125E+02  0.26383838420E+02  0.00000000000E+00 0. -1.
</event>
<event>
 7    1  0.6515090E-012  0.5930195E+02  0.7816164E-02  0.1266605E+00
        -11   -1    0    0    0    0  0.00000000000E+00  0.00000000000E+00  0.45593999997E+02  0.45594000000E+02  0.51100000000E-03 0.  1.
         11   -1    0    0    0    0 -0.00000000000E+00 -0.00000000000E+00 -0.45593999997E+02  0.45594000000E+02  0.51100000000E-03 0. -1.
    9900012    2    1    2    0    0 -0.46508948211E+01  0.11476723584E+02 -0.29383234294E+02  0.59301945612E+02  0.50000002889E+02 0.  0.
        -12    1    1    2    0    0  0.46508948211E+01 -0.11476723584E+02  0.29383234294E+02  0.31886054388E+02  0.00000000000E+00 0.  1.
         11    1    3    3    0    0 -0.32051210821E+01  0.15602101351E+02 -0.37029732564E+01  0.16352687208E+02  0.51100000000E-03 0. -1.
        -11    1    3    3    0    0 -0.17415507222E+02 -0.49786373206E+01 -0.10705720321E+02  0.21040417516E+02  0.51100000000E-03 0.  1.
         12    1    3    3    0    0  0.15969733483E+02  0.85325955353E+00 -0.14974540716E+02  0.21908840888E+02  0.00000000000E+00 0. -1.
</event>
<event>
 7    1  0.6515090E-012  0.5930198E+02  0.7816164E-02  0.1266605E+00
        -11   -1    0    0    0    0  0.00000000000E+00  0.00000000000E+00  0.45593999997E+02  0.45594000000E+02  0.51100000000E-03 0. -1.
         11   -1    0    0    0    0 -0.00000000000E+00 -0.00000000000E+00 -0.45593999997E+02  0.45594000000E+02  0.51100000000E-03 0.  1.
    9900012    2    1    2    0    0 -0.27673992533E+02 -0.87588835540E+01  0.13196616396E+02  0.59301975034E+02  0.50000056548E+02 0.  0.
        -12    1    1    2    0    0  0.27673992533E+02  0.87588835540E+01 -0.13196616396E+02  0.31886024966E+02  0.00000000000E+00 0.  1.
         11    1    3    3    0    0 -0.26327368342E+01 -0.43431350908E+01  0.34034006793E+01  0.61136946359E+01  0.51100000000E-03 0. -1.
        -11    1    3    3    0    0  0.75019589916E+01  0.51045754171E+01  0.16306546253E+02  0.18661177076E+02  0.51100000000E-03 0.  1.
        -12    1    3    3    0    0 -0.32543214690E+02 -0.95203238803E+01 -0.65133305357E+01  0.34527103322E+02  0.00000000000E+00 0.  1.
</event>
<event>
 7    1  0.6515090E-012  0.5930194E+02  0.7816164E-02  0.1266605E+00
        -11   -1    0    0    0    0  0.00000000000E+00  0.00000000000E+00  0.45593999997E+02  0.45594000000E+02  0.51100000000E-03 0. -1.
         11   -1    0    0    0    0 -0.00000000000E+00 -0.00000000000E+00 -0.45593999997E+02  0.45594000000E+02  0.51100000000E-03 0.  1.
    9900012    2    1    2    0    0  0.15591647836E+02  0.31584730050E+01  0.27634139122E+02  0.59301935975E+02  0.49999985314E+02 0.  0.
        -12    1    1    2    0    0 -0.15591647836E+02 -0.31584730050E+01 -0.27634139122E+02  0.31886064025E+02  0.00000000000E+00 0.  1.
         11    1    3    3    0    0 -0.83654074465E+01  0.15118240210E+00  0.19272706615E+02  0.21010476396E+02  0.51100000000E-03 0. -1.
        -11    1    3    3    0    0  0.10929438151E+02 -0.12361354869E+02  0.75027373336E+01  0.18125859435E+02  0.51100000000E-03 0.  1.
         12    1    3    3    0    0  0.13027617132E+02  0.15368645472E+02  0.85869517402E+00  0.20165600144E+02  0.00000000000E+00 0. -1.
</event>
<event>
 7    1  0.6515090E-012  0.5930195E+02  0.7816164E-02  0.1266605E+00
        -11   -1    0    0    0    0  0.00000000000E+00  0.00000000000E+00  0.45593999997E+02  0.45594000000E+02  0.51100000000E-03 0.  1.
         11   -1    0    0    0    0 -0.00000000000E+00 -0.00000000000E+00 -0.45593999997E+02  0.45594000000E+02  0.51100000000E-03 0. -1.
    9900012    2    1    2    0    0  0.20772167675E+02 -0.17294157439E+01 -0.24129785807E+02  0.59301946750E+02  0.50000004965E+02 0.  0.
        -12    1    1    2    0    0 -0.20772167675E+02  0.17294157439E+01  0.24129785807E+02  0.31886053250E+02  0.00000000000E+00 0.  1.
         11    1    3    3    0    0  0.66935780035E+01 -0.68497245229E+01 -0.41331020545E+01  0.10430975284E+02  0.51100000000E-03 0. -1.
        -11    1    3    3    0    0  0.14693678891E+02 -0.47042150423E+01  0.92659650750E+01  0.17996998293E+02  0.51100000000E-03 0.  1.
         12    1    3    3    0    0 -0.61508921954E+00  0.98245238214E+01 -0.29262648828E+02  0.30873973173E+02  0.00000000000E+00 0. -1.
</event>
<event>
 7    1  0.6515090E-012  0.5930195E+02  0.7816164E-02  0.1266605E+00
        -11   -1    0    0    0    0  0.00000000000E+00  0.00000000000E+00  0.45593999997E+02  0.45594000000E+02  0.51100000000E-03 0.  1.
         11   -1    0    0    0    0 -0.00000000000E+00 -0.00000000000E+00 -0.45593999997E+02  0.45594000000E+02  0.51100000000E-03 0. -1.
    9900012    2    1    2    0    0 -0.15500497243E+02 -0.27326055806E+02 -0.54535779756E+01  0.59301948920E+02  0.50000008923E+02 0.  0.
        -12    1    1    2    0    0  0.15500497243E+02  0.27326055806E+02  0.54535779756E+01  0.31886051080E+02  0.00000000000E+00 0.  1.
         11    1    3    3    0    0  0.12235020945E+02 -0.12955687518E+02 -0.78816666004E+01  0.19485026180E+02  0.51100000000E-03 0. -1.
        -11    1    3    3    0    0 -0.42847904795E+00 -0.11985058513E+02  0.31388894354E+01  0.12396687017E+02  0.51100000000E-03 0.  1.
        -12    1    3    3    0    0 -0.27307039140E+02 -0.23853097759E+01 -0.71080081056E+00  0.27420235723E+02  0.00000000000E+00 0.  1.
</event>
<event>
 7    1  0.6515090E-012  0.5930195E+02  0.7816164E-02  0.1266605E+00
        -11   -1    0    0    0    0  0.00000000000E+00  0.00000000000E+00  0.45593999997E+02  0.45594000000E+02  0.51100000000E-03 0.  1.
         11   -1    0    0    0    0 -0.00000000000E+00 -0.00000000000E+00 -0.45593999997E+02  0.45594000000E+02  0.51100000000E-03 0. -1.
    9900012    2    1    2    0    0 -0.12430422929E+02 -0.12426129342E+02 -0.26604435996E+02  0.59301951024E+02  0.50000012760E+02 0.  0.
        -12    1    1    2    0    0  0.12430422929E+02  0.12426129342E+02  0.26604435996E+02  0.31886048976E+02  0.00000000000E+00 0.  1.
         11    1    3    3    0    0  0.17469486243E+01  0.36586305960E+01  0.82490975221E+01  0.91915731801E+01  0.51100000000E-03 0. -1.
        -11    1    3    3    0    0 -0.14246892677E+02 -0.11083505111E+02 -0.35329433036E+01  0.18392925954E+02  0.51100000000E-03 0.  1.
         12    1    3    3    0    0  0.69521122995E-01 -0.50012548273E+01 -0.31320590214E+02  0.31717451890E+02  0.00000000000E+00 0. -1.
</event>
<event>
 7    1  0.6515090E-012  0.5930194E+02  0.7816164E-02  0.1266605E+00
        -11   -1    0    0    0    0  0.00000000000E+00  0.00000000000E+00  0.45593999997E+02  0.45594000000E+02  0.51100000000E-03 0. -1.
         11   -1    0    0    0    0 -0.00000000000E+00 -0.00000000000E+00 -0.45593999997E+02  0.45594000000E+02  0.51100000000E-03 0.  1.
    9900012    2    1    2    0    0  0.15639207529E+02 -0.20664373293E+02  0.18577401488E+02  0.59301937499E+02  0.49999988094E+02 0.  0.
        -12    1    1    2    0    0 -0.15639207529E+02  0.20664373293E+02 -0.18577401488E+02  0.31886062501E+02  0.00000000000E+00 0.  1.
         11    1    3    3    0    0  0.20376694829E+02 -0.21956201662E+02  0.69641545891E+01  0.30753600326E+02  0.51100000000E-03 0. -1.
        -11    1    3    3    0    0 -0.32013494672E+01  0.44479874636E+01 -0.74030600448E+01  0.92107833096E+01  0.51100000000E-03 0.  1.
         12    1    3    3    0    0 -0.15361378327E+01 -0.31561590946E+01  0.19016306944E+02  0.19337553864E+02  0.00000000000E+00 0. -1.
</event>
<event>
 7    1  0.6515090E-012  0.5930194E+02  0.7816164E-02  0.1266605E+00
        -11   -1    0    0    0    0  0.00000000000E+00  0.00000000000E+00  0.45593999997E+02  0.45594000000E+02  0.51100000000E-03 0.  1.
         11   -1    0    0    0    0 -0.00000000000E+00 -0.00000000000E+00 -0.45593999997E+02  0.45594000000E+02  0.51100000000E-03 0. -1.
    9900012    2    1    2    0    0  0.28076751280E+02  0.94799015683E+01 -0.11770646049E+02  0.59301943414E+02  0.49999998882E+02 0.  0.
        -12    1    1    2    0    0 -0.28076751280E+02 -0.94799015683E+01  0.11770646049E+02  0.31886056586E+02  0.00000000000E+00 0.  1.
         11    1    3    3    0    0  0.16591321547E+01 -0.11621324367E+01  0.25132792533E+00  0.20411852670E+01  0.51100000000E-03 0. -1.
        -11    1    3    3    0    0  0.94638251317E+01 -0.79597438958E+01 -0.25769011591E+02  0.28582572796E+02  0.51100000000E-03 0.  1.
         12    1    3    3    0    0  0.16953793993E+02  0.18601777901E+02  0.13747037616E+02  0.28678185351E+02  0.00000000000E+00 0. -1.
</event>
<event>
 7    1  0.6515090E-012  0.5930200E+02  0.7816164E-02  0.1266605E+00
        -11   -1    0    0    0    0  0.00000000000E+00  0.00000000000E+00  0.45593999997E+02  0.45594000000E+02  0.51100000000E-03 0. -1.
         11   -1    0    0    0    0 -0.00000000000E+00 -0.00000000000E+00 -0.45593999997E+02  0.45594000000E+02  0.51100000000E-03 0.  1.
    9900012    2    1    2    0    0  0.28040479832E+02 -0.10927387709E+02  0.10537575209E+02  0.59302003032E+02  0.50000107610E+02 0.  0.
        -12    1    1    2    0    0 -0.28040479832E+02  0.10927387709E+02 -0.10537575209E+02  0.31885996968E+02  0.00000000000E+00 0.  1.
         11    1    3    3    0    0  0.13616170127E+02 -0.15220736966E+02 -0.47927235469E+01  0.20977157147E+02  0.51100000000E-03 0. -1.
        -11    1    3    3    0    0  0.48174500023E+01 -0.83099726549E+01 -0.63173125508E+01  0.11496604202E+02  0.51100000000E-03 0.  1.
         12    1    3    3    0    0  0.96068597022E+01  0.12603321911E+02  0.21647611307E+02  0.26828241683E+02  0.00000000000E+00 0. -1.
</event>
<event>
 7    1  0.6515090E-012  0.5930194E+02  0.7816164E-02  0.1266605E+00
        -11   -1    0    0    0    0  0.00000000000E+00  0.00000000000E+00  0.45593999997E+02  0.45594000000E+02  0.51100000000E-03 0. -1.
         11   -1    0    0    0    0 -0.00000000000E+00 -0.00000000000E+00 -0.45593999997E+02  0.45594000000E+02  0.51100000000E-03 0.  1.
    9900012    2    1    2    0    0  0.33492239986E+01  0.30049553538E+02  0.10125606072E+02  0.59301939291E+02  0.49999991362E+02 0.  0.
        -12    1    1    2    0    0 -0.33492239986E+01 -0.30049553538E+02 -0.10125606072E+02  0.31886060709E+02  0.00000000000E+00 0.  1.
         11    1    3    3    0    0  0.30617902196E+01  0.21854994953E+02  0.12116170815E+02  0.25175721622E+02  0.51100000000E-03 0. -1.
        -11    1    3    3    0    0  0.67947573017E+01  0.19573542688E+02 -0.31887364936E+01  0.20963309396E+02  0.51100000000E-03 0.  1.
        -12    1    3    3    0    0 -0.65073235226E+01 -0.11378984103E+02  0.11981717505E+01  0.13162908273E+02  0.00000000000E+00 0.  1.
</event>
<event>
 7    1  0.6515090E-012  0.5930195E+02  0.7816164E-02  0.1266605E+00
        -11   -1    0    0    0    0  0.00000000000E+00  0.00000000000E+00  0.45593999997E+02  0.45594000000E+02  0.51100000000E-03 0.  1.
         11   -1    0    0    0    0 -0.00000000000E+00 -0.00000000000E+00 -0.45593999997E+02  0.45594000000E+02  0.51100000000E-03 0. -1.
    9900012    2    1    2    0    0  0.29613105304E+01 -0.31465745086E+02 -0.42258568486E+01  0.59301947564E+02  0.50000006448E+02 0.  0.
        -12    1    1    2    0    0 -0.29613105304E+01  0.31465745086E+02  0.42258568486E+01  0.31886052436E+02  0.00000000000E+00 0.  1.
         11    1    3    3    0    0 -0.79776968351E+01 -0.19442152979E+01 -0.86262286121E+01  0.11909468512E+02  0.51100000000E-03 0. -1.
        -11    1    3    3    0    0  0.63662670706E+01  0.19085586294E+01 -0.10407948028E+02  0.12348981127E+02  0.51100000000E-03 0.  1.
         12    1    3    3    0    0  0.45727402949E+01 -0.31430088418E+02  0.14808319791E+02  0.35043497925E+02  0.00000000000E+00 0. -1.
</event>
<event>
 7    1  0.6515090E-012  0.5930192E+02  0.7816164E-02  0.1266605E+00
        -11   -1    0    0    0    0  0.00000000000E+00  0.00000000000E+00  0.45593999997E+02  0.45594000000E+02  0.51100000000E-03 0.  1.
         11   -1    0    0    0    0 -0.00000000000E+00 -0.00000000000E+00 -0.45593999997E+02  0.45594000000E+02  0.51100000000E-03 0. -1.
    9900012    2    1    2    0    0 -0.71469339355E+01 -0.26835847870E+02  0.15667824229E+02  0.59301919782E+02  0.49999955782E+02 0.  0.
        -12    1    1    2    0    0  0.71469339355E+01  0.26835847870E+02 -0.15667824229E+02  0.31886080218E+02  0.00000000000E+00 0.  1.
         11    1    3    3    0    0 -0.14268610365E+01 -0.10170623688E+02 -0.10811081616E+02  0.14911639903E+02  0.51100000000E-03 0. -1.
        -11    1    3    3    0    0  0.50211713635E+00 -0.14491018932E+02 -0.24629352143E+01  0.14707406347E+02  0.51100000000E-03 0.  1.
        -12    1    3    3    0    0 -0.62221900353E+01 -0.21742052502E+01  0.28941841059E+02  0.29682873533E+02  0.00000000000E+00 0.  1.
</event>
<event>
 7    1  0.6515090E-012  0.5930194E+02  0.7816164E-02  0.1266605E+00
        -11   -1    0    0    0    0  0.00000000000E+00  0.00000000000E+00  0.45593999997E+02  0.45594000000E+02  0.51100000000E-03 0.  1.
         11   -1    0    0    0    0 -0.00000000000E+00 -0.00000000000E+00 -0.45593999997E+02  0.45594000000E+02  0.51100000000E-03 0. -1.
    9900012    2    1    2    0    0  0.17164476430E+02 -0.71049490233E+01 -0.25915651233E+02  0.59301944575E+02  0.50000000998E+02 0.  0.
        -12    1    1    2    0    0 -0.17164476430E+02  0.71049490233E+01  0.25915651233E+02  0.31886055425E+02  0.00000000000E+00 0.  1.
         11    1    3    3    0    0  0.97722018075E+01 -0.13998738102E+02  0.91141787317E+00  0.17096528286E+02  0.51100000000E-03 0. -1.
        -11    1    3    3    0    0 -0.16514728142E+01 -0.99234318960E+01 -0.19137559596E+02  0.21620546954E+02  0.51100000000E-03 0.  1.
        -12    1    3    3    0    0  0.90437474364E+01  0.16817220975E+02 -0.76895095103E+01  0.20584869335E+02  0.00000000000E+00 0.  1.
</event>
<event>
 7    1  0.6515090E-012  0.5930194E+02  0.7816164E-02  0.1266605E+00
        -11   -1    0    0    0    0  0.00000000000E+00  0.00000000000E+00  0.45593999997E+02  0.45594000000E+02  0.51100000000E-03 0. -1.
         11   -1    0    0    0    0 -0.00000000000E+00 -0.00000000000E+00 -0.45593999997E+02  0.45594000000E+02  0.51100000000E-03 0.  1.
    9900012    2    1    2    0    0  0.22486609040E+02 -0.18116387015E+02  0.13522933381E+02  0.59301940478E+02  0.49999993527E+02 0.  0.
        -12    1    1    2    0    0 -0.22486609040E+02  0.18116387015E+02 -0.13522933381E+02  0.31886059522E+02  0.00000000000E+00 0.  1.
         11    1    3    3    0    0  0.28007382738E+01  0.10994195552E+02  0.37779528968E+01  0.11957817488E+02  0.51100000000E-03 0. -1.
        -11    1    3    3    0    0  0.37420253929E+01  0.22412121840E+01 -0.71098581451E+01  0.83412150913E+01  0.51100000000E-03 0.  1.
         12    1    3    3    0    0  0.15943845374E+02 -0.31351794751E+02  0.16854838629E+02  0.39002907899E+02  0.00000000000E+00 0. -1.
</event>
<event>
 7    1  0.6515090E-012  0.5930198E+02  0.7816164E-02  0.1266605E+00
        -11   -1    0    0    0    0  0.00000000000E+00  0.00000000000E+00  0.45593999997E+02  0.45594000000E+02  0.51100000000E-03 0.  1.
         11   -1    0    0    0    0 -0.00000000000E+00 -0.00000000000E+00 -0.45593999997E+02  0.45594000000E+02  0.51100000000E-03 0. -1.
    9900012    2    1    2    0    0 -0.41435535386E+01 -0.71055149504E+01 -0.30806828077E+02  0.59301983711E+02  0.50000072372E+02 0.  0.
        -12    1    1    2    0    0  0.41435535386E+01  0.71055149504E+01  0.30806828077E+02  0.31886016289E+02  0.00000000000E+00 0.  1.
         11    1    3    3    0    0  0.85972116762E+01 -0.80957339116E+01 -0.91216289394E+01  0.14921697991E+02  0.51100000000E-03 0. -1.
        -11    1    3    3    0    0  0.22996034742E+01 -0.15612901763E+02 -0.12645017505E+02  0.20222446577E+02  0.51100000000E-03 0.  1.
        -12    1    3    3    0    0 -0.15040368689E+02  0.16603120724E+02 -0.90401816326E+01  0.24157839142E+02  0.00000000000E+00 0.  1.
</event>
<event>
 7    1  0.6515090E-012  0.5930196E+02  0.7816164E-02  0.1266605E+00
        -11   -1    0    0    0    0  0.00000000000E+00  0.00000000000E+00  0.45593999997E+02  0.45594000000E+02  0.51100000000E-03 0. -1.
         11   -1    0    0    0    0 -0.00000000000E+00 -0.00000000000E+00 -0.45593999997E+02  0.45594000000E+02  0.51100000000E-03 0.  1.
    9900012    2    1    2    0    0 -0.25566431097E+02  0.17557539009E+02  0.74033851233E+01  0.59301957813E+02  0.50000025140E+02 0.  0.
        -12    1    1    2    0    0  0.25566431097E+02 -0.17557539009E+02 -0.74033851233E+01  0.31886042187E+02  0.00000000000E+00 0.  1.
         11    1    3    3    0    0 -0.63401200759E+01 -0.66429972806E+01 -0.50603197461E+01  0.10484911618E+02  0.51100000000E-03 0. -1.
        -11    1    3    3    0    0  0.67323193873E+01  0.65807859916E+01 -0.71458280634E+01  0.11819210108E+02  0.51100000000E-03 0.  1.
         12    1    3    3    0    0 -0.25958630408E+02  0.17619750298E+02  0.19609532933E+02  0.36997836087E+02  0.00000000000E+00 0. -1.
</event>
<event>
 7    1  0.6515090E-012  0.5930195E+02  0.7816164E-02  0.1266605E+00
        -11   -1    0    0    0    0  0.00000000000E+00  0.00000000000E+00  0.45593999997E+02  0.45594000000E+02  0.51100000000E-03 0. -1.
         11   -1    0    0    0    0 -0.00000000000E+00 -0.00000000000E+00 -0.45593999997E+02  0.45594000000E+02  0.51100000000E-03 0.  1.
    9900012    2    1    2    0    0 -0.19190620922E+02  0.48456020808E+01  0.24999210477E+02  0.59301947949E+02  0.50000007152E+02 0.  0.
        -12    1    1    2    0    0  0.19190620922E+02 -0.48456020808E+01 -0.24999210477E+02  0.31886052051E+02  0.00000000000E+00 0.  1.
         11    1    3    3    0    0 -0.25252341055E+02  0.60391750793E+01  0.91892992855E+01  0.27542614001E+02  0.51100000000E-03 0. -1.
        -11    1    3    3    0    0  0.86310550297E+01  0.86740584910E+01 -0.80718271935E+00  0.12263194765E+02  0.51100000000E-03 0.  1.
         12    1    3    3    0    0 -0.25693348973E+01 -0.98676314896E+01  0.16617093911E+02  0.19496139184E+02  0.00000000000E+00 0. -1.
</event>
<event>
 7    1  0.6515090E-012  0.5930193E+02  0.7816164E-02  0.1266605E+00
        -11   -1    0    0    0    0  0.00000000000E+00  0.00000000000E+00  0.45593999997E+02  0.45594000000E+02  0.51100000000E-03 0. -1.
         11   -1    0    0    0    0 -0.00000000000E+00 -0.00000000000E+00 -0.45593999997E+02  0.45594000000E+02  0.51100000000E-03 0.  1.
    9900012    2    1    2    0    0 -0.17033075916E+02  0.17599219778E+02  0.20417231838E+02  0.59301928309E+02  0.49999971332E+02 0.  0.
        -12    1    1    2    0    0  0.17033075916E+02 -0.17599219778E+02 -0.20417231838E+02  0.31886071691E+02  0.00000000000E+00 0.  1.
         11    1    3    3    0    0 -0.55020363140E+01  0.19492268253E+01  0.30734131692E+02  0.31283521860E+02  0.51100000000E-03 0. -1.
        -11    1    3    3    0    0  0.96095090126E+00 -0.91380830243E+00  0.30589020505E+01  0.33339697455E+01  0.51100000000E-03 0.  1.
        -12    1    3    3    0    0 -0.12491990504E+02  0.16563801255E+02 -0.13375801905E+02  0.24684436703E+02  0.00000000000E+00 0.  1.
</event>
<event>
 7    1  0.6515090E-012  0.5930186E+02  0.7816164E-02  0.1266605E+00
        -11   -1    0    0    0    0  0.00000000000E+00  0.00000000000E+00  0.45593999997E+02  0.45594000000E+02  0.51100000000E-03 0. -1.
         11   -1    0    0    0    0 -0.00000000000E+00 -0.00000000000E+00 -0.45593999997E+02  0.45594000000E+02  0.51100000000E-03 0.  1.
    9900012    2    1    2    0    0 -0.18551095512E+02 -0.25180803894E+02  0.62056359468E+01  0.59301859642E+02  0.49999846100E+02 0.  0.
        -12    1    1    2    0    0  0.18551095512E+02  0.25180803894E+02 -0.62056359468E+01  0.31886140358E+02  0.00000000000E+00 0.  1.
         11    1    3    3    0    0 -0.92273600264E+01  0.40401054564E+00 -0.12570307091E+02  0.15598718480E+02  0.51100000000E-03 0. -1.
        -11    1    3    3    0    0 -0.85210687156E+00 -0.18376782060E+01 -0.72140223711E+01  0.74930145029E+01  0.51100000000E-03 0.  1.
         12    1    3    3    0    0 -0.84716286137E+01 -0.23747136234E+02  0.25989965409E+02  0.36210126659E+02  0.00000000000E+00 0. -1.
</event>
<event>
 7    1  0.6515090E-012  0.5930185E+02  0.7816164E-02  0.1266605E+00
        -11   -1    0    0    0    0  0.00000000000E+00  0.00000000000E+00  0.45593999997E+02  0.45594000000E+02  0.51100000000E-03 0.  1.
         11   -1    0    0    0    0 -0.00000000000E+00 -0.00000000000E+00 -0.45593999997E+02  0.45594000000E+02  0.51100000000E-03 0. -1.
    9900012    2    1    2    0    0 -0.16396854426E+01 -0.28828192063E+02 -0.13526768423E+02  0.59301847991E+02  0.49999824851E+02 0.  0.
        -12    1    1    2    0    0  0.16396854426E+01  0.28828192063E+02  0.13526768423E+02  0.31886152009E+02  0.00000000000E+00 0.  1.
         11    1    3    3    0    0  0.23979522740E+01 -0.11703798135E+02  0.39802203522E+01  0.12592506510E+02  0.51100000000E-03 0. -1.
        -11    1    3    3    0    0  0.13024429964E+01 -0.27824288226E+01  0.12582212326E+02  0.12951846786E+02  0.51100000000E-03 0.  1.
         12    1    3    3    0    0 -0.53400807129E+01 -0.14341965105E+02 -0.30089201101E+02  0.33757494694E+02  0.00000000000E+00 0. -1.
</event>
<event>
 7    1  0.6515090E-012  0.5930195E+02  0.7816164E-02  0.1266605E+00
        -11   -1    0    0    0    0  0.00000000000E+00  0.00000000000E+00  0.45593999997E+02  0.45594000000E+02  0.51100000000E-03 0. -1.
         11   -1    0    0    0    0 -0.00000000000E+00 -0.00000000000E+00 -0.45593999997E+02  0.45594000000E+02  0.51100000000E-03 0.  1.
    9900012    2    1    2    0    0 -0.27628723637E+02  0.49849563084E+01 -0.15117020874E+02  0.59301945379E+02  0.50000002464E+02 0.  0.
        -12    1    1    2    0    0  0.27628723637E+02 -0.49849563084E+01  0.15117020874E+02  0.31886054621E+02  0.00000000000E+00 0.  1.
         11    1    3    3    0    0 -0.98700744732E+01  0.97818615272E+00  0.11639158943E+02  0.15291999196E+02  0.51100000000E-03 0. -1.
        -11    1    3    3    0    0 -0.13473167479E+02 -0.11210337088E+02 -0.74181605440E+01  0.19032262232E+02  0.51100000000E-03 0.  1.
        -12    1    3    3    0    0 -0.42854816847E+01  0.15217107244E+02 -0.19338019273E+02  0.24977683951E+02  0.00000000000E+00 0.  1.
</event>
<event>
 7    1  0.6515090E-012  0.5930180E+02  0.7816164E-02  0.1266605E+00
        -11   -1    0    0    0    0  0.00000000000E+00  0.00000000000E+00  0.45593999997E+02  0.45594000000E+02  0.51100000000E-03 0.  1.
         11   -1    0    0    0    0 -0.00000000000E+00 -0.00000000000E+00 -0.45593999997E+02  0.45594000000E+02  0.51100000000E-03 0. -1.
    9900012    2    1    2    0    0  0.10283239327E+02  0.30166482430E+02  0.98378502894E+00  0.59301803829E+02  0.49999744311E+02 0.  0.
        -12    1    1    2    0    0 -0.10283239327E+02 -0.30166482430E+02 -0.98378502894E+00  0.31886196171E+02  0.00000000000E+00 0.  1.
         11    1    3    3    0    0  0.12098665690E+02 -0.37152723728E+01 -0.14530489254E+02  0.19269563527E+02  0.51100000000E-03 0. -1.
        -11    1    3    3    0    0  0.46411945133E+01  0.34520357967E+01  0.20590721682E+01  0.61397895816E+01  0.51100000000E-03 0.  1.
        -12    1    3    3    0    0 -0.64566208760E+01  0.30429719006E+02  0.13455202115E+02  0.33892450721E+02  0.00000000000E+00 0.  1.
</event>
<event>
 7    1  0.6515090E-012  0.5930194E+02  0.7816164E-02  0.1266605E+00
        -11   -1    0    0    0    0  0.00000000000E+00  0.00000000000E+00  0.45593999997E+02  0.45594000000E+02  0.51100000000E-03 0.  1.
         11   -1    0    0    0    0 -0.00000000000E+00 -0.00000000000E+00 -0.45593999997E+02  0.45594000000E+02  0.51100000000E-03 0. -1.
    9900012    2    1    2    0    0 -0.10631804212E+02 -0.28325214621E+02  0.10068150568E+02  0.59301941918E+02  0.49999996153E+02 0.  0.
        -12    1    1    2    0    0  0.10631804212E+02  0.28325214621E+02 -0.10068150568E+02  0.31886058082E+02  0.00000000000E+00 0.  1.
         11    1    3    3    0    0  0.88329266057E+01 -0.29722042838E+02 -0.55292139931E+01  0.31495914505E+02  0.51100000000E-03 0. -1.
        -11    1    3    3    0    0 -0.10378926540E+02  0.16281917877E+01  0.92471529540E+00  0.10546479188E+02  0.51100000000E-03 0.  1.
        -12    1    3    3    0    0 -0.90858042780E+01 -0.23136357121E+00  0.14672649265E+02  0.17259548225E+02  0.00000000000E+00 0.  1.
</event>
<event>
 7    1  0.6515090E-012  0.5930194E+02  0.7816164E-02  0.1266605E+00
        -11   -1    0    0    0    0  0.00000000000E+00  0.00000000000E+00  0.45593999997E+02  0.45594000000E+02  0.51100000000E-03 0.  1.
         11   -1    0    0    0    0 -0.00000000000E+00 -0.00000000000E+00 -0.45593999997E+02  0.45594000000E+02  0.51100000000E-03 0. -1.
    9900012    2    1    2    0    0 -0.23902987230E+02  0.37647474466E+01 -0.20765232112E+02  0.59301937425E+02  0.49999987958E+02 0.  0.
        -12    1    1    2    0    0  0.23902987230E+02 -0.37647474466E+01  0.20765232112E+02  0.31886062575E+02  0.00000000000E+00 0.  1.
         11    1    3    3    0    0 -0.50789352524E+01  0.16214017009E+02 -0.19515050142E+02  0.25875221992E+02  0.51100000000E-03 0. -1.
        -11    1    3    3    0    0  0.45735590547E+01 -0.49722550079E+01 -0.52293466789E+01  0.85432329501E+01  0.51100000000E-03 0.  1.
        -12    1    3    3    0    0 -0.23397611032E+02 -0.74770145542E+01  0.39791647085E+01  0.24883482482E+02  0.00000000000E+00 0.  1.
</event>
<event>
 7    1  0.6515090E-012  0.5930196E+02  0.7816164E-02  0.1266605E+00
        -11   -1    0    0    0    0  0.00000000000E+00  0.00000000000E+00  0.45593999997E+02  0.45594000000E+02  0.51100000000E-03 0.  1.
         11   -1    0    0    0    0 -0.00000000000E+00 -0.00000000000E+00 -0.45593999997E+02  0.45594000000E+02  0.51100000000E-03 0. -1.
    9900012    2    1    2    0    0  0.17943290969E+02 -0.13941108003E+02 -0.22369690882E+02  0.59301964604E+02  0.50000037525E+02 0.  0.
        -12    1    1    2    0    0 -0.17943290969E+02  0.13941108003E+02  0.22369690882E+02  0.31886035396E+02  0.00000000000E+00 0.  1.
         11    1    3    3    0    0  0.23547680230E+01 -0.15486126952E+02 -0.10138710719E+02  0.18659006290E+02  0.51100000000E-03 0. -1.
        -11    1    3    3    0    0  0.18885562762E+01 -0.15088707603E+02 -0.11528080374E+02  0.19082252993E+02  0.51100000000E-03 0.  1.
        -12    1    3    3    0    0  0.13699966670E+02  0.16633726552E+02 -0.70289978844E+00  0.21560705320E+02  0.00000000000E+00 0.  1.
</event>
<event>
 7    1  0.6515090E-012  0.5930192E+02  0.7816164E-02  0.1266605E+00
        -11   -1    0    0    0    0  0.00000000000E+00  0.00000000000E+00  0.45593999997E+02  0.45594000000E+02  0.51100000000E-03 0.  1.
         11   -1    0    0    0    0 -0.00000000000E+00 -0.00000000000E+00 -0.45593999997E+02  0.45594000000E+02  0.51100000000E-03 0. -1.
    9900012    2    1    2    0    0 -0.99542982573E+01  0.25584657528E+02 -0.16219103021E+02  0.59301920632E+02  0.49999957332E+02 0.  0.
        -12    1    1    2    0    0  0.99542982573E+01 -0.25584657528E+02  0.16219103021E+02  0.31886079368E+02  0.00000000000E+00 0.  1.
         11    1    3    3    0    0  0.64966795912E+01  0.11767794767E+00 -0.47380385755E+01  0.80417475473E+01  0.51100000000E-03 0. -1.
        -11    1    3    3    0    0  0.12314491373E+02  0.15412622037E+01 -0.12618601761E+01  0.12474553231E+02  0.51100000000E-03 0.  1.
         12    1    3    3    0    0 -0.28765469222E+02  0.23925717377E+02 -0.10219204270E+02  0.38785619854E+02  0.00000000000E+00 0. -1.
</event>
<event>
 7    1  0.6515090E-012  0.5930193E+02  0.7816164E-02  0.1266605E+00
        -11   -1    0    0    0    0  0.00000000000E+00  0.00000000000E+00  0.45593999997E+02  0.45594000000E+02  0.51100000000E-03 0. -1.
         11   -1    0    0    0    0 -0.00000000000E+00 -0.00000000000E+00 -0.45593999997E+02  0.45594000000E+02  0.51100000000E-03 0.  1.
    9900012    2    1    2    0    0 -0.17178912864E+02 -0.12083998638E+01  0.26835540860E+02  0.59301928892E+02  0.49999972397E+02 0.  0.
        -12    1    1    2    0    0  0.17178912864E+02  0.12083998638E+01 -0.26835540860E+02  0.31886071108E+02  0.00000000000E+00 0.  1.
         11    1    3    3    0    0 -0.15790831342E+02  0.11558936717E+02  0.13136580819E+02  0.23569665428E+02  0.51100000000E-03 0. -1.
        -11    1    3    3    0    0 -0.10876533976E+02 -0.78499487756E+01 -0.49009322169E+01  0.14280750119E+02  0.51100000000E-03 0.  1.
         12    1    3    3    0    0  0.94884524543E+01 -0.49173878051E+01  0.18599892258E+02  0.21451513346E+02  0.00000000000E+00 0. -1.
</event>
<event>
 7    1  0.6515090E-012  0.5930195E+02  0.7816164E-02  0.1266605E+00
        -11   -1    0    0    0    0  0.00000000000E+00  0.00000000000E+00  0.45593999997E+02  0.45594000000E+02  0.51100000000E-03 0.  1.
         11   -1    0    0    0    0 -0.00000000000E+00 -0.00000000000E+00 -0.45593999997E+02  0.45594000000E+02  0.51100000000E-03 0. -1.
    9900012    2    1    2    0    0  0.72500173020E+01 -0.31038152898E+02  0.88916964740E+00  0.59301948051E+02  0.50000007338E+02 0.  0.
        -12    1    1    2    0    0 -0.72500173020E+01  0.31038152898E+02 -0.88916964740E+00  0.31886051949E+02  0.00000000000E+00 0.  1.
         11    1    3    3    0    0 -0.13685206051E+02 -0.12694703204E+02 -0.14587661535E+02  0.23690509142E+02  0.51100000000E-03 0. -1.
        -11    1    3    3    0    0  0.10349602755E+02 -0.18806448871E+02  0.99310458391E+01  0.23652113395E+02  0.51100000000E-03 0.  1.
        -12    1    3    3    0    0  0.10585620598E+02  0.46299917628E+00  0.55457853434E+01  0.11959325514E+02  0.00000000000E+00 0.  1.
</event>
<event>
 7    1  0.6515090E-012  0.5930201E+02  0.7816164E-02  0.1266605E+00
        -11   -1    0    0    0    0  0.00000000000E+00  0.00000000000E+00  0.45593999997E+02  0.45594000000E+02  0.51100000000E-03 0.  1.
         11   -1    0    0    0    0 -0.00000000000E+00 -0.00000000000E+00 -0.45593999997E+02  0.45594000000E+02  0.51100000000E-03 0. -1.
    9900012    2    1    2    0    0 -0.13600356007E+02 -0.15331330634E+02 -0.24427377406E+02  0.59302013274E+02  0.50000126289E+02 0.  0.
        -12    1    1    2    0    0  0.13600356007E+02  0.15331330634E+02  0.24427377406E+02  0.31885986726E+02  0.00000000000E+00 0.  1.
         11    1    3    3    0    0 -0.31648145004E+01 -0.43686711379E+01  0.81295936702E+01  0.97566198982E+01  0.51100000000E-03 0. -1.
        -11    1    3    3    0    0 -0.11649453335E+02 -0.36554715770E+01  0.35271921735E+01  0.12708789099E+02  0.51100000000E-03 0.  1.
         12    1    3    3    0    0  0.12139118291E+01 -0.73071879194E+01 -0.36084163250E+02  0.36836604277E+02  0.00000000000E+00 0. -1.
</event>
<event>
 7    1  0.6515090E-012  0.5930201E+02  0.7816164E-02  0.1266605E+00
        -11   -1    0    0    0    0  0.00000000000E+00  0.00000000000E+00  0.45593999997E+02  0.45594000000E+02  0.51100000000E-03 0. -1.
         11   -1    0    0    0    0 -0.00000000000E+00 -0.00000000000E+00 -0.45593999997E+02  0.45594000000E+02  0.51100000000E-03 0.  1.
    9900012    2    1    2    0    0  0.16563146030E+02 -0.17365933154E+01  0.27191228506E+02  0.59302008241E+02  0.50000117110E+02 0.  0.
        -12    1    1    2    0    0 -0.16563146030E+02  0.17365933154E+01 -0.27191228506E+02  0.31885991759E+02  0.00000000000E+00 0.  1.
         11    1    3    3    0    0  0.15190140649E+02 -0.56808918948E+01  0.10977830166E+02  0.19583811199E+02  0.51100000000E-03 0. -1.
        -11    1    3    3    0    0  0.12114125046E+02  0.59262384750E+01 -0.61560248185E+01  0.14824606906E+02  0.51100000000E-03 0.  1.
        -12    1    3    3    0    0 -0.10741119665E+02 -0.19819398957E+01  0.22369423159E+02  0.24893590137E+02  0.00000000000E+00 0.  1.
</event>
<event>
 7    1  0.6515090E-012  0.5930194E+02  0.7816164E-02  0.1266605E+00
        -11   -1    0    0    0    0  0.00000000000E+00  0.00000000000E+00  0.45593999997E+02  0.45594000000E+02  0.51100000000E-03 0.  1.
         11   -1    0    0    0    0 -0.00000000000E+00 -0.00000000000E+00 -0.45593999997E+02  0.45594000000E+02  0.51100000000E-03 0. -1.
    9900012    2    1    2    0    0  0.57751633588E+01 -0.28323453087E+02 -0.13459208902E+02  0.59301940180E+02  0.49999992983E+02 0.  0.
        -12    1    1    2    0    0 -0.57751633588E+01  0.28323453087E+02  0.13459208902E+02  0.31886059820E+02  0.00000000000E+00 0.  1.
         11    1    3    3    0    0  0.15555649504E+02  0.15888273757E+01  0.56714077060E+01  0.16633324068E+02  0.51100000000E-03 0.  1.
        -11    1    3    3    0    0  0.65919727040E-01 -0.16096771346E+02 -0.20009573054E+02  0.25680603716E+02  0.51100000000E-03 0. -1.
        -12    1    3    3    0    0 -0.98464058718E+01 -0.13815509117E+02  0.87895644594E+00  0.16988012397E+02  0.00000000000E+00 0.  1.
</event>
<event>
 7    1  0.6515090E-012  0.5930192E+02  0.7816164E-02  0.1266605E+00
        -11   -1    0    0    0    0  0.00000000000E+00  0.00000000000E+00  0.45593999997E+02  0.45594000000E+02  0.51100000000E-03 0.  1.
         11   -1    0    0    0    0 -0.00000000000E+00 -0.00000000000E+00 -0.45593999997E+02  0.45594000000E+02  0.51100000000E-03 0. -1.
    9900012    2    1    2    0    0 -0.53398262029E+01  0.23001916683E+02 -0.21427085688E+02  0.59301922850E+02  0.49999961377E+02 0.  0.
        -12    1    1    2    0    0  0.53398262029E+01 -0.23001916683E+02  0.21427085688E+02  0.31886077150E+02  0.00000000000E+00 0.  1.
         11    1    3    3    0    0 -0.66138987665E+01 -0.44117370273E+01 -0.16134028098E+02  0.17986493361E+02  0.51100000000E-03 0. -1.
        -11    1    3    3    0    0  0.10375943986E+02  0.50985928813E+01 -0.11627658016E+02  0.16396898919E+02  0.51100000000E-03 0.  1.
        -12    1    3    3    0    0 -0.91018714228E+01  0.22315060829E+02  0.63346004260E+01  0.24918530569E+02  0.00000000000E+00 0.  1.
</event>
<event>
 7    1  0.6515090E-012  0.5930199E+02  0.7816164E-02  0.1266605E+00
        -11   -1    0    0    0    0  0.00000000000E+00  0.00000000000E+00  0.45593999997E+02  0.45594000000E+02  0.51100000000E-03 0. -1.
         11   -1    0    0    0    0 -0.00000000000E+00 -0.00000000000E+00 -0.45593999997E+02  0.45594000000E+02  0.51100000000E-03 0.  1.
    9900012    2    1    2    0    0 -0.11779443293E+01 -0.25124280644E+01  0.31765036617E+02  0.59301993682E+02  0.50000090557E+02 0.  0.
        -12    1    1    2    0    0  0.11779443293E+01  0.25124280644E+01 -0.31765036617E+02  0.31886006318E+02  0.00000000000E+00 0.  1.
         11    1    3    3    0    0  0.16355957266E+02  0.47280766012E+01  0.17956944265E+02  0.24745179208E+02  0.51100000000E-03 0. -1.
        -11    1    3    3    0    0  0.25075771573E+01  0.30013709916E+01  0.11243558165E+02  0.11904359349E+02  0.51100000000E-03 0.  1.
         12    1    3    3    0    0 -0.20041478753E+02 -0.10241875657E+02  0.25645341868E+01  0.22652455125E+02  0.00000000000E+00 0. -1.
</event>
<event>
 7    1  0.6515090E-012  0.5930196E+02  0.7816164E-02  0.1266605E+00
        -11   -1    0    0    0    0  0.00000000000E+00  0.00000000000E+00  0.45593999997E+02  0.45594000000E+02  0.51100000000E-03 0. -1.
         11   -1    0    0    0    0 -0.00000000000E+00 -0.00000000000E+00 -0.45593999997E+02  0.45594000000E+02  0.51100000000E-03 0.  1.
    9900012    2    1    2    0    0 -0.10616251902E+02  0.11980768306E+02  0.27576730481E+02  0.59301957949E+02  0.50000025390E+02 0.  0.
        -12    1    1    2    0    0  0.10616251902E+02 -0.11980768306E+02 -0.27576730481E+02  0.31886042051E+02  0.00000000000E+00 0.  1.
         11    1    3    3    0    0  0.19953963934E+01  0.84877397714E+01  0.54183563041E+01  0.10265569565E+02  0.51100000000E-03 0.  1.
        -11    1    3    3    0    0  0.41691055111E+00  0.21468563378E+02  0.12294049177E+02  0.24743012616E+02  0.51100000000E-03 0. -1.
        -12    1    3    3    0    0 -0.13028558847E+02 -0.17975534843E+02  0.98643249999E+01  0.24293375768E+02  0.00000000000E+00 0.  1.
</event>
<event>
 7    1  0.6515090E-012  0.5930189E+02  0.7816164E-02  0.1266605E+00
        -11   -1    0    0    0    0  0.00000000000E+00  0.00000000000E+00  0.45593999997E+02  0.45594000000E+02  0.51100000000E-03 0.  1.
         11   -1    0    0    0    0 -0.00000000000E+00 -0.00000000000E+00 -0.45593999997E+02  0.45594000000E+02  0.51100000000E-03 0. -1.
    9900012    2    1    2    0    0 -0.20522843053E+02  0.24335085283E+02  0.18277659154E+01  0.59301887177E+02  0.49999896319E+02 0.  0.
        -12    1    1    2    0    0  0.20522843053E+02 -0.24335085283E+02 -0.18277659154E+01  0.31886112823E+02  0.00000000000E+00 0.  1.
         11    1    3    3    0    0 -0.47313734494E+01 -0.50559093580E+01  0.27531277511E+01  0.74516995933E+01  0.51100000000E-03 0. -1.
        -11    1    3    3    0    0 -0.28636538090E+02  0.14452943316E+02  0.67321210763E+00  0.32084140927E+02  0.51100000000E-03 0.  1.
         12    1    3    3    0    0  0.12845068486E+02  0.14938051325E+02 -0.15985739433E+01  0.19766046657E+02  0.00000000000E+00 0. -1.
</event>
<event>
 7    1  0.6515090E-012  0.5930195E+02  0.7816164E-02  0.1266605E+00
        -11   -1    0    0    0    0  0.00000000000E+00  0.00000000000E+00  0.45593999997E+02  0.45594000000E+02  0.51100000000E-03 0. -1.
         11   -1    0    0    0    0 -0.00000000000E+00 -0.00000000000E+00 -0.45593999997E+02  0.45594000000E+02  0.51100000000E-03 0.  1.
    9900012    2    1    2    0    0  0.18374500082E+02 -0.12764264012E+02  0.22719408468E+02  0.59301949599E+02  0.50000010161E+02 0.  0.
        -12    1    1    2    0    0 -0.18374500082E+02  0.12764264012E+02 -0.22719408468E+02  0.31886050401E+02  0.00000000000E+00 0.  1.
         11    1    3    3    0    0  0.16723878400E+02 -0.12950010197E+01  0.89717807457E+01  0.19022565189E+02  0.51100000000E-03 0. -1.
        -11    1    3    3    0    0  0.13739517126E+01 -0.40973307768E+01 -0.12389264008E+02  0.13121346186E+02  0.51100000000E-03 0.  1.
         12    1    3    3    0    0  0.27666996934E+00 -0.73719322154E+01  0.26136891731E+02  0.27158038224E+02  0.00000000000E+00 0. -1.
</event>
<event>
 7    1  0.6515090E-012  0.5930195E+02  0.7816164E-02  0.1266605E+00
        -11   -1    0    0    0    0  0.00000000000E+00  0.00000000000E+00  0.45593999997E+02  0.45594000000E+02  0.51100000000E-03 0. -1.
         11   -1    0    0    0    0 -0.00000000000E+00 -0.00000000000E+00 -0.45593999997E+02  0.45594000000E+02  0.51100000000E-03 0.  1.
    9900012    2    1    2    0    0  0.28138746971E+02 -0.14817866301E+02 -0.23156456734E+01  0.59301945718E+02  0.50000003082E+02 0.  0.
        -12    1    1    2    0    0 -0.28138746971E+02  0.14817866301E+02  0.23156456734E+01  0.31886054282E+02  0.00000000000E+00 0.  1.
         11    1    3    3    0    0  0.22673579639E+00 -0.14871879144E+02  0.10689200576E+02  0.18316200687E+02  0.51100000000E-03 0. -1.
        -11    1    3    3    0    0  0.17512209671E+00 -0.64288604336E+01  0.42257021694E+01  0.76952890335E+01  0.51100000000E-03 0.  1.
         12    1    3    3    0    0  0.27736889078E+02  0.64828732769E+01 -0.17230548419E+02  0.33290455997E+02  0.00000000000E+00 0. -1.
</event>
<event>
 7    1  0.6515090E-012  0.5930194E+02  0.7816164E-02  0.1266605E+00
        -11   -1    0    0    0    0  0.00000000000E+00  0.00000000000E+00  0.45593999997E+02  0.45594000000E+02  0.51100000000E-03 0.  1.
         11   -1    0    0    0    0 -0.00000000000E+00 -0.00000000000E+00 -0.45593999997E+02  0.45594000000E+02  0.51100000000E-03 0. -1.
    9900012    2    1    2    0    0 -0.12528834608E+02 -0.57754179871E+01 -0.28747068960E+02  0.59301935279E+02  0.49999984045E+02 0.  0.
        -12    1    1    2    0    0  0.12528834608E+02  0.57754179871E+01  0.28747068960E+02  0.31886064721E+02  0.00000000000E+00 0.  1.
         11    1    3    3    0    0  0.21053086333E+01  0.67276073246E+01 -0.35986184597E+01  0.79147381406E+01  0.51100000000E-03 0. -1.
        -11    1    3    3    0    0  0.37019572398E+01  0.12923830805E+02 -0.68364859270E+01  0.15082023411E+02  0.51100000000E-03 0.  1.
         12    1    3    3    0    0 -0.18336100481E+02 -0.25426856117E+02 -0.18311964574E+02  0.36305173727E+02  0.00000000000E+00 0. -1.
</event>
<event>
 7    1  0.6515090E-012  0.5930194E+02  0.7816164E-02  0.1266605E+00
        -11   -1    0    0    0    0  0.00000000000E+00  0.00000000000E+00  0.45593999997E+02  0.45594000000E+02  0.51100000000E-03 0.  1.
         11   -1    0    0    0    0 -0.00000000000E+00 -0.00000000000E+00 -0.45593999997E+02  0.45594000000E+02  0.51100000000E-03 0. -1.
    9900012    2    1    2    0    0 -0.14654126861E+02 -0.27969209411E+02  0.44385451445E+01  0.59301940473E+02  0.49999993517E+02 0.  0.
        -12    1    1    2    0    0  0.14654126861E+02  0.27969209411E+02 -0.44385451445E+01  0.31886059527E+02  0.00000000000E+00 0.  1.
         11    1    3    3    0    0  0.50731084386E+01  0.32352083388E+01 -0.83051101415E+00  0.60739403217E+01  0.51100000000E-03 0.  1.
        -11    1    3    3    0    0 -0.27592614801E+02 -0.21608731873E+02  0.14330948927E+02  0.37863779290E+02  0.51100000000E-03 0. -1.
         12    1    3    3    0    0  0.78653795013E+01 -0.95956858772E+01 -0.90618927679E+01  0.15364220862E+02  0.00000000000E+00 0. -1.
</event>
<event>
 7    1  0.6515090E-012  0.5930197E+02  0.7816164E-02  0.1266605E+00
        -11   -1    0    0    0    0  0.00000000000E+00  0.00000000000E+00  0.45593999997E+02  0.45594000000E+02  0.51100000000E-03 0. -1.
         11   -1    0    0    0    0 -0.00000000000E+00 -0.00000000000E+00 -0.45593999997E+02  0.45594000000E+02  0.51100000000E-03 0.  1.
    9900012    2    1    2    0    0 -0.72254444609E+01 -0.86911237713E+01  0.29815702373E+02  0.59301971899E+02  0.50000050831E+02 0.  0.
        -12    1    1    2    0    0  0.72254444609E+01  0.86911237713E+01 -0.29815702373E+02  0.31886028101E+02  0.00000000000E+00 0.  1.
         11    1    3    3    0    0  0.16156647747E+01 -0.15140389949E+00  0.24791565949E+00  0.16415718809E+01  0.51100000000E-03 0. -1.
        -11    1    3    3    0    0 -0.17271587038E+01  0.16279462964E+02 -0.24246170335E+01  0.16549403603E+02  0.51100000000E-03 0.  1.
         12    1    3    3    0    0 -0.71139505318E+01 -0.24819182836E+02  0.31992403747E+02  0.41110996416E+02  0.00000000000E+00 0. -1.
</event>
<event>
 7    1  0.6515090E-012  0.5930189E+02  0.7816164E-02  0.1266605E+00
        -11   -1    0    0    0    0  0.00000000000E+00  0.00000000000E+00  0.45593999997E+02  0.45594000000E+02  0.51100000000E-03 0.  1.
         11   -1    0    0    0    0 -0.00000000000E+00 -0.00000000000E+00 -0.45593999997E+02  0.45594000000E+02  0.51100000000E-03 0. -1.
    9900012    2    1    2    0    0 -0.16239565938E+02  0.12530185939E+01 -0.27412231678E+02  0.59301890124E+02  0.49999901693E+02 0.  0.
        -12    1    1    2    0    0  0.16239565938E+02 -0.12530185939E+01  0.27412231678E+02  0.31886109876E+02  0.00000000000E+00 0.  1.
         11    1    3    3    0    0 -0.12124105503E+01  0.20241510084E+02 -0.20049819004E+02  0.28516379717E+02  0.51100000000E-03 0. -1.
        -11    1    3    3    0    0 -0.60977876553E+01 -0.83715575090E+01 -0.12282351091E+02  0.16066179944E+02  0.51100000000E-03 0.  1.
        -12    1    3    3    0    0 -0.89293677323E+01 -0.10616933981E+02  0.49199384165E+01  0.14719330463E+02  0.00000000000E+00 0.  1.
</event>
<event>
 7    1  0.6515090E-012  0.5930200E+02  0.7816164E-02  0.1266605E+00
        -11   -1    0    0    0    0  0.00000000000E+00  0.00000000000E+00  0.45593999997E+02  0.45594000000E+02  0.51100000000E-03 0.  1.
         11   -1    0    0    0    0 -0.00000000000E+00 -0.00000000000E+00 -0.45593999997E+02  0.45594000000E+02  0.51100000000E-03 0. -1.
    9900012    2    1    2    0    0  0.29329520730E+02 -0.77025610985E+01 -0.98573316177E+01  0.59301996482E+02  0.50000095664E+02 0.  0.
        -12    1    1    2    0    0 -0.29329520730E+02  0.77025610985E+01  0.98573316177E+01  0.31886003518E+02  0.00000000000E+00 0.  1.
         11    1    3    3    0    0  0.63002045348E+00  0.54252523998E+00  0.45125791188E+00  0.94598804008E+00  0.51100000000E-03 0.  1.
        -11    1    3    3    0    0  0.21827948990E+02 -0.10383020623E+02  0.17364650821E+02  0.29762351600E+02  0.51100000000E-03 0. -1.
         12    1    3    3    0    0  0.68715512858E+01  0.21379342844E+01 -0.27673240351E+02  0.28593656842E+02  0.00000000000E+00 0. -1.
</event>
<event>
 7    1  0.6515090E-012  0.5930195E+02  0.7816164E-02  0.1266605E+00
        -11   -1    0    0    0    0  0.00000000000E+00  0.00000000000E+00  0.45593999997E+02  0.45594000000E+02  0.51100000000E-03 0. -1.
         11   -1    0    0    0    0 -0.00000000000E+00 -0.00000000000E+00 -0.45593999997E+02  0.45594000000E+02  0.51100000000E-03 0.  1.
    9900012    2    1    2    0    0  0.29689277342E+02 -0.59461156860E+01  0.99955401561E+01  0.59301948130E+02  0.50000007481E+02 0.  0.
        -12    1    1    2    0    0 -0.29689277342E+02  0.59461156860E+01 -0.99955401561E+01  0.31886051870E+02  0.00000000000E+00 0.  1.
         11    1    3    3    0    0 -0.24540073255E-01  0.14264638554E+00  0.40295763308E+01  0.40321750797E+01  0.51100000000E-03 0. -1.
        -11    1    3    3    0    0  0.13583430005E+02 -0.65394581303E+01 -0.19788934949E+02  0.24877219097E+02  0.51100000000E-03 0.  1.
         12    1    3    3    0    0  0.16130387411E+02  0.45069605874E+00  0.25754898774E+02  0.30392553953E+02  0.00000000000E+00 0. -1.
</event>
<event>
 7    1  0.6515090E-012  0.5930191E+02  0.7816164E-02  0.1266605E+00
        -11   -1    0    0    0    0  0.00000000000E+00  0.00000000000E+00  0.45593999997E+02  0.45594000000E+02  0.51100000000E-03 0.  1.
         11   -1    0    0    0    0 -0.00000000000E+00 -0.00000000000E+00 -0.45593999997E+02  0.45594000000E+02  0.51100000000E-03 0. -1.
    9900012    2    1    2    0    0  0.26771484991E+02  0.14235339525E+02  0.98673922265E+01  0.59301910096E+02  0.49999938117E+02 0.  0.
        -12    1    1    2    0    0 -0.26771484991E+02 -0.14235339525E+02 -0.98673922265E+01  0.31886089904E+02  0.00000000000E+00 0.  1.
         11    1    3    3    0    0  0.27107181102E+02  0.22901663626E+01 -0.46227221395E+00  0.27207679525E+02  0.51100000000E-03 0. -1.
        -11    1    3    3    0    0  0.21877510479E-01 -0.90386654815E+01  0.54253369602E+01  0.10541927419E+02  0.51100000000E-03 0.  1.
        -12    1    3    3    0    0 -0.35757362164E+00  0.20983838644E+02  0.49043274803E+01  0.21552303152E+02  0.00000000000E+00 0.  1.
</event>
<event>
 7    1  0.6515090E-012  0.5930196E+02  0.7816164E-02  0.1266605E+00
        -11   -1    0    0    0    0  0.00000000000E+00  0.00000000000E+00  0.45593999997E+02  0.45594000000E+02  0.51100000000E-03 0.  1.
         11   -1    0    0    0    0 -0.00000000000E+00 -0.00000000000E+00 -0.45593999997E+02  0.45594000000E+02  0.51100000000E-03 0. -1.
    9900012    2    1    2    0    0  0.15843924616E+02  0.25276879782E+02  0.11259178381E+02  0.59301957653E+02  0.50000024849E+02 0.  0.
        -12    1    1    2    0    0 -0.15843924616E+02 -0.25276879782E+02 -0.11259178381E+02  0.31886042347E+02  0.00000000000E+00 0.  1.
         11    1    3    3    0    0  0.16694975550E+01  0.19772321671E+02 -0.66337472214E+01  0.20922201815E+02  0.51100000000E-03 0. -1.
        -11    1    3    3    0    0 -0.78626944305E+01  0.82123576947E+01  0.88419793811E+01  0.14402964356E+02  0.51100000000E-03 0.  1.
         12    1    3    3    0    0  0.22037121492E+02 -0.27077995835E+01  0.90509462210E+01  0.23976791481E+02  0.00000000000E+00 0. -1.
</event>
<event>
 7    1  0.6515090E-012  0.5930194E+02  0.7816164E-02  0.1266605E+00
        -11   -1    0    0    0    0  0.00000000000E+00  0.00000000000E+00  0.45593999997E+02  0.45594000000E+02  0.51100000000E-03 0. -1.
         11   -1    0    0    0    0 -0.00000000000E+00 -0.00000000000E+00 -0.45593999997E+02  0.45594000000E+02  0.51100000000E-03 0.  1.
    9900012    2    1    2    0    0  0.71310284477E+01 -0.47558859642E+01  0.30712388157E+02  0.59301940282E+02  0.49999993169E+02 0.  0.
        -12    1    1    2    0    0 -0.71310284477E+01  0.47558859642E+01 -0.30712388157E+02  0.31886059718E+02  0.00000000000E+00 0.  1.
         11    1    3    3    0    0 -0.82041391931E+01 -0.14578062846E+02  0.55832647802E+01  0.17635210861E+02  0.51100000000E-03 0. -1.
        -11    1    3    3    0    0  0.76865218514E+01 -0.61459441660E+01 -0.12249019832E+01  0.99174408490E+01  0.51100000000E-03 0.  1.
         12    1    3    3    0    0  0.76486457893E+01  0.15968121047E+02  0.26354025360E+02  0.31749288573E+02  0.00000000000E+00 0. -1.
</event>
<event>
 7    1  0.6515090E-012  0.5930194E+02  0.7816164E-02  0.1266605E+00
        -11   -1    0    0    0    0  0.00000000000E+00  0.00000000000E+00  0.45593999997E+02  0.45594000000E+02  0.51100000000E-03 0.  1.
         11   -1    0    0    0    0 -0.00000000000E+00 -0.00000000000E+00 -0.45593999997E+02  0.45594000000E+02  0.51100000000E-03 0. -1.
    9900012    2    1    2    0    0  0.48549836065E+01  0.76089594172E+01 -0.30581916649E+02  0.59301941053E+02  0.49999994575E+02 0.  0.
        -12    1    1    2    0    0 -0.48549836065E+01 -0.76089594172E+01  0.30581916649E+02  0.31886058947E+02  0.00000000000E+00 0.  1.
         11    1    3    3    0    0  0.11251976759E+02  0.13784673197E+02  0.24986463227E+01  0.17968512177E+02  0.51100000000E-03 0. -1.
        -11    1    3    3    0    0  0.37986297795E+00  0.51573260530E+01  0.55284194932E+00  0.52007636344E+01  0.51100000000E-03 0.  1.
         12    1    3    3    0    0 -0.67768561309E+01 -0.11333039833E+02 -0.33633404921E+02  0.36132665242E+02  0.00000000000E+00 0. -1.
</event>
<event>
 7    1  0.6515090E-012  0.5930193E+02  0.7816164E-02  0.1266605E+00
        -11   -1    0    0    0    0  0.00000000000E+00  0.00000000000E+00  0.45593999997E+02  0.45594000000E+02  0.51100000000E-03 0.  1.
         11   -1    0    0    0    0 -0.00000000000E+00 -0.00000000000E+00 -0.45593999997E+02  0.45594000000E+02  0.51100000000E-03 0. -1.
    9900012    2    1    2    0    0 -0.55411148774E+01 -0.28215678102E+02  0.13780162921E+02  0.59301931962E+02  0.49999977994E+02 0.  0.
        -12    1    1    2    0    0  0.55411148774E+01  0.28215678102E+02 -0.13780162921E+02  0.31886068038E+02  0.00000000000E+00 0.  1.
         11    1    3    3    0    0 -0.10395067756E+02 -0.20396023678E+02  0.14214943148E+02  0.26946610631E+02  0.51100000000E-03 0. -1.
        -11    1    3    3    0    0 -0.20129718842E+01  0.55216233509E+01  0.11676727487E+02  0.13072350412E+02  0.51100000000E-03 0.  1.
         12    1    3    3    0    0  0.68669247628E+01 -0.13341277774E+02 -0.12111507713E+02  0.19282970918E+02  0.00000000000E+00 0. -1.
</event>
<event>
 7    1  0.6515090E-012  0.5930194E+02  0.7816164E-02  0.1266605E+00
        -11   -1    0    0    0    0  0.00000000000E+00  0.00000000000E+00  0.45593999997E+02  0.45594000000E+02  0.51100000000E-03 0. -1.
         11   -1    0    0    0    0 -0.00000000000E+00 -0.00000000000E+00 -0.45593999997E+02  0.45594000000E+02  0.51100000000E-03 0.  1.
    9900012    2    1    2    0    0 -0.23979085261E+02  0.80941331864E+01  0.19396117701E+02  0.59301938721E+02  0.49999990323E+02 0.  0.
        -12    1    1    2    0    0  0.23979085261E+02 -0.80941331864E+01 -0.19396117701E+02  0.31886061279E+02  0.00000000000E+00 0.  1.
         11    1    3    3    0    0 -0.24155884721E+02  0.11865347216E+02  0.85094503302E+01  0.28225945093E+02  0.51100000000E-03 0. -1.
        -11    1    3    3    0    0  0.10122746732E+02  0.83228664329E+01  0.73412871796E+01  0.15021138598E+02  0.51100000000E-03 0.  1.
         12    1    3    3    0    0 -0.99459472721E+01 -0.12094080462E+02  0.35453801912E+01  0.16054855031E+02  0.00000000000E+00 0. -1.
</event>
<event>
 7    1  0.6515090E-012  0.5930200E+02  0.7816164E-02  0.1266605E+00
        -11   -1    0    0    0    0  0.00000000000E+00  0.00000000000E+00  0.45593999997E+02  0.45594000000E+02  0.51100000000E-03 0.  1.
         11   -1    0    0    0    0 -0.00000000000E+00 -0.00000000000E+00 -0.45593999997E+02  0.45594000000E+02  0.51100000000E-03 0. -1.
    9900012    2    1    2    0    0 -0.75830586833E+01 -0.32676701313E+01 -0.30798320624E+02  0.59301999932E+02  0.50000101957E+02 0.  0.
        -12    1    1    2    0    0  0.75830586833E+01  0.32676701313E+01  0.30798320624E+02  0.31886000068E+02  0.00000000000E+00 0.  1.
         11    1    3    3    0    0 -0.12933057732E+02 -0.11987202846E+02 -0.52276493063E+01  0.18392534679E+02  0.51100000000E-03 0. -1.
        -11    1    3    3    0    0 -0.11919712385E+02  0.35528010362E+00 -0.14435306516E+02  0.18723884260E+02  0.51100000000E-03 0.  1.
        -12    1    3    3    0    0  0.17269711434E+02  0.83642526112E+01 -0.11135364801E+02  0.22185580994E+02  0.00000000000E+00 0.  1.
</event>
<event>
 7    1  0.6515090E-012  0.5930197E+02  0.7816164E-02  0.1266605E+00
        -11   -1    0    0    0    0  0.00000000000E+00  0.00000000000E+00  0.45593999997E+02  0.45594000000E+02  0.51100000000E-03 0. -1.
         11   -1    0    0    0    0 -0.00000000000E+00 -0.00000000000E+00 -0.45593999997E+02  0.45594000000E+02  0.51100000000E-03 0.  1.
    9900012    2    1    2    0    0 -0.31504230876E+02  0.29881797638E+01 -0.39081178642E+01  0.59301965962E+02  0.50000040004E+02 0.  0.
        -12    1    1    2    0    0  0.31504230876E+02 -0.29881797638E+01  0.39081178642E+01  0.31886034038E+02  0.00000000000E+00 0.  1.
         11    1    3    3    0    0  0.39164760177E+01 -0.24897833208E+01  0.60908099629E+01  0.76573997968E+01  0.51100000000E-03 0. -1.
        -11    1    3    3    0    0 -0.15997972708E+01  0.14853329339E+02  0.69435236405E+00  0.14955362558E+02  0.51100000000E-03 0.  1.
        -12    1    3    3    0    0 -0.33820909623E+02 -0.93753662545E+01 -0.10693280191E+02  0.36689203608E+02  0.00000000000E+00 0.  1.
</event>
<event>
 7    1  0.6515090E-012  0.5930196E+02  0.7816164E-02  0.1266605E+00
        -11   -1    0    0    0    0  0.00000000000E+00  0.00000000000E+00  0.45593999997E+02  0.45594000000E+02  0.51100000000E-03 0.  1.
         11   -1    0    0    0    0 -0.00000000000E+00 -0.00000000000E+00 -0.45593999997E+02  0.45594000000E+02  0.51100000000E-03 0. -1.
    9900012    2    1    2    0    0  0.20004121846E+02  0.18406633635E+02 -0.16665848479E+02  0.59301959824E+02  0.50000028809E+02 0.  0.
        -12    1    1    2    0    0 -0.20004121846E+02 -0.18406633635E+02  0.16665848479E+02  0.31886040176E+02  0.00000000000E+00 0.  1.
         11    1    3    3    0    0  0.52023449625E+01 -0.12573474384E+02 -0.32962969986E+01  0.14000793740E+02  0.51100000000E-03 0. -1.
        -11    1    3    3    0    0 -0.73745066348E+01  0.11533180158E+02 -0.28253968992E+01  0.13977856079E+02  0.51100000000E-03 0.  1.
         12    1    3    3    0    0  0.22176283518E+02  0.19446927861E+02 -0.10544154581E+02  0.31323310006E+02  0.00000000000E+00 0. -1.
</event>
<event>
 7    1  0.6515090E-012  0.5930196E+02  0.7816164E-02  0.1266605E+00
        -11   -1    0    0    0    0  0.00000000000E+00  0.00000000000E+00  0.45593999997E+02  0.45594000000E+02  0.51100000000E-03 0. -1.
         11   -1    0    0    0    0 -0.00000000000E+00 -0.00000000000E+00 -0.45593999997E+02  0.45594000000E+02  0.51100000000E-03 0.  1.
    9900012    2    1    2    0    0 -0.98367971114E+01  0.11231660568E+02  0.28174581676E+02  0.59301955574E+02  0.50000021059E+02 0.  0.
        -12    1    1    2    0    0  0.98367971114E+01 -0.11231660568E+02 -0.28174581676E+02  0.31886044426E+02  0.00000000000E+00 0.  1.
         11    1    3    3    0    0 -0.19721618476E+02  0.93036886136E+01  0.37477725527E+01  0.22125701266E+02  0.51100000000E-03 0. -1.
        -11    1    3    3    0    0  0.29579389703E+01 -0.15220825585E+01 -0.54107239424E+01  0.63515409240E+01  0.51100000000E-03 0.  1.
         12    1    3    3    0    0  0.69268823942E+01  0.34500545125E+01  0.29837533065E+02  0.30824713385E+02  0.00000000000E+00 0. -1.
</event>
<event>
 7    1  0.6515090E-012  0.5930191E+02  0.7816164E-02  0.1266605E+00
        -11   -1    0    0    0    0  0.00000000000E+00  0.00000000000E+00  0.45593999997E+02  0.45594000000E+02  0.51100000000E-03 0. -1.
         11   -1    0    0    0    0 -0.00000000000E+00 -0.00000000000E+00 -0.45593999997E+02  0.45594000000E+02  0.51100000000E-03 0.  1.
    9900012    2    1    2    0    0  0.18348770786E+02  0.25693668293E+02  0.44587673416E+01  0.59301912346E+02  0.49999942220E+02 0.  0.
        -12    1    1    2    0    0 -0.18348770786E+02 -0.25693668293E+02 -0.44587673416E+01  0.31886087654E+02  0.00000000000E+00 0.  1.
         11    1    3    3    0    0  0.10998729911E+02  0.19720313556E+02  0.10319156632E+02  0.24826353342E+02  0.51100000000E-03 0. -1.
        -11    1    3    3    0    0  0.18417940715E+02  0.10996498685E+02 -0.12882277898E+01  0.21489603407E+02  0.51100000000E-03 0.  1.
        -12    1    3    3    0    0 -0.11067899840E+02 -0.50231439478E+01 -0.45721615009E+01  0.12985955597E+02  0.00000000000E+00 0.  1.
</event>
<event>
 7    1  0.6515090E-012  0.5930187E+02  0.7816164E-02  0.1266605E+00
        -11   -1    0    0    0    0  0.00000000000E+00  0.00000000000E+00  0.45593999997E+02  0.45594000000E+02  0.51100000000E-03 0.  1.
         11   -1    0    0    0    0 -0.00000000000E+00 -0.00000000000E+00 -0.45593999997E+02  0.45594000000E+02  0.51100000000E-03 0. -1.
    9900012    2    1    2    0    0  0.22973546482E+02  0.13301744764E+02 -0.17663655968E+02  0.59301874586E+02  0.49999873355E+02 0.  0.
        -12    1    1    2    0    0 -0.22973546482E+02 -0.13301744764E+02  0.17663655968E+02  0.31886125414E+02  0.00000000000E+00 0.  1.
         11    1    3    3    0    0  0.26808982309E+02 -0.70095447082E+01 -0.67342310444E+01  0.28516751524E+02  0.51100000000E-03 0. -1.
        -11    1    3    3    0    0  0.76047817019E+01  0.13070979328E+02 -0.43704331482E+01  0.15741152801E+02  0.51100000000E-03 0.  1.
        -12    1    3    3    0    0 -0.11440217529E+02  0.72403101440E+01 -0.65589917757E+01  0.15043970261E+02  0.00000000000E+00 0.  1.
</event>
<event>
 7    1  0.6515090E-012  0.5930202E+02  0.7816164E-02  0.1266605E+00
        -11   -1    0    0    0    0  0.00000000000E+00  0.00000000000E+00  0.45593999997E+02  0.45594000000E+02  0.51100000000E-03 0.  1.
         11   -1    0    0    0    0 -0.00000000000E+00 -0.00000000000E+00 -0.45593999997E+02  0.45594000000E+02  0.51100000000E-03 0. -1.
    9900012    2    1    2    0    0 -0.23733761865E+02 -0.61119582251E+01 -0.20397754023E+02  0.59302017895E+02  0.50000134717E+02 0.  0.
        -12    1    1    2    0    0  0.23733761865E+02  0.61119582251E+01  0.20397754023E+02  0.31885982105E+02  0.00000000000E+00 0.  1.
         11    1    3    3    0    0 -0.85026130613E+01  0.38930185269E+01 -0.63289428409E+01  0.11291835097E+02  0.51100000000E-03 0. -1.
        -11    1    3    3    0    0  0.13570676414E+02 -0.20326578560E+01 -0.11697777623E+02  0.18031443588E+02  0.51100000000E-03 0.  1.
         12    1    3    3    0    0 -0.28801825218E+02 -0.79723188960E+01 -0.23710335584E+01  0.29978739210E+02  0.00000000000E+00 0. -1.
</event>
<event>
 7    1  0.6515090E-012  0.5930189E+02  0.7816164E-02  0.1266605E+00
        -11   -1    0    0    0    0  0.00000000000E+00  0.00000000000E+00  0.45593999997E+02  0.45594000000E+02  0.51100000000E-03 0. -1.
         11   -1    0    0    0    0 -0.00000000000E+00 -0.00000000000E+00 -0.45593999997E+02  0.45594000000E+02  0.51100000000E-03 0.  1.
    9900012    2    1    2    0    0 -0.73509447607E+01 -0.18492209285E+02  0.24914368098E+02  0.59301891256E+02  0.49999903757E+02 0.  0.
        -12    1    1    2    0    0  0.73509447607E+01  0.18492209285E+02 -0.24914368098E+02  0.31886108744E+02  0.00000000000E+00 0.  1.
         11    1    3    3    0    0  0.36931930443E+01 -0.15826443390E+02 -0.51129693855E+01  0.17036972778E+02  0.51100000000E-03 0.  1.
        -11    1    3    3    0    0  0.85012046725E+01 -0.35752035029E+00  0.15915879672E+02  0.18047535224E+02  0.51100000000E-03 0. -1.
        -12    1    3    3    0    0 -0.19545342477E+02 -0.23082455445E+01  0.14111457812E+02  0.24217383253E+02  0.00000000000E+00 0.  1.
</event>
<event>
 7    1  0.6515090E-012  0.5930201E+02  0.7816164E-02  0.1266605E+00
        -11   -1    0    0    0    0  0.00000000000E+00  0.00000000000E+00  0.45593999997E+02  0.45594000000E+02  0.51100000000E-03 0. -1.
         11   -1    0    0    0    0 -0.00000000000E+00 -0.00000000000E+00 -0.45593999997E+02  0.45594000000E+02  0.51100000000E-03 0.  1.
    9900012    2    1    2    0    0 -0.17337500887E+02  0.13313375022E+01  0.26727424974E+02  0.59302005546E+02  0.50000112195E+02 0.  0.
        -12    1    1    2    0    0  0.17337500887E+02 -0.13313375022E+01 -0.26727424974E+02  0.31885994454E+02  0.00000000000E+00 0.  1.
         11    1    3    3    0    0  0.56798663979E+00  0.43194147187E+01  0.70330979930E+01  0.82731142852E+01  0.51100000000E-03 0. -1.
        -11    1    3    3    0    0  0.98713469185E+01 -0.11927427722E+02  0.14843716511E+02  0.21448611661E+02  0.51100000000E-03 0.  1.
         12    1    3    3    0    0 -0.27776834446E+02  0.89393505058E+01  0.48506104699E+01  0.29580279600E+02  0.00000000000E+00 0. -1.
</event>
<event>
 7    1  0.6515090E-012  0.5930198E+02  0.7816164E-02  0.1266605E+00
        -11   -1    0    0    0    0  0.00000000000E+00  0.00000000000E+00  0.45593999997E+02  0.45594000000E+02  0.51100000000E-03 0. -1.
         11   -1    0    0    0    0 -0.00000000000E+00 -0.00000000000E+00 -0.45593999997E+02  0.45594000000E+02  0.51100000000E-03 0.  1.
    9900012    2    1    2    0    0 -0.29267608847E+02  0.46116315252E+01  0.11783804667E+02  0.59301982290E+02  0.50000069782E+02 0.  0.
        -12    1    1    2    0    0  0.29267608847E+02 -0.46116315252E+01 -0.11783804667E+02  0.31886017710E+02  0.00000000000E+00 0.  1.
         11    1    3    3    0    0  0.39183347944E+01 -0.30747439647E+01  0.72899579071E+01  0.88289798141E+01  0.51100000000E-03 0. -1.
        -11    1    3    3    0    0 -0.99020023805E+01  0.19938192971E+02 -0.44145878100E+01  0.22695148730E+02  0.51100000000E-03 0.  1.
        -12    1    3    3    0    0 -0.23283941261E+02 -0.12251817481E+02  0.89084345703E+01  0.27777853746E+02  0.00000000000E+00 0.  1.
</event>
<event>
 7    1  0.6515090E-012  0.5930187E+02  0.7816164E-02  0.1266605E+00
        -11   -1    0    0    0    0  0.00000000000E+00  0.00000000000E+00  0.45593999997E+02  0.45594000000E+02  0.51100000000E-03 0. -1.
         11   -1    0    0    0    0 -0.00000000000E+00 -0.00000000000E+00 -0.45593999997E+02  0.45594000000E+02  0.51100000000E-03 0.  1.
    9900012    2    1    2    0    0  0.14642036846E+02 -0.17035627296E+02  0.22630148130E+02  0.59301867516E+02  0.49999860461E+02 0.  0.
        -12    1    1    2    0    0 -0.14642036846E+02  0.17035627296E+02 -0.22630148130E+02  0.31886132484E+02  0.00000000000E+00 0.  1.
         11    1    3    3    0    0  0.69490015399E+01 -0.64618590496E+01  0.73186094300E+01  0.11983584148E+02  0.51100000000E-03 0. -1.
        -11    1    3    3    0    0  0.22579375448E+02  0.89612670571E+00 -0.73175475804E+00  0.22608996086E+02  0.51100000000E-03 0.  1.
         12    1    3    3    0    0 -0.14886340142E+02 -0.11469894952E+02  0.16043293458E+02  0.24709287283E+02  0.00000000000E+00 0. -1.
</event>
<event>
 7    1  0.6515090E-012  0.5930196E+02  0.7816164E-02  0.1266605E+00
        -11   -1    0    0    0    0  0.00000000000E+00  0.00000000000E+00  0.45593999997E+02  0.45594000000E+02  0.51100000000E-03 0.  1.
         11   -1    0    0    0    0 -0.00000000000E+00 -0.00000000000E+00 -0.45593999997E+02  0.45594000000E+02  0.51100000000E-03 0. -1.
    9900012    2    1    2    0    0 -0.10813296506E+02  0.29063451512E+02  0.74234589463E+01  0.59301963278E+02  0.50000035107E+02 0.  0.
        -12    1    1    2    0    0  0.10813296506E+02 -0.29063451512E+02 -0.74234589463E+01  0.31886036722E+02  0.00000000000E+00 0.  1.
         11    1    3    3    0    0 -0.15723516499E+02  0.16439367193E+02  0.51571389224E+01  0.23325476350E+02  0.51100000000E-03 0. -1.
        -11    1    3    3    0    0 -0.13084615710E+02  0.10984077708E+02  0.47630846429E+01  0.17735391368E+02  0.51100000000E-03 0.  1.
        -12    1    3    3    0    0  0.17994835704E+02  0.16400066109E+01 -0.24967646190E+01  0.18241095560E+02  0.00000000000E+00 0.  1.
</event>
<event>
 7    1  0.6515090E-012  0.5930199E+02  0.7816164E-02  0.1266605E+00
        -11   -1    0    0    0    0  0.00000000000E+00  0.00000000000E+00  0.45593999997E+02  0.45594000000E+02  0.51100000000E-03 0.  1.
         11   -1    0    0    0    0 -0.00000000000E+00 -0.00000000000E+00 -0.45593999997E+02  0.45594000000E+02  0.51100000000E-03 0. -1.
    9900012    2    1    2    0    0 -0.71511726220E+01 -0.35826675670E+01 -0.30866531133E+02  0.59301991768E+02  0.50000087068E+02 0.  0.
        -12    1    1    2    0    0  0.71511726220E+01  0.35826675670E+01  0.30866531133E+02  0.31886008232E+02  0.00000000000E+00 0.  1.
         11    1    3    3    0    0  0.15979763459E+02 -0.44170118214E+01 -0.95016422708E+01  0.19108742495E+02  0.51100000000E-03 0. -1.
        -11    1    3    3    0    0  0.50546414215E+01 -0.13119056761E+01 -0.90838963824E+00  0.53005347277E+01  0.51100000000E-03 0.  1.
        -12    1    3    3    0    0 -0.28185577502E+02  0.21462499305E+01 -0.20456499224E+02  0.34892714546E+02  0.00000000000E+00 0.  1.
</event>
<event>
 7    1  0.6515090E-012  0.5930194E+02  0.7816164E-02  0.1266605E+00
        -11   -1    0    0    0    0  0.00000000000E+00  0.00000000000E+00  0.45593999997E+02  0.45594000000E+02  0.51100000000E-03 0.  1.
         11   -1    0    0    0    0 -0.00000000000E+00 -0.00000000000E+00 -0.45593999997E+02  0.45594000000E+02  0.51100000000E-03 0. -1.
    9900012    2    1    2    0    0 -0.27658288901E+02  0.15787296588E+02 -0.15814490967E+01  0.59301942550E+02  0.49999997304E+02 0.  0.
        -12    1    1    2    0    0  0.27658288901E+02 -0.15787296588E+02  0.15814490967E+01  0.31886057450E+02  0.00000000000E+00 0.  1.
         11    1    3    3    0    0  0.82481558299E+01 -0.58360688925E+01  0.38075873575E+01  0.10797661620E+02  0.51100000000E-03 0. -1.
        -11    1    3    3    0    0 -0.56502441229E+01 -0.81186603381E+00  0.68336765366E+01  0.89041294001E+01  0.51100000000E-03 0.  1.
         12    1    3    3    0    0 -0.30256200608E+02  0.22435231514E+02 -0.12222712991E+02  0.39600151530E+02  0.00000000000E+00 0. -1.
</event>
<event>
 7    1  0.6515090E-012  0.5930193E+02  0.7816164E-02  0.1266605E+00
        -11   -1    0    0    0    0  0.00000000000E+00  0.00000000000E+00  0.45593999997E+02  0.45594000000E+02  0.51100000000E-03 0. -1.
         11   -1    0    0    0    0 -0.00000000000E+00 -0.00000000000E+00 -0.45593999997E+02  0.45594000000E+02  0.51100000000E-03 0.  1.
    9900012    2    1    2    0    0 -0.29048433618E+02 -0.11077099717E+02  0.70857382553E+01  0.59301932189E+02  0.49999978410E+02 0.  0.
        -12    1    1    2    0    0  0.29048433618E+02  0.11077099717E+02 -0.70857382553E+01  0.31886067811E+02  0.00000000000E+00 0.  1.
         11    1    3    3    0    0 -0.16279982636E+02 -0.21072484516E+02  0.15355457336E+02  0.30738859910E+02  0.51100000000E-03 0. -1.
        -11    1    3    3    0    0 -0.12491175322E+02  0.76637504076E+01  0.46941855335E+01  0.15388239318E+02  0.51100000000E-03 0.  1.
        -12    1    3    3    0    0 -0.27727566083E+00  0.23316343918E+01 -0.12963904614E+02  0.13174832962E+02  0.00000000000E+00 0.  1.
</event>
<event>
 7    1  0.6515090E-012  0.5930190E+02  0.7816164E-02  0.1266605E+00
        -11   -1    0    0    0    0  0.00000000000E+00  0.00000000000E+00  0.45593999997E+02  0.45594000000E+02  0.51100000000E-03 0.  1.
         11   -1    0    0    0    0 -0.00000000000E+00 -0.00000000000E+00 -0.45593999997E+02  0.45594000000E+02  0.51100000000E-03 0. -1.
    9900012    2    1    2    0    0  0.25175154655E+02  0.17947068773E+02 -0.77998473203E+01  0.59301901028E+02  0.49999921578E+02 0.  0.
        -12    1    1    2    0    0 -0.25175154655E+02 -0.17947068773E+02  0.77998473203E+01  0.31886098972E+02  0.00000000000E+00 0.  1.
         11    1    3    3    0    0 -0.55831125463E+01  0.32089508875E+01 -0.62100383968E+01  0.89461214307E+01  0.51100000000E-03 0. -1.
        -11    1    3    3    0    0  0.75944358448E+01 -0.17537161697E+01  0.15379864388E+02  0.17242134585E+02  0.51100000000E-03 0.  1.
        -12    1    3    3    0    0  0.23163831357E+02  0.16491834055E+02 -0.16969673312E+02  0.33113645011E+02  0.00000000000E+00 0.  1.
</event>
<event>
 7    1  0.6515090E-012  0.5930196E+02  0.7816164E-02  0.1266605E+00
        -11   -1    0    0    0    0  0.00000000000E+00  0.00000000000E+00  0.45593999997E+02  0.45594000000E+02  0.51100000000E-03 0.  1.
         11   -1    0    0    0    0 -0.00000000000E+00 -0.00000000000E+00 -0.45593999997E+02  0.45594000000E+02  0.51100000000E-03 0. -1.
    9900012    2    1    2    0    0  0.15582111095E+02 -0.23776836913E+02 -0.14442271704E+02  0.59301962746E+02  0.50000034138E+02 0.  0.
        -12    1    1    2    0    0 -0.15582111095E+02  0.23776836913E+02  0.14442271704E+02  0.31886037254E+02  0.00000000000E+00 0.  1.
         11    1    3    3    0    0  0.12852045654E+02 -0.14659717339E+02 -0.54237402802E+01  0.20236090256E+02  0.51100000000E-03 0. -1.
        -11    1    3    3    0    0  0.11028708476E+02 -0.12309358393E+02  0.91117768151E+01  0.18872657250E+02  0.51100000000E-03 0.  1.
         12    1    3    3    0    0 -0.82986430355E+01  0.31922388180E+01 -0.18130308239E+02  0.20193215240E+02  0.00000000000E+00 0. -1.
</event>
<event>
 7    1  0.6515090E-012  0.5930200E+02  0.7816164E-02  0.1266605E+00
        -11   -1    0    0    0    0  0.00000000000E+00  0.00000000000E+00  0.45593999997E+02  0.45594000000E+02  0.51100000000E-03 0.  1.
         11   -1    0    0    0    0 -0.00000000000E+00 -0.00000000000E+00 -0.45593999997E+02  0.45594000000E+02  0.51100000000E-03 0. -1.
    9900012    2    1    2    0    0  0.98852940621E+00  0.63831629411E+01 -0.31224908499E+02  0.59302001971E+02  0.50000105675E+02 0.  0.
        -12    1    1    2    0    0 -0.98852940621E+00 -0.63831629411E+01  0.31224908499E+02  0.31885998029E+02  0.00000000000E+00 0.  1.
         11    1    3    3    0    0 -0.17434051831E+02  0.13773600691E+02 -0.13025256977E+02  0.25754913294E+02  0.51100000000E-03 0. -1.
        -11    1    3    3    0    0 -0.30815609776E+01 -0.16158990308E+01 -0.86425625850E+01  0.93167073601E+01  0.51100000000E-03 0.  1.
        -12    1    3    3    0    0  0.21504142215E+02 -0.57745387188E+01 -0.95570889370E+01  0.24230381317E+02  0.00000000000E+00 0.  1.
</event>
<event>
 7    1  0.6515090E-012  0.5930196E+02  0.7816164E-02  0.1266605E+00
        -11   -1    0    0    0    0  0.00000000000E+00  0.00000000000E+00  0.45593999997E+02  0.45594000000E+02  0.51100000000E-03 0.  1.
         11   -1    0    0    0    0 -0.00000000000E+00 -0.00000000000E+00 -0.45593999997E+02  0.45594000000E+02  0.51100000000E-03 0. -1.
    9900012    2    1    2    0    0 -0.28734082608E+02 -0.42651472418E+01 -0.13148412942E+02  0.59301956859E+02  0.50000023400E+02 0.  0.
        -12    1    1    2    0    0  0.28734082608E+02  0.42651472418E+01  0.13148412942E+02  0.31886043141E+02  0.00000000000E+00 0.  1.
         11    1    3    3    0    0 -0.94778902405E+00 -0.18199858587E+01  0.10931150211E+01  0.23249845743E+01  0.51100000000E-03 0.  1.
        -11    1    3    3    0    0 -0.36026269534E+02 -0.97049056285E+00  0.46268057680E+01  0.36335124609E+02  0.51100000000E-03 0. -1.
         12    1    3    3    0    0  0.82399759496E+01 -0.14746708202E+01 -0.18868333731E+02  0.20641847676E+02  0.00000000000E+00 0. -1.
</event>
<event>
 7    1  0.6515090E-012  0.5930194E+02  0.7816164E-02  0.1266605E+00
        -11   -1    0    0    0    0  0.00000000000E+00  0.00000000000E+00  0.45593999997E+02  0.45594000000E+02  0.51100000000E-03 0.  1.
         11   -1    0    0    0    0 -0.00000000000E+00 -0.00000000000E+00 -0.45593999997E+02  0.45594000000E+02  0.51100000000E-03 0. -1.
    9900012    2    1    2    0    0 -0.94595657065E+01 -0.18092150728E+02 -0.24493088697E+02  0.59301941993E+02  0.49999996289E+02 0.  0.
        -12    1    1    2    0    0  0.94595657065E+01  0.18092150728E+02  0.24493088697E+02  0.31886058007E+02  0.00000000000E+00 0.  1.
         11    1    3    3    0    0 -0.20762133261E+02 -0.13803063966E+02 -0.92197785195E-01  0.24931892289E+02  0.51100000000E-03 0. -1.
        -11    1    3    3    0    0  0.99167409029E+00 -0.13312812649E+01  0.38276585844E+01  0.41721334839E+01  0.51100000000E-03 0.  1.
        -12    1    3    3    0    0  0.10310893464E+02 -0.29578054973E+01 -0.28228549496E+02  0.30197916220E+02  0.00000000000E+00 0.  1.
</event>
<event>
 7    1  0.6515090E-012  0.5930194E+02  0.7816164E-02  0.1266605E+00
        -11   -1    0    0    0    0  0.00000000000E+00  0.00000000000E+00  0.45593999997E+02  0.45594000000E+02  0.51100000000E-03 0. -1.
         11   -1    0    0    0    0 -0.00000000000E+00 -0.00000000000E+00 -0.45593999997E+02  0.45594000000E+02  0.51100000000E-03 0.  1.
    9900012    2    1    2    0    0 -0.25948081655E+02 -0.16146409839E+02  0.90945696136E+01  0.59301942095E+02  0.49999996476E+02 0.  0.
        -12    1    1    2    0    0  0.25948081655E+02  0.16146409839E+02 -0.90945696136E+01  0.31886057905E+02  0.00000000000E+00 0.  1.
         11    1    3    3    0    0 -0.17008939366E+02 -0.19873527816E+02  0.12237890767E+02  0.28879527297E+02  0.51100000000E-03 0. -1.
        -11    1    3    3    0    0 -0.12783062563E+02 -0.89430253758E+01 -0.62770272096E+01  0.16816226158E+02  0.51100000000E-03 0.  1.
         12    1    3    3    0    0  0.38439202740E+01  0.12670143353E+02  0.31337060562E+01  0.13606188640E+02  0.00000000000E+00 0. -1.
</event>
<event>
 7    1  0.6515090E-012  0.5930197E+02  0.7816164E-02  0.1266605E+00
        -11   -1    0    0    0    0  0.00000000000E+00  0.00000000000E+00  0.45593999997E+02  0.45594000000E+02  0.51100000000E-03 0.  1.
         11   -1    0    0    0    0 -0.00000000000E+00 -0.00000000000E+00 -0.45593999997E+02  0.45594000000E+02  0.51100000000E-03 0. -1.
    9900012    2    1    2    0    0 -0.23313337069E+02  0.21640704604E+02  0.22107366516E+01  0.59301966418E+02  0.50000040834E+02 0.  0.
        -12    1    1    2    0    0  0.23313337069E+02 -0.21640704604E+02 -0.22107366516E+01  0.31886033582E+02  0.00000000000E+00 0.  1.
         11    1    3    3    0    0 -0.11001601517E+02  0.35499629796E+01  0.14333234827E+02  0.18414100412E+02  0.51100000000E-03 0. -1.
        -11    1    3    3    0    0 -0.78196277908E+01 -0.86025424189E+01 -0.11582133077E+01  0.11682969365E+02  0.51100000000E-03 0.  1.
         12    1    3    3    0    0 -0.44921077608E+01  0.26693284043E+02 -0.10964284868E+02  0.29204896641E+02  0.00000000000E+00 0. -1.
</event>
<event>
 7    1  0.6515090E-012  0.5930194E+02  0.7816164E-02  0.1266605E+00
        -11   -1    0    0    0    0  0.00000000000E+00  0.00000000000E+00  0.45593999997E+02  0.45594000000E+02  0.51100000000E-03 0.  1.
         11   -1    0    0    0    0 -0.00000000000E+00 -0.00000000000E+00 -0.45593999997E+02  0.45594000000E+02  0.51100000000E-03 0. -1.
    9900012    2    1    2    0    0 -0.13176470495E+02 -0.25301908658E+02 -0.14244811986E+02  0.59301943095E+02  0.49999998298E+02 0.  0.
        -12    1    1    2    0    0  0.13176470495E+02  0.25301908658E+02  0.14244811986E+02  0.31886056905E+02  0.00000000000E+00 0.  1.
         11    1    3    3    0    0 -0.15089000486E+02 -0.31127068377E+01 -0.72119074379E+01  0.17011128377E+02  0.51100000000E-03 0. -1.
        -11    1    3    3    0    0 -0.16651504429E+02 -0.11788444386E+02 -0.27733760376E+01  0.20589600183E+02  0.51100000000E-03 0.  1.
        -12    1    3    3    0    0  0.18564034419E+02 -0.10400757434E+02 -0.42595285107E+01  0.21701214534E+02  0.00000000000E+00 0.  1.
</event>
<event>
 7    1  0.6515090E-012  0.5930195E+02  0.7816164E-02  0.1266605E+00
        -11   -1    0    0    0    0  0.00000000000E+00  0.00000000000E+00  0.45593999997E+02  0.45594000000E+02  0.51100000000E-03 0. -1.
         11   -1    0    0    0    0 -0.00000000000E+00 -0.00000000000E+00 -0.45593999997E+02  0.45594000000E+02  0.51100000000E-03 0.  1.
    9900012    2    1    2    0    0 -0.37802870714E+01  0.16988433430E+02  0.26717462988E+02  0.59301948673E+02  0.50000008471E+02 0.  0.
        -12    1    1    2    0    0  0.37802870714E+01 -0.16988433430E+02 -0.26717462988E+02  0.31886051327E+02  0.00000000000E+00 0.  1.
         11    1    3    3    0    0 -0.91380582417E+01 -0.11309103852E+02 -0.29289676368E+01  0.14831681969E+02  0.51100000000E-03 0. -1.
        -11    1    3    3    0    0  0.19236577957E+01 -0.53447694535E+00  0.80221049663E+01  0.82668188121E+01  0.51100000000E-03 0.  1.
        -12    1    3    3    0    0  0.34341133746E+01  0.28832014227E+02  0.21624325658E+02  0.36203447891E+02  0.00000000000E+00 0.  1.
</event>
<event>
 7    1  0.6515090E-012  0.5930195E+02  0.7816164E-02  0.1266605E+00
        -11   -1    0    0    0    0  0.00000000000E+00  0.00000000000E+00  0.45593999997E+02  0.45594000000E+02  0.51100000000E-03 0. -1.
         11   -1    0    0    0    0 -0.00000000000E+00 -0.00000000000E+00 -0.45593999997E+02  0.45594000000E+02  0.51100000000E-03 0.  1.
    9900012    2    1    2    0    0  0.21715879974E+02 -0.58340106709E+01  0.22607635621E+02  0.59301948004E+02  0.50000007251E+02 0.  0.
        -12    1    1    2    0    0 -0.21715879974E+02  0.58340106709E+01 -0.22607635621E+02  0.31886051996E+02  0.00000000000E+00 0.  1.
         11    1    3    3    0    0  0.84650834203E+01 -0.20489245051E+01 -0.24172421005E+01  0.90387382180E+01  0.51100000000E-03 0. -1.
        -11    1    3    3    0    0  0.21616848182E+02  0.12273688418E+02  0.18612157688E+02  0.31053888111E+02  0.51100000000E-03 0.  1.
        -12    1    3    3    0    0 -0.83660516284E+01 -0.16058774584E+02  0.64127200333E+01  0.19209321675E+02  0.00000000000E+00 0.  1.
</event>
<event>
 7    1  0.6515090E-012  0.5930195E+02  0.7816164E-02  0.1266605E+00
        -11   -1    0    0    0    0  0.00000000000E+00  0.00000000000E+00  0.45593999997E+02  0.45594000000E+02  0.51100000000E-03 0.  1.
         11   -1    0    0    0    0 -0.00000000000E+00 -0.00000000000E+00 -0.45593999997E+02  0.45594000000E+02  0.51100000000E-03 0. -1.
    9900012    2    1    2    0    0  0.30001633276E+02  0.58495722253E+01 -0.90776919915E+01  0.59301953109E+02  0.50000016561E+02 0.  0.
        -12    1    1    2    0    0 -0.30001633276E+02 -0.58495722253E+01  0.90776919915E+01  0.31886046891E+02  0.00000000000E+00 0.  1.
         11    1    3    3    0    0  0.19617686529E+02  0.62175981696E+01  0.85072086849E+01  0.22268469899E+02  0.51100000000E-03 0. -1.
        -11    1    3    3    0    0  0.15821917844E+02 -0.22578415276E+01  0.24670256879E+01  0.16171491850E+02  0.51100000000E-03 0.  1.
        -12    1    3    3    0    0 -0.54379710973E+01  0.18898155833E+01 -0.20051926364E+02  0.20861991360E+02  0.00000000000E+00 0.  1.
</event>
<event>
 7    1  0.6515090E-012  0.5930195E+02  0.7816164E-02  0.1266605E+00
        -11   -1    0    0    0    0  0.00000000000E+00  0.00000000000E+00  0.45593999997E+02  0.45594000000E+02  0.51100000000E-03 0.  1.
         11   -1    0    0    0    0 -0.00000000000E+00 -0.00000000000E+00 -0.45593999997E+02  0.45594000000E+02  0.51100000000E-03 0. -1.
    9900012    2    1    2    0    0 -0.95818267277E+01 -0.27804400403E+02 -0.12321701838E+02  0.59301946287E+02  0.50000004120E+02 0.  0.
        -12    1    1    2    0    0  0.95818267277E+01  0.27804400403E+02  0.12321701838E+02  0.31886053713E+02  0.00000000000E+00 0.  1.
         11    1    3    3    0    0 -0.22120822565E+01 -0.28200782430E+02 -0.33895313226E+01  0.28489758869E+02  0.51100000000E-03 0. -1.
        -11    1    3    3    0    0  0.20295276407E+01 -0.11631092266E+02  0.20817950800E+01  0.11988959953E+02  0.51100000000E-03 0.  1.
         12    1    3    3    0    0 -0.93992721119E+01  0.12027474292E+02 -0.11013965595E+02  0.18823227465E+02  0.00000000000E+00 0. -1.
</event>
<event>
 7    1  0.6515090E-012  0.5930194E+02  0.7816164E-02  0.1266605E+00
        -11   -1    0    0    0    0  0.00000000000E+00  0.00000000000E+00  0.45593999997E+02  0.45594000000E+02  0.51100000000E-03 0.  1.
         11   -1    0    0    0    0 -0.00000000000E+00 -0.00000000000E+00 -0.45593999997E+02  0.45594000000E+02  0.51100000000E-03 0. -1.
    9900012    2    1    2    0    0  0.21061169754E+02 -0.23938772419E+02  0.28804683183E+00  0.59301942431E+02  0.49999997088E+02 0.  0.
        -12    1    1    2    0    0 -0.21061169754E+02  0.23938772419E+02 -0.28804683183E+00  0.31886057569E+02  0.00000000000E+00 0.  1.
         11    1    3    3    0    0  0.58083238865E+01 -0.46554056107E+01 -0.39356293102E+01  0.84201310025E+01  0.51100000000E-03 0. -1.
        -11    1    3    3    0    0  0.16199411955E+02 -0.41605398342E+01  0.21928137343E+02  0.27578510601E+02  0.51100000000E-03 0.  1.
         12    1    3    3    0    0 -0.94656608808E+00 -0.15122826974E+02 -0.17704461201E+02  0.23303300827E+02  0.00000000000E+00 0. -1.
</event>
<event>
 7    1  0.6515090E-012  0.5930194E+02  0.7816164E-02  0.1266605E+00
        -11   -1    0    0    0    0  0.00000000000E+00  0.00000000000E+00  0.45593999997E+02  0.45594000000E+02  0.51100000000E-03 0. -1.
         11   -1    0    0    0    0 -0.00000000000E+00 -0.00000000000E+00 -0.45593999997E+02  0.45594000000E+02  0.51100000000E-03 0.  1.
    9900012    2    1    2    0    0 -0.21184265286E+02  0.84314304653E+01  0.22290326236E+02  0.59301940992E+02  0.49999994463E+02 0.  0.
        -12    1    1    2    0    0  0.21184265286E+02 -0.84314304653E+01 -0.22290326236E+02  0.31886059008E+02  0.00000000000E+00 0.  1.
         11    1    3    3    0    0 -0.17341608070E+02  0.11614771724E+02  0.14027096722E+02  0.25147439936E+02  0.51100000000E-03 0. -1.
        -11    1    3    3    0    0 -0.68192866823E+01  0.13876411812E+02  0.64120991688E+01  0.16738353911E+02  0.51100000000E-03 0.  1.
        -12    1    3    3    0    0  0.29766294657E+01 -0.17059753071E+02  0.18511303451E+01  0.17416147145E+02  0.00000000000E+00 0.  1.
</event>
<event>
 7    1  0.6515090E-012  0.5930188E+02  0.7816164E-02  0.1266605E+00
        -11   -1    0    0    0    0  0.00000000000E+00  0.00000000000E+00  0.45593999997E+02  0.45594000000E+02  0.51100000000E-03 0.  1.
         11   -1    0    0    0    0 -0.00000000000E+00 -0.00000000000E+00 -0.45593999997E+02  0.45594000000E+02  0.51100000000E-03 0. -1.
    9900012    2    1    2    0    0 -0.88207552003E+01  0.22868090430E+02 -0.20395319764E+02  0.59301884676E+02  0.49999891756E+02 0.  0.
        -12    1    1    2    0    0  0.88207552003E+01 -0.22868090430E+02  0.20395319764E+02  0.31886115324E+02  0.00000000000E+00 0.  1.
         11    1    3    3    0    0 -0.91173669309E+01 -0.14806490757E+01 -0.18356622389E+02  0.20549556862E+02  0.51100000000E-03 0. -1.
        -11    1    3    3    0    0 -0.67706943886E+01  0.23291262759E+02 -0.11542434911E+02  0.26861739098E+02  0.51100000000E-03 0.  1.
        -12    1    3    3    0    0  0.70673061192E+01  0.10574767464E+01  0.95037375360E+01  0.11890588716E+02  0.00000000000E+00 0.  1.
</event>
<event>
 7    1  0.6515090E-012  0.5930235E+02  0.7816164E-02  0.1266603E+00
        -11   -1    0    0    0    0  0.00000000000E+00  0.00000000000E+00  0.45593999997E+02  0.45594000000E+02  0.51100000000E-03 0.  1.
         11   -1    0    0    0    0 -0.00000000000E+00 -0.00000000000E+00 -0.45593999997E+02  0.45594000000E+02  0.51100000000E-03 0. -1.
    9900012    2    1    2    0    0 -0.17305312886E+02  0.24460118434E+02 -0.10905206653E+02  0.59302348368E+02  0.50000737414E+02 0.  0.
        -12    1    1    2    0    0  0.17305312886E+02 -0.24460118434E+02  0.10905206653E+02  0.31885651632E+02  0.00000000000E+00 0.  1.
         11    1    3    3    0    0  0.66107733062E+01  0.93511342652E+01 -0.42232284037E+01  0.12205805756E+02  0.51100000000E-03 0. -1.
        -11    1    3    3    0    0  0.29234194106E+01  0.16970534830E+02 -0.10119680901E+02  0.19973817243E+02  0.51100000000E-03 0.  1.
        -12    1    3    3    0    0 -0.26839505603E+02 -0.18615506612E+01  0.34377026523E+01  0.27122725368E+02  0.00000000000E+00 0.  1.
</event>
<event>
 7    1  0.6515090E-012  0.5930192E+02  0.7816164E-02  0.1266605E+00
        -11   -1    0    0    0    0  0.00000000000E+00  0.00000000000E+00  0.45593999997E+02  0.45594000000E+02  0.51100000000E-03 0. -1.
         11   -1    0    0    0    0 -0.00000000000E+00 -0.00000000000E+00 -0.45593999997E+02  0.45594000000E+02  0.51100000000E-03 0.  1.
    9900012    2    1    2    0    0  0.44846717645E+01  0.80421795788E+00  0.31558884516E+02  0.59301917781E+02  0.49999952133E+02 0.  0.
        -12    1    1    2    0    0 -0.44846717645E+01 -0.80421795788E+00 -0.31558884516E+02  0.31886082219E+02  0.00000000000E+00 0.  1.
         11    1    3    3    0    0 -0.11332891039E+02  0.61907362779E+01  0.10334467987E+02  0.16539675444E+02  0.51100000000E-03 0. -1.
        -11    1    3    3    0    0 -0.45935219375E+01  0.71729138370E+01  0.16159964865E+02  0.18267337009E+02  0.51100000000E-03 0.  1.
        -12    1    3    3    0    0  0.20411084741E+02 -0.12559432157E+02  0.50644516646E+01  0.24494905329E+02  0.00000000000E+00 0.  1.
</event>
<event>
 7    1  0.6515090E-012  0.5930199E+02  0.7816164E-02  0.1266605E+00
        -11   -1    0    0    0    0  0.00000000000E+00  0.00000000000E+00  0.45593999997E+02  0.45594000000E+02  0.51100000000E-03 0.  1.
         11   -1    0    0    0    0 -0.00000000000E+00 -0.00000000000E+00 -0.45593999997E+02  0.45594000000E+02  0.51100000000E-03 0. -1.
    9900012    2    1    2    0    0  0.20739298558E+02 -0.85267118340E+01 -0.22669231517E+02  0.59301994026E+02  0.50000091185E+02 0.  0.
        -12    1    1    2    0    0 -0.20739298558E+02  0.85267118340E+01  0.22669231517E+02  0.31886005974E+02  0.00000000000E+00 0.  1.
         11    1    3    3    0    0  0.11512252756E+02  0.12771996129E+02  0.37824816952E+01  0.17605766574E+02  0.51100000000E-03 0. -1.
        -11    1    3    3    0    0  0.87693110011E+01 -0.96436921615E+01 -0.27399117354E+00  0.13037510704E+02  0.51100000000E-03 0.  1.
         12    1    3    3    0    0  0.45773480073E+00 -0.11655015801E+02 -0.26177722039E+02  0.28658716748E+02  0.00000000000E+00 0. -1.
</event>
<event>
 7    1  0.6515090E-012  0.5930193E+02  0.7816164E-02  0.1266605E+00
        -11   -1    0    0    0    0  0.00000000000E+00  0.00000000000E+00  0.45593999997E+02  0.45594000000E+02  0.51100000000E-03 0.  1.
         11   -1    0    0    0    0 -0.00000000000E+00 -0.00000000000E+00 -0.45593999997E+02  0.45594000000E+02  0.51100000000E-03 0. -1.
    9900012    2    1    2    0    0  0.16522431179E+01  0.16844557143E+02 -0.27023180758E+02  0.59301932338E+02  0.49999978681E+02 0.  0.
        -12    1    1    2    0    0 -0.16522431179E+01 -0.16844557143E+02  0.27023180758E+02  0.31886067662E+02  0.00000000000E+00 0.  1.
         11    1    3    3    0    0  0.10976448728E+02  0.15748230217E+02 -0.15831758925E+02  0.24882398850E+02  0.51100000000E-03 0. -1.
        -11    1    3    3    0    0 -0.70197517999E+01 -0.13190789344E+02 -0.13037437932E+02  0.19830497395E+02  0.51100000000E-03 0.  1.
         12    1    3    3    0    0 -0.23044538099E+01  0.14287116270E+02  0.18460160986E+01  0.14589036093E+02  0.00000000000E+00 0. -1.
</event>
<event>
 7    1  0.6515090E-012  0.5930195E+02  0.7816164E-02  0.1266605E+00
        -11   -1    0    0    0    0  0.00000000000E+00  0.00000000000E+00  0.45593999997E+02  0.45594000000E+02  0.51100000000E-03 0. -1.
         11   -1    0    0    0    0 -0.00000000000E+00 -0.00000000000E+00 -0.45593999997E+02  0.45594000000E+02  0.51100000000E-03 0.  1.
    9900012    2    1    2    0    0  0.19244431565E+02 -0.21207952047E+02  0.14021222929E+02  0.59301951817E+02  0.50000014206E+02 0.  0.
        -12    1    1    2    0    0 -0.19244431565E+02  0.21207952047E+02 -0.14021222929E+02  0.31886048183E+02  0.00000000000E+00 0.  1.
         11    1    3    3    0    0  0.23634531688E+02 -0.14644717390E+02  0.17771117499E+02  0.32998052260E+02  0.51100000000E-03 0. -1.
        -11    1    3    3    0    0  0.79712141968E+01 -0.16051007625E+01 -0.88718355502E+01  0.12034370383E+02  0.51100000000E-03 0.  1.
         12    1    3    3    0    0 -0.12361314320E+02 -0.49581338945E+01  0.51219409803E+01  0.14269529174E+02  0.00000000000E+00 0. -1.
</event>
<event>
 7    1  0.6515090E-012  0.5930178E+02  0.7816164E-02  0.1266605E+00
        -11   -1    0    0    0    0  0.00000000000E+00  0.00000000000E+00  0.45593999997E+02  0.45594000000E+02  0.51100000000E-03 0.  1.
         11   -1    0    0    0    0 -0.00000000000E+00 -0.00000000000E+00 -0.45593999997E+02  0.45594000000E+02  0.51100000000E-03 0. -1.
    9900012    2    1    2    0    0 -0.56277565513E+01  0.27643543454E+01 -0.31263679535E+02  0.59301781084E+02  0.49999702828E+02 0.  0.
        -12    1    1    2    0    0  0.56277565513E+01 -0.27643543454E+01  0.31263679535E+02  0.31886218916E+02  0.00000000000E+00 0.  1.
         11    1    3    3    0    0  0.10844856073E+02  0.35615373413E+01 -0.21662618665E+01  0.11618439749E+02  0.51100000000E-03 0. -1.
        -11    1    3    3    0    0 -0.22010255517E+01  0.78420214162E+01  0.51165621079E+01  0.96187848212E+01  0.51100000000E-03 0.  1.
        -12    1    3    3    0    0 -0.14271587072E+02 -0.86392044121E+01 -0.34213979776E+02  0.38064556513E+02  0.00000000000E+00 0.  1.
</event>
<event>
 7    1  0.6515090E-012  0.5930194E+02  0.7816164E-02  0.1266605E+00
        -11   -1    0    0    0    0  0.00000000000E+00  0.00000000000E+00  0.45593999997E+02  0.45594000000E+02  0.51100000000E-03 0. -1.
         11   -1    0    0    0    0 -0.00000000000E+00 -0.00000000000E+00 -0.45593999997E+02  0.45594000000E+02  0.51100000000E-03 0.  1.
    9900012    2    1    2    0    0  0.31757346678E+02 -0.20204875979E+01  0.20272368985E+01  0.59301935213E+02  0.49999983924E+02 0.  0.
        -12    1    1    2    0    0 -0.31757346678E+02  0.20204875979E+01 -0.20272368985E+01  0.31886064787E+02  0.00000000000E+00 0.  1.
         11    1    3    3    0    0  0.78340700304E+00 -0.12579625246E+01 -0.11391434485E+01  0.18691827902E+01  0.51100000000E-03 0. -1.
        -11    1    3    3    0    0 -0.23595000750E+01 -0.15689813777E+01 -0.17814047934E+02  0.18037994545E+02  0.51100000000E-03 0.  1.
         12    1    3    3    0    0  0.33333439750E+02  0.80645630443E+00  0.20980428281E+02  0.39394757877E+02  0.00000000000E+00 0. -1.
</event>
<event>
 7    1  0.6515090E-012  0.5930194E+02  0.7816164E-02  0.1266605E+00
        -11   -1    0    0    0    0  0.00000000000E+00  0.00000000000E+00  0.45593999997E+02  0.45594000000E+02  0.51100000000E-03 0.  1.
         11   -1    0    0    0    0 -0.00000000000E+00 -0.00000000000E+00 -0.45593999997E+02  0.45594000000E+02  0.51100000000E-03 0. -1.
    9900012    2    1    2    0    0 -0.17349935097E+02 -0.25317548660E+02  0.86442126444E+01  0.59301938308E+02  0.49999989568E+02 0.  0.
        -12    1    1    2    0    0  0.17349935097E+02  0.25317548660E+02 -0.86442126444E+01  0.31886061692E+02  0.00000000000E+00 0.  1.
         11    1    3    3    0    0  0.51559920032E+01 -0.19718108629E+02 -0.79616179248E+00  0.20396615780E+02  0.51100000000E-03 0. -1.
        -11    1    3    3    0    0  0.69090953560E+01 -0.14540396909E+01  0.54783864611E+01  0.89365848365E+01  0.51100000000E-03 0.  1.
         12    1    3    3    0    0 -0.29415022456E+02 -0.41454003403E+01  0.39619879757E+01  0.29968737691E+02  0.00000000000E+00 0. -1.
</event>
<event>
 7    1  0.6515090E-012  0.5930197E+02  0.7816164E-02  0.1266605E+00
        -11   -1    0    0    0    0  0.00000000000E+00  0.00000000000E+00  0.45593999997E+02  0.45594000000E+02  0.51100000000E-03 0. -1.
         11   -1    0    0    0    0 -0.00000000000E+00 -0.00000000000E+00 -0.45593999997E+02  0.45594000000E+02  0.51100000000E-03 0.  1.
    9900012    2    1    2    0    0 -0.70521092079E+01 -0.30959432946E+02 -0.29155422546E+01  0.59301966705E+02  0.50000041359E+02 0.  0.
        -12    1    1    2    0    0  0.70521092079E+01  0.30959432946E+02  0.29155422546E+01  0.31886033295E+02  0.00000000000E+00 0.  1.
         11    1    3    3    0    0 -0.11750854124E+02 -0.21082642635E+02 -0.84133300737E+01  0.25560604772E+02  0.51100000000E-03 0. -1.
        -11    1    3    3    0    0  0.12325055663E+02 -0.18213251291E+02  0.37018650772E+01  0.22300971391E+02  0.51100000000E-03 0.  1.
        -12    1    3    3    0    0 -0.76263107464E+01  0.83364609797E+01  0.17959227418E+01  0.11440390542E+02  0.00000000000E+00 0.  1.
</event>
<event>
 7    1  0.6515090E-012  0.5930196E+02  0.7816164E-02  0.1266605E+00
        -11   -1    0    0    0    0  0.00000000000E+00  0.00000000000E+00  0.45593999997E+02  0.45594000000E+02  0.51100000000E-03 0.  1.
         11   -1    0    0    0    0 -0.00000000000E+00 -0.00000000000E+00 -0.45593999997E+02  0.45594000000E+02  0.51100000000E-03 0. -1.
    9900012    2    1    2    0    0 -0.64544393741E+01 -0.30807264012E+02  0.50962812779E+01  0.59301962516E+02  0.50000033718E+02 0.  0.
        -12    1    1    2    0    0  0.64544393741E+01  0.30807264012E+02 -0.50962812779E+01  0.31886037484E+02  0.00000000000E+00 0.  1.
         11    1    3    3    0    0 -0.13998485038E+02 -0.45153884216E+01 -0.51705231176E+00  0.14717800763E+02  0.51100000000E-03 0.  1.
        -11    1    3    3    0    0 -0.70575013477E+01 -0.24390218633E+02 -0.56907213161E+01  0.26020672543E+02  0.51100000000E-03 0. -1.
        -12    1    3    3    0    0  0.14601547012E+02 -0.19016569580E+01  0.11304054906E+02  0.18563489210E+02  0.00000000000E+00 0.  1.
</event>
<event>
 7    1  0.6515090E-012  0.5930194E+02  0.7816164E-02  0.1266605E+00
        -11   -1    0    0    0    0  0.00000000000E+00  0.00000000000E+00  0.45593999997E+02  0.45594000000E+02  0.51100000000E-03 0.  1.
         11   -1    0    0    0    0 -0.00000000000E+00 -0.00000000000E+00 -0.45593999997E+02  0.45594000000E+02  0.51100000000E-03 0. -1.
    9900012    2    1    2    0    0 -0.13287288441E+02  0.20329580685E+02 -0.20661001825E+02  0.59301939074E+02  0.49999990966E+02 0.  0.
        -12    1    1    2    0    0  0.13287288441E+02 -0.20329580685E+02  0.20661001825E+02  0.31886060926E+02  0.00000000000E+00 0.  1.
         11    1    3    3    0    0  0.10719613930E+02  0.62869437534E+01 -0.96207183300E+01  0.15716042950E+02  0.51100000000E-03 0. -1.
        -11    1    3    3    0    0  0.74262665419E+01  0.64286763898E+01 -0.25802450937E+01  0.10155539369E+02  0.51100000000E-03 0.  1.
        -12    1    3    3    0    0 -0.31433168913E+02  0.76139605414E+01 -0.84600384016E+01  0.33430356755E+02  0.00000000000E+00 0.  1.
</event>
<event>
 7    1  0.6515090E-012  0.5930195E+02  0.7816164E-02  0.1266605E+00
        -11   -1    0    0    0    0  0.00000000000E+00  0.00000000000E+00  0.45593999997E+02  0.45594000000E+02  0.51100000000E-03 0. -1.
         11   -1    0    0    0    0 -0.00000000000E+00 -0.00000000000E+00 -0.45593999997E+02  0.45594000000E+02  0.51100000000E-03 0.  1.
    9900012    2    1    2    0    0  0.29448732095E+02 -0.12168486896E+02  0.11918430007E+01  0.59301946857E+02  0.50000005159E+02 0.  0.
        -12    1    1    2    0    0 -0.29448732095E+02  0.12168486896E+02 -0.11918430007E+01  0.31886053143E+02  0.00000000000E+00 0.  1.
         11    1    3    3    0    0  0.18215163424E+01 -0.64764786155E+01 -0.67560486062E+01  0.95345104789E+01  0.51100000000E-03 0. -1.
        -11    1    3    3    0    0 -0.39896418074E+01  0.98817699034E+01 -0.55638440840E+01  0.12021771060E+02  0.51100000000E-03 0.  1.
         12    1    3    3    0    0  0.31616857560E+02 -0.15573778184E+02  0.13511735691E+02  0.37745665317E+02  0.00000000000E+00 0. -1.
</event>
<event>
 7    1  0.6515090E-012  0.5930189E+02  0.7816164E-02  0.1266605E+00
        -11   -1    0    0    0    0  0.00000000000E+00  0.00000000000E+00  0.45593999997E+02  0.45594000000E+02  0.51100000000E-03 0.  1.
         11   -1    0    0    0    0 -0.00000000000E+00 -0.00000000000E+00 -0.45593999997E+02  0.45594000000E+02  0.51100000000E-03 0. -1.
    9900012    2    1    2    0    0  0.49420044006E+01  0.31119661403E+02  0.48853916373E+01  0.59301893546E+02  0.49999907933E+02 0.  0.
        -12    1    1    2    0    0 -0.49420044006E+01 -0.31119661403E+02 -0.48853916373E+01  0.31886106454E+02  0.00000000000E+00 0.  1.
         11    1    3    3    0    0 -0.57128998906E+01  0.12747057077E+02  0.10356819110E+02  0.17389318320E+02  0.51100000000E-03 0. -1.
        -11    1    3    3    0    0  0.39067426570E+01 -0.19541003668E+01  0.12947317938E+02  0.13664340031E+02  0.51100000000E-03 0.  1.
        -12    1    3    3    0    0  0.67481616341E+01  0.20326704693E+02 -0.18418745411E+02  0.28248235195E+02  0.00000000000E+00 0.  1.
</event>
<event>
 7    1  0.6515090E-012  0.5930194E+02  0.7816164E-02  0.1266605E+00
        -11   -1    0    0    0    0  0.00000000000E+00  0.00000000000E+00  0.45593999997E+02  0.45594000000E+02  0.51100000000E-03 0.  1.
         11   -1    0    0    0    0 -0.00000000000E+00 -0.00000000000E+00 -0.45593999997E+02  0.45594000000E+02  0.51100000000E-03 0. -1.
    9900012    2    1    2    0    0  0.19132239463E+02  0.24124494463E+02 -0.82877452621E+01  0.59301944403E+02  0.50000000685E+02 0.  0.
        -12    1    1    2    0    0 -0.19132239463E+02 -0.24124494463E+02  0.82877452621E+01  0.31886055597E+02  0.00000000000E+00 0.  1.
         11    1    3    3    0    0 -0.30904541746E+01 -0.30174597841E+01 -0.61331705742E+01  0.75014500003E+01  0.51100000000E-03 0. -1.
        -11    1    3    3    0    0  0.56864220089E+01 -0.57813573620E+01  0.10118709927E+02  0.12967180844E+02  0.51100000000E-03 0.  1.
         12    1    3    3    0    0  0.16536271629E+02  0.32923311609E+02 -0.12273284615E+02  0.38833313559E+02  0.00000000000E+00 0. -1.
</event>
<event>
 7    1  0.6515090E-012  0.5930193E+02  0.7816164E-02  0.1266605E+00
        -11   -1    0    0    0    0  0.00000000000E+00  0.00000000000E+00  0.45593999997E+02  0.45594000000E+02  0.51100000000E-03 0. -1.
         11   -1    0    0    0    0 -0.00000000000E+00 -0.00000000000E+00 -0.45593999997E+02  0.45594000000E+02  0.51100000000E-03 0.  1.
    9900012    2    1    2    0    0  0.15285100237E+02  0.27853633021E+02  0.26948399522E+01  0.59301932132E+02  0.49999978305E+02 0.  0.
        -12    1    1    2    0    0 -0.15285100237E+02 -0.27853633021E+02 -0.26948399522E+01  0.31886067868E+02  0.00000000000E+00 0.  1.
         11    1    3    3    0    0 -0.96967918653E+00  0.81768800537E+01  0.14560042850E+02  0.16727118496E+02  0.51100000000E-03 0. -1.
        -11    1    3    3    0    0 -0.18488441571E+01  0.14929343395E+02 -0.17454171895E+02  0.23042387804E+02  0.51100000000E-03 0.  1.
         12    1    3    3    0    0  0.18103623581E+02  0.47474095721E+01  0.55889689974E+01  0.19532425831E+02  0.00000000000E+00 0. -1.
</event>
<event>
 7    1  0.6515090E-012  0.5930196E+02  0.7816164E-02  0.1266605E+00
        -11   -1    0    0    0    0  0.00000000000E+00  0.00000000000E+00  0.45593999997E+02  0.45594000000E+02  0.51100000000E-03 0.  1.
         11   -1    0    0    0    0 -0.00000000000E+00 -0.00000000000E+00 -0.45593999997E+02  0.45594000000E+02  0.51100000000E-03 0. -1.
    9900012    2    1    2    0    0  0.16580342099E+02  0.53990383894E+01 -0.26695734506E+02  0.59301959160E+02  0.50000027597E+02 0.  0.
        -12    1    1    2    0    0 -0.16580342099E+02 -0.53990383894E+01  0.26695734506E+02  0.31886040840E+02  0.00000000000E+00 0.  1.
         11    1    3    3    0    0 -0.42995730707E+01  0.81276134337E+01 -0.13210489770E+01  0.92892195248E+01  0.51100000000E-03 0. -1.
        -11    1    3    3    0    0  0.44463364298E+01  0.48664822683E+01  0.90037501745E+01  0.11158856338E+02  0.51100000000E-03 0.  1.
         12    1    3    3    0    0  0.16433578740E+02 -0.75950573127E+01 -0.34378435704E+02  0.38853883296E+02  0.00000000000E+00 0. -1.
</event>
<event>
 7    1  0.6515090E-012  0.5930195E+02  0.7816164E-02  0.1266605E+00
        -11   -1    0    0    0    0  0.00000000000E+00  0.00000000000E+00  0.45593999997E+02  0.45594000000E+02  0.51100000000E-03 0. -1.
         11   -1    0    0    0    0 -0.00000000000E+00 -0.00000000000E+00 -0.45593999997E+02  0.45594000000E+02  0.51100000000E-03 0.  1.
    9900012    2    1    2    0    0 -0.29029359604E+01 -0.25741749628E+02  0.18591817059E+02  0.59301947051E+02  0.50000005514E+02 0.  0.
        -12    1    1    2    0    0  0.29029359604E+01  0.25741749628E+02 -0.18591817059E+02  0.31886052949E+02  0.00000000000E+00 0.  1.
         11    1    3    3    0    0 -0.24519280824E+01 -0.47048275442E+01  0.95626997732E+00  0.53909003026E+01  0.51100000000E-03 0. -1.
        -11    1    3    3    0    0 -0.18635427108E+02 -0.18485909824E+02 -0.28466233853E+01  0.26402864815E+02  0.51100000000E-03 0.  1.
         12    1    3    3    0    0  0.18184419230E+02 -0.25510122602E+01  0.20482170467E+02  0.27508181934E+02  0.00000000000E+00 0. -1.
</event>
<event>
 7    1  0.6515090E-012  0.5930194E+02  0.7816164E-02  0.1266605E+00
        -11   -1    0    0    0    0  0.00000000000E+00  0.00000000000E+00  0.45593999997E+02  0.45594000000E+02  0.51100000000E-03 0.  1.
         11   -1    0    0    0    0 -0.00000000000E+00 -0.00000000000E+00 -0.45593999997E+02  0.45594000000E+02  0.51100000000E-03 0. -1.
    9900012    2    1    2    0    0  0.59605800778E+01  0.29166511799E+02  0.11423966229E+02  0.59301938315E+02  0.49999989581E+02 0.  0.
        -12    1    1    2    0    0 -0.59605800778E+01 -0.29166511799E+02 -0.11423966229E+02  0.31886061685E+02  0.00000000000E+00 0.  1.
         11    1    3    3    0    0 -0.79078825222E+01  0.55757930489E+01  0.14767177375E+02  0.17654846417E+02  0.51100000000E-03 0. -1.
        -11    1    3    3    0    0 -0.89973880070E+01  0.52902656994E+01 -0.63313512355E+01  0.12207616919E+02  0.51100000000E-03 0.  1.
         12    1    3    3    0    0  0.22865850607E+02  0.18300453050E+02  0.29881400896E+01  0.29439474979E+02  0.00000000000E+00 0. -1.
</event>
<event>
 7    1  0.6515090E-012  0.5930199E+02  0.7816164E-02  0.1266605E+00
        -11   -1    0    0    0    0  0.00000000000E+00  0.00000000000E+00  0.45593999997E+02  0.45594000000E+02  0.51100000000E-03 0. -1.
         11   -1    0    0    0    0 -0.00000000000E+00 -0.00000000000E+00 -0.45593999997E+02  0.45594000000E+02  0.51100000000E-03 0.  1.
    9900012    2    1    2    0    0 -0.14307711805E+02 -0.28366465901E+02 -0.27112485052E+01  0.59301986244E+02  0.50000076992E+02 0.  0.
        -12    1    1    2    0    0  0.14307711805E+02  0.28366465901E+02  0.27112485052E+01  0.31886013756E+02  0.00000000000E+00 0.  1.
         11    1    3    3    0    0 -0.10913015570E+02 -0.68541880957E+01  0.17824358656E+02  0.21995035009E+02  0.51100000000E-03 0. -1.
        -11    1    3    3    0    0  0.73432534335E+00 -0.16486656475E+02 -0.79470305603E+00  0.16522125428E+02  0.51100000000E-03 0.  1.
        -12    1    3    3    0    0 -0.41290215783E+01 -0.50256213300E+01 -0.19740904105E+02  0.20784825807E+02  0.00000000000E+00 0.  1.
</event>
<event>
 7    1  0.6515090E-012  0.5930191E+02  0.7816164E-02  0.1266605E+00
        -11   -1    0    0    0    0  0.00000000000E+00  0.00000000000E+00  0.45593999997E+02  0.45594000000E+02  0.51100000000E-03 0. -1.
         11   -1    0    0    0    0 -0.00000000000E+00 -0.00000000000E+00 -0.45593999997E+02  0.45594000000E+02  0.51100000000E-03 0.  1.
    9900012    2    1    2    0    0  0.18841674886E+02 -0.18273519331E+02  0.18105034541E+02  0.59301913740E+02  0.49999944763E+02 0.  0.
        -12    1    1    2    0    0 -0.18841674886E+02  0.18273519331E+02 -0.18105034541E+02  0.31886086260E+02  0.00000000000E+00 0.  1.
         11    1    3    3    0    0  0.20555222854E+02 -0.11678362572E+02  0.91968841499E+01  0.25366986759E+02  0.51100000000E-03 0. -1.
        -11    1    3    3    0    0  0.18176627668E+01 -0.19318051310E+02  0.37679795610E+01  0.19765846164E+02  0.51100000000E-03 0.  1.
         12    1    3    3    0    0 -0.35312107340E+01  0.12722894552E+02  0.51401708300E+01  0.14169080816E+02  0.00000000000E+00 0. -1.
</event>
<event>
 7    1  0.6515090E-012  0.5930193E+02  0.7816164E-02  0.1266605E+00
        -11   -1    0    0    0    0  0.00000000000E+00  0.00000000000E+00  0.45593999997E+02  0.45594000000E+02  0.51100000000E-03 0.  1.
         11   -1    0    0    0    0 -0.00000000000E+00 -0.00000000000E+00 -0.45593999997E+02  0.45594000000E+02  0.51100000000E-03 0. -1.
    9900012    2    1    2    0    0 -0.16347798406E+02  0.22902812207E+02 -0.14997739763E+02  0.59301929096E+02  0.49999972768E+02 0.  0.
        -12    1    1    2    0    0  0.16347798406E+02 -0.22902812207E+02  0.14997739763E+02  0.31886070904E+02  0.00000000000E+00 0.  1.
         11    1    3    3    0    0 -0.26034636078E+02  0.18173194415E+02 -0.22814578682E+02  0.39096959877E+02  0.51100000000E-03 0. -1.
        -11    1    3    3    0    0 -0.34543849820E+01  0.42563545107E+01  0.22610310294E+01  0.59297209801E+01  0.51100000000E-03 0.  1.
        -12    1    3    3    0    0  0.13141222654E+02  0.47326328141E+00  0.55558078894E+01  0.14275248239E+02  0.00000000000E+00 0.  1.
</event>
<event>
 7    1  0.6515090E-012  0.5930195E+02  0.7816164E-02  0.1266605E+00
        -11   -1    0    0    0    0  0.00000000000E+00  0.00000000000E+00  0.45593999997E+02  0.45594000000E+02  0.51100000000E-03 0. -1.
         11   -1    0    0    0    0 -0.00000000000E+00 -0.00000000000E+00 -0.45593999997E+02  0.45594000000E+02  0.51100000000E-03 0.  1.
    9900012    2    1    2    0    0 -0.14114455774E+02  0.16776814279E+02  0.23152559462E+02  0.59301947112E+02  0.50000005625E+02 0.  0.
        -12    1    1    2    0    0  0.14114455774E+02 -0.16776814279E+02 -0.23152559462E+02  0.31886052888E+02  0.00000000000E+00 0.  1.
         11    1    3    3    0    0 -0.82830921597E+01 -0.95559574665E+01 -0.19462993367E+01  0.12795077968E+02  0.51100000000E-03 0. -1.
        -11    1    3    3    0    0 -0.69790017258E+01  0.11936668936E+02 -0.36792978227E+01  0.14308310980E+02  0.51100000000E-03 0.  1.
        -12    1    3    3    0    0  0.11476381115E+01  0.14396102809E+02  0.28778156621E+02  0.32198558164E+02  0.00000000000E+00 0.  1.
</event>
<event>
 7    1  0.6515090E-012  0.5930195E+02  0.7816164E-02  0.1266605E+00
        -11   -1    0    0    0    0  0.00000000000E+00  0.00000000000E+00  0.45593999997E+02  0.45594000000E+02  0.51100000000E-03 0. -1.
         11   -1    0    0    0    0 -0.00000000000E+00 -0.00000000000E+00 -0.45593999997E+02  0.45594000000E+02  0.51100000000E-03 0.  1.
    9900012    2    1    2    0    0 -0.81434849229E+01 -0.51865371817E+01  0.30389203713E+02  0.59301949493E+02  0.50000009968E+02 0.  0.
        -12    1    1    2    0    0  0.81434849229E+01  0.51865371817E+01 -0.30389203713E+02  0.31886050507E+02  0.00000000000E+00 0.  1.
         11    1    3    3    0    0  0.68275041569E+01 -0.80459889859E+01  0.45021564315E+01  0.11472670333E+02  0.51100000000E-03 0. -1.
        -11    1    3    3    0    0  0.99707097810E+01  0.91039655847E+01  0.14173957050E+02  0.19575451505E+02  0.51100000000E-03 0.  1.
         12    1    3    3    0    0 -0.24941698861E+02 -0.62445137804E+01  0.11713090231E+02  0.28253827655E+02  0.00000000000E+00 0. -1.
</event>
<event>
 7    1  0.6515090E-012  0.5930195E+02  0.7816164E-02  0.1266605E+00
        -11   -1    0    0    0    0  0.00000000000E+00  0.00000000000E+00  0.45593999997E+02  0.45594000000E+02  0.51100000000E-03 0.  1.
         11   -1    0    0    0    0 -0.00000000000E+00 -0.00000000000E+00 -0.45593999997E+02  0.45594000000E+02  0.51100000000E-03 0. -1.
    9900012    2    1    2    0    0 -0.20761686278E+02 -0.23711015145E+02  0.48435821635E+01  0.59301950628E+02  0.50000012038E+02 0.  0.
        -12    1    1    2    0    0  0.20761686278E+02  0.23711015145E+02 -0.48435821635E+01  0.31886049372E+02  0.00000000000E+00 0.  1.
         11    1    3    3    0    0  0.25470511852E+00  0.23827005406E+01 -0.86896032256E+01  0.90139525760E+01  0.51100000000E-03 0. -1.
        -11    1    3    3    0    0 -0.21919471239E+02 -0.17911017528E+02 -0.61372460644E+01  0.28964349774E+02  0.51100000000E-03 0.  1.
        -12    1    3    3    0    0  0.90307984237E+00 -0.81826981582E+01  0.19670431454E+02  0.21323648279E+02  0.00000000000E+00 0.  1.
</event>
<event>
 7    1  0.6515090E-012  0.5930193E+02  0.7816164E-02  0.1266605E+00
        -11   -1    0    0    0    0  0.00000000000E+00  0.00000000000E+00  0.45593999997E+02  0.45594000000E+02  0.51100000000E-03 0.  1.
         11   -1    0    0    0    0 -0.00000000000E+00 -0.00000000000E+00 -0.45593999997E+02  0.45594000000E+02  0.51100000000E-03 0. -1.
    9900012    2    1    2    0    0  0.17606221629E+02 -0.20157096138E+02 -0.17333019945E+02  0.59301934937E+02  0.49999983422E+02 0.  0.
        -12    1    1    2    0    0 -0.17606221629E+02  0.20157096138E+02  0.17333019945E+02  0.31886065063E+02  0.00000000000E+00 0.  1.
         11    1    3    3    0    0  0.16125028856E+02  0.69186521551E+00 -0.15264311725E+02  0.22214734879E+02  0.51100000000E-03 0.  1.
        -11    1    3    3    0    0 -0.79782161419E+01 -0.19203887471E+02 -0.11385906936E+02  0.23708228610E+02  0.51100000000E-03 0. -1.
         12    1    3    3    0    0  0.94594089152E+01 -0.16450738827E+01  0.93171987157E+01  0.13378971448E+02  0.00000000000E+00 0. -1.
</event>
<event>
 7    1  0.6515090E-012  0.5930194E+02  0.7816164E-02  0.1266605E+00
        -11   -1    0    0    0    0  0.00000000000E+00  0.00000000000E+00  0.45593999997E+02  0.45594000000E+02  0.51100000000E-03 0.  1.
         11   -1    0    0    0    0 -0.00000000000E+00 -0.00000000000E+00 -0.45593999997E+02  0.45594000000E+02  0.51100000000E-03 0. -1.
    9900012    2    1    2    0    0 -0.79046119329E+01 -0.17389404456E+02  0.25531282302E+02  0.59301942654E+02  0.49999997494E+02 0.  0.
        -12    1    1    2    0    0  0.79046119329E+01  0.17389404456E+02 -0.25531282302E+02  0.31886057346E+02  0.00000000000E+00 0.  1.
         11    1    3    3    0    0  0.20369237793E+01 -0.25731286904E+02  0.90415695399E+01  0.27349555101E+02  0.51100000000E-03 0. -1.
        -11    1    3    3    0    0 -0.93367217232E+01 -0.37876057088E+01 -0.15615798731E+01  0.10196021847E+02  0.51100000000E-03 0.  1.
         12    1    3    3    0    0 -0.60481398899E+00  0.12129488157E+02  0.18051292635E+02  0.21756365705E+02  0.00000000000E+00 0. -1.
</event>
<event>
 7    1  0.6515090E-012  0.5930195E+02  0.7816164E-02  0.1266605E+00
        -11   -1    0    0    0    0  0.00000000000E+00  0.00000000000E+00  0.45593999997E+02  0.45594000000E+02  0.51100000000E-03 0.  1.
         11   -1    0    0    0    0 -0.00000000000E+00 -0.00000000000E+00 -0.45593999997E+02  0.45594000000E+02  0.51100000000E-03 0. -1.
    9900012    2    1    2    0    0  0.61408371435E+01 -0.17454953792E+02 -0.25967956002E+02  0.59301952399E+02  0.50000015267E+02 0.  0.
        -12    1    1    2    0    0 -0.61408371435E+01  0.17454953792E+02  0.25967956002E+02  0.31886047601E+02  0.00000000000E+00 0.  1.
         11    1    3    3    0    0  0.57452218499E+01  0.10942011284E+01 -0.19053583997E+02  0.19930978741E+02  0.51100000000E-03 0. -1.
        -11    1    3    3    0    0 -0.33917534479E+01  0.96627396943E+01 -0.92259649813E+00  0.10282203772E+02  0.51100000000E-03 0.  1.
         12    1    3    3    0    0  0.37873687415E+01 -0.28211894614E+02 -0.59917755074E+01  0.29088769885E+02  0.00000000000E+00 0. -1.
</event>
<event>
 7    1  0.6515090E-012  0.5930195E+02  0.7816164E-02  0.1266605E+00
        -11   -1    0    0    0    0  0.00000000000E+00  0.00000000000E+00  0.45593999997E+02  0.45594000000E+02  0.51100000000E-03 0. -1.
         11   -1    0    0    0    0 -0.00000000000E+00 -0.00000000000E+00 -0.45593999997E+02  0.45594000000E+02  0.51100000000E-03 0.  1.
    9900012    2    1    2    0    0  0.28592248817E+01  0.18564435083E+02  0.25766383840E+02  0.59301953631E+02  0.50000017514E+02 0.  0.
        -12    1    1    2    0    0 -0.28592248817E+01 -0.18564435083E+02 -0.25766383840E+02  0.31886046369E+02  0.00000000000E+00 0.  1.
         11    1    3    3    0    0  0.33640194241E+01  0.90436136364E+00 -0.32422565518E+00  0.34985166426E+01  0.51100000000E-03 0. -1.
        -11    1    3    3    0    0  0.21402742008E+01  0.20135445952E+02 -0.78151524584E+01  0.21704689944E+02  0.51100000000E-03 0.  1.
         12    1    3    3    0    0 -0.26450687432E+01 -0.24753722330E+01  0.33905761954E+02  0.34098747045E+02  0.00000000000E+00 0. -1.
</event>
<event>
 7    1  0.6515090E-012  0.5930194E+02  0.7816164E-02  0.1266605E+00
        -11   -1    0    0    0    0  0.00000000000E+00  0.00000000000E+00  0.45593999997E+02  0.45594000000E+02  0.51100000000E-03 0.  1.
         11   -1    0    0    0    0 -0.00000000000E+00 -0.00000000000E+00 -0.45593999997E+02  0.45594000000E+02  0.51100000000E-03 0. -1.
    9900012    2    1    2    0    0 -0.13950239930E+02 -0.17184657340E+02  0.22952105922E+02  0.59301940221E+02  0.49999993057E+02 0.  0.
        -12    1    1    2    0    0  0.13950239930E+02  0.17184657340E+02 -0.22952105922E+02  0.31886059779E+02  0.00000000000E+00 0.  1.
         11    1    3    3    0    0 -0.93542875477E+01  0.54552420500E+01  0.98980679845E+01  0.14670859260E+02  0.51100000000E-03 0. -1.
        -11    1    3    3    0    0 -0.53737811180E+01  0.91524055553E+01  0.54584597271E+01  0.11934774141E+02  0.51100000000E-03 0.  1.
         12    1    3    3    0    0  0.77782873601E+00 -0.31792304945E+02  0.75955782104E+01  0.32696306819E+02  0.00000000000E+00 0. -1.
</event>
<event>
 7    1  0.6515090E-012  0.5930192E+02  0.7816164E-02  0.1266605E+00
        -11   -1    0    0    0    0  0.00000000000E+00  0.00000000000E+00  0.45593999997E+02  0.45594000000E+02  0.51100000000E-03 0.  1.
         11   -1    0    0    0    0 -0.00000000000E+00 -0.00000000000E+00 -0.45593999997E+02  0.45594000000E+02  0.51100000000E-03 0. -1.
    9900012    2    1    2    0    0  0.90180960889E+01 -0.28557067480E+01 -0.30450632231E+02  0.59301919630E+02  0.49999955505E+02 0.  0.
        -12    1    1    2    0    0 -0.90180960889E+01  0.28557067480E+01  0.30450632231E+02  0.31886080370E+02  0.00000000000E+00 0.  1.
         11    1    3    3    0    0  0.16782683891E+02  0.73943194937E+01 -0.15436796267E+02  0.23971422958E+02  0.51100000000E-03 0. -1.
        -11    1    3    3    0    0  0.59635682368E+01  0.73953209858E+01 -0.30735906919E+01  0.99850828039E+01  0.51100000000E-03 0.  1.
         12    1    3    3    0    0 -0.13728156039E+02 -0.17645347228E+02 -0.11940245272E+02  0.25345413868E+02  0.00000000000E+00 0. -1.
</event>
<event>
 7    1  0.6515090E-012  0.5930192E+02  0.7816164E-02  0.1266605E+00
        -11   -1    0    0    0    0  0.00000000000E+00  0.00000000000E+00  0.45593999997E+02  0.45594000000E+02  0.51100000000E-03 0.  1.
         11   -1    0    0    0    0 -0.00000000000E+00 -0.00000000000E+00 -0.45593999997E+02  0.45594000000E+02  0.51100000000E-03 0. -1.
    9900012    2    1    2    0    0  0.25090884053E+02 -0.28622245525E+01 -0.19467341035E+02  0.59301919041E+02  0.49999954431E+02 0.  0.
        -12    1    1    2    0    0 -0.25090884053E+02  0.28622245525E+01  0.19467341035E+02  0.31886080959E+02  0.00000000000E+00 0.  1.
         11    1    3    3    0    0  0.27562783269E+02  0.91799857550E+01 -0.15053180142E+02  0.32719678981E+02  0.51100000000E-03 0. -1.
        -11    1    3    3    0    0 -0.62119291054E+01  0.21510886110E+01  0.57459425045E+01  0.87310423747E+01  0.51100000000E-03 0.  1.
        -12    1    3    3    0    0  0.37400298892E+01 -0.14193298919E+02 -0.10160103398E+02  0.17851197686E+02  0.00000000000E+00 0.  1.
</event>
<event>
 7    1  0.6515090E-012  0.5930193E+02  0.7816164E-02  0.1266605E+00
        -11   -1    0    0    0    0  0.00000000000E+00  0.00000000000E+00  0.45593999997E+02  0.45594000000E+02  0.51100000000E-03 0.  1.
         11   -1    0    0    0    0 -0.00000000000E+00 -0.00000000000E+00 -0.45593999997E+02  0.45594000000E+02  0.51100000000E-03 0. -1.
    9900012    2    1    2    0    0 -0.12271611785E+02  0.84215076946E+01 -0.28199413309E+02  0.59301934727E+02  0.49999983037E+02 0.  0.
        -12    1    1    2    0    0  0.12271611785E+02 -0.84215076946E+01  0.28199413309E+02  0.31886065273E+02  0.00000000000E+00 0.  1.
         11    1    3    3    0    0 -0.51206876674E+01  0.14463959185E+02 -0.10849163331E+02  0.18791804138E+02  0.51100000000E-03 0. -1.
        -11    1    3    3    0    0 -0.64010858086E+01 -0.55879529236E+01  0.10013261175E+02  0.13132574653E+02  0.51100000000E-03 0.  1.
         12    1    3    3    0    0 -0.74983830857E+00 -0.45449856713E+00 -0.27363511152E+02  0.27377555936E+02  0.00000000000E+00 0. -1.
</event>
<event>
 7    1  0.6515090E-012  0.5930195E+02  0.7816164E-02  0.1266605E+00
        -11   -1    0    0    0    0  0.00000000000E+00  0.00000000000E+00  0.45593999997E+02  0.45594000000E+02  0.51100000000E-03 0.  1.
         11   -1    0    0    0    0 -0.00000000000E+00 -0.00000000000E+00 -0.45593999997E+02  0.45594000000E+02  0.51100000000E-03 0. -1.
    9900012    2    1    2    0    0  0.27080804931E+02  0.11645424297E+02 -0.12154591381E+02  0.59301952983E+02  0.50000016332E+02 0.  0.
        -12    1    1    2    0    0 -0.27080804931E+02 -0.11645424297E+02  0.12154591381E+02  0.31886047017E+02  0.00000000000E+00 0.  1.
         11    1    3    3    0    0  0.11247160682E+02 -0.32521563694E+01 -0.19776198563E+02  0.22982018500E+02  0.51100000000E-03 0. -1.
        -11    1    3    3    0    0 -0.70676829165E+01 -0.63281292535E+00 -0.13660704645E+01  0.72262537170E+01  0.51100000000E-03 0.  1.
         12    1    3    3    0    0  0.22901327165E+02  0.15530393591E+02  0.89876776470E+01  0.29093680766E+02  0.00000000000E+00 0. -1.
</event>
<event>
 7    1  0.6515090E-012  0.5930200E+02  0.7816164E-02  0.1266605E+00
        -11   -1    0    0    0    0  0.00000000000E+00  0.00000000000E+00  0.45593999997E+02  0.45594000000E+02  0.51100000000E-03 0. -1.
         11   -1    0    0    0    0 -0.00000000000E+00 -0.00000000000E+00 -0.45593999997E+02  0.45594000000E+02  0.51100000000E-03 0.  1.
    9900012    2    1    2    0    0  0.34579064494E+01 -0.45467231444E+01  0.31370165848E+02  0.59301998155E+02  0.50000098715E+02 0.  0.
        -12    1    1    2    0    0 -0.34579064494E+01  0.45467231444E+01 -0.31370165848E+02  0.31886001845E+02  0.00000000000E+00 0.  1.
         11    1    3    3    0    0  0.10586392367E+02 -0.74502757046E+00  0.66902125285E+01  0.12545346283E+02  0.51100000000E-03 0. -1.
        -11    1    3    3    0    0  0.15355793687E+02 -0.58953538659E+01  0.62034807092E+01  0.17579498575E+02  0.51100000000E-03 0.  1.
         12    1    3    3    0    0 -0.22484279605E+02  0.20936582920E+01  0.18476472610E+02  0.29177153297E+02  0.00000000000E+00 0. -1.
</event>
<event>
 7    1  0.6515090E-012  0.5930193E+02  0.7816164E-02  0.1266605E+00
        -11   -1    0    0    0    0  0.00000000000E+00  0.00000000000E+00  0.45593999997E+02  0.45594000000E+02  0.51100000000E-03 0.  1.
         11   -1    0    0    0    0 -0.00000000000E+00 -0.00000000000E+00 -0.45593999997E+02  0.45594000000E+02  0.51100000000E-03 0. -1.
    9900012    2    1    2    0    0  0.84521549784E+01  0.18514147811E+02 -0.24546057983E+02  0.59301928504E+02  0.49999971688E+02 0.  0.
        -12    1    1    2    0    0 -0.84521549784E+01 -0.18514147811E+02  0.24546057983E+02  0.31886071496E+02  0.00000000000E+00 0.  1.
         11    1    3    3    0    0  0.13859719090E+02  0.10453996116E+02 -0.11925323979E+02  0.21061604884E+02  0.51100000000E-03 0. -1.
        -11    1    3    3    0    0 -0.11967015219E+02  0.16460685275E+02 -0.17194435919E+02  0.26642301699E+02  0.51100000000E-03 0.  1.
         12    1    3    3    0    0  0.65594511076E+01 -0.84005335803E+01  0.45737019145E+01  0.11598021921E+02  0.00000000000E+00 0. -1.
</event>
<event>
 7    1  0.6515090E-012  0.5930196E+02  0.7816164E-02  0.1266605E+00
        -11   -1    0    0    0    0  0.00000000000E+00  0.00000000000E+00  0.45593999997E+02  0.45594000000E+02  0.51100000000E-03 0.  1.
         11   -1    0    0    0    0 -0.00000000000E+00 -0.00000000000E+00 -0.45593999997E+02  0.45594000000E+02  0.51100000000E-03 0. -1.
    9900012    2    1    2    0    0  0.61318992822E+01  0.16070370151E+02 -0.26848880165E+02  0.59301963061E+02  0.50000034711E+02 0.  0.
        -12    1    1    2    0    0 -0.61318992822E+01 -0.16070370151E+02  0.26848880165E+02  0.31886036939E+02  0.00000000000E+00 0.  1.
         11    1    3    3    0    0  0.65797684979E+01  0.90458486970E+01 -0.27165247563E+02  0.29378076988E+02  0.51100000000E-03 0. -1.
        -11    1    3    3    0    0 -0.83567552241E+01  0.23987491239E+01 -0.11847522883E+02  0.14695344635E+02  0.51100000000E-03 0.  1.
         12    1    3    3    0    0  0.79088860083E+01  0.46257723304E+01  0.12163890280E+02  0.15228541437E+02  0.00000000000E+00 0. -1.
</event>
<event>
 7    1  0.6515090E-012  0.5930197E+02  0.7816164E-02  0.1266605E+00
        -11   -1    0    0    0    0  0.00000000000E+00  0.00000000000E+00  0.45593999997E+02  0.45594000000E+02  0.51100000000E-03 0.  1.
         11   -1    0    0    0    0 -0.00000000000E+00 -0.00000000000E+00 -0.45593999997E+02  0.45594000000E+02  0.51100000000E-03 0. -1.
    9900012    2    1    2    0    0  0.29571784978E+02 -0.10944759647E+02 -0.47371767926E+01  0.59301967407E+02  0.50000042639E+02 0.  0.
        -12    1    1    2    0    0 -0.29571784978E+02  0.10944759647E+02  0.47371767926E+01  0.31886032593E+02  0.00000000000E+00 0.  1.
         11    1    3    3    0    0  0.19074554377E+02 -0.75969687495E+01  0.25184896489E+01  0.20685631468E+02  0.51100000000E-03 0. -1.
        -11    1    3    3    0    0  0.62396079010E+01  0.12241789039E+02  0.84095170741E+01  0.16109440813E+02  0.51100000000E-03 0.  1.
        -12    1    3    3    0    0  0.42576227006E+01 -0.15589579936E+02 -0.15665183516E+02  0.22506895126E+02  0.00000000000E+00 0.  1.
</event>
<event>
 7    1  0.6515090E-012  0.5930196E+02  0.7816164E-02  0.1266605E+00
        -11   -1    0    0    0    0  0.00000000000E+00  0.00000000000E+00  0.45593999997E+02  0.45594000000E+02  0.51100000000E-03 0. -1.
         11   -1    0    0    0    0 -0.00000000000E+00 -0.00000000000E+00 -0.45593999997E+02  0.45594000000E+02  0.51100000000E-03 0.  1.
    9900012    2    1    2    0    0 -0.29685100018E+02  0.11156437516E+02  0.33238631256E+01  0.59301963445E+02  0.50000035413E+02 0.  0.
        -12    1    1    2    0    0  0.29685100018E+02 -0.11156437516E+02 -0.33238631256E+01  0.31886036555E+02  0.00000000000E+00 0.  1.
         11    1    3    3    0    0 -0.21857423417E+02  0.46546832791E+01  0.55577078530E+01  0.23028268534E+02  0.51100000000E-03 0. -1.
        -11    1    3    3    0    0 -0.14050898129E+02  0.46680364671E+01  0.13007993743E+02  0.19708531253E+02  0.51100000000E-03 0.  1.
        -12    1    3    3    0    0  0.62232215277E+01  0.18337177697E+01 -0.15241838470E+02  0.16565163658E+02  0.00000000000E+00 0.  1.
</event>
<event>
 7    1  0.6515090E-012  0.5930183E+02  0.7816164E-02  0.1266605E+00
        -11   -1    0    0    0    0  0.00000000000E+00  0.00000000000E+00  0.45593999997E+02  0.45594000000E+02  0.51100000000E-03 0. -1.
         11   -1    0    0    0    0 -0.00000000000E+00 -0.00000000000E+00 -0.45593999997E+02  0.45594000000E+02  0.51100000000E-03 0.  1.
    9900012    2    1    2    0    0 -0.10897753585E+02 -0.15527320177E+02  0.25629454051E+02  0.59301833407E+02  0.49999798253E+02 0.  0.
        -12    1    1    2    0    0  0.10897753585E+02  0.15527320177E+02 -0.25629454051E+02  0.31886166593E+02  0.00000000000E+00 0.  1.
         11    1    3    3    0    0  0.10038901398E+01 -0.46437682969E+00 -0.52389430023E+01  0.53544341713E+01  0.51100000000E-03 0. -1.
        -11    1    3    3    0    0  0.87853935231E+01  0.11826975398E+01 -0.44431519798E+01  0.99158213278E+01  0.51100000000E-03 0.  1.
         12    1    3    3    0    0 -0.20687037248E+02 -0.16245640887E+02  0.35311549033E+02  0.44031577908E+02  0.00000000000E+00 0. -1.
</event>
<event>
 7    1  0.6515090E-012  0.5930195E+02  0.7816164E-02  0.1266605E+00
        -11   -1    0    0    0    0  0.00000000000E+00  0.00000000000E+00  0.45593999997E+02  0.45594000000E+02  0.51100000000E-03 0. -1.
         11   -1    0    0    0    0 -0.00000000000E+00 -0.00000000000E+00 -0.45593999997E+02  0.45594000000E+02  0.51100000000E-03 0.  1.
    9900012    2    1    2    0    0 -0.70306455011E+01  0.20082967231E+02  0.23747933643E+02  0.59301954443E+02  0.50000018995E+02 0.  0.
        -12    1    1    2    0    0  0.70306455011E+01 -0.20082967231E+02 -0.23747933643E+02  0.31886045557E+02  0.00000000000E+00 0.  1.
         11    1    3    3    0    0 -0.46381203191E+01  0.19849241953E+02  0.13353905948E+02  0.24368655492E+02  0.51100000000E-03 0. -1.
        -11    1    3    3    0    0 -0.93507939083E+01  0.12762489286E+02  0.12863334036E+02  0.20390778363E+02  0.51100000000E-03 0.  1.
         12    1    3    3    0    0  0.69582687263E+01 -0.12528764007E+02 -0.24693063407E+01  0.14542520587E+02  0.00000000000E+00 0. -1.
</event>
<event>
 7    1  0.6515090E-012  0.5930196E+02  0.7816164E-02  0.1266605E+00
        -11   -1    0    0    0    0  0.00000000000E+00  0.00000000000E+00  0.45593999997E+02  0.45594000000E+02  0.51100000000E-03 0. -1.
         11   -1    0    0    0    0 -0.00000000000E+00 -0.00000000000E+00 -0.45593999997E+02  0.45594000000E+02  0.51100000000E-03 0.  1.
    9900012    2    1    2    0    0 -0.16435844390E+02 -0.24943003313E+02  0.11154779110E+02  0.59301960860E+02  0.50000030697E+02 0.  0.
        -12    1    1    2    0    0  0.16435844390E+02  0.24943003313E+02 -0.11154779110E+02  0.31886039140E+02  0.00000000000E+00 0.  1.
         11    1    3    3    0    0 -0.38097749890E+01 -0.39007832891E+01  0.12872121342E+01  0.56024468828E+01  0.51100000000E-03 0. -1.
        -11    1    3    3    0    0 -0.15966634968E+02  0.78694205776E+01 -0.80351368896E+01  0.19530095687E+02  0.51100000000E-03 0.  1.
         12    1    3    3    0    0  0.33405655676E+01 -0.28911640601E+02  0.17902703866E+02  0.34169418290E+02  0.00000000000E+00 0. -1.
</event>
<event>
 7    1  0.6515090E-012  0.5930193E+02  0.7816164E-02  0.1266605E+00
        -11   -1    0    0    0    0  0.00000000000E+00  0.00000000000E+00  0.45593999997E+02  0.45594000000E+02  0.51100000000E-03 0. -1.
         11   -1    0    0    0    0 -0.00000000000E+00 -0.00000000000E+00 -0.45593999997E+02  0.45594000000E+02  0.51100000000E-03 0.  1.
    9900012    2    1    2    0    0 -0.42586126481E+01  0.20425884408E+02  0.24111591695E+02  0.59301931105E+02  0.49999976432E+02 0.  0.
        -12    1    1    2    0    0  0.42586126481E+01 -0.20425884408E+02 -0.24111591695E+02  0.31886068895E+02  0.00000000000E+00 0.  1.
         11    1    3    3    0    0  0.17270327957E+02 -0.62806314681E+00  0.15740968693E+02  0.23375987395E+02  0.51100000000E-03 0. -1.
        -11    1    3    3    0    0 -0.71305831887E+00  0.10712568450E+02  0.66283770329E+01  0.12617565428E+02  0.51100000000E-03 0.  1.
        -12    1    3    3    0    0 -0.20815882286E+02  0.10341379104E+02  0.17422459691E+01  0.23308378282E+02  0.00000000000E+00 0.  1.
</event>
<event>
 7    1  0.6515090E-012  0.5930198E+02  0.7816164E-02  0.1266605E+00
        -11   -1    0    0    0    0  0.00000000000E+00  0.00000000000E+00  0.45593999997E+02  0.45594000000E+02  0.51100000000E-03 0.  1.
         11   -1    0    0    0    0 -0.00000000000E+00 -0.00000000000E+00 -0.45593999997E+02  0.45594000000E+02  0.51100000000E-03 0. -1.
    9900012    2    1    2    0    0 -0.51915458161E+01 -0.24974815682E+01 -0.31361265619E+02  0.59301975736E+02  0.50000057828E+02 0.  0.
        -12    1    1    2    0    0  0.51915458161E+01  0.24974815682E+01  0.31361265619E+02  0.31886024264E+02  0.00000000000E+00 0.  1.
         11    1    3    3    0    0 -0.28800847730E+00  0.77532161289E+01  0.41129099466E+01  0.87813061508E+01  0.51100000000E-03 0. -1.
        -11    1    3    3    0    0 -0.73513078098E+00  0.12032231644E+02 -0.63846556349E+01  0.13641071931E+02  0.51100000000E-03 0.  1.
         12    1    3    3    0    0 -0.41684065578E+01 -0.22282929341E+02 -0.29089519931E+02  0.36879597653E+02  0.00000000000E+00 0. -1.
</event>
<event>
 7    1  0.6515090E-012  0.5930199E+02  0.7816164E-02  0.1266605E+00
        -11   -1    0    0    0    0  0.00000000000E+00  0.00000000000E+00  0.45593999997E+02  0.45594000000E+02  0.51100000000E-03 0.  1.
         11   -1    0    0    0    0 -0.00000000000E+00 -0.00000000000E+00 -0.45593999997E+02  0.45594000000E+02  0.51100000000E-03 0. -1.
    9900012    2    1    2    0    0 -0.29049766471E+02  0.12626043343E+02  0.36621776899E+01  0.59301992913E+02  0.50000089155E+02 0.  0.
        -12    1    1    2    0    0  0.29049766471E+02 -0.12626043343E+02 -0.36621776899E+01  0.31886007087E+02  0.00000000000E+00 0.  1.
         11    1    3    3    0    0  0.42235289078E+01 -0.74453419989E+01 -0.14001134930E+01  0.86736170062E+01  0.51100000000E-03 0. -1.
        -11    1    3    3    0    0 -0.80050083290E+01 -0.53543881165E+01  0.10639393079E+02  0.14350829795E+02  0.51100000000E-03 0.  1.
         12    1    3    3    0    0 -0.25268287049E+02  0.25425773459E+02 -0.55771018957E+01  0.36277546113E+02  0.00000000000E+00 0. -1.
</event>
<event>
 7    1  0.6515090E-012  0.5930191E+02  0.7816164E-02  0.1266605E+00
        -11   -1    0    0    0    0  0.00000000000E+00  0.00000000000E+00  0.45593999997E+02  0.45594000000E+02  0.51100000000E-03 0.  1.
         11   -1    0    0    0    0 -0.00000000000E+00 -0.00000000000E+00 -0.45593999997E+02  0.45594000000E+02  0.51100000000E-03 0. -1.
    9900012    2    1    2    0    0 -0.40071275304E+01 -0.29960964491E+01 -0.31491097174E+02  0.59301907951E+02  0.49999934204E+02 0.  0.
        -12    1    1    2    0    0  0.40071275304E+01  0.29960964491E+01  0.31491097174E+02  0.31886092049E+02  0.00000000000E+00 0.  1.
         11    1    3    3    0    0 -0.14436716063E+02  0.72436357897E+01 -0.29354414814E+02  0.33504786218E+02  0.51100000000E-03 0. -1.
        -11    1    3    3    0    0 -0.33314852501E+01 -0.10110806241E+02 -0.49672246917E+01  0.11747362181E+02  0.51100000000E-03 0.  1.
         12    1    3    3    0    0  0.13761073783E+02 -0.12892599804E+00  0.28305423326E+01  0.14049759552E+02  0.00000000000E+00 0. -1.
</event>
<event>
 7    1  0.6515090E-012  0.5930195E+02  0.7816164E-02  0.1266605E+00
        -11   -1    0    0    0    0  0.00000000000E+00  0.00000000000E+00  0.45593999997E+02  0.45594000000E+02  0.51100000000E-03 0.  1.
         11   -1    0    0    0    0 -0.00000000000E+00 -0.00000000000E+00 -0.45593999997E+02  0.45594000000E+02  0.51100000000E-03 0. -1.
    9900012    2    1    2    0    0  0.11429476700E+02  0.28723081740E+02 -0.78148557391E+01  0.59301947681E+02  0.50000006663E+02 0.  0.
        -12    1    1    2    0    0 -0.11429476700E+02 -0.28723081740E+02  0.78148557391E+01  0.31886052319E+02  0.00000000000E+00 0.  1.
         11    1    3    3    0    0 -0.91421456489E+01 -0.12778628268E+01 -0.53657205522E+01  0.10677205523E+02  0.51100000000E-03 0. -1.
        -11    1    3    3    0    0 -0.26956012581E+01  0.93150118044E+01  0.11040750336E+02  0.14694688812E+02  0.51100000000E-03 0.  1.
         12    1    3    3    0    0  0.23267223607E+02  0.20685932762E+02 -0.13489885523E+02  0.33930053346E+02  0.00000000000E+00 0. -1.
</event>
<event>
 7    1  0.6515090E-012  0.5930207E+02  0.7816164E-02  0.1266604E+00
        -11   -1    0    0    0    0  0.00000000000E+00  0.00000000000E+00  0.45593999997E+02  0.45594000000E+02  0.51100000000E-03 0.  1.
         11   -1    0    0    0    0 -0.00000000000E+00 -0.00000000000E+00 -0.45593999997E+02  0.45594000000E+02  0.51100000000E-03 0. -1.
    9900012    2    1    2    0    0  0.24593249739E+02  0.90808549962E+01 -0.18150006663E+02  0.59302068901E+02  0.50000227738E+02 0.  0.
        -12    1    1    2    0    0 -0.24593249739E+02 -0.90808549962E+01  0.18150006663E+02  0.31885931099E+02  0.00000000000E+00 0.  1.
         11    1    3    3    0    0 -0.16992709902E+01  0.34245853116E+01 -0.11540860043E+02  0.12157580239E+02  0.51100000000E-03 0. -1.
        -11    1    3    3    0    0  0.21806837275E+02 -0.13262949942E+02 -0.99903655678E+01  0.27408965641E+02  0.51100000000E-03 0.  1.
        -12    1    3    3    0    0  0.44856834548E+01  0.18919219626E+02  0.33812189483E+01  0.19735523021E+02  0.00000000000E+00 0.  1.
</event>
<event>
 7    1  0.6515090E-012  0.5930195E+02  0.7816164E-02  0.1266605E+00
        -11   -1    0    0    0    0  0.00000000000E+00  0.00000000000E+00  0.45593999997E+02  0.45594000000E+02  0.51100000000E-03 0.  1.
         11   -1    0    0    0    0 -0.00000000000E+00 -0.00000000000E+00 -0.45593999997E+02  0.45594000000E+02  0.51100000000E-03 0. -1.
    9900012    2    1    2    0    0 -0.30629634547E+02  0.82177603666E+01  0.33187656275E+01  0.59301948140E+02  0.50000007500E+02 0.  0.
        -12    1    1    2    0    0  0.30629634547E+02 -0.82177603666E+01 -0.33187656275E+01  0.31886051860E+02  0.00000000000E+00 0.  1.
         11    1    3    3    0    0  0.86803992655E+01 -0.45628431449E+01  0.14094373191E+01  0.99073398443E+01  0.51100000000E-03 0.  1.
        -11    1    3    3    0    0 -0.64273318166E+01 -0.37358543999E-01 -0.10222288646E+02  0.12075064197E+02  0.51100000000E-03 0. -1.
         12    1    3    3    0    0 -0.32882701996E+02  0.12817962055E+02  0.12131616954E+02  0.37319544099E+02  0.00000000000E+00 0. -1.
</event>
<event>
 7    1  0.6515090E-012  0.5930193E+02  0.7816164E-02  0.1266605E+00
        -11   -1    0    0    0    0  0.00000000000E+00  0.00000000000E+00  0.45593999997E+02  0.45594000000E+02  0.51100000000E-03 0.  1.
         11   -1    0    0    0    0 -0.00000000000E+00 -0.00000000000E+00 -0.45593999997E+02  0.45594000000E+02  0.51100000000E-03 0. -1.
    9900012    2    1    2    0    0 -0.70794768207E+01  0.23466632239E+02 -0.20394103109E+02  0.59301933101E+02  0.49999980071E+02 0.  0.
        -12    1    1    2    0    0  0.70794768207E+01 -0.23466632239E+02  0.20394103109E+02  0.31886066899E+02  0.00000000000E+00 0.  1.
         11    1    3    3    0    0 -0.23677942299E+02  0.92225855641E+01 -0.14554960143E+02  0.29283918813E+02  0.51100000000E-03 0. -1.
        -11    1    3    3    0    0  0.45863718042E+01 -0.46546432647E+01 -0.37340255195E+01  0.75261847632E+01  0.51100000000E-03 0.  1.
        -12    1    3    3    0    0  0.12012093674E+02  0.18898689940E+02 -0.21051174457E+01  0.22491829524E+02  0.00000000000E+00 0.  1.
</event>
<event>
 7    1  0.6515090E-012  0.5930195E+02  0.7816164E-02  0.1266605E+00
        -11   -1    0    0    0    0  0.00000000000E+00  0.00000000000E+00  0.45593999997E+02  0.45594000000E+02  0.51100000000E-03 0.  1.
         11   -1    0    0    0    0 -0.00000000000E+00 -0.00000000000E+00 -0.45593999997E+02  0.45594000000E+02  0.51100000000E-03 0. -1.
    9900012    2    1    2    0    0 -0.14487699217E+02 -0.23999008320E+01 -0.28303130655E+02  0.59301950425E+02  0.50000011668E+02 0.  0.
        -12    1    1    2    0    0  0.14487699217E+02  0.23999008320E+01  0.28303130655E+02  0.31886049575E+02  0.00000000000E+00 0.  1.
         11    1    3    3    0    0 -0.56974792603E+01 -0.27690926722E+01 -0.47478339315E+01  0.79165062654E+01  0.51100000000E-03 0. -1.
        -11    1    3    3    0    0 -0.17612474025E+02 -0.13798352114E+02 -0.26237009114E+02  0.34481508231E+02  0.51100000000E-03 0.  1.
        -12    1    3    3    0    0  0.88222540680E+01  0.14167543955E+02  0.26817123912E+01  0.16903935929E+02  0.00000000000E+00 0.  1.
</event>
<event>
 7    1  0.6515090E-012  0.5930194E+02  0.7816164E-02  0.1266605E+00
        -11   -1    0    0    0    0  0.00000000000E+00  0.00000000000E+00  0.45593999997E+02  0.45594000000E+02  0.51100000000E-03 0.  1.
         11   -1    0    0    0    0 -0.00000000000E+00 -0.00000000000E+00 -0.45593999997E+02  0.45594000000E+02  0.51100000000E-03 0. -1.
    9900012    2    1    2    0    0  0.25145260341E+01  0.24454441630E+02 -0.20307097734E+02  0.59301940742E+02  0.49999994009E+02 0.  0.
        -12    1    1    2    0    0 -0.25145260341E+01 -0.24454441630E+02  0.20307097734E+02  0.31886059258E+02  0.00000000000E+00 0.  1.
         11    1    3    3    0    0  0.18445686667E+01  0.10919548567E+01 -0.88546553880E+01  0.91104182821E+01  0.51100000000E-03 0. -1.
        -11    1    3    3    0    0 -0.16439084113E+02  0.92176655319E+01 -0.18982996961E+02  0.26750009686E+02  0.51100000000E-03 0.  1.
        -12    1    3    3    0    0  0.17109041481E+02  0.14144821241E+02  0.75305546147E+01  0.23441512774E+02  0.00000000000E+00 0.  1.
</event>
<event>
 7    1  0.6515090E-012  0.5930211E+02  0.7816164E-02  0.1266604E+00
        -11   -1    0    0    0    0  0.00000000000E+00  0.00000000000E+00  0.45593999997E+02  0.45594000000E+02  0.51100000000E-03 0. -1.
         11   -1    0    0    0    0 -0.00000000000E+00 -0.00000000000E+00 -0.45593999997E+02  0.45594000000E+02  0.51100000000E-03 0.  1.
    9900012    2    1    2    0    0  0.17205731390E+02  0.34948141796E+01  0.26616892775E+02  0.59302111275E+02  0.50000305018E+02 0.  0.
        -12    1    1    2    0    0 -0.17205731390E+02 -0.34948141796E+01 -0.26616892775E+02  0.31885888725E+02  0.00000000000E+00 0.  1.
         11    1    3    3    0    0  0.36418081302E+01 -0.88849011595E+01  0.21237669550E+02  0.23307570514E+02  0.51100000000E-03 0. -1.
        -11    1    3    3    0    0  0.22359975439E+02  0.53271792285E+01 -0.10614055873E+01  0.23010300351E+02  0.51100000000E-03 0.  1.
         12    1    3    3    0    0 -0.87960521791E+01  0.70525361107E+01  0.64406288117E+01  0.12984240410E+02  0.00000000000E+00 0. -1.
</event>
<event>
 7    1  0.6515090E-012  0.5930195E+02  0.7816164E-02  0.1266605E+00
        -11   -1    0    0    0    0  0.00000000000E+00  0.00000000000E+00  0.45593999997E+02  0.45594000000E+02  0.51100000000E-03 0.  1.
         11   -1    0    0    0    0 -0.00000000000E+00 -0.00000000000E+00 -0.45593999997E+02  0.45594000000E+02  0.51100000000E-03 0. -1.
    9900012    2    1    2    0    0  0.16546895297E+02  0.28493375522E-01 -0.27256550258E+02  0.59301951518E+02  0.50000013660E+02 0.  0.
        -12    1    1    2    0    0 -0.16546895297E+02 -0.28493375522E-01  0.27256550258E+02  0.31886048482E+02  0.00000000000E+00 0.  1.
         11    1    3    3    0    0  0.23445214571E+01  0.11722458211E+02 -0.10928832599E+02  0.16197289576E+02  0.51100000000E-03 0. -1.
        -11    1    3    3    0    0  0.62919177798E+01  0.12187792324E+02 -0.12459529537E+01  0.13772541890E+02  0.51100000000E-03 0.  1.
         12    1    3    3    0    0  0.79104560600E+01 -0.23881757160E+02 -0.15081764706E+02  0.29332120052E+02  0.00000000000E+00 0. -1.
</event>
<event>
 7    1  0.6515090E-012  0.5930195E+02  0.7816164E-02  0.1266605E+00
        -11   -1    0    0    0    0  0.00000000000E+00  0.00000000000E+00  0.45593999997E+02  0.45594000000E+02  0.51100000000E-03 0.  1.
         11   -1    0    0    0    0 -0.00000000000E+00 -0.00000000000E+00 -0.45593999997E+02  0.45594000000E+02  0.51100000000E-03 0. -1.
    9900012    2    1    2    0    0  0.27714859943E+02  0.11571055004E+02 -0.10710635784E+02  0.59301945141E+02  0.50000002030E+02 0.  0.
        -12    1    1    2    0    0 -0.27714859943E+02 -0.11571055004E+02  0.10710635784E+02  0.31886054859E+02  0.00000000000E+00 0.  1.
         11    1    3    3    0    0  0.25623127500E+02  0.51172832408E+01 -0.50882485688E+01  0.26619945988E+02  0.51100000000E-03 0. -1.
        -11    1    3    3    0    0  0.99276879786E+00 -0.12688565813E+02 -0.96368597517E-01  0.12727709120E+02  0.51100000000E-03 0.  1.
        -12    1    3    3    0    0  0.10989636460E+01  0.19142337576E+02 -0.55260186173E+01  0.19954290033E+02  0.00000000000E+00 0.  1.
</event>
<event>
 7    1  0.6515090E-012  0.5930197E+02  0.7816164E-02  0.1266605E+00
        -11   -1    0    0    0    0  0.00000000000E+00  0.00000000000E+00  0.45593999997E+02  0.45594000000E+02  0.51100000000E-03 0. -1.
         11   -1    0    0    0    0 -0.00000000000E+00 -0.00000000000E+00 -0.45593999997E+02  0.45594000000E+02  0.51100000000E-03 0.  1.
    9900012    2    1    2    0    0 -0.59605105113E+01 -0.27301549911E+02 -0.15356317548E+02  0.59301971685E+02  0.50000050440E+02 0.  0.
        -12    1    1    2    0    0  0.59605105113E+01  0.27301549911E+02  0.15356317548E+02  0.31886028315E+02  0.00000000000E+00 0.  1.
         11    1    3    3    0    0 -0.57936859878E+01 -0.51909892370E+01 -0.13355619180E+02  0.15455928653E+02  0.51100000000E-03 0. -1.
        -11    1    3    3    0    0  0.17562974389E+02 -0.13741518435E+02 -0.74252671647E+01  0.23503659098E+02  0.51100000000E-03 0.  1.
         12    1    3    3    0    0 -0.17729798912E+02 -0.83690422382E+01  0.54245687973E+01  0.20342383933E+02  0.00000000000E+00 0. -1.
</event>
<event>
 7    1  0.6515090E-012  0.5930194E+02  0.7816164E-02  0.1266605E+00
        -11   -1    0    0    0    0  0.00000000000E+00  0.00000000000E+00  0.45593999997E+02  0.45594000000E+02  0.51100000000E-03 0.  1.
         11   -1    0    0    0    0 -0.00000000000E+00 -0.00000000000E+00 -0.45593999997E+02  0.45594000000E+02  0.51100000000E-03 0. -1.
    9900012    2    1    2    0    0 -0.32356794051E+01  0.26755680602E+02 -0.17040675132E+02  0.59301942316E+02  0.49999996879E+02 0.  0.
        -12    1    1    2    0    0  0.32356794051E+01 -0.26755680602E+02  0.17040675132E+02  0.31886057684E+02  0.00000000000E+00 0.  1.
         11    1    3    3    0    0  0.13450246904E+02 -0.46508935045E+00 -0.61986174714E+01  0.14817162640E+02  0.51100000000E-03 0. -1.
        -11    1    3    3    0    0  0.99364776064E+00 -0.31825100193E+01  0.49208497954E+01  0.59439438814E+01  0.51100000000E-03 0.  1.
        -12    1    3    3    0    0 -0.17679574070E+02  0.30403279972E+02 -0.15762907456E+02  0.38540835795E+02  0.00000000000E+00 0.  1.
</event>
<event>
 7    1  0.6515090E-012  0.5930194E+02  0.7816164E-02  0.1266605E+00
        -11   -1    0    0    0    0  0.00000000000E+00  0.00000000000E+00  0.45593999997E+02  0.45594000000E+02  0.51100000000E-03 0.  1.
         11   -1    0    0    0    0 -0.00000000000E+00 -0.00000000000E+00 -0.45593999997E+02  0.45594000000E+02  0.51100000000E-03 0. -1.
    9900012    2    1    2    0    0  0.30089974247E+02  0.68352807004E+01 -0.80369732123E+01  0.59301944257E+02  0.50000000418E+02 0.  0.
        -12    1    1    2    0    0 -0.30089974247E+02 -0.68352807004E+01  0.80369732123E+01  0.31886055743E+02  0.00000000000E+00 0.  1.
         11    1    3    3    0    0  0.13862051110E+02 -0.98836139395E+01  0.10135637025E+02  0.19813465715E+02  0.51100000000E-03 0. -1.
        -11    1    3    3    0    0 -0.67159471002E+01  0.14341067842E+01 -0.82749233398E+00  0.69170334353E+01  0.51100000000E-03 0.  1.
         12    1    3    3    0    0  0.22943870237E+02  0.15284787856E+02 -0.17345117903E+02  0.32571445106E+02  0.00000000000E+00 0. -1.
</event>
<event>
 7    1  0.6515090E-012  0.5930194E+02  0.7816164E-02  0.1266605E+00
        -11   -1    0    0    0    0  0.00000000000E+00  0.00000000000E+00  0.45593999997E+02  0.45594000000E+02  0.51100000000E-03 0. -1.
         11   -1    0    0    0    0 -0.00000000000E+00 -0.00000000000E+00 -0.45593999997E+02  0.45594000000E+02  0.51100000000E-03 0.  1.
    9900012    2    1    2    0    0 -0.24294808358E+02  0.17079614652E+02  0.11609033949E+02  0.59301943188E+02  0.49999998469E+02 0.  0.
        -12    1    1    2    0    0  0.24294808358E+02 -0.17079614652E+02 -0.11609033949E+02  0.31886056812E+02  0.00000000000E+00 0.  1.
         11    1    3    3    0    0 -0.30512847659E+01  0.11285221566E+02  0.98184549306E+01  0.15266585146E+02  0.51100000000E-03 0. -1.
        -11    1    3    3    0    0 -0.10470240119E+02  0.18087534283E+02  0.12632671200E+02  0.24420671704E+02  0.51100000000E-03 0.  1.
        -12    1    3    3    0    0 -0.10773283473E+02 -0.12293141197E+02 -0.10842092182E+02  0.19614686339E+02  0.00000000000E+00 0.  1.
</event>
<event>
 7    1  0.6515090E-012  0.5930195E+02  0.7816164E-02  0.1266605E+00
        -11   -1    0    0    0    0  0.00000000000E+00  0.00000000000E+00  0.45593999997E+02  0.45594000000E+02  0.51100000000E-03 0. -1.
         11   -1    0    0    0    0 -0.00000000000E+00 -0.00000000000E+00 -0.45593999997E+02  0.45594000000E+02  0.51100000000E-03 0.  1.
    9900012    2    1    2    0    0  0.16160404297E+02 -0.21285171053E+02  0.17392619371E+02  0.59301946899E+02  0.50000005236E+02 0.  0.
        -12    1    1    2    0    0 -0.16160404297E+02  0.21285171053E+02 -0.17392619371E+02  0.31886053101E+02  0.00000000000E+00 0.  1.
         11    1    3    3    0    0  0.23977892886E+02 -0.33357292696E+01  0.15531993296E+02  0.28762984077E+02  0.51100000000E-03 0. -1.
        -11    1    3    3    0    0 -0.72788075853E+01 -0.14537515390E+02  0.11752755697E+02  0.20061098183E+02  0.51100000000E-03 0.  1.
        -12    1    3    3    0    0 -0.53868100350E+00 -0.34119263932E+01 -0.98921296218E+01  0.10477864639E+02  0.00000000000E+00 0.  1.
</event>
<event>
 7    1  0.6515090E-012  0.5930194E+02  0.7816164E-02  0.1266605E+00
        -11   -1    0    0    0    0  0.00000000000E+00  0.00000000000E+00  0.45593999997E+02  0.45594000000E+02  0.51100000000E-03 0. -1.
         11   -1    0    0    0    0 -0.00000000000E+00 -0.00000000000E+00 -0.45593999997E+02  0.45594000000E+02  0.51100000000E-03 0.  1.
    9900012    2    1    2    0    0  0.13206220444E+02  0.55806693181E+01  0.28481097202E+02  0.59301936802E+02  0.49999986822E+02 0.  0.
        -12    1    1    2    0    0 -0.13206220444E+02 -0.55806693181E+01 -0.28481097202E+02  0.31886063198E+02  0.00000000000E+00 0.  1.
         11    1    3    3    0    0  0.92063560837E+01  0.25555541683E+00  0.10742867791E+02  0.14150318355E+02  0.51100000000E-03 0. -1.
        -11    1    3    3    0    0 -0.16181113092E+02  0.12130873433E+02  0.85547298733E+01  0.21958367759E+02  0.51100000000E-03 0.  1.
         12    1    3    3    0    0  0.20180977453E+02 -0.68057595320E+01  0.91834995374E+01  0.23193250689E+02  0.00000000000E+00 0. -1.
</event>
<event>
 7    1  0.6515090E-012  0.5930199E+02  0.7816164E-02  0.1266605E+00
        -11   -1    0    0    0    0  0.00000000000E+00  0.00000000000E+00  0.45593999997E+02  0.45594000000E+02  0.51100000000E-03 0. -1.
         11   -1    0    0    0    0 -0.00000000000E+00 -0.00000000000E+00 -0.45593999997E+02  0.45594000000E+02  0.51100000000E-03 0.  1.
    9900012    2    1    2    0    0 -0.29880623792E+02  0.10639743689E+02  0.32652089113E+01  0.59301993458E+02  0.50000090149E+02 0.  0.
        -12    1    1    2    0    0  0.29880623792E+02 -0.10639743689E+02 -0.32652089113E+01  0.31886006542E+02  0.00000000000E+00 0.  1.
         11    1    3    3    0    0 -0.69389643418E+01  0.17169402299E+01  0.13302024095E+02  0.15101024971E+02  0.51100000000E-03 0. -1.
        -11    1    3    3    0    0 -0.18699502689E+02 -0.11610531215E+02 -0.63864471669E+01  0.22918606929E+02  0.51100000000E-03 0.  1.
        -12    1    3    3    0    0 -0.42421567613E+01  0.20533334674E+02 -0.36503680167E+01  0.21282361558E+02  0.00000000000E+00 0.  1.
</event>
<event>
 7    1  0.6515090E-012  0.5930195E+02  0.7816164E-02  0.1266605E+00
        -11   -1    0    0    0    0  0.00000000000E+00  0.00000000000E+00  0.45593999997E+02  0.45594000000E+02  0.51100000000E-03 0.  1.
         11   -1    0    0    0    0 -0.00000000000E+00 -0.00000000000E+00 -0.45593999997E+02  0.45594000000E+02  0.51100000000E-03 0. -1.
    9900012    2    1    2    0    0 -0.65478525837E+01 -0.10110407474E+02 -0.29523303269E+02  0.59301950564E+02  0.50000011920E+02 0.  0.
        -12    1    1    2    0    0  0.65478525837E+01  0.10110407474E+02  0.29523303269E+02  0.31886049436E+02  0.00000000000E+00 0.  1.
         11    1    3    3    0    0  0.64854056719E+01 -0.34015279117E+00  0.37693113679E+01  0.75089213007E+01  0.51100000000E-03 0. -1.
        -11    1    3    3    0    0  0.12509721556E+02 -0.55982028092E+01 -0.99036649984E+01  0.16909038670E+02  0.51100000000E-03 0.  1.
         12    1    3    3    0    0 -0.25542979811E+02 -0.41720518732E+01 -0.23388949639E+02  0.34883990593E+02  0.00000000000E+00 0. -1.
</event>
<event>
 7    1  0.6515090E-012  0.5930195E+02  0.7816164E-02  0.1266605E+00
        -11   -1    0    0    0    0  0.00000000000E+00  0.00000000000E+00  0.45593999997E+02  0.45594000000E+02  0.51100000000E-03 0.  1.
         11   -1    0    0    0    0 -0.00000000000E+00 -0.00000000000E+00 -0.45593999997E+02  0.45594000000E+02  0.51100000000E-03 0. -1.
    9900012    2    1    2    0    0  0.31560151262E+02  0.40771521767E+01 -0.20134132644E+01  0.59301950534E+02  0.50000011867E+02 0.  0.
        -12    1    1    2    0    0 -0.31560151262E+02 -0.40771521767E+01  0.20134132644E+01  0.31886049466E+02  0.00000000000E+00 0.  1.
         11    1    3    3    0    0 -0.12383043824E+01  0.40236949523E-01 -0.69274285590E+00  0.14194751428E+01  0.51100000000E-03 0. -1.
        -11    1    3    3    0    0 -0.21489983886E+00  0.16812526908E+02  0.11347573678E+02  0.20284838467E+02  0.51100000000E-03 0.  1.
         12    1    3    3    0    0  0.33013355483E+02 -0.12775611681E+02 -0.12668244087E+02  0.37597636925E+02  0.00000000000E+00 0. -1.
</event>
<event>
 7    1  0.6515090E-012  0.5930198E+02  0.7816164E-02  0.1266605E+00
        -11   -1    0    0    0    0  0.00000000000E+00  0.00000000000E+00  0.45593999997E+02  0.45594000000E+02  0.51100000000E-03 0.  1.
         11   -1    0    0    0    0 -0.00000000000E+00 -0.00000000000E+00 -0.45593999997E+02  0.45594000000E+02  0.51100000000E-03 0. -1.
    9900012    2    1    2    0    0 -0.17137540633E+02 -0.26747793677E+02  0.27529288442E+01  0.59301978254E+02  0.50000062421E+02 0.  0.
        -12    1    1    2    0    0  0.17137540633E+02  0.26747793677E+02 -0.27529288442E+01  0.31886021746E+02  0.00000000000E+00 0.  1.
         11    1    3    3    0    0 -0.45183242900E+01 -0.43079519105E+01  0.69376279735E+01  0.93329730639E+01  0.51100000000E-03 0. -1.
        -11    1    3    3    0    0  0.10115809391E+01 -0.15567247182E+02  0.17503956997E+02  0.23446769322E+02  0.51100000000E-03 0.  1.
         12    1    3    3    0    0 -0.13630797282E+02 -0.68725945847E+01 -0.21688656126E+02  0.26522235868E+02  0.00000000000E+00 0. -1.
</event>
<event>
 7    1  0.6515090E-012  0.5930192E+02  0.7816164E-02  0.1266605E+00
        -11   -1    0    0    0    0  0.00000000000E+00  0.00000000000E+00  0.45593999997E+02  0.45594000000E+02  0.51100000000E-03 0.  1.
         11   -1    0    0    0    0 -0.00000000000E+00 -0.00000000000E+00 -0.45593999997E+02  0.45594000000E+02  0.51100000000E-03 0. -1.
    9900012    2    1    2    0    0 -0.25609130426E+01  0.15654597307E+01 -0.31744502310E+02  0.59301915784E+02  0.49999948489E+02 0.  0.
        -12    1    1    2    0    0  0.25609130426E+01 -0.15654597307E+01  0.31744502310E+02  0.31886084216E+02  0.00000000000E+00 0.  1.
         11    1    3    3    0    0 -0.16602378311E+02 -0.23244107945E+01 -0.52905021403E+01  0.17579285090E+02  0.51100000000E-03 0.  1.
        -11    1    3    3    0    0  0.33121198992E+01 -0.89338521471E+01  0.99731948578E+00  0.95801095417E+01  0.51100000000E-03 0. -1.
        -12    1    3    3    0    0  0.10729345369E+02  0.12823722672E+02 -0.27451319655E+02  0.32142521152E+02  0.00000000000E+00 0.  1.
</event>
<event>
 7    1  0.6515090E-012  0.5930194E+02  0.7816164E-02  0.1266605E+00
        -11   -1    0    0    0    0  0.00000000000E+00  0.00000000000E+00  0.45593999997E+02  0.45594000000E+02  0.51100000000E-03 0. -1.
         11   -1    0    0    0    0 -0.00000000000E+00 -0.00000000000E+00 -0.45593999997E+02  0.45594000000E+02  0.51100000000E-03 0.  1.
    9900012    2    1    2    0    0 -0.22213976857E+02 -0.21342052883E+02  0.82326497423E+01  0.59301944884E+02  0.50000001561E+02 0.  0.
        -12    1    1    2    0    0  0.22213976857E+02  0.21342052883E+02 -0.82326497423E+01  0.31886055116E+02  0.00000000000E+00 0.  1.
         11    1    3    3    0    0 -0.76452939827E+01  0.85384316808E+01  0.99398198344E+01  0.15170871902E+02  0.51100000000E-03 0. -1.
        -11    1    3    3    0    0  0.27361690192E+00 -0.47379378905E+01 -0.12212328290E+02  0.13102056487E+02  0.51100000000E-03 0.  1.
         12    1    3    3    0    0 -0.14842299776E+02 -0.25142546674E+02  0.10505158198E+02  0.31029016495E+02  0.00000000000E+00 0. -1.
</event>
<event>
 7    1  0.6515090E-012  0.5930195E+02  0.7816164E-02  0.1266605E+00
        -11   -1    0    0    0    0  0.00000000000E+00  0.00000000000E+00  0.45593999997E+02  0.45594000000E+02  0.51100000000E-03 0. -1.
         11   -1    0    0    0    0 -0.00000000000E+00 -0.00000000000E+00 -0.45593999997E+02  0.45594000000E+02  0.51100000000E-03 0.  1.
    9900012    2    1    2    0    0  0.26401145571E+02 -0.11407544836E+02  0.13768357194E+02  0.59301949344E+02  0.50000009695E+02 0.  0.
        -12    1    1    2    0    0 -0.26401145571E+02  0.11407544836E+02 -0.13768357194E+02  0.31886050656E+02  0.00000000000E+00 0.  1.
         11    1    3    3    0    0 -0.50070633441E+01 -0.10051059758E+02  0.36750163890E+01  0.11815254179E+02  0.51100000000E-03 0. -1.
        -11    1    3    3    0    0  0.85959597375E+01 -0.10799968473E+02  0.16953134956E+02  0.21861807518E+02  0.51100000000E-03 0.  1.
        -12    1    3    3    0    0  0.22812249177E+02  0.94434833944E+01 -0.68597941515E+01  0.25624887648E+02  0.00000000000E+00 0.  1.
</event>
<event>
 7    1  0.6515090E-012  0.5930199E+02  0.7816164E-02  0.1266605E+00
        -11   -1    0    0    0    0  0.00000000000E+00  0.00000000000E+00  0.45593999997E+02  0.45594000000E+02  0.51100000000E-03 0. -1.
         11   -1    0    0    0    0 -0.00000000000E+00 -0.00000000000E+00 -0.45593999997E+02  0.45594000000E+02  0.51100000000E-03 0.  1.
    9900012    2    1    2    0    0 -0.35221749089E+01 -0.18405755890E+02  0.25798057676E+02  0.59301994515E+02  0.50000092076E+02 0.  0.
        -12    1    1    2    0    0  0.35221749089E+01  0.18405755890E+02 -0.25798057676E+02  0.31886005485E+02  0.00000000000E+00 0.  1.
         11    1    3    3    0    0 -0.28400914855E+01 -0.13953773792E+02 -0.62935738952E+01  0.15568654255E+02  0.51100000000E-03 0.  1.
        -11    1    3    3    0    0 -0.56477166808E+01 -0.79757392850E+01 -0.12390077389E+01  0.98511045719E+01  0.51100000000E-03 0. -1.
         12    1    3    3    0    0  0.49656332575E+01  0.35237571874E+01  0.33330639310E+02  0.33882235687E+02  0.00000000000E+00 0. -1.
</event>
<event>
 7    1  0.6515090E-012  0.5930196E+02  0.7816164E-02  0.1266605E+00
        -11   -1    0    0    0    0  0.00000000000E+00  0.00000000000E+00  0.45593999997E+02  0.45594000000E+02  0.51100000000E-03 0.  1.
         11   -1    0    0    0    0 -0.00000000000E+00 -0.00000000000E+00 -0.45593999997E+02  0.45594000000E+02  0.51100000000E-03 0. -1.
    9900012    2    1    2    0    0  0.38707837131E+01 -0.31091551565E+02  0.59204812052E+01  0.59301958493E+02  0.50000026381E+02 0.  0.
        -12    1    1    2    0    0 -0.38707837131E+01  0.31091551565E+02 -0.59204812052E+01  0.31886041507E+02  0.00000000000E+00 0.  1.
         11    1    3    3    0    0 -0.84327433904E+01 -0.18082051115E+02 -0.47223434063E+01  0.20502981762E+02  0.51100000000E-03 0. -1.
        -11    1    3    3    0    0 -0.50540329347E+01  0.77011477853E+00 -0.82307691230E+01  0.96892665509E+01  0.51100000000E-03 0.  1.
        -12    1    3    3    0    0  0.17357560038E+02 -0.13779615228E+02  0.18873593735E+02  0.29109710180E+02  0.00000000000E+00 0.  1.
</event>
<event>
 7    1  0.6515090E-012  0.5930194E+02  0.7816164E-02  0.1266605E+00
        -11   -1    0    0    0    0  0.00000000000E+00  0.00000000000E+00  0.45593999997E+02  0.45594000000E+02  0.51100000000E-03 0. -1.
         11   -1    0    0    0    0 -0.00000000000E+00 -0.00000000000E+00 -0.45593999997E+02  0.45594000000E+02  0.51100000000E-03 0.  1.
    9900012    2    1    2    0    0 -0.72212160938E+01  0.30329827235E+02  0.66840656963E+01  0.59301935392E+02  0.49999984250E+02 0.  0.
        -12    1    1    2    0    0  0.72212160938E+01 -0.30329827235E+02 -0.66840656963E+01  0.31886064608E+02  0.00000000000E+00 0.  1.
         11    1    3    3    0    0  0.30529559785E+01  0.23505421627E+02  0.21283918800E+02  0.31856405726E+02  0.51100000000E-03 0. -1.
        -11    1    3    3    0    0 -0.28144941101E+01  0.22020950111E+01  0.48984092717E+01  0.60634159669E+01  0.51100000000E-03 0.  1.
        -12    1    3    3    0    0 -0.74596779622E+01  0.46223105970E+01 -0.19498262376E+02  0.21382113699E+02  0.00000000000E+00 0.  1.
</event>
<event>
 7    1  0.6515090E-012  0.5930195E+02  0.7816164E-02  0.1266605E+00
        -11   -1    0    0    0    0  0.00000000000E+00  0.00000000000E+00  0.45593999997E+02  0.45594000000E+02  0.51100000000E-03 0. -1.
         11   -1    0    0    0    0 -0.00000000000E+00 -0.00000000000E+00 -0.45593999997E+02  0.45594000000E+02  0.51100000000E-03 0.  1.
    9900012    2    1    2    0    0 -0.21908818872E+01 -0.23272711619E+02  0.21686424728E+02  0.59301951530E+02  0.50000013683E+02 0.  0.
        -12    1    1    2    0    0  0.21908818872E+01  0.23272711619E+02 -0.21686424728E+02  0.31886048470E+02  0.00000000000E+00 0.  1.
         11    1    3    3    0    0 -0.62324635784E+01 -0.20758714645E+02  0.24541236460E+02  0.32742023810E+02  0.51100000000E-03 0. -1.
        -11    1    3    3    0    0  0.59341194110E+01  0.68545222274E+01  0.80040366446E+01  0.12093917935E+02  0.51100000000E-03 0.  1.
         12    1    3    3    0    0 -0.18925377197E+01 -0.93685192012E+01 -0.10858848376E+02  0.14466009785E+02  0.00000000000E+00 0. -1.
</event>
<event>
 7    1  0.6515090E-012  0.5930206E+02  0.7816164E-02  0.1266604E+00
        -11   -1    0    0    0    0  0.00000000000E+00  0.00000000000E+00  0.45593999997E+02  0.45594000000E+02  0.51100000000E-03 0. -1.
         11   -1    0    0    0    0 -0.00000000000E+00 -0.00000000000E+00 -0.45593999997E+02  0.45594000000E+02  0.51100000000E-03 0.  1.
    9900012    2    1    2    0    0 -0.13076509198E+02 -0.22617999301E+02 -0.18279613829E+02  0.59302058475E+02  0.50000208724E+02 0.  0.
        -12    1    1    2    0    0  0.13076509198E+02  0.22617999301E+02  0.18279613829E+02  0.31885941525E+02  0.00000000000E+00 0.  1.
         11    1    3    3    0    0  0.10322817669E+02  0.26176311586E+01 -0.49860754857E+01  0.11758975573E+02  0.51100000000E-03 0. -1.
        -11    1    3    3    0    0  0.14146873813E+01  0.46947486124E+01 -0.63926749236E+01  0.80565686157E+01  0.51100000000E-03 0.  1.
        -12    1    3    3    0    0 -0.24814014249E+02 -0.29930379072E+02 -0.69008634194E+01  0.39486514286E+02  0.00000000000E+00 0.  1.
</event>
<event>
 7    1  0.6515090E-012  0.5930196E+02  0.7816164E-02  0.1266605E+00
        -11   -1    0    0    0    0  0.00000000000E+00  0.00000000000E+00  0.45593999997E+02  0.45594000000E+02  0.51100000000E-03 0.  1.
         11   -1    0    0    0    0 -0.00000000000E+00 -0.00000000000E+00 -0.45593999997E+02  0.45594000000E+02  0.51100000000E-03 0. -1.
    9900012    2    1    2    0    0  0.12242716938E+02  0.17899628139E+02 -0.23376032448E+02  0.59301957622E+02  0.50000024792E+02 0.  0.
        -12    1    1    2    0    0 -0.12242716938E+02 -0.17899628139E+02  0.23376032448E+02  0.31886042378E+02  0.00000000000E+00 0.  1.
         11    1    3    3    0    0 -0.87784714351E+01  0.14072948539E+02 -0.22472832509E+02  0.27930944176E+02  0.51100000000E-03 0. -1.
        -11    1    3    3    0    0  0.43247229205E+01 -0.36878903256E+01 -0.95570148275E+01  0.11119365812E+02  0.51100000000E-03 0.  1.
         12    1    3    3    0    0  0.16696465453E+02  0.75145699252E+01  0.86538148878E+01  0.20251647634E+02  0.00000000000E+00 0. -1.
</event>
<event>
 7    1  0.6515090E-012  0.5930197E+02  0.7816164E-02  0.1266605E+00
        -11   -1    0    0    0    0  0.00000000000E+00  0.00000000000E+00  0.45593999997E+02  0.45594000000E+02  0.51100000000E-03 0. -1.
         11   -1    0    0    0    0 -0.00000000000E+00 -0.00000000000E+00 -0.45593999997E+02  0.45594000000E+02  0.51100000000E-03 0.  1.
    9900012    2    1    2    0    0  0.28208752840E+02  0.88137768527E+01  0.11970906437E+02  0.59301968573E+02  0.50000044765E+02 0.  0.
        -12    1    1    2    0    0 -0.28208752840E+02 -0.88137768527E+01 -0.11970906437E+02  0.31886031427E+02  0.00000000000E+00 0.  1.
         11    1    3    3    0    0  0.36154875424E+01  0.13498858967E+02  0.22261663043E+02  0.26284455202E+02  0.51100000000E-03 0. -1.
        -11    1    3    3    0    0  0.13125515096E+02 -0.10395241557E+02 -0.25739335288E+00  0.16745340999E+02  0.51100000000E-03 0.  1.
        -12    1    3    3    0    0  0.11467750201E+02  0.57101594427E+01 -0.10033363253E+02  0.16272172372E+02  0.00000000000E+00 0.  1.
</event>
<event>
 7    1  0.6515090E-012  0.5930196E+02  0.7816164E-02  0.1266605E+00
        -11   -1    0    0    0    0  0.00000000000E+00  0.00000000000E+00  0.45593999997E+02  0.45594000000E+02  0.51100000000E-03 0.  1.
         11   -1    0    0    0    0 -0.00000000000E+00 -0.00000000000E+00 -0.45593999997E+02  0.45594000000E+02  0.51100000000E-03 0. -1.
    9900012    2    1    2    0    0 -0.83237651177E+01 -0.80161032388E+01 -0.29718289479E+02  0.59301957498E+02  0.50000024567E+02 0.  0.
        -12    1    1    2    0    0  0.83237651177E+01  0.80161032388E+01  0.29718289479E+02  0.31886042502E+02  0.00000000000E+00 0.  1.
         11    1    3    3    0    0 -0.10986844379E+02  0.18574356810E+02 -0.11574375569E+02  0.24488439118E+02  0.51100000000E-03 0.  1.
        -11    1    3    3    0    0 -0.12399722760E+01  0.10619116236E+01 -0.19051984774E+01  0.25089776884E+01  0.51100000000E-03 0. -1.
        -12    1    3    3    0    0  0.39030515377E+01 -0.27652371673E+02 -0.16238715433E+02  0.32304540692E+02  0.00000000000E+00 0.  1.
</event>
<event>
 7    1  0.6515090E-012  0.5930194E+02  0.7816164E-02  0.1266605E+00
        -11   -1    0    0    0    0  0.00000000000E+00  0.00000000000E+00  0.45593999997E+02  0.45594000000E+02  0.51100000000E-03 0.  1.
         11   -1    0    0    0    0 -0.00000000000E+00 -0.00000000000E+00 -0.45593999997E+02  0.45594000000E+02  0.51100000000E-03 0. -1.
    9900012    2    1    2    0    0  0.47764110279E+01  0.89324307392E+01 -0.30234388246E+02  0.59301942642E+02  0.49999997473E+02 0.  0.
        -12    1    1    2    0    0 -0.47764110279E+01 -0.89324307392E+01  0.30234388246E+02  0.31886057358E+02  0.00000000000E+00 0.  1.
         11    1    3    3    0    0 -0.33499677056E+01  0.13659387146E+01 -0.13152268941E+02  0.13640756972E+02  0.51100000000E-03 0. -1.
        -11    1    3    3    0    0 -0.10217063508E+01 -0.89406894569E+01 -0.23944519335E+02  0.25579675883E+02  0.51100000000E-03 0.  1.
        -12    1    3    3    0    0  0.91480850843E+01  0.16507181482E+02  0.68624000300E+01  0.20081509788E+02  0.00000000000E+00 0.  1.
</event>
<event>
 7    1  0.6515090E-012  0.5930193E+02  0.7816164E-02  0.1266605E+00
        -11   -1    0    0    0    0  0.00000000000E+00  0.00000000000E+00  0.45593999997E+02  0.45594000000E+02  0.51100000000E-03 0. -1.
         11   -1    0    0    0    0 -0.00000000000E+00 -0.00000000000E+00 -0.45593999997E+02  0.45594000000E+02  0.51100000000E-03 0.  1.
    9900012    2    1    2    0    0 -0.16861425916E+00  0.31840463550E+02  0.16964775946E+01  0.59301928024E+02  0.49999970813E+02 0.  0.
        -12    1    1    2    0    0  0.16861425916E+00 -0.31840463550E+02 -0.16964775946E+01  0.31886071976E+02  0.00000000000E+00 0.  1.
         11    1    3    3    0    0 -0.23044951865E+01 -0.34459850393E+00 -0.24455831932E+01  0.33779170519E+01  0.51100000000E-03 0. -1.
        -11    1    3    3    0    0  0.11184478638E+02  0.27422066841E+01 -0.15561578711E+02  0.19359106181E+02  0.51100000000E-03 0.  1.
         12    1    3    3    0    0 -0.90485977105E+01  0.29442855370E+02  0.19703639499E+02  0.36564904791E+02  0.00000000000E+00 0. -1.
</event>
<event>
 7    1  0.6515090E-012  0.5930200E+02  0.7816164E-02  0.1266605E+00
        -11   -1    0    0    0    0  0.00000000000E+00  0.00000000000E+00  0.45593999997E+02  0.45594000000E+02  0.51100000000E-03 0.  1.
         11   -1    0    0    0    0 -0.00000000000E+00 -0.00000000000E+00 -0.45593999997E+02  0.45594000000E+02  0.51100000000E-03 0. -1.
    9900012    2    1    2    0    0  0.15216661941E+02 -0.17001371966E+02 -0.22273831570E+02  0.59301999590E+02  0.50000101332E+02 0.  0.
        -12    1    1    2    0    0 -0.15216661941E+02  0.17001371966E+02  0.22273831570E+02  0.31886000410E+02  0.00000000000E+00 0.  1.
         11    1    3    3    0    0  0.17229429639E+02 -0.15551591168E+02  0.39139869464E+00  0.23213324336E+02  0.51100000000E-03 0. -1.
        -11    1    3    3    0    0  0.64034225244E+01  0.10703226014E+02 -0.14763143172E+02  0.19326491241E+02  0.51100000000E-03 0.  1.
         12    1    3    3    0    0 -0.84161902224E+01 -0.12153006812E+02 -0.79020870926E+01  0.16762184012E+02  0.00000000000E+00 0. -1.
</event>
<event>
 7    1  0.6515090E-012  0.5930193E+02  0.7816164E-02  0.1266605E+00
        -11   -1    0    0    0    0  0.00000000000E+00  0.00000000000E+00  0.45593999997E+02  0.45594000000E+02  0.51100000000E-03 0.  1.
         11   -1    0    0    0    0 -0.00000000000E+00 -0.00000000000E+00 -0.45593999997E+02  0.45594000000E+02  0.51100000000E-03 0. -1.
    9900012    2    1    2    0    0  0.21708320059E+02  0.17858130084E+02 -0.15051816598E+02  0.59301934818E+02  0.49999983203E+02 0.  0.
        -12    1    1    2    0    0 -0.21708320059E+02 -0.17858130084E+02  0.15051816598E+02  0.31886065182E+02  0.00000000000E+00 0.  1.
         11    1    3    3    0    0  0.25376452941E+02  0.94060829473E+01 -0.32219197024E+01  0.27254715686E+02  0.51100000000E-03 0. -1.
        -11    1    3    3    0    0  0.50041719214E+01  0.18424648142E+01  0.78843762397E+01  0.95183928349E+01  0.51100000000E-03 0.  1.
         12    1    3    3    0    0 -0.86723048029E+01  0.66095823224E+01 -0.19714273135E+02  0.22528826297E+02  0.00000000000E+00 0. -1.
</event>
<event>
 7    1  0.6515090E-012  0.5930200E+02  0.7816164E-02  0.1266605E+00
        -11   -1    0    0    0    0  0.00000000000E+00  0.00000000000E+00  0.45593999997E+02  0.45594000000E+02  0.51100000000E-03 0. -1.
         11   -1    0    0    0    0 -0.00000000000E+00 -0.00000000000E+00 -0.45593999997E+02  0.45594000000E+02  0.51100000000E-03 0.  1.
    9900012    2    1    2    0    0 -0.40595466890E+01  0.31459383959E+02  0.32471506813E+01  0.59302003921E+02  0.50000109231E+02 0.  0.
        -12    1    1    2    0    0  0.40595466890E+01 -0.31459383959E+02 -0.32471506813E+01  0.31885996079E+02  0.00000000000E+00 0.  1.
         11    1    3    3    0    0 -0.70351705906E+01 -0.63626377253E+01  0.16951931884E+01  0.96358945754E+01  0.51100000000E-03 0. -1.
        -11    1    3    3    0    0  0.58858547388E+01 -0.34657499074E+01  0.44863224598E+01  0.81720130874E+01  0.51100000000E-03 0.  1.
        -12    1    3    3    0    0 -0.29102308372E+01  0.41287771592E+02 -0.29343649670E+01  0.41494096258E+02  0.00000000000E+00 0.  1.
</event>
<event>
 7    1  0.6515090E-012  0.5930193E+02  0.7816164E-02  0.1266605E+00
        -11   -1    0    0    0    0  0.00000000000E+00  0.00000000000E+00  0.45593999997E+02  0.45594000000E+02  0.51100000000E-03 0.  1.
         11   -1    0    0    0    0 -0.00000000000E+00 -0.00000000000E+00 -0.45593999997E+02  0.45594000000E+02  0.51100000000E-03 0. -1.
    9900012    2    1    2    0    0 -0.13764865668E+02  0.17239235010E+02 -0.23023000048E+02  0.59301932795E+02  0.49999979514E+02 0.  0.
        -12    1    1    2    0    0  0.13764865668E+02 -0.17239235010E+02  0.23023000048E+02  0.31886067205E+02  0.00000000000E+00 0.  1.
         11    1    3    3    0    0  0.85750283997E+01 -0.85834761895E+01 -0.15412897583E+02  0.19615417093E+02  0.51100000000E-03 0. -1.
        -11    1    3    3    0    0 -0.12090199157E+02  0.10591382964E+01 -0.28403670518E+01  0.12464444425E+02  0.51100000000E-03 0.  1.
        -12    1    3    3    0    0 -0.10249694911E+02  0.24763572903E+02 -0.47697354128E+01  0.27222071277E+02  0.00000000000E+00 0.  1.
</event>
<event>
 7    1  0.6515090E-012  0.5930167E+02  0.7816164E-02  0.1266606E+00
        -11   -1    0    0    0    0  0.00000000000E+00  0.00000000000E+00  0.45593999997E+02  0.45594000000E+02  0.51100000000E-03 0. -1.
         11   -1    0    0    0    0 -0.00000000000E+00 -0.00000000000E+00 -0.45593999997E+02  0.45594000000E+02  0.51100000000E-03 0.  1.
    9900012    2    1    2    0    0 -0.98315837053E+01 -0.20896856482E+02  0.21986349654E+02  0.59301667189E+02  0.49999495111E+02 0.  0.
        -12    1    1    2    0    0  0.98315837053E+01  0.20896856482E+02 -0.21986349654E+02  0.31886332811E+02  0.00000000000E+00 0.  1.
         11    1    3    3    0    0  0.48970262045E+01  0.32140520833E+01 -0.10945517740E+02  0.12414320573E+02  0.51100000000E-03 0. -1.
        -11    1    3    3    0    0 -0.10567285728E+01  0.49549571372E+00 -0.18218070361E+01  0.21636017233E+01  0.51100000000E-03 0.  1.
         12    1    3    3    0    0 -0.13671881337E+02 -0.24606404279E+02  0.34753674430E+02  0.44723744893E+02  0.00000000000E+00 0. -1.
</event>
<event>
 7    1  0.6515090E-012  0.5930192E+02  0.7816164E-02  0.1266605E+00
        -11   -1    0    0    0    0  0.00000000000E+00  0.00000000000E+00  0.45593999997E+02  0.45594000000E+02  0.51100000000E-03 0. -1.
         11   -1    0    0    0    0 -0.00000000000E+00 -0.00000000000E+00 -0.45593999997E+02  0.45594000000E+02  0.51100000000E-03 0.  1.
    9900012    2    1    2    0    0 -0.31545422468E+02  0.23517251459E+01  0.40097396724E+01  0.59301916796E+02  0.49999950335E+02 0.  0.
        -12    1    1    2    0    0  0.31545422468E+02 -0.23517251459E+01 -0.40097396724E+01  0.31886083204E+02  0.00000000000E+00 0.  1.
         11    1    3    3    0    0  0.60896722486E+01  0.42976299439E+01 -0.20586272260E+01  0.77325078433E+01  0.51100000000E-03 0. -1.
        -11    1    3    3    0    0 -0.10175206010E+02 -0.13493663544E+01 -0.14137972796E+02  0.17471058409E+02  0.51100000000E-03 0.  1.
        -12    1    3    3    0    0 -0.27459888707E+02 -0.59653844357E+00  0.20206339694E+02  0.34098350543E+02  0.00000000000E+00 0.  1.
</event>
<event>
 7    1  0.6515090E-012  0.5930194E+02  0.7816164E-02  0.1266605E+00
        -11   -1    0    0    0    0  0.00000000000E+00  0.00000000000E+00  0.45593999997E+02  0.45594000000E+02  0.51100000000E-03 0.  1.
         11   -1    0    0    0    0 -0.00000000000E+00 -0.00000000000E+00 -0.45593999997E+02  0.45594000000E+02  0.51100000000E-03 0. -1.
    9900012    2    1    2    0    0 -0.29123599234E+02  0.12834615309E+02 -0.19517503136E+01  0.59301941734E+02  0.49999995817E+02 0.  0.
        -12    1    1    2    0    0  0.29123599234E+02 -0.12834615309E+02  0.19517503136E+01  0.31886058266E+02  0.00000000000E+00 0.  1.
         11    1    3    3    0    0  0.66369853408E+01  0.13324176455E+01  0.26665813468E+01  0.72756833037E+01  0.51100000000E-03 0.  1.
        -11    1    3    3    0    0  0.23522482230E+01  0.12873085537E+02 -0.46527776085E+01  0.13888763180E+02  0.51100000000E-03 0. -1.
         12    1    3    3    0    0 -0.38112832797E+02 -0.13708878733E+01  0.34445948184E-01  0.38137495250E+02  0.00000000000E+00 0. -1.
</event>
<event>
 7    1  0.6515090E-012  0.5930198E+02  0.7816164E-02  0.1266605E+00
        -11   -1    0    0    0    0  0.00000000000E+00  0.00000000000E+00  0.45593999997E+02  0.45594000000E+02  0.51100000000E-03 0. -1.
         11   -1    0    0    0    0 -0.00000000000E+00 -0.00000000000E+00 -0.45593999997E+02  0.45594000000E+02  0.51100000000E-03 0.  1.
    9900012    2    1    2    0    0 -0.21031131270E+02 -0.18127332788E+02  0.15678307902E+02  0.59301984018E+02  0.50000072933E+02 0.  0.
        -12    1    1    2    0    0  0.21031131270E+02  0.18127332788E+02 -0.15678307902E+02  0.31886015982E+02  0.00000000000E+00 0.  1.
         11    1    3    3    0    0 -0.12195243254E+02 -0.32528775750E+01  0.62484031773E+01  0.14083597305E+02  0.51100000000E-03 0. -1.
        -11    1    3    3    0    0 -0.24045676568E+02 -0.49525793240E+01 -0.43052046962E+00  0.24554183996E+02  0.51100000000E-03 0.  1.
         12    1    3    3    0    0  0.15209788551E+02 -0.99218758893E+01  0.98604251943E+01  0.20664202718E+02  0.00000000000E+00 0. -1.
</event>
<event>
 7    1  0.6515090E-012  0.5930196E+02  0.7816164E-02  0.1266605E+00
        -11   -1    0    0    0    0  0.00000000000E+00  0.00000000000E+00  0.45593999997E+02  0.45594000000E+02  0.51100000000E-03 0.  1.
         11   -1    0    0    0    0 -0.00000000000E+00 -0.00000000000E+00 -0.45593999997E+02  0.45594000000E+02  0.51100000000E-03 0. -1.
    9900012    2    1    2    0    0 -0.30734043902E+02  0.84877735149E+01  0.30955890200E+00  0.59301959472E+02  0.50000028168E+02 0.  0.
        -12    1    1    2    0    0  0.30734043902E+02 -0.84877735149E+01 -0.30955890200E+00  0.31886040528E+02  0.00000000000E+00 0.  1.
         11    1    3    3    0    0 -0.10625480749E+02  0.81064957515E+01 -0.88716987033E+01  0.16041295230E+02  0.51100000000E-03 0. -1.
        -11    1    3    3    0    0 -0.12887512741E+02 -0.17702749063E+02  0.40195423480E+00  0.21900613611E+02  0.51100000000E-03 0.  1.
         12    1    3    3    0    0 -0.72210504122E+01  0.18084026827E+02  0.87793033705E+01  0.21360050632E+02  0.00000000000E+00 0. -1.
</event>
<event>
 7    1  0.6515090E-012  0.5930193E+02  0.7816164E-02  0.1266605E+00
        -11   -1    0    0    0    0  0.00000000000E+00  0.00000000000E+00  0.45593999997E+02  0.45594000000E+02  0.51100000000E-03 0. -1.
         11   -1    0    0    0    0 -0.00000000000E+00 -0.00000000000E+00 -0.45593999997E+02  0.45594000000E+02  0.51100000000E-03 0.  1.
    9900012    2    1    2    0    0  0.32351410605E+01  0.18154252217E+02  0.26013042074E+02  0.59301931424E+02  0.49999977014E+02 0.  0.
        -12    1    1    2    0    0 -0.32351410605E+01 -0.18154252217E+02 -0.26013042074E+02  0.31886068576E+02  0.00000000000E+00 0.  1.
         11    1    3    3    0    0 -0.17060794808E+02  0.71422387496E+01 -0.41035496735E+01  0.18945221403E+02  0.51100000000E-03 0. -1.
        -11    1    3    3    0    0 -0.10071033089E+01  0.13169398705E+01 -0.57871316540E+00  0.17559888628E+01  0.51100000000E-03 0.  1.
         12    1    3    3    0    0  0.21303039177E+02  0.96950735972E+01  0.30695304913E+02  0.38600721158E+02  0.00000000000E+00 0. -1.
</event>
<event>
 7    1  0.6515090E-012  0.5930192E+02  0.7816164E-02  0.1266605E+00
        -11   -1    0    0    0    0  0.00000000000E+00  0.00000000000E+00  0.45593999997E+02  0.45594000000E+02  0.51100000000E-03 0.  1.
         11   -1    0    0    0    0 -0.00000000000E+00 -0.00000000000E+00 -0.45593999997E+02  0.45594000000E+02  0.51100000000E-03 0. -1.
    9900012    2    1    2    0    0 -0.31163015074E+02  0.20580479494E+01  0.64306164962E+01  0.59301923126E+02  0.49999961881E+02 0.  0.
        -12    1    1    2    0    0  0.31163015074E+02 -0.20580479494E+01 -0.64306164962E+01  0.31886076874E+02  0.00000000000E+00 0.  1.
         11    1    3    3    0    0 -0.36002365471E+02  0.22490873374E+01  0.55296574856E+01  0.36493914911E+02  0.51100000000E-03 0. -1.
        -11    1    3    3    0    0 -0.21032735961E+01 -0.25124434684E+01 -0.95226719113E+01  0.10070621262E+02  0.51100000000E-03 0.  1.
        -12    1    3    3    0    0  0.69426239931E+01  0.23214040805E+01  0.10423630922E+02  0.12737386954E+02  0.00000000000E+00 0.  1.
</event>
<event>
 7    1  0.6515090E-012  0.5930195E+02  0.7816164E-02  0.1266605E+00
        -11   -1    0    0    0    0  0.00000000000E+00  0.00000000000E+00  0.45593999997E+02  0.45594000000E+02  0.51100000000E-03 0. -1.
         11   -1    0    0    0    0 -0.00000000000E+00 -0.00000000000E+00 -0.45593999997E+02  0.45594000000E+02  0.51100000000E-03 0.  1.
    9900012    2    1    2    0    0  0.10735296151E+02 -0.28294315314E+02 -0.10045177531E+02  0.59301945773E+02  0.50000003183E+02 0.  0.
        -12    1    1    2    0    0 -0.10735296151E+02  0.28294315314E+02  0.10045177531E+02  0.31886054227E+02  0.00000000000E+00 0.  1.
         11    1    3    3    0    0 -0.46932673500E+01 -0.93499049870E+01  0.40742974804E+00  0.10469645693E+02  0.51100000000E-03 0. -1.
        -11    1    3    3    0    0 -0.11165877664E+02 -0.16240470175E+00 -0.11800040391E+02  0.16246358139E+02  0.51100000000E-03 0.  1.
        -12    1    3    3    0    0  0.26594441164E+02 -0.18782005625E+02  0.13474331119E+01  0.32585941941E+02  0.00000000000E+00 0.  1.
</event>
<event>
 7    1  0.6515090E-012  0.5930198E+02  0.7816164E-02  0.1266605E+00
        -11   -1    0    0    0    0  0.00000000000E+00  0.00000000000E+00  0.45593999997E+02  0.45594000000E+02  0.51100000000E-03 0.  1.
         11   -1    0    0    0    0 -0.00000000000E+00 -0.00000000000E+00 -0.45593999997E+02  0.45594000000E+02  0.51100000000E-03 0. -1.
    9900012    2    1    2    0    0 -0.58231289576E+01  0.43921927819E+01 -0.31040591655E+02  0.59301976124E+02  0.50000058537E+02 0.  0.
        -12    1    1    2    0    0  0.58231289576E+01 -0.43921927819E+01  0.31040591655E+02  0.31886023876E+02  0.00000000000E+00 0.  1.
         11    1    3    3    0    0  0.70621588597E+01 -0.10619075880E+01 -0.15914890148E+02  0.17443780100E+02  0.51100000000E-03 0. -1.
        -11    1    3    3    0    0  0.48298238678E+01 -0.12567219982E+02 -0.77444364767E+01  0.15531854792E+02  0.51100000000E-03 0.  1.
        -12    1    3    3    0    0 -0.17715111685E+02  0.18021320352E+02 -0.73812650301E+01  0.26326341233E+02  0.00000000000E+00 0.  1.
</event>
<event>
 7    1  0.6515090E-012  0.5930194E+02  0.7816164E-02  0.1266605E+00
        -11   -1    0    0    0    0  0.00000000000E+00  0.00000000000E+00  0.45593999997E+02  0.45594000000E+02  0.51100000000E-03 0.  1.
         11   -1    0    0    0    0 -0.00000000000E+00 -0.00000000000E+00 -0.45593999997E+02  0.45594000000E+02  0.51100000000E-03 0. -1.
    9900012    2    1    2    0    0  0.18103246092E+02  0.23048160766E+02 -0.12560864799E+02  0.59301944141E+02  0.50000000206E+02 0.  0.
        -12    1    1    2    0    0 -0.18103246092E+02 -0.23048160766E+02  0.12560864799E+02  0.31886055859E+02  0.00000000000E+00 0.  1.
         11    1    3    3    0    0  0.11471216556E+02  0.94278057325E+01 -0.93882761570E+01  0.17567357788E+02  0.51100000000E-03 0. -1.
        -11    1    3    3    0    0  0.10878350990E+02  0.18557321934E+02 -0.16361196334E+02  0.27025940564E+02  0.51100000000E-03 0.  1.
        -12    1    3    3    0    0 -0.42463214546E+01 -0.49369669004E+01  0.13188607692E+02  0.14708645788E+02  0.00000000000E+00 0.  1.
</event>
<event>
 7    1  0.6515090E-012  0.5930192E+02  0.7816164E-02  0.1266605E+00
        -11   -1    0    0    0    0  0.00000000000E+00  0.00000000000E+00  0.45593999997E+02  0.45594000000E+02  0.51100000000E-03 0.  1.
         11   -1    0    0    0    0 -0.00000000000E+00 -0.00000000000E+00 -0.45593999997E+02  0.45594000000E+02  0.51100000000E-03 0. -1.
    9900012    2    1    2    0    0 -0.27844648123E+02 -0.98577845328E+01 -0.12009232093E+02  0.59301921526E+02  0.49999958962E+02 0.  0.
        -12    1    1    2    0    0  0.27844648123E+02  0.98577845328E+01  0.12009232093E+02  0.31886078474E+02  0.00000000000E+00 0.  1.
         11    1    3    3    0    0 -0.10519071488E+01  0.59862959092E+01  0.69510937650E+01  0.92336315799E+01  0.51100000000E-03 0. -1.
        -11    1    3    3    0    0  0.56365650169E+01 -0.59004795081E+01  0.40206614221E+01  0.90968259381E+01  0.51100000000E-03 0.  1.
         12    1    3    3    0    0 -0.32429305991E+02 -0.99436009339E+01 -0.22980987281E+02  0.40971464008E+02  0.00000000000E+00 0. -1.
</event>
<event>
 7    1  0.6515090E-012  0.5930194E+02  0.7816164E-02  0.1266605E+00
        -11   -1    0    0    0    0  0.00000000000E+00  0.00000000000E+00  0.45593999997E+02  0.45594000000E+02  0.51100000000E-03 0.  1.
         11   -1    0    0    0    0 -0.00000000000E+00 -0.00000000000E+00 -0.45593999997E+02  0.45594000000E+02  0.51100000000E-03 0. -1.
    9900012    2    1    2    0    0  0.38271932864E+00 -0.16443303444E+02 -0.27316517656E+02  0.59301939737E+02  0.49999992175E+02 0.  0.
        -12    1    1    2    0    0 -0.38271932864E+00  0.16443303444E+02  0.27316517656E+02  0.31886060263E+02  0.00000000000E+00 0.  1.
         11    1    3    3    0    0  0.26181748246E+01 -0.63156294550E+01 -0.30236932428E+02  0.31000227382E+02  0.51100000000E-03 0. -1.
        -11    1    3    3    0    0  0.10385719326E+02 -0.11452203234E+02  0.16027002217E+01  0.15542997558E+02  0.51100000000E-03 0.  1.
        -12    1    3    3    0    0 -0.12621174822E+02  0.13245292454E+01  0.13177145506E+01  0.12758714796E+02  0.00000000000E+00 0.  1.
</event>
<event>
 7    1  0.6515090E-012  0.5930187E+02  0.7816164E-02  0.1266605E+00
        -11   -1    0    0    0    0  0.00000000000E+00  0.00000000000E+00  0.45593999997E+02  0.45594000000E+02  0.51100000000E-03 0.  1.
         11   -1    0    0    0    0 -0.00000000000E+00 -0.00000000000E+00 -0.45593999997E+02  0.45594000000E+02  0.51100000000E-03 0. -1.
    9900012    2    1    2    0    0 -0.13554154332E+02  0.91594699293E+01 -0.27369950457E+02  0.59301871714E+02  0.49999868118E+02 0.  0.
        -12    1    1    2    0    0  0.13554154332E+02 -0.91594699293E+01  0.27369950457E+02  0.31886128286E+02  0.00000000000E+00 0.  1.
         11    1    3    3    0    0 -0.88788489803E+01  0.81875374056E+01 -0.26910420012E+02  0.29496447811E+02  0.51100000000E-03 0. -1.
        -11    1    3    3    0    0 -0.10856739112E+02 -0.49034008917E+01 -0.11022261143E+02  0.16229675456E+02  0.51100000000E-03 0.  1.
         12    1    3    3    0    0  0.61814337601E+01  0.58753334154E+01  0.10562730699E+02  0.13575748447E+02  0.00000000000E+00 0. -1.
</event>
<event>
 7    1  0.6515090E-012  0.5930196E+02  0.7816164E-02  0.1266605E+00
        -11   -1    0    0    0    0  0.00000000000E+00  0.00000000000E+00  0.45593999997E+02  0.45594000000E+02  0.51100000000E-03 0. -1.
         11   -1    0    0    0    0 -0.00000000000E+00 -0.00000000000E+00 -0.45593999997E+02  0.45594000000E+02  0.51100000000E-03 0.  1.
    9900012    2    1    2    0    0 -0.30799860543E+02 -0.50292615420E+01 -0.65417506304E+01  0.59301962579E+02  0.50000033832E+02 0.  0.
        -12    1    1    2    0    0  0.30799860543E+02  0.50292615420E+01  0.65417506304E+01  0.31886037421E+02  0.00000000000E+00 0.  1.
         11    1    3    3    0    0 -0.33346787823E+02 -0.66924260777E+01  0.51811861361E+01  0.34404091544E+02  0.51100000000E-03 0. -1.
        -11    1    3    3    0    0 -0.36289977353E+01 -0.24227080691E+01 -0.15836673977E+02  0.16426788543E+02  0.51100000000E-03 0.  1.
        -12    1    3    3    0    0  0.61759250155E+01  0.40858726048E+01  0.41137372100E+01  0.84710824912E+01  0.00000000000E+00 0.  1.
</event>
<event>
 7    1  0.6515090E-012  0.5930196E+02  0.7816164E-02  0.1266605E+00
        -11   -1    0    0    0    0  0.00000000000E+00  0.00000000000E+00  0.45593999997E+02  0.45594000000E+02  0.51100000000E-03 0. -1.
         11   -1    0    0    0    0 -0.00000000000E+00 -0.00000000000E+00 -0.45593999997E+02  0.45594000000E+02  0.51100000000E-03 0.  1.
    9900012    2    1    2    0    0  0.26704684972E+02 -0.15859263278E+02  0.72154815858E+01  0.59301959078E+02  0.50000027448E+02 0.  0.
        -12    1    1    2    0    0 -0.26704684972E+02  0.15859263278E+02 -0.72154815858E+01  0.31886040922E+02  0.00000000000E+00 0.  1.
         11    1    3    3    0    0  0.39286620972E+01  0.72074935772E+00  0.62958465983E+01  0.74559741255E+01  0.51100000000E-03 0. -1.
        -11    1    3    3    0    0 -0.13143872440E+02 -0.36186682509E+01 -0.36073787353E+00  0.13637678494E+02  0.51100000000E-03 0.  1.
         12    1    3    3    0    0  0.35919895315E+02 -0.12961344385E+02  0.12803728610E+01  0.38208306458E+02  0.00000000000E+00 0. -1.
</event>
<event>
 7    1  0.6515090E-012  0.5930196E+02  0.7816164E-02  0.1266605E+00
        -11   -1    0    0    0    0  0.00000000000E+00  0.00000000000E+00  0.45593999997E+02  0.45594000000E+02  0.51100000000E-03 0. -1.
         11   -1    0    0    0    0 -0.00000000000E+00 -0.00000000000E+00 -0.45593999997E+02  0.45594000000E+02  0.51100000000E-03 0.  1.
    9900012    2    1    2    0    0  0.13992471323E+02  0.21902039667E+02  0.18472437333E+02  0.59301960166E+02  0.50000029432E+02 0.  0.
        -12    1    1    2    0    0 -0.13992471323E+02 -0.21902039667E+02 -0.18472437333E+02  0.31886039834E+02  0.00000000000E+00 0.  1.
         11    1    3    3    0    0  0.73440182315E+01  0.12849998106E+02  0.12872021917E+02  0.19614943375E+02  0.51100000000E-03 0. -1.
        -11    1    3    3    0    0 -0.41104350487E+01 -0.80564667448E+00  0.19253383062E+02  0.19703743362E+02  0.51100000000E-03 0.  1.
         12    1    3    3    0    0  0.10758888140E+02  0.98576882354E+01 -0.13652967647E+02  0.19983273429E+02  0.00000000000E+00 0. -1.
</event>
<event>
 7    1  0.6515090E-012  0.5930190E+02  0.7816164E-02  0.1266605E+00
        -11   -1    0    0    0    0  0.00000000000E+00  0.00000000000E+00  0.45593999997E+02  0.45594000000E+02  0.51100000000E-03 0.  1.
         11   -1    0    0    0    0 -0.00000000000E+00 -0.00000000000E+00 -0.45593999997E+02  0.45594000000E+02  0.51100000000E-03 0. -1.
    9900012    2    1    2    0    0  0.37368200889E+01  0.18114778195E+02 -0.25973335462E+02  0.59301903210E+02  0.49999925559E+02 0.  0.
        -12    1    1    2    0    0 -0.37368200889E+01 -0.18114778195E+02  0.25973335462E+02  0.31886096790E+02  0.00000000000E+00 0.  1.
         11    1    3    3    0    0  0.13397437650E+02  0.21601508072E+02 -0.89243088894E+01  0.26939929027E+02  0.51100000000E-03 0. -1.
        -11    1    3    3    0    0 -0.71297762488E+01  0.99800084227E+01 -0.13433594841E+02  0.18190540072E+02  0.51100000000E-03 0.  1.
        -12    1    3    3    0    0 -0.25308413121E+01 -0.13466738300E+02 -0.36154317317E+01  0.14171434112E+02  0.00000000000E+00 0.  1.
</event>
<event>
 7    1  0.6515090E-012  0.5930199E+02  0.7816164E-02  0.1266605E+00
        -11   -1    0    0    0    0  0.00000000000E+00  0.00000000000E+00  0.45593999997E+02  0.45594000000E+02  0.51100000000E-03 0.  1.
         11   -1    0    0    0    0 -0.00000000000E+00 -0.00000000000E+00 -0.45593999997E+02  0.45594000000E+02  0.51100000000E-03 0. -1.
    9900012    2    1    2    0    0  0.23945219120E+02 -0.20256340675E+02 -0.57467089104E+01  0.59301991790E+02  0.50000087107E+02 0.  0.
        -12    1    1    2    0    0 -0.23945219120E+02  0.20256340675E+02  0.57467089104E+01  0.31886008210E+02  0.00000000000E+00 0.  1.
         11    1    3    3    0    0  0.47370788139E+01 -0.22570740604E+02  0.69807512994E+01  0.24095832338E+02  0.51100000000E-03 0. -1.
        -11    1    3    3    0    0  0.15532947359E+01 -0.10605548880E+02 -0.22633496832E+01  0.10955051056E+02  0.51100000000E-03 0.  1.
        -12    1    3    3    0    0  0.17654845570E+02  0.12919948808E+02 -0.10464110527E+02  0.24251108396E+02  0.00000000000E+00 0.  1.
</event>
<event>
 7    1  0.6515090E-012  0.5930193E+02  0.7816164E-02  0.1266605E+00
        -11   -1    0    0    0    0  0.00000000000E+00  0.00000000000E+00  0.45593999997E+02  0.45594000000E+02  0.51100000000E-03 0.  1.
         11   -1    0    0    0    0 -0.00000000000E+00 -0.00000000000E+00 -0.45593999997E+02  0.45594000000E+02  0.51100000000E-03 0. -1.
    9900012    2    1    2    0    0  0.12344867990E+02  0.29247303405E+02  0.29868110199E+01  0.59301928398E+02  0.49999971495E+02 0.  0.
        -12    1    1    2    0    0 -0.12344867990E+02 -0.29247303405E+02 -0.29868110199E+01  0.31886071602E+02  0.00000000000E+00 0.  1.
         11    1    3    3    0    0  0.12321941840E+02 -0.13815050091E+00 -0.77846045123E+01  0.14575644203E+02  0.51100000000E-03 0. -1.
        -11    1    3    3    0    0  0.13746996084E+02  0.16351838248E+02 -0.26461885621E+01  0.21525910656E+02  0.51100000000E-03 0.  1.
        -12    1    3    3    0    0 -0.13724069935E+02  0.13033615658E+02  0.13417604094E+02  0.23200373538E+02  0.00000000000E+00 0.  1.
</event>
<event>
 7    1  0.6515090E-012  0.5930197E+02  0.7816164E-02  0.1266605E+00
        -11   -1    0    0    0    0  0.00000000000E+00  0.00000000000E+00  0.45593999997E+02  0.45594000000E+02  0.51100000000E-03 0. -1.
         11   -1    0    0    0    0 -0.00000000000E+00 -0.00000000000E+00 -0.45593999997E+02  0.45594000000E+02  0.51100000000E-03 0.  1.
    9900012    2    1    2    0    0  0.17631236620E+02 -0.23508911209E+02 -0.12376977217E+02  0.59301968952E+02  0.50000045456E+02 0.  0.
        -12    1    1    2    0    0 -0.17631236620E+02  0.23508911209E+02  0.12376977217E+02  0.31886031048E+02  0.00000000000E+00 0.  1.
         11    1    3    3    0    0  0.15666176679E+02 -0.92835456396E+01 -0.53675594573E+01  0.18984836216E+02  0.51100000000E-03 0. -1.
        -11    1    3    3    0    0  0.11605971587E+02  0.32224231942E+01  0.87650035476E+01  0.14896572598E+02  0.51100000000E-03 0.  1.
        -12    1    3    3    0    0 -0.96409116463E+01 -0.17447788764E+02 -0.15774421307E+02  0.25420560137E+02  0.00000000000E+00 0.  1.
</event>
<event>
 7    1  0.6515090E-012  0.5930194E+02  0.7816164E-02  0.1266605E+00
        -11   -1    0    0    0    0  0.00000000000E+00  0.00000000000E+00  0.45593999997E+02  0.45594000000E+02  0.51100000000E-03 0.  1.
         11   -1    0    0    0    0 -0.00000000000E+00 -0.00000000000E+00 -0.45593999997E+02  0.45594000000E+02  0.51100000000E-03 0. -1.
    9900012    2    1    2    0    0  0.31248830826E+02  0.57055192914E+01 -0.27710323587E+01  0.59301937234E+02  0.49999987609E+02 0.  0.
        -12    1    1    2    0    0 -0.31248830826E+02 -0.57055192914E+01  0.27710323587E+01  0.31886062766E+02  0.00000000000E+00 0.  1.
         11    1    3    3    0    0  0.68864887192E+01  0.17766387233E+02 -0.68383362973E+01  0.20244285262E+02  0.51100000000E-03 0. -1.
        -11    1    3    3    0    0  0.25249525554E+02 -0.31736928711E+01 -0.54293808273E+01  0.26020934718E+02  0.51100000000E-03 0.  1.
        -12    1    3    3    0    0 -0.88718344681E+00 -0.88871750710E+01  0.94966847660E+01  0.13036717254E+02  0.00000000000E+00 0.  1.
</event>
<event>
 7    1  0.6515090E-012  0.5930198E+02  0.7816164E-02  0.1266605E+00
        -11   -1    0    0    0    0  0.00000000000E+00  0.00000000000E+00  0.45593999997E+02  0.45594000000E+02  0.51100000000E-03 0. -1.
         11   -1    0    0    0    0 -0.00000000000E+00 -0.00000000000E+00 -0.45593999997E+02  0.45594000000E+02  0.51100000000E-03 0.  1.
    9900012    2    1    2    0    0  0.45617968819E+01 -0.73084592489E+01  0.30700081027E+02  0.59301975750E+02  0.50000057854E+02 0.  0.
        -12    1    1    2    0    0 -0.45617968819E+01  0.73084592489E+01 -0.30700081027E+02  0.31886024250E+02  0.00000000000E+00 0.  1.
         11    1    3    3    0    0 -0.70761458049E+01 -0.44863486802E+00  0.19327101418E+01  0.73490462953E+01  0.51100000000E-03 0. -1.
        -11    1    3    3    0    0 -0.12610247734E+02  0.72894065849E+01  0.57890971403E+01  0.15673782002E+02  0.51100000000E-03 0.  1.
         12    1    3    3    0    0  0.24248190421E+02 -0.14149230966E+02  0.22978273745E+02  0.36279147453E+02  0.00000000000E+00 0. -1.
</event>
<event>
 7    1  0.6515090E-012  0.5930195E+02  0.7816164E-02  0.1266605E+00
        -11   -1    0    0    0    0  0.00000000000E+00  0.00000000000E+00  0.45593999997E+02  0.45594000000E+02  0.51100000000E-03 0. -1.
         11   -1    0    0    0    0 -0.00000000000E+00 -0.00000000000E+00 -0.45593999997E+02  0.45594000000E+02  0.51100000000E-03 0.  1.
    9900012    2    1    2    0    0  0.61889731609E+01  0.30783748249E+02  0.55477748284E+01  0.59301947397E+02  0.50000006145E+02 0.  0.
        -12    1    1    2    0    0 -0.61889731609E+01 -0.30783748249E+02 -0.55477748284E+01  0.31886052603E+02  0.00000000000E+00 0.  1.
         11    1    3    3    0    0  0.31712372915E+01  0.95033484526E+01  0.12365895765E+02  0.15914953852E+02  0.51100000000E-03 0. -1.
        -11    1    3    3    0    0  0.19871674438E+02  0.11473290606E+02 -0.72457426507E+00  0.22957457403E+02  0.51100000000E-03 0.  1.
         12    1    3    3    0    0 -0.16853938569E+02  0.98071091902E+01 -0.60935466714E+01  0.20429536142E+02  0.00000000000E+00 0. -1.
</event>
<event>
 7    1  0.6515090E-012  0.5930189E+02  0.7816164E-02  0.1266605E+00
        -11   -1    0    0    0    0  0.00000000000E+00  0.00000000000E+00  0.45593999997E+02  0.45594000000E+02  0.51100000000E-03 0. -1.
         11   -1    0    0    0    0 -0.00000000000E+00 -0.00000000000E+00 -0.45593999997E+02  0.45594000000E+02  0.51100000000E-03 0.  1.
    9900012    2    1    2    0    0 -0.27868837822E+02  0.10041553641E+02 -0.11799110898E+02  0.59301891127E+02  0.49999903522E+02 0.  0.
        -12    1    1    2    0    0  0.27868837822E+02 -0.10041553641E+02  0.11799110898E+02  0.31886108873E+02  0.00000000000E+00 0.  1.
         11    1    3    3    0    0  0.63881266987E+01  0.47406542275E+01  0.42458826406E+01  0.90171772125E+01  0.51100000000E-03 0. -1.
        -11    1    3    3    0    0 -0.26741048526E+02 -0.10662200256E+02 -0.15354856512E+02  0.32627255620E+02  0.51100000000E-03 0.  1.
         12    1    3    3    0    0 -0.75159159949E+01  0.15963099670E+02 -0.69013702715E+00  0.17657458294E+02  0.00000000000E+00 0. -1.
</event>
<event>
 7    1  0.6515090E-012  0.5930195E+02  0.7816164E-02  0.1266605E+00
        -11   -1    0    0    0    0  0.00000000000E+00  0.00000000000E+00  0.45593999997E+02  0.45594000000E+02  0.51100000000E-03 0.  1.
         11   -1    0    0    0    0 -0.00000000000E+00 -0.00000000000E+00 -0.45593999997E+02  0.45594000000E+02  0.51100000000E-03 0. -1.
    9900012    2    1    2    0    0 -0.14749853333E+01 -0.26250047779E+02 -0.18041059293E+02  0.59301946457E+02  0.50000004430E+02 0.  0.
        -12    1    1    2    0    0  0.14749853333E+01  0.26250047779E+02  0.18041059293E+02  0.31886053543E+02  0.00000000000E+00 0.  1.
         11    1    3    3    0    0  0.21369652300E+01  0.48006688594E+01  0.70986088271E+01  0.88319470919E+01  0.51100000000E-03 0. -1.
        -11    1    3    3    0    0 -0.48723803100E+01 -0.75095513556E+01  0.64642957291E+01  0.11041764849E+02  0.51100000000E-03 0.  1.
         12    1    3    3    0    0  0.12604297468E+01 -0.23541165283E+02 -0.31603963849E+02  0.39428234516E+02  0.00000000000E+00 0. -1.
</event>
<event>
 7    1  0.6515090E-012  0.5930196E+02  0.7816164E-02  0.1266605E+00
        -11   -1    0    0    0    0  0.00000000000E+00  0.00000000000E+00  0.45593999997E+02  0.45594000000E+02  0.51100000000E-03 0. -1.
         11   -1    0    0    0    0 -0.00000000000E+00 -0.00000000000E+00 -0.45593999997E+02  0.45594000000E+02  0.51100000000E-03 0.  1.
    9900012    2    1    2    0    0 -0.89647500112E+01 -0.29912276709E+02  0.64504582405E+01  0.59301961485E+02  0.50000031838E+02 0.  0.
        -12    1    1    2    0    0  0.89647500112E+01  0.29912276709E+02 -0.64504582405E+01  0.31886038515E+02  0.00000000000E+00 0.  1.
         11    1    3    3    0    0 -0.60501696202E+00 -0.19536099253E+01  0.16294221558E+02  0.16422067279E+02  0.51100000000E-03 0. -1.
        -11    1    3    3    0    0 -0.19507334809E+02 -0.16382246618E+02 -0.40361136297E+01  0.25791555383E+02  0.51100000000E-03 0.  1.
        -12    1    3    3    0    0  0.11147601760E+02 -0.11576420165E+02 -0.58076496879E+01  0.17088338823E+02  0.00000000000E+00 0.  1.
</event>
<event>
 7    1  0.6515090E-012  0.5930195E+02  0.7816164E-02  0.1266605E+00
        -11   -1    0    0    0    0  0.00000000000E+00  0.00000000000E+00  0.45593999997E+02  0.45594000000E+02  0.51100000000E-03 0. -1.
         11   -1    0    0    0    0 -0.00000000000E+00 -0.00000000000E+00 -0.45593999997E+02  0.45594000000E+02  0.51100000000E-03 0.  1.
    9900012    2    1    2    0    0  0.31544741825E+02  0.26830873031E+01  0.38013686932E+01  0.59301951354E+02  0.50000013362E+02 0.  0.
        -12    1    1    2    0    0 -0.31544741825E+02 -0.26830873031E+01 -0.38013686932E+01  0.31886048646E+02  0.00000000000E+00 0.  1.
         11    1    3    3    0    0  0.18976706062E+02 -0.71165873835E+00 -0.64927993650E+01  0.20069336685E+02  0.51100000000E-03 0. -1.
        -11    1    3    3    0    0  0.24235365446E+02 -0.31642197042E+01  0.58732600759E+01  0.25136833707E+02  0.51100000000E-03 0.  1.
        -12    1    3    3    0    0 -0.11667329682E+02  0.65589657456E+01  0.44209079823E+01  0.14095780963E+02  0.00000000000E+00 0.  1.
</event>
<event>
 7    1  0.6515090E-012  0.5930195E+02  0.7816164E-02  0.1266605E+00
        -11   -1    0    0    0    0  0.00000000000E+00  0.00000000000E+00  0.45593999997E+02  0.45594000000E+02  0.51100000000E-03 0.  1.
         11   -1    0    0    0    0 -0.00000000000E+00 -0.00000000000E+00 -0.45593999997E+02  0.45594000000E+02  0.51100000000E-03 0. -1.
    9900012    2    1    2    0    0  0.10504600356E+02 -0.81012242635E+01 -0.28995584800E+02  0.59301946605E+02  0.50000004700E+02 0.  0.
        -12    1    1    2    0    0 -0.10504600356E+02  0.81012242635E+01  0.28995584800E+02  0.31886053395E+02  0.00000000000E+00 0.  1.
         11    1    3    3    0    0  0.18257728211E+02 -0.14915676204E+02 -0.13096352814E+02  0.26969176727E+02  0.51100000000E-03 0.  1.
        -11    1    3    3    0    0 -0.10187229040E+01 -0.18893774045E+01 -0.20349254228E+02  0.20462152654E+02  0.51100000000E-03 0. -1.
        -12    1    3    3    0    0 -0.67344049507E+01  0.87038293455E+01  0.44500222420E+01  0.11870617224E+02  0.00000000000E+00 0.  1.
</event>
<event>
 7    1  0.6515090E-012  0.5930194E+02  0.7816164E-02  0.1266605E+00
        -11   -1    0    0    0    0  0.00000000000E+00  0.00000000000E+00  0.45593999997E+02  0.45594000000E+02  0.51100000000E-03 0.  1.
         11   -1    0    0    0    0 -0.00000000000E+00 -0.00000000000E+00 -0.45593999997E+02  0.45594000000E+02  0.51100000000E-03 0. -1.
    9900012    2    1    2    0    0  0.26356500190E+02 -0.28847828807E+01 -0.17712529201E+02  0.59301940895E+02  0.49999994286E+02 0.  0.
        -12    1    1    2    0    0 -0.26356500190E+02  0.28847828807E+01  0.17712529201E+02  0.31886059105E+02  0.00000000000E+00 0.  1.
         11    1    3    3    0    0  0.22187251859E+02 -0.83656694008E+01 -0.28983855039E+02  0.37447595688E+02  0.51100000000E-03 0. -1.
        -11    1    3    3    0    0 -0.64733782139E+01  0.20836637472E+01  0.13929962228E+01  0.69416654234E+01  0.51100000000E-03 0.  1.
        -12    1    3    3    0    0  0.10642626545E+02  0.33972227729E+01  0.98783296151E+01  0.14912679784E+02  0.00000000000E+00 0.  1.
</event>
<event>
 7    1  0.6515090E-012  0.5930194E+02  0.7816164E-02  0.1266605E+00
        -11   -1    0    0    0    0  0.00000000000E+00  0.00000000000E+00  0.45593999997E+02  0.45594000000E+02  0.51100000000E-03 0.  1.
         11   -1    0    0    0    0 -0.00000000000E+00 -0.00000000000E+00 -0.45593999997E+02  0.45594000000E+02  0.51100000000E-03 0. -1.
    9900012    2    1    2    0    0 -0.25966865021E+02 -0.10447386732E+02 -0.15273999615E+02  0.59301936700E+02  0.49999986635E+02 0.  0.
        -12    1    1    2    0    0  0.25966865021E+02  0.10447386732E+02  0.15273999615E+02  0.31886063300E+02  0.00000000000E+00 0.  1.
         11    1    3    3    0    0 -0.21278954898E+02 -0.20933821529E+02  0.14083401732E+01  0.29883142868E+02  0.51100000000E-03 0. -1.
        -11    1    3    3    0    0  0.38783929016E+01  0.51649553586E+01  0.31376119710E+01  0.71807593260E+01  0.51100000000E-03 0.  1.
        -12    1    3    3    0    0 -0.85663030251E+01  0.53214794390E+01 -0.19819951759E+02  0.22238034506E+02  0.00000000000E+00 0.  1.
</event>
<event>
 7    1  0.6515090E-012  0.5930210E+02  0.7816164E-02  0.1266604E+00
        -11   -1    0    0    0    0  0.00000000000E+00  0.00000000000E+00  0.45593999997E+02  0.45594000000E+02  0.51100000000E-03 0. -1.
         11   -1    0    0    0    0 -0.00000000000E+00 -0.00000000000E+00 -0.45593999997E+02  0.45594000000E+02  0.51100000000E-03 0.  1.
    9900012    2    1    2    0    0 -0.12413783027E+02 -0.11189955650E+02  0.27154985119E+02  0.59302104476E+02  0.50000292619E+02 0.  0.
        -12    1    1    2    0    0  0.12413783027E+02  0.11189955650E+02 -0.27154985119E+02  0.31885895524E+02  0.00000000000E+00 0.  1.
         11    1    3    3    0    0  0.10643834365E+00 -0.21351166163E+01 -0.29790271209E+01  0.36666953697E+01  0.51100000000E-03 0. -1.
        -11    1    3    3    0    0 -0.11344168736E+02  0.35013714593E+01 -0.87559224935E+01  0.14751811597E+02  0.51100000000E-03 0.  1.
         12    1    3    3    0    0 -0.11760526346E+01 -0.12556210493E+02  0.38889934734E+02  0.40883597510E+02  0.00000000000E+00 0. -1.
</event>
<event>
 7    1  0.6515090E-012  0.5930193E+02  0.7816164E-02  0.1266605E+00
        -11   -1    0    0    0    0  0.00000000000E+00  0.00000000000E+00  0.45593999997E+02  0.45594000000E+02  0.51100000000E-03 0. -1.
         11   -1    0    0    0    0 -0.00000000000E+00 -0.00000000000E+00 -0.45593999997E+02  0.45594000000E+02  0.51100000000E-03 0.  1.
    9900012    2    1    2    0    0 -0.97739551883E+00  0.29464039134E+02  0.12150568021E+02  0.59301933963E+02  0.49999981644E+02 0.  0.
        -12    1    1    2    0    0  0.97739551883E+00 -0.29464039134E+02 -0.12150568021E+02  0.31886066037E+02  0.00000000000E+00 0.  1.
         11    1    3    3    0    0 -0.15958304726E+02  0.18133745262E+01  0.68456759763E+01  0.17459069183E+02  0.51100000000E-03 0. -1.
        -11    1    3    3    0    0  0.80423437764E+01 -0.14761252198E+00  0.99744522692E+01  0.12813695065E+02  0.51100000000E-03 0.  1.
        -12    1    3    3    0    0  0.69385654309E+01  0.27798277130E+02 -0.46695602249E+01  0.29029169715E+02  0.00000000000E+00 0.  1.
</event>
<event>
 7    1  0.6515090E-012  0.5930196E+02  0.7816164E-02  0.1266605E+00
        -11   -1    0    0    0    0  0.00000000000E+00  0.00000000000E+00  0.45593999997E+02  0.45594000000E+02  0.51100000000E-03 0.  1.
         11   -1    0    0    0    0 -0.00000000000E+00 -0.00000000000E+00 -0.45593999997E+02  0.45594000000E+02  0.51100000000E-03 0. -1.
    9900012    2    1    2    0    0 -0.24824717963E+02 -0.10515559385E+02 -0.17025743419E+02  0.59301959950E+02  0.50000029038E+02 0.  0.
        -12    1    1    2    0    0  0.24824717963E+02  0.10515559385E+02  0.17025743419E+02  0.31886040050E+02  0.00000000000E+00 0.  1.
         11    1    3    3    0    0 -0.47026310680E+01 -0.17251919007E+02 -0.22183065832E+02  0.28492663237E+02  0.51100000000E-03 0. -1.
        -11    1    3    3    0    0  0.42891787046E+01  0.74018827924E-02 -0.16385422323E+01  0.45915062513E+01  0.51100000000E-03 0.  1.
         12    1    3    3    0    0 -0.24411265599E+02  0.67289577390E+01  0.67958646454E+01  0.26217790462E+02  0.00000000000E+00 0. -1.
</event>
<event>
 7    1  0.6515090E-012  0.5930196E+02  0.7816164E-02  0.1266605E+00
        -11   -1    0    0    0    0  0.00000000000E+00  0.00000000000E+00  0.45593999997E+02  0.45594000000E+02  0.51100000000E-03 0.  1.
         11   -1    0    0    0    0 -0.00000000000E+00 -0.00000000000E+00 -0.45593999997E+02  0.45594000000E+02  0.51100000000E-03 0. -1.
    9900012    2    1    2    0    0  0.42071570116E+01 -0.26781473302E+02 -0.16786059460E+02  0.59301964270E+02  0.50000036917E+02 0.  0.
        -12    1    1    2    0    0 -0.42071570116E+01  0.26781473302E+02  0.16786059460E+02  0.31886035730E+02  0.00000000000E+00 0.  1.
         11    1    3    3    0    0 -0.46025376068E+01 -0.28026727993E+01 -0.96377103739E+01  0.11041910557E+02  0.51100000000E-03 0. -1.
        -11    1    3    3    0    0 -0.10082453750E+02 -0.32211640268E+01 -0.15685615211E+02  0.18922745470E+02  0.51100000000E-03 0.  1.
        -12    1    3    3    0    0  0.18892148369E+02 -0.20757636476E+02  0.85372661246E+01  0.29337308243E+02  0.00000000000E+00 0.  1.
</event>
<event>
 7    1  0.6515090E-012  0.5930195E+02  0.7816164E-02  0.1266605E+00
        -11   -1    0    0    0    0  0.00000000000E+00  0.00000000000E+00  0.45593999997E+02  0.45594000000E+02  0.51100000000E-03 0.  1.
         11   -1    0    0    0    0 -0.00000000000E+00 -0.00000000000E+00 -0.45593999997E+02  0.45594000000E+02  0.51100000000E-03 0. -1.
    9900012    2    1    2    0    0 -0.65240510823E+01  0.29261174731E+02 -0.10860054558E+02  0.59301947028E+02  0.50000005472E+02 0.  0.
        -12    1    1    2    0    0  0.65240510823E+01 -0.29261174731E+02  0.10860054558E+02  0.31886052972E+02  0.00000000000E+00 0.  1.
         11    1    3    3    0    0 -0.10662995174E+02  0.94856462579E+01  0.37440700612E+01  0.14754491245E+02  0.51100000000E-03 0. -1.
        -11    1    3    3    0    0 -0.31110992022E+01 -0.33336140680E+01  0.94000727301E+01  0.10447645122E+02  0.51100000000E-03 0.  1.
        -12    1    3    3    0    0  0.72500432943E+01  0.23109142541E+02 -0.24004197349E+02  0.34099810661E+02  0.00000000000E+00 0.  1.
</event>
<event>
 7    1  0.6515090E-012  0.5930194E+02  0.7816164E-02  0.1266605E+00
        -11   -1    0    0    0    0  0.00000000000E+00  0.00000000000E+00  0.45593999997E+02  0.45594000000E+02  0.51100000000E-03 0. -1.
         11   -1    0    0    0    0 -0.00000000000E+00 -0.00000000000E+00 -0.45593999997E+02  0.45594000000E+02  0.51100000000E-03 0.  1.
    9900012    2    1    2    0    0  0.22937959147E+02  0.13017697558E+02 -0.17919559196E+02  0.59301936880E+02  0.49999986963E+02 0.  0.
        -12    1    1    2    0    0 -0.22937959147E+02 -0.13017697558E+02  0.17919559196E+02  0.31886063120E+02  0.00000000000E+00 0.  1.
         11    1    3    3    0    0 -0.78517850850E-01  0.98080602112E+01 -0.80292688532E+01  0.12675699931E+02  0.51100000000E-03 0. -1.
        -11    1    3    3    0    0  0.19027771668E+02  0.12193085604E+02 -0.21652419511E+02  0.31297838618E+02  0.51100000000E-03 0.  1.
         12    1    3    3    0    0  0.39887053300E+01 -0.89834482572E+01  0.11762129169E+02  0.15328398331E+02  0.00000000000E+00 0. -1.
</event>
<event>
 7    1  0.6515090E-012  0.5930194E+02  0.7816164E-02  0.1266605E+00
        -11   -1    0    0    0    0  0.00000000000E+00  0.00000000000E+00  0.45593999997E+02  0.45594000000E+02  0.51100000000E-03 0. -1.
         11   -1    0    0    0    0 -0.00000000000E+00 -0.00000000000E+00 -0.45593999997E+02  0.45594000000E+02  0.51100000000E-03 0.  1.
    9900012    2    1    2    0    0 -0.12070632289E+02  0.21924743151E+02  0.19756673141E+02  0.59301942550E+02  0.49999997305E+02 0.  0.
        -12    1    1    2    0    0  0.12070632289E+02 -0.21924743151E+02 -0.19756673141E+02  0.31886057450E+02  0.00000000000E+00 0.  1.
         11    1    3    3    0    0 -0.12205222622E+02  0.80598395073E+01  0.11053401731E+02  0.18333198363E+02  0.51100000000E-03 0. -1.
        -11    1    3    3    0    0 -0.10282648327E+02  0.21689519128E+01  0.19357430961E+02  0.22026060535E+02  0.51100000000E-03 0.  1.
        -12    1    3    3    0    0  0.10417238659E+02  0.11695951731E+02 -0.10654159551E+02  0.18942683652E+02  0.00000000000E+00 0.  1.
</event>
<event>
 7    1  0.6515090E-012  0.5930186E+02  0.7816164E-02  0.1266605E+00
        -11   -1    0    0    0    0  0.00000000000E+00  0.00000000000E+00  0.45593999997E+02  0.45594000000E+02  0.51100000000E-03 0. -1.
         11   -1    0    0    0    0 -0.00000000000E+00 -0.00000000000E+00 -0.45593999997E+02  0.45594000000E+02  0.51100000000E-03 0.  1.
    9900012    2    1    2    0    0 -0.29282997655E+02 -0.72615601503E+01  0.10319958082E+02  0.59301862850E+02  0.49999851952E+02 0.  0.
        -12    1    1    2    0    0  0.29282997655E+02  0.72615601503E+01 -0.10319958082E+02  0.31886137150E+02  0.00000000000E+00 0.  1.
         11    1    3    3    0    0 -0.15595894642E+01 -0.19449428386E+02  0.12991401383E+02  0.23441183715E+02  0.51100000000E-03 0. -1.
        -11    1    3    3    0    0 -0.14286647716E+01 -0.20506008185E+01  0.44665599148E+01  0.51182227853E+01  0.51100000000E-03 0.  1.
        -12    1    3    3    0    0 -0.26294743420E+02  0.14238469054E+02 -0.71380032153E+01  0.30742456350E+02  0.00000000000E+00 0.  1.
</event>
<event>
 7    1  0.6515090E-012  0.5930194E+02  0.7816164E-02  0.1266605E+00
        -11   -1    0    0    0    0  0.00000000000E+00  0.00000000000E+00  0.45593999997E+02  0.45594000000E+02  0.51100000000E-03 0. -1.
         11   -1    0    0    0    0 -0.00000000000E+00 -0.00000000000E+00 -0.45593999997E+02  0.45594000000E+02  0.51100000000E-03 0.  1.
    9900012    2    1    2    0    0 -0.20951991897E+02  0.22916178039E+02  0.72514454682E+01  0.59301942832E+02  0.49999997818E+02 0.  0.
        -12    1    1    2    0    0  0.20951991897E+02 -0.22916178039E+02 -0.72514454682E+01  0.31886057168E+02  0.00000000000E+00 0.  1.
         11    1    3    3    0    0 -0.25810574407E+02  0.14144927540E+01  0.18284727771E+02  0.31662561661E+02  0.51100000000E-03 0. -1.
        -11    1    3    3    0    0 -0.28392325535E+01  0.14824463321E+02 -0.56686147930E+01  0.16123248686E+02  0.51100000000E-03 0.  1.
        -12    1    3    3    0    0  0.76978150639E+01  0.66772219639E+01 -0.53646675102E+01  0.11516132485E+02  0.00000000000E+00 0.  1.
</event>
<event>
 7    1  0.6515090E-012  0.5930196E+02  0.7816164E-02  0.1266605E+00
        -11   -1    0    0    0    0  0.00000000000E+00  0.00000000000E+00  0.45593999997E+02  0.45594000000E+02  0.51100000000E-03 0. -1.
         11   -1    0    0    0    0 -0.00000000000E+00 -0.00000000000E+00 -0.45593999997E+02  0.45594000000E+02  0.51100000000E-03 0.  1.
    9900012    2    1    2    0    0 -0.10176546178E+02 -0.21707220051E+02  0.21022704683E+02  0.59301959063E+02  0.50000027420E+02 0.  0.
        -12    1    1    2    0    0  0.10176546178E+02  0.21707220051E+02 -0.21022704683E+02  0.31886040937E+02  0.00000000000E+00 0.  1.
         11    1    3    3    0    0  0.35873573602E+01  0.99431318165E+01  0.19251380577E+01  0.10744354795E+02  0.51100000000E-03 0. -1.
        -11    1    3    3    0    0 -0.70089376746E+01 -0.11821257941E+02 -0.67303687557E+01  0.15302457661E+02  0.51100000000E-03 0.  1.
         12    1    3    3    0    0 -0.67549658635E+01 -0.19829093927E+02  0.25827935381E+02  0.33255146607E+02  0.00000000000E+00 0. -1.
</event>
<event>
 7    1  0.6515090E-012  0.5930193E+02  0.7816164E-02  0.1266605E+00
        -11   -1    0    0    0    0  0.00000000000E+00  0.00000000000E+00  0.45593999997E+02  0.45594000000E+02  0.51100000000E-03 0.  1.
         11   -1    0    0    0    0 -0.00000000000E+00 -0.00000000000E+00 -0.45593999997E+02  0.45594000000E+02  0.51100000000E-03 0. -1.
    9900012    2    1    2    0    0  0.99023204477E+01 -0.29862797738E+02 -0.51844694847E+01  0.59301931524E+02  0.49999977197E+02 0.  0.
        -12    1    1    2    0    0 -0.99023204477E+01  0.29862797738E+02  0.51844694847E+01  0.31886068476E+02  0.00000000000E+00 0.  1.
         11    1    3    3    0    0  0.79473826078E+01 -0.14284732566E+02 -0.20535253098E+02  0.26247115934E+02  0.51100000000E-03 0. -1.
        -11    1    3    3    0    0 -0.21869687298E+01 -0.45202850318E+00 -0.60923007211E+01  0.64887048268E+01  0.51100000000E-03 0.  1.
        -12    1    3    3    0    0  0.41419065697E+01 -0.15126036669E+02  0.21443084334E+02  0.26566110763E+02  0.00000000000E+00 0.  1.
</event>
<event>
 7    1  0.6515090E-012  0.5930191E+02  0.7816164E-02  0.1266605E+00
        -11   -1    0    0    0    0  0.00000000000E+00  0.00000000000E+00  0.45593999997E+02  0.45594000000E+02  0.51100000000E-03 0. -1.
         11   -1    0    0    0    0 -0.00000000000E+00 -0.00000000000E+00 -0.45593999997E+02  0.45594000000E+02  0.51100000000E-03 0.  1.
    9900012    2    1    2    0    0  0.23196462107E+02 -0.58482668419E+01  0.21081862155E+02  0.59301905989E+02  0.49999930627E+02 0.  0.
        -12    1    1    2    0    0 -0.23196462107E+02  0.58482668419E+01 -0.21081862155E+02  0.31886094011E+02  0.00000000000E+00 0.  1.
         11    1    3    3    0    0  0.18543854638E+02  0.76162621909E+01  0.12564576080E+02  0.23659048309E+02  0.51100000000E-03 0. -1.
        -11    1    3    3    0    0 -0.60898873073E+01 -0.72553311137E+01  0.17788811246E+02  0.20153619099E+02  0.51100000000E-03 0.  1.
        -12    1    3    3    0    0  0.10742494777E+02 -0.62091979191E+01 -0.92715251703E+01  0.15489238581E+02  0.00000000000E+00 0.  1.
</event>
<event>
 7    1  0.6515090E-012  0.5930186E+02  0.7816164E-02  0.1266605E+00
        -11   -1    0    0    0    0  0.00000000000E+00  0.00000000000E+00  0.45593999997E+02  0.45594000000E+02  0.51100000000E-03 0.  1.
         11   -1    0    0    0    0 -0.00000000000E+00 -0.00000000000E+00 -0.45593999997E+02  0.45594000000E+02  0.51100000000E-03 0. -1.
    9900012    2    1    2    0    0  0.17668347886E+02  0.21552612430E+02 -0.15493239406E+02  0.59301857448E+02  0.49999842098E+02 0.  0.
        -12    1    1    2    0    0 -0.17668347886E+02 -0.21552612430E+02  0.15493239406E+02  0.31886142552E+02  0.00000000000E+00 0.  1.
         11    1    3    3    0    0 -0.90703548107E+01  0.12149403637E+02 -0.27252819047E+01  0.15404755981E+02  0.51100000000E-03 0. -1.
        -11    1    3    3    0    0 -0.53860826327E+01  0.77343917256E+01 -0.55202327011E+01  0.10922621976E+02  0.51100000000E-03 0.  1.
        -12    1    3    3    0    0  0.32124785330E+02  0.16688170674E+01 -0.72477248001E+01  0.32974479490E+02  0.00000000000E+00 0.  1.
</event>
<event>
 7    1  0.6515090E-012  0.5930187E+02  0.7816164E-02  0.1266605E+00
        -11   -1    0    0    0    0  0.00000000000E+00  0.00000000000E+00  0.45593999997E+02  0.45594000000E+02  0.51100000000E-03 0.  1.
         11   -1    0    0    0    0 -0.00000000000E+00 -0.00000000000E+00 -0.45593999997E+02  0.45594000000E+02  0.51100000000E-03 0. -1.
    9900012    2    1    2    0    0  0.24269052356E+02  0.18005947978E+02  0.10174684422E+02  0.59301870289E+02  0.49999865518E+02 0.  0.
        -12    1    1    2    0    0 -0.24269052356E+02 -0.18005947978E+02 -0.10174684422E+02  0.31886129711E+02  0.00000000000E+00 0.  1.
         11    1    3    3    0    0  0.19000747386E+02  0.19268840991E+02  0.14282060745E+01  0.27099011185E+02  0.51100000000E-03 0. -1.
        -11    1    3    3    0    0  0.17662235249E+02  0.24915178858E+01  0.68844950230E+01  0.19119583870E+02  0.51100000000E-03 0.  1.
        -12    1    3    3    0    0 -0.12393930279E+02 -0.37544108984E+01  0.18619833246E+01  0.13083275234E+02  0.00000000000E+00 0.  1.
</event>
<event>
 7    1  0.6515090E-012  0.5930200E+02  0.7816164E-02  0.1266605E+00
        -11   -1    0    0    0    0  0.00000000000E+00  0.00000000000E+00  0.45593999997E+02  0.45594000000E+02  0.51100000000E-03 0.  1.
         11   -1    0    0    0    0 -0.00000000000E+00 -0.00000000000E+00 -0.45593999997E+02  0.45594000000E+02  0.51100000000E-03 0. -1.
    9900012    2    1    2    0    0 -0.31595215534E+02  0.99356453621E+00 -0.41799532790E+01  0.59302002689E+02  0.50000106983E+02 0.  0.
        -12    1    1    2    0    0  0.31595215534E+02 -0.99356453621E+00  0.41799532790E+01  0.31885997311E+02  0.00000000000E+00 0.  1.
         11    1    3    3    0    0 -0.28159228242E+02 -0.13355619728E+02  0.10881601080E+02  0.33010967206E+02  0.51100000000E-03 0. -1.
        -11    1    3    3    0    0 -0.94719726155E-02  0.95504781838E+01  0.58691534672E+00  0.95685000466E+01  0.51100000000E-03 0.  1.
        -12    1    3    3    0    0 -0.34265153189E+01  0.47987060803E+01 -0.15648469706E+02  0.16722535436E+02  0.00000000000E+00 0.  1.
</event>
<event>
 7    1  0.6515090E-012  0.5930189E+02  0.7816164E-02  0.1266605E+00
        -11   -1    0    0    0    0  0.00000000000E+00  0.00000000000E+00  0.45593999997E+02  0.45594000000E+02  0.51100000000E-03 0. -1.
         11   -1    0    0    0    0 -0.00000000000E+00 -0.00000000000E+00 -0.45593999997E+02  0.45594000000E+02  0.51100000000E-03 0.  1.
    9900012    2    1    2    0    0  0.10427005833E+02 -0.22389746402E+02  0.20166824934E+02  0.59301889818E+02  0.49999901134E+02 0.  0.
        -12    1    1    2    0    0 -0.10427005833E+02  0.22389746402E+02 -0.20166824934E+02  0.31886110182E+02  0.00000000000E+00 0.  1.
         11    1    3    3    0    0 -0.29950075951E+01 -0.66058147394E+01  0.96285937585E+01  0.12054736699E+02  0.51100000000E-03 0. -1.
        -11    1    3    3    0    0  0.14303968385E+02 -0.29158681211E+02  0.55707012130E+01  0.32952464457E+02  0.51100000000E-03 0.  1.
        -12    1    3    3    0    0 -0.88195495618E+00  0.13374749548E+02  0.49675299629E+01  0.14294688662E+02  0.00000000000E+00 0.  1.
</event>
<event>
 7    1  0.6515090E-012  0.5930194E+02  0.7816164E-02  0.1266605E+00
        -11   -1    0    0    0    0  0.00000000000E+00  0.00000000000E+00  0.45593999997E+02  0.45594000000E+02  0.51100000000E-03 0.  1.
         11   -1    0    0    0    0 -0.00000000000E+00 -0.00000000000E+00 -0.45593999997E+02  0.45594000000E+02  0.51100000000E-03 0. -1.
    9900012    2    1    2    0    0 -0.14083259534E+01 -0.14975730580E+01 -0.31819723808E+02  0.59301938307E+02  0.49999989567E+02 0.  0.
        -12    1    1    2    0    0  0.14083259534E+01  0.14975730580E+01  0.31819723808E+02  0.31886061693E+02  0.00000000000E+00 0.  1.
         11    1    3    3    0    0  0.12484036577E+02  0.12586248275E+02 -0.69981641454E+01  0.19058833033E+02  0.51100000000E-03 0. -1.
        -11    1    3    3    0    0  0.56519631990E+01  0.26604217434E+00 -0.16283023476E+00  0.56605636105E+01  0.51100000000E-03 0.  1.
         12    1    3    3    0    0 -0.19544325730E+02 -0.14349863508E+02 -0.24658729428E+02  0.34582541664E+02  0.00000000000E+00 0. -1.
</event>
<event>
 7    1  0.6515090E-012  0.5930195E+02  0.7816164E-02  0.1266605E+00
        -11   -1    0    0    0    0  0.00000000000E+00  0.00000000000E+00  0.45593999997E+02  0.45594000000E+02  0.51100000000E-03 0. -1.
         11   -1    0    0    0    0 -0.00000000000E+00 -0.00000000000E+00 -0.45593999997E+02  0.45594000000E+02  0.51100000000E-03 0.  1.
    9900012    2    1    2    0    0  0.17240122308E+02 -0.11290497874E+02  0.24331528318E+02  0.59301946157E+02  0.50000003883E+02 0.  0.
        -12    1    1    2    0    0 -0.17240122308E+02  0.11290497874E+02 -0.24331528318E+02  0.31886053843E+02  0.00000000000E+00 0.  1.
         11    1    3    3    0    0  0.54085970937E+01  0.56000605205E+01  0.17501332038E+02  0.19154900776E+02  0.51100000000E-03 0. -1.
        -11    1    3    3    0    0  0.27208679441E+01  0.54315450935E+01  0.13776606071E+02  0.15056549391E+02  0.51100000000E-03 0.  1.
        -12    1    3    3    0    0  0.91106572697E+01 -0.22322103488E+02 -0.69464097916E+01  0.25090495990E+02  0.00000000000E+00 0.  1.
</event>
<event>
 7    1  0.6515090E-012  0.5930195E+02  0.7816164E-02  0.1266605E+00
        -11   -1    0    0    0    0  0.00000000000E+00  0.00000000000E+00  0.45593999997E+02  0.45594000000E+02  0.51100000000E-03 0.  1.
         11   -1    0    0    0    0 -0.00000000000E+00 -0.00000000000E+00 -0.45593999997E+02  0.45594000000E+02  0.51100000000E-03 0. -1.
    9900012    2    1    2    0    0 -0.26836684395E+02  0.51297794433E+01 -0.16437707776E+02  0.59301945001E+02  0.50000001776E+02 0.  0.
        -12    1    1    2    0    0  0.26836684395E+02 -0.51297794433E+01  0.16437707776E+02  0.31886054999E+02  0.00000000000E+00 0.  1.
         11    1    3    3    0    0 -0.25883697943E+02 -0.73842288096E+00 -0.19574045908E+02  0.32460042530E+02  0.51100000000E-03 0. -1.
        -11    1    3    3    0    0 -0.64144358504E+01  0.46089326143E+01 -0.98923458232E+01  0.12658821164E+02  0.51100000000E-03 0.  1.
        -12    1    3    3    0    0  0.54614493990E+01  0.12592697099E+01  0.13028683956E+02  0.14183081307E+02  0.00000000000E+00 0.  1.
</event>
<event>
 7    1  0.6515090E-012  0.5930193E+02  0.7816164E-02  0.1266605E+00
        -11   -1    0    0    0    0  0.00000000000E+00  0.00000000000E+00  0.45593999997E+02  0.45594000000E+02  0.51100000000E-03 0.  1.
         11   -1    0    0    0    0 -0.00000000000E+00 -0.00000000000E+00 -0.45593999997E+02  0.45594000000E+02  0.51100000000E-03 0. -1.
    9900012    2    1    2    0    0 -0.20194666383E+02  0.40383113192E+01  0.24343144748E+02  0.59301934002E+02  0.49999981715E+02 0.  0.
        -12    1    1    2    0    0  0.20194666383E+02 -0.40383113192E+01 -0.24343144748E+02  0.31886065998E+02  0.00000000000E+00 0.  1.
         11    1    3    3    0    0  0.26580397682E+01 -0.95593805067E+01  0.15133368634E+02  0.18096015516E+02  0.51100000000E-03 0.  1.
        -11    1    3    3    0    0 -0.26848522225E+02  0.59627023398E+01  0.14503325676E+02  0.31092497822E+02  0.51100000000E-03 0. -1.
         12    1    3    3    0    0  0.39958160744E+01  0.76349894861E+01 -0.52935495624E+01  0.10113420664E+02  0.00000000000E+00 0. -1.
</event>
<event>
 7    1  0.6515090E-012  0.5930198E+02  0.7816164E-02  0.1266605E+00
        -11   -1    0    0    0    0  0.00000000000E+00  0.00000000000E+00  0.45593999997E+02  0.45594000000E+02  0.51100000000E-03 0.  1.
         11   -1    0    0    0    0 -0.00000000000E+00 -0.00000000000E+00 -0.45593999997E+02  0.45594000000E+02  0.51100000000E-03 0. -1.
    9900012    2    1    2    0    0  0.27110691803E+02  0.16757448572E+02  0.95748445041E+00  0.59301976900E+02  0.50000059951E+02 0.  0.
        -12    1    1    2    0    0 -0.27110691803E+02 -0.16757448572E+02 -0.95748445041E+00  0.31886023100E+02  0.00000000000E+00 0.  1.
         11    1    3    3    0    0  0.10676816698E+02  0.61780004086E+01  0.11336924989E+02  0.16753745024E+02  0.51100000000E-03 0. -1.
        -11    1    3    3    0    0  0.16831193575E+02 -0.70005441671E+01  0.53049650454E+01  0.18985240325E+02  0.51100000000E-03 0.  1.
         12    1    3    3    0    0 -0.39731847072E+00  0.17579992330E+02 -0.15684405584E+02  0.23562991551E+02  0.00000000000E+00 0. -1.
</event>
<event>
 7    1  0.6515090E-012  0.5930195E+02  0.7816164E-02  0.1266605E+00
        -11   -1    0    0    0    0  0.00000000000E+00  0.00000000000E+00  0.45593999997E+02  0.45594000000E+02  0.51100000000E-03 0.  1.
         11   -1    0    0    0    0 -0.00000000000E+00 -0.00000000000E+00 -0.45593999997E+02  0.45594000000E+02  0.51100000000E-03 0. -1.
    9900012    2    1    2    0    0 -0.73351690126E+01  0.16125549216E+02 -0.26511919975E+02  0.59301953793E+02  0.50000017809E+02 0.  0.
        -12    1    1    2    0    0  0.73351690126E+01 -0.16125549216E+02  0.26511919975E+02  0.31886046207E+02  0.00000000000E+00 0.  1.
         11    1    3    3    0    0 -0.14180653416E+02 -0.23526947402E+01 -0.65712302476E+01  0.15805289338E+02  0.51100000000E-03 0. -1.
        -11    1    3    3    0    0 -0.64271269260E+01  0.18342292691E+02 -0.22757836010E+02  0.29927692223E+02  0.51100000000E-03 0.  1.
        -12    1    3    3    0    0  0.13272611329E+02  0.13595126553E+00  0.28171462825E+01  0.13568972231E+02  0.00000000000E+00 0.  1.
</event>
<event>
 7    1  0.6515090E-012  0.5930193E+02  0.7816164E-02  0.1266605E+00
        -11   -1    0    0    0    0  0.00000000000E+00  0.00000000000E+00  0.45593999997E+02  0.45594000000E+02  0.51100000000E-03 0. -1.
         11   -1    0    0    0    0 -0.00000000000E+00 -0.00000000000E+00 -0.45593999997E+02  0.45594000000E+02  0.51100000000E-03 0.  1.
    9900012    2    1    2    0    0 -0.21978790496E+02  0.22279309060E+02  0.61062674317E+01  0.59301931791E+02  0.49999977683E+02 0.  0.
        -12    1    1    2    0    0  0.21978790496E+02 -0.22279309060E+02 -0.61062674317E+01  0.31886068209E+02  0.00000000000E+00 0.  1.
         11    1    3    3    0    0 -0.17151109434E+02  0.25952719352E+02 -0.10016628952E+02  0.32680836165E+02  0.51100000000E-03 0. -1.
        -11    1    3    3    0    0 -0.10547344122E+02 -0.79261882455E+01  0.66743337892E+01  0.14785724870E+02  0.51100000000E-03 0.  1.
        -12    1    3    3    0    0  0.57196630602E+01  0.42527779538E+01  0.94485625945E+01  0.11835370757E+02  0.00000000000E+00 0.  1.
</event>
<event>
 7    1  0.6515090E-012  0.5930196E+02  0.7816164E-02  0.1266605E+00
        -11   -1    0    0    0    0  0.00000000000E+00  0.00000000000E+00  0.45593999997E+02  0.45594000000E+02  0.51100000000E-03 0. -1.
         11   -1    0    0    0    0 -0.00000000000E+00 -0.00000000000E+00 -0.45593999997E+02  0.45594000000E+02  0.51100000000E-03 0.  1.
    9900012    2    1    2    0    0  0.31878820287E+02  0.67505706189E+00 -0.68525447992E-01  0.59301959470E+02  0.50000028164E+02 0.  0.
        -12    1    1    2    0    0 -0.31878820287E+02 -0.67505706189E+00  0.68525447992E-01  0.31886040530E+02  0.00000000000E+00 0.  1.
         11    1    3    3    0    0  0.56042168774E+00  0.21033271773E+01  0.33435694024E+01  0.39896759634E+01  0.51100000000E-03 0. -1.
        -11    1    3    3    0    0  0.72547419369E+01 -0.59729162000E+01  0.19581949125E+02  0.21720030854E+02  0.51100000000E-03 0.  1.
        -12    1    3    3    0    0  0.24063656662E+02  0.45446460845E+01 -0.22994043975E+02  0.33592252653E+02  0.00000000000E+00 0.  1.
</event>
<event>
 7    1  0.6515090E-012  0.5930193E+02  0.7816164E-02  0.1266605E+00
        -11   -1    0    0    0    0  0.00000000000E+00  0.00000000000E+00  0.45593999997E+02  0.45594000000E+02  0.51100000000E-03 0. -1.
         11   -1    0    0    0    0 -0.00000000000E+00 -0.00000000000E+00 -0.45593999997E+02  0.45594000000E+02  0.51100000000E-03 0.  1.
    9900012    2    1    2    0    0 -0.20513280445E+02 -0.11785121194E+02  0.21378444525E+02  0.59301927077E+02  0.49999969085E+02 0.  0.
        -12    1    1    2    0    0  0.20513280445E+02  0.11785121194E+02 -0.21378444525E+02  0.31886072923E+02  0.00000000000E+00 0.  1.
         11    1    3    3    0    0 -0.40066387989E+01 -0.22318067547E+01 -0.51751452792E+01  0.69149291231E+01  0.51100000000E-03 0. -1.
        -11    1    3    3    0    0 -0.12427049419E+00 -0.23186925063E+02  0.93681064364E+01  0.25008205764E+02  0.51100000000E-03 0.  1.
         12    1    3    3    0    0 -0.16382371152E+02  0.13633610624E+02  0.17185483368E+02  0.27378792190E+02  0.00000000000E+00 0. -1.
</event>
<event>
 7    1  0.6515090E-012  0.5930201E+02  0.7816164E-02  0.1266605E+00
        -11   -1    0    0    0    0  0.00000000000E+00  0.00000000000E+00  0.45593999997E+02  0.45594000000E+02  0.51100000000E-03 0.  1.
         11   -1    0    0    0    0 -0.00000000000E+00 -0.00000000000E+00 -0.45593999997E+02  0.45594000000E+02  0.51100000000E-03 0. -1.
    9900012    2    1    2    0    0  0.74179022827E+01  0.14922989586E+02 -0.27184474435E+02  0.59302007107E+02  0.50000115041E+02 0.  0.
        -12    1    1    2    0    0 -0.74179022827E+01 -0.14922989586E+02  0.27184474435E+02  0.31885992893E+02  0.00000000000E+00 0.  1.
         11    1    3    3    0    0 -0.41627003785E+01 -0.70650174294E+01 -0.16320823653E+02  0.18265043955E+02  0.51100000000E-03 0. -1.
        -11    1    3    3    0    0  0.51131424289E+01 -0.70128967850E+01  0.15828014421E+01  0.88221430209E+01  0.51100000000E-03 0.  1.
         12    1    3    3    0    0  0.64674602323E+01  0.29000903800E+02 -0.12446452225E+02  0.32214820131E+02  0.00000000000E+00 0. -1.
</event>
<event>
 7    1  0.6515090E-012  0.5930193E+02  0.7816164E-02  0.1266605E+00
        -11   -1    0    0    0    0  0.00000000000E+00  0.00000000000E+00  0.45593999997E+02  0.45594000000E+02  0.51100000000E-03 0.  1.
         11   -1    0    0    0    0 -0.00000000000E+00 -0.00000000000E+00 -0.45593999997E+02  0.45594000000E+02  0.51100000000E-03 0. -1.
    9900012    2    1    2    0    0 -0.13772446641E+02  0.21144482817E+02 -0.19492358217E+02  0.59301929861E+02  0.49999974163E+02 0.  0.
        -12    1    1    2    0    0  0.13772446641E+02 -0.21144482817E+02  0.19492358217E+02  0.31886070139E+02  0.00000000000E+00 0.  1.
         11    1    3    3    0    0  0.98451681624E+01  0.25622294243E+01  0.64000300519E-01  0.10173320602E+02  0.51100000000E-03 0. -1.
        -11    1    3    3    0    0 -0.73615680248E+01  0.16061021369E+02  0.60658861536E+01  0.18680044601E+02  0.51100000000E-03 0.  1.
        -12    1    3    3    0    0 -0.16256046779E+02  0.25212320239E+01 -0.25622244671E+02  0.30448564658E+02  0.00000000000E+00 0.  1.
</event>
<event>
 7    1  0.6515090E-012  0.5930194E+02  0.7816164E-02  0.1266605E+00
        -11   -1    0    0    0    0  0.00000000000E+00  0.00000000000E+00  0.45593999997E+02  0.45594000000E+02  0.51100000000E-03 0.  1.
         11   -1    0    0    0    0 -0.00000000000E+00 -0.00000000000E+00 -0.45593999997E+02  0.45594000000E+02  0.51100000000E-03 0. -1.
    9900012    2    1    2    0    0  0.18785668896E+02  0.54746653667E+01 -0.25176324974E+02  0.59301942609E+02  0.49999997412E+02 0.  0.
        -12    1    1    2    0    0 -0.18785668896E+02 -0.54746653667E+01  0.25176324974E+02  0.31886057391E+02  0.00000000000E+00 0.  1.
         11    1    3    3    0    0  0.16241091269E+01 -0.16194547991E+02 -0.13598570514E+02  0.21209013069E+02  0.51100000000E-03 0. -1.
        -11    1    3    3    0    0 -0.25057706353E+01  0.42017978602E+01 -0.10709868692E+02  0.11774348364E+02  0.51100000000E-03 0.  1.
        -12    1    3    3    0    0  0.19667330404E+02  0.17467415498E+02 -0.86788576830E+00  0.26318581175E+02  0.00000000000E+00 0.  1.
</event>
<event>
 7    1  0.6515090E-012  0.5930195E+02  0.7816164E-02  0.1266605E+00
        -11   -1    0    0    0    0  0.00000000000E+00  0.00000000000E+00  0.45593999997E+02  0.45594000000E+02  0.51100000000E-03 0. -1.
         11   -1    0    0    0    0 -0.00000000000E+00 -0.00000000000E+00 -0.45593999997E+02  0.45594000000E+02  0.51100000000E-03 0.  1.
    9900012    2    1    2    0    0  0.10946591630E+02  0.10626782795E+02  0.27999357346E+02  0.59301946738E+02  0.50000004942E+02 0.  0.
        -12    1    1    2    0    0 -0.10946591630E+02 -0.10626782795E+02 -0.27999357346E+02  0.31886053262E+02  0.00000000000E+00 0.  1.
         11    1    3    3    0    0  0.19525951376E+02 -0.96200266635E+01  0.15548077080E+02  0.26749773668E+02  0.51100000000E-03 0. -1.
        -11    1    3    3    0    0 -0.87865719058E+00  0.79150354326E+01  0.15745591656E+02  0.17644927918E+02  0.51100000000E-03 0.  1.
        -12    1    3    3    0    0 -0.77007025559E+01  0.12331774026E+02 -0.32943113904E+01  0.14907245152E+02  0.00000000000E+00 0.  1.
</event>
<event>
 7    1  0.6515090E-012  0.5930195E+02  0.7816164E-02  0.1266605E+00
        -11   -1    0    0    0    0  0.00000000000E+00  0.00000000000E+00  0.45593999997E+02  0.45594000000E+02  0.51100000000E-03 0.  1.
         11   -1    0    0    0    0 -0.00000000000E+00 -0.00000000000E+00 -0.45593999997E+02  0.45594000000E+02  0.51100000000E-03 0. -1.
    9900012    2    1    2    0    0  0.31036446664E+02  0.56508091549E+01 -0.46397682644E+01  0.59301951088E+02  0.50000012877E+02 0.  0.
        -12    1    1    2    0    0 -0.31036446664E+02 -0.56508091549E+01  0.46397682644E+01  0.31886048912E+02  0.00000000000E+00 0.  1.
         11    1    3    3    0    0 -0.64304057830E+01  0.30032072650E+01 -0.17327036620E+01  0.73055892748E+01  0.51100000000E-03 0. -1.
        -11    1    3    3    0    0 -0.69921500622E+01  0.19591407662E+00  0.17969577265E+01  0.72220220264E+01  0.51100000000E-03 0.  1.
         12    1    3    3    0    0  0.44459002510E+02  0.24516878133E+01 -0.47040223290E+01  0.44774339787E+02  0.00000000000E+00 0. -1.
</event>
<event>
 7    1  0.6515090E-012  0.5930196E+02  0.7816164E-02  0.1266605E+00
        -11   -1    0    0    0    0  0.00000000000E+00  0.00000000000E+00  0.45593999997E+02  0.45594000000E+02  0.51100000000E-03 0.  1.
         11   -1    0    0    0    0 -0.00000000000E+00 -0.00000000000E+00 -0.45593999997E+02  0.45594000000E+02  0.51100000000E-03 0. -1.
    9900012    2    1    2    0    0 -0.20405366682E+02 -0.22643972517E+02 -0.93590117015E+01  0.59301959468E+02  0.50000028159E+02 0.  0.
        -12    1    1    2    0    0  0.20405366682E+02  0.22643972517E+02  0.93590117015E+01  0.31886040532E+02  0.00000000000E+00 0.  1.
         11    1    3    3    0    0  0.64853088716E+01  0.39802331708E+00 -0.37214444867E+00  0.65081599145E+01  0.51100000000E-03 0. -1.
        -11    1    3    3    0    0 -0.61732671934E+01 -0.29640027157E+02 -0.55731952863E+01  0.30784751804E+02  0.51100000000E-03 0.  1.
        -12    1    3    3    0    0 -0.20717408361E+02  0.65980313225E+01 -0.34136719666E+01  0.22009047749E+02  0.00000000000E+00 0.  1.
</event>
<event>
 7    1  0.6515090E-012  0.5930194E+02  0.7816164E-02  0.1266605E+00
        -11   -1    0    0    0    0  0.00000000000E+00  0.00000000000E+00  0.45593999997E+02  0.45594000000E+02  0.51100000000E-03 0.  1.
         11   -1    0    0    0    0 -0.00000000000E+00 -0.00000000000E+00 -0.45593999997E+02  0.45594000000E+02  0.51100000000E-03 0. -1.
    9900012    2    1    2    0    0  0.18243305162E+01 -0.21810975753E+02 -0.23187794966E+02  0.59301942224E+02  0.49999996711E+02 0.  0.
        -12    1    1    2    0    0 -0.18243305162E+01  0.21810975753E+02  0.23187794966E+02  0.31886057776E+02  0.00000000000E+00 0.  1.
         11    1    3    3    0    0  0.82074663883E+01  0.21942097178E+01 -0.20048482750E+01  0.87290593805E+01  0.51100000000E-03 0. -1.
        -11    1    3    3    0    0  0.90770960519E+01 -0.27198458936E+02 -0.19546313835E+02  0.34701703503E+02  0.51100000000E-03 0.  1.
         12    1    3    3    0    0 -0.15460231924E+02  0.31932734654E+01 -0.16366328557E+01  0.15871179341E+02  0.00000000000E+00 0. -1.
</event>
<event>
 7    1  0.6515090E-012  0.5930193E+02  0.7816164E-02  0.1266605E+00
        -11   -1    0    0    0    0  0.00000000000E+00  0.00000000000E+00  0.45593999997E+02  0.45594000000E+02  0.51100000000E-03 0.  1.
         11   -1    0    0    0    0 -0.00000000000E+00 -0.00000000000E+00 -0.45593999997E+02  0.45594000000E+02  0.51100000000E-03 0. -1.
    9900012    2    1    2    0    0  0.27174578529E+02  0.16569344822E+02 -0.19289012552E+01  0.59301928337E+02  0.49999971383E+02 0.  0.
        -12    1    1    2    0    0 -0.27174578529E+02 -0.16569344822E+02  0.19289012552E+01  0.31886071663E+02  0.00000000000E+00 0.  1.
         11    1    3    3    0    0 -0.20365761985E+01  0.66491202142E+01  0.41465090765E+01  0.80964177275E+01  0.51100000000E-03 0. -1.
        -11    1    3    3    0    0  0.20957949806E+02  0.13708166869E+02  0.14342500311E+02  0.28859258729E+02  0.51100000000E-03 0.  1.
         12    1    3    3    0    0  0.82532049218E+01 -0.37879422614E+01 -0.20417910643E+02  0.22346251880E+02  0.00000000000E+00 0. -1.
</event>
<event>
 7    1  0.6515090E-012  0.5930193E+02  0.7816164E-02  0.1266605E+00
        -11   -1    0    0    0    0  0.00000000000E+00  0.00000000000E+00  0.45593999997E+02  0.45594000000E+02  0.51100000000E-03 0. -1.
         11   -1    0    0    0    0 -0.00000000000E+00 -0.00000000000E+00 -0.45593999997E+02  0.45594000000E+02  0.51100000000E-03 0.  1.
    9900012    2    1    2    0    0  0.45227910586E+01 -0.30600313259E+02 -0.77386434113E+01  0.59301930748E+02  0.49999975781E+02 0.  0.
        -12    1    1    2    0    0 -0.45227910586E+01  0.30600313259E+02  0.77386434113E+01  0.31886069252E+02  0.00000000000E+00 0.  1.
         11    1    3    3    0    0  0.77200797858E+00 -0.53328784522E+00  0.74402238523E+01  0.74991548510E+01  0.51100000000E-03 0. -1.
        -11    1    3    3    0    0  0.19447713362E+02 -0.60225569047E+01 -0.97754953601E+01  0.22584177127E+02  0.51100000000E-03 0.  1.
         12    1    3    3    0    0 -0.15696930282E+02 -0.24044468509E+02 -0.54033719036E+01  0.29218598770E+02  0.00000000000E+00 0. -1.
</event>
<event>
 7    1  0.6515090E-012  0.5930195E+02  0.7816164E-02  0.1266605E+00
        -11   -1    0    0    0    0  0.00000000000E+00  0.00000000000E+00  0.45593999997E+02  0.45594000000E+02  0.51100000000E-03 0. -1.
         11   -1    0    0    0    0 -0.00000000000E+00 -0.00000000000E+00 -0.45593999997E+02  0.45594000000E+02  0.51100000000E-03 0.  1.
    9900012    2    1    2    0    0  0.26340896422E+02  0.12603495785E+02  0.12807388077E+02  0.59301951018E+02  0.50000012749E+02 0.  0.
        -12    1    1    2    0    0 -0.26340896422E+02 -0.12603495785E+02 -0.12807388077E+02  0.31886048982E+02  0.00000000000E+00 0.  1.
         11    1    3    3    0    0  0.32599270803E+01  0.49836051315E+01 -0.34684041502E+00  0.59652110784E+01  0.51100000000E-03 0. -1.
        -11    1    3    3    0    0  0.71721296726E+01  0.23995048684E+02 -0.32075658333E+01  0.25248569944E+02  0.51100000000E-03 0.  1.
         12    1    3    3    0    0  0.15908839669E+02 -0.16375158031E+02  0.16361794326E+02  0.28088169995E+02  0.00000000000E+00 0. -1.
</event>
<event>
 7    1  0.6515090E-012  0.5930192E+02  0.7816164E-02  0.1266605E+00
        -11   -1    0    0    0    0  0.00000000000E+00  0.00000000000E+00  0.45593999997E+02  0.45594000000E+02  0.51100000000E-03 0.  1.
         11   -1    0    0    0    0 -0.00000000000E+00 -0.00000000000E+00 -0.45593999997E+02  0.45594000000E+02  0.51100000000E-03 0. -1.
    9900012    2    1    2    0    0 -0.28375606881E+00  0.16308816148E+02 -0.27398251073E+02  0.59301918969E+02  0.49999954298E+02 0.  0.
        -12    1    1    2    0    0  0.28375606881E+00 -0.16308816148E+02  0.27398251073E+02  0.31886081031E+02  0.00000000000E+00 0.  1.
         11    1    3    3    0    0 -0.89559502586E+01 -0.37184847749E+01 -0.16226864558E+02  0.18903632130E+02  0.51100000000E-03 0. -1.
        -11    1    3    3    0    0 -0.99549625560E+01 -0.68783959053E+00 -0.70935197155E+01  0.12243056196E+02  0.51100000000E-03 0.  1.
         12    1    3    3    0    0  0.18627156746E+02  0.20715140514E+02 -0.40778667996E+01  0.28155230643E+02  0.00000000000E+00 0. -1.
</event>
<event>
 7    1  0.6515090E-012  0.5930224E+02  0.7816164E-02  0.1266604E+00
        -11   -1    0    0    0    0  0.00000000000E+00  0.00000000000E+00  0.45593999997E+02  0.45594000000E+02  0.51100000000E-03 0.  1.
         11   -1    0    0    0    0 -0.00000000000E+00 -0.00000000000E+00 -0.45593999997E+02  0.45594000000E+02  0.51100000000E-03 0. -1.
    9900012    2    1    2    0    0 -0.68390200418E+01  0.10973859529E+02 -0.29146253429E+02  0.59302237079E+02  0.50000534452E+02 0.  0.
        -12    1    1    2    0    0  0.68390200418E+01 -0.10973859529E+02  0.29146253429E+02  0.31885762921E+02  0.00000000000E+00 0.  1.
         11    1    3    3    0    0  0.21830618689E+01 -0.11643013901E+01  0.74217045202E+01  0.78232381465E+01  0.51100000000E-03 0. -1.
        -11    1    3    3    0    0 -0.33778680905E+01 -0.73969203096E+01  0.15485118537E+01  0.82778204937E+01  0.51100000000E-03 0.  1.
         12    1    3    3    0    0 -0.56442138201E+01  0.19535081229E+02 -0.38116469803E+02  0.43201178439E+02  0.00000000000E+00 0. -1.
</event>
<event>
 7    1  0.6515090E-012  0.5930193E+02  0.7816164E-02  0.1266605E+00
        -11   -1    0    0    0    0  0.00000000000E+00  0.00000000000E+00  0.45593999997E+02  0.45594000000E+02  0.51100000000E-03 0.  1.
         11   -1    0    0    0    0 -0.00000000000E+00 -0.00000000000E+00 -0.45593999997E+02  0.45594000000E+02  0.51100000000E-03 0. -1.
    9900012    2    1    2    0    0  0.16714002201E+02  0.14002958350E+02 -0.23265438037E+02  0.59301932209E+02  0.49999978446E+02 0.  0.
        -12    1    1    2    0    0 -0.16714002201E+02 -0.14002958350E+02  0.23265438037E+02  0.31886067791E+02  0.00000000000E+00 0.  1.
         11    1    3    3    0    0  0.14851873486E+01  0.17320810986E+02 -0.13314581565E+02  0.21897359594E+02  0.51100000000E-03 0. -1.
        -11    1    3    3    0    0 -0.73929246585E+01  0.44002213580E+01 -0.10401162573E+02  0.13498202329E+02  0.51100000000E-03 0.  1.
         12    1    3    3    0    0  0.22621739511E+02 -0.77180739937E+01  0.45030610077E+00  0.23906370286E+02  0.00000000000E+00 0. -1.
</event>
<event>
 7    1  0.6515090E-012  0.5930194E+02  0.7816164E-02  0.1266605E+00
        -11   -1    0    0    0    0  0.00000000000E+00  0.00000000000E+00  0.45593999997E+02  0.45594000000E+02  0.51100000000E-03 0. -1.
         11   -1    0    0    0    0 -0.00000000000E+00 -0.00000000000E+00 -0.45593999997E+02  0.45594000000E+02  0.51100000000E-03 0.  1.
    9900012    2    1    2    0    0  0.21239789994E+02 -0.71540725421E+01  0.22680638523E+02  0.59301940401E+02  0.49999993386E+02 0.  0.
        -12    1    1    2    0    0 -0.21239789994E+02  0.71540725421E+01 -0.22680638523E+02  0.31886059599E+02  0.00000000000E+00 0.  1.
         11    1    3    3    0    0  0.37319019600E+00 -0.31734434808E+01  0.21057048931E+01  0.38267489866E+01  0.51100000000E-03 0. -1.
        -11    1    3    3    0    0 -0.12359708130E+02 -0.71829500662E+01  0.16524843639E+02  0.21850117031E+02  0.51100000000E-03 0.  1.
         12    1    3    3    0    0  0.33226307928E+02  0.32023210049E+01  0.40500899916E+01  0.33625074383E+02  0.00000000000E+00 0. -1.
</event>
<event>
 7    1  0.6515090E-012  0.5930194E+02  0.7816164E-02  0.1266605E+00
        -11   -1    0    0    0    0  0.00000000000E+00  0.00000000000E+00  0.45593999997E+02  0.45594000000E+02  0.51100000000E-03 0. -1.
         11   -1    0    0    0    0 -0.00000000000E+00 -0.00000000000E+00 -0.45593999997E+02  0.45594000000E+02  0.51100000000E-03 0.  1.
    9900012    2    1    2    0    0  0.21466882761E+02  0.22914962385E+02 -0.55496192091E+01  0.59301939880E+02  0.49999992436E+02 0.  0.
        -12    1    1    2    0    0 -0.21466882761E+02 -0.22914962385E+02  0.55496192091E+01  0.31886060120E+02  0.00000000000E+00 0.  1.
         11    1    3    3    0    0  0.31340888861E+02  0.13788791497E+02 -0.21436925535E+01  0.34307105730E+02  0.51100000000E-03 0. -1.
        -11    1    3    3    0    0  0.92615172843E+00  0.78858329888E+00  0.74564010749E+01  0.75549677626E+01  0.51100000000E-03 0.  1.
        -12    1    3    3    0    0 -0.10800157827E+02  0.83375875887E+01 -0.10862327730E+02  0.17439866388E+02  0.00000000000E+00 0.  1.
</event>
<event>
 7    1  0.6515090E-012  0.5930196E+02  0.7816164E-02  0.1266605E+00
        -11   -1    0    0    0    0  0.00000000000E+00  0.00000000000E+00  0.45593999997E+02  0.45594000000E+02  0.51100000000E-03 0.  1.
         11   -1    0    0    0    0 -0.00000000000E+00 -0.00000000000E+00 -0.45593999997E+02  0.45594000000E+02  0.51100000000E-03 0. -1.
    9900012    2    1    2    0    0 -0.19985965747E+02  0.10567075488E+02 -0.22485941234E+02  0.59301961293E+02  0.50000031488E+02 0.  0.
        -12    1    1    2    0    0  0.19985965747E+02 -0.10567075488E+02  0.22485941234E+02  0.31886038707E+02  0.00000000000E+00 0.  1.
         11    1    3    3    0    0  0.16325324970E+01  0.23712017232E+01 -0.72269821134E+01  0.77792692905E+01  0.51100000000E-03 0. -1.
        -11    1    3    3    0    0  0.34407774306E+01 -0.63289125440E+01 -0.20818444105E+02  0.22029564193E+02  0.51100000000E-03 0.  1.
         12    1    3    3    0    0 -0.25059275675E+02  0.14524786309E+02  0.55594849844E+01  0.29493127809E+02  0.00000000000E+00 0. -1.
</event>
<event>
 7    1  0.6515090E-012  0.5930198E+02  0.7816164E-02  0.1266605E+00
        -11   -1    0    0    0    0  0.00000000000E+00  0.00000000000E+00  0.45593999997E+02  0.45594000000E+02  0.51100000000E-03 0.  1.
         11   -1    0    0    0    0 -0.00000000000E+00 -0.00000000000E+00 -0.45593999997E+02  0.45594000000E+02  0.51100000000E-03 0. -1.
    9900012    2    1    2    0    0 -0.39035708599E+01 -0.12050963871E+02 -0.29261826071E+02  0.59301983305E+02  0.50000071631E+02 0.  0.
        -12    1    1    2    0    0  0.39035708599E+01  0.12050963871E+02  0.29261826071E+02  0.31886016695E+02  0.00000000000E+00 0.  1.
         11    1    3    3    0    0  0.12619432185E+02  0.66309899007E+01 -0.18548141223E+02  0.23393452905E+02  0.51100000000E-03 0. -1.
        -11    1    3    3    0    0  0.55428413551E+01 -0.13524342598E+01 -0.42550747557E+01  0.71174314295E+01  0.51100000000E-03 0.  1.
        -12    1    3    3    0    0 -0.22065844400E+02 -0.17329519512E+02 -0.64586100925E+01  0.28791098970E+02  0.00000000000E+00 0.  1.
</event>
<event>
 7    1  0.6515090E-012  0.5930193E+02  0.7816164E-02  0.1266605E+00
        -11   -1    0    0    0    0  0.00000000000E+00  0.00000000000E+00  0.45593999997E+02  0.45594000000E+02  0.51100000000E-03 0.  1.
         11   -1    0    0    0    0 -0.00000000000E+00 -0.00000000000E+00 -0.45593999997E+02  0.45594000000E+02  0.51100000000E-03 0. -1.
    9900012    2    1    2    0    0 -0.24025562072E+02 -0.19961574514E+02 -0.64054246403E+01  0.59301928514E+02  0.49999971708E+02 0.  0.
        -12    1    1    2    0    0  0.24025562072E+02  0.19961574514E+02  0.64054246403E+01  0.31886071486E+02  0.00000000000E+00 0.  1.
         11    1    3    3    0    0 -0.27948154190E+02 -0.17644225566E+02  0.30662642517E+01  0.33193674023E+02  0.51100000000E-03 0. -1.
        -11    1    3    3    0    0 -0.73889788842E+01 -0.93117869918E+00 -0.12288498889E+02  0.14369109504E+02  0.51100000000E-03 0.  1.
        -12    1    3    3    0    0  0.11311571002E+02 -0.13861702484E+01  0.28168099970E+01  0.11739144988E+02  0.00000000000E+00 0.  1.
</event>
<event>
 7    1  0.6515090E-012  0.5930195E+02  0.7816164E-02  0.1266605E+00
        -11   -1    0    0    0    0  0.00000000000E+00  0.00000000000E+00  0.45593999997E+02  0.45594000000E+02  0.51100000000E-03 0.  1.
         11   -1    0    0    0    0 -0.00000000000E+00 -0.00000000000E+00 -0.45593999997E+02  0.45594000000E+02  0.51100000000E-03 0. -1.
    9900012    2    1    2    0    0 -0.20677950938E+02 -0.12162273192E+02 -0.21005274088E+02  0.59301951582E+02  0.50000013777E+02 0.  0.
        -12    1    1    2    0    0  0.20677950938E+02  0.12162273192E+02  0.21005274088E+02  0.31886048418E+02  0.00000000000E+00 0.  1.
         11    1    3    3    0    0 -0.54891300317E+01  0.85495895926E+01 -0.21983730431E+01  0.10395137084E+02  0.51100000000E-03 0. -1.
        -11    1    3    3    0    0  0.96272430146E+01  0.18232299965E+01 -0.10520452506E+02  0.14376644145E+02  0.51100000000E-03 0.  1.
         12    1    3    3    0    0 -0.24816063921E+02 -0.22535092781E+02 -0.82864485393E+01  0.34530170353E+02  0.00000000000E+00 0. -1.
</event>
<event>
 7    1  0.6515090E-012  0.5930191E+02  0.7816164E-02  0.1266605E+00
        -11   -1    0    0    0    0  0.00000000000E+00  0.00000000000E+00  0.45593999997E+02  0.45594000000E+02  0.51100000000E-03 0.  1.
         11   -1    0    0    0    0 -0.00000000000E+00 -0.00000000000E+00 -0.45593999997E+02  0.45594000000E+02  0.51100000000E-03 0. -1.
    9900012    2    1    2    0    0  0.30908661133E+01  0.47531437421E+01 -0.31377964499E+02  0.59301913930E+02  0.49999945109E+02 0.  0.
        -12    1    1    2    0    0 -0.30908661133E+01 -0.47531437421E+01  0.31377964499E+02  0.31886086070E+02  0.00000000000E+00 0.  1.
         11    1    3    3    0    0  0.60217682655E+01  0.12523009711E+02 -0.50561078204E+01  0.14786875661E+02  0.51100000000E-03 0. -1.
        -11    1    3    3    0    0  0.48859230348E+01 -0.70706068766E+01  0.64950806561E+01  0.10772734031E+02  0.51100000000E-03 0.  1.
         12    1    3    3    0    0 -0.78168251871E+01 -0.69925909197E+00 -0.32816937335E+02  0.33742304238E+02  0.00000000000E+00 0. -1.
</event>
<event>
 7    1  0.6515090E-012  0.5930195E+02  0.7816164E-02  0.1266605E+00
        -11   -1    0    0    0    0  0.00000000000E+00  0.00000000000E+00  0.45593999997E+02  0.45594000000E+02  0.51100000000E-03 0.  1.
         11   -1    0    0    0    0 -0.00000000000E+00 -0.00000000000E+00 -0.45593999997E+02  0.45594000000E+02  0.51100000000E-03 0. -1.
    9900012    2    1    2    0    0 -0.17573556254E+01  0.12898842534E+02 -0.29107586302E+02  0.59301952615E+02  0.50000015661E+02 0.  0.
        -12    1    1    2    0    0  0.17573556254E+01 -0.12898842534E+02  0.29107586302E+02  0.31886047385E+02  0.00000000000E+00 0.  1.
         11    1    3    3    0    0  0.12858846887E+02 -0.57123495917E+01 -0.37601287823E+01  0.14564321126E+02  0.51100000000E-03 0. -1.
        -11    1    3    3    0    0  0.74060270528E+01  0.59119631892E+01 -0.13983159733E+02  0.16891693279E+02  0.51100000000E-03 0.  1.
        -12    1    3    3    0    0 -0.22022229566E+02  0.12699228936E+02 -0.11364297787E+02  0.27845938210E+02  0.00000000000E+00 0.  1.
</event>
<event>
 7    1  0.6515090E-012  0.5930193E+02  0.7816164E-02  0.1266605E+00
        -11   -1    0    0    0    0  0.00000000000E+00  0.00000000000E+00  0.45593999997E+02  0.45594000000E+02  0.51100000000E-03 0.  1.
         11   -1    0    0    0    0 -0.00000000000E+00 -0.00000000000E+00 -0.45593999997E+02  0.45594000000E+02  0.51100000000E-03 0. -1.
    9900012    2    1    2    0    0  0.16932466316E+02 -0.14207953524E+02 -0.22981451754E+02  0.59301929631E+02  0.49999973744E+02 0.  0.
        -12    1    1    2    0    0 -0.16932466316E+02  0.14207953524E+02  0.22981451754E+02  0.31886070369E+02  0.00000000000E+00 0.  1.
         11    1    3    3    0    0  0.89702201540E+01  0.66220162793E+01 -0.76224702618E+01  0.13506220877E+02  0.51100000000E-03 0. -1.
        -11    1    3    3    0    0 -0.53067540168E-01 -0.24769970833E+02 -0.23179691340E+02  0.33924214982E+02  0.51100000000E-03 0.  1.
         12    1    3    3    0    0  0.80153137024E+01  0.39400010304E+01  0.78207098481E+01  0.11871493773E+02  0.00000000000E+00 0. -1.
</event>
<event>
 7    1  0.6515090E-012  0.5930195E+02  0.7816164E-02  0.1266605E+00
        -11   -1    0    0    0    0  0.00000000000E+00  0.00000000000E+00  0.45593999997E+02  0.45594000000E+02  0.51100000000E-03 0.  1.
         11   -1    0    0    0    0 -0.00000000000E+00 -0.00000000000E+00 -0.45593999997E+02  0.45594000000E+02  0.51100000000E-03 0. -1.
    9900012    2    1    2    0    0 -0.18308208980E+01 -0.43476164054E+01 -0.31535164341E+02  0.59301948761E+02  0.50000008633E+02 0.  0.
        -12    1    1    2    0    0  0.18308208980E+01  0.43476164054E+01  0.31535164341E+02  0.31886051239E+02  0.00000000000E+00 0.  1.
         11    1    3    3    0    0  0.25395775435E+01 -0.66368799650E+01 -0.11901997370E+02  0.13862004596E+02  0.51100000000E-03 0. -1.
        -11    1    3    3    0    0 -0.13888249355E+02 -0.88253838729E+01 -0.24935772030E+02  0.29875802879E+02  0.51100000000E-03 0.  1.
        -12    1    3    3    0    0  0.95178509137E+01  0.11114647433E+02  0.53026050592E+01  0.15564141286E+02  0.00000000000E+00 0.  1.
</event>
<event>
 7    1  0.6515090E-012  0.5930193E+02  0.7816164E-02  0.1266605E+00
        -11   -1    0    0    0    0  0.00000000000E+00  0.00000000000E+00  0.45593999997E+02  0.45594000000E+02  0.51100000000E-03 0. -1.
         11   -1    0    0    0    0 -0.00000000000E+00 -0.00000000000E+00 -0.45593999997E+02  0.45594000000E+02  0.51100000000E-03 0.  1.
    9900012    2    1    2    0    0 -0.21319196644E+02  0.21206524391E+02  0.10606453300E+02  0.59301926647E+02  0.49999968301E+02 0.  0.
        -12    1    1    2    0    0  0.21319196644E+02 -0.21206524391E+02 -0.10606453300E+02  0.31886073353E+02  0.00000000000E+00 0.  1.
         11    1    3    3    0    0 -0.15593023281E+02  0.20157920097E+02  0.19128795174E+02  0.31865262007E+02  0.51100000000E-03 0. -1.
        -11    1    3    3    0    0  0.75007799109E+01  0.51037935187E+01 -0.10024893564E+02  0.13520684109E+02  0.51100000000E-03 0.  1.
         12    1    3    3    0    0 -0.13226953273E+02 -0.40551892248E+01  0.15025516910E+01  0.13915980531E+02  0.00000000000E+00 0. -1.
</event>
<event>
 7    1  0.6515090E-012  0.5930194E+02  0.7816164E-02  0.1266605E+00
        -11   -1    0    0    0    0  0.00000000000E+00  0.00000000000E+00  0.45593999997E+02  0.45594000000E+02  0.51100000000E-03 0.  1.
         11   -1    0    0    0    0 -0.00000000000E+00 -0.00000000000E+00 -0.45593999997E+02  0.45594000000E+02  0.51100000000E-03 0. -1.
    9900012    2    1    2    0    0 -0.88877697002E+01 -0.77701282883E+01 -0.29620154951E+02  0.59301938418E+02  0.49999989769E+02 0.  0.
        -12    1    1    2    0    0  0.88877697002E+01  0.77701282883E+01  0.29620154951E+02  0.31886061582E+02  0.00000000000E+00 0.  1.
         11    1    3    3    0    0  0.54768461772E+01  0.10664162500E+02 -0.14754102134E+02  0.19010621661E+02  0.51100000000E-03 0. -1.
        -11    1    3    3    0    0 -0.84902654463E+01 -0.29047940372E+01 -0.20805017867E+02  0.22657696363E+02  0.51100000000E-03 0.  1.
        -12    1    3    3    0    0 -0.58743504311E+01 -0.15529496751E+02  0.59389650505E+01  0.17633620394E+02  0.00000000000E+00 0.  1.
</event>
<event>
 7    1  0.6515090E-012  0.5930196E+02  0.7816164E-02  0.1266605E+00
        -11   -1    0    0    0    0  0.00000000000E+00  0.00000000000E+00  0.45593999997E+02  0.45594000000E+02  0.51100000000E-03 0.  1.
         11   -1    0    0    0    0 -0.00000000000E+00 -0.00000000000E+00 -0.45593999997E+02  0.45594000000E+02  0.51100000000E-03 0. -1.
    9900012    2    1    2    0    0 -0.29819482705E+02 -0.74756059522E+01 -0.84636418713E+01  0.59301961254E+02  0.50000031417E+02 0.  0.
        -12    1    1    2    0    0  0.29819482705E+02  0.74756059522E+01  0.84636418713E+01  0.31886038746E+02  0.00000000000E+00 0.  1.
         11    1    3    3    0    0 -0.58103109921E+01  0.95493624583E+01 -0.35138950841E+01  0.11717401423E+02  0.51100000000E-03 0. -1.
        -11    1    3    3    0    0 -0.15265519253E+01 -0.32120454886E+01 -0.17858655729E+02  0.18209315794E+02  0.51100000000E-03 0.  1.
        -12    1    3    3    0    0 -0.22482619788E+02 -0.13812922922E+02  0.12908908941E+02  0.29375244037E+02  0.00000000000E+00 0.  1.
</event>
<event>
 7    1  0.6515090E-012  0.5930196E+02  0.7816164E-02  0.1266605E+00
        -11   -1    0    0    0    0  0.00000000000E+00  0.00000000000E+00  0.45593999997E+02  0.45594000000E+02  0.51100000000E-03 0. -1.
         11   -1    0    0    0    0 -0.00000000000E+00 -0.00000000000E+00 -0.45593999997E+02  0.45594000000E+02  0.51100000000E-03 0.  1.
    9900012    2    1    2    0    0 -0.28944705751E+02  0.68299395032E+01 -0.11501110861E+02  0.59301958922E+02  0.50000027163E+02 0.  0.
        -12    1    1    2    0    0  0.28944705751E+02 -0.68299395032E+01  0.11501110861E+02  0.31886041078E+02  0.00000000000E+00 0.  1.
         11    1    3    3    0    0 -0.13349899422E+02  0.37760158997E-01 -0.77123107313E+01  0.15417554199E+02  0.51100000000E-03 0.  1.
        -11    1    3    3    0    0 -0.12229820288E+01  0.22267835802E+02  0.61716953705E+00  0.22309932650E+02  0.51100000000E-03 0. -1.
         12    1    3    3    0    0 -0.14371824300E+02 -0.15475656458E+02 -0.44059696671E+01  0.21574472073E+02  0.00000000000E+00 0. -1.
</event>
<event>
 7    1  0.6515090E-012  0.5930182E+02  0.7816164E-02  0.1266605E+00
        -11   -1    0    0    0    0  0.00000000000E+00  0.00000000000E+00  0.45593999997E+02  0.45594000000E+02  0.51100000000E-03 0. -1.
         11   -1    0    0    0    0 -0.00000000000E+00 -0.00000000000E+00 -0.45593999997E+02  0.45594000000E+02  0.51100000000E-03 0.  1.
    9900012    2    1    2    0    0  0.24016276592E+02  0.15320782007E+02  0.14325511715E+02  0.59301824492E+02  0.49999781995E+02 0.  0.
        -12    1    1    2    0    0 -0.24016276592E+02 -0.15320782007E+02 -0.14325511715E+02  0.31886175508E+02  0.00000000000E+00 0.  1.
         11    1    3    3    0    0  0.11105703671E+01 -0.50996797930E+01 -0.81569035239E+00  0.52825610781E+01  0.51100000000E-03 0. -1.
        -11    1    3    3    0    0  0.20075697389E+02  0.29958798303E+01 -0.10528017433E+02  0.22865871357E+02  0.51100000000E-03 0.  1.
         12    1    3    3    0    0  0.28300088358E+01  0.17424581970E+02  0.25669219501E+02  0.31153392056E+02  0.00000000000E+00 0. -1.
</event>
<event>
 7    1  0.6515090E-012  0.5930193E+02  0.7816164E-02  0.1266605E+00
        -11   -1    0    0    0    0  0.00000000000E+00  0.00000000000E+00  0.45593999997E+02  0.45594000000E+02  0.51100000000E-03 0. -1.
         11   -1    0    0    0    0 -0.00000000000E+00 -0.00000000000E+00 -0.45593999997E+02  0.45594000000E+02  0.51100000000E-03 0.  1.
    9900012    2    1    2    0    0  0.52487910741E+01  0.12187555418E+02  0.28993704638E+02  0.59301933710E+02  0.49999981184E+02 0.  0.
        -12    1    1    2    0    0 -0.52487910741E+01 -0.12187555418E+02 -0.28993704638E+02  0.31886066290E+02  0.00000000000E+00 0.  1.
         11    1    3    3    0    0  0.62330284186E+01 -0.51461814698E+01  0.20209728948E+02  0.21766188720E+02  0.51100000000E-03 0. -1.
        -11    1    3    3    0    0  0.50842355632E+01 -0.64917455523E+01  0.99491345887E+01  0.12921977051E+02  0.51100000000E-03 0.  1.
        -12    1    3    3    0    0 -0.60684729078E+01  0.23825482440E+02 -0.11651588985E+01  0.24613767940E+02  0.00000000000E+00 0.  1.
</event>
<event>
 7    1  0.6515090E-012  0.5930194E+02  0.7816164E-02  0.1266605E+00
        -11   -1    0    0    0    0  0.00000000000E+00  0.00000000000E+00  0.45593999997E+02  0.45594000000E+02  0.51100000000E-03 0.  1.
         11   -1    0    0    0    0 -0.00000000000E+00 -0.00000000000E+00 -0.45593999997E+02  0.45594000000E+02  0.51100000000E-03 0. -1.
    9900012    2    1    2    0    0 -0.35186570000E+01 -0.57364543684E+01 -0.31167820378E+02  0.59301939049E+02  0.49999990921E+02 0.  0.
        -12    1    1    2    0    0  0.35186570000E+01  0.57364543684E+01  0.31167820378E+02  0.31886060951E+02  0.00000000000E+00 0.  1.
         11    1    3    3    0    0  0.33508584601E+01 -0.12860676019E+02 -0.23813746111E+02  0.27271225572E+02  0.51100000000E-03 0. -1.
        -11    1    3    3    0    0 -0.12010991236E+02 -0.60904277070E+01  0.37966604479E+01  0.13991849447E+02  0.51100000000E-03 0.  1.
         12    1    3    3    0    0  0.51414757763E+01  0.13214649358E+02 -0.11150734715E+02  0.18038864030E+02  0.00000000000E+00 0. -1.
</event>
<event>
 7    1  0.6515090E-012  0.5930197E+02  0.7816164E-02  0.1266605E+00
        -11   -1    0    0    0    0  0.00000000000E+00  0.00000000000E+00  0.45593999997E+02  0.45594000000E+02  0.51100000000E-03 0. -1.
         11   -1    0    0    0    0 -0.00000000000E+00 -0.00000000000E+00 -0.45593999997E+02  0.45594000000E+02  0.51100000000E-03 0.  1.
    9900012    2    1    2    0    0  0.17445574349E+02  0.42359366873E+01  0.26351992229E+02  0.59301972991E+02  0.50000052821E+02 0.  0.
        -12    1    1    2    0    0 -0.17445574349E+02 -0.42359366873E+01 -0.26351992229E+02  0.31886027009E+02  0.00000000000E+00 0.  1.
         11    1    3    3    0    0 -0.12440963286E+02 -0.93900533525E+01  0.38018316023E+01  0.16043833496E+02  0.51100000000E-03 0. -1.
        -11    1    3    3    0    0  0.77383858696E+01  0.39955134685E+01 -0.18752955711E+01  0.89086181580E+01  0.51100000000E-03 0.  1.
        -12    1    3    3    0    0  0.22148151765E+02  0.96304765713E+01  0.24425456198E+02  0.34349521337E+02  0.00000000000E+00 0.  1.
</event>
<event>
 7    1  0.6515090E-012  0.5930197E+02  0.7816164E-02  0.1266605E+00
        -11   -1    0    0    0    0  0.00000000000E+00  0.00000000000E+00  0.45593999997E+02  0.45594000000E+02  0.51100000000E-03 0.  1.
         11   -1    0    0    0    0 -0.00000000000E+00 -0.00000000000E+00 -0.45593999997E+02  0.45594000000E+02  0.51100000000E-03 0. -1.
    9900012    2    1    2    0    0 -0.17720201016E+02  0.20927733050E+01  0.26426001943E+02  0.59301971668E+02  0.50000050408E+02 0.  0.
        -12    1    1    2    0    0  0.17720201016E+02 -0.20927733050E+01 -0.26426001943E+02  0.31886028332E+02  0.00000000000E+00 0.  1.
         11    1    3    3    0    0 -0.18040314796E+02 -0.66086057668E+01  0.24380483368E+02  0.31040853687E+02  0.51100000000E-03 0. -1.
        -11    1    3    3    0    0 -0.91576466233E+01  0.78991384566E+01  0.10131641378E+02  0.15776851312E+02  0.51100000000E-03 0.  1.
         12    1    3    3    0    0  0.94777604035E+01  0.80224061516E+00 -0.80861228032E+01  0.12484266669E+02  0.00000000000E+00 0. -1.
</event>
<event>
 7    1  0.6515090E-012  0.5930193E+02  0.7816164E-02  0.1266605E+00
        -11   -1    0    0    0    0  0.00000000000E+00  0.00000000000E+00  0.45593999997E+02  0.45594000000E+02  0.51100000000E-03 0.  1.
         11   -1    0    0    0    0 -0.00000000000E+00 -0.00000000000E+00 -0.45593999997E+02  0.45594000000E+02  0.51100000000E-03 0. -1.
    9900012    2    1    2    0    0  0.14494490486E+01  0.66440384460E+01 -0.31152481318E+02  0.59301933424E+02  0.49999980662E+02 0.  0.
        -12    1    1    2    0    0 -0.14494490486E+01 -0.66440384460E+01  0.31152481318E+02  0.31886066576E+02  0.00000000000E+00 0.  1.
         11    1    3    3    0    0 -0.18098533144E+01 -0.20963769570E+01 -0.31940520990E+01  0.42275683836E+01  0.51100000000E-03 0. -1.
        -11    1    3    3    0    0  0.54680572816E+01 -0.18774581930E+02 -0.86168109845E+01  0.21368996441E+02  0.51100000000E-03 0.  1.
         12    1    3    3    0    0 -0.22087549186E+01  0.27514997333E+02 -0.19341618234E+02  0.33705368600E+02  0.00000000000E+00 0. -1.
</event>
<event>
 7    1  0.6515090E-012  0.5930195E+02  0.7816164E-02  0.1266605E+00
        -11   -1    0    0    0    0  0.00000000000E+00  0.00000000000E+00  0.45593999997E+02  0.45594000000E+02  0.51100000000E-03 0.  1.
         11   -1    0    0    0    0 -0.00000000000E+00 -0.00000000000E+00 -0.45593999997E+02  0.45594000000E+02  0.51100000000E-03 0. -1.
    9900012    2    1    2    0    0 -0.15046987674E+01 -0.76504066087E+01 -0.30918078067E+02  0.59301946764E+02  0.50000004990E+02 0.  0.
        -12    1    1    2    0    0  0.15046987674E+01  0.76504066087E+01  0.30918078067E+02  0.31886053236E+02  0.00000000000E+00 0.  1.
         11    1    3    3    0    0  0.79698662003E+01 -0.11675434303E+02 -0.28016007277E+02  0.31380426980E+02  0.51100000000E-03 0. -1.
        -11    1    3    3    0    0 -0.24953257680E+01 -0.89061879049E+01 -0.81404814138E+01  0.12321293422E+02  0.51100000000E-03 0.  1.
        -12    1    3    3    0    0 -0.69792391996E+01  0.12931215599E+02  0.52384106244E+01  0.15600226362E+02  0.00000000000E+00 0.  1.
</event>
<event>
 7    1  0.6515090E-012  0.5930192E+02  0.7816164E-02  0.1266605E+00
        -11   -1    0    0    0    0  0.00000000000E+00  0.00000000000E+00  0.45593999997E+02  0.45594000000E+02  0.51100000000E-03 0.  1.
         11   -1    0    0    0    0 -0.00000000000E+00 -0.00000000000E+00 -0.45593999997E+02  0.45594000000E+02  0.51100000000E-03 0. -1.
    9900012    2    1    2    0    0 -0.61746018477E+01 -0.59173745398E+01 -0.30717762758E+02  0.59301921873E+02  0.49999959596E+02 0.  0.
        -12    1    1    2    0    0  0.61746018477E+01  0.59173745398E+01  0.30717762758E+02  0.31886078127E+02  0.00000000000E+00 0.  1.
         11    1    3    3    0    0 -0.10524274059E+02 -0.43579115930E+01 -0.39107205760E+01  0.12043482620E+02  0.51100000000E-03 0. -1.
        -11    1    3    3    0    0 -0.12952781915E+02 -0.25950618597E+00 -0.26954819065E+02  0.29906590811E+02  0.51100000000E-03 0.  1.
        -12    1    3    3    0    0  0.17302454127E+02 -0.12999567607E+01  0.14777688309E+00  0.17351848443E+02  0.00000000000E+00 0.  1.
</event>
<event>
 7    1  0.6515090E-012  0.5930186E+02  0.7816164E-02  0.1266605E+00
        -11   -1    0    0    0    0  0.00000000000E+00  0.00000000000E+00  0.45593999997E+02  0.45594000000E+02  0.51100000000E-03 0.  1.
         11   -1    0    0    0    0 -0.00000000000E+00 -0.00000000000E+00 -0.45593999997E+02  0.45594000000E+02  0.51100000000E-03 0. -1.
    9900012    2    1    2    0    0  0.52288466177E+01 -0.17508622298E+02 -0.26131075205E+02  0.59301862211E+02  0.49999850786E+02 0.  0.
        -12    1    1    2    0    0 -0.52288466177E+01  0.17508622298E+02  0.26131075205E+02  0.31886137789E+02  0.00000000000E+00 0.  1.
         11    1    3    3    0    0 -0.15521104817E+01 -0.88696501709E+01 -0.29695739140E+02  0.31030898544E+02  0.51100000000E-03 0. -1.
        -11    1    3    3    0    0  0.80191191102E+01 -0.58561081635E+01 -0.10163450565E+02  0.14209011288E+02  0.51100000000E-03 0.  1.
        -12    1    3    3    0    0 -0.12381620107E+01 -0.27828639635E+01  0.13728114500E+02  0.14061952380E+02  0.00000000000E+00 0.  1.
</event>
<event>
 7    1  0.6515090E-012  0.5930195E+02  0.7816164E-02  0.1266605E+00
        -11   -1    0    0    0    0  0.00000000000E+00  0.00000000000E+00  0.45593999997E+02  0.45594000000E+02  0.51100000000E-03 0.  1.
         11   -1    0    0    0    0 -0.00000000000E+00 -0.00000000000E+00 -0.45593999997E+02  0.45594000000E+02  0.51100000000E-03 0. -1.
    9900012    2    1    2    0    0  0.18791449128E+02 -0.13549330554E+02 -0.21909300007E+02  0.59301947476E+02  0.50000006288E+02 0.  0.
        -12    1    1    2    0    0 -0.18791449128E+02  0.13549330554E+02  0.21909300007E+02  0.31886052524E+02  0.00000000000E+00 0.  1.
         11    1    3    3    0    0  0.11393010450E+02 -0.45987022853E+01 -0.65689266560E+01  0.13931961366E+02  0.51100000000E-03 0. -1.
        -11    1    3    3    0    0  0.61530162651E+01  0.10975608637E+01  0.13460710558E+02  0.14840989792E+02  0.51100000000E-03 0.  1.
         12    1    3    3    0    0  0.12454224125E+01 -0.10048189133E+02 -0.28801083909E+02  0.30528996318E+02  0.00000000000E+00 0. -1.
</event>
<event>
 7    1  0.6515090E-012  0.5930191E+02  0.7816164E-02  0.1266605E+00
        -11   -1    0    0    0    0  0.00000000000E+00  0.00000000000E+00  0.45593999997E+02  0.45594000000E+02  0.51100000000E-03 0.  1.
         11   -1    0    0    0    0 -0.00000000000E+00 -0.00000000000E+00 -0.45593999997E+02  0.45594000000E+02  0.51100000000E-03 0. -1.
    9900012    2    1    2    0    0 -0.93594418038E+01 -0.28714042237E+02  0.10228740154E+02  0.59301913730E+02  0.49999944744E+02 0.  0.
        -12    1    1    2    0    0  0.93594418038E+01  0.28714042237E+02 -0.10228740154E+02  0.31886086270E+02  0.00000000000E+00 0.  1.
         11    1    3    3    0    0 -0.52321209313E+01 -0.14141179724E+02  0.10841808950E+02  0.18571291688E+02  0.51100000000E-03 0. -1.
        -11    1    3    3    0    0  0.72155818199E+01 -0.17592037793E+02  0.12788992286E+02  0.22915120306E+02  0.51100000000E-03 0.  1.
         12    1    3    3    0    0 -0.11342902692E+02  0.30191752795E+01 -0.13402061081E+02  0.17815501735E+02  0.00000000000E+00 0. -1.
</event>
<event>
 7    1  0.6515090E-012  0.5930196E+02  0.7816164E-02  0.1266605E+00
        -11   -1    0    0    0    0  0.00000000000E+00  0.00000000000E+00  0.45593999997E+02  0.45594000000E+02  0.51100000000E-03 0.  1.
         11   -1    0    0    0    0 -0.00000000000E+00 -0.00000000000E+00 -0.45593999997E+02  0.45594000000E+02  0.51100000000E-03 0. -1.
    9900012    2    1    2    0    0 -0.28652659734E+02 -0.13543193273E+01 -0.13925184671E+02  0.59301955109E+02  0.50000020209E+02 0.  0.
        -12    1    1    2    0    0  0.28652659734E+02  0.13543193273E+01  0.13925184671E+02  0.31886044891E+02  0.00000000000E+00 0.  1.
         11    1    3    3    0    0 -0.19671020923E+02 -0.28391757784E+01 -0.44283188787E+01  0.20362219712E+02  0.51100000000E-03 0. -1.
        -11    1    3    3    0    0 -0.13173617262E+02 -0.15104520088E+02 -0.16338157605E+01  0.20108706399E+02  0.51100000000E-03 0.  1.
         12    1    3    3    0    0  0.41919784514E+01  0.16589376539E+02 -0.78630500320E+01  0.18831028997E+02  0.00000000000E+00 0. -1.
</event>
<event>
 7    1  0.6515090E-012  0.5930192E+02  0.7816164E-02  0.1266605E+00
        -11   -1    0    0    0    0  0.00000000000E+00  0.00000000000E+00  0.45593999997E+02  0.45594000000E+02  0.51100000000E-03 0.  1.
         11   -1    0    0    0    0 -0.00000000000E+00 -0.00000000000E+00 -0.45593999997E+02  0.45594000000E+02  0.51100000000E-03 0. -1.
    9900012    2    1    2    0    0  0.45429687191E+01  0.16210882124E+02 -0.27079344140E+02  0.59301919289E+02  0.49999954882E+02 0.  0.
        -12    1    1    2    0    0 -0.45429687191E+01 -0.16210882124E+02  0.27079344140E+02  0.31886080711E+02  0.00000000000E+00 0.  1.
         11    1    3    3    0    0 -0.70392139576E+01  0.26867426605E+02 -0.91050885401E+01  0.29228612405E+02  0.51100000000E-03 0. -1.
        -11    1    3    3    0    0  0.77698870691E+01 -0.12483053512E+01  0.15934034607E+01  0.80292182787E+01  0.51100000000E-03 0.  1.
        -12    1    3    3    0    0  0.38122956076E+01 -0.94082391296E+01 -0.19567659061E+02  0.22044088606E+02  0.00000000000E+00 0.  1.
</event>
<event>
 7    1  0.6515090E-012  0.5930199E+02  0.7816164E-02  0.1266605E+00
        -11   -1    0    0    0    0  0.00000000000E+00  0.00000000000E+00  0.45593999997E+02  0.45594000000E+02  0.51100000000E-03 0. -1.
         11   -1    0    0    0    0 -0.00000000000E+00 -0.00000000000E+00 -0.45593999997E+02  0.45594000000E+02  0.51100000000E-03 0.  1.
    9900012    2    1    2    0    0 -0.21045608923E+02 -0.19745742088E+02 -0.13561188493E+02  0.59301987096E+02  0.50000078547E+02 0.  0.
        -12    1    1    2    0    0  0.21045608923E+02  0.19745742088E+02  0.13561188493E+02  0.31886012904E+02  0.00000000000E+00 0.  1.
         11    1    3    3    0    0  0.40688907540E+01  0.35758780072E+01  0.33968986555E+01  0.63938795913E+01  0.51100000000E-03 0. -1.
        -11    1    3    3    0    0 -0.10177074441E+02  0.54340381122E+01 -0.16950508106E+02  0.20504178591E+02  0.51100000000E-03 0.  1.
         12    1    3    3    0    0 -0.14937425236E+02 -0.28755658208E+02 -0.75790423252E-02  0.32403928914E+02  0.00000000000E+00 0. -1.
</event>
<event>
 7    1  0.6515090E-012  0.5930194E+02  0.7816164E-02  0.1266605E+00
        -11   -1    0    0    0    0  0.00000000000E+00  0.00000000000E+00  0.45593999997E+02  0.45594000000E+02  0.51100000000E-03 0.  1.
         11   -1    0    0    0    0 -0.00000000000E+00 -0.00000000000E+00 -0.45593999997E+02  0.45594000000E+02  0.51100000000E-03 0. -1.
    9900012    2    1    2    0    0 -0.27902860532E+02 -0.73834125511E+01  0.13551250770E+02  0.59301940284E+02  0.49999993172E+02 0.  0.
        -12    1    1    2    0    0  0.27902860532E+02  0.73834125511E+01 -0.13551250770E+02  0.31886059716E+02  0.00000000000E+00 0.  1.
         11    1    3    3    0    0 -0.12240604318E+02 -0.18999203509E+02  0.11191739839E+02  0.25220173848E+02  0.51100000000E-03 0. -1.
        -11    1    3    3    0    0 -0.35446921228E+01 -0.34212224842E+01 -0.10004100208E+02  0.11151306057E+02  0.51100000000E-03 0.  1.
        -12    1    3    3    0    0 -0.12117564092E+02  0.15037013442E+02  0.12363611139E+02  0.22930460379E+02  0.00000000000E+00 0.  1.
</event>
<event>
 7    1  0.6515090E-012  0.5930194E+02  0.7816164E-02  0.1266605E+00
        -11   -1    0    0    0    0  0.00000000000E+00  0.00000000000E+00  0.45593999997E+02  0.45594000000E+02  0.51100000000E-03 0. -1.
         11   -1    0    0    0    0 -0.00000000000E+00 -0.00000000000E+00 -0.45593999997E+02  0.45594000000E+02  0.51100000000E-03 0.  1.
    9900012    2    1    2    0    0  0.22139119233E+00 -0.16294790575E+02  0.27407140116E+02  0.59301944376E+02  0.50000000635E+02 0.  0.
        -12    1    1    2    0    0 -0.22139119233E+00  0.16294790575E+02 -0.27407140116E+02  0.31886055624E+02  0.00000000000E+00 0.  1.
         11    1    3    3    0    0  0.16601609208E+02 -0.18929373931E+01  0.14519817660E+02  0.22136434794E+02  0.51100000000E-03 0. -1.
        -11    1    3    3    0    0 -0.12574436196E+00 -0.78993739192E+01 -0.70811343868E+01  0.10609353629E+02  0.51100000000E-03 0.  1.
         12    1    3    3    0    0 -0.16254473654E+02 -0.65024792625E+01  0.19968456842E+02  0.26556155953E+02  0.00000000000E+00 0. -1.
</event>
<event>
 7    1  0.6515090E-012  0.5930192E+02  0.7816164E-02  0.1266605E+00
        -11   -1    0    0    0    0  0.00000000000E+00  0.00000000000E+00  0.45593999997E+02  0.45594000000E+02  0.51100000000E-03 0.  1.
         11   -1    0    0    0    0 -0.00000000000E+00 -0.00000000000E+00 -0.45593999997E+02  0.45594000000E+02  0.51100000000E-03 0. -1.
    9900012    2    1    2    0    0 -0.32969027480E+01  0.31663263723E+02 -0.18138941777E+01  0.59301920758E+02  0.49999957561E+02 0.  0.
        -12    1    1    2    0    0  0.32969027480E+01 -0.31663263723E+02  0.18138941777E+01  0.31886079242E+02  0.00000000000E+00 0.  1.
         11    1    3    3    0    0 -0.96801277049E+01  0.20127152826E+02  0.15307948625E+02  0.27076566338E+02  0.51100000000E-03 0. -1.
        -11    1    3    3    0    0  0.73860659477E+01 -0.48664372502E+01 -0.51177085977E+00  0.88599148624E+01  0.51100000000E-03 0.  1.
        -12    1    3    3    0    0 -0.10028409908E+01  0.16402548147E+02 -0.16610071943E+02  0.23365439558E+02  0.00000000000E+00 0.  1.
</event>
<event>
 7    1  0.6515090E-012  0.5930193E+02  0.7816164E-02  0.1266605E+00
        -11   -1    0    0    0    0  0.00000000000E+00  0.00000000000E+00  0.45593999997E+02  0.45594000000E+02  0.51100000000E-03 0.  1.
         11   -1    0    0    0    0 -0.00000000000E+00 -0.00000000000E+00 -0.45593999997E+02  0.45594000000E+02  0.51100000000E-03 0. -1.
    9900012    2    1    2    0    0 -0.13381520833E+02  0.28875219431E+02  0.19692554640E+01  0.59301931505E+02  0.49999977162E+02 0.  0.
        -12    1    1    2    0    0  0.13381520833E+02 -0.28875219431E+02 -0.19692554640E+01  0.31886068495E+02  0.00000000000E+00 0.  1.
         11    1    3    3    0    0  0.69024917581E+01  0.13502556403E+02 -0.35078693028E+01  0.15564978933E+02  0.51100000000E-03 0. -1.
        -11    1    3    3    0    0 -0.22881646832E+01 -0.11010602247E+02 -0.45201993503E+00  0.11254926998E+02  0.51100000000E-03 0.  1.
        -12    1    3    3    0    0 -0.17995847908E+02  0.26383265275E+02  0.59291447018E+01  0.32482025574E+02  0.00000000000E+00 0.  1.
</event>
<event>
 7    1  0.6515090E-012  0.5930196E+02  0.7816164E-02  0.1266605E+00
        -11   -1    0    0    0    0  0.00000000000E+00  0.00000000000E+00  0.45593999997E+02  0.45594000000E+02  0.51100000000E-03 0.  1.
         11   -1    0    0    0    0 -0.00000000000E+00 -0.00000000000E+00 -0.45593999997E+02  0.45594000000E+02  0.51100000000E-03 0. -1.
    9900012    2    1    2    0    0 -0.22511251400E+01 -0.31674684855E+02  0.28924591248E+01  0.59301960032E+02  0.50000029188E+02 0.  0.
        -12    1    1    2    0    0  0.22511251400E+01  0.31674684855E+02 -0.28924591248E+01  0.31886039968E+02  0.00000000000E+00 0.  1.
         11    1    3    3    0    0  0.12183550802E+02 -0.25817670107E+02  0.12500485254E+02  0.31164934329E+02  0.51100000000E-03 0. -1.
        -11    1    3    3    0    0 -0.18567635229E+01  0.20923842526E+01  0.59710963401E+01  0.65939088866E+01  0.51100000000E-03 0.  1.
         12    1    3    3    0    0 -0.12577912419E+02 -0.79493989999E+01 -0.15579122469E+02  0.21543116816E+02  0.00000000000E+00 0. -1.
</event>
<event>
 7    1  0.6515090E-012  0.5930198E+02  0.7816164E-02  0.1266605E+00
        -11   -1    0    0    0    0  0.00000000000E+00  0.00000000000E+00  0.45593999997E+02  0.45594000000E+02  0.51100000000E-03 0. -1.
         11   -1    0    0    0    0 -0.00000000000E+00 -0.00000000000E+00 -0.45593999997E+02  0.45594000000E+02  0.51100000000E-03 0.  1.
    9900012    2    1    2    0    0  0.14349733051E+02 -0.10227781010E+02  0.26574342646E+02  0.59301983785E+02  0.50000072508E+02 0.  0.
        -12    1    1    2    0    0 -0.14349733051E+02  0.10227781010E+02 -0.26574342646E+02  0.31886016215E+02  0.00000000000E+00 0.  1.
         11    1    3    3    0    0  0.41314124372E+00  0.78870945247E+01  0.33571962523E+01  0.85818245535E+01  0.51100000000E-03 0. -1.
        -11    1    3    3    0    0 -0.10205778691E+02 -0.17440807378E+02  0.15152740528E+02  0.25257577605E+02  0.51100000000E-03 0.  1.
         12    1    3    3    0    0  0.24142370498E+02 -0.67406815696E+00  0.80644058651E+01  0.25462581627E+02  0.00000000000E+00 0. -1.
</event>
<event>
 7    1  0.6515090E-012  0.5930202E+02  0.7816164E-02  0.1266604E+00
        -11   -1    0    0    0    0  0.00000000000E+00  0.00000000000E+00  0.45593999997E+02  0.45594000000E+02  0.51100000000E-03 0. -1.
         11   -1    0    0    0    0 -0.00000000000E+00 -0.00000000000E+00 -0.45593999997E+02  0.45594000000E+02  0.51100000000E-03 0.  1.
    9900012    2    1    2    0    0 -0.95159835271E+01  0.58172804037E+01  0.29871740746E+02  0.59302022063E+02  0.50000142318E+02 0.  0.
        -12    1    1    2    0    0  0.95159835271E+01 -0.58172804037E+01 -0.29871740746E+02  0.31885977937E+02  0.00000000000E+00 0.  1.
         11    1    3    3    0    0  0.26634680006E+01  0.12908929283E+02  0.10775537244E+02  0.17024885321E+02  0.51100000000E-03 0. -1.
        -11    1    3    3    0    0  0.33397847081E+01 -0.32253760102E+00 -0.89267076844E+01  0.95364722379E+01  0.51100000000E-03 0.  1.
        -12    1    3    3    0    0 -0.15519236236E+02 -0.67691112784E+01  0.28022911186E+02  0.32740664505E+02  0.00000000000E+00 0.  1.
</event>
<event>
 7    1  0.6515090E-012  0.5930195E+02  0.7816164E-02  0.1266605E+00
        -11   -1    0    0    0    0  0.00000000000E+00  0.00000000000E+00  0.45593999997E+02  0.45594000000E+02  0.51100000000E-03 0. -1.
         11   -1    0    0    0    0 -0.00000000000E+00 -0.00000000000E+00 -0.45593999997E+02  0.45594000000E+02  0.51100000000E-03 0.  1.
    9900012    2    1    2    0    0 -0.25542527073E+02 -0.17891878863E+02 -0.66468342427E+01  0.59301946247E+02  0.50000004047E+02 0.  0.
        -12    1    1    2    0    0  0.25542527073E+02  0.17891878863E+02  0.66468342427E+01  0.31886053753E+02  0.00000000000E+00 0.  1.
         11    1    3    3    0    0 -0.19647889216E+02 -0.77939566031E+01 -0.23854180221E+02  0.31871730804E+02  0.51100000000E-03 0. -1.
        -11    1    3    3    0    0  0.19126595120E+01 -0.50511090440E+01 -0.22616819143E+01  0.58555251111E+01  0.51100000000E-03 0.  1.
        -12    1    3    3    0    0 -0.78072973693E+01 -0.50468132155E+01  0.19469027892E+02  0.21574690332E+02  0.00000000000E+00 0.  1.
</event>
<event>
 7    1  0.6515090E-012  0.5930196E+02  0.7816164E-02  0.1266605E+00
        -11   -1    0    0    0    0  0.00000000000E+00  0.00000000000E+00  0.45593999997E+02  0.45594000000E+02  0.51100000000E-03 0.  1.
         11   -1    0    0    0    0 -0.00000000000E+00 -0.00000000000E+00 -0.45593999997E+02  0.45594000000E+02  0.51100000000E-03 0. -1.
    9900012    2    1    2    0    0  0.10475476948E+02  0.28618199141E+02 -0.93799068021E+01  0.59301959308E+02  0.50000027868E+02 0.  0.
        -12    1    1    2    0    0 -0.10475476948E+02 -0.28618199141E+02  0.93799068021E+01  0.31886040692E+02  0.00000000000E+00 0.  1.
         11    1    3    3    0    0 -0.48067118689E+01  0.30081012263E+02  0.62616281742E+00  0.30469063948E+02  0.51100000000E-03 0. -1.
        -11    1    3    3    0    0  0.10518380315E+02  0.95565755070E+01 -0.18777152189E+01  0.14334931970E+02  0.51100000000E-03 0.  1.
        -12    1    3    3    0    0  0.47638085018E+01 -0.11019388629E+02 -0.81283544006E+01  0.14497963390E+02  0.00000000000E+00 0.  1.
</event>
<event>
 7    1  0.6515090E-012  0.5930177E+02  0.7816164E-02  0.1266605E+00
        -11   -1    0    0    0    0  0.00000000000E+00  0.00000000000E+00  0.45593999997E+02  0.45594000000E+02  0.51100000000E-03 0.  1.
         11   -1    0    0    0    0 -0.00000000000E+00 -0.00000000000E+00 -0.45593999997E+02  0.45594000000E+02  0.51100000000E-03 0. -1.
    9900012    2    1    2    0    0 -0.12276512619E+02 -0.29173775450E+02  0.38613498010E+01  0.59301765378E+02  0.49999674184E+02 0.  0.
        -12    1    1    2    0    0  0.12276512619E+02  0.29173775450E+02 -0.38613498010E+01  0.31886234622E+02  0.00000000000E+00 0.  1.
         11    1    3    3    0    0  0.12618156087E+00 -0.16574134220E+02 -0.64569253670E+00  0.16587186803E+02  0.51100000000E-03 0. -1.
        -11    1    3    3    0    0 -0.83068045530E+01 -0.26416657317E+02  0.26978473531E+00  0.27693240506E+02  0.51100000000E-03 0.  1.
        -12    1    3    3    0    0 -0.40958896270E+01  0.13817016086E+02  0.42372576024E+01  0.15021338068E+02  0.00000000000E+00 0.  1.
</event>
<event>
 7    1  0.6515090E-012  0.5930193E+02  0.7816164E-02  0.1266605E+00
        -11   -1    0    0    0    0  0.00000000000E+00  0.00000000000E+00  0.45593999997E+02  0.45594000000E+02  0.51100000000E-03 0. -1.
         11   -1    0    0    0    0 -0.00000000000E+00 -0.00000000000E+00 -0.45593999997E+02  0.45594000000E+02  0.51100000000E-03 0.  1.
    9900012    2    1    2    0    0 -0.29790419876E+02 -0.34888327247E+01  0.10820362920E+02  0.59301932135E+02  0.49999978310E+02 0.  0.
        -12    1    1    2    0    0  0.29790419876E+02  0.34888327247E+01 -0.10820362920E+02  0.31886067865E+02  0.00000000000E+00 0.  1.
         11    1    3    3    0    0 -0.31938986027E+02 -0.15401138809E+02  0.18380430163E+02  0.39939130165E+02  0.51100000000E-03 0. -1.
        -11    1    3    3    0    0 -0.26734589707E+00 -0.20822692708E+01  0.14434217702E+01  0.25477020651E+01  0.51100000000E-03 0.  1.
        -12    1    3    3    0    0  0.24159120477E+01  0.13994575355E+02 -0.90034890134E+01  0.16815099905E+02  0.00000000000E+00 0.  1.
</event>
<event>
 7    1  0.6515090E-012  0.5930194E+02  0.7816164E-02  0.1266605E+00
        -11   -1    0    0    0    0  0.00000000000E+00  0.00000000000E+00  0.45593999997E+02  0.45594000000E+02  0.51100000000E-03 0.  1.
         11   -1    0    0    0    0 -0.00000000000E+00 -0.00000000000E+00 -0.45593999997E+02  0.45594000000E+02  0.51100000000E-03 0. -1.
    9900012    2    1    2    0    0 -0.34502508817E+01  0.31163798993E+02 -0.57994934707E+01  0.59301941552E+02  0.49999995484E+02 0.  0.
        -12    1    1    2    0    0  0.34502508817E+01 -0.31163798993E+02  0.57994934707E+01  0.31886058448E+02  0.00000000000E+00 0.  1.
         11    1    3    3    0    0 -0.35916968003E+01  0.17041986095E+02  0.52775776307E+00  0.17424353775E+02  0.51100000000E-03 0. -1.
        -11    1    3    3    0    0 -0.11123046787E+02 -0.65361137316E+01  0.71617410337E+01  0.14755795045E+02  0.51100000000E-03 0.  1.
         12    1    3    3    0    0  0.11264492705E+02  0.20657926630E+02 -0.13488992267E+02  0.27121792731E+02  0.00000000000E+00 0. -1.
</event>
<event>
 7    1  0.6515090E-012  0.5930194E+02  0.7816164E-02  0.1266605E+00
        -11   -1    0    0    0    0  0.00000000000E+00  0.00000000000E+00  0.45593999997E+02  0.45594000000E+02  0.51100000000E-03 0.  1.
         11   -1    0    0    0    0 -0.00000000000E+00 -0.00000000000E+00 -0.45593999997E+02  0.45594000000E+02  0.51100000000E-03 0. -1.
    9900012    2    1    2    0    0  0.18158068755E+02 -0.18956103244E+02 -0.18101706186E+02  0.59301935991E+02  0.49999985344E+02 0.  0.
        -12    1    1    2    0    0 -0.18158068755E+02  0.18956103244E+02  0.18101706186E+02  0.31886064009E+02  0.00000000000E+00 0.  1.
         11    1    3    3    0    0  0.32155986081E+02 -0.12684171753E+02 -0.13682452790E+01  0.34594331173E+02  0.51100000000E-03 0. -1.
        -11    1    3    3    0    0  0.29095959931E+00 -0.53691290616E+00 -0.57797873367E+01  0.58119596416E+01  0.51100000000E-03 0.  1.
        -12    1    3    3    0    0 -0.14288876926E+02 -0.57350185848E+01 -0.10953673570E+02  0.18895645177E+02  0.00000000000E+00 0.  1.
</event>
<event>
 7    1  0.6515090E-012  0.5930195E+02  0.7816164E-02  0.1266605E+00
        -11   -1    0    0    0    0  0.00000000000E+00  0.00000000000E+00  0.45593999997E+02  0.45594000000E+02  0.51100000000E-03 0.  1.
         11   -1    0    0    0    0 -0.00000000000E+00 -0.00000000000E+00 -0.45593999997E+02  0.45594000000E+02  0.51100000000E-03 0. -1.
    9900012    2    1    2    0    0 -0.30580339772E+02  0.84727612366E+01  0.31265619121E+01  0.59301948929E+02  0.50000008938E+02 0.  0.
        -12    1    1    2    0    0  0.30580339772E+02 -0.84727612366E+01 -0.31265619121E+01  0.31886051071E+02  0.00000000000E+00 0.  1.
         11    1    3    3    0    0  0.29932147127E+01 -0.12534025097E+01  0.26305013623E+01  0.41773065301E+01  0.51100000000E-03 0. -1.
        -11    1    3    3    0    0 -0.20086925672E+02  0.10713680365E+02  0.20728864983E+02  0.30788851451E+02  0.51100000000E-03 0.  1.
         12    1    3    3    0    0 -0.13486628812E+02 -0.98751661883E+00 -0.20232804433E+02  0.24335790947E+02  0.00000000000E+00 0. -1.
</event>
<event>
 7    1  0.6515090E-012  0.5930198E+02  0.7816164E-02  0.1266605E+00
        -11   -1    0    0    0    0  0.00000000000E+00  0.00000000000E+00  0.45593999997E+02  0.45594000000E+02  0.51100000000E-03 0.  1.
         11   -1    0    0    0    0 -0.00000000000E+00 -0.00000000000E+00 -0.45593999997E+02  0.45594000000E+02  0.51100000000E-03 0. -1.
    9900012    2    1    2    0    0  0.10494616929E+02 -0.11630781024E+00 -0.30109266992E+02  0.59301976874E+02  0.50000059904E+02 0.  0.
        -12    1    1    2    0    0 -0.10494616929E+02  0.11630781024E+00  0.30109266992E+02  0.31886023126E+02  0.00000000000E+00 0.  1.
         11    1    3    3    0    0 -0.49189321698E+01 -0.89359314726E+01  0.50835296476E+01  0.11396887247E+02  0.51100000000E-03 0. -1.
        -11    1    3    3    0    0  0.64069845645E+01  0.35399317574E+01  0.32943986476E+01  0.80270561707E+01  0.51100000000E-03 0.  1.
         12    1    3    3    0    0  0.90065645346E+01  0.52796919049E+01 -0.38487195287E+02  0.39878033457E+02  0.00000000000E+00 0. -1.
</event>
<event>
 7    1  0.6515090E-012  0.5930195E+02  0.7816164E-02  0.1266605E+00
        -11   -1    0    0    0    0  0.00000000000E+00  0.00000000000E+00  0.45593999997E+02  0.45594000000E+02  0.51100000000E-03 0.  1.
         11   -1    0    0    0    0 -0.00000000000E+00 -0.00000000000E+00 -0.45593999997E+02  0.45594000000E+02  0.51100000000E-03 0. -1.
    9900012    2    1    2    0    0  0.49188314933E-01 -0.19480213488E+02  0.25243591355E+02  0.59301952243E+02  0.50000014983E+02 0.  0.
        -12    1    1    2    0    0 -0.49188314933E-01  0.19480213488E+02 -0.25243591355E+02  0.31886047757E+02  0.00000000000E+00 0.  1.
         11    1    3    3    0    0  0.10797517990E+02 -0.56233164000E+00  0.23309236763E+01  0.11060552294E+02  0.51100000000E-03 0. -1.
        -11    1    3    3    0    0 -0.95710337389E+00  0.18703676651E+01 -0.88176250023E+01  0.90644819495E+01  0.51100000000E-03 0.  1.
        -12    1    3    3    0    0 -0.97912263008E+01 -0.20788249513E+02  0.31730292681E+02  0.39176917999E+02  0.00000000000E+00 0.  1.
</event>
<event>
 7    1  0.6515090E-012  0.5930195E+02  0.7816164E-02  0.1266605E+00
        -11   -1    0    0    0    0  0.00000000000E+00  0.00000000000E+00  0.45593999997E+02  0.45594000000E+02  0.51100000000E-03 0. -1.
         11   -1    0    0    0    0 -0.00000000000E+00 -0.00000000000E+00 -0.45593999997E+02  0.45594000000E+02  0.51100000000E-03 0.  1.
    9900012    2    1    2    0    0  0.14900591117E+02 -0.20464480545E+02  0.19388085851E+02  0.59301945798E+02  0.50000003228E+02 0.  0.
        -12    1    1    2    0    0 -0.14900591117E+02  0.20464480545E+02 -0.19388085851E+02  0.31886054202E+02  0.00000000000E+00 0.  1.
         11    1    3    3    0    0 -0.17111020427E+01 -0.15442360285E+01  0.12260148186E+01  0.26106795492E+01  0.51100000000E-03 0. -1.
        -11    1    3    3    0    0  0.11511152055E+02 -0.33386970167E+02  0.35290215648E+01  0.35491553813E+02  0.51100000000E-03 0.  1.
         12    1    3    3    0    0  0.51005411052E+01  0.14466725651E+02  0.14633049468E+02  0.21199712436E+02  0.00000000000E+00 0. -1.
</event>
<event>
 7    1  0.6515090E-012  0.5930194E+02  0.7816164E-02  0.1266605E+00
        -11   -1    0    0    0    0  0.00000000000E+00  0.00000000000E+00  0.45593999997E+02  0.45594000000E+02  0.51100000000E-03 0.  1.
         11   -1    0    0    0    0 -0.00000000000E+00 -0.00000000000E+00 -0.45593999997E+02  0.45594000000E+02  0.51100000000E-03 0. -1.
    9900012    2    1    2    0    0  0.23611924566E+02 -0.14361908747E+02 -0.15903887773E+02  0.59301936416E+02  0.49999986117E+02 0.  0.
        -12    1    1    2    0    0 -0.23611924566E+02  0.14361908747E+02  0.15903887773E+02  0.31886063584E+02  0.00000000000E+00 0.  1.
         11    1    3    3    0    0 -0.27607129699E+01 -0.30555055320E+00 -0.26984693614E+01  0.38725488246E+01  0.51100000000E-03 0. -1.
        -11    1    3    3    0    0 -0.76835789831E+01 -0.17843574394E+02 -0.28696286611E+01  0.19638363019E+02  0.51100000000E-03 0.  1.
         12    1    3    3    0    0  0.34056216520E+02  0.37872161997E+01 -0.10335789751E+02  0.35791024572E+02  0.00000000000E+00 0. -1.
</event>
<event>
 7    1  0.6515090E-012  0.5930197E+02  0.7816164E-02  0.1266605E+00
        -11   -1    0    0    0    0  0.00000000000E+00  0.00000000000E+00  0.45593999997E+02  0.45594000000E+02  0.51100000000E-03 0.  1.
         11   -1    0    0    0    0 -0.00000000000E+00 -0.00000000000E+00 -0.45593999997E+02  0.45594000000E+02  0.51100000000E-03 0. -1.
    9900012    2    1    2    0    0 -0.33980494902E+01 -0.22558756567E+02 -0.22277227779E+02  0.59301966761E+02  0.50000041460E+02 0.  0.
        -12    1    1    2    0    0  0.33980494902E+01  0.22558756567E+02  0.22277227779E+02  0.31886033239E+02  0.00000000000E+00 0.  1.
         11    1    3    3    0    0 -0.33777870260E+01 -0.48561565342E+01 -0.92152193247E+00  0.59867273540E+01  0.51100000000E-03 0. -1.
        -11    1    3    3    0    0  0.16862346234E+02 -0.18891010066E+02  0.92082939935E+00  0.25338841901E+02  0.51100000000E-03 0.  1.
        -12    1    3    3    0    0 -0.16882608698E+02  0.11884100331E+01 -0.22276535246E+02  0.27976397506E+02  0.00000000000E+00 0.  1.
</event>
<event>
 7    1  0.6515090E-012  0.5930196E+02  0.7816164E-02  0.1266605E+00
        -11   -1    0    0    0    0  0.00000000000E+00  0.00000000000E+00  0.45593999997E+02  0.45594000000E+02  0.51100000000E-03 0. -1.
         11   -1    0    0    0    0 -0.00000000000E+00 -0.00000000000E+00 -0.45593999997E+02  0.45594000000E+02  0.51100000000E-03 0.  1.
    9900012    2    1    2    0    0 -0.23637410956E+01 -0.24549682527E+02  0.20210032816E+02  0.59301959002E+02  0.50000027309E+02 0.  0.
        -12    1    1    2    0    0  0.23637410956E+01  0.24549682527E+02 -0.20210032816E+02  0.31886040998E+02  0.00000000000E+00 0.  1.
         11    1    3    3    0    0  0.13748487288E+02 -0.15447413673E+02 -0.33977823743E+01  0.20956822689E+02  0.51100000000E-03 0. -1.
        -11    1    3    3    0    0  0.56997614214E+01 -0.36614874035E+01  0.17648667783E+01  0.70006089216E+01  0.51100000000E-03 0.  1.
        -12    1    3    3    0    0 -0.21811989805E+02 -0.54407814504E+01  0.21842948412E+02  0.31344527391E+02  0.00000000000E+00 0.  1.
</event>
<event>
 7    1  0.6515090E-012  0.5930194E+02  0.7816164E-02  0.1266605E+00
        -11   -1    0    0    0    0  0.00000000000E+00  0.00000000000E+00  0.45593999997E+02  0.45594000000E+02  0.51100000000E-03 0.  1.
         11   -1    0    0    0    0 -0.00000000000E+00 -0.00000000000E+00 -0.45593999997E+02  0.45594000000E+02  0.51100000000E-03 0. -1.
    9900012    2    1    2    0    0 -0.13339281685E+02 -0.18312362256E+02 -0.22437504453E+02  0.59301942649E+02  0.49999997486E+02 0.  0.
        -12    1    1    2    0    0  0.13339281685E+02  0.18312362256E+02  0.22437504453E+02  0.31886057351E+02  0.00000000000E+00 0.  1.
         11    1    3    3    0    0  0.10721010013E+02  0.13447885219E+01  0.24067801490E+01  0.11069828490E+02  0.51100000000E-03 0. -1.
        -11    1    3    3    0    0 -0.58602071481E+01  0.46082637462E+01  0.20089485623E+01  0.77210101127E+01  0.51100000000E-03 0.  1.
         12    1    3    3    0    0 -0.18200084550E+02 -0.24265414524E+02 -0.26853233164E+02  0.40511104046E+02  0.00000000000E+00 0. -1.
</event>
<event>
 7    1  0.6515090E-012  0.5930195E+02  0.7816164E-02  0.1266605E+00
        -11   -1    0    0    0    0  0.00000000000E+00  0.00000000000E+00  0.45593999997E+02  0.45594000000E+02  0.51100000000E-03 0. -1.
         11   -1    0    0    0    0 -0.00000000000E+00 -0.00000000000E+00 -0.45593999997E+02  0.45594000000E+02  0.51100000000E-03 0.  1.
    9900012    2    1    2    0    0 -0.18396787357E+02 -0.21023290538E+02 -0.15372046530E+02  0.59301947490E+02  0.50000006315E+02 0.  0.
        -12    1    1    2    0    0  0.18396787357E+02  0.21023290538E+02  0.15372046530E+02  0.31886052510E+02  0.00000000000E+00 0.  1.
         11    1    3    3    0    0  0.81933452277E+01 -0.21864964275E+02 -0.18656964009E+01  0.23424098533E+02  0.51100000000E-03 0.  1.
        -11    1    3    3    0    0  0.10548591448E+01 -0.27858071737E+01 -0.64683794109E+01  0.71213328731E+01  0.51100000000E-03 0. -1.
         12    1    3    3    0    0 -0.27644991730E+02  0.36274809100E+01 -0.70379707187E+01  0.28756516084E+02  0.00000000000E+00 0. -1.
</event>
<event>
 7    1  0.6515090E-012  0.5930194E+02  0.7816164E-02  0.1266605E+00
        -11   -1    0    0    0    0  0.00000000000E+00  0.00000000000E+00  0.45593999997E+02  0.45594000000E+02  0.51100000000E-03 0.  1.
         11   -1    0    0    0    0 -0.00000000000E+00 -0.00000000000E+00 -0.45593999997E+02  0.45594000000E+02  0.51100000000E-03 0. -1.
    9900012    2    1    2    0    0 -0.13410265651E+02 -0.26511593865E+01 -0.28807234782E+02  0.59301942754E+02  0.49999997677E+02 0.  0.
        -12    1    1    2    0    0  0.13410265651E+02  0.26511593865E+01  0.28807234782E+02  0.31886057246E+02  0.00000000000E+00 0.  1.
         11    1    3    3    0    0  0.16500070670E+01  0.10112076064E+02  0.12928818175E+01  0.10327059083E+02  0.51100000000E-03 0. -1.
        -11    1    3    3    0    0 -0.37840814436E+01  0.59759477783E+01  0.42511029867E+01  0.82524603050E+01  0.51100000000E-03 0.  1.
         12    1    3    3    0    0 -0.11276191274E+02 -0.18739183229E+02 -0.34351219586E+02  0.40722423366E+02  0.00000000000E+00 0. -1.
</event>
<event>
 7    1  0.6515090E-012  0.5930194E+02  0.7816164E-02  0.1266605E+00
        -11   -1    0    0    0    0  0.00000000000E+00  0.00000000000E+00  0.45593999997E+02  0.45594000000E+02  0.51100000000E-03 0.  1.
         11   -1    0    0    0    0 -0.00000000000E+00 -0.00000000000E+00 -0.45593999997E+02  0.45594000000E+02  0.51100000000E-03 0. -1.
    9900012    2    1    2    0    0  0.26479930066E+02 -0.34437985531E+01 -0.17426249192E+02  0.59301943397E+02  0.49999998850E+02 0.  0.
        -12    1    1    2    0    0 -0.26479930066E+02  0.34437985531E+01  0.17426249192E+02  0.31886056603E+02  0.00000000000E+00 0.  1.
         11    1    3    3    0    0  0.86201259869E+00 -0.66806370057E+01 -0.20353934950E+02  0.21439604584E+02  0.51100000000E-03 0. -1.
        -11    1    3    3    0    0 -0.49427773571E+01  0.51275611804E+01  0.85497279028E+00  0.71731381134E+01  0.51100000000E-03 0.  1.
        -12    1    3    3    0    0  0.30560694824E+02 -0.18907227278E+01  0.20727129671E+01  0.30689200700E+02  0.00000000000E+00 0.  1.
</event>
<event>
 7    1  0.6515090E-012  0.5930195E+02  0.7816164E-02  0.1266605E+00
        -11   -1    0    0    0    0  0.00000000000E+00  0.00000000000E+00  0.45593999997E+02  0.45594000000E+02  0.51100000000E-03 0.  1.
         11   -1    0    0    0    0 -0.00000000000E+00 -0.00000000000E+00 -0.45593999997E+02  0.45594000000E+02  0.51100000000E-03 0. -1.
    9900012    2    1    2    0    0 -0.44918897383E+01  0.85927776204E+00 -0.31556374733E+02  0.59301949476E+02  0.50000009937E+02 0.  0.
        -12    1    1    2    0    0  0.44918897383E+01 -0.85927776204E+00  0.31556374733E+02  0.31886050524E+02  0.00000000000E+00 0.  1.
         11    1    3    3    0    0 -0.52230314750E+01 -0.62667404984E+01 -0.26291284227E+02  0.27527871709E+02  0.51100000000E-03 0. -1.
        -11    1    3    3    0    0  0.59550591148E+01 -0.88887576098E+01  0.52484460247E+01  0.11917169414E+02  0.51100000000E-03 0.  1.
        -12    1    3    3    0    0 -0.52239173781E+01  0.16014775870E+02 -0.10513536531E+02  0.19856908353E+02  0.00000000000E+00 0.  1.
</event>
<event>
 7    1  0.6515090E-012  0.5930194E+02  0.7816164E-02  0.1266605E+00
        -11   -1    0    0    0    0  0.00000000000E+00  0.00000000000E+00  0.45593999997E+02  0.45594000000E+02  0.51100000000E-03 0. -1.
         11   -1    0    0    0    0 -0.00000000000E+00 -0.00000000000E+00 -0.45593999997E+02  0.45594000000E+02  0.51100000000E-03 0.  1.
    9900012    2    1    2    0    0  0.15254290245E+02 -0.26835966034E+02  0.79911447139E+01  0.59301939759E+02  0.49999992215E+02 0.  0.
        -12    1    1    2    0    0 -0.15254290245E+02  0.26835966034E+02 -0.79911447139E+01  0.31886060241E+02  0.00000000000E+00 0.  1.
         11    1    3    3    0    0  0.21338564295E+01 -0.19613741400E-01 -0.57338890672E+01  0.61181052669E+01  0.51100000000E-03 0. -1.
        -11    1    3    3    0    0  0.11725940679E+02 -0.22041880015E+01 -0.12438771122E+02  0.17235984359E+02  0.51100000000E-03 0.  1.
         12    1    3    3    0    0  0.13944931363E+01 -0.24612164291E+02  0.26163804903E+02  0.35947850133E+02  0.00000000000E+00 0. -1.
</event>
<event>
 7    1  0.6515090E-012  0.5930197E+02  0.7816164E-02  0.1266605E+00
        -11   -1    0    0    0    0  0.00000000000E+00  0.00000000000E+00  0.45593999997E+02  0.45594000000E+02  0.51100000000E-03 0.  1.
         11   -1    0    0    0    0 -0.00000000000E+00 -0.00000000000E+00 -0.45593999997E+02  0.45594000000E+02  0.51100000000E-03 0. -1.
    9900012    2    1    2    0    0  0.15742410860E+02 -0.16036657614E+02 -0.22621246024E+02  0.59301973926E+02  0.50000054527E+02 0.  0.
        -12    1    1    2    0    0 -0.15742410860E+02  0.16036657614E+02  0.22621246024E+02  0.31886026074E+02  0.00000000000E+00 0.  1.
         11    1    3    3    0    0  0.11516173407E+00 -0.50140080350E+01 -0.26774620011E+02  0.27240297645E+02  0.51100000000E-03 0. -1.
        -11    1    3    3    0    0 -0.55540216049E+01 -0.31605091283E+00  0.60912010449E+01  0.82492287274E+01  0.51100000000E-03 0.  1.
        -12    1    3    3    0    0  0.21181270731E+02 -0.10706598666E+02 -0.19378270586E+01  0.23812447553E+02  0.00000000000E+00 0.  1.
</event>
<event>
 7    1  0.6515090E-012  0.5930193E+02  0.7816164E-02  0.1266605E+00
        -11   -1    0    0    0    0  0.00000000000E+00  0.00000000000E+00  0.45593999997E+02  0.45594000000E+02  0.51100000000E-03 0.  1.
         11   -1    0    0    0    0 -0.00000000000E+00 -0.00000000000E+00 -0.45593999997E+02  0.45594000000E+02  0.51100000000E-03 0. -1.
    9900012    2    1    2    0    0 -0.11169189748E+02 -0.18472995633E+02 -0.23467409598E+02  0.59301926543E+02  0.49999968112E+02 0.  0.
        -12    1    1    2    0    0  0.11169189748E+02  0.18472995633E+02  0.23467409598E+02  0.31886073457E+02  0.00000000000E+00 0.  1.
         11    1    3    3    0    0 -0.18311544511E+02 -0.14453494096E+02  0.75738802025E+01  0.24527124078E+02  0.51100000000E-03 0.  1.
        -11    1    3    3    0    0 -0.30133056292E+01 -0.45887517454E+01 -0.10179720146E+02  0.11565610918E+02  0.51100000000E-03 0. -1.
        -12    1    3    3    0    0  0.10155660393E+02  0.56925020778E+00 -0.20861569654E+02  0.23209191547E+02  0.00000000000E+00 0.  1.
</event>
<event>
 7    1  0.6515090E-012  0.5930195E+02  0.7816164E-02  0.1266605E+00
        -11   -1    0    0    0    0  0.00000000000E+00  0.00000000000E+00  0.45593999997E+02  0.45594000000E+02  0.51100000000E-03 0. -1.
         11   -1    0    0    0    0 -0.00000000000E+00 -0.00000000000E+00 -0.45593999997E+02  0.45594000000E+02  0.51100000000E-03 0.  1.
    9900012    2    1    2    0    0 -0.14972024281E+02  0.17659517667E+02  0.21924869168E+02  0.59301953470E+02  0.50000017220E+02 0.  0.
        -12    1    1    2    0    0  0.14972024281E+02 -0.17659517667E+02 -0.21924869168E+02  0.31886046530E+02  0.00000000000E+00 0.  1.
         11    1    3    3    0    0  0.21323892880E+01  0.10372585004E+02  0.19617846772E+01  0.10769689091E+02  0.51100000000E-03 0. -1.
        -11    1    3    3    0    0  0.36091972639E+01 -0.11576223829E+02 -0.27881449847E+01  0.12442227121E+02  0.51100000000E-03 0.  1.
         12    1    3    3    0    0 -0.20713610833E+02  0.18863156491E+02  0.22751229476E+02  0.36090037257E+02  0.00000000000E+00 0. -1.
</event>
<event>
 7    1  0.6515090E-012  0.5930195E+02  0.7816164E-02  0.1266605E+00
        -11   -1    0    0    0    0  0.00000000000E+00  0.00000000000E+00  0.45593999997E+02  0.45594000000E+02  0.51100000000E-03 0.  1.
         11   -1    0    0    0    0 -0.00000000000E+00 -0.00000000000E+00 -0.45593999997E+02  0.45594000000E+02  0.51100000000E-03 0. -1.
    9900012    2    1    2    0    0  0.25768076582E+02 -0.11418782269E+02 -0.14911006878E+02  0.59301945284E+02  0.50000002291E+02 0.  0.
        -12    1    1    2    0    0 -0.25768076582E+02  0.11418782269E+02  0.14911006878E+02  0.31886054716E+02  0.00000000000E+00 0.  1.
         11    1    3    3    0    0  0.15036778742E+01 -0.10410399521E+02 -0.11298595003E+01  0.10578943619E+02  0.51100000000E-03 0. -1.
        -11    1    3    3    0    0  0.17997456813E+02 -0.82173845037E+01 -0.26340894755E+02  0.32943536491E+02  0.51100000000E-03 0.  1.
        -12    1    3    3    0    0  0.62669418947E+01  0.72090017552E+01  0.12559747377E+02  0.15779465174E+02  0.00000000000E+00 0.  1.
</event>
<event>
 7    1  0.6515090E-012  0.5930186E+02  0.7816164E-02  0.1266605E+00
        -11   -1    0    0    0    0  0.00000000000E+00  0.00000000000E+00  0.45593999997E+02  0.45594000000E+02  0.51100000000E-03 0. -1.
         11   -1    0    0    0    0 -0.00000000000E+00 -0.00000000000E+00 -0.45593999997E+02  0.45594000000E+02  0.51100000000E-03 0.  1.
    9900012    2    1    2    0    0  0.18683747251E+02 -0.25838099053E+02  0.19002311768E+00  0.59301860647E+02  0.49999847934E+02 0.  0.
        -12    1    1    2    0    0 -0.18683747251E+02  0.25838099053E+02 -0.19002311768E+00  0.31886139353E+02  0.00000000000E+00 0.  1.
         11    1    3    3    0    0  0.14272843864E+02 -0.78318500452E+01 -0.10476679494E+02  0.19360081626E+02  0.51100000000E-03 0. -1.
        -11    1    3    3    0    0 -0.33662117723E+01 -0.11412017838E+02 -0.10868341359E+02  0.16114787526E+02  0.51100000000E-03 0.  1.
         12    1    3    3    0    0  0.77771151593E+01 -0.65942311704E+01  0.21535043971E+02  0.23826991496E+02  0.00000000000E+00 0. -1.
</event>
<event>
 7    1  0.6515090E-012  0.5930195E+02  0.7816164E-02  0.1266605E+00
        -11   -1    0    0    0    0  0.00000000000E+00  0.00000000000E+00  0.45593999997E+02  0.45594000000E+02  0.51100000000E-03 0.  1.
         11   -1    0    0    0    0 -0.00000000000E+00 -0.00000000000E+00 -0.45593999997E+02  0.45594000000E+02  0.51100000000E-03 0. -1.
    9900012    2    1    2    0    0 -0.20674035079E+02 -0.12640782261E+02 -0.20724744754E+02  0.59301950578E+02  0.50000011946E+02 0.  0.
        -12    1    1    2    0    0  0.20674035079E+02  0.12640782261E+02  0.20724744754E+02  0.31886049422E+02  0.00000000000E+00 0.  1.
         11    1    3    3    0    0 -0.96254411141E+00 -0.98526377370E+01 -0.50804288555E+01  0.11127071455E+02  0.51100000000E-03 0. -1.
        -11    1    3    3    0    0 -0.15207976984E+02 -0.15624207394E+02  0.59970068571E+01  0.22613325985E+02  0.51100000000E-03 0.  1.
         12    1    3    3    0    0 -0.45035139838E+01  0.12836062870E+02 -0.21641322756E+02  0.25561553138E+02  0.00000000000E+00 0. -1.
</event>
<event>
 7    1  0.6515090E-012  0.5930194E+02  0.7816164E-02  0.1266605E+00
        -11   -1    0    0    0    0  0.00000000000E+00  0.00000000000E+00  0.45593999997E+02  0.45594000000E+02  0.51100000000E-03 0.  1.
         11   -1    0    0    0    0 -0.00000000000E+00 -0.00000000000E+00 -0.45593999997E+02  0.45594000000E+02  0.51100000000E-03 0. -1.
    9900012    2    1    2    0    0 -0.28527247724E+02  0.14059806858E+02  0.22888331726E+01  0.59301940524E+02  0.49999993610E+02 0.  0.
        -12    1    1    2    0    0  0.28527247724E+02 -0.14059806858E+02 -0.22888331726E+01  0.31886059476E+02  0.00000000000E+00 0.  1.
         11    1    3    3    0    0 -0.28128455078E+01  0.11178476441E+02 -0.86607904590E+01  0.14418034784E+02  0.51100000000E-03 0. -1.
        -11    1    3    3    0    0 -0.31416449350E+02  0.54301723468E+01 -0.44992381365E+00  0.31885458962E+02  0.51100000000E-03 0.  1.
        -12    1    3    3    0    0  0.57020471338E+01 -0.25488419300E+01  0.11399547445E+02  0.12998446779E+02  0.00000000000E+00 0.  1.
</event>
<event>
 7    1  0.6515090E-012  0.5930193E+02  0.7816164E-02  0.1266605E+00
        -11   -1    0    0    0    0  0.00000000000E+00  0.00000000000E+00  0.45593999997E+02  0.45594000000E+02  0.51100000000E-03 0.  1.
         11   -1    0    0    0    0 -0.00000000000E+00 -0.00000000000E+00 -0.45593999997E+02  0.45594000000E+02  0.51100000000E-03 0. -1.
    9900012    2    1    2    0    0  0.27339443957E+02 -0.12088242313E+02 -0.11097337214E+02  0.59301926373E+02  0.49999967802E+02 0.  0.
        -12    1    1    2    0    0 -0.27339443957E+02  0.12088242313E+02  0.11097337214E+02  0.31886073627E+02  0.00000000000E+00 0.  1.
         11    1    3    3    0    0  0.28611709323E+02 -0.17086538021E+02 -0.17823201655E+02  0.37792144812E+02  0.51100000000E-03 0. -1.
        -11    1    3    3    0    0  0.36713996447E+01  0.20069434300E+01  0.12596072552E+02  0.13272830945E+02  0.51100000000E-03 0.  1.
        -12    1    3    3    0    0 -0.49436650107E+01  0.29913522784E+01 -0.58702081111E+01  0.82369506165E+01  0.00000000000E+00 0.  1.
</event>
<event>
 7    1  0.6515090E-012  0.5930190E+02  0.7816164E-02  0.1266605E+00
        -11   -1    0    0    0    0  0.00000000000E+00  0.00000000000E+00  0.45593999997E+02  0.45594000000E+02  0.51100000000E-03 0.  1.
         11   -1    0    0    0    0 -0.00000000000E+00 -0.00000000000E+00 -0.45593999997E+02  0.45594000000E+02  0.51100000000E-03 0. -1.
    9900012    2    1    2    0    0  0.25476794210E+02  0.11392154624E+02 -0.15423203135E+02  0.59301899186E+02  0.49999918219E+02 0.  0.
        -12    1    1    2    0    0 -0.25476794210E+02 -0.11392154624E+02  0.15423203135E+02  0.31886100814E+02  0.00000000000E+00 0.  1.
         11    1    3    3    0    0  0.17530723861E+02  0.14999288084E+02  0.80494248883E+00  0.23085771695E+02  0.51100000000E-03 0. -1.
        -11    1    3    3    0    0  0.35199919403E+01  0.11051548986E+02  0.26612297945E+01  0.11899967333E+02  0.51100000000E-03 0.  1.
         12    1    3    3    0    0  0.44260784084E+01 -0.14658682445E+02 -0.18889375419E+02  0.24316160157E+02  0.00000000000E+00 0. -1.
</event>
<event>
 7    1  0.6515090E-012  0.5930198E+02  0.7816164E-02  0.1266605E+00
        -11   -1    0    0    0    0  0.00000000000E+00  0.00000000000E+00  0.45593999997E+02  0.45594000000E+02  0.51100000000E-03 0.  1.
         11   -1    0    0    0    0 -0.00000000000E+00 -0.00000000000E+00 -0.45593999997E+02  0.45594000000E+02  0.51100000000E-03 0. -1.
    9900012    2    1    2    0    0 -0.28185749085E+02  0.10776816954E+02  0.10302515435E+02  0.59301983325E+02  0.50000071669E+02 0.  0.
        -12    1    1    2    0    0  0.28185749085E+02 -0.10776816954E+02 -0.10302515435E+02  0.31886016675E+02  0.00000000000E+00 0.  1.
         11    1    3    3    0    0  0.65015154919E+01 -0.97110427891E+01  0.24272164344E+01  0.11935888556E+02  0.51100000000E-03 0. -1.
        -11    1    3    3    0    0 -0.17107083106E+00 -0.12697351335E+01  0.64116158360E+01  0.65383721543E+01  0.51100000000E-03 0.  1.
         12    1    3    3    0    0 -0.34516193746E+02  0.21757594876E+02  0.14636831643E+01  0.40827722615E+02  0.00000000000E+00 0. -1.
</event>
<event>
 7    1  0.6515090E-012  0.5930196E+02  0.7816164E-02  0.1266605E+00
        -11   -1    0    0    0    0  0.00000000000E+00  0.00000000000E+00  0.45593999997E+02  0.45594000000E+02  0.51100000000E-03 0. -1.
         11   -1    0    0    0    0 -0.00000000000E+00 -0.00000000000E+00 -0.45593999997E+02  0.45594000000E+02  0.51100000000E-03 0.  1.
    9900012    2    1    2    0    0 -0.25702423946E+02  0.12942442564E+02 -0.13733096676E+02  0.59301962922E+02  0.50000034458E+02 0.  0.
        -12    1    1    2    0    0  0.25702423946E+02 -0.12942442564E+02  0.13733096676E+02  0.31886037078E+02  0.00000000000E+00 0.  1.
         11    1    3    3    0    0 -0.10882245967E+02 -0.22234745403E+00 -0.16198648498E+02  0.19515863525E+02  0.51100000000E-03 0.  1.
        -11    1    3    3    0    0 -0.24702507774E+02  0.24658339292E+01 -0.88505002035E+00  0.24841045491E+02  0.51100000000E-03 0. -1.
         12    1    3    3    0    0  0.98823297942E+01  0.10698956089E+02  0.33506018432E+01  0.14945053907E+02  0.00000000000E+00 0. -1.
</event>
<event>
 7    1  0.6515090E-012  0.5930196E+02  0.7816164E-02  0.1266605E+00
        -11   -1    0    0    0    0  0.00000000000E+00  0.00000000000E+00  0.45593999997E+02  0.45594000000E+02  0.51100000000E-03 0.  1.
         11   -1    0    0    0    0 -0.00000000000E+00 -0.00000000000E+00 -0.45593999997E+02  0.45594000000E+02  0.51100000000E-03 0. -1.
    9900012    2    1    2    0    0 -0.14071074283E+02  0.28545782590E+02  0.19653433435E+01  0.59301962153E+02  0.50000033056E+02 0.  0.
        -12    1    1    2    0    0  0.14071074283E+02 -0.28545782590E+02 -0.19653433435E+01  0.31886037847E+02  0.00000000000E+00 0.  1.
         11    1    3    3    0    0  0.40933360101E+01 -0.67964772956E+00  0.13926667338E+01  0.43768529357E+01  0.51100000000E-03 0. -1.
        -11    1    3    3    0    0 -0.62124496945E+01 -0.15195067696E+01 -0.16561964242E+02  0.17753931729E+02  0.51100000000E-03 0.  1.
        -12    1    3    3    0    0 -0.11951960598E+02  0.30744937089E+02  0.17134640852E+02  0.37171177488E+02  0.00000000000E+00 0.  1.
</event>
<event>
 7    1  0.6515090E-012  0.5930200E+02  0.7816164E-02  0.1266605E+00
        -11   -1    0    0    0    0  0.00000000000E+00  0.00000000000E+00  0.45593999997E+02  0.45594000000E+02  0.51100000000E-03 0. -1.
         11   -1    0    0    0    0 -0.00000000000E+00 -0.00000000000E+00 -0.45593999997E+02  0.45594000000E+02  0.51100000000E-03 0.  1.
    9900012    2    1    2    0    0  0.76535400138E+01 -0.22161940296E+02  0.21609916085E+02  0.59302003926E+02  0.50000109239E+02 0.  0.
        -12    1    1    2    0    0 -0.76535400138E+01  0.22161940296E+02 -0.21609916085E+02  0.31885996074E+02  0.00000000000E+00 0.  1.
         11    1    3    3    0    0  0.11250472098E+02  0.26763023554E+01  0.20968430371E+02  0.23945997353E+02  0.51100000000E-03 0. -1.
        -11    1    3    3    0    0  0.82538065370E+01 -0.29787168371E+01  0.50183624201E+01  0.10108513144E+02  0.51100000000E-03 0.  1.
        -12    1    3    3    0    0 -0.11850738622E+02 -0.21859525815E+02 -0.43768767061E+01  0.25247493428E+02  0.00000000000E+00 0.  1.
</event>
<event>
 7    1  0.6515090E-012  0.5930194E+02  0.7816164E-02  0.1266605E+00
        -11   -1    0    0    0    0  0.00000000000E+00  0.00000000000E+00  0.45593999997E+02  0.45594000000E+02  0.51100000000E-03 0.  1.
         11   -1    0    0    0    0 -0.00000000000E+00 -0.00000000000E+00 -0.45593999997E+02  0.45594000000E+02  0.51100000000E-03 0. -1.
    9900012    2    1    2    0    0  0.26102317275E+02 -0.11057595268E+02  0.14598603805E+02  0.59301943278E+02  0.49999998633E+02 0.  0.
        -12    1    1    2    0    0 -0.26102317275E+02  0.11057595268E+02 -0.14598603805E+02  0.31886056722E+02  0.00000000000E+00 0.  1.
         11    1    3    3    0    0  0.16308372284E+02  0.43876956490E+01  0.37645315924E+01  0.17302791047E+02  0.51100000000E-03 0. -1.
        -11    1    3    3    0    0 -0.34684985405E+01  0.47685728418E+01  0.16195476775E+02  0.17235522542E+02  0.51100000000E-03 0.  1.
         12    1    3    3    0    0  0.13262443531E+02 -0.20213863758E+02 -0.53614045630E+01  0.24763629689E+02  0.00000000000E+00 0. -1.
</event>
<event>
 7    1  0.6515090E-012  0.5930210E+02  0.7816164E-02  0.1266604E+00
        -11   -1    0    0    0    0  0.00000000000E+00  0.00000000000E+00  0.45593999997E+02  0.45594000000E+02  0.51100000000E-03 0.  1.
         11   -1    0    0    0    0 -0.00000000000E+00 -0.00000000000E+00 -0.45593999997E+02  0.45594000000E+02  0.51100000000E-03 0. -1.
    9900012    2    1    2    0    0  0.19742090815E+02 -0.51899114234E+01 -0.24495411664E+02  0.59302101503E+02  0.50000287197E+02 0.  0.
        -12    1    1    2    0    0 -0.19742090815E+02  0.51899114234E+01  0.24495411664E+02  0.31885898497E+02  0.00000000000E+00 0.  1.
         11    1    3    3    0    0  0.26806639486E+02 -0.17982660902E+01 -0.13907342667E+02  0.30252997567E+02  0.51100000000E-03 0. -1.
        -11    1    3    3    0    0 -0.25921356325E+01 -0.13862076018E+02 -0.95427506419E+00  0.14134601509E+02  0.51100000000E-03 0.  1.
        -12    1    3    3    0    0 -0.44724130384E+01  0.10470430685E+02 -0.96337939333E+01  0.14914502427E+02  0.00000000000E+00 0.  1.
</event>
<event>
 7    1  0.6515090E-012  0.5930194E+02  0.7816164E-02  0.1266605E+00
        -11   -1    0    0    0    0  0.00000000000E+00  0.00000000000E+00  0.45593999997E+02  0.45594000000E+02  0.51100000000E-03 0.  1.
         11   -1    0    0    0    0 -0.00000000000E+00 -0.00000000000E+00 -0.45593999997E+02  0.45594000000E+02  0.51100000000E-03 0. -1.
    9900012    2    1    2    0    0 -0.24163857609E+02  0.90917414635E+01 -0.18712810257E+02  0.59301936506E+02  0.49999986283E+02 0.  0.
        -12    1    1    2    0    0  0.24163857609E+02 -0.90917414635E+01  0.18712810257E+02  0.31886063494E+02  0.00000000000E+00 0.  1.
         11    1    3    3    0    0 -0.59707312822E+01  0.54721757939E+01 -0.13704567715E+01  0.82141641076E+01  0.51100000000E-03 0. -1.
        -11    1    3    3    0    0 -0.74547709400E+01  0.19417377985E+02  0.53002609242E+01  0.21463945204E+02  0.51100000000E-03 0.  1.
        -12    1    3    3    0    0 -0.10738355387E+02 -0.15797812315E+02 -0.22642614410E+02  0.29623827195E+02  0.00000000000E+00 0.  1.
</event>
<event>
 7    1  0.6515090E-012  0.5930193E+02  0.7816164E-02  0.1266605E+00
        -11   -1    0    0    0    0  0.00000000000E+00  0.00000000000E+00  0.45593999997E+02  0.45594000000E+02  0.51100000000E-03 0. -1.
         11   -1    0    0    0    0 -0.00000000000E+00 -0.00000000000E+00 -0.45593999997E+02  0.45594000000E+02  0.51100000000E-03 0.  1.
    9900012    2    1    2    0    0  0.69112652346E+01 -0.10609144934E+02  0.29264341227E+02  0.59301933908E+02  0.49999981543E+02 0.  0.
        -12    1    1    2    0    0 -0.69112652346E+01  0.10609144934E+02 -0.29264341227E+02  0.31886066092E+02  0.00000000000E+00 0.  1.
         11    1    3    3    0    0 -0.45499471974E+01  0.31055453910E+01 -0.56089147221E+01  0.78617018702E+01  0.51100000000E-03 0.  1.
        -11    1    3    3    0    0 -0.70311097675E+01  0.62340019383E+01  0.37816733120E+01  0.10129182496E+02  0.51100000000E-03 0. -1.
         12    1    3    3    0    0  0.18492322200E+02 -0.19948692263E+02  0.31091582637E+02  0.41311049542E+02  0.00000000000E+00 0. -1.
</event>
<event>
 7    1  0.6515090E-012  0.5930193E+02  0.7816164E-02  0.1266605E+00
        -11   -1    0    0    0    0  0.00000000000E+00  0.00000000000E+00  0.45593999997E+02  0.45594000000E+02  0.51100000000E-03 0. -1.
         11   -1    0    0    0    0 -0.00000000000E+00 -0.00000000000E+00 -0.45593999997E+02  0.45594000000E+02  0.51100000000E-03 0.  1.
    9900012    2    1    2    0    0 -0.46376390873E+01  0.15664306459E+02  0.27383266067E+02  0.59301930100E+02  0.49999974600E+02 0.  0.
        -12    1    1    2    0    0  0.46376390873E+01 -0.15664306459E+02 -0.27383266067E+02  0.31886069900E+02  0.00000000000E+00 0.  1.
         11    1    3    3    0    0 -0.50224440181E+01  0.15501985684E+02  0.22399130648E+02  0.27699414400E+02  0.51100000000E-03 0. -1.
        -11    1    3    3    0    0 -0.87124436068E+01  0.89665680715E+01 -0.68645243469E+01  0.14262808677E+02  0.51100000000E-03 0.  1.
        -12    1    3    3    0    0  0.90972485375E+01 -0.88042472962E+01  0.11848659766E+02  0.17339707023E+02  0.00000000000E+00 0.  1.
</event>
<event>
 7    1  0.6515090E-012  0.5930192E+02  0.7816164E-02  0.1266605E+00
        -11   -1    0    0    0    0  0.00000000000E+00  0.00000000000E+00  0.45593999997E+02  0.45594000000E+02  0.51100000000E-03 0. -1.
         11   -1    0    0    0    0 -0.00000000000E+00 -0.00000000000E+00 -0.45593999997E+02  0.45594000000E+02  0.51100000000E-03 0.  1.
    9900012    2    1    2    0    0  0.15779378745E+01 -0.21963916556E+02  0.23061191493E+02  0.59301920412E+02  0.49999956930E+02 0.  0.
        -12    1    1    2    0    0 -0.15779378745E+01  0.21963916556E+02 -0.23061191493E+02  0.31886079588E+02  0.00000000000E+00 0.  1.
         11    1    3    3    0    0  0.16013575602E+01 -0.22701609616E+02  0.11611551196E+02  0.25549081131E+02  0.51100000000E-03 0. -1.
        -11    1    3    3    0    0  0.11248822533E+02  0.10956658401E+02  0.96520171105E+01  0.18432194830E+02  0.51100000000E-03 0.  1.
         12    1    3    3    0    0 -0.11272242218E+02 -0.10218965341E+02  0.17976231864E+01  0.15320644451E+02  0.00000000000E+00 0. -1.
</event>
<event>
 7    1  0.6515090E-012  0.5930194E+02  0.7816164E-02  0.1266605E+00
        -11   -1    0    0    0    0  0.00000000000E+00  0.00000000000E+00  0.45593999997E+02  0.45594000000E+02  0.51100000000E-03 0. -1.
         11   -1    0    0    0    0 -0.00000000000E+00 -0.00000000000E+00 -0.45593999997E+02  0.45594000000E+02  0.51100000000E-03 0.  1.
    9900012    2    1    2    0    0 -0.22027434859E+02 -0.17666578436E+02  0.14812325218E+02  0.59301939433E+02  0.49999991620E+02 0.  0.
        -12    1    1    2    0    0  0.22027434859E+02  0.17666578436E+02 -0.14812325218E+02  0.31886060567E+02  0.00000000000E+00 0.  1.
         11    1    3    3    0    0 -0.16867108273E+02 -0.82198700491E+01  0.14504342169E+02  0.23715850125E+02  0.51100000000E-03 0. -1.
        -11    1    3    3    0    0  0.96988446874E+01  0.78443494467E+01  0.23600913268E+01  0.12695331340E+02  0.51100000000E-03 0.  1.
         12    1    3    3    0    0 -0.14859171274E+02 -0.17291057834E+02 -0.20521082784E+01  0.22890757968E+02  0.00000000000E+00 0. -1.
</event>
<event>
 7    1  0.6515090E-012  0.5930193E+02  0.7816164E-02  0.1266605E+00
        -11   -1    0    0    0    0  0.00000000000E+00  0.00000000000E+00  0.45593999997E+02  0.45594000000E+02  0.51100000000E-03 0.  1.
         11   -1    0    0    0    0 -0.00000000000E+00 -0.00000000000E+00 -0.45593999997E+02  0.45594000000E+02  0.51100000000E-03 0. -1.
    9900012    2    1    2    0    0  0.19084620742E+02 -0.24083446194E+02 -0.85138887117E+01  0.59301930464E+02  0.49999975263E+02 0.  0.
        -12    1    1    2    0    0 -0.19084620742E+02  0.24083446194E+02  0.85138887117E+01  0.31886069536E+02  0.00000000000E+00 0.  1.
         11    1    3    3    0    0  0.11719556489E+02  0.90839371872E+01 -0.98017647879E+01  0.17774715535E+02  0.51100000000E-03 0. -1.
        -11    1    3    3    0    0  0.31541403327E+01  0.33270887973E+01 -0.10946628717E+01  0.47134284939E+01  0.51100000000E-03 0.  1.
        -12    1    3    3    0    0  0.42109239199E+01 -0.36494472179E+02  0.23825389479E+01  0.36813786435E+02  0.00000000000E+00 0.  1.
</event>
<event>
 7    1  0.6515090E-012  0.5930198E+02  0.7816164E-02  0.1266605E+00
        -11   -1    0    0    0    0  0.00000000000E+00  0.00000000000E+00  0.45593999997E+02  0.45594000000E+02  0.51100000000E-03 0.  1.
         11   -1    0    0    0    0 -0.00000000000E+00 -0.00000000000E+00 -0.45593999997E+02  0.45594000000E+02  0.51100000000E-03 0. -1.
    9900012    2    1    2    0    0 -0.29842951198E+02  0.10938824880E+02 -0.25414196275E+01  0.59301977362E+02  0.50000060794E+02 0.  0.
        -12    1    1    2    0    0  0.29842951198E+02 -0.10938824880E+02  0.25414196275E+01  0.31886022638E+02  0.00000000000E+00 0.  1.
         11    1    3    3    0    0  0.33216071282E+01  0.49066460901E+01  0.56204930972E+01  0.81668961475E+01  0.51100000000E-03 0. -1.
        -11    1    3    3    0    0 -0.10094360800E+02  0.99291710551E-01  0.14888149375E+02  0.17987856206E+02  0.51100000000E-03 0.  1.
         12    1    3    3    0    0 -0.23070197526E+02  0.59328870797E+01 -0.23050062100E+02  0.33147225009E+02  0.00000000000E+00 0. -1.
</event>
<event>
 7    1  0.6515090E-012  0.5930196E+02  0.7816164E-02  0.1266605E+00
        -11   -1    0    0    0    0  0.00000000000E+00  0.00000000000E+00  0.45593999997E+02  0.45594000000E+02  0.51100000000E-03 0. -1.
         11   -1    0    0    0    0 -0.00000000000E+00 -0.00000000000E+00 -0.45593999997E+02  0.45594000000E+02  0.51100000000E-03 0.  1.
    9900012    2    1    2    0    0 -0.10423667197E+02 -0.30066829135E+02 -0.20130381760E+01  0.59301962699E+02  0.50000034052E+02 0.  0.
        -12    1    1    2    0    0  0.10423667197E+02  0.30066829135E+02  0.20130381760E+01  0.31886037301E+02  0.00000000000E+00 0.  1.
         11    1    3    3    0    0 -0.16453368804E+02 -0.65873359996E+01  0.13443868391E+02  0.22245087955E+02  0.51100000000E-03 0. -1.
        -11    1    3    3    0    0 -0.25027120733E+01  0.30779148028E+01 -0.67602016364E+01  0.78382047486E+01  0.51100000000E-03 0.  1.
        -12    1    3    3    0    0  0.85324136805E+01 -0.26557407938E+02 -0.86967049307E+01  0.29218669995E+02  0.00000000000E+00 0.  1.
</event>
<event>
 7    1  0.6515090E-012  0.5930195E+02  0.7816164E-02  0.1266605E+00
        -11   -1    0    0    0    0  0.00000000000E+00  0.00000000000E+00  0.45593999997E+02  0.45594000000E+02  0.51100000000E-03 0.  1.
         11   -1    0    0    0    0 -0.00000000000E+00 -0.00000000000E+00 -0.45593999997E+02  0.45594000000E+02  0.51100000000E-03 0. -1.
    9900012    2    1    2    0    0 -0.96122792753E+01  0.16407324951E+02 -0.25595388036E+02  0.59301951113E+02  0.50000012922E+02 0.  0.
        -12    1    1    2    0    0  0.96122792753E+01 -0.16407324951E+02  0.25595388036E+02  0.31886048887E+02  0.00000000000E+00 0.  1.
         11    1    3    3    0    0 -0.18357597870E+02 -0.28400995863E+01 -0.27422817230E+02  0.33122174903E+02  0.51100000000E-03 0. -1.
        -11    1    3    3    0    0 -0.20584973344E+01 -0.45534433696E+00 -0.25273394319E+01  0.32912299534E+01  0.51100000000E-03 0.  1.
        -12    1    3    3    0    0  0.10803815929E+02  0.19702768874E+02  0.43547686261E+01  0.22888546256E+02  0.00000000000E+00 0.  1.
</event>
<event>
 7    1  0.6515090E-012  0.5930194E+02  0.7816164E-02  0.1266605E+00
        -11   -1    0    0    0    0  0.00000000000E+00  0.00000000000E+00  0.45593999997E+02  0.45594000000E+02  0.51100000000E-03 0.  1.
         11   -1    0    0    0    0 -0.00000000000E+00 -0.00000000000E+00 -0.45593999997E+02  0.45594000000E+02  0.51100000000E-03 0. -1.
    9900012    2    1    2    0    0 -0.20824266278E+02 -0.80574417144E+01 -0.22762872783E+02  0.59301940188E+02  0.49999992998E+02 0.  0.
        -12    1    1    2    0    0  0.20824266278E+02  0.80574417144E+01  0.22762872783E+02  0.31886059812E+02  0.00000000000E+00 0.  1.
         11    1    3    3    0    0 -0.70790116297E+00  0.43563136904E+01  0.64223872294E+01  0.77926664892E+01  0.51100000000E-03 0.  1.
        -11    1    3    3    0    0 -0.23363190578E+02 -0.48828700525E+01 -0.29831043157E+01  0.24053690061E+02  0.51100000000E-03 0. -1.
        -12    1    3    3    0    0  0.32468254629E+01 -0.75308853524E+01 -0.26202155696E+02  0.27455583638E+02  0.00000000000E+00 0.  1.
</event>
<event>
 7    1  0.6515090E-012  0.5930193E+02  0.7816164E-02  0.1266605E+00
        -11   -1    0    0    0    0  0.00000000000E+00  0.00000000000E+00  0.45593999997E+02  0.45594000000E+02  0.51100000000E-03 0. -1.
         11   -1    0    0    0    0 -0.00000000000E+00 -0.00000000000E+00 -0.45593999997E+02  0.45594000000E+02  0.51100000000E-03 0.  1.
    9900012    2    1    2    0    0  0.32251768484E+01 -0.22851575694E+02  0.22002844123E+02  0.59301930519E+02  0.49999975364E+02 0.  0.
        -12    1    1    2    0    0 -0.32251768484E+01  0.22851575694E+02 -0.22002844123E+02  0.31886069481E+02  0.00000000000E+00 0.  1.
         11    1    3    3    0    0 -0.37002084618E+01 -0.21732242616E+01 -0.10156987584E+02  0.11026279672E+02  0.51100000000E-03 0.  1.
        -11    1    3    3    0    0  0.55748165752E+01  0.55844362415E+01  0.14778418841E+02  0.16753094392E+02  0.51100000000E-03 0. -1.
         12    1    3    3    0    0  0.13505687350E+01 -0.26262787674E+02  0.17381412866E+02  0.31522556456E+02  0.00000000000E+00 0. -1.
</event>
<event>
 7    1  0.6515090E-012  0.5930196E+02  0.7816164E-02  0.1266605E+00
        -11   -1    0    0    0    0  0.00000000000E+00  0.00000000000E+00  0.45593999997E+02  0.45594000000E+02  0.51100000000E-03 0. -1.
         11   -1    0    0    0    0 -0.00000000000E+00 -0.00000000000E+00 -0.45593999997E+02  0.45594000000E+02  0.51100000000E-03 0.  1.
    9900012    2    1    2    0    0 -0.23274427046E+02  0.21340802579E+02 -0.44261622638E+01  0.59301957263E+02  0.50000024137E+02 0.  0.
        -12    1    1    2    0    0  0.23274427046E+02 -0.21340802579E+02  0.44261622638E+01  0.31886042737E+02  0.00000000000E+00 0.  1.
         11    1    3    3    0    0  0.49626538977E+01  0.90891035816E+01  0.91284437495E+01  0.13804644985E+02  0.51100000000E-03 0.  1.
        -11    1    3    3    0    0 -0.48479295202E+00  0.49463269352E+01  0.81295571857E+01  0.95284245630E+01  0.51100000000E-03 0. -1.
        -12    1    3    3    0    0 -0.27752287992E+02  0.73053720626E+01 -0.21684163199E+02  0.35968887714E+02  0.00000000000E+00 0.  1.
</event>
<event>
 7    1  0.6515090E-012  0.5930195E+02  0.7816164E-02  0.1266605E+00
        -11   -1    0    0    0    0  0.00000000000E+00  0.00000000000E+00  0.45593999997E+02  0.45594000000E+02  0.51100000000E-03 0. -1.
         11   -1    0    0    0    0 -0.00000000000E+00 -0.00000000000E+00 -0.45593999997E+02  0.45594000000E+02  0.51100000000E-03 0.  1.
    9900012    2    1    2    0    0  0.25609218551E+01  0.31139878632E+02 -0.63615944265E+01  0.59301949043E+02  0.50000009147E+02 0.  0.
        -12    1    1    2    0    0 -0.25609218551E+01 -0.31139878632E+02  0.63615944265E+01  0.31886050957E+02  0.00000000000E+00 0.  1.
         11    1    3    3    0    0  0.87372871297E+01  0.77924128118E+01 -0.52269818718E+01  0.12821202111E+02  0.51100000000E-03 0. -1.
        -11    1    3    3    0    0  0.16779438665E+02  0.13275717901E+02 -0.77137740728E+00  0.21410027349E+02  0.51100000000E-03 0.  1.
        -12    1    3    3    0    0 -0.22955803940E+02  0.10071747919E+02 -0.36323514742E+00  0.25070719584E+02  0.00000000000E+00 0.  1.
</event>
<event>
 7    1  0.6515090E-012  0.5930197E+02  0.7816164E-02  0.1266605E+00
        -11   -1    0    0    0    0  0.00000000000E+00  0.00000000000E+00  0.45593999997E+02  0.45594000000E+02  0.51100000000E-03 0.  1.
         11   -1    0    0    0    0 -0.00000000000E+00 -0.00000000000E+00 -0.45593999997E+02  0.45594000000E+02  0.51100000000E-03 0. -1.
    9900012    2    1    2    0    0 -0.50334390786E+01  0.26628358941E+02 -0.16802204316E+02  0.59301967341E+02  0.50000042518E+02 0.  0.
        -12    1    1    2    0    0  0.50334390786E+01 -0.26628358941E+02  0.16802204316E+02  0.31886032659E+02  0.00000000000E+00 0.  1.
         11    1    3    3    0    0  0.32577931343E+01  0.11054667626E+02 -0.74420180891E+01  0.13718692573E+02  0.51100000000E-03 0. -1.
        -11    1    3    3    0    0 -0.16629185762E+02  0.14447098321E+02 -0.21520631898E+02  0.30795877428E+02  0.51100000000E-03 0.  1.
        -12    1    3    3    0    0  0.83379535490E+01  0.11265929944E+01  0.12160445672E+02  0.14787397340E+02  0.00000000000E+00 0.  1.
</event>
<event>
 7    1  0.6515090E-012  0.5930196E+02  0.7816164E-02  0.1266605E+00
        -11   -1    0    0    0    0  0.00000000000E+00  0.00000000000E+00  0.45593999997E+02  0.45594000000E+02  0.51100000000E-03 0.  1.
         11   -1    0    0    0    0 -0.00000000000E+00 -0.00000000000E+00 -0.45593999997E+02  0.45594000000E+02  0.51100000000E-03 0. -1.
    9900012    2    1    2    0    0 -0.21736512503E+02 -0.13145635280E+02 -0.19272675679E+02  0.59301957120E+02  0.50000023877E+02 0.  0.
        -12    1    1    2    0    0  0.21736512503E+02  0.13145635280E+02  0.19272675679E+02  0.31886042880E+02  0.00000000000E+00 0.  1.
         11    1    3    3    0    0 -0.25804563741E+02 -0.10075682157E+02 -0.16242544763E+02  0.32112538695E+02  0.51100000000E-03 0. -1.
        -11    1    3    3    0    0 -0.97884946211E+01 -0.74692244331E+01 -0.29046977882E+01  0.12650739507E+02  0.51100000000E-03 0.  1.
        -12    1    3    3    0    0  0.13856545859E+02  0.43992713099E+01 -0.12543312717E+00  0.14538678918E+02  0.00000000000E+00 0.  1.
</event>
<event>
 7    1  0.6515090E-012  0.5930201E+02  0.7816164E-02  0.1266605E+00
        -11   -1    0    0    0    0  0.00000000000E+00  0.00000000000E+00  0.45593999997E+02  0.45594000000E+02  0.51100000000E-03 0. -1.
         11   -1    0    0    0    0 -0.00000000000E+00 -0.00000000000E+00 -0.45593999997E+02  0.45594000000E+02  0.51100000000E-03 0.  1.
    9900012    2    1    2    0    0 -0.26523392925E+02  0.12529522098E+02 -0.12499487376E+02  0.59302008077E+02  0.50000116811E+02 0.  0.
        -12    1    1    2    0    0  0.26523392925E+02 -0.12529522098E+02  0.12499487376E+02  0.31885991923E+02  0.00000000000E+00 0.  1.
         11    1    3    3    0    0 -0.77678501702E+01  0.10834419095E+02  0.52565320593E+01  0.14330222013E+02  0.51100000000E-03 0. -1.
        -11    1    3    3    0    0 -0.15858933993E+02  0.16238407103E+02 -0.19650601800E+02  0.30022288454E+02  0.51100000000E-03 0.  1.
         12    1    3    3    0    0 -0.28966087617E+01 -0.14543304100E+02  0.18945823642E+01  0.14949497610E+02  0.00000000000E+00 0. -1.
</event>
<event>
 7    1  0.6515090E-012  0.5930200E+02  0.7816164E-02  0.1266605E+00
        -11   -1    0    0    0    0  0.00000000000E+00  0.00000000000E+00  0.45593999997E+02  0.45594000000E+02  0.51100000000E-03 0.  1.
         11   -1    0    0    0    0 -0.00000000000E+00 -0.00000000000E+00 -0.45593999997E+02  0.45594000000E+02  0.51100000000E-03 0. -1.
    9900012    2    1    2    0    0  0.10748462938E+02 -0.69004374595E+01 -0.29215940959E+02  0.59302004661E+02  0.50000110580E+02 0.  0.
        -12    1    1    2    0    0 -0.10748462938E+02  0.69004374595E+01  0.29215940959E+02  0.31885995339E+02  0.00000000000E+00 0.  1.
         11    1    3    3    0    0 -0.10493115130E+00 -0.48545255302E+01 -0.10760252514E+02  0.11805103265E+02  0.51100000000E-03 0. -1.
        -11    1    3    3    0    0 -0.80893501731E+00 -0.10951410431E+02 -0.27942991580E+02  0.30023300035E+02  0.51100000000E-03 0.  1.
        -12    1    3    3    0    0  0.11662329106E+02  0.89054985014E+01  0.94873031354E+01  0.17473601361E+02  0.00000000000E+00 0.  1.
</event>
<event>
 7    1  0.6515090E-012  0.5930198E+02  0.7816164E-02  0.1266605E+00
        -11   -1    0    0    0    0  0.00000000000E+00  0.00000000000E+00  0.45593999997E+02  0.45594000000E+02  0.51100000000E-03 0. -1.
         11   -1    0    0    0    0 -0.00000000000E+00 -0.00000000000E+00 -0.45593999997E+02  0.45594000000E+02  0.51100000000E-03 0.  1.
    9900012    2    1    2    0    0 -0.24374633338E+02 -0.16436502640E+02  0.12346533632E+02  0.59301980146E+02  0.50000065871E+02 0.  0.
        -12    1    1    2    0    0  0.24374633338E+02  0.16436502640E+02 -0.12346533632E+02  0.31886019854E+02  0.00000000000E+00 0.  1.
         11    1    3    3    0    0  0.90834551911E+01 -0.10672901835E+02 -0.12359393414E+01  0.14069383003E+02  0.51100000000E-03 0. -1.
        -11    1    3    3    0    0  0.46290575060E+01 -0.74569737958E+00  0.20956027586E+01  0.51357364768E+01  0.51100000000E-03 0.  1.
         12    1    3    3    0    0 -0.38087146035E+02 -0.50179034256E+01  0.11486870215E+02  0.40096860666E+02  0.00000000000E+00 0. -1.
</event>
<event>
 7    1  0.6515090E-012  0.5930193E+02  0.7816164E-02  0.1266605E+00
        -11   -1    0    0    0    0  0.00000000000E+00  0.00000000000E+00  0.45593999997E+02  0.45594000000E+02  0.51100000000E-03 0.  1.
         11   -1    0    0    0    0 -0.00000000000E+00 -0.00000000000E+00 -0.45593999997E+02  0.45594000000E+02  0.51100000000E-03 0. -1.
    9900012    2    1    2    0    0  0.45468016092E+01 -0.22786391013E+02 -0.21836397741E+02  0.59301932720E+02  0.49999979378E+02 0.  0.
        -12    1    1    2    0    0 -0.45468016092E+01  0.22786391013E+02  0.21836397741E+02  0.31886067280E+02  0.00000000000E+00 0.  1.
         11    1    3    3    0    0 -0.12222167937E+02 -0.11434863163E+02 -0.30725261911E+02  0.34988272384E+02  0.51100000000E-03 0. -1.
        -11    1    3    3    0    0  0.97967580697E+00  0.39134205578E+00 -0.16753626023E+01  0.19798367109E+01  0.51100000000E-03 0.  1.
        -12    1    3    3    0    0  0.15789293739E+02 -0.11742869906E+02  0.10564226773E+02  0.22333823625E+02  0.00000000000E+00 0.  1.
</event>
<event>
 7    1  0.6515090E-012  0.5930194E+02  0.7816164E-02  0.1266605E+00
        -11   -1    0    0    0    0  0.00000000000E+00  0.00000000000E+00  0.45593999997E+02  0.45594000000E+02  0.51100000000E-03 0.  1.
         11   -1    0    0    0    0 -0.00000000000E+00 -0.00000000000E+00 -0.45593999997E+02  0.45594000000E+02  0.51100000000E-03 0. -1.
    9900012    2    1    2    0    0  0.13634792488E+02 -0.11702650999E+02 -0.26341244175E+02  0.59301941114E+02  0.49999994686E+02 0.  0.
        -12    1    1    2    0    0 -0.13634792488E+02  0.11702650999E+02  0.26341244175E+02  0.31886058886E+02  0.00000000000E+00 0.  1.
         11    1    3    3    0    0 -0.72690423711E+01 -0.36563883224E+01 -0.43600474345E+01  0.92313686119E+01  0.51100000000E-03 0. -1.
        -11    1    3    3    0    0 -0.18232526670E+00  0.20044320656E+01  0.10148984282E+02  0.10346635812E+02  0.51100000000E-03 0.  1.
        -12    1    3    3    0    0  0.21086160126E+02 -0.10050694742E+02 -0.32130181022E+02  0.39723936690E+02  0.00000000000E+00 0.  1.
</event>
<event>
 7    1  0.6515090E-012  0.5930194E+02  0.7816164E-02  0.1266605E+00
        -11   -1    0    0    0    0  0.00000000000E+00  0.00000000000E+00  0.45593999997E+02  0.45594000000E+02  0.51100000000E-03 0. -1.
         11   -1    0    0    0    0 -0.00000000000E+00 -0.00000000000E+00 -0.45593999997E+02  0.45594000000E+02  0.51100000000E-03 0.  1.
    9900012    2    1    2    0    0 -0.12435613937E+02 -0.79755270848E+01  0.28257159656E+02  0.59301943516E+02  0.49999999066E+02 0.  0.
        -12    1    1    2    0    0  0.12435613937E+02  0.79755270848E+01 -0.28257159656E+02  0.31886056484E+02  0.00000000000E+00 0.  1.
         11    1    3    3    0    0  0.28401696148E+01 -0.66258998351E+01  0.49609694811E+01  0.87510188275E+01  0.51100000000E-03 0. -1.
        -11    1    3    3    0    0  0.30034217395E+00 -0.17243018231E+02  0.22413047738E+02  0.28279968039E+02  0.51100000000E-03 0.  1.
         12    1    3    3    0    0 -0.15576125726E+02  0.15893390981E+02  0.88314243762E+00  0.22270956649E+02  0.00000000000E+00 0. -1.
</event>
<event>
 7    1  0.6515090E-012  0.5930231E+02  0.7816164E-02  0.1266603E+00
        -11   -1    0    0    0    0  0.00000000000E+00  0.00000000000E+00  0.45593999997E+02  0.45594000000E+02  0.51100000000E-03 0. -1.
         11   -1    0    0    0    0 -0.00000000000E+00 -0.00000000000E+00 -0.45593999997E+02  0.45594000000E+02  0.51100000000E-03 0.  1.
    9900012    2    1    2    0    0  0.29453268671E+02  0.27979462538E+01  0.11890064143E+02  0.59302310985E+02  0.50000669238E+02 0.  0.
        -12    1    1    2    0    0 -0.29453268671E+02 -0.27979462538E+01 -0.11890064143E+02  0.31885689015E+02  0.00000000000E+00 0.  1.
         11    1    3    3    0    0  0.13412481928E+02  0.54294929319E+01 -0.65439203806E+01  0.15880710286E+02  0.51100000000E-03 0. -1.
        -11    1    3    3    0    0 -0.39321758740E+01  0.10724645139E+02 -0.23387787104E+01  0.11659755855E+02  0.51100000000E-03 0.  1.
         12    1    3    3    0    0  0.19972962617E+02 -0.13356191818E+02  0.20772763234E+02  0.31761844845E+02  0.00000000000E+00 0. -1.
</event>
<event>
 7    1  0.6515090E-012  0.5930196E+02  0.7816164E-02  0.1266605E+00
        -11   -1    0    0    0    0  0.00000000000E+00  0.00000000000E+00  0.45593999997E+02  0.45594000000E+02  0.51100000000E-03 0.  1.
         11   -1    0    0    0    0 -0.00000000000E+00 -0.00000000000E+00 -0.45593999997E+02  0.45594000000E+02  0.51100000000E-03 0. -1.
    9900012    2    1    2    0    0  0.18363341626E+02  0.49630524518E+01 -0.25590537886E+02  0.59301955489E+02  0.50000020902E+02 0.  0.
        -12    1    1    2    0    0 -0.18363341626E+02 -0.49630524518E+01  0.25590537886E+02  0.31886044511E+02  0.00000000000E+00 0.  1.
         11    1    3    3    0    0 -0.68446967317E+01  0.59810824184E-01 -0.29323766503E+00  0.68512363318E+01  0.51100000000E-03 0. -1.
        -11    1    3    3    0    0 -0.73170479654E+01 -0.81020208105E+01 -0.58559887550E+01  0.12388484036E+02  0.51100000000E-03 0.  1.
         12    1    3    3    0    0  0.32525086323E+02  0.13005262438E+02 -0.19441311466E+02  0.40062235121E+02  0.00000000000E+00 0. -1.
</event>
<event>
 7    1  0.6515090E-012  0.5930193E+02  0.7816164E-02  0.1266605E+00
        -11   -1    0    0    0    0  0.00000000000E+00  0.00000000000E+00  0.45593999997E+02  0.45594000000E+02  0.51100000000E-03 0.  1.
         11   -1    0    0    0    0 -0.00000000000E+00 -0.00000000000E+00 -0.45593999997E+02  0.45594000000E+02  0.51100000000E-03 0. -1.
    9900012    2    1    2    0    0  0.30381357123E+02  0.92738933137E+01 -0.27730322080E+01  0.59301926779E+02  0.49999968543E+02 0.  0.
        -12    1    1    2    0    0 -0.30381357123E+02 -0.92738933137E+01  0.27730322080E+01  0.31886073221E+02  0.00000000000E+00 0.  1.
         11    1    3    3    0    0  0.27025528990E+02 -0.81037246740E+01 -0.23225689012E+01  0.28309784481E+02  0.51100000000E-03 0. -1.
        -11    1    3    3    0    0 -0.71811305080E+01 -0.10367850348E+01  0.53298583159E+01  0.90028300279E+01  0.51100000000E-03 0.  1.
         12    1    3    3    0    0  0.10536958641E+02  0.18414403023E+02 -0.57803216227E+01  0.21989312271E+02  0.00000000000E+00 0. -1.
</event>
<event>
 7    1  0.6515090E-012  0.5930188E+02  0.7816164E-02  0.1266605E+00
        -11   -1    0    0    0    0  0.00000000000E+00  0.00000000000E+00  0.45593999997E+02  0.45594000000E+02  0.51100000000E-03 0.  1.
         11   -1    0    0    0    0 -0.00000000000E+00 -0.00000000000E+00 -0.45593999997E+02  0.45594000000E+02  0.51100000000E-03 0. -1.
    9900012    2    1    2    0    0  0.26368504958E+02  0.53094227338E+01 -0.17124151111E+02  0.59301881158E+02  0.49999885341E+02 0.  0.
        -12    1    1    2    0    0 -0.26368504958E+02 -0.53094227338E+01  0.17124151111E+02  0.31886118842E+02  0.00000000000E+00 0.  1.
         11    1    3    3    0    0 -0.11555536221E+01 -0.50047274161E+01 -0.64206587113E+01  0.82223755223E+01  0.51100000000E-03 0. -1.
        -11    1    3    3    0    0 -0.44034994266E+01 -0.10369484236E+02  0.91540156113E+00  0.11302874449E+02  0.51100000000E-03 0.  1.
         12    1    3    3    0    0  0.31927558007E+02  0.20683634386E+02 -0.11618893961E+02  0.39776631187E+02  0.00000000000E+00 0. -1.
</event>
<event>
 7    1  0.6515090E-012  0.5930192E+02  0.7816164E-02  0.1266605E+00
        -11   -1    0    0    0    0  0.00000000000E+00  0.00000000000E+00  0.45593999997E+02  0.45594000000E+02  0.51100000000E-03 0.  1.
         11   -1    0    0    0    0 -0.00000000000E+00 -0.00000000000E+00 -0.45593999997E+02  0.45594000000E+02  0.51100000000E-03 0. -1.
    9900012    2    1    2    0    0 -0.88707408725E+01  0.28645757667E+02  0.10837550209E+02  0.59301921996E+02  0.49999959819E+02 0.  0.
        -12    1    1    2    0    0  0.88707408725E+01 -0.28645757667E+02 -0.10837550209E+02  0.31886078004E+02  0.00000000000E+00 0.  1.
         11    1    3    3    0    0  0.12082747312E+02  0.19216148742E+01 -0.60410013126E+01  0.13644745635E+02  0.51100000000E-03 0. -1.
        -11    1    3    3    0    0  0.40089048696E+01  0.13650318472E+02  0.50522023826E+01  0.15097260076E+02  0.51100000000E-03 0.  1.
        -12    1    3    3    0    0 -0.24962393054E+02  0.13073824321E+02  0.11826349139E+02  0.30559916284E+02  0.00000000000E+00 0.  1.
</event>
<event>
 7    1  0.6515090E-012  0.5930192E+02  0.7816164E-02  0.1266605E+00
        -11   -1    0    0    0    0  0.00000000000E+00  0.00000000000E+00  0.45593999997E+02  0.45594000000E+02  0.51100000000E-03 0. -1.
         11   -1    0    0    0    0 -0.00000000000E+00 -0.00000000000E+00 -0.45593999997E+02  0.45594000000E+02  0.51100000000E-03 0.  1.
    9900012    2    1    2    0    0  0.14041952867E+02  0.89902417327E+00  0.28613585051E+02  0.59301922564E+02  0.49999960856E+02 0.  0.
        -12    1    1    2    0    0 -0.14041952867E+02 -0.89902417327E+00 -0.28613585051E+02  0.31886077436E+02  0.00000000000E+00 0.  1.
         11    1    3    3    0    0  0.39579845254E+01 -0.11149978445E+02  0.27970963974E+02  0.30370421247E+02  0.51100000000E-03 0. -1.
        -11    1    3    3    0    0  0.79544880076E+01 -0.50179481374E+01  0.57082860174E+01  0.11001736794E+02  0.51100000000E-03 0.  1.
        -12    1    3    3    0    0  0.21294803339E+01  0.17066950755E+02 -0.50656649407E+01  0.17929764523E+02  0.00000000000E+00 0.  1.
</event>
<event>
 7    1  0.6515090E-012  0.5930195E+02  0.7816164E-02  0.1266605E+00
        -11   -1    0    0    0    0  0.00000000000E+00  0.00000000000E+00  0.45593999997E+02  0.45594000000E+02  0.51100000000E-03 0.  1.
         11   -1    0    0    0    0 -0.00000000000E+00 -0.00000000000E+00 -0.45593999997E+02  0.45594000000E+02  0.51100000000E-03 0. -1.
    9900012    2    1    2    0    0  0.17067330342E+02 -0.23340052133E+02  0.13441292686E+02  0.59301950579E+02  0.50000011948E+02 0.  0.
        -12    1    1    2    0    0 -0.17067330342E+02  0.23340052133E+02 -0.13441292686E+02  0.31886049421E+02  0.00000000000E+00 0.  1.
         11    1    3    3    0    0 -0.10461300845E+02 -0.73695313182E+01 -0.28828431016E+01  0.13117148769E+02  0.51100000000E-03 0. -1.
        -11    1    3    3    0    0  0.64291845572E+00 -0.55692807008E+00  0.15147978305E+02  0.15171841022E+02  0.51100000000E-03 0.  1.
        -12    1    3    3    0    0  0.26885712732E+02 -0.15413592745E+02  0.11761574833E+01  0.31012960788E+02  0.00000000000E+00 0.  1.
</event>
<event>
 7    1  0.6515090E-012  0.5930193E+02  0.7816164E-02  0.1266605E+00
        -11   -1    0    0    0    0  0.00000000000E+00  0.00000000000E+00  0.45593999997E+02  0.45594000000E+02  0.51100000000E-03 0.  1.
         11   -1    0    0    0    0 -0.00000000000E+00 -0.00000000000E+00 -0.45593999997E+02  0.45594000000E+02  0.51100000000E-03 0. -1.
    9900012    2    1    2    0    0 -0.13162969298E+02 -0.14684133443E+01 -0.29005194513E+02  0.59301932396E+02  0.49999978787E+02 0.  0.
        -12    1    1    2    0    0  0.13162969298E+02  0.14684133443E+01  0.29005194513E+02  0.31886067604E+02  0.00000000000E+00 0.  1.
         11    1    3    3    0    0  0.23105311229E+01 -0.53912895860E+01 -0.26996757691E+02  0.27626608253E+02  0.51100000000E-03 0. -1.
        -11    1    3    3    0    0  0.74395156962E+00  0.75405865988E+01 -0.10552604081E+02  0.12991203307E+02  0.51100000000E-03 0.  1.
        -12    1    3    3    0    0 -0.16217451991E+02 -0.36177103570E+01  0.85441672596E+01  0.18684120837E+02  0.00000000000E+00 0.  1.
</event>
<event>
 7    1  0.6515090E-012  0.5930194E+02  0.7816164E-02  0.1266605E+00
        -11   -1    0    0    0    0  0.00000000000E+00  0.00000000000E+00  0.45593999997E+02  0.45594000000E+02  0.51100000000E-03 0. -1.
         11   -1    0    0    0    0 -0.00000000000E+00 -0.00000000000E+00 -0.45593999997E+02  0.45594000000E+02  0.51100000000E-03 0.  1.
    9900012    2    1    2    0    0  0.18407785930E+02 -0.25169584370E+02  0.66608042833E+01  0.59301939192E+02  0.49999991180E+02 0.  0.
        -12    1    1    2    0    0 -0.18407785930E+02  0.25169584370E+02 -0.66608042833E+01  0.31886060808E+02  0.00000000000E+00 0.  1.
         11    1    3    3    0    0 -0.10140490013E+02 -0.48948413887E+01  0.61207412045E-01  0.11260228973E+02  0.51100000000E-03 0. -1.
        -11    1    3    3    0    0 -0.45262087566E+01  0.44062172653E+01  0.99276969847E+00  0.63942871559E+01  0.51100000000E-03 0.  1.
         12    1    3    3    0    0  0.33074484699E+02 -0.24680960246E+02  0.56068271728E+01  0.41647423062E+02  0.00000000000E+00 0. -1.
</event>
<event>
 7    1  0.6515090E-012  0.5930191E+02  0.7816164E-02  0.1266605E+00
        -11   -1    0    0    0    0  0.00000000000E+00  0.00000000000E+00  0.45593999997E+02  0.45594000000E+02  0.51100000000E-03 0. -1.
         11   -1    0    0    0    0 -0.00000000000E+00 -0.00000000000E+00 -0.45593999997E+02  0.45594000000E+02  0.51100000000E-03 0.  1.
    9900012    2    1    2    0    0  0.12227104911E+02 -0.20382151572E+02 -0.21255316908E+02  0.59301910650E+02  0.49999939127E+02 0.  0.
        -12    1    1    2    0    0 -0.12227104911E+02  0.20382151572E+02  0.21255316908E+02  0.31886089350E+02  0.00000000000E+00 0.  1.
         11    1    3    3    0    0  0.16706195000E+02 -0.13716533351E+02  0.62897156389E+00  0.21624889457E+02  0.51100000000E-03 0. -1.
        -11    1    3    3    0    0 -0.65882226873E+01 -0.17118433361E+02 -0.19458799584E+02  0.26741172757E+02  0.51100000000E-03 0.  1.
         12    1    3    3    0    0  0.21091325979E+01  0.10452815140E+02 -0.24254888875E+01  0.10935848436E+02  0.00000000000E+00 0. -1.
</event>
<event>
 7    1  0.6515090E-012  0.5930194E+02  0.7816164E-02  0.1266605E+00
        -11   -1    0    0    0    0  0.00000000000E+00  0.00000000000E+00  0.45593999997E+02  0.45594000000E+02  0.51100000000E-03 0.  1.
         11   -1    0    0    0    0 -0.00000000000E+00 -0.00000000000E+00 -0.45593999997E+02  0.45594000000E+02  0.51100000000E-03 0. -1.
    9900012    2    1    2    0    0  0.20625195125E+02  0.39441081585E+01 -0.23995123308E+02  0.59301943397E+02  0.49999998850E+02 0.  0.
        -12    1    1    2    0    0 -0.20625195125E+02 -0.39441081585E+01  0.23995123308E+02  0.31886056603E+02  0.00000000000E+00 0.  1.
         11    1    3    3    0    0  0.15136318507E+02  0.65475543509E+01 -0.30836833466E+02  0.34969828486E+02  0.51100000000E-03 0. -1.
        -11    1    3    3    0    0  0.17374077875E+01 -0.27623484499E+01 -0.82017625305E+01  0.88271209149E+01  0.51100000000E-03 0.  1.
        -12    1    3    3    0    0  0.37514688303E+01  0.15890225751E+00  0.15043472688E+02  0.15504993996E+02  0.00000000000E+00 0.  1.
</event>
<event>
 7    1  0.6515090E-012  0.5930196E+02  0.7816164E-02  0.1266605E+00
        -11   -1    0    0    0    0  0.00000000000E+00  0.00000000000E+00  0.45593999997E+02  0.45594000000E+02  0.51100000000E-03 0.  1.
         11   -1    0    0    0    0 -0.00000000000E+00 -0.00000000000E+00 -0.45593999997E+02  0.45594000000E+02  0.51100000000E-03 0. -1.
    9900012    2    1    2    0    0 -0.10545625124E+02  0.93331012265E+01 -0.28607735141E+02  0.59301960772E+02  0.50000030538E+02 0.  0.
        -12    1    1    2    0    0  0.10545625124E+02 -0.93331012265E+01  0.28607735141E+02  0.31886039228E+02  0.00000000000E+00 0.  1.
         11    1    3    3    0    0  0.12208743884E+02 -0.66106221792E+01 -0.27280942056E+01  0.14149072446E+02  0.51100000000E-03 0. -1.
        -11    1    3    3    0    0 -0.83665345756E+01 -0.47275281291E+01 -0.85339092978E+00  0.96476266178E+01  0.51100000000E-03 0.  1.
         12    1    3    3    0    0 -0.14387834432E+02  0.20671251535E+02 -0.25026250005E+02  0.35505261709E+02  0.00000000000E+00 0. -1.
</event>
<event>
 7    1  0.6515090E-012  0.5930185E+02  0.7816164E-02  0.1266605E+00
        -11   -1    0    0    0    0  0.00000000000E+00  0.00000000000E+00  0.45593999997E+02  0.45594000000E+02  0.51100000000E-03 0.  1.
         11   -1    0    0    0    0 -0.00000000000E+00 -0.00000000000E+00 -0.45593999997E+02  0.45594000000E+02  0.51100000000E-03 0. -1.
    9900012    2    1    2    0    0  0.30110576282E+02 -0.12859588714E+01  0.10412781888E+02  0.59301850641E+02  0.49999829685E+02 0.  0.
        -12    1    1    2    0    0 -0.30110576282E+02  0.12859588714E+01 -0.10412781888E+02  0.31886149359E+02  0.00000000000E+00 0.  1.
         11    1    3    3    0    0  0.10022484230E+02 -0.71673616993E+01  0.13271171568E+01  0.12392840839E+02  0.51100000000E-03 0. -1.
        -11    1    3    3    0    0  0.15974486792E+02 -0.54844396806E+01  0.22963089994E+02  0.28505557515E+02  0.51100000000E-03 0.  1.
        -12    1    3    3    0    0  0.41136052603E+01  0.11365842509E+02 -0.13877425263E+02  0.18403452287E+02  0.00000000000E+00 0.  1.
</event>
<event>
 7    1  0.6515090E-012  0.5930194E+02  0.7816164E-02  0.1266605E+00
        -11   -1    0    0    0    0  0.00000000000E+00  0.00000000000E+00  0.45593999997E+02  0.45594000000E+02  0.51100000000E-03 0. -1.
         11   -1    0    0    0    0 -0.00000000000E+00 -0.00000000000E+00 -0.45593999997E+02  0.45594000000E+02  0.51100000000E-03 0.  1.
    9900012    2    1    2    0    0 -0.38829205184E+01  0.16748985968E+02  0.26853592745E+02  0.59301936492E+02  0.49999986256E+02 0.  0.
        -12    1    1    2    0    0  0.38829205184E+01 -0.16748985968E+02 -0.26853592745E+02  0.31886063508E+02  0.00000000000E+00 0.  1.
         11    1    3    3    0    0  0.90462515126E+01 -0.10818858958E+01  0.27793432709E+02  0.29248590488E+02  0.51100000000E-03 0. -1.
        -11    1    3    3    0    0  0.71625578671E+00  0.84331345733E+01  0.76341260414E+01  0.11397835837E+02  0.51100000000E-03 0.  1.
        -12    1    3    3    0    0 -0.13645427818E+02  0.93977372908E+01 -0.85739660057E+01  0.18655510167E+02  0.00000000000E+00 0.  1.
</event>
<event>
 7    1  0.6515090E-012  0.5930196E+02  0.7816164E-02  0.1266605E+00
        -11   -1    0    0    0    0  0.00000000000E+00  0.00000000000E+00  0.45593999997E+02  0.45594000000E+02  0.51100000000E-03 0.  1.
         11   -1    0    0    0    0 -0.00000000000E+00 -0.00000000000E+00 -0.45593999997E+02  0.45594000000E+02  0.51100000000E-03 0. -1.
    9900012    2    1    2    0    0 -0.14101629635E+02  0.88628720975E+01 -0.27190306609E+02  0.59301964912E+02  0.50000038088E+02 0.  0.
        -12    1    1    2    0    0  0.14101629635E+02 -0.88628720975E+01  0.27190306609E+02  0.31886035088E+02  0.00000000000E+00 0.  1.
         11    1    3    3    0    0 -0.18783058079E+02 -0.83881634069E+01 -0.29008169867E+02  0.35561755798E+02  0.51100000000E-03 0. -1.
        -11    1    3    3    0    0  0.55149254166E+01 -0.69294748956E+00 -0.69651556827E+00  0.56017597924E+01  0.51100000000E-03 0.  1.
        -12    1    3    3    0    0 -0.83349697216E+00  0.17943982994E+02  0.25143788270E+01  0.18138449321E+02  0.00000000000E+00 0.  1.
</event>
<event>
 7    1  0.6515090E-012  0.5930194E+02  0.7816164E-02  0.1266605E+00
        -11   -1    0    0    0    0  0.00000000000E+00  0.00000000000E+00  0.45593999997E+02  0.45594000000E+02  0.51100000000E-03 0.  1.
         11   -1    0    0    0    0 -0.00000000000E+00 -0.00000000000E+00 -0.45593999997E+02  0.45594000000E+02  0.51100000000E-03 0. -1.
    9900012    2    1    2    0    0  0.87322729703E+01 -0.47194709269E+01 -0.30301732317E+02  0.59301937551E+02  0.49999988188E+02 0.  0.
        -12    1    1    2    0    0 -0.87322729703E+01  0.47194709269E+01  0.30301732317E+02  0.31886062449E+02  0.00000000000E+00 0.  1.
         11    1    3    3    0    0 -0.12946945221E+01 -0.48340987934E+01  0.33843279219E+01  0.60413922894E+01  0.51100000000E-03 0. -1.
        -11    1    3    3    0    0  0.17743374795E+02  0.24823939787E+01  0.70988563831E+00  0.17930241685E+02  0.51100000000E-03 0.  1.
         12    1    3    3    0    0 -0.77164073030E+01 -0.23677661123E+01 -0.34395945878E+02  0.35330303577E+02  0.00000000000E+00 0. -1.
</event>
<event>
 7    1  0.6515090E-012  0.5930193E+02  0.7816164E-02  0.1266605E+00
        -11   -1    0    0    0    0  0.00000000000E+00  0.00000000000E+00  0.45593999997E+02  0.45594000000E+02  0.51100000000E-03 0. -1.
         11   -1    0    0    0    0 -0.00000000000E+00 -0.00000000000E+00 -0.45593999997E+02  0.45594000000E+02  0.51100000000E-03 0.  1.
    9900012    2    1    2    0    0 -0.25109457452E+02 -0.50915542855E+01 -0.18981904254E+02  0.59301929880E+02  0.49999974198E+02 0.  0.
        -12    1    1    2    0    0  0.25109457452E+02  0.50915542855E+01  0.18981904254E+02  0.31886070120E+02  0.00000000000E+00 0.  1.
         11    1    3    3    0    0 -0.44978899347E+01  0.45699635439E+01  0.10206789682E+02  0.12053801746E+02  0.51100000000E-03 0. -1.
        -11    1    3    3    0    0 -0.21156019552E+02 -0.18614101144E+02 -0.22489645656E+02  0.36053378297E+02  0.51100000000E-03 0.  1.
         12    1    3    3    0    0  0.54445203433E+00  0.89525833147E+01 -0.66990482809E+01  0.11194749836E+02  0.00000000000E+00 0. -1.
</event>
<event>
 7    1  0.6515090E-012  0.5930194E+02  0.7816164E-02  0.1266605E+00
        -11   -1    0    0    0    0  0.00000000000E+00  0.00000000000E+00  0.45593999997E+02  0.45594000000E+02  0.51100000000E-03 0.  1.
         11   -1    0    0    0    0 -0.00000000000E+00 -0.00000000000E+00 -0.45593999997E+02  0.45594000000E+02  0.51100000000E-03 0. -1.
    9900012    2    1    2    0    0 -0.28069041450E+02  0.14055517705E+02  0.55939497255E+01  0.59301938164E+02  0.49999989306E+02 0.  0.
        -12    1    1    2    0    0  0.28069041450E+02 -0.14055517705E+02 -0.55939497255E+01  0.31886061836E+02  0.00000000000E+00 0.  1.
         11    1    3    3    0    0 -0.15824714071E+02  0.15546855090E+02 -0.89444901833E+01  0.23919242954E+02  0.51100000000E-03 0. -1.
        -11    1    3    3    0    0 -0.19256820897E+02 -0.18160140479E+01  0.11610053218E+00  0.19342609381E+02  0.51100000000E-03 0.  1.
         12    1    3    3    0    0  0.70124935181E+01  0.32467666347E+00  0.14422339377E+02  0.16040085828E+02  0.00000000000E+00 0. -1.
</event>
<event>
 7    1  0.6515090E-012  0.5930193E+02  0.7816164E-02  0.1266605E+00
        -11   -1    0    0    0    0  0.00000000000E+00  0.00000000000E+00  0.45593999997E+02  0.45594000000E+02  0.51100000000E-03 0.  1.
         11   -1    0    0    0    0 -0.00000000000E+00 -0.00000000000E+00 -0.45593999997E+02  0.45594000000E+02  0.51100000000E-03 0. -1.
    9900012    2    1    2    0    0 -0.37640150048E+01 -0.28621277316E+02 -0.13541639190E+02  0.59301932257E+02  0.49999978533E+02 0.  0.
        -12    1    1    2    0    0  0.37640150048E+01  0.28621277316E+02  0.13541639190E+02  0.31886067743E+02  0.00000000000E+00 0.  1.
         11    1    3    3    0    0 -0.12041084610E+02 -0.29374984886E+02 -0.60039939971E+01  0.32309834414E+02  0.51100000000E-03 0. -1.
        -11    1    3    3    0    0 -0.57150034211E+00 -0.10362989112E+02  0.98216334795E+00  0.10425104368E+02  0.51100000000E-03 0.  1.
        -12    1    3    3    0    0  0.88485699475E+01  0.11116696682E+02 -0.85198085409E+01  0.16566993475E+02  0.00000000000E+00 0.  1.
</event>
<event>
 7    1  0.6515090E-012  0.5930196E+02  0.7816164E-02  0.1266605E+00
        -11   -1    0    0    0    0  0.00000000000E+00  0.00000000000E+00  0.45593999997E+02  0.45594000000E+02  0.51100000000E-03 0.  1.
         11   -1    0    0    0    0 -0.00000000000E+00 -0.00000000000E+00 -0.45593999997E+02  0.45594000000E+02  0.51100000000E-03 0. -1.
    9900012    2    1    2    0    0 -0.86975721416E+00 -0.43630397819E+00 -0.31871194245E+02  0.59301955068E+02  0.50000020135E+02 0.  0.
        -12    1    1    2    0    0  0.86975721416E+00  0.43630397819E+00  0.31871194245E+02  0.31886044932E+02  0.00000000000E+00 0.  1.
         11    1    3    3    0    0 -0.14818569029E+02  0.56536525825E+00 -0.15120473440E+02  0.21178723835E+02  0.51100000000E-03 0. -1.
        -11    1    3    3    0    0  0.57116598350E+01  0.14587337316E+02 -0.12356768702E+02  0.19952523676E+02  0.51100000000E-03 0.  1.
        -12    1    3    3    0    0  0.82371519802E+01 -0.15589006552E+02 -0.43939521036E+01  0.18170707557E+02  0.00000000000E+00 0.  1.
</event>
<event>
 7    1  0.6515090E-012  0.5930193E+02  0.7816164E-02  0.1266605E+00
        -11   -1    0    0    0    0  0.00000000000E+00  0.00000000000E+00  0.45593999997E+02  0.45594000000E+02  0.51100000000E-03 0.  1.
         11   -1    0    0    0    0 -0.00000000000E+00 -0.00000000000E+00 -0.45593999997E+02  0.45594000000E+02  0.51100000000E-03 0. -1.
    9900012    2    1    2    0    0 -0.18267416538E+02  0.22872817354E+02 -0.12643459326E+02  0.59301931814E+02  0.49999977724E+02 0.  0.
        -12    1    1    2    0    0  0.18267416538E+02 -0.22872817354E+02  0.12643459326E+02  0.31886068186E+02  0.00000000000E+00 0.  1.
         11    1    3    3    0    0  0.75074653765E+01 -0.60826947182E+01 -0.17262097808E+01  0.98153457343E+01  0.51100000000E-03 0. -1.
        -11    1    3    3    0    0  0.25803456825E+01  0.10857809775E+02 -0.11249926827E+02  0.15846484494E+02  0.51100000000E-03 0.  1.
        -12    1    3    3    0    0 -0.28355227597E+02  0.18097702297E+02  0.33267728157E+00  0.33640101585E+02  0.00000000000E+00 0.  1.
</event>
<event>
 7    1  0.6515090E-012  0.5930190E+02  0.7816164E-02  0.1266605E+00
        -11   -1    0    0    0    0  0.00000000000E+00  0.00000000000E+00  0.45593999997E+02  0.45594000000E+02  0.51100000000E-03 0.  1.
         11   -1    0    0    0    0 -0.00000000000E+00 -0.00000000000E+00 -0.45593999997E+02  0.45594000000E+02  0.51100000000E-03 0. -1.
    9900012    2    1    2    0    0 -0.70962800937E+01  0.30605802262E+01 -0.30935403457E+02  0.59301897549E+02  0.49999915233E+02 0.  0.
        -12    1    1    2    0    0  0.70962800937E+01 -0.30605802262E+01  0.30935403457E+02  0.31886102451E+02  0.00000000000E+00 0.  1.
         11    1    3    3    0    0  0.14133025167E+01  0.24640980440E+01 -0.92156837252E+01  0.96435486185E+01  0.51100000000E-03 0. -1.
        -11    1    3    3    0    0 -0.10651011544E+02  0.12445213070E+02  0.75290641700E+01  0.18028149733E+02  0.51100000000E-03 0.  1.
         12    1    3    3    0    0  0.21414289333E+01 -0.11848730887E+02 -0.29248783902E+02  0.31630199197E+02  0.00000000000E+00 0. -1.
</event>
<event>
 7    1  0.6515090E-012  0.5930204E+02  0.7816164E-02  0.1266604E+00
        -11   -1    0    0    0    0  0.00000000000E+00  0.00000000000E+00  0.45593999997E+02  0.45594000000E+02  0.51100000000E-03 0. -1.
         11   -1    0    0    0    0 -0.00000000000E+00 -0.00000000000E+00 -0.45593999997E+02  0.45594000000E+02  0.51100000000E-03 0.  1.
    9900012    2    1    2    0    0 -0.23005285674E+01 -0.29854125576E+02  0.10961441776E+02  0.59302039902E+02  0.50000174851E+02 0.  0.
        -12    1    1    2    0    0  0.23005285674E+01  0.29854125576E+02 -0.10961441776E+02  0.31885960098E+02  0.00000000000E+00 0.  1.
         11    1    3    3    0    0 -0.44946337342E+01 -0.28221387458E+01 -0.11226876198E+01  0.54246315320E+01  0.51100000000E-03 0. -1.
        -11    1    3    3    0    0 -0.20566670991E+01 -0.16142016497E+01 -0.15738036718E+02  0.15953724535E+02  0.51100000000E-03 0.  1.
         12    1    3    3    0    0  0.42507722659E+01 -0.25417785180E+02  0.27822166114E+02  0.37923683835E+02  0.00000000000E+00 0. -1.
</event>
<event>
 7    1  0.6515090E-012  0.5930196E+02  0.7816164E-02  0.1266605E+00
        -11   -1    0    0    0    0  0.00000000000E+00  0.00000000000E+00  0.45593999997E+02  0.45594000000E+02  0.51100000000E-03 0.  1.
         11   -1    0    0    0    0 -0.00000000000E+00 -0.00000000000E+00 -0.45593999997E+02  0.45594000000E+02  0.51100000000E-03 0. -1.
    9900012    2    1    2    0    0 -0.28060569979E+02 -0.15037281646E+02  0.17899240112E+01  0.59301964580E+02  0.50000037482E+02 0.  0.
        -12    1    1    2    0    0  0.28060569979E+02  0.15037281646E+02 -0.17899240112E+01  0.31886035420E+02  0.00000000000E+00 0.  1.
         11    1    3    3    0    0 -0.12881078310E+02 -0.34358676479E+01  0.20416663161E+02  0.24383754834E+02  0.51100000000E-03 0. -1.
        -11    1    3    3    0    0 -0.53207431380E+01  0.29808466135E+01  0.31926029938E+01  0.68839282544E+01  0.51100000000E-03 0.  1.
        -12    1    3    3    0    0 -0.98587485313E+01 -0.14582260612E+02 -0.21819342143E+02  0.28034281491E+02  0.00000000000E+00 0.  1.
</event>
<event>
 7    1  0.6515090E-012  0.5930200E+02  0.7816164E-02  0.1266605E+00
        -11   -1    0    0    0    0  0.00000000000E+00  0.00000000000E+00  0.45593999997E+02  0.45594000000E+02  0.51100000000E-03 0.  1.
         11   -1    0    0    0    0 -0.00000000000E+00 -0.00000000000E+00 -0.45593999997E+02  0.45594000000E+02  0.51100000000E-03 0. -1.
    9900012    2    1    2    0    0 -0.51677953250E+01  0.20358547418E+02 -0.23990421604E+02  0.59302001658E+02  0.50000105105E+02 0.  0.
        -12    1    1    2    0    0  0.51677953250E+01 -0.20358547418E+02  0.23990421604E+02  0.31885998342E+02  0.00000000000E+00 0.  1.
         11    1    3    3    0    0 -0.22256116732E+01  0.76575142466E+01  0.33141695245E+01  0.86356581483E+01  0.51100000000E-03 0. -1.
        -11    1    3    3    0    0 -0.98897337547E+01  0.68892288920E+01  0.78367078129E+01  0.14376449425E+02  0.51100000000E-03 0.  1.
         12    1    3    3    0    0  0.69475501030E+01  0.58118042796E+01 -0.35141298941E+02  0.36289894085E+02  0.00000000000E+00 0. -1.
</event>
<event>
 7    1  0.6515090E-012  0.5930199E+02  0.7816164E-02  0.1266605E+00
        -11   -1    0    0    0    0  0.00000000000E+00  0.00000000000E+00  0.45593999997E+02  0.45594000000E+02  0.51100000000E-03 0. -1.
         11   -1    0    0    0    0 -0.00000000000E+00 -0.00000000000E+00 -0.45593999997E+02  0.45594000000E+02  0.51100000000E-03 0.  1.
    9900012    2    1    2    0    0 -0.80677297362E+01 -0.79891774119E+01  0.29796018715E+02  0.59301985039E+02  0.50000074795E+02 0.  0.
        -12    1    1    2    0    0  0.80677297362E+01  0.79891774119E+01 -0.29796018715E+02  0.31886014961E+02  0.00000000000E+00 0.  1.
         11    1    3    3    0    0  0.75919731557E+01 -0.75179363213E+01  0.52872702059E+01  0.11921101015E+02  0.51100000000E-03 0. -1.
        -11    1    3    3    0    0  0.10009484602E+02 -0.23922037030E+01 -0.19412840202E+01  0.10472869925E+02  0.51100000000E-03 0.  1.
         12    1    3    3    0    0 -0.25669187494E+02  0.19209626124E+01  0.26450032529E+02  0.36908014099E+02  0.00000000000E+00 0. -1.
</event>
<event>
 7    1  0.6515090E-012  0.5930195E+02  0.7816164E-02  0.1266605E+00
        -11   -1    0    0    0    0  0.00000000000E+00  0.00000000000E+00  0.45593999997E+02  0.45594000000E+02  0.51100000000E-03 0.  1.
         11   -1    0    0    0    0 -0.00000000000E+00 -0.00000000000E+00 -0.45593999997E+02  0.45594000000E+02  0.51100000000E-03 0. -1.
    9900012    2    1    2    0    0  0.22547241352E+02  0.20785784343E+02 -0.87345917446E+01  0.59301952639E+02  0.50000015705E+02 0.  0.
        -12    1    1    2    0    0 -0.22547241352E+02 -0.20785784343E+02  0.87345917446E+01  0.31886047361E+02  0.00000000000E+00 0.  1.
         11    1    3    3    0    0  0.10712187502E+02  0.18417007961E+02 -0.10323324882E+01  0.21330795905E+02  0.51100000000E-03 0. -1.
        -11    1    3    3    0    0 -0.69237481201E+01  0.13633630264E+02 -0.35916190988E+01  0.15707128643E+02  0.51100000000E-03 0.  1.
        -12    1    3    3    0    0  0.18758801970E+02 -0.11264853881E+02 -0.41106401576E+01  0.22264028091E+02  0.00000000000E+00 0.  1.
</event>
<event>
 7    1  0.6515090E-012  0.5930195E+02  0.7816164E-02  0.1266605E+00
        -11   -1    0    0    0    0  0.00000000000E+00  0.00000000000E+00  0.45593999997E+02  0.45594000000E+02  0.51100000000E-03 0.  1.
         11   -1    0    0    0    0 -0.00000000000E+00 -0.00000000000E+00 -0.45593999997E+02  0.45594000000E+02  0.51100000000E-03 0. -1.
    9900012    2    1    2    0    0 -0.11049515691E+01  0.17241456628E+02 -0.26799843190E+02  0.59301947568E+02  0.50000006457E+02 0.  0.
        -12    1    1    2    0    0  0.11049515691E+01 -0.17241456628E+02  0.26799843190E+02  0.31886052432E+02  0.00000000000E+00 0.  1.
         11    1    3    3    0    0 -0.39555255824E+01  0.18280344967E+02 -0.14138928032E+02  0.23446246627E+02  0.51100000000E-03 0. -1.
        -11    1    3    3    0    0  0.22971890888E+01 -0.48267499760E+01 -0.23635598725E+02  0.24232542590E+02  0.51100000000E-03 0.  1.
        -12    1    3    3    0    0  0.55338492451E+00  0.37878616373E+01  0.10974683567E+02  0.11623158351E+02  0.00000000000E+00 0.  1.
</event>
<event>
 7    1  0.6515090E-012  0.5930192E+02  0.7816164E-02  0.1266605E+00
        -11   -1    0    0    0    0  0.00000000000E+00  0.00000000000E+00  0.45593999997E+02  0.45594000000E+02  0.51100000000E-03 0.  1.
         11   -1    0    0    0    0 -0.00000000000E+00 -0.00000000000E+00 -0.45593999997E+02  0.45594000000E+02  0.51100000000E-03 0. -1.
    9900012    2    1    2    0    0 -0.15126060125E+02  0.11917873815E+02 -0.25414337867E+02  0.59301921841E+02  0.49999959536E+02 0.  0.
        -12    1    1    2    0    0  0.15126060125E+02 -0.11917873815E+02  0.25414337867E+02  0.31886078159E+02  0.00000000000E+00 0.  1.
         11    1    3    3    0    0 -0.12194581545E+02  0.29965332526E+01 -0.18431770739E+02  0.22302851912E+02  0.51100000000E-03 0. -1.
        -11    1    3    3    0    0 -0.20302206039E+01 -0.13414813502E+02 -0.53531119125E+01  0.14585431924E+02  0.51100000000E-03 0.  1.
         12    1    3    3    0    0 -0.90125797595E+00  0.22336154064E+02 -0.16294552160E+01  0.22413638005E+02  0.00000000000E+00 0. -1.
</event>
<event>
 7    1  0.6515090E-012  0.5930197E+02  0.7816164E-02  0.1266605E+00
        -11   -1    0    0    0    0  0.00000000000E+00  0.00000000000E+00  0.45593999997E+02  0.45594000000E+02  0.51100000000E-03 0.  1.
         11   -1    0    0    0    0 -0.00000000000E+00 -0.00000000000E+00 -0.45593999997E+02  0.45594000000E+02  0.51100000000E-03 0. -1.
    9900012    2    1    2    0    0  0.21772662080E+02  0.18754410228E+02  0.13818187753E+02  0.59301968107E+02  0.50000043916E+02 0.  0.
        -12    1    1    2    0    0 -0.21772662080E+02 -0.18754410228E+02 -0.13818187753E+02  0.31886031893E+02  0.00000000000E+00 0.  1.
         11    1    3    3    0    0  0.22351191966E+00  0.67773508930E+01 -0.12431972141E+01  0.68940541251E+01  0.51100000000E-03 0. -1.
        -11    1    3    3    0    0 -0.12672497549E+02  0.68211658378E+01 -0.63754935297E+00  0.14405796297E+02  0.51100000000E-03 0.  1.
         12    1    3    3    0    0  0.34221647710E+02  0.51558934976E+01  0.15698934320E+02  0.38002117685E+02  0.00000000000E+00 0. -1.
</event>
<event>
 7    1  0.6515090E-012  0.5930196E+02  0.7816164E-02  0.1266605E+00
        -11   -1    0    0    0    0  0.00000000000E+00  0.00000000000E+00  0.45593999997E+02  0.45594000000E+02  0.51100000000E-03 0. -1.
         11   -1    0    0    0    0 -0.00000000000E+00 -0.00000000000E+00 -0.45593999997E+02  0.45594000000E+02  0.51100000000E-03 0.  1.
    9900012    2    1    2    0    0 -0.34345093841E+00  0.27292067254E+02  0.16484678160E+02  0.59301960616E+02  0.50000030254E+02 0.  0.
        -12    1    1    2    0    0  0.34345093841E+00 -0.27292067254E+02 -0.16484678160E+02  0.31886039384E+02  0.00000000000E+00 0.  1.
         11    1    3    3    0    0  0.41528523915E+01  0.19911610414E+02  0.16370324552E+02  0.26109499008E+02  0.51100000000E-03 0. -1.
        -11    1    3    3    0    0 -0.83543165186E+01 -0.59883512285E+01  0.11346699837E+02  0.15310210723E+02  0.51100000000E-03 0.  1.
         12    1    3    3    0    0  0.38580131888E+01  0.13368808069E+02 -0.11232346228E+02  0.17882250886E+02  0.00000000000E+00 0. -1.
</event>
<event>
 7    1  0.6515090E-012  0.5930197E+02  0.7816164E-02  0.1266605E+00
        -11   -1    0    0    0    0  0.00000000000E+00  0.00000000000E+00  0.45593999997E+02  0.45594000000E+02  0.51100000000E-03 0.  1.
         11   -1    0    0    0    0 -0.00000000000E+00 -0.00000000000E+00 -0.45593999997E+02  0.45594000000E+02  0.51100000000E-03 0. -1.
    9900012    2    1    2    0    0 -0.24189765927E+02  0.68104710086E+01 -0.19626298853E+02  0.59301970181E+02  0.50000047697E+02 0.  0.
        -12    1    1    2    0    0  0.24189765927E+02 -0.68104710086E+01  0.19626298853E+02  0.31886029819E+02  0.00000000000E+00 0.  1.
         11    1    3    3    0    0  0.63439730046E+01  0.13259262107E+00 -0.22597278062E+00  0.63493809340E+01  0.51100000000E-03 0. -1.
        -11    1    3    3    0    0 -0.40136038955E+01 -0.87457730566E+01  0.74606364742E+01  0.12176151258E+02  0.51100000000E-03 0.  1.
         12    1    3    3    0    0 -0.26520135036E+02  0.15423651444E+02 -0.26860962546E+02  0.40776437989E+02  0.00000000000E+00 0. -1.
</event>
<event>
 7    1  0.6515090E-012  0.5930196E+02  0.7816164E-02  0.1266605E+00
        -11   -1    0    0    0    0  0.00000000000E+00  0.00000000000E+00  0.45593999997E+02  0.45594000000E+02  0.51100000000E-03 0.  1.
         11   -1    0    0    0    0 -0.00000000000E+00 -0.00000000000E+00 -0.45593999997E+02  0.45594000000E+02  0.51100000000E-03 0. -1.
    9900012    2    1    2    0    0  0.31282129068E+02  0.58859858833E+01 -0.18717205557E+01  0.59301956554E+02  0.50000022845E+02 0.  0.
        -12    1    1    2    0    0 -0.31282129068E+02 -0.58859858833E+01  0.18717205557E+01  0.31886043446E+02  0.00000000000E+00 0.  1.
         11    1    3    3    0    0  0.30216253888E+01 -0.75488801714E+01 -0.92093144942E+01  0.12285246662E+02  0.51100000000E-03 0. -1.
        -11    1    3    3    0    0 -0.10292639888E+01  0.89710798571E+01  0.13989980361E+02  0.16651102334E+02  0.51100000000E-03 0.  1.
         12    1    3    3    0    0  0.29289767668E+02  0.44637861975E+01 -0.66523864229E+01  0.30365607558E+02  0.00000000000E+00 0. -1.
</event>
<event>
 7    1  0.6515090E-012  0.5930217E+02  0.7816164E-02  0.1266604E+00
        -11   -1    0    0    0    0  0.00000000000E+00  0.00000000000E+00  0.45593999997E+02  0.45594000000E+02  0.51100000000E-03 0. -1.
         11   -1    0    0    0    0 -0.00000000000E+00 -0.00000000000E+00 -0.45593999997E+02  0.45594000000E+02  0.51100000000E-03 0.  1.
    9900012    2    1    2    0    0 -0.22649101950E+02 -0.30405349506E+01  0.22236889634E+02  0.59302173485E+02  0.50000418474E+02 0.  0.
        -12    1    1    2    0    0  0.22649101950E+02  0.30405349506E+01 -0.22236889634E+02  0.31885826515E+02  0.00000000000E+00 0.  1.
         11    1    3    3    0    0 -0.14432796925E+02 -0.15239803903E+01  0.13463498741E+02  0.19796311321E+02  0.51100000000E-03 0. -1.
        -11    1    3    3    0    0 -0.21628951346E+02  0.41406573517E+01  0.11267455716E+02  0.24736857888E+02  0.51100000000E-03 0.  1.
        -12    1    3    3    0    0  0.13412646321E+02 -0.56572119120E+01 -0.24940648226E+01  0.14769004276E+02  0.00000000000E+00 0.  1.
</event>
<event>
 7    1  0.6515090E-012  0.5930196E+02  0.7816164E-02  0.1266605E+00
        -11   -1    0    0    0    0  0.00000000000E+00  0.00000000000E+00  0.45593999997E+02  0.45594000000E+02  0.51100000000E-03 0. -1.
         11   -1    0    0    0    0 -0.00000000000E+00 -0.00000000000E+00 -0.45593999997E+02  0.45594000000E+02  0.51100000000E-03 0.  1.
    9900012    2    1    2    0    0 -0.27881782735E+02 -0.31312224314E+01  0.15149961858E+02  0.59301957494E+02  0.50000024559E+02 0.  0.
        -12    1    1    2    0    0  0.27881782735E+02  0.31312224314E+01 -0.15149961858E+02  0.31886042506E+02  0.00000000000E+00 0.  1.
         11    1    3    3    0    0  0.21016138786E+01 -0.19501442845E+01 -0.87687588494E+01  0.92255609935E+01  0.51100000000E-03 0. -1.
        -11    1    3    3    0    0 -0.24217954991E+02  0.13840077134E+02  0.15718634659E+02  0.32017691279E+02  0.51100000000E-03 0.  1.
         12    1    3    3    0    0 -0.57654416228E+01 -0.15021155281E+02  0.82000860479E+01  0.18058705221E+02  0.00000000000E+00 0. -1.
</event>
<event>
 7    1  0.6515090E-012  0.5930200E+02  0.7816164E-02  0.1266605E+00
        -11   -1    0    0    0    0  0.00000000000E+00  0.00000000000E+00  0.45593999997E+02  0.45594000000E+02  0.51100000000E-03 0.  1.
         11   -1    0    0    0    0 -0.00000000000E+00 -0.00000000000E+00 -0.45593999997E+02  0.45594000000E+02  0.51100000000E-03 0. -1.
    9900012    2    1    2    0    0  0.12490511285E+02  0.25749667143E+02 -0.14059115284E+02  0.59302000680E+02  0.50000103319E+02 0.  0.
        -12    1    1    2    0    0 -0.12490511285E+02 -0.25749667143E+02  0.14059115284E+02  0.31885999320E+02  0.00000000000E+00 0.  1.
         11    1    3    3    0    0  0.12390343069E+02 -0.45843806320E+01 -0.26384432968E+01  0.13472139044E+02  0.51100000000E-03 0. -1.
        -11    1    3    3    0    0  0.13160585991E+02  0.18981667120E+02  0.30161631817E+01  0.23293817868E+02  0.51100000000E-03 0.  1.
         12    1    3    3    0    0 -0.13060417775E+02  0.11352380654E+02 -0.14436835169E+02  0.22536043767E+02  0.00000000000E+00 0. -1.
</event>
<event>
 7    1  0.6515090E-012  0.5930198E+02  0.7816164E-02  0.1266605E+00
        -11   -1    0    0    0    0  0.00000000000E+00  0.00000000000E+00  0.45593999997E+02  0.45594000000E+02  0.51100000000E-03 0.  1.
         11   -1    0    0    0    0 -0.00000000000E+00 -0.00000000000E+00 -0.45593999997E+02  0.45594000000E+02  0.51100000000E-03 0. -1.
    9900012    2    1    2    0    0 -0.28565296504E+02 -0.55532123578E+01 -0.13034708791E+02  0.59301984803E+02  0.50000074365E+02 0.  0.
        -12    1    1    2    0    0  0.28565296504E+02  0.55532123578E+01  0.13034708791E+02  0.31886015197E+02  0.00000000000E+00 0.  1.
         11    1    3    3    0    0 -0.22341900801E+02  0.53130000861E+01 -0.21445522404E+02  0.31421313352E+02  0.51100000000E-03 0. -1.
        -11    1    3    3    0    0  0.16610484444E+01 -0.10117608843E+02 -0.56766078066E+01  0.11719597565E+02  0.51100000000E-03 0.  1.
        -12    1    3    3    0    0 -0.78844441478E+01 -0.74860360054E+00  0.14087421420E+02  0.16161073886E+02  0.00000000000E+00 0.  1.
</event>
<event>
 7    1  0.6515090E-012  0.5930194E+02  0.7816164E-02  0.1266605E+00
        -11   -1    0    0    0    0  0.00000000000E+00  0.00000000000E+00  0.45593999997E+02  0.45594000000E+02  0.51100000000E-03 0.  1.
         11   -1    0    0    0    0 -0.00000000000E+00 -0.00000000000E+00 -0.45593999997E+02  0.45594000000E+02  0.51100000000E-03 0. -1.
    9900012    2    1    2    0    0 -0.65988980000E+00  0.25880901180E+02 -0.18613552810E+02  0.59301939587E+02  0.49999991902E+02 0.  0.
        -12    1    1    2    0    0  0.65988980000E+00 -0.25880901180E+02  0.18613552810E+02  0.31886060413E+02  0.00000000000E+00 0.  1.
         11    1    3    3    0    0 -0.60721403367E+01  0.30500073615E+02 -0.59660514553E+01  0.31665740936E+02  0.51100000000E-03 0. -1.
        -11    1    3    3    0    0  0.11542401945E+00  0.94942393027E+01 -0.50898498391E+01  0.10773136697E+02  0.51100000000E-03 0.  1.
        -12    1    3    3    0    0  0.52968265172E+01 -0.14113411738E+02 -0.75576515156E+01  0.16863061954E+02  0.00000000000E+00 0.  1.
</event>
<event>
 7    1  0.6515090E-012  0.5930226E+02  0.7816164E-02  0.1266604E+00
        -11   -1    0    0    0    0  0.00000000000E+00  0.00000000000E+00  0.45593999997E+02  0.45594000000E+02  0.51100000000E-03 0. -1.
         11   -1    0    0    0    0 -0.00000000000E+00 -0.00000000000E+00 -0.45593999997E+02  0.45594000000E+02  0.51100000000E-03 0.  1.
    9900012    2    1    2    0    0 -0.30013739838E+02  0.68176245239E+01  0.83304341570E+01  0.59302255278E+02  0.50000567643E+02 0.  0.
        -12    1    1    2    0    0  0.30013739838E+02 -0.68176245239E+01 -0.83304341570E+01  0.31885744722E+02  0.00000000000E+00 0.  1.
         11    1    3    3    0    0 -0.35478739941E+01 -0.27307481877E+01  0.17928265991E+02  0.18478828893E+02  0.51100000000E-03 0. -1.
        -11    1    3    3    0    0 -0.24169439771E+02 -0.28076506977E+01  0.10456215493E+01  0.24354425593E+02  0.51100000000E-03 0.  1.
        -12    1    3    3    0    0 -0.22964260732E+01  0.12356023409E+02 -0.10643453383E+02  0.16469000793E+02  0.00000000000E+00 0.  1.
</event>
<event>
 7    1  0.6515090E-012  0.5930206E+02  0.7816164E-02  0.1266604E+00
        -11   -1    0    0    0    0  0.00000000000E+00  0.00000000000E+00  0.45593999997E+02  0.45594000000E+02  0.51100000000E-03 0.  1.
         11   -1    0    0    0    0 -0.00000000000E+00 -0.00000000000E+00 -0.45593999997E+02  0.45594000000E+02  0.51100000000E-03 0. -1.
    9900012    2    1    2    0    0  0.26888782704E+02 -0.17082427637E+02 -0.13773489977E+01  0.59302061727E+02  0.50000214655E+02 0.  0.
        -12    1    1    2    0    0 -0.26888782704E+02  0.17082427637E+02  0.13773489977E+01  0.31885938273E+02  0.00000000000E+00 0.  1.
         11    1    3    3    0    0 -0.10475060828E+01 -0.12317110952E+02 -0.67619513209E+00  0.12380053769E+02  0.51100000000E-03 0. -1.
        -11    1    3    3    0    0  0.33227328630E+02 -0.51075415591E+01 -0.10972467191E+02  0.35362938017E+02  0.51100000000E-03 0.  1.
         12    1    3    3    0    0 -0.52910398430E+01  0.34222487406E+00  0.10271313326E+02  0.11559069942E+02  0.00000000000E+00 0. -1.
</event>
<event>
 7    1  0.6515090E-012  0.5930193E+02  0.7816164E-02  0.1266605E+00
        -11   -1    0    0    0    0  0.00000000000E+00  0.00000000000E+00  0.45593999997E+02  0.45594000000E+02  0.51100000000E-03 0.  1.
         11   -1    0    0    0    0 -0.00000000000E+00 -0.00000000000E+00 -0.45593999997E+02  0.45594000000E+02  0.51100000000E-03 0. -1.
    9900012    2    1    2    0    0  0.30673009554E+01  0.14409080636E+02 -0.28278812878E+02  0.59301934114E+02  0.49999981919E+02 0.  0.
        -12    1    1    2    0    0 -0.30673009554E+01 -0.14409080636E+02  0.28278812878E+02  0.31886065886E+02  0.00000000000E+00 0.  1.
         11    1    3    3    0    0 -0.51756604311E+00 -0.16059007798E+02 -0.17943468243E+02  0.24085839386E+02  0.51100000000E-03 0. -1.
        -11    1    3    3    0    0  0.69799667420E+01  0.74058899320E+01 -0.14983264346E+01  0.10286502018E+02  0.51100000000E-03 0.  1.
        -12    1    3    3    0    0 -0.33950997435E+01  0.23062198502E+02 -0.88370181998E+01  0.24929592710E+02  0.00000000000E+00 0.  1.
</event>
<event>
 7    1  0.6515090E-012  0.5930197E+02  0.7816164E-02  0.1266605E+00
        -11   -1    0    0    0    0  0.00000000000E+00  0.00000000000E+00  0.45593999997E+02  0.45594000000E+02  0.51100000000E-03 0. -1.
         11   -1    0    0    0    0 -0.00000000000E+00 -0.00000000000E+00 -0.45593999997E+02  0.45594000000E+02  0.51100000000E-03 0.  1.
    9900012    2    1    2    0    0  0.66488749424E+01  0.30395431504E+02 -0.69734586638E+01  0.59301969830E+02  0.50000047056E+02 0.  0.
        -12    1    1    2    0    0 -0.66488749424E+01 -0.30395431504E+02  0.69734586638E+01  0.31886030170E+02  0.00000000000E+00 0.  1.
         11    1    3    3    0    0  0.41256099000E+01  0.11621049883E+02 -0.26717405939E+01  0.12617751602E+02  0.51100000000E-03 0. -1.
        -11    1    3    3    0    0  0.11006297595E+02  0.25612056894E+02  0.91806048490E+01  0.29349609039E+02  0.51100000000E-03 0.  1.
        -12    1    3    3    0    0 -0.84830325526E+01 -0.68376752731E+01 -0.13482322919E+02  0.17334609189E+02  0.00000000000E+00 0.  1.
</event>
<event>
 7    1  0.6515090E-012  0.5930197E+02  0.7816164E-02  0.1266605E+00
        -11   -1    0    0    0    0  0.00000000000E+00  0.00000000000E+00  0.45593999997E+02  0.45594000000E+02  0.51100000000E-03 0. -1.
         11   -1    0    0    0    0 -0.00000000000E+00 -0.00000000000E+00 -0.45593999997E+02  0.45594000000E+02  0.51100000000E-03 0.  1.
    9900012    2    1    2    0    0  0.16977944280E+02 -0.11109408643E+02  0.24597754093E+02  0.59301967654E+02  0.50000043088E+02 0.  0.
        -12    1    1    2    0    0 -0.16977944280E+02  0.11109408643E+02 -0.24597754093E+02  0.31886032346E+02  0.00000000000E+00 0.  1.
         11    1    3    3    0    0  0.11890513790E+01 -0.42872600697E+01 -0.33146692947E+01  0.55481055218E+01  0.51100000000E-03 0. -1.
        -11    1    3    3    0    0 -0.37727204382E+01 -0.19076045772E+02  0.28026807323E+01  0.19646474527E+02  0.51100000000E-03 0.  1.
         12    1    3    3    0    0  0.19561613339E+02  0.12253897199E+02  0.25109742655E+02  0.34107387604E+02  0.00000000000E+00 0. -1.
</event>
<event>
 7    1  0.6515090E-012  0.5930188E+02  0.7816164E-02  0.1266605E+00
        -11   -1    0    0    0    0  0.00000000000E+00  0.00000000000E+00  0.45593999997E+02  0.45594000000E+02  0.51100000000E-03 0.  1.
         11   -1    0    0    0    0 -0.00000000000E+00 -0.00000000000E+00 -0.45593999997E+02  0.45594000000E+02  0.51100000000E-03 0. -1.
    9900012    2    1    2    0    0  0.30067939761E+02  0.58717776896E+01 -0.88411332920E+01  0.59301883702E+02  0.49999889980E+02 0.  0.
        -12    1    1    2    0    0 -0.30067939761E+02 -0.58717776896E+01  0.88411332920E+01  0.31886116298E+02  0.00000000000E+00 0.  1.
         11    1    3    3    0    0  0.14727406699E+02 -0.19673728488E+02 -0.76450291154E+01  0.25737104949E+02  0.51100000000E-03 0. -1.
        -11    1    3    3    0    0  0.92152433945E-01  0.81032745084E+00  0.39688260642E+01  0.40517531067E+01  0.51100000000E-03 0.  1.
        -12    1    3    3    0    0  0.15248380627E+02  0.24735178727E+02 -0.51649302408E+01  0.29513025646E+02  0.00000000000E+00 0.  1.
</event>
<event>
 7    1  0.6515090E-012  0.5930194E+02  0.7816164E-02  0.1266605E+00
        -11   -1    0    0    0    0  0.00000000000E+00  0.00000000000E+00  0.45593999997E+02  0.45594000000E+02  0.51100000000E-03 0. -1.
         11   -1    0    0    0    0 -0.00000000000E+00 -0.00000000000E+00 -0.45593999997E+02  0.45594000000E+02  0.51100000000E-03 0.  1.
    9900012    2    1    2    0    0 -0.13376762351E+02  0.91364170452E+01 -0.27464679508E+02  0.59301944930E+02  0.50000001646E+02 0.  0.
        -12    1    1    2    0    0  0.13376762351E+02 -0.91364170452E+01  0.27464679508E+02  0.31886055070E+02  0.00000000000E+00 0.  1.
         11    1    3    3    0    0  0.66950915773E+01  0.73536465540E+01 -0.45554126248E+01  0.10938562671E+02  0.51100000000E-03 0. -1.
        -11    1    3    3    0    0  0.93519209414E+00 -0.14872516055E+02 -0.13021619923E+02  0.19789616058E+02  0.51100000000E-03 0.  1.
         12    1    3    3    0    0 -0.21007046022E+02  0.16655286546E+02 -0.98876469607E+01  0.28573766201E+02  0.00000000000E+00 0. -1.
</event>
<event>
 7    1  0.6515090E-012  0.5930194E+02  0.7816164E-02  0.1266605E+00
        -11   -1    0    0    0    0  0.00000000000E+00  0.00000000000E+00  0.45593999997E+02  0.45594000000E+02  0.51100000000E-03 0.  1.
         11   -1    0    0    0    0 -0.00000000000E+00 -0.00000000000E+00 -0.45593999997E+02  0.45594000000E+02  0.51100000000E-03 0. -1.
    9900012    2    1    2    0    0  0.23387380653E+02 -0.18595779442E+02  0.11133192614E+02  0.59301944040E+02  0.50000000023E+02 0.  0.
        -12    1    1    2    0    0 -0.23387380653E+02  0.18595779442E+02 -0.11133192614E+02  0.31886055960E+02  0.00000000000E+00 0.  1.
         11    1    3    3    0    0  0.20892165327E+02 -0.25409709119E+02 -0.42113831731E+01  0.33164312718E+02  0.51100000000E-03 0. -1.
        -11    1    3    3    0    0  0.10274388159E+02  0.17679241095E+01  0.32956846758E+01  0.10933898913E+02  0.51100000000E-03 0.  1.
        -12    1    3    3    0    0 -0.77791728329E+01  0.50460055671E+01  0.12048891112E+02  0.15203732409E+02  0.00000000000E+00 0.  1.
</event>
<event>
 7    1  0.6515090E-012  0.5930194E+02  0.7816164E-02  0.1266605E+00
        -11   -1    0    0    0    0  0.00000000000E+00  0.00000000000E+00  0.45593999997E+02  0.45594000000E+02  0.51100000000E-03 0.  1.
         11   -1    0    0    0    0 -0.00000000000E+00 -0.00000000000E+00 -0.45593999997E+02  0.45594000000E+02  0.51100000000E-03 0. -1.
    9900012    2    1    2    0    0 -0.10657332184E+02 -0.29775446233E+02 -0.40699612993E+01  0.59301944856E+02  0.50000001511E+02 0.  0.
        -12    1    1    2    0    0  0.10657332184E+02  0.29775446233E+02  0.40699612993E+01  0.31886055144E+02  0.00000000000E+00 0.  1.
         11    1    3    3    0    0 -0.10369798060E+02  0.47480367711E+00 -0.78722510432E+01  0.13028065363E+02  0.51100000000E-03 0. -1.
        -11    1    3    3    0    0  0.41449149342E+00 -0.11207207172E+02  0.18889899576E+02  0.21968195238E+02  0.51100000000E-03 0.  1.
         12    1    3    3    0    0 -0.70202561745E+00 -0.19043042738E+02 -0.15087609832E+02  0.24305684255E+02  0.00000000000E+00 0. -1.
</event>
<event>
 7    1  0.6515090E-012  0.5930194E+02  0.7816164E-02  0.1266605E+00
        -11   -1    0    0    0    0  0.00000000000E+00  0.00000000000E+00  0.45593999997E+02  0.45594000000E+02  0.51100000000E-03 0.  1.
         11   -1    0    0    0    0 -0.00000000000E+00 -0.00000000000E+00 -0.45593999997E+02  0.45594000000E+02  0.51100000000E-03 0. -1.
    9900012    2    1    2    0    0 -0.30001292882E+02  0.14148505801E-01 -0.10800149752E+02  0.59301937066E+02  0.49999987303E+02 0.  0.
        -12    1    1    2    0    0  0.30001292882E+02 -0.14148505801E-01  0.10800149752E+02  0.31886062934E+02  0.00000000000E+00 0.  1.
         11    1    3    3    0    0 -0.29995052923E+02 -0.12232946966E+02 -0.12972138916E+01  0.32419607578E+02  0.51100000000E-03 0. -1.
        -11    1    3    3    0    0 -0.63534130383E+01 -0.40702271453E+01 -0.39360266648E+01  0.85102827459E+01  0.51100000000E-03 0.  1.
        -12    1    3    3    0    0  0.63471730798E+01  0.16317322617E+02 -0.55669091957E+01  0.18372046742E+02  0.00000000000E+00 0.  1.
</event>
<event>
 7    1  0.6515090E-012  0.5930194E+02  0.7816164E-02  0.1266605E+00
        -11   -1    0    0    0    0  0.00000000000E+00  0.00000000000E+00  0.45593999997E+02  0.45594000000E+02  0.51100000000E-03 0.  1.
         11   -1    0    0    0    0 -0.00000000000E+00 -0.00000000000E+00 -0.45593999997E+02  0.45594000000E+02  0.51100000000E-03 0. -1.
    9900012    2    1    2    0    0  0.48640477643E+01  0.21027329643E+02 -0.23471540422E+02  0.59301940940E+02  0.49999994369E+02 0.  0.
        -12    1    1    2    0    0 -0.48640477643E+01 -0.21027329643E+02  0.23471540422E+02  0.31886059060E+02  0.00000000000E+00 0.  1.
         11    1    3    3    0    0 -0.50086411042E+01 -0.44273741300E+00  0.17549235108E+01  0.53256228666E+01  0.51100000000E-03 0. -1.
        -11    1    3    3    0    0  0.15015633233E+02 -0.51073759740E+01  0.15051693765E+01  0.15931731414E+02  0.51100000000E-03 0.  1.
         12    1    3    3    0    0 -0.51429443644E+01  0.26577443030E+02 -0.26731633309E+02  0.38044586660E+02  0.00000000000E+00 0. -1.
</event>
<event>
 7    1  0.6515090E-012  0.5930197E+02  0.7816164E-02  0.1266605E+00
        -11   -1    0    0    0    0  0.00000000000E+00  0.00000000000E+00  0.45593999997E+02  0.45594000000E+02  0.51100000000E-03 0.  1.
         11   -1    0    0    0    0 -0.00000000000E+00 -0.00000000000E+00 -0.45593999997E+02  0.45594000000E+02  0.51100000000E-03 0. -1.
    9900012    2    1    2    0    0  0.14040785702E+02 -0.21752635820E+02  0.18611780697E+02  0.59301965299E+02  0.50000038794E+02 0.  0.
        -12    1    1    2    0    0 -0.14040785702E+02  0.21752635820E+02 -0.18611780697E+02  0.31886034701E+02  0.00000000000E+00 0.  1.
         11    1    3    3    0    0  0.76828326385E+01  0.51867044404E+01  0.83367033918E+01  0.12467094449E+02  0.51100000000E-03 0. -1.
        -11    1    3    3    0    0 -0.11652344374E+02 -0.30503121590E+00 -0.30218841846E+01  0.12041675870E+02  0.51100000000E-03 0.  1.
         12    1    3    3    0    0  0.18010297438E+02 -0.26634309044E+02  0.13296961489E+02  0.34793194980E+02  0.00000000000E+00 0. -1.
</event>
<event>
 7    1  0.6515090E-012  0.5930194E+02  0.7816164E-02  0.1266605E+00
        -11   -1    0    0    0    0  0.00000000000E+00  0.00000000000E+00  0.45593999997E+02  0.45594000000E+02  0.51100000000E-03 0. -1.
         11   -1    0    0    0    0 -0.00000000000E+00 -0.00000000000E+00 -0.45593999997E+02  0.45594000000E+02  0.51100000000E-03 0.  1.
    9900012    2    1    2    0    0 -0.22053831873E+02  0.19716999005E+02  0.11899118939E+02  0.59301943775E+02  0.49999999539E+02 0.  0.
        -12    1    1    2    0    0  0.22053831873E+02 -0.19716999005E+02 -0.11899118939E+02  0.31886056225E+02  0.00000000000E+00 0.  1.
         11    1    3    3    0    0 -0.53162467153E+01 -0.33413655713E+01 -0.54455010855E+01  0.83114791315E+01  0.51100000000E-03 0. -1.
        -11    1    3    3    0    0 -0.12937734696E+02  0.20511263561E+02 -0.77681007360E+01  0.25464490987E+02  0.51100000000E-03 0.  1.
         12    1    3    3    0    0 -0.37998504620E+01  0.25471010161E+01  0.25112720761E+02  0.25525973657E+02  0.00000000000E+00 0. -1.
</event>
<event>
 7    1  0.6515090E-012  0.5930195E+02  0.7816164E-02  0.1266605E+00
        -11   -1    0    0    0    0  0.00000000000E+00  0.00000000000E+00  0.45593999997E+02  0.45594000000E+02  0.51100000000E-03 0.  1.
         11   -1    0    0    0    0 -0.00000000000E+00 -0.00000000000E+00 -0.45593999997E+02  0.45594000000E+02  0.51100000000E-03 0. -1.
    9900012    2    1    2    0    0  0.17977381406E+02 -0.26267072653E+02  0.18906495918E+01  0.59301954402E+02  0.50000018921E+02 0.  0.
        -12    1    1    2    0    0 -0.17977381406E+02  0.26267072653E+02 -0.18906495918E+01  0.31886045598E+02  0.00000000000E+00 0.  1.
         11    1    3    3    0    0  0.15911548924E+02  0.72681366652E+01 -0.81552558362E+01  0.19300554338E+02  0.51100000000E-03 0. -1.
        -11    1    3    3    0    0  0.52080838455E+01 -0.22084752271E+01 -0.24022323598E+01  0.61459108961E+01  0.51100000000E-03 0.  1.
        -12    1    3    3    0    0 -0.31422513632E+01 -0.31326734091E+02  0.12448137788E+02  0.33855489168E+02  0.00000000000E+00 0.  1.
</event>
<event>
 7    1  0.6515090E-012  0.5930192E+02  0.7816164E-02  0.1266605E+00
        -11   -1    0    0    0    0  0.00000000000E+00  0.00000000000E+00  0.45593999997E+02  0.45594000000E+02  0.51100000000E-03 0.  1.
         11   -1    0    0    0    0 -0.00000000000E+00 -0.00000000000E+00 -0.45593999997E+02  0.45594000000E+02  0.51100000000E-03 0. -1.
    9900012    2    1    2    0    0  0.48456144255E+01 -0.26765416013E+02 -0.16638953299E+02  0.59301917764E+02  0.49999952101E+02 0.  0.
        -12    1    1    2    0    0 -0.48456144255E+01  0.26765416013E+02  0.16638953299E+02  0.31886082236E+02  0.00000000000E+00 0.  1.
         11    1    3    3    0    0 -0.44489340862E+01 -0.10004572811E+02 -0.21390969820E+02  0.24030357503E+02  0.51100000000E-03 0. -1.
        -11    1    3    3    0    0 -0.61219005693E+01  0.51648378122E+01  0.24204823801E+01  0.83673144688E+01  0.51100000000E-03 0.  1.
        -12    1    3    3    0    0  0.15416449081E+02 -0.21925681014E+02  0.23315341409E+01  0.26904245792E+02  0.00000000000E+00 0.  1.
</event>
<event>
 7    1  0.6515090E-012  0.5930174E+02  0.7816164E-02  0.1266605E+00
        -11   -1    0    0    0    0  0.00000000000E+00  0.00000000000E+00  0.45593999997E+02  0.45594000000E+02  0.51100000000E-03 0.  1.
         11   -1    0    0    0    0 -0.00000000000E+00 -0.00000000000E+00 -0.45593999997E+02  0.45594000000E+02  0.51100000000E-03 0. -1.
    9900012    2    1    2    0    0  0.48323519604E+01  0.31082448426E+02 -0.52214324279E+01  0.59301739915E+02  0.49999627746E+02 0.  0.
        -12    1    1    2    0    0 -0.48323519604E+01 -0.31082448426E+02  0.52214324279E+01  0.31886260085E+02  0.00000000000E+00 0.  1.
         11    1    3    3    0    0  0.49200396833E+01  0.80399782737E+01  0.68962891307E+01  0.11679334106E+02  0.51100000000E-03 0. -1.
        -11    1    3    3    0    0  0.49516679641E+01  0.12442093925E+02  0.13764114302E+02  0.19203529874E+02  0.51100000000E-03 0.  1.
        -12    1    3    3    0    0 -0.50393556869E+01  0.10600376227E+02 -0.25881835860E+02  0.28418875935E+02  0.00000000000E+00 0.  1.
</event>
<event>
 7    1  0.6515090E-012  0.5930194E+02  0.7816164E-02  0.1266605E+00
        -11   -1    0    0    0    0  0.00000000000E+00  0.00000000000E+00  0.45593999997E+02  0.45594000000E+02  0.51100000000E-03 0.  1.
         11   -1    0    0    0    0 -0.00000000000E+00 -0.00000000000E+00 -0.45593999997E+02  0.45594000000E+02  0.51100000000E-03 0. -1.
    9900012    2    1    2    0    0 -0.99509988529E+01 -0.21606524903E+02 -0.21233384571E+02  0.59301938517E+02  0.49999989950E+02 0.  0.
        -12    1    1    2    0    0  0.99509988529E+01  0.21606524903E+02  0.21233384571E+02  0.31886061483E+02  0.00000000000E+00 0.  1.
         11    1    3    3    0    0  0.97658469480E+01  0.14195275330E+01 -0.95721619844E+01  0.13748203895E+02  0.51100000000E-03 0. -1.
        -11    1    3    3    0    0  0.62516069773E+01  0.31046351746E+01 -0.35523806019E+01  0.78320340632E+01  0.51100000000E-03 0.  1.
        -12    1    3    3    0    0 -0.25968452778E+02 -0.26130687611E+02 -0.81088419846E+01  0.37721700559E+02  0.00000000000E+00 0.  1.
</event>
<event>
 7    1  0.6515090E-012  0.5930194E+02  0.7816164E-02  0.1266605E+00
        -11   -1    0    0    0    0  0.00000000000E+00  0.00000000000E+00  0.45593999997E+02  0.45594000000E+02  0.51100000000E-03 0.  1.
         11   -1    0    0    0    0 -0.00000000000E+00 -0.00000000000E+00 -0.45593999997E+02  0.45594000000E+02  0.51100000000E-03 0. -1.
    9900012    2    1    2    0    0 -0.31021422874E+02 -0.53730551645E+01 -0.50519780876E+01  0.59301939072E+02  0.49999990961E+02 0.  0.
        -12    1    1    2    0    0  0.31021422874E+02  0.53730551645E+01  0.50519780876E+01  0.31886060928E+02  0.00000000000E+00 0.  1.
         11    1    3    3    0    0 -0.28271721375E+02 -0.17638335009E+01  0.30904650218E+01  0.28494776933E+02  0.51100000000E-03 0. -1.
        -11    1    3    3    0    0 -0.13593696317E+02 -0.48831966810E+01  0.34831270679E+01  0.14858208634E+02  0.51100000000E-03 0.  1.
        -12    1    3    3    0    0  0.10843994818E+02  0.12739750175E+01 -0.11625570177E+02  0.15948953505E+02  0.00000000000E+00 0.  1.
</event>
<event>
 7    1  0.6515090E-012  0.5930193E+02  0.7816164E-02  0.1266605E+00
        -11   -1    0    0    0    0  0.00000000000E+00  0.00000000000E+00  0.45593999997E+02  0.45594000000E+02  0.51100000000E-03 0.  1.
         11   -1    0    0    0    0 -0.00000000000E+00 -0.00000000000E+00 -0.45593999997E+02  0.45594000000E+02  0.51100000000E-03 0. -1.
    9900012    2    1    2    0    0  0.30803161255E+02 -0.54580761361E+01 -0.61721813557E+01  0.59301934688E+02  0.49999982967E+02 0.  0.
        -12    1    1    2    0    0 -0.30803161255E+02  0.54580761361E+01  0.61721813557E+01  0.31886065312E+02  0.00000000000E+00 0.  1.
         11    1    3    3    0    0  0.10988795561E+02  0.58574658522E+01  0.67970881180E+01  0.14186752314E+02  0.51100000000E-03 0. -1.
        -11    1    3    3    0    0  0.30741617543E+01  0.10929691059E+02  0.45386128759E+01  0.12227331035E+02  0.51100000000E-03 0.  1.
         12    1    3    3    0    0  0.16740203940E+02 -0.22245233048E+02 -0.17507882350E+02  0.32887851338E+02  0.00000000000E+00 0. -1.
</event>
<event>
 7    1  0.6515090E-012  0.5930192E+02  0.7816164E-02  0.1266605E+00
        -11   -1    0    0    0    0  0.00000000000E+00  0.00000000000E+00  0.45593999997E+02  0.45594000000E+02  0.51100000000E-03 0.  1.
         11   -1    0    0    0    0 -0.00000000000E+00 -0.00000000000E+00 -0.45593999997E+02  0.45594000000E+02  0.51100000000E-03 0. -1.
    9900012    2    1    2    0    0  0.16958007736E+02 -0.20297129688E+02  0.17809395215E+02  0.59301920625E+02  0.49999957319E+02 0.  0.
        -12    1    1    2    0    0 -0.16958007736E+02  0.20297129688E+02 -0.17809395215E+02  0.31886079375E+02  0.00000000000E+00 0.  1.
         11    1    3    3    0    0  0.12808798980E+02  0.44415561764E+01  0.23388705607E+02  0.27033762277E+02  0.51100000000E-03 0.  1.
        -11    1    3    3    0    0  0.11475996528E+02 -0.11762779765E+02 -0.22874701318E+00  0.16435139476E+02  0.51100000000E-03 0. -1.
        -12    1    3    3    0    0 -0.73267877717E+01 -0.12975906099E+02 -0.53505633789E+01  0.15833018873E+02  0.00000000000E+00 0.  1.
</event>
<event>
 7    1  0.6515090E-012  0.5930196E+02  0.7816164E-02  0.1266605E+00
        -11   -1    0    0    0    0  0.00000000000E+00  0.00000000000E+00  0.45593999997E+02  0.45594000000E+02  0.51100000000E-03 0. -1.
         11   -1    0    0    0    0 -0.00000000000E+00 -0.00000000000E+00 -0.45593999997E+02  0.45594000000E+02  0.51100000000E-03 0.  1.
    9900012    2    1    2    0    0 -0.10522287687E+01  0.16281617784E+02  0.27395647123E+02  0.59301956904E+02  0.50000023483E+02 0.  0.
        -12    1    1    2    0    0  0.10522287687E+01 -0.16281617784E+02 -0.27395647123E+02  0.31886043096E+02  0.00000000000E+00 0.  1.
         11    1    3    3    0    0  0.82819645814E+01  0.72078274379E+01  0.14334318465E+02  0.18055924231E+02  0.51100000000E-03 0. -1.
        -11    1    3    3    0    0 -0.42379559484E+01  0.97068595974E+01 -0.11802041016E+02  0.15857855034E+02  0.51100000000E-03 0.  1.
         12    1    3    3    0    0 -0.50962374017E+01 -0.63306925121E+00  0.24863369674E+02  0.25388177640E+02  0.00000000000E+00 0. -1.
</event>
<event>
 7    1  0.6515090E-012  0.5930195E+02  0.7816164E-02  0.1266605E+00
        -11   -1    0    0    0    0  0.00000000000E+00  0.00000000000E+00  0.45593999997E+02  0.45594000000E+02  0.51100000000E-03 0. -1.
         11   -1    0    0    0    0 -0.00000000000E+00 -0.00000000000E+00 -0.45593999997E+02  0.45594000000E+02  0.51100000000E-03 0.  1.
    9900012    2    1    2    0    0 -0.94951618092E+01  0.48303780341E+00  0.30435650284E+02  0.59301949264E+02  0.50000009550E+02 0.  0.
        -12    1    1    2    0    0  0.94951618092E+01 -0.48303780341E+00 -0.30435650284E+02  0.31886050736E+02  0.00000000000E+00 0.  1.
         11    1    3    3    0    0 -0.47989164374E+00  0.31461178385E+01 -0.28884454496E+01  0.42978449041E+01  0.51100000000E-03 0.  1.
        -11    1    3    3    0    0 -0.14579356760E+02  0.61447101994E+01 -0.39454220694E+01  0.16305872026E+02  0.51100000000E-03 0. -1.
         12    1    3    3    0    0  0.55640865945E+01 -0.88077902345E+01  0.37269517803E+02  0.38698232334E+02  0.00000000000E+00 0. -1.
</event>
<event>
 7    1  0.6515090E-012  0.5930203E+02  0.7816164E-02  0.1266604E+00
        -11   -1    0    0    0    0  0.00000000000E+00  0.00000000000E+00  0.45593999997E+02  0.45594000000E+02  0.51100000000E-03 0.  1.
         11   -1    0    0    0    0 -0.00000000000E+00 -0.00000000000E+00 -0.45593999997E+02  0.45594000000E+02  0.51100000000E-03 0. -1.
    9900012    2    1    2    0    0 -0.89886256959E+01 -0.29910940706E+02 -0.64230502633E+01  0.59302025959E+02  0.50000149423E+02 0.  0.
        -12    1    1    2    0    0  0.89886256959E+01  0.29910940706E+02  0.64230502633E+01  0.31885974041E+02  0.00000000000E+00 0.  1.
         11    1    3    3    0    0 -0.25064585887E+00  0.30624712594E+01 -0.10756545562E+02  0.11186814839E+02  0.51100000000E-03 0. -1.
        -11    1    3    3    0    0 -0.95999277202E+01 -0.75849336351E+01 -0.12617914148E+02  0.17575596382E+02  0.51100000000E-03 0.  1.
         12    1    3    3    0    0  0.86194788322E+00 -0.25388478331E+02  0.16951409447E+02  0.30539614738E+02  0.00000000000E+00 0. -1.
</event>
<event>
 7    1  0.6515090E-012  0.5930195E+02  0.7816164E-02  0.1266605E+00
        -11   -1    0    0    0    0  0.00000000000E+00  0.00000000000E+00  0.45593999997E+02  0.45594000000E+02  0.51100000000E-03 0.  1.
         11   -1    0    0    0    0 -0.00000000000E+00 -0.00000000000E+00 -0.45593999997E+02  0.45594000000E+02  0.51100000000E-03 0. -1.
    9900012    2    1    2    0    0 -0.18695810847E+02 -0.66856924990E+01 -0.24949715591E+02  0.59301950770E+02  0.50000012296E+02 0.  0.
        -12    1    1    2    0    0  0.18695810847E+02  0.66856924990E+01  0.24949715591E+02  0.31886049230E+02  0.00000000000E+00 0.  1.
         11    1    3    3    0    0  0.95799143164E+01 -0.12811338483E+02 -0.82301173433E+01  0.17989996770E+02  0.51100000000E-03 0. -1.
        -11    1    3    3    0    0  0.74895974324E-01  0.73767317046E+01 -0.95033582618E+01  0.12030610897E+02  0.51100000000E-03 0.  1.
        -12    1    3    3    0    0 -0.28350621138E+02 -0.12510857210E+01 -0.72162399860E+01  0.29281343103E+02  0.00000000000E+00 0.  1.
</event>
<event>
 7    1  0.6515090E-012  0.5930193E+02  0.7816164E-02  0.1266605E+00
        -11   -1    0    0    0    0  0.00000000000E+00  0.00000000000E+00  0.45593999997E+02  0.45594000000E+02  0.51100000000E-03 0. -1.
         11   -1    0    0    0    0 -0.00000000000E+00 -0.00000000000E+00 -0.45593999997E+02  0.45594000000E+02  0.51100000000E-03 0.  1.
    9900012    2    1    2    0    0  0.16694059966E+02  0.27144770794E+02 -0.10913456288E+01  0.59301933217E+02  0.49999980284E+02 0.  0.
        -12    1    1    2    0    0 -0.16694059966E+02 -0.27144770794E+02  0.10913456288E+01  0.31886066783E+02  0.00000000000E+00 0.  1.
         11    1    3    3    0    0  0.21764823374E+01  0.10141315911E+02 -0.39525910170E+01  0.11099835124E+02  0.51100000000E-03 0. -1.
        -11    1    3    3    0    0 -0.11095147628E+02  0.12174234244E+02 -0.98621516170E+01  0.19198341467E+02  0.51100000000E-03 0.  1.
         12    1    3    3    0    0  0.25612725257E+02  0.48292206396E+01  0.12723397005E+02  0.29003756626E+02  0.00000000000E+00 0. -1.
</event>
<event>
 7    1  0.6515090E-012  0.5930194E+02  0.7816164E-02  0.1266605E+00
        -11   -1    0    0    0    0  0.00000000000E+00  0.00000000000E+00  0.45593999997E+02  0.45594000000E+02  0.51100000000E-03 0.  1.
         11   -1    0    0    0    0 -0.00000000000E+00 -0.00000000000E+00 -0.45593999997E+02  0.45594000000E+02  0.51100000000E-03 0. -1.
    9900012    2    1    2    0    0  0.27001526935E+02 -0.63284299229E+00 -0.16948090390E+02  0.59301941684E+02  0.49999995726E+02 0.  0.
        -12    1    1    2    0    0 -0.27001526935E+02  0.63284299229E+00  0.16948090390E+02  0.31886058316E+02  0.00000000000E+00 0.  1.
         11    1    3    3    0    0  0.33137996539E+01 -0.25754551626E+01  0.34875138154E+01  0.54568296945E+01  0.51100000000E-03 0. -1.
        -11    1    3    3    0    0  0.17589568920E+00 -0.88486016453E+01  0.10359833024E+02  0.13625521308E+02  0.51100000000E-03 0.  1.
         12    1    3    3    0    0  0.23511831592E+02  0.10791213816E+02 -0.30795437230E+02  0.40219590681E+02  0.00000000000E+00 0. -1.
</event>
<event>
 7    1  0.6515090E-012  0.5930193E+02  0.7816164E-02  0.1266605E+00
        -11   -1    0    0    0    0  0.00000000000E+00  0.00000000000E+00  0.45593999997E+02  0.45594000000E+02  0.51100000000E-03 0.  1.
         11   -1    0    0    0    0 -0.00000000000E+00 -0.00000000000E+00 -0.45593999997E+02  0.45594000000E+02  0.51100000000E-03 0. -1.
    9900012    2    1    2    0    0  0.10723806371E+01  0.20410371310E+02 -0.24474234426E+02  0.59301930816E+02  0.49999975905E+02 0.  0.
        -12    1    1    2    0    0 -0.10723806371E+01 -0.20410371310E+02  0.24474234426E+02  0.31886069184E+02  0.00000000000E+00 0.  1.
         11    1    3    3    0    0 -0.36428320826E+00 -0.77154254065E+01 -0.52190465563E+01  0.93219600233E+01  0.51100000000E-03 0. -1.
        -11    1    3    3    0    0 -0.58285932310E+01  0.12103903041E+02  0.93714028729E+01  0.16379870571E+02  0.51100000000E-03 0.  1.
         12    1    3    3    0    0  0.72652570764E+01  0.16021893676E+02 -0.28626590742E+02  0.33600100222E+02  0.00000000000E+00 0. -1.
</event>
<event>
 7    1  0.6515090E-012  0.5930197E+02  0.7816164E-02  0.1266605E+00
        -11   -1    0    0    0    0  0.00000000000E+00  0.00000000000E+00  0.45593999997E+02  0.45594000000E+02  0.51100000000E-03 0. -1.
         11   -1    0    0    0    0 -0.00000000000E+00 -0.00000000000E+00 -0.45593999997E+02  0.45594000000E+02  0.51100000000E-03 0.  1.
    9900012    2    1    2    0    0 -0.14793649291E+02 -0.32627375799E+01  0.28057466341E+02  0.59301969621E+02  0.50000046676E+02 0.  0.
        -12    1    1    2    0    0  0.14793649291E+02  0.32627375799E+01 -0.28057466341E+02  0.31886030379E+02  0.00000000000E+00 0.  1.
         11    1    3    3    0    0 -0.42628169804E+01 -0.47136017048E+01  0.13629492444E+01  0.64997908077E+01  0.51100000000E-03 0. -1.
        -11    1    3    3    0    0 -0.24487318252E+02 -0.94274733838E+01  0.89017019575E+01  0.27708235374E+02  0.51100000000E-03 0.  1.
         12    1    3    3    0    0  0.13956485941E+02  0.10878337509E+02  0.17792815139E+02  0.25093943439E+02  0.00000000000E+00 0. -1.
</event>
