<event>
 7    1  0.4400431E-015  0.9000779E+02  0.7816164E-02  0.1186339E+00
        -11   -1    0    0    0    0  0.00000000000E+00  0.00000000000E+00  0.45593999997E+02  0.45594000000E+02  0.51100000000E-03 0.  1.
         11   -1    0    0    0    0 -0.00000000000E+00 -0.00000000000E+00 -0.45593999997E+02  0.45594000000E+02  0.51100000000E-03 0. -1.
    9900012    2    1    2    0    0  0.89780903316E-01  0.97331157196E+00  0.66143671229E+00  0.90007790463E+02  0.90000052497E+02 0.  0.
         12    1    1    2    0    0 -0.89780903316E-01 -0.97331157196E+00 -0.66143671229E+00  0.11802095369E+01  0.00000000000E+00 0. -1.
         11    1    3    3    0    0  0.37083318167E+02 -0.12701418857E+02  0.11814298966E+02  0.40939909472E+02  0.51100000000E-03 0. -1.
        -11    1    3    3    0    0 -0.83389982895E+00 -0.52482975998E+01  0.27108690516E+01  0.59656372582E+01  0.51100000000E-03 0.  1.
        -12    1    3    3    0    0 -0.36159637434E+02  0.18923028029E+02 -0.13863731305E+02  0.43102243733E+02  0.00000000000E+00 0.  1.
</event>
<event>
 7    1  0.4400431E-015  0.9000783E+02  0.7816164E-02  0.1186339E+00
        -11   -1    0    0    0    0  0.00000000000E+00  0.00000000000E+00  0.45593999997E+02  0.45594000000E+02  0.51100000000E-03 0. -1.
         11   -1    0    0    0    0 -0.00000000000E+00 -0.00000000000E+00 -0.45593999997E+02  0.45594000000E+02  0.51100000000E-03 0.  1.
    9900012    2    1    2    0    0 -0.46091282270E+00  0.41403419187E-01 -0.10856541620E+01  0.90007830592E+02  0.90000093155E+02 0.  0.
         12    1    1    2    0    0  0.46091282270E+00 -0.41403419187E-01  0.10856541620E+01  0.11801694085E+01  0.00000000000E+00 0. -1.
         11    1    3    3    0    0  0.14684819335E+02  0.13142854734E+02  0.41361957624E+01  0.20136699459E+02  0.51100000000E-03 0. -1.
        -11    1    3    3    0    0  0.12016094990E+02 -0.17143904100E+02  0.22581043004E+02  0.30792912984E+02  0.51100000000E-03 0.  1.
         12    1    3    3    0    0 -0.27161827148E+02  0.40424527852E+01 -0.27802892928E+02  0.39078218149E+02  0.00000000000E+00 0. -1.
</event>
<event>
 7    1  0.4400431E-015  0.9000780E+02  0.7816164E-02  0.1186339E+00
        -11   -1    0    0    0    0  0.00000000000E+00  0.00000000000E+00  0.45593999997E+02  0.45594000000E+02  0.51100000000E-03 0.  1.
         11   -1    0    0    0    0 -0.00000000000E+00 -0.00000000000E+00 -0.45593999997E+02  0.45594000000E+02  0.51100000000E-03 0. -1.
    9900012    2    1    2    0    0  0.14603276795E+00  0.54336070063E+00  0.10374536871E+01  0.90007798080E+02  0.90000060214E+02 0.  0.
         12    1    1    2    0    0 -0.14603276795E+00 -0.54336070063E+00 -0.10374536871E+01  0.11802019205E+01  0.00000000000E+00 0. -1.
         11    1    3    3    0    0  0.16961132938E+02 -0.19148154536E+02 -0.28602200296E+02  0.38372095521E+02  0.51100000000E-03 0. -1.
        -11    1    3    3    0    0  0.94849233123E+01  0.10396357058E+01  0.36258127412E+01  0.10207405691E+02  0.51100000000E-03 0.  1.
        -12    1    3    3    0    0 -0.26300023483E+02  0.18651879531E+02  0.26013841241E+02  0.41428296868E+02  0.00000000000E+00 0.  1.
</event>
<event>
 7    1  0.4400431E-015  0.9000777E+02  0.7816164E-02  0.1186339E+00
        -11   -1    0    0    0    0  0.00000000000E+00  0.00000000000E+00  0.45593999997E+02  0.45594000000E+02  0.51100000000E-03 0. -1.
         11   -1    0    0    0    0 -0.00000000000E+00 -0.00000000000E+00 -0.45593999997E+02  0.45594000000E+02  0.51100000000E-03 0.  1.
    9900012    2    1    2    0    0 -0.74315593049E+00 -0.95485787865E-01 -0.91188725926E+00  0.90007772629E+02  0.90000034428E+02 0.  0.
         12    1    1    2    0    0  0.74315593049E+00  0.95485787865E-01  0.91188725926E+00  0.11802273706E+01  0.00000000000E+00 0. -1.
         11    1    3    3    0    0  0.65856679048E+01 -0.64484030672E+01 -0.44809896996E+01  0.10248521494E+02  0.51100000000E-03 0. -1.
        -11    1    3    3    0    0  0.31326990958E+02  0.61597210815E+01  0.20088739048E+02  0.37721081149E+02  0.51100000000E-03 0.  1.
         12    1    3    3    0    0 -0.38655814793E+02  0.19319619786E+00 -0.16519636608E+02  0.42038169986E+02  0.00000000000E+00 0. -1.
</event>
<event>
 7    1  0.4400431E-015  0.9000770E+02  0.7816164E-02  0.1186339E+00
        -11   -1    0    0    0    0  0.00000000000E+00  0.00000000000E+00  0.45593999997E+02  0.45594000000E+02  0.51100000000E-03 0. -1.
         11   -1    0    0    0    0 -0.00000000000E+00 -0.00000000000E+00 -0.45593999997E+02  0.45594000000E+02  0.51100000000E-03 0.  1.
    9900012    2    1    2    0    0  0.10624628807E+01 -0.31680047407E+00 -0.40486798163E+00  0.90007700040E+02  0.89999960880E+02 0.  0.
         12    1    1    2    0    0 -0.10624628807E+01  0.31680047407E+00  0.40486798163E+00  0.11802999601E+01  0.00000000000E+00 0. -1.
         11    1    3    3    0    0 -0.14264136083E+02 -0.29749485902E+02  0.26324810807E+02  0.42207738080E+02  0.51100000000E-03 0. -1.
        -11    1    3    3    0    0  0.29199257155E+01 -0.21171641684E+01 -0.86652178303E+01  0.93858590767E+01  0.51100000000E-03 0.  1.
        -12    1    3    3    0    0  0.12406673248E+02  0.31549849596E+02 -0.18064460958E+02  0.38414102883E+02  0.00000000000E+00 0.  1.
</event>
<event>
 7    1  0.4400431E-015  0.9000767E+02  0.7816164E-02  0.1186339E+00
        -11   -1    0    0    0    0  0.00000000000E+00  0.00000000000E+00  0.45593999997E+02  0.45594000000E+02  0.51100000000E-03 0.  1.
         11   -1    0    0    0    0 -0.00000000000E+00 -0.00000000000E+00 -0.45593999997E+02  0.45594000000E+02  0.51100000000E-03 0. -1.
    9900012    2    1    2    0    0 -0.10410813412E+01  0.46835900232E+00  0.29996535900E+00  0.90007665416E+02  0.89999925799E+02 0.  0.
         12    1    1    2    0    0  0.10410813412E+01 -0.46835900232E+00 -0.29996535900E+00  0.11803345842E+01  0.00000000000E+00 0. -1.
         11    1    3    3    0    0 -0.31388704036E+02 -0.23479651445E+02  0.75599594686E+01  0.39921144278E+02  0.51100000000E-03 0. -1.
        -11    1    3    3    0    0  0.42963733952E+01 -0.42601990954E+01  0.68856273033E+01  0.91662415582E+01  0.51100000000E-03 0.  1.
        -12    1    3    3    0    0  0.26051249300E+02  0.28208209543E+02 -0.14145621413E+02  0.40920279579E+02  0.00000000000E+00 0.  1.
</event>
<event>
 7    1  0.4400431E-015  0.9000762E+02  0.7816164E-02  0.1186339E+00
        -11   -1    0    0    0    0  0.00000000000E+00  0.00000000000E+00  0.45593999997E+02  0.45594000000E+02  0.51100000000E-03 0. -1.
         11   -1    0    0    0    0 -0.00000000000E+00 -0.00000000000E+00 -0.45593999997E+02  0.45594000000E+02  0.51100000000E-03 0.  1.
    9900012    2    1    2    0    0 -0.11280290108E+01  0.85091287167E-01  0.33704133328E+00  0.90007624282E+02  0.89999884122E+02 0.  0.
         12    1    1    2    0    0  0.11280290108E+01 -0.85091287167E-01 -0.33704133328E+00  0.11803757184E+01  0.00000000000E+00 0. -1.
         11    1    3    3    0    0  0.20675443815E+01  0.77707654809E+01  0.44852824161E+01  0.92074586365E+01  0.51100000000E-03 0. -1.
        -11    1    3    3    0    0 -0.22218240193E+02  0.14160482544E+02 -0.31427040284E+02  0.41010100273E+02  0.51100000000E-03 0.  1.
         12    1    3    3    0    0  0.19022666801E+02 -0.21846156738E+02  0.27278799201E+02  0.39790065372E+02  0.00000000000E+00 0. -1.
</event>
<event>
 7    1  0.4400431E-015  0.9000751E+02  0.7816164E-02  0.1186340E+00
        -11   -1    0    0    0    0  0.00000000000E+00  0.00000000000E+00  0.45593999997E+02  0.45594000000E+02  0.51100000000E-03 0. -1.
         11   -1    0    0    0    0 -0.00000000000E+00 -0.00000000000E+00 -0.45593999997E+02  0.45594000000E+02  0.51100000000E-03 0.  1.
    9900012    2    1    2    0    0 -0.28805833179E-01 -0.10618925859E+01 -0.51489572390E+00  0.90007507202E+02  0.89999765497E+02 0.  0.
         12    1    1    2    0    0  0.28805833179E-01  0.10618925859E+01  0.51489572390E+00  0.11804927982E+01  0.00000000000E+00 0. -1.
         11    1    3    3    0    0  0.25529826243E+02  0.34018161166E+00  0.25906243532E+02  0.36373358461E+02  0.51100000000E-03 0. -1.
        -11    1    3    3    0    0  0.65948162027E+01 -0.50770189182E+01  0.39856248080E+01  0.92278343729E+01  0.51100000000E-03 0.  1.
        -12    1    3    3    0    0 -0.32153448279E+02  0.36749447206E+01 -0.30406764064E+02  0.44406314368E+02  0.00000000000E+00 0.  1.
</event>
<event>
 7    1  0.4400431E-015  0.9000767E+02  0.7816164E-02  0.1186339E+00
        -11   -1    0    0    0    0  0.00000000000E+00  0.00000000000E+00  0.45593999997E+02  0.45594000000E+02  0.51100000000E-03 0. -1.
         11   -1    0    0    0    0 -0.00000000000E+00 -0.00000000000E+00 -0.45593999997E+02  0.45594000000E+02  0.51100000000E-03 0.  1.
    9900012    2    1    2    0    0  0.49463389061E+00  0.97924473142E+00 -0.43541400556E+00  0.90007674500E+02  0.89999935003E+02 0.  0.
         12    1    1    2    0    0 -0.49463389061E+00 -0.97924473142E+00  0.43541400556E+00  0.11803255000E+01  0.00000000000E+00 0. -1.
         11    1    3    3    0    0  0.54057098006E+01  0.48991238682E+01  0.35542773302E+01  0.81151710225E+01  0.51100000000E-03 0. -1.
        -11    1    3    3    0    0  0.32061267327E+02 -0.16081693215E+02  0.14641596596E+02  0.38741735511E+02  0.51100000000E-03 0.  1.
         12    1    3    3    0    0 -0.36972343237E+02  0.12161814078E+02 -0.18631287931E+02  0.43150767966E+02  0.00000000000E+00 0. -1.
</event>
<event>
 7    1  0.4400431E-015  0.9000774E+02  0.7816164E-02  0.1186339E+00
        -11   -1    0    0    0    0  0.00000000000E+00  0.00000000000E+00  0.45593999997E+02  0.45594000000E+02  0.51100000000E-03 0. -1.
         11   -1    0    0    0    0 -0.00000000000E+00 -0.00000000000E+00 -0.45593999997E+02  0.45594000000E+02  0.51100000000E-03 0.  1.
    9900012    2    1    2    0    0 -0.53476534064E+00  0.10000537333E+01  0.32701454661E+00  0.90007737337E+02  0.89999998670E+02 0.  0.
         12    1    1    2    0    0  0.53476534064E+00 -0.10000537333E+01 -0.32701454661E+00  0.11802626626E+01  0.00000000000E+00 0. -1.
         11    1    3    3    0    0  0.15360448835E+02 -0.38122668381E+02 -0.51705456506E+01  0.41424820766E+02  0.51100000000E-03 0. -1.
        -11    1    3    3    0    0 -0.66418679764E+01  0.26944219697E+01 -0.59259554551E+01  0.93000681871E+01  0.51100000000E-03 0.  1.
        -12    1    3    3    0    0 -0.92533461990E+01  0.36428300145E+02  0.11423515652E+02  0.39282848384E+02  0.00000000000E+00 0.  1.
</event>
<event>
 7    1  0.5577028E-015  0.9000792E+02  0.7816164E-02  0.1186339E+00
        -11   -1    0    0    0    0  0.00000000000E+00  0.00000000000E+00  0.45593999997E+02  0.45594000000E+02  0.51100000000E-03 0.  1.
         11   -1    0    0    0    0 -0.00000000000E+00 -0.00000000000E+00 -0.45593999997E+02  0.45594000000E+02  0.51100000000E-03 0. -1.
    9900012    2    1    2    0    0 -0.30145684101E+00 -0.11194011747E+01  0.22055456497E+00  0.90007923929E+02  0.90000187725E+02 0.  0.
         12    1    1    2    0    0  0.30145684101E+00  0.11194011747E+01 -0.22055456497E+00  0.11800760709E+01  0.00000000000E+00 0. -1.
         11    1    3    3    0    0 -0.62255781524E+01 -0.67695953336E+01 -0.27008114140E+01  0.95853861094E+01  0.51100000000E-03 0. -1.
        -11    1    3    3    0    0 -0.26652829685E+02  0.52930644174E+01  0.28218831778E+02  0.39175149372E+02  0.51100000000E-03 0.  1.
         12    1    3    3    0    0  0.32576950997E+02  0.35712974147E+00 -0.25297465799E+02  0.41247388448E+02  0.00000000000E+00 0. -1.
</event>
<event>
 7    1  0.4400431E-015  0.9000744E+02  0.7816164E-02  0.1186340E+00
        -11   -1    0    0    0    0  0.00000000000E+00  0.00000000000E+00  0.45593999997E+02  0.45594000000E+02  0.51100000000E-03 0.  1.
         11   -1    0    0    0    0 -0.00000000000E+00 -0.00000000000E+00 -0.45593999997E+02  0.45594000000E+02  0.51100000000E-03 0. -1.
    9900012    2    1    2    0    0 -0.94986902957E+00  0.28852664636E+00 -0.63891509202E+00  0.90007444498E+02  0.89999701965E+02 0.  0.
         12    1    1    2    0    0  0.94986902957E+00 -0.28852664636E+00  0.63891509202E+00  0.11805555022E+01  0.00000000000E+00 0. -1.
         11    1    3    3    0    0  0.49677411189E+01 -0.24127289397E+02  0.27530100867E+02  0.36941995066E+02  0.51100000000E-03 0. -1.
        -11    1    3    3    0    0 -0.13553513148E+02  0.14472358949E+02  0.24504028801E+01  0.19978772904E+02  0.51100000000E-03 0.  1.
        -12    1    3    3    0    0  0.76359029993E+01  0.99434570941E+01 -0.30619418839E+02  0.33086676528E+02  0.00000000000E+00 0.  1.
</event>
<event>
 7    1  0.4400431E-015  0.9000775E+02  0.7816164E-02  0.1186339E+00
        -11   -1    0    0    0    0  0.00000000000E+00  0.00000000000E+00  0.45593999997E+02  0.45594000000E+02  0.51100000000E-03 0. -1.
         11   -1    0    0    0    0 -0.00000000000E+00 -0.00000000000E+00 -0.45593999997E+02  0.45594000000E+02  0.51100000000E-03 0.  1.
    9900012    2    1    2    0    0 -0.10991370141E+01  0.42394887994E+00  0.71731897487E-01  0.90007754138E+02  0.90000015693E+02 0.  0.
         12    1    1    2    0    0  0.10991370141E+01 -0.42394887994E+00 -0.71731897487E-01  0.11802458615E+01  0.00000000000E+00 0. -1.
         11    1    3    3    0    0  0.79899268555E+01  0.28087986305E+02  0.33429015340E+02  0.44387757014E+02  0.51100000000E-03 0. -1.
        -11    1    3    3    0    0 -0.58227734054E+01 -0.92848756703E+01 -0.59820263725E+01  0.12485921917E+02  0.51100000000E-03 0.  1.
        -12    1    3    3    0    0 -0.32662904642E+01 -0.18379161755E+02 -0.27375257070E+02  0.33134075208E+02  0.00000000000E+00 0.  1.
</event>
<event>
 7    1  0.4400431E-015  0.9000783E+02  0.7816164E-02  0.1186339E+00
        -11   -1    0    0    0    0  0.00000000000E+00  0.00000000000E+00  0.45593999997E+02  0.45594000000E+02  0.51100000000E-03 0.  1.
         11   -1    0    0    0    0 -0.00000000000E+00 -0.00000000000E+00 -0.45593999997E+02  0.45594000000E+02  0.51100000000E-03 0. -1.
    9900012    2    1    2    0    0  0.10517288418E+01 -0.45384623772E+00  0.28404487136E+00  0.90007834142E+02  0.90000096752E+02 0.  0.
         12    1    1    2    0    0 -0.10517288418E+01  0.45384623772E+00 -0.28404487136E+00  0.11801658583E+01  0.00000000000E+00 0. -1.
         11    1    3    3    0    0  0.18002088396E+02 -0.30459066718E+02  0.95310811091E+01  0.36642481348E+02  0.51100000000E-03 0. -1.
        -11    1    3    3    0    0  0.59949807742E+00 -0.52331738876E+01  0.86450622237E+01  0.10123369399E+02  0.51100000000E-03 0.  1.
        -12    1    3    3    0    0 -0.17549857632E+02  0.35238394368E+02 -0.17892098461E+02  0.43241983394E+02  0.00000000000E+00 0.  1.
</event>
<event>
 7    1  0.4400431E-015  0.9000764E+02  0.7816164E-02  0.1186339E+00
        -11   -1    0    0    0    0  0.00000000000E+00  0.00000000000E+00  0.45593999997E+02  0.45594000000E+02  0.51100000000E-03 0.  1.
         11   -1    0    0    0    0 -0.00000000000E+00 -0.00000000000E+00 -0.45593999997E+02  0.45594000000E+02  0.51100000000E-03 0. -1.
    9900012    2    1    2    0    0 -0.10308101503E+01  0.46566067252E+00  0.33741790036E+00  0.90007635536E+02  0.89999895525E+02 0.  0.
         12    1    1    2    0    0  0.10308101503E+01 -0.46566067252E+00 -0.33741790036E+00  0.11803644638E+01  0.00000000000E+00 0. -1.
         11    1    3    3    0    0 -0.80599855705E+01 -0.32207750489E+01 -0.14265068452E+01  0.87961174022E+01  0.51100000000E-03 0. -1.
        -11    1    3    3    0    0 -0.32997427228E+02 -0.59215583383E+01  0.16659483400E+02  0.37435724172E+02  0.51100000000E-03 0.  1.
         12    1    3    3    0    0  0.40026602648E+02  0.96079940597E+01 -0.14895558655E+02  0.43775793962E+02  0.00000000000E+00 0. -1.
</event>
<event>
 7    1  0.4400431E-015  0.9000777E+02  0.7816164E-02  0.1186339E+00
        -11   -1    0    0    0    0  0.00000000000E+00  0.00000000000E+00  0.45593999997E+02  0.45594000000E+02  0.51100000000E-03 0.  1.
         11   -1    0    0    0    0 -0.00000000000E+00 -0.00000000000E+00 -0.45593999997E+02  0.45594000000E+02  0.51100000000E-03 0. -1.
    9900012    2    1    2    0    0 -0.71146957070E+00 -0.92644695719E+00  0.16864524073E+00  0.90007773695E+02  0.90000035507E+02 0.  0.
         12    1    1    2    0    0  0.71146957070E+00  0.92644695719E+00 -0.16864524073E+00  0.11802263053E+01  0.00000000000E+00 0. -1.
         11    1    3    3    0    0  0.60348318218E+01 -0.37242294126E+02 -0.53150653660E+01  0.38100624496E+02  0.51100000000E-03 0. -1.
        -11    1    3    3    0    0 -0.75240457451E+01 -0.42237678164E+01 -0.50716998417E+01  0.10008677160E+02  0.51100000000E-03 0.  1.
        -12    1    3    3    0    0  0.77774435267E+00  0.40539614985E+02  0.10555410448E+02  0.41898472039E+02  0.00000000000E+00 0.  1.
</event>
<event>
 7    1  0.4400431E-015  0.9000737E+02  0.7816164E-02  0.1186340E+00
        -11   -1    0    0    0    0  0.00000000000E+00  0.00000000000E+00  0.45593999997E+02  0.45594000000E+02  0.51100000000E-03 0.  1.
         11   -1    0    0    0    0 -0.00000000000E+00 -0.00000000000E+00 -0.45593999997E+02  0.45594000000E+02  0.51100000000E-03 0. -1.
    9900012    2    1    2    0    0 -0.96054370312E+00 -0.63732005984E+00 -0.25507832905E+00  0.90007370499E+02  0.89999626989E+02 0.  0.
         12    1    1    2    0    0  0.96054370312E+00  0.63732005984E+00  0.25507832905E+00  0.11806295008E+01  0.00000000000E+00 0. -1.
         11    1    3    3    0    0  0.26548684936E+02 -0.53182510839E+01 -0.26733773231E+02  0.38050112981E+02  0.51100000000E-03 0. -1.
        -11    1    3    3    0    0  0.21893502947E+01 -0.10928363203E+02  0.70184386448E+01  0.13171213242E+02  0.51100000000E-03 0.  1.
        -12    1    3    3    0    0 -0.29698578934E+02  0.15609294227E+02  0.19460256257E+02  0.38786044276E+02  0.00000000000E+00 0.  1.
</event>
<event>
 7    1  0.4400431E-015  0.9000775E+02  0.7816164E-02  0.1186339E+00
        -11   -1    0    0    0    0  0.00000000000E+00  0.00000000000E+00  0.45593999997E+02  0.45594000000E+02  0.51100000000E-03 0. -1.
         11   -1    0    0    0    0 -0.00000000000E+00 -0.00000000000E+00 -0.45593999997E+02  0.45594000000E+02  0.51100000000E-03 0.  1.
    9900012    2    1    2    0    0  0.90167705881E+00 -0.44341253503E+00  0.61915915882E+00  0.90007748222E+02  0.90000009699E+02 0.  0.
         12    1    1    2    0    0 -0.90167705881E+00  0.44341253503E+00 -0.61915915882E+00  0.11802517776E+01  0.00000000000E+00 0. -1.
         11    1    3    3    0    0  0.97833195837E+01  0.14985693301E+01 -0.22381650355E+02  0.24472378817E+02  0.51100000000E-03 0. -1.
        -11    1    3    3    0    0 -0.27635122252E-01  0.20342719928E+02 -0.11615173531E+02  0.23425184613E+02  0.51100000000E-03 0.  1.
         12    1    3    3    0    0 -0.88540074027E+01 -0.22284701793E+02  0.34615983044E+02  0.42110184792E+02  0.00000000000E+00 0. -1.
</event>
<event>
 7    1  0.4400431E-015  0.9000775E+02  0.7816164E-02  0.1186339E+00
        -11   -1    0    0    0    0  0.00000000000E+00  0.00000000000E+00  0.45593999997E+02  0.45594000000E+02  0.51100000000E-03 0.  1.
         11   -1    0    0    0    0 -0.00000000000E+00 -0.00000000000E+00 -0.45593999997E+02  0.45594000000E+02  0.51100000000E-03 0. -1.
    9900012    2    1    2    0    0  0.37977433192E+00  0.51659957848E+00  0.99090546311E+00  0.90007746932E+02  0.90000008392E+02 0.  0.
         12    1    1    2    0    0 -0.37977433192E+00 -0.51659957848E+00 -0.99090546311E+00  0.11802530680E+01  0.00000000000E+00 0. -1.
         11    1    3    3    0    0  0.37683481543E+01 -0.37242315818E+01  0.66389284013E+01  0.84938636242E+01  0.51100000000E-03 0. -1.
        -11    1    3    3    0    0 -0.14959485948E+02 -0.32499028886E+02 -0.19296011280E+02  0.40648605756E+02  0.51100000000E-03 0.  1.
         12    1    3    3    0    0  0.11570912125E+02  0.36739860046E+02  0.13647988342E+02  0.40865277552E+02  0.00000000000E+00 0. -1.
</event>
<event>
 7    1  0.4400431E-015  0.9000776E+02  0.7816164E-02  0.1186339E+00
        -11   -1    0    0    0    0  0.00000000000E+00  0.00000000000E+00  0.45593999997E+02  0.45594000000E+02  0.51100000000E-03 0. -1.
         11   -1    0    0    0    0 -0.00000000000E+00 -0.00000000000E+00 -0.45593999997E+02  0.45594000000E+02  0.51100000000E-03 0.  1.
    9900012    2    1    2    0    0 -0.90427515416E+00 -0.38504188862E+00 -0.65345035637E+00  0.90007759271E+02  0.90000020893E+02 0.  0.
         12    1    1    2    0    0  0.90427515416E+00  0.38504188862E+00  0.65345035637E+00  0.11802407291E+01  0.00000000000E+00 0. -1.
         11    1    3    3    0    0 -0.48838414745E+01  0.58033734618E+01  0.87126704306E+01  0.11551695866E+02  0.51100000000E-03 0. -1.
        -11    1    3    3    0    0 -0.94153846841E+01 -0.40026155877E+02 -0.10836167990E+01  0.41132916851E+02  0.51100000000E-03 0.  1.
         12    1    3    3    0    0  0.13394951004E+02  0.33837740527E+02 -0.82825039879E+01  0.37323146554E+02  0.00000000000E+00 0. -1.
</event>
<event>
 7    1  0.4400431E-015  0.9000801E+02  0.7816164E-02  0.1186339E+00
        -11   -1    0    0    0    0  0.00000000000E+00  0.00000000000E+00  0.45593999997E+02  0.45594000000E+02  0.51100000000E-03 0. -1.
         11   -1    0    0    0    0 -0.00000000000E+00 -0.00000000000E+00 -0.45593999997E+02  0.45594000000E+02  0.51100000000E-03 0.  1.
    9900012    2    1    2    0    0 -0.81726193315E+00  0.43659857531E+00 -0.73065150508E+00  0.90008005506E+02  0.90000270379E+02 0.  0.
         12    1    1    2    0    0  0.81726193315E+00 -0.43659857531E+00  0.73065150508E+00  0.11799944937E+01  0.00000000000E+00 0. -1.
         11    1    3    3    0    0  0.14679315942E+00  0.51237232639E+01 -0.12544966669E+02  0.13551762885E+02  0.51100000000E-03 0. -1.
        -11    1    3    3    0    0  0.29270421324E+02 -0.13581133981E+02 -0.14522281118E+02  0.35385045059E+02  0.51100000000E-03 0.  1.
         12    1    3    3    0    0 -0.30234476416E+02  0.88940092928E+01  0.26336596282E+02  0.41071197562E+02  0.00000000000E+00 0. -1.
</event>
<event>
 7    1  0.4400431E-015  0.9000778E+02  0.7816164E-02  0.1186339E+00
        -11   -1    0    0    0    0  0.00000000000E+00  0.00000000000E+00  0.45593999997E+02  0.45594000000E+02  0.51100000000E-03 0. -1.
         11   -1    0    0    0    0 -0.00000000000E+00 -0.00000000000E+00 -0.45593999997E+02  0.45594000000E+02  0.51100000000E-03 0.  1.
    9900012    2    1    2    0    0  0.34042184691E+00 -0.17998975836E+00 -0.11156300600E+01  0.90007782318E+02  0.90000044244E+02 0.  0.
         12    1    1    2    0    0 -0.34042184691E+00  0.17998975836E+00  0.11156300600E+01  0.11802176824E+01  0.00000000000E+00 0. -1.
         11    1    3    3    0    0 -0.83497920809E+01  0.27977969666E+00  0.15538486949E+01  0.84977497316E+01  0.51100000000E-03 0. -1.
        -11    1    3    3    0    0  0.14457315007E+02 -0.36865837150E+02 -0.15436437032E+02  0.42501617551E+02  0.51100000000E-03 0.  1.
         12    1    3    3    0    0 -0.57671010792E+01  0.36406067695E+02  0.12766958277E+02  0.39008415035E+02  0.00000000000E+00 0. -1.
</event>
<event>
 7    1  0.4400431E-015  0.9000784E+02  0.7816164E-02  0.1186339E+00
        -11   -1    0    0    0    0  0.00000000000E+00  0.00000000000E+00  0.45593999997E+02  0.45594000000E+02  0.51100000000E-03 0. -1.
         11   -1    0    0    0    0 -0.00000000000E+00 -0.00000000000E+00 -0.45593999997E+02  0.45594000000E+02  0.51100000000E-03 0.  1.
    9900012    2    1    2    0    0 -0.73366877188E+00 -0.65750783972E+00  0.64975508053E+00  0.90007844040E+02  0.90000106781E+02 0.  0.
         12    1    1    2    0    0  0.73366877188E+00  0.65750783972E+00 -0.64975508053E+00  0.11801559604E+01  0.00000000000E+00 0. -1.
         11    1    3    3    0    0 -0.85598541750E+01 -0.51846092087E+01  0.24344331154E+00  0.10010521517E+02  0.51100000000E-03 0. -1.
        -11    1    3    3    0    0 -0.85476252761E+01 -0.31438237705E+02 -0.17078787832E+02  0.36784639211E+02  0.51100000000E-03 0.  1.
         12    1    3    3    0    0  0.16373810679E+02  0.35965339074E+02  0.17485099601E+02  0.43212683311E+02  0.00000000000E+00 0. -1.
</event>
<event>
 7    1  0.4400431E-015  0.9000775E+02  0.7816164E-02  0.1186339E+00
        -11   -1    0    0    0    0  0.00000000000E+00  0.00000000000E+00  0.45593999997E+02  0.45594000000E+02  0.51100000000E-03 0.  1.
         11   -1    0    0    0    0 -0.00000000000E+00 -0.00000000000E+00 -0.45593999997E+02  0.45594000000E+02  0.51100000000E-03 0. -1.
    9900012    2    1    2    0    0  0.45451806964E+00  0.90487238834E+00  0.60631381978E+00  0.90007746992E+02  0.90000008452E+02 0.  0.
         12    1    1    2    0    0 -0.45451806964E+00 -0.90487238834E+00 -0.60631381978E+00  0.11802530080E+01  0.00000000000E+00 0. -1.
         11    1    3    3    0    0  0.15932672724E+02  0.89161196573E+01 -0.30443015229E+02  0.35498231313E+02  0.51100000000E-03 0. -1.
        -11    1    3    3    0    0  0.98904563457E+00 -0.77657421429E+01 -0.85677435105E+01  0.11605653425E+02  0.51100000000E-03 0.  1.
        -12    1    3    3    0    0 -0.16467200289E+02 -0.24550512601E+00  0.39617072559E+02  0.42903862254E+02  0.00000000000E+00 0.  1.
</event>
<event>
 7    1  0.4400431E-015  0.9000765E+02  0.7816164E-02  0.1186339E+00
        -11   -1    0    0    0    0  0.00000000000E+00  0.00000000000E+00  0.45593999997E+02  0.45594000000E+02  0.51100000000E-03 0. -1.
         11   -1    0    0    0    0 -0.00000000000E+00 -0.00000000000E+00 -0.45593999997E+02  0.45594000000E+02  0.51100000000E-03 0.  1.
    9900012    2    1    2    0    0  0.97743261317E+00  0.84716407192E-01 -0.65625871434E+00  0.90007649678E+02  0.89999909854E+02 0.  0.
         12    1    1    2    0    0 -0.97743261317E+00 -0.84716407192E-01  0.65625871434E+00  0.11803503222E+01  0.00000000000E+00 0. -1.
         11    1    3    3    0    0 -0.33270711734E+01 -0.33388248806E+02  0.22618464803E+02  0.40465287732E+02  0.51100000000E-03 0. -1.
        -11    1    3    3    0    0 -0.85417312206E+01  0.52807338165E+01  0.11271503883E+01  0.10105334737E+02  0.51100000000E-03 0.  1.
        -12    1    3    3    0    0  0.12846235007E+02  0.28192231396E+02 -0.24401873906E+02  0.39437027209E+02  0.00000000000E+00 0.  1.
</event>
<event>
 7    1  0.4400431E-015  0.9000774E+02  0.7816164E-02  0.1186339E+00
        -11   -1    0    0    0    0  0.00000000000E+00  0.00000000000E+00  0.45593999997E+02  0.45594000000E+02  0.51100000000E-03 0. -1.
         11   -1    0    0    0    0 -0.00000000000E+00 -0.00000000000E+00 -0.45593999997E+02  0.45594000000E+02  0.51100000000E-03 0.  1.
    9900012    2    1    2    0    0 -0.44217628988E+00 -0.51096423201E+00 -0.96768405162E+00  0.90007738698E+02  0.90000000049E+02 0.  0.
         12    1    1    2    0    0  0.44217628988E+00  0.51096423201E+00  0.96768405162E+00  0.11802613022E+01  0.00000000000E+00 0. -1.
         11    1    3    3    0    0  0.63257085109E+01  0.67756091665E+01 -0.46215262785E+01  0.10357701152E+02  0.51100000000E-03 0. -1.
        -11    1    3    3    0    0  0.74668628197E+01 -0.41679486352E+02  0.17633012014E+01  0.42379745803E+02  0.51100000000E-03 0.  1.
         12    1    3    3    0    0 -0.14234747620E+02  0.34392912954E+02  0.18905410255E+01  0.37270291743E+02  0.00000000000E+00 0. -1.
</event>
<event>
 7    1  0.4400431E-015  0.9000774E+02  0.7816164E-02  0.1186339E+00
        -11   -1    0    0    0    0  0.00000000000E+00  0.00000000000E+00  0.45593999997E+02  0.45594000000E+02  0.51100000000E-03 0.  1.
         11   -1    0    0    0    0 -0.00000000000E+00 -0.00000000000E+00 -0.45593999997E+02  0.45594000000E+02  0.51100000000E-03 0. -1.
    9900012    2    1    2    0    0  0.31902705697E+00 -0.36630178377E+00  0.10756651134E+01  0.90007741259E+02  0.90000002643E+02 0.  0.
         12    1    1    2    0    0 -0.31902705697E+00  0.36630178377E+00 -0.10756651134E+01  0.11802587411E+01  0.00000000000E+00 0. -1.
         11    1    3    3    0    0 -0.92545104747E+01 -0.39068997321E+01 -0.69187212230E+01  0.12197480611E+02  0.51100000000E-03 0. -1.
        -11    1    3    3    0    0 -0.24419943442E+02 -0.38879432315E+01  0.28253802311E+02  0.37546332518E+02  0.51100000000E-03 0.  1.
         12    1    3    3    0    0  0.33993480973E+02  0.74285411799E+01 -0.20259415975E+02  0.40263928129E+02  0.00000000000E+00 0. -1.
</event>
<event>
 7    1  0.4400431E-015  0.9000770E+02  0.7816164E-02  0.1186339E+00
        -11   -1    0    0    0    0  0.00000000000E+00  0.00000000000E+00  0.45593999997E+02  0.45594000000E+02  0.51100000000E-03 0.  1.
         11   -1    0    0    0    0 -0.00000000000E+00 -0.00000000000E+00 -0.45593999997E+02  0.45594000000E+02  0.51100000000E-03 0. -1.
    9900012    2    1    2    0    0  0.72276885558E+00  0.13581401631E-01 -0.93302017905E+00  0.90007700916E+02  0.89999961768E+02 0.  0.
         12    1    1    2    0    0 -0.72276885558E+00 -0.13581401631E-01  0.93302017905E+00  0.11802990840E+01  0.00000000000E+00 0. -1.
         11    1    3    3    0    0 -0.53773062494E+01  0.14884977796E+00 -0.40585167104E+02  0.40940119295E+02  0.51100000000E-03 0. -1.
        -11    1    3    3    0    0  0.31897174073E+00 -0.94647110323E+01  0.17784146411E+01  0.96356243593E+01  0.51100000000E-03 0.  1.
        -12    1    3    3    0    0  0.57811033642E+01  0.93294426560E+01  0.37873732284E+02  0.39431957262E+02  0.00000000000E+00 0.  1.
</event>
<event>
 7    1  0.4400431E-015  0.9000777E+02  0.7816164E-02  0.1186339E+00
        -11   -1    0    0    0    0  0.00000000000E+00  0.00000000000E+00  0.45593999997E+02  0.45594000000E+02  0.51100000000E-03 0.  1.
         11   -1    0    0    0    0 -0.00000000000E+00 -0.00000000000E+00 -0.45593999997E+02  0.45594000000E+02  0.51100000000E-03 0. -1.
    9900012    2    1    2    0    0  0.11483515192E+01 -0.27180390833E+00 -0.18861591477E-01  0.90007769372E+02  0.90000031127E+02 0.  0.
         12    1    1    2    0    0 -0.11483515192E+01  0.27180390833E+00  0.18861591477E-01  0.11802306283E+01  0.00000000000E+00 0. -1.
         11    1    3    3    0    0 -0.77011223250E+01  0.46373505578E+00  0.24405585412E+01  0.80918886251E+01  0.51100000000E-03 0. -1.
        -11    1    3    3    0    0 -0.18441552664E+02  0.12747073185E+02  0.29977442862E+02  0.37432950996E+02  0.51100000000E-03 0.  1.
         12    1    3    3    0    0  0.27291026509E+02 -0.13482612149E+02 -0.32436862995E+02  0.44482929751E+02  0.00000000000E+00 0. -1.
</event>
<event>
 7    1  0.4400431E-015  0.9000765E+02  0.7816164E-02  0.1186339E+00
        -11   -1    0    0    0    0  0.00000000000E+00  0.00000000000E+00  0.45593999997E+02  0.45594000000E+02  0.51100000000E-03 0.  1.
         11   -1    0    0    0    0 -0.00000000000E+00 -0.00000000000E+00 -0.45593999997E+02  0.45594000000E+02  0.51100000000E-03 0. -1.
    9900012    2    1    2    0    0 -0.65548002039E+00 -0.44900222162E+00  0.87291157728E+00  0.90007647648E+02  0.89999907797E+02 0.  0.
         12    1    1    2    0    0  0.65548002039E+00  0.44900222162E+00 -0.87291157728E+00  0.11803523516E+01  0.00000000000E+00 0. -1.
         11    1    3    3    0    0  0.32372801873E+01  0.28253372699E+01 -0.65258702847E+01  0.78134177498E+01  0.51100000000E-03 0. -1.
        -11    1    3    3    0    0 -0.26858536130E+02  0.70475760723E+01 -0.27552744449E+02  0.39117809480E+02  0.51100000000E-03 0.  1.
         12    1    3    3    0    0  0.22965775922E+02 -0.10321915564E+02  0.34951526311E+02  0.43076420419E+02  0.00000000000E+00 0. -1.
</event>
<event>
 7    1  0.4400431E-015  0.9000796E+02  0.7816164E-02  0.1186339E+00
        -11   -1    0    0    0    0  0.00000000000E+00  0.00000000000E+00  0.45593999997E+02  0.45594000000E+02  0.51100000000E-03 0.  1.
         11   -1    0    0    0    0 -0.00000000000E+00 -0.00000000000E+00 -0.45593999997E+02  0.45594000000E+02  0.51100000000E-03 0. -1.
    9900012    2    1    2    0    0  0.56813157646E+00  0.99146535478E+00  0.29448356604E+00  0.90007958641E+02  0.90000222895E+02 0.  0.
         12    1    1    2    0    0 -0.56813157646E+00 -0.99146535478E+00 -0.29448356604E+00  0.11800413588E+01  0.00000000000E+00 0. -1.
         11    1    3    3    0    0 -0.79145026630E+01 -0.22205889310E+02 -0.29970273524E+02  0.38130803399E+02  0.51100000000E-03 0. -1.
        -11    1    3    3    0    0 -0.14125171742E+01 -0.85302835332E+01  0.40505650047E+01  0.95481945436E+01  0.51100000000E-03 0.  1.
        -12    1    3    3    0    0  0.98951514136E+01  0.31727638198E+02  0.26214192086E+02  0.42328960699E+02  0.00000000000E+00 0.  1.
</event>
<event>
 7    1  0.4400431E-015  0.9000798E+02  0.7816164E-02  0.1186339E+00
        -11   -1    0    0    0    0  0.00000000000E+00  0.00000000000E+00  0.45593999997E+02  0.45594000000E+02  0.51100000000E-03 0.  1.
         11   -1    0    0    0    0 -0.00000000000E+00 -0.00000000000E+00 -0.45593999997E+02  0.45594000000E+02  0.51100000000E-03 0. -1.
    9900012    2    1    2    0    0  0.13440604705E+00 -0.79187020228E+00  0.86447519631E+00  0.90007982726E+02  0.90000247297E+02 0.  0.
         12    1    1    2    0    0 -0.13440604705E+00  0.79187020228E+00 -0.86447519631E+00  0.11800172744E+01  0.00000000000E+00 0. -1.
         11    1    3    3    0    0  0.30872220480E+00  0.50870311555E+01  0.63441018386E+01  0.81376178195E+01  0.51100000000E-03 0. -1.
        -11    1    3    3    0    0 -0.31597957129E+02 -0.91222762551E+01  0.22354853490E+02  0.39766648006E+02  0.51100000000E-03 0.  1.
         12    1    3    3    0    0  0.31423640971E+02  0.32433748974E+01 -0.27834480132E+02  0.42103716900E+02  0.00000000000E+00 0. -1.
</event>
<event>
 7    1  0.4400431E-015  0.9000773E+02  0.7816164E-02  0.1186339E+00
        -11   -1    0    0    0    0  0.00000000000E+00  0.00000000000E+00  0.45593999997E+02  0.45594000000E+02  0.51100000000E-03 0.  1.
         11   -1    0    0    0    0 -0.00000000000E+00 -0.00000000000E+00 -0.45593999997E+02  0.45594000000E+02  0.51100000000E-03 0. -1.
    9900012    2    1    2    0    0  0.97409866857E+00  0.49298057703E+00  0.44848883405E+00  0.90007728718E+02  0.89999989937E+02 0.  0.
         12    1    1    2    0    0 -0.97409866857E+00 -0.49298057703E+00 -0.44848883405E+00  0.11802712822E+01  0.00000000000E+00 0. -1.
         11    1    3    3    0    0  0.96987856084E+01  0.20824058127E+01  0.63259271112E+01  0.11765211869E+02  0.51100000000E-03 0. -1.
        -11    1    3    3    0    0  0.17379413677E+02 -0.20664191784E+02 -0.28131802224E+02  0.38992962679E+02  0.51100000000E-03 0.  1.
         12    1    3    3    0    0 -0.26104100617E+02  0.19074766548E+02  0.22254363946E+02  0.39249554170E+02  0.00000000000E+00 0. -1.
</event>
<event>
 7    1  0.4400431E-015  0.9000790E+02  0.7816164E-02  0.1186339E+00
        -11   -1    0    0    0    0  0.00000000000E+00  0.00000000000E+00  0.45593999997E+02  0.45594000000E+02  0.51100000000E-03 0.  1.
         11   -1    0    0    0    0 -0.00000000000E+00 -0.00000000000E+00 -0.45593999997E+02  0.45594000000E+02  0.51100000000E-03 0. -1.
    9900012    2    1    2    0    0  0.82341370448E-01 -0.11535941192E+01  0.23469370155E+00  0.90007898044E+02  0.90000161498E+02 0.  0.
         12    1    1    2    0    0 -0.82341370448E-01  0.11535941192E+01 -0.23469370155E+00  0.11801019560E+01  0.00000000000E+00 0. -1.
         11    1    3    3    0    0 -0.33208014134E+01 -0.21771317234E+01  0.10177007377E+02  0.10924243863E+02  0.51100000000E-03 0. -1.
        -11    1    3    3    0    0 -0.93276975556E+01  0.15191831227E+02  0.29963171699E+02  0.34865302755E+02  0.51100000000E-03 0.  1.
         12    1    3    3    0    0  0.12730840339E+02 -0.14168293622E+02 -0.39905485374E+02  0.44218351426E+02  0.00000000000E+00 0. -1.
</event>
<event>
 7    1  0.4400431E-015  0.9000773E+02  0.7816164E-02  0.1186339E+00
        -11   -1    0    0    0    0  0.00000000000E+00  0.00000000000E+00  0.45593999997E+02  0.45594000000E+02  0.51100000000E-03 0. -1.
         11   -1    0    0    0    0 -0.00000000000E+00 -0.00000000000E+00 -0.45593999997E+02  0.45594000000E+02  0.51100000000E-03 0.  1.
    9900012    2    1    2    0    0 -0.10097581334E+01  0.59899852075E+00 -0.12090628937E+00  0.90007733485E+02  0.89999994767E+02 0.  0.
         12    1    1    2    0    0  0.10097581334E+01 -0.59899852075E+00  0.12090628937E+00  0.11802665151E+01  0.00000000000E+00 0. -1.
         11    1    3    3    0    0  0.55468004674E+01  0.66963823743E+01 -0.85122246669E+00  0.87368822973E+01  0.51100000000E-03 0. -1.
        -11    1    3    3    0    0 -0.29640008774E+00  0.25947566847E+02 -0.27715232657E+02  0.37967067306E+02  0.51100000000E-03 0.  1.
         12    1    3    3    0    0 -0.62601585131E+01 -0.32044950701E+02  0.28445548834E+02  0.43303783882E+02  0.00000000000E+00 0. -1.
</event>
<event>
 7    1  0.4400431E-015  0.9000775E+02  0.7816164E-02  0.1186339E+00
        -11   -1    0    0    0    0  0.00000000000E+00  0.00000000000E+00  0.45593999997E+02  0.45594000000E+02  0.51100000000E-03 0.  1.
         11   -1    0    0    0    0 -0.00000000000E+00 -0.00000000000E+00 -0.45593999997E+02  0.45594000000E+02  0.51100000000E-03 0. -1.
    9900012    2    1    2    0    0  0.37110169454E+00 -0.10918874765E+00  0.11150577243E+01  0.90007749019E+02  0.90000010506E+02 0.  0.
         12    1    1    2    0    0 -0.37110169454E+00  0.10918874765E+00 -0.11150577243E+01  0.11802509813E+01  0.00000000000E+00 0. -1.
         11    1    3    3    0    0  0.30431273168E+02  0.43281654740E+01 -0.23576715614E+02  0.38738313365E+02  0.51100000000E-03 0. -1.
        -11    1    3    3    0    0  0.63141018453E+01 -0.55932927371E+01  0.33171990373E+01  0.90640286556E+01  0.51100000000E-03 0.  1.
        -12    1    3    3    0    0 -0.36374273319E+02  0.11559385155E+01  0.21374574301E+02  0.42205406998E+02  0.00000000000E+00 0.  1.
</event>
<event>
 7    1  0.4400431E-015  0.9000818E+02  0.7816164E-02  0.1186338E+00
        -11   -1    0    0    0    0  0.00000000000E+00  0.00000000000E+00  0.45593999997E+02  0.45594000000E+02  0.51100000000E-03 0.  1.
         11   -1    0    0    0    0 -0.00000000000E+00 -0.00000000000E+00 -0.45593999997E+02  0.45594000000E+02  0.51100000000E-03 0. -1.
    9900012    2    1    2    0    0 -0.95615816629E-01  0.44928386181E+00  0.10867318998E+01  0.90008176032E+02  0.90000443155E+02 0.  0.
         12    1    1    2    0    0  0.95615816629E-01 -0.44928386181E+00 -0.10867318998E+01  0.11798239677E+01  0.00000000000E+00 0. -1.
         11    1    3    3    0    0 -0.92615853466E+01  0.34955886778E+00  0.32451187492E+01  0.98198752788E+01  0.51100000000E-03 0. -1.
        -11    1    3    3    0    0 -0.77012352357E+01 -0.92329991258E+01  0.35718715087E+02  0.37687980905E+02  0.51100000000E-03 0.  1.
         12    1    3    3    0    0  0.16867204766E+02  0.93327241199E+01 -0.37877101936E+02  0.42500319848E+02  0.00000000000E+00 0. -1.
</event>
<event>
 7    1  0.4400431E-015  0.9000775E+02  0.7816164E-02  0.1186339E+00
        -11   -1    0    0    0    0  0.00000000000E+00  0.00000000000E+00  0.45593999997E+02  0.45594000000E+02  0.51100000000E-03 0. -1.
         11   -1    0    0    0    0 -0.00000000000E+00 -0.00000000000E+00 -0.45593999997E+02  0.45594000000E+02  0.51100000000E-03 0.  1.
    9900012    2    1    2    0    0  0.11366459096E-01 -0.76043763768E+00 -0.90255524295E+00  0.90007745551E+02  0.90000006993E+02 0.  0.
         12    1    1    2    0    0 -0.11366459096E-01  0.76043763768E+00  0.90255524295E+00  0.11802544487E+01  0.00000000000E+00 0. -1.
         11    1    3    3    0    0  0.84107590173E+01 -0.34711640110E+01  0.35849660723E+01  0.97796640453E+01  0.51100000000E-03 0. -1.
        -11    1    3    3    0    0  0.83082371661E+01 -0.35011729230E+02 -0.12704559758E+02  0.38160893954E+02  0.51100000000E-03 0.  1.
         12    1    3    3    0    0 -0.16707629724E+02  0.37722455603E+02  0.82170384425E+01  0.42067187552E+02  0.00000000000E+00 0. -1.
</event>
<event>
 7    1  0.4400431E-015  0.9000774E+02  0.7816164E-02  0.1186339E+00
        -11   -1    0    0    0    0  0.00000000000E+00  0.00000000000E+00  0.45593999997E+02  0.45594000000E+02  0.51100000000E-03 0.  1.
         11   -1    0    0    0    0 -0.00000000000E+00 -0.00000000000E+00 -0.45593999997E+02  0.45594000000E+02  0.51100000000E-03 0. -1.
    9900012    2    1    2    0    0  0.59445531146E+00 -0.84165735390E+00 -0.57554629896E+00  0.90007738266E+02  0.89999999611E+02 0.  0.
         12    1    1    2    0    0 -0.59445531146E+00  0.84165735390E+00  0.57554629896E+00  0.11802617341E+01  0.00000000000E+00 0. -1.
         11    1    3    3    0    0  0.55466820710E+01  0.34930065934E+00  0.33528010426E+01  0.64906831721E+01  0.51100000000E-03 0. -1.
        -11    1    3    3    0    0 -0.40027252723E+02  0.33055636284E+01  0.15640603822E+02  0.43101464008E+02  0.51100000000E-03 0.  1.
         12    1    3    3    0    0  0.35075025963E+02 -0.44965216416E+01 -0.19568951164E+02  0.40415591086E+02  0.00000000000E+00 0. -1.
</event>
<event>
 7    1  0.4400431E-015  0.9000792E+02  0.7816164E-02  0.1186339E+00
        -11   -1    0    0    0    0  0.00000000000E+00  0.00000000000E+00  0.45593999997E+02  0.45594000000E+02  0.51100000000E-03 0. -1.
         11   -1    0    0    0    0 -0.00000000000E+00 -0.00000000000E+00 -0.45593999997E+02  0.45594000000E+02  0.51100000000E-03 0.  1.
    9900012    2    1    2    0    0 -0.99940455094E+00  0.96227724172E-01  0.62010092929E+00  0.90007917633E+02  0.90000181345E+02 0.  0.
         12    1    1    2    0    0  0.99940455094E+00 -0.96227724172E-01 -0.62010092929E+00  0.11800823674E+01  0.00000000000E+00 0. -1.
         11    1    3    3    0    0  0.33475396618E+01  0.11883420398E+02  0.23517214977E+02  0.26560894237E+02  0.51100000000E-03 0. -1.
        -11    1    3    3    0    0  0.24378717434E+02 -0.21225399685E+01  0.15329646993E+01  0.24518911490E+02  0.51100000000E-03 0.  1.
         12    1    3    3    0    0 -0.28725661647E+02 -0.96646527053E+01 -0.24430078747E+02  0.38928111905E+02  0.00000000000E+00 0. -1.
</event>
<event>
 7    1  0.4400431E-015  0.9000774E+02  0.7816164E-02  0.1186339E+00
        -11   -1    0    0    0    0  0.00000000000E+00  0.00000000000E+00  0.45593999997E+02  0.45594000000E+02  0.51100000000E-03 0. -1.
         11   -1    0    0    0    0 -0.00000000000E+00 -0.00000000000E+00 -0.45593999997E+02  0.45594000000E+02  0.51100000000E-03 0.  1.
    9900012    2    1    2    0    0 -0.32474234899E+00 -0.91178213644E+00 -0.67542709973E+00  0.90007743238E+02  0.90000004649E+02 0.  0.
         12    1    1    2    0    0  0.32474234899E+00  0.91178213644E+00  0.67542709973E+00  0.11802567622E+01  0.00000000000E+00 0. -1.
         11    1    3    3    0    0  0.11698919214E+00 -0.46141036587E+01  0.86544650542E+01  0.98083334303E+01  0.51100000000E-03 0. -1.
        -11    1    3    3    0    0  0.24088660393E+02 -0.28853752566E+02  0.27394836939E+01  0.37686965490E+02  0.51100000000E-03 0.  1.
         12    1    3    3    0    0 -0.24530391934E+02  0.32556074089E+02 -0.12069375848E+02  0.42512444318E+02  0.00000000000E+00 0. -1.
</event>
<event>
 7    1  0.4400431E-015  0.9000774E+02  0.7816164E-02  0.1186339E+00
        -11   -1    0    0    0    0  0.00000000000E+00  0.00000000000E+00  0.45593999997E+02  0.45594000000E+02  0.51100000000E-03 0. -1.
         11   -1    0    0    0    0 -0.00000000000E+00 -0.00000000000E+00 -0.45593999997E+02  0.45594000000E+02  0.51100000000E-03 0.  1.
    9900012    2    1    2    0    0  0.80111102509E+00  0.81051834636E+00  0.30706516994E+00  0.90007742451E+02  0.90000003851E+02 0.  0.
         12    1    1    2    0    0 -0.80111102509E+00 -0.81051834636E+00 -0.30706516994E+00  0.11802575494E+01  0.00000000000E+00 0. -1.
         11    1    3    3    0    0 -0.30552096017E+01 -0.93497225919E+01  0.13067868335E+00  0.98371080829E+01  0.51100000000E-03 0. -1.
        -11    1    3    3    0    0  0.16201533318E+02  0.30347387116E+02  0.27487653689E+02  0.44034358088E+02  0.51100000000E-03 0.  1.
         12    1    3    3    0    0 -0.12345212692E+02 -0.20187146178E+02 -0.27311267202E+02  0.36136276280E+02  0.00000000000E+00 0. -1.
</event>
<event>
 7    1  0.4400431E-015  0.9000758E+02  0.7816164E-02  0.1186339E+00
        -11   -1    0    0    0    0  0.00000000000E+00  0.00000000000E+00  0.45593999997E+02  0.45594000000E+02  0.51100000000E-03 0.  1.
         11   -1    0    0    0    0 -0.00000000000E+00 -0.00000000000E+00 -0.45593999997E+02  0.45594000000E+02  0.51100000000E-03 0. -1.
    9900012    2    1    2    0    0 -0.66534248906E+00 -0.17578685172E+00  0.95906896707E+00  0.90007578495E+02  0.89999837731E+02 0.  0.
         12    1    1    2    0    0  0.66534248906E+00  0.17578685172E+00 -0.95906896707E+00  0.11804215046E+01  0.00000000000E+00 0. -1.
         11    1    3    3    0    0 -0.33005164984E+02 -0.16563648471E+02 -0.60755981719E+01  0.37424701197E+02  0.51100000000E-03 0. -1.
        -11    1    3    3    0    0 -0.80621677956E+01  0.43246778912E+01  0.48666886260E+01  0.10362723912E+02  0.51100000000E-03 0.  1.
        -12    1    3    3    0    0  0.40401990291E+02  0.12063183728E+02  0.21679785130E+01  0.42220153386E+02  0.00000000000E+00 0.  1.
</event>
<event>
 7    1  0.4400431E-015  0.9000769E+02  0.7816164E-02  0.1186339E+00
        -11   -1    0    0    0    0  0.00000000000E+00  0.00000000000E+00  0.45593999997E+02  0.45594000000E+02  0.51100000000E-03 0.  1.
         11   -1    0    0    0    0 -0.00000000000E+00 -0.00000000000E+00 -0.45593999997E+02  0.45594000000E+02  0.51100000000E-03 0. -1.
    9900012    2    1    2    0    0 -0.10747562195E+01 -0.18112263208E+00  0.45301401320E+00  0.90007691551E+02  0.89999952279E+02 0.  0.
         12    1    1    2    0    0  0.10747562195E+01  0.18112263208E+00 -0.45301401320E+00  0.11803084492E+01  0.00000000000E+00 0. -1.
         11    1    3    3    0    0  0.19696940653E+02 -0.73865872746E+01 -0.27244677943E+02  0.34420976440E+02  0.51100000000E-03 0. -1.
        -11    1    3    3    0    0  0.66006275884E+01 -0.91166587084E+01 -0.26678413337E+01  0.11567157309E+02  0.51100000000E-03 0.  1.
        -12    1    3    3    0    0 -0.27372324461E+02  0.16322123351E+02  0.30365533290E+02  0.44019557801E+02  0.00000000000E+00 0.  1.
</event>
<event>
 7    1  0.4400431E-015  0.9000784E+02  0.7816164E-02  0.1186339E+00
        -11   -1    0    0    0    0  0.00000000000E+00  0.00000000000E+00  0.45593999997E+02  0.45594000000E+02  0.51100000000E-03 0. -1.
         11   -1    0    0    0    0 -0.00000000000E+00 -0.00000000000E+00 -0.45593999997E+02  0.45594000000E+02  0.51100000000E-03 0.  1.
    9900012    2    1    2    0    0 -0.97500492088E-01 -0.11224906868E+01 -0.35112813047E+00  0.90007837870E+02  0.90000100530E+02 0.  0.
         12    1    1    2    0    0  0.97500492088E-01  0.11224906868E+01  0.35112813047E+00  0.11801621295E+01  0.00000000000E+00 0. -1.
         11    1    3    3    0    0 -0.85040214894E+01 -0.45362462556E+01 -0.24120681042E+01  0.99354911496E+01  0.51100000000E-03 0. -1.
        -11    1    3    3    0    0  0.90956012422E+01 -0.17288811392E+02 -0.33580082521E+02  0.38849130025E+02  0.51100000000E-03 0.  1.
         12    1    3    3    0    0 -0.68908024485E+00  0.20702566961E+02  0.35641022495E+02  0.41223216696E+02  0.00000000000E+00 0. -1.
</event>
<event>
 7    1  0.4400431E-015  0.9000789E+02  0.7816164E-02  0.1186339E+00
        -11   -1    0    0    0    0  0.00000000000E+00  0.00000000000E+00  0.45593999997E+02  0.45594000000E+02  0.51100000000E-03 0.  1.
         11   -1    0    0    0    0 -0.00000000000E+00 -0.00000000000E+00 -0.45593999997E+02  0.45594000000E+02  0.51100000000E-03 0. -1.
    9900012    2    1    2    0    0 -0.17895202824E+00 -0.11661257315E+01 -0.27871421353E-01  0.90007894129E+02  0.90000157532E+02 0.  0.
         12    1    1    2    0    0  0.17895202824E+00  0.11661257315E+01  0.27871421353E-01  0.11801058708E+01  0.00000000000E+00 0. -1.
         11    1    3    3    0    0 -0.21061805526E+02 -0.38162561290E+01 -0.16321667512E+02  0.26917657653E+02  0.51100000000E-03 0. -1.
        -11    1    3    3    0    0 -0.14243868570E+02 -0.14594260119E+01  0.23000939046E+02  0.27093558522E+02  0.51100000000E-03 0.  1.
        -12    1    3    3    0    0  0.35126722068E+02  0.41095564094E+01 -0.67071429552E+01  0.35996677955E+02  0.00000000000E+00 0.  1.
</event>
<event>
 7    1  0.4400431E-015  0.9000766E+02  0.7816164E-02  0.1186339E+00
        -11   -1    0    0    0    0  0.00000000000E+00  0.00000000000E+00  0.45593999997E+02  0.45594000000E+02  0.51100000000E-03 0. -1.
         11   -1    0    0    0    0 -0.00000000000E+00 -0.00000000000E+00 -0.45593999997E+02  0.45594000000E+02  0.51100000000E-03 0.  1.
    9900012    2    1    2    0    0  0.10176885773E+01 -0.58793498804E+00 -0.10879610795E+00  0.90007663530E+02  0.89999923888E+02 0.  0.
         12    1    1    2    0    0 -0.10176885773E+01  0.58793498804E+00  0.10879610795E+00  0.11803364705E+01  0.00000000000E+00 0. -1.
         11    1    3    3    0    0 -0.19491360578E+02  0.25546721057E+01  0.33071430010E+02  0.38472834181E+02  0.51100000000E-03 0. -1.
        -11    1    3    3    0    0  0.67623084859E+01  0.38528070907E+01  0.57393793891E+01  0.96702334289E+01  0.51100000000E-03 0.  1.
        -12    1    3    3    0    0  0.13746740669E+02 -0.69954141844E+01 -0.38919605507E+02  0.41864595919E+02  0.00000000000E+00 0.  1.
</event>
<event>
 7    1  0.4400431E-015  0.9000749E+02  0.7816164E-02  0.1186340E+00
        -11   -1    0    0    0    0  0.00000000000E+00  0.00000000000E+00  0.45593999997E+02  0.45594000000E+02  0.51100000000E-03 0. -1.
         11   -1    0    0    0    0 -0.00000000000E+00 -0.00000000000E+00 -0.45593999997E+02  0.45594000000E+02  0.51100000000E-03 0.  1.
    9900012    2    1    2    0    0 -0.71115981059E+00  0.82437815865E+00  0.45635585064E+00  0.90007488125E+02  0.89999746168E+02 0.  0.
         12    1    1    2    0    0  0.71115981059E+00 -0.82437815865E+00 -0.45635585064E+00  0.11805118750E+01  0.00000000000E+00 0. -1.
         11    1    3    3    0    0  0.90507204364E+01 -0.10532678181E+02  0.34102765167E+02  0.36821888088E+02  0.51100000000E-03 0. -1.
        -11    1    3    3    0    0  0.95757567188E+00  0.54013611276E+01  0.80399092383E+01  0.97330259436E+01  0.51100000000E-03 0.  1.
        -12    1    3    3    0    0 -0.10719455919E+02  0.59556952121E+01 -0.41686318555E+02  0.43452574093E+02  0.00000000000E+00 0.  1.
</event>
<event>
 7    1  0.7751634E-015  0.9000795E+02  0.7816164E-02  0.1186339E+00
        -11   -1    0    0    0    0  0.00000000000E+00  0.00000000000E+00  0.45593999997E+02  0.45594000000E+02  0.51100000000E-03 0.  1.
         11   -1    0    0    0    0 -0.00000000000E+00 -0.00000000000E+00 -0.45593999997E+02  0.45594000000E+02  0.51100000000E-03 0. -1.
    9900012    2    1    2    0    0 -0.16377869461E+00 -0.11363612618E+01  0.27272046589E+00  0.90007950497E+02  0.90000214643E+02 0.  0.
         12    1    1    2    0    0  0.16377869461E+00  0.11363612618E+01 -0.27272046589E+00  0.11800495035E+01  0.00000000000E+00 0. -1.
         11    1    3    3    0    0  0.56683218412E+01 -0.60926296391E+01  0.42551560504E+01  0.93464625227E+01  0.51100000000E-03 0. -1.
        -11    1    3    3    0    0  0.35158390320E+02 -0.10278986051E+02  0.10318880435E+01  0.36644709814E+02  0.51100000000E-03 0.  1.
         12    1    3    3    0    0 -0.40990490856E+02  0.15235254428E+02 -0.50143236280E+01  0.44016778160E+02  0.00000000000E+00 0. -1.
</event>
<event>
 7    1  0.4400431E-015  0.9000782E+02  0.7816164E-02  0.1186339E+00
        -11   -1    0    0    0    0  0.00000000000E+00  0.00000000000E+00  0.45593999997E+02  0.45594000000E+02  0.51100000000E-03 0.  1.
         11   -1    0    0    0    0 -0.00000000000E+00 -0.00000000000E+00 -0.45593999997E+02  0.45594000000E+02  0.51100000000E-03 0. -1.
    9900012    2    1    2    0    0 -0.10869266868E+01  0.45240589529E-01  0.45755703173E+00  0.90007824263E+02  0.90000086743E+02 0.  0.
         12    1    1    2    0    0  0.10869266868E+01 -0.45240589529E-01 -0.45755703173E+00  0.11801757372E+01  0.00000000000E+00 0. -1.
         11    1    3    3    0    0  0.19661487096E+02  0.19137997518E+00 -0.33118987156E+02  0.38515944901E+02  0.51100000000E-03 0. -1.
        -11    1    3    3    0    0  0.30084527019E+01 -0.74080822181E+01 -0.18657651362E+01  0.82104536789E+01  0.51100000000E-03 0.  1.
        -12    1    3    3    0    0 -0.23756866485E+02  0.72619428324E+01  0.35442309324E+02  0.43281425683E+02  0.00000000000E+00 0.  1.
</event>
<event>
 7    1  0.4400431E-015  0.9000784E+02  0.7816164E-02  0.1186339E+00
        -11   -1    0    0    0    0  0.00000000000E+00  0.00000000000E+00  0.45593999997E+02  0.45594000000E+02  0.51100000000E-03 0.  1.
         11   -1    0    0    0    0 -0.00000000000E+00 -0.00000000000E+00 -0.45593999997E+02  0.45594000000E+02  0.51100000000E-03 0. -1.
    9900012    2    1    2    0    0  0.79704478835E+00  0.79929916400E+00 -0.34441488723E+00  0.90007838501E+02  0.90000101170E+02 0.  0.
         12    1    1    2    0    0 -0.79704478835E+00 -0.79929916400E+00  0.34441488723E+00  0.11801614986E+01  0.00000000000E+00 0. -1.
         11    1    3    3    0    0  0.42528957812E+01  0.62171231667E+01  0.35214234461E+01  0.83150566049E+01  0.51100000000E-03 0. -1.
        -11    1    3    3    0    0 -0.39665213904E+02 -0.13522452527E+02 -0.12232914017E+02  0.43655814069E+02  0.51100000000E-03 0.  1.
         12    1    3    3    0    0  0.36209362912E+02  0.81046285248E+01  0.83670756836E+01  0.38036967827E+02  0.00000000000E+00 0. -1.
</event>
<event>
 7    1  0.4400431E-015  0.9000771E+02  0.7816164E-02  0.1186339E+00
        -11   -1    0    0    0    0  0.00000000000E+00  0.00000000000E+00  0.45593999997E+02  0.45594000000E+02  0.51100000000E-03 0.  1.
         11   -1    0    0    0    0 -0.00000000000E+00 -0.00000000000E+00 -0.45593999997E+02  0.45594000000E+02  0.51100000000E-03 0. -1.
    9900012    2    1    2    0    0  0.56687789580E+00 -0.79196833771E+00  0.66672553148E+00  0.90007708794E+02  0.89999969750E+02 0.  0.
         12    1    1    2    0    0 -0.56687789580E+00  0.79196833771E+00 -0.66672553148E+00  0.11802912060E+01  0.00000000000E+00 0. -1.
         11    1    3    3    0    0  0.22885733566E+02  0.26700296514E+02 -0.69221946329E+01  0.35841029751E+02  0.51100000000E-03 0. -1.
        -11    1    3    3    0    0  0.10005752060E+02  0.12195763712E+01 -0.85139732894E+00  0.10115696639E+02  0.51100000000E-03 0.  1.
        -12    1    3    3    0    0 -0.32324607731E+02 -0.28711841223E+02  0.84403174933E+01  0.44050982404E+02  0.00000000000E+00 0.  1.
</event>
<event>
 7    1  0.4400431E-015  0.9000774E+02  0.7816164E-02  0.1186339E+00
        -11   -1    0    0    0    0  0.00000000000E+00  0.00000000000E+00  0.45593999997E+02  0.45594000000E+02  0.51100000000E-03 0.  1.
         11   -1    0    0    0    0 -0.00000000000E+00 -0.00000000000E+00 -0.45593999997E+02  0.45594000000E+02  0.51100000000E-03 0. -1.
    9900012    2    1    2    0    0 -0.75053772158E+00  0.77462361820E+00  0.47923853414E+00  0.90007738082E+02  0.89999999425E+02 0.  0.
         12    1    1    2    0    0  0.75053772158E+00 -0.77462361820E+00 -0.47923853414E+00  0.11802619175E+01  0.00000000000E+00 0. -1.
         11    1    3    3    0    0  0.33307115675E+02 -0.14867818169E+02  0.30975698953E+01  0.36606159471E+02  0.51100000000E-03 0. -1.
        -11    1    3    3    0    0  0.57006813669E+01 -0.48060732108E+01 -0.43994215048E+01  0.86574255754E+01  0.51100000000E-03 0.  1.
        -12    1    3    3    0    0 -0.39758334764E+02  0.20448514998E+02  0.17810901437E+01  0.44744153036E+02  0.00000000000E+00 0.  1.
</event>
<event>
 7    1  0.4400431E-015  0.9000768E+02  0.7816164E-02  0.1186339E+00
        -11   -1    0    0    0    0  0.00000000000E+00  0.00000000000E+00  0.45593999997E+02  0.45594000000E+02  0.51100000000E-03 0.  1.
         11   -1    0    0    0    0 -0.00000000000E+00 -0.00000000000E+00 -0.45593999997E+02  0.45594000000E+02  0.51100000000E-03 0. -1.
    9900012    2    1    2    0    0  0.61577369127E+00  0.83307780781E+00  0.56564565948E+00  0.90007681871E+02  0.89999942472E+02 0.  0.
         12    1    1    2    0    0 -0.61577369127E+00 -0.83307780781E+00 -0.56564565948E+00  0.11803181286E+01  0.00000000000E+00 0. -1.
         11    1    3    3    0    0 -0.60817407832E+01  0.20808505123E+01  0.74367643415E+01  0.98296985682E+01  0.51100000000E-03 0. -1.
        -11    1    3    3    0    0  0.73159976766E+01  0.32566202242E+01  0.36094645045E+02  0.36972324764E+02  0.51100000000E-03 0.  1.
         12    1    3    3    0    0 -0.61848320204E+00 -0.45043929287E+01 -0.42965763727E+02  0.43205658539E+02  0.00000000000E+00 0. -1.
</event>
<event>
 7    1  0.4400431E-015  0.9000758E+02  0.7816164E-02  0.1186339E+00
        -11   -1    0    0    0    0  0.00000000000E+00  0.00000000000E+00  0.45593999997E+02  0.45594000000E+02  0.51100000000E-03 0. -1.
         11   -1    0    0    0    0 -0.00000000000E+00 -0.00000000000E+00 -0.45593999997E+02  0.45594000000E+02  0.51100000000E-03 0.  1.
    9900012    2    1    2    0    0  0.82071571911E+00  0.20219940142E+00 -0.82397113742E+00  0.90007581716E+02  0.89999840995E+02 0.  0.
         12    1    1    2    0    0 -0.82071571911E+00 -0.20219940142E+00  0.82397113742E+00  0.11804182838E+01  0.00000000000E+00 0. -1.
         11    1    3    3    0    0  0.52743870416E+01  0.49208580479E+01 -0.41330048449E+01  0.83135871861E+01  0.51100000000E-03 0. -1.
        -11    1    3    3    0    0  0.28724679661E+01  0.37706302514E+02 -0.39948137162E+01  0.38025976101E+02  0.51100000000E-03 0.  1.
         12    1    3    3    0    0 -0.73261392886E+01 -0.42424961161E+02  0.73038474237E+01  0.43668018429E+02  0.00000000000E+00 0. -1.
</event>
<event>
 7    1  0.4400431E-015  0.9000783E+02  0.7816164E-02  0.1186339E+00
        -11   -1    0    0    0    0  0.00000000000E+00  0.00000000000E+00  0.45593999997E+02  0.45594000000E+02  0.51100000000E-03 0.  1.
         11   -1    0    0    0    0 -0.00000000000E+00 -0.00000000000E+00 -0.45593999997E+02  0.45594000000E+02  0.51100000000E-03 0. -1.
    9900012    2    1    2    0    0  0.12375277785E+00 -0.73852312179E+00  0.91218401675E+00  0.90007825932E+02  0.90000088434E+02 0.  0.
         12    1    1    2    0    0 -0.12375277785E+00  0.73852312179E+00 -0.91218401675E+00  0.11801740685E+01  0.00000000000E+00 0. -1.
         11    1    3    3    0    0 -0.84446545329E+01  0.93479780943E+01 -0.36973430903E+02  0.39060612868E+02  0.51100000000E-03 0. -1.
        -11    1    3    3    0    0 -0.26194572172E+01 -0.80323431967E+01 -0.26431330948E+01  0.88524711895E+01  0.51100000000E-03 0.  1.
        -12    1    3    3    0    0  0.11187864528E+02 -0.20541580194E+01  0.40528748014E+02  0.42094741874E+02  0.00000000000E+00 0.  1.
</event>
<event>
 7    1  0.4400431E-015  0.9000773E+02  0.7816164E-02  0.1186339E+00
        -11   -1    0    0    0    0  0.00000000000E+00  0.00000000000E+00  0.45593999997E+02  0.45594000000E+02  0.51100000000E-03 0. -1.
         11   -1    0    0    0    0 -0.00000000000E+00 -0.00000000000E+00 -0.45593999997E+02  0.45594000000E+02  0.51100000000E-03 0.  1.
    9900012    2    1    2    0    0  0.34046158866E+00  0.25064628981E+00 -0.11019530595E+01  0.90007729607E+02  0.89999990837E+02 0.  0.
         12    1    1    2    0    0 -0.34046158866E+00 -0.25064628981E+00  0.11019530595E+01  0.11802703933E+01  0.00000000000E+00 0. -1.
         11    1    3    3    0    0  0.10372311825E+02 -0.29746651869E+02  0.14044455986E+02  0.34491954050E+02  0.51100000000E-03 0. -1.
        -11    1    3    3    0    0  0.89616136540E+01 -0.70854639815E+01 -0.80485045569E+00  0.11452602483E+02  0.51100000000E-03 0.  1.
        -12    1    3    3    0    0 -0.18993463891E+02  0.37082762140E+02 -0.14341558590E+02  0.44063173073E+02  0.00000000000E+00 0.  1.
</event>
<event>
 7    1  0.4400431E-015  0.9000776E+02  0.7816164E-02  0.1186339E+00
        -11   -1    0    0    0    0  0.00000000000E+00  0.00000000000E+00  0.45593999997E+02  0.45594000000E+02  0.51100000000E-03 0. -1.
         11   -1    0    0    0    0 -0.00000000000E+00 -0.00000000000E+00 -0.45593999997E+02  0.45594000000E+02  0.51100000000E-03 0.  1.
    9900012    2    1    2    0    0 -0.47656656917E+00  0.78839321461E+00 -0.73776203532E+00  0.90007757493E+02  0.90000019091E+02 0.  0.
         12    1    1    2    0    0  0.47656656917E+00 -0.78839321461E+00  0.73776203532E+00  0.11802425075E+01  0.00000000000E+00 0. -1.
         11    1    3    3    0    0 -0.61218678850E+01  0.43976324025E+01  0.14692476547E+02  0.16513185777E+02  0.51100000000E-03 0. -1.
        -11    1    3    3    0    0 -0.20091518105E+02  0.20679359602E+02 -0.23502145874E+02  0.37197525109E+02  0.51100000000E-03 0.  1.
         12    1    3    3    0    0  0.25736819421E+02 -0.24288598790E+02  0.80719072915E+01  0.36297046607E+02  0.00000000000E+00 0. -1.
</event>
<event>
 7    1  0.7280954E-015  0.9000778E+02  0.7816164E-02  0.1186339E+00
        -11   -1    0    0    0    0  0.00000000000E+00  0.00000000000E+00  0.45593999997E+02  0.45594000000E+02  0.51100000000E-03 0. -1.
         11   -1    0    0    0    0 -0.00000000000E+00 -0.00000000000E+00 -0.45593999997E+02  0.45594000000E+02  0.51100000000E-03 0.  1.
    9900012    2    1    2    0    0  0.17633094679E-01  0.87873273004E+00 -0.78767444398E+00  0.90007782577E+02  0.90000044507E+02 0.  0.
         12    1    1    2    0    0 -0.17633094679E-01 -0.87873273004E+00  0.78767444398E+00  0.11802174234E+01  0.00000000000E+00 0. -1.
         11    1    3    3    0    0 -0.14390408813E+02 -0.13145566472E+02  0.30441796189E+02  0.36146821978E+02  0.51100000000E-03 0. -1.
        -11    1    3    3    0    0 -0.26318506224E+01 -0.77001847848E+01  0.40274972157E+01  0.90796595477E+01  0.51100000000E-03 0.  1.
        -12    1    3    3    0    0  0.17039892530E+02  0.21724483987E+02 -0.35256967848E+02  0.44781301051E+02  0.00000000000E+00 0.  1.
</event>
<event>
 7    1  0.4400431E-015  0.9000771E+02  0.7816164E-02  0.1186339E+00
        -11   -1    0    0    0    0  0.00000000000E+00  0.00000000000E+00  0.45593999997E+02  0.45594000000E+02  0.51100000000E-03 0. -1.
         11   -1    0    0    0    0 -0.00000000000E+00 -0.00000000000E+00 -0.45593999997E+02  0.45594000000E+02  0.51100000000E-03 0.  1.
    9900012    2    1    2    0    0 -0.10158397752E+01  0.31158099766E+00 -0.51387333847E+00  0.90007712334E+02  0.89999973337E+02 0.  0.
         12    1    1    2    0    0  0.10158397752E+01 -0.31158099766E+00  0.51387333847E+00  0.11802876662E+01  0.00000000000E+00 0. -1.
         11    1    3    3    0    0  0.27998450867E+01 -0.80410336120E+00 -0.74384473174E+01  0.79885050842E+01  0.51100000000E-03 0. -1.
        -11    1    3    3    0    0 -0.10038954518E+02  0.17367450673E+02 -0.32914126177E+02  0.38545410271E+02  0.51100000000E-03 0.  1.
         12    1    3    3    0    0  0.62232696560E+01 -0.16251766315E+02  0.39838700156E+02  0.43473796978E+02  0.00000000000E+00 0. -1.
</event>
<event>
 7    1  0.4400431E-015  0.9000778E+02  0.7816164E-02  0.1186339E+00
        -11   -1    0    0    0    0  0.00000000000E+00  0.00000000000E+00  0.45593999997E+02  0.45594000000E+02  0.51100000000E-03 0.  1.
         11   -1    0    0    0    0 -0.00000000000E+00 -0.00000000000E+00 -0.45593999997E+02  0.45594000000E+02  0.51100000000E-03 0. -1.
    9900012    2    1    2    0    0  0.35729315809E-01  0.11220173899E+01 -0.36429792469E+00  0.90007782823E+02  0.90000044756E+02 0.  0.
         12    1    1    2    0    0 -0.35729315809E-01 -0.11220173899E+01  0.36429792469E+00  0.11802171771E+01  0.00000000000E+00 0. -1.
         11    1    3    3    0    0 -0.10986930742E+02  0.64759444453E+01  0.63779967569E+01  0.14259359960E+02  0.51100000000E-03 0. -1.
        -11    1    3    3    0    0 -0.11549476194E+01  0.13266102842E+02  0.29984402446E+02  0.32808349225E+02  0.51100000000E-03 0.  1.
         12    1    3    3    0    0  0.12177607677E+02 -0.18620029897E+02 -0.36726697127E+02  0.42940073637E+02  0.00000000000E+00 0. -1.
</event>
<event>
 7    1  0.4400431E-015  0.9000693E+02  0.7816164E-02  0.1186341E+00
        -11   -1    0    0    0    0  0.00000000000E+00  0.00000000000E+00  0.45593999997E+02  0.45594000000E+02  0.51100000000E-03 0. -1.
         11   -1    0    0    0    0 -0.00000000000E+00 -0.00000000000E+00 -0.45593999997E+02  0.45594000000E+02  0.51100000000E-03 0.  1.
    9900012    2    1    2    0    0  0.51083920561E+00  0.10308138651E+01 -0.26717469000E+00  0.90006934281E+02  0.89999185009E+02 0.  0.
         12    1    1    2    0    0 -0.51083920561E+00 -0.10308138651E+01  0.26717469000E+00  0.11810657194E+01  0.00000000000E+00 0. -1.
         11    1    3    3    0    0 -0.60949379404E+01 -0.85500427485E+00 -0.18919303273E+02  0.19895208906E+02  0.51100000000E-03 0. -1.
        -11    1    3    3    0    0  0.97418831754E+01 -0.31797395793E+02  0.49915202237E+01  0.33628766576E+02  0.51100000000E-03 0.  1.
         12    1    3    3    0    0 -0.31361060294E+01  0.33683213933E+02  0.13660608360E+02  0.36482958798E+02  0.00000000000E+00 0. -1.
</event>
<event>
 7    1  0.4400431E-015  0.9000787E+02  0.7816164E-02  0.1186339E+00
        -11   -1    0    0    0    0  0.00000000000E+00  0.00000000000E+00  0.45593999997E+02  0.45594000000E+02  0.51100000000E-03 0.  1.
         11   -1    0    0    0    0 -0.00000000000E+00 -0.00000000000E+00 -0.45593999997E+02  0.45594000000E+02  0.51100000000E-03 0. -1.
    9900012    2    1    2    0    0 -0.54130209651E+00 -0.86719316391E+00  0.58964782443E+00  0.90007865897E+02  0.90000128927E+02 0.  0.
         12    1    1    2    0    0  0.54130209651E+00  0.86719316391E+00 -0.58964782443E+00  0.11801341026E+01  0.00000000000E+00 0. -1.
         11    1    3    3    0    0  0.31585150891E+02 -0.38109835059E+01 -0.25003980273E+02  0.40464112270E+02  0.51100000000E-03 0. -1.
        -11    1    3    3    0    0 -0.67297127367E+01  0.54562529450E+01 -0.47615231351E+01  0.98859411563E+01  0.51100000000E-03 0.  1.
        -12    1    3    3    0    0 -0.25396740250E+02 -0.25124626030E+01  0.30355151232E+02  0.39657812471E+02  0.00000000000E+00 0.  1.
</event>
<event>
 7    1  0.4400431E-015  0.9000745E+02  0.7816164E-02  0.1186340E+00
        -11   -1    0    0    0    0  0.00000000000E+00  0.00000000000E+00  0.45593999997E+02  0.45594000000E+02  0.51100000000E-03 0.  1.
         11   -1    0    0    0    0 -0.00000000000E+00 -0.00000000000E+00 -0.45593999997E+02  0.45594000000E+02  0.51100000000E-03 0. -1.
    9900012    2    1    2    0    0  0.18000116672E+00 -0.87906314559E+00  0.76716104369E+00  0.90007454151E+02  0.89999711746E+02 0.  0.
         12    1    1    2    0    0 -0.18000116672E+00  0.87906314559E+00 -0.76716104369E+00  0.11805458487E+01  0.00000000000E+00 0. -1.
         11    1    3    3    0    0  0.28266903967E+02  0.94168941728E+01  0.28174408334E+02  0.41006012254E+02  0.51100000000E-03 0. -1.
        -11    1    3    3    0    0 -0.20702639375E+01  0.79213111065E+01 -0.22680460481E+01  0.84957163061E+01  0.51100000000E-03 0.  1.
        -12    1    3    3    0    0 -0.26016638863E+02 -0.18217268425E+02 -0.25139201242E+02  0.40505725591E+02  0.00000000000E+00 0.  1.
</event>
<event>
 7    1  0.4400431E-015  0.9000783E+02  0.7816164E-02  0.1186339E+00
        -11   -1    0    0    0    0  0.00000000000E+00  0.00000000000E+00  0.45593999997E+02  0.45594000000E+02  0.51100000000E-03 0. -1.
         11   -1    0    0    0    0 -0.00000000000E+00 -0.00000000000E+00 -0.45593999997E+02  0.45594000000E+02  0.51100000000E-03 0.  1.
    9900012    2    1    2    0    0 -0.31081289154E+00  0.11194056710E+01  0.20767576242E+00  0.90007829278E+02  0.90000091825E+02 0.  0.
         12    1    1    2    0    0  0.31081289154E+00 -0.11194056710E+01 -0.20767576242E+00  0.11801707216E+01  0.00000000000E+00 0. -1.
         11    1    3    3    0    0 -0.59270377364E+01 -0.28515298961E+01 -0.24456762024E+01  0.70172880392E+01  0.51100000000E-03 0. -1.
        -11    1    3    3    0    0  0.12106246834E+02  0.15004250828E+02 -0.36782731770E+02  0.41529003263E+02  0.51100000000E-03 0.  1.
         12    1    3    3    0    0 -0.64900219891E+01 -0.11033315261E+02  0.39436083734E+02  0.41461537976E+02  0.00000000000E+00 0. -1.
</event>
<event>
 7    1  0.4400431E-015  0.9000780E+02  0.7816164E-02  0.1186339E+00
        -11   -1    0    0    0    0  0.00000000000E+00  0.00000000000E+00  0.45593999997E+02  0.45594000000E+02  0.51100000000E-03 0.  1.
         11   -1    0    0    0    0 -0.00000000000E+00 -0.00000000000E+00 -0.45593999997E+02  0.45594000000E+02  0.51100000000E-03 0. -1.
    9900012    2    1    2    0    0  0.31102024566E+00  0.11206103337E+01 -0.20094912250E+00  0.90007795923E+02  0.90000058029E+02 0.  0.
         12    1    1    2    0    0 -0.31102024566E+00 -0.11206103337E+01  0.20094912250E+00  0.11802040769E+01  0.00000000000E+00 0. -1.
         11    1    3    3    0    0 -0.13716914704E+01  0.36146847581E+02 -0.86888426088E+01  0.37201775679E+02  0.51100000000E-03 0. -1.
        -11    1    3    3    0    0 -0.37611216433E+01  0.55958237714E+01 -0.63068074379E+01  0.92322857417E+01  0.51100000000E-03 0.  1.
        -12    1    3    3    0    0  0.54438333594E+01 -0.40622061019E+02  0.14794700924E+02  0.43573734502E+02  0.00000000000E+00 0.  1.
</event>
<event>
 7    1  0.4400431E-015  0.9000770E+02  0.7816164E-02  0.1186339E+00
        -11   -1    0    0    0    0  0.00000000000E+00  0.00000000000E+00  0.45593999997E+02  0.45594000000E+02  0.51100000000E-03 0.  1.
         11   -1    0    0    0    0 -0.00000000000E+00 -0.00000000000E+00 -0.45593999997E+02  0.45594000000E+02  0.51100000000E-03 0. -1.
    9900012    2    1    2    0    0 -0.82491822227E+00 -0.84202657574E+00  0.60069174116E-01  0.90007700405E+02  0.89999961251E+02 0.  0.
         12    1    1    2    0    0  0.82491822227E+00  0.84202657574E+00 -0.60069174116E-01  0.11802995947E+01  0.00000000000E+00 0. -1.
         11    1    3    3    0    0  0.27465792163E+01  0.32556119226E+01  0.79481029220E+01  0.90174856087E+01  0.51100000000E-03 0. -1.
        -11    1    3    3    0    0  0.32988326849E+01 -0.11071117288E+02  0.35073758550E+02  0.36927232148E+02  0.51100000000E-03 0.  1.
         12    1    3    3    0    0 -0.68703301235E+01  0.69734787893E+01 -0.42961792298E+02  0.44062982648E+02  0.00000000000E+00 0. -1.
</event>
<event>
 7    1  0.4400431E-015  0.9000773E+02  0.7816164E-02  0.1186339E+00
        -11   -1    0    0    0    0  0.00000000000E+00  0.00000000000E+00  0.45593999997E+02  0.45594000000E+02  0.51100000000E-03 0. -1.
         11   -1    0    0    0    0 -0.00000000000E+00 -0.00000000000E+00 -0.45593999997E+02  0.45594000000E+02  0.51100000000E-03 0.  1.
    9900012    2    1    2    0    0  0.61256790836E+00 -0.72408321246E+00 -0.70250474115E+00  0.90007725095E+02  0.89999986266E+02 0.  0.
         12    1    1    2    0    0 -0.61256790836E+00  0.72408321246E+00  0.70250474115E+00  0.11802749054E+01  0.00000000000E+00 0. -1.
         11    1    3    3    0    0 -0.52623504316E+01  0.74501419786E+01  0.58730905373E+01  0.10848508667E+02  0.51100000000E-03 0. -1.
        -11    1    3    3    0    0  0.34119669232E+02  0.18763494216E+02 -0.92984706474E+01  0.40033512216E+02  0.51100000000E-03 0.  1.
         12    1    3    3    0    0 -0.28244750892E+02 -0.26937719407E+02  0.27228753689E+01  0.39125704212E+02  0.00000000000E+00 0. -1.
</event>
<event>
 7    1  0.4400431E-015  0.9000775E+02  0.7816164E-02  0.1186339E+00
        -11   -1    0    0    0    0  0.00000000000E+00  0.00000000000E+00  0.45593999997E+02  0.45594000000E+02  0.51100000000E-03 0.  1.
         11   -1    0    0    0    0 -0.00000000000E+00 -0.00000000000E+00 -0.45593999997E+02  0.45594000000E+02  0.51100000000E-03 0. -1.
    9900012    2    1    2    0    0 -0.11274058681E+01  0.46955691805E-01 -0.34604160068E+00  0.90007748494E+02  0.90000009974E+02 0.  0.
         12    1    1    2    0    0  0.11274058681E+01 -0.46955691805E-01  0.34604160068E+00  0.11802515062E+01  0.00000000000E+00 0. -1.
         11    1    3    3    0    0 -0.75079978416E+00 -0.36526135886E+02 -0.15221127902E+02  0.39577835185E+02  0.51100000000E-03 0. -1.
        -11    1    3    3    0    0 -0.83541356730E+01 -0.19312114459E+01  0.48458526050E+01  0.98490328572E+01  0.51100000000E-03 0.  1.
        -12    1    3    3    0    0  0.79775295890E+01  0.38504303024E+02  0.10029233696E+02  0.40580880451E+02  0.00000000000E+00 0.  1.
</event>
<event>
 7    1  0.4400431E-015  0.9000776E+02  0.7816164E-02  0.1186339E+00
        -11   -1    0    0    0    0  0.00000000000E+00  0.00000000000E+00  0.45593999997E+02  0.45594000000E+02  0.51100000000E-03 0. -1.
         11   -1    0    0    0    0 -0.00000000000E+00 -0.00000000000E+00 -0.45593999997E+02  0.45594000000E+02  0.51100000000E-03 0.  1.
    9900012    2    1    2    0    0 -0.77439846689E-01  0.76898413919E+00 -0.89198540275E+00  0.90007757866E+02  0.90000019470E+02 0.  0.
         12    1    1    2    0    0  0.77439846689E-01 -0.76898413919E+00  0.89198540275E+00  0.11802421340E+01  0.00000000000E+00 0. -1.
         11    1    3    3    0    0 -0.50368566365E+01  0.31324199024E+02  0.24077578408E+02  0.39828446512E+02  0.51100000000E-03 0. -1.
        -11    1    3    3    0    0  0.66520725535E+01 -0.63881924367E+01  0.58924864062E+01  0.10944426352E+02  0.51100000000E-03 0.  1.
        -12    1    3    3    0    0 -0.16926557637E+01 -0.24167022448E+02 -0.30862050217E+02  0.39234885002E+02  0.00000000000E+00 0.  1.
</event>
<event>
 7    1  0.4400431E-015  0.9000772E+02  0.7816164E-02  0.1186339E+00
        -11   -1    0    0    0    0  0.00000000000E+00  0.00000000000E+00  0.45593999997E+02  0.45594000000E+02  0.51100000000E-03 0.  1.
         11   -1    0    0    0    0 -0.00000000000E+00 -0.00000000000E+00 -0.45593999997E+02  0.45594000000E+02  0.51100000000E-03 0. -1.
    9900012    2    1    2    0    0  0.67255627604E+00 -0.47487440985E+00  0.84570717972E+00  0.90007721099E+02  0.89999982218E+02 0.  0.
         12    1    1    2    0    0 -0.67255627604E+00  0.47487440985E+00 -0.84570717972E+00  0.11802789007E+01  0.00000000000E+00 0. -1.
         11    1    3    3    0    0 -0.26139461214E+02  0.18041083344E+01 -0.25918166567E+02  0.36854817838E+02  0.51100000000E-03 0. -1.
        -11    1    3    3    0    0 -0.90153893596E+01 -0.29443245171E+01  0.22820793756E+01  0.97547003390E+01  0.51100000000E-03 0.  1.
        -12    1    3    3    0    0  0.35827406849E+02  0.66534177286E+00  0.24481794371E+02  0.43398202922E+02  0.00000000000E+00 0.  1.
</event>
<event>
 7    1  0.4400431E-015  0.9000784E+02  0.7816164E-02  0.1186339E+00
        -11   -1    0    0    0    0  0.00000000000E+00  0.00000000000E+00  0.45593999997E+02  0.45594000000E+02  0.51100000000E-03 0. -1.
         11   -1    0    0    0    0 -0.00000000000E+00 -0.00000000000E+00 -0.45593999997E+02  0.45594000000E+02  0.51100000000E-03 0.  1.
    9900012    2    1    2    0    0 -0.38269181418E+00  0.96454811343E+00  0.56211563821E+00  0.90007838961E+02  0.90000101635E+02 0.  0.
         12    1    1    2    0    0  0.38269181418E+00 -0.96454811343E+00 -0.56211563821E+00  0.11801610392E+01  0.00000000000E+00 0. -1.
         11    1    3    3    0    0  0.28026035207E+02 -0.66943796048E+01  0.20935316444E+02  0.35616861773E+02  0.51100000000E-03 0. -1.
        -11    1    3    3    0    0  0.41341736958E+01  0.15832703670E+02 -0.31088297452E+01  0.16656251688E+02  0.51100000000E-03 0.  1.
        -12    1    3    3    0    0 -0.32542900717E+02 -0.81737759520E+01 -0.17264371061E+02  0.37734725499E+02  0.00000000000E+00 0.  1.
</event>
<event>
 7    1  0.4400431E-015  0.9000785E+02  0.7816164E-02  0.1186339E+00
        -11   -1    0    0    0    0  0.00000000000E+00  0.00000000000E+00  0.45593999997E+02  0.45594000000E+02  0.51100000000E-03 0.  1.
         11   -1    0    0    0    0 -0.00000000000E+00 -0.00000000000E+00 -0.45593999997E+02  0.45594000000E+02  0.51100000000E-03 0. -1.
    9900012    2    1    2    0    0  0.97739108034E+00 -0.31337162513E+00  0.58246880416E+00  0.90007845346E+02  0.90000108105E+02 0.  0.
         12    1    1    2    0    0 -0.97739108034E+00  0.31337162513E+00 -0.58246880416E+00  0.11801546539E+01  0.00000000000E+00 0. -1.
         11    1    3    3    0    0  0.63286515647E+01 -0.57571826004E+01 -0.83931622216E+01  0.11985080495E+02  0.51100000000E-03 0. -1.
        -11    1    3    3    0    0  0.29095812853E+02  0.22946224800E+02  0.12780378835E+02  0.39197367789E+02  0.51100000000E-03 0.  1.
         12    1    3    3    0    0 -0.34447073338E+02 -0.17502413824E+02 -0.38047478088E+01  0.38825397063E+02  0.00000000000E+00 0. -1.
</event>
<event>
 7    1  0.4400431E-015  0.9000770E+02  0.7816164E-02  0.1186339E+00
        -11   -1    0    0    0    0  0.00000000000E+00  0.00000000000E+00  0.45593999997E+02  0.45594000000E+02  0.51100000000E-03 0.  1.
         11   -1    0    0    0    0 -0.00000000000E+00 -0.00000000000E+00 -0.45593999997E+02  0.45594000000E+02  0.51100000000E-03 0. -1.
    9900012    2    1    2    0    0  0.54723024183E+00  0.86129551902E+00  0.59314822278E+00  0.90007696767E+02  0.89999957564E+02 0.  0.
         12    1    1    2    0    0 -0.54723024183E+00 -0.86129551902E+00 -0.59314822278E+00  0.11803032334E+01  0.00000000000E+00 0. -1.
         11    1    3    3    0    0  0.64297428868E+00 -0.64758764794E+00 -0.70401716422E+01  0.70990705526E+01  0.51100000000E-03 0. -1.
        -11    1    3    3    0    0 -0.24376366043E+02 -0.28971337745E+02  0.18936084887E+02  0.42333449461E+02  0.51100000000E-03 0.  1.
         12    1    3    3    0    0  0.24280621996E+02  0.30480220912E+02 -0.11302765022E+02  0.40575176753E+02  0.00000000000E+00 0. -1.
</event>
<event>
 7    1  0.4400431E-015  0.9000774E+02  0.7816164E-02  0.1186339E+00
        -11   -1    0    0    0    0  0.00000000000E+00  0.00000000000E+00  0.45593999997E+02  0.45594000000E+02  0.51100000000E-03 0.  1.
         11   -1    0    0    0    0 -0.00000000000E+00 -0.00000000000E+00 -0.45593999997E+02  0.45594000000E+02  0.51100000000E-03 0. -1.
    9900012    2    1    2    0    0  0.22856415404E+00 -0.10572498457E+01  0.47221642081E+00  0.90007742758E+02  0.90000004163E+02 0.  0.
         12    1    1    2    0    0 -0.22856415404E+00  0.10572498457E+01 -0.47221642081E+00  0.11802572418E+01  0.00000000000E+00 0. -1.
         11    1    3    3    0    0 -0.42640438571E+01  0.11986310898E+02 -0.10294959131E+01  0.12763760459E+02  0.51100000000E-03 0. -1.
        -11    1    3    3    0    0  0.19217775467E+02  0.27711581996E+02  0.32171170342E+01  0.33876311973E+02  0.51100000000E-03 0.  1.
         12    1    3    3    0    0 -0.14725167456E+02 -0.40755142739E+02 -0.17154047003E+01  0.43367670327E+02  0.00000000000E+00 0. -1.
</event>
<event>
 7    1  0.4400431E-015  0.9000772E+02  0.7816164E-02  0.1186339E+00
        -11   -1    0    0    0    0  0.00000000000E+00  0.00000000000E+00  0.45593999997E+02  0.45594000000E+02  0.51100000000E-03 0.  1.
         11   -1    0    0    0    0 -0.00000000000E+00 -0.00000000000E+00 -0.45593999997E+02  0.45594000000E+02  0.51100000000E-03 0. -1.
    9900012    2    1    2    0    0  0.10875844089E+01  0.43476298286E+00 -0.14564483571E+00  0.90007715663E+02  0.89999976710E+02 0.  0.
         12    1    1    2    0    0 -0.10875844089E+01 -0.43476298286E+00  0.14564483571E+00  0.11802843369E+01  0.00000000000E+00 0. -1.
         11    1    3    3    0    0  0.13904919653E+02  0.51862691795E+01  0.21844671601E+01  0.15000535843E+02  0.51100000000E-03 0. -1.
        -11    1    3    3    0    0  0.16248306448E+02 -0.22428018259E+02  0.20134297769E+02  0.34240522957E+02  0.51100000000E-03 0.  1.
         12    1    3    3    0    0 -0.29065641692E+02  0.17676512063E+02 -0.22464409765E+02  0.40766656863E+02  0.00000000000E+00 0. -1.
</event>
<event>
 7    1  0.4400431E-015  0.9000775E+02  0.7816164E-02  0.1186339E+00
        -11   -1    0    0    0    0  0.00000000000E+00  0.00000000000E+00  0.45593999997E+02  0.45594000000E+02  0.51100000000E-03 0.  1.
         11   -1    0    0    0    0 -0.00000000000E+00 -0.00000000000E+00 -0.45593999997E+02  0.45594000000E+02  0.51100000000E-03 0. -1.
    9900012    2    1    2    0    0  0.99167644917E+00  0.50549171476E+00  0.39250182416E+00  0.90007745055E+02  0.90000006490E+02 0.  0.
         12    1    1    2    0    0 -0.99167644917E+00 -0.50549171476E+00 -0.39250182416E+00  0.11802549451E+01  0.00000000000E+00 0. -1.
         11    1    3    3    0    0  0.63092794440E+01  0.51114957282E+01 -0.35489991345E+02  0.36407058129E+02  0.51100000000E-03 0. -1.
        -11    1    3    3    0    0  0.44577235176E+01  0.11507712001E+02 -0.79257591842E+00  0.12366362088E+02  0.51100000000E-03 0.  1.
        -12    1    3    3    0    0 -0.97753265124E+01 -0.16113716014E+02  0.36675069088E+02  0.41234324837E+02  0.00000000000E+00 0.  1.
</event>
<event>
 7    1  0.4400431E-015  0.9000773E+02  0.7816164E-02  0.1186339E+00
        -11   -1    0    0    0    0  0.00000000000E+00  0.00000000000E+00  0.45593999997E+02  0.45594000000E+02  0.51100000000E-03 0. -1.
         11   -1    0    0    0    0 -0.00000000000E+00 -0.00000000000E+00 -0.45593999997E+02  0.45594000000E+02  0.51100000000E-03 0.  1.
    9900012    2    1    2    0    0 -0.10664022177E+00  0.77444105006E+00 -0.88425323956E+00  0.90007731019E+02  0.89999992268E+02 0.  0.
         12    1    1    2    0    0  0.10664022177E+00 -0.77444105006E+00  0.88425323956E+00  0.11802689815E+01  0.00000000000E+00 0. -1.
         11    1    3    3    0    0  0.26952095055E+02  0.20064298132E+02  0.14478236934E+02  0.36587030931E+02  0.51100000000E-03 0. -1.
        -11    1    3    3    0    0  0.90486901584E+01 -0.62663126493E+00 -0.80400799553E+01  0.12120822838E+02  0.51100000000E-03 0.  1.
        -12    1    3    3    0    0 -0.36107425435E+02 -0.18663225817E+02 -0.73224102185E+01  0.41299877250E+02  0.00000000000E+00 0.  1.
</event>
<event>
 7    1  0.4400431E-015  0.9000765E+02  0.7816164E-02  0.1186339E+00
        -11   -1    0    0    0    0  0.00000000000E+00  0.00000000000E+00  0.45593999997E+02  0.45594000000E+02  0.51100000000E-03 0.  1.
         11   -1    0    0    0    0 -0.00000000000E+00 -0.00000000000E+00 -0.45593999997E+02  0.45594000000E+02  0.51100000000E-03 0. -1.
    9900012    2    1    2    0    0 -0.66433818494E+00 -0.89320028370E+00  0.39253285713E+00  0.90007646657E+02  0.89999906793E+02 0.  0.
         12    1    1    2    0    0  0.66433818494E+00  0.89320028370E+00 -0.39253285713E+00  0.11803533432E+01  0.00000000000E+00 0. -1.
         11    1    3    3    0    0  0.10231743179E+02  0.10107626001E+02  0.17815964313E+02  0.22896752095E+02  0.51100000000E-03 0. -1.
        -11    1    3    3    0    0 -0.22652391346E+01 -0.35455966184E+02  0.59336439427E+00  0.35533208805E+02  0.51100000000E-03 0.  1.
         12    1    3    3    0    0 -0.86308422294E+01  0.24455139899E+02 -0.18016795850E+02  0.31577685757E+02  0.00000000000E+00 0. -1.
</event>
<event>
 7    1  0.4400431E-015  0.9000798E+02  0.7816164E-02  0.1186339E+00
        -11   -1    0    0    0    0  0.00000000000E+00  0.00000000000E+00  0.45593999997E+02  0.45594000000E+02  0.51100000000E-03 0. -1.
         11   -1    0    0    0    0 -0.00000000000E+00 -0.00000000000E+00 -0.45593999997E+02  0.45594000000E+02  0.51100000000E-03 0.  1.
    9900012    2    1    2    0    0  0.93729901691E+00 -0.56496859502E+00  0.44128133817E+00  0.90007979585E+02  0.90000244115E+02 0.  0.
         12    1    1    2    0    0 -0.93729901691E+00  0.56496859502E+00 -0.44128133817E+00  0.11800204150E+01  0.00000000000E+00 0. -1.
         11    1    3    3    0    0  0.51101929962E+01 -0.60527141297E+01 -0.23826754680E+01  0.82720350242E+01  0.51100000000E-03 0. -1.
        -11    1    3    3    0    0  0.27043523298E+02 -0.24240102120E+02  0.10817800159E+02  0.37894056311E+02  0.51100000000E-03 0.  1.
         12    1    3    3    0    0 -0.31216417277E+02  0.29727847655E+02 -0.79938433527E+01  0.43841888250E+02  0.00000000000E+00 0. -1.
</event>
<event>
 7    1  0.4400431E-015  0.9000767E+02  0.7816164E-02  0.1186339E+00
        -11   -1    0    0    0    0  0.00000000000E+00  0.00000000000E+00  0.45593999997E+02  0.45594000000E+02  0.51100000000E-03 0. -1.
         11   -1    0    0    0    0 -0.00000000000E+00 -0.00000000000E+00 -0.45593999997E+02  0.45594000000E+02  0.51100000000E-03 0.  1.
    9900012    2    1    2    0    0 -0.14070212294E+00 -0.35404284458E+00 -0.11171564877E+01  0.90007668673E+02  0.89999929100E+02 0.  0.
         12    1    1    2    0    0  0.14070212294E+00  0.35404284458E+00  0.11171564877E+01  0.11803313269E+01  0.00000000000E+00 0. -1.
         11    1    3    3    0    0 -0.20589607814E+02  0.18758134147E+02  0.14669114016E+02  0.31479873775E+02  0.51100000000E-03 0. -1.
        -11    1    3    3    0    0  0.10500425892E+02  0.16377586868E+02 -0.65844909929E+01  0.20538739431E+02  0.51100000000E-03 0.  1.
        -12    1    3    3    0    0  0.99484797990E+01 -0.35489763859E+02 -0.92017795111E+01  0.37989055467E+02  0.00000000000E+00 0.  1.
</event>
<event>
 7    1  0.4400431E-015  0.9000760E+02  0.7816164E-02  0.1186339E+00
        -11   -1    0    0    0    0  0.00000000000E+00  0.00000000000E+00  0.45593999997E+02  0.45594000000E+02  0.51100000000E-03 0.  1.
         11   -1    0    0    0    0 -0.00000000000E+00 -0.00000000000E+00 -0.45593999997E+02  0.45594000000E+02  0.51100000000E-03 0. -1.
    9900012    2    1    2    0    0 -0.43176235834E+00  0.43299167133E+00  0.10096776240E+01  0.90007597769E+02  0.89999857260E+02 0.  0.
         12    1    1    2    0    0  0.43176235834E+00 -0.43299167133E+00 -0.10096776240E+01  0.11804022305E+01  0.00000000000E+00 0. -1.
         11    1    3    3    0    0 -0.10653190815E+02 -0.49248835140E-04  0.68521855358E+00  0.10675204882E+02  0.51100000000E-03 0. -1.
        -11    1    3    3    0    0 -0.15169458411E+02  0.11748605336E+02  0.31923795785E+02  0.37246086149E+02  0.51100000000E-03 0.  1.
         12    1    3    3    0    0  0.25390886868E+02 -0.11315564416E+02 -0.31599336715E+02  0.42086306738E+02  0.00000000000E+00 0. -1.
</event>
<event>
 7    1  0.4400431E-015  0.9000780E+02  0.7816164E-02  0.1186339E+00
        -11   -1    0    0    0    0  0.00000000000E+00  0.00000000000E+00  0.45593999997E+02  0.45594000000E+02  0.51100000000E-03 0. -1.
         11   -1    0    0    0    0 -0.00000000000E+00 -0.00000000000E+00 -0.45593999997E+02  0.45594000000E+02  0.51100000000E-03 0.  1.
    9900012    2    1    2    0    0 -0.16592673755E-01  0.10044841353E+01 -0.61935438502E+00  0.90007803597E+02  0.90000065805E+02 0.  0.
         12    1    1    2    0    0  0.16592673755E-01 -0.10044841353E+01  0.61935438502E+00  0.11801964028E+01  0.00000000000E+00 0. -1.
         11    1    3    3    0    0  0.16098464232E+01 -0.27071930025E+01 -0.80653787558E+01  0.86585699855E+01  0.51100000000E-03 0. -1.
        -11    1    3    3    0    0  0.12545503775E+02  0.21407100606E+02 -0.29162233544E+02  0.38289548011E+02  0.51100000000E-03 0.  1.
         12    1    3    3    0    0 -0.14171942872E+02 -0.17695423468E+02  0.36608257915E+02  0.43059685601E+02  0.00000000000E+00 0. -1.
</event>
<event>
 7    1  0.4400431E-015  0.9000784E+02  0.7816164E-02  0.1186339E+00
        -11   -1    0    0    0    0  0.00000000000E+00  0.00000000000E+00  0.45593999997E+02  0.45594000000E+02  0.51100000000E-03 0. -1.
         11   -1    0    0    0    0 -0.00000000000E+00 -0.00000000000E+00 -0.45593999997E+02  0.45594000000E+02  0.51100000000E-03 0.  1.
    9900012    2    1    2    0    0  0.11126665214E+01  0.17528503737E+00 -0.35216354499E+00  0.90007842894E+02  0.90000105620E+02 0.  0.
         12    1    1    2    0    0 -0.11126665214E+01 -0.17528503737E+00  0.35216354499E+00  0.11801571058E+01  0.00000000000E+00 0. -1.
         11    1    3    3    0    0 -0.24684955681E+01  0.10648158388E+02 -0.11689958451E+02  0.16004120603E+02  0.51100000000E-03 0. -1.
        -11    1    3    3    0    0 -0.27253714364E+02  0.14212116377E+02 -0.52166251090E+01  0.31176311141E+02  0.51100000000E-03 0.  1.
         12    1    3    3    0    0  0.30834876454E+02 -0.24684989728E+02  0.16554420015E+02  0.42827411150E+02  0.00000000000E+00 0. -1.
</event>
<event>
 7    1  0.4400431E-015  0.9000766E+02  0.7816164E-02  0.1186339E+00
        -11   -1    0    0    0    0  0.00000000000E+00  0.00000000000E+00  0.45593999997E+02  0.45594000000E+02  0.51100000000E-03 0.  1.
         11   -1    0    0    0    0 -0.00000000000E+00 -0.00000000000E+00 -0.45593999997E+02  0.45594000000E+02  0.51100000000E-03 0. -1.
    9900012    2    1    2    0    0  0.95384805667E+00 -0.40406696517E+00  0.56578224376E+00  0.90007658619E+02  0.89999918913E+02 0.  0.
         12    1    1    2    0    0 -0.95384805667E+00  0.40406696517E+00 -0.56578224376E+00  0.11803413807E+01  0.00000000000E+00 0. -1.
         11    1    3    3    0    0  0.80090759104E+01 -0.70269782122E+00  0.57781753953E+01  0.99008278606E+01  0.51100000000E-03 0. -1.
        -11    1    3    3    0    0 -0.15858081772E+02 -0.11479485273E+02  0.33441628061E+02  0.38750481639E+02  0.51100000000E-03 0.  1.
         12    1    3    3    0    0  0.88028539180E+01  0.11778116129E+02 -0.38654021212E+02  0.41356349120E+02  0.00000000000E+00 0. -1.
</event>
<event>
 7    1  0.4400431E-015  0.9000772E+02  0.7816164E-02  0.1186339E+00
        -11   -1    0    0    0    0  0.00000000000E+00  0.00000000000E+00  0.45593999997E+02  0.45594000000E+02  0.51100000000E-03 0.  1.
         11   -1    0    0    0    0 -0.00000000000E+00 -0.00000000000E+00 -0.45593999997E+02  0.45594000000E+02  0.51100000000E-03 0. -1.
    9900012    2    1    2    0    0  0.11324425043E+01 -0.24003551151E+00  0.23025742233E+00  0.90007719714E+02  0.89999980815E+02 0.  0.
         12    1    1    2    0    0 -0.11324425043E+01  0.24003551151E+00 -0.23025742233E+00  0.11802802857E+01  0.00000000000E+00 0. -1.
         11    1    3    3    0    0  0.12903399069E+02 -0.39189809533E+02  0.50644148215E+01  0.41569065139E+02  0.51100000000E-03 0. -1.
        -11    1    3    3    0    0 -0.12629082236E+01  0.70860748690E+01  0.95289724762E+01  0.11941888919E+02  0.51100000000E-03 0.  1.
        -12    1    3    3    0    0 -0.10508048342E+02  0.31863699152E+02 -0.14363129875E+02  0.36496765657E+02  0.00000000000E+00 0.  1.
</event>
<event>
 7    1  0.4400431E-015  0.9000777E+02  0.7816164E-02  0.1186339E+00
        -11   -1    0    0    0    0  0.00000000000E+00  0.00000000000E+00  0.45593999997E+02  0.45594000000E+02  0.51100000000E-03 0.  1.
         11   -1    0    0    0    0 -0.00000000000E+00 -0.00000000000E+00 -0.45593999997E+02  0.45594000000E+02  0.51100000000E-03 0. -1.
    9900012    2    1    2    0    0  0.17156956919E+00  0.90542458180E+00  0.73737379007E+00  0.90007767016E+02  0.90000028741E+02 0.  0.
         12    1    1    2    0    0 -0.17156956919E+00 -0.90542458180E+00 -0.73737379007E+00  0.11802329841E+01  0.00000000000E+00 0. -1.
         11    1    3    3    0    0 -0.26627045011E+02  0.13624695069E+02  0.18735765117E+02  0.35293919257E+02  0.51100000000E-03 0. -1.
        -11    1    3    3    0    0  0.14262428948E+01  0.72451347932E+01  0.96892082613E+01  0.12182237231E+02  0.51100000000E-03 0.  1.
        -12    1    3    3    0    0  0.25372371686E+02 -0.19964405280E+02 -0.27687599588E+02  0.42531610528E+02  0.00000000000E+00 0.  1.
</event>
<event>
 7    1  0.5281214E-015  0.9000776E+02  0.7816164E-02  0.1186339E+00
        -11   -1    0    0    0    0  0.00000000000E+00  0.00000000000E+00  0.45593999997E+02  0.45594000000E+02  0.51100000000E-03 0. -1.
         11   -1    0    0    0    0 -0.00000000000E+00 -0.00000000000E+00 -0.45593999997E+02  0.45594000000E+02  0.51100000000E-03 0.  1.
    9900012    2    1    2    0    0  0.21139862113E+00  0.34503080057E+00 -0.11087041328E+01  0.90007762530E+02  0.90000024196E+02 0.  0.
         12    1    1    2    0    0 -0.21139862113E+00 -0.34503080057E+00  0.11087041328E+01  0.11802374696E+01  0.00000000000E+00 0. -1.
         11    1    3    3    0    0 -0.18336521307E+02  0.35021044674E+01  0.31931221468E+02  0.36987777089E+02  0.51100000000E-03 0. -1.
        -11    1    3    3    0    0  0.74664523589E+00  0.69285341560E+01  0.58355204751E+01  0.90892994304E+01  0.51100000000E-03 0.  1.
        -12    1    3    3    0    0  0.17801274692E+02 -0.10085607823E+02 -0.38875446076E+02  0.43930686011E+02  0.00000000000E+00 0.  1.
</event>
<event>
 7    1  0.4400431E-015  0.9000772E+02  0.7816164E-02  0.1186339E+00
        -11   -1    0    0    0    0  0.00000000000E+00  0.00000000000E+00  0.45593999997E+02  0.45594000000E+02  0.51100000000E-03 0.  1.
         11   -1    0    0    0    0 -0.00000000000E+00 -0.00000000000E+00 -0.45593999997E+02  0.45594000000E+02  0.51100000000E-03 0. -1.
    9900012    2    1    2    0    0 -0.18374674079E+00  0.11553513954E+01  0.15637230827E+00  0.90007723757E+02  0.89999984910E+02 0.  0.
         12    1    1    2    0    0  0.18374674079E+00 -0.11553513954E+01 -0.15637230827E+00  0.11802762433E+01  0.00000000000E+00 0. -1.
         11    1    3    3    0    0  0.11327482418E+02  0.30342648989E+01 -0.37709804278E+01  0.12318235062E+02  0.51100000000E-03 0. -1.
        -11    1    3    3    0    0  0.24004516490E+02  0.13107462801E+02  0.22014173456E+02  0.35109061882E+02  0.51100000000E-03 0.  1.
         12    1    3    3    0    0 -0.35515745649E+02 -0.14986376305E+02 -0.18086820720E+02  0.42580426812E+02  0.00000000000E+00 0. -1.
</event>
<event>
 7    1  0.4400431E-015  0.9000766E+02  0.7816164E-02  0.1186339E+00
        -11   -1    0    0    0    0  0.00000000000E+00  0.00000000000E+00  0.45593999997E+02  0.45594000000E+02  0.51100000000E-03 0.  1.
         11   -1    0    0    0    0 -0.00000000000E+00 -0.00000000000E+00 -0.45593999997E+02  0.45594000000E+02  0.51100000000E-03 0. -1.
    9900012    2    1    2    0    0 -0.47926132601E+00 -0.83407677653E+00  0.68397683833E+00  0.90007661149E+02  0.89999921476E+02 0.  0.
         12    1    1    2    0    0  0.47926132601E+00  0.83407677653E+00 -0.68397683833E+00  0.11803388510E+01  0.00000000000E+00 0. -1.
         11    1    3    3    0    0 -0.90852453646E+01  0.38896303545E+01 -0.14816423005E+01  0.99933063496E+01  0.51100000000E-03 0. -1.
        -11    1    3    3    0    0 -0.31426203318E+02  0.40314887580E+01 -0.15641242316E+02  0.35334227288E+02  0.51100000000E-03 0.  1.
         12    1    3    3    0    0  0.40032187356E+02 -0.87551958890E+01  0.17806861455E+02  0.44680127512E+02  0.00000000000E+00 0. -1.
</event>
<event>
 7    1  0.4400431E-015  0.9000772E+02  0.7816164E-02  0.1186339E+00
        -11   -1    0    0    0    0  0.00000000000E+00  0.00000000000E+00  0.45593999997E+02  0.45594000000E+02  0.51100000000E-03 0.  1.
         11   -1    0    0    0    0 -0.00000000000E+00 -0.00000000000E+00 -0.45593999997E+02  0.45594000000E+02  0.51100000000E-03 0. -1.
    9900012    2    1    2    0    0  0.96767847246E+00  0.25564154163E+00  0.62554461491E+00  0.90007720250E+02  0.89999981357E+02 0.  0.
         12    1    1    2    0    0 -0.96767847246E+00 -0.25564154163E+00 -0.62554461491E+00  0.11802797504E+01  0.00000000000E+00 0. -1.
         11    1    3    3    0    0 -0.83958034798E+01  0.16495349695E+01  0.36861963452E+01  0.93165726233E+01  0.51100000000E-03 0. -1.
        -11    1    3    3    0    0 -0.91746611029E+01  0.14826978728E+02  0.32822746293E+02  0.37166468476E+02  0.51100000000E-03 0.  1.
         12    1    3    3    0    0  0.18538143055E+02 -0.16220872156E+02 -0.35883398023E+02  0.43524679150E+02  0.00000000000E+00 0. -1.
</event>
<event>
 7    1  0.4400431E-015  0.9000777E+02  0.7816164E-02  0.1186339E+00
        -11   -1    0    0    0    0  0.00000000000E+00  0.00000000000E+00  0.45593999997E+02  0.45594000000E+02  0.51100000000E-03 0.  1.
         11   -1    0    0    0    0 -0.00000000000E+00 -0.00000000000E+00 -0.45593999997E+02  0.45594000000E+02  0.51100000000E-03 0. -1.
    9900012    2    1    2    0    0  0.66836514447E+00  0.93874898863E+00  0.25489278681E+00  0.90007774614E+02  0.90000036438E+02 0.  0.
         12    1    1    2    0    0 -0.66836514447E+00 -0.93874898863E+00 -0.25489278681E+00  0.11802253864E+01  0.00000000000E+00 0. -1.
         11    1    3    3    0    0 -0.36524022269E+01 -0.27960424657E+01  0.68336413602E+01  0.82375087252E+01  0.51100000000E-03 0. -1.
        -11    1    3    3    0    0 -0.34511099974E+02  0.14068251740E+02 -0.15902653332E+02  0.40519453497E+02  0.51100000000E-03 0.  1.
         12    1    3    3    0    0  0.38831867345E+02 -0.10333460286E+02  0.93239047587E+01  0.41250812391E+02  0.00000000000E+00 0. -1.
</event>
<event>
 7    1  0.4400431E-015  0.9000772E+02  0.7816164E-02  0.1186339E+00
        -11   -1    0    0    0    0  0.00000000000E+00  0.00000000000E+00  0.45593999997E+02  0.45594000000E+02  0.51100000000E-03 0.  1.
         11   -1    0    0    0    0 -0.00000000000E+00 -0.00000000000E+00 -0.45593999997E+02  0.45594000000E+02  0.51100000000E-03 0. -1.
    9900012    2    1    2    0    0  0.54297799796E+00  0.10160946507E+01 -0.25649659017E+00  0.90007718700E+02  0.89999979787E+02 0.  0.
         12    1    1    2    0    0 -0.54297799796E+00 -0.10160946507E+01  0.25649659017E+00  0.11802812996E+01  0.00000000000E+00 0. -1.
         11    1    3    3    0    0  0.51421271378E+01 -0.30550572640E+01 -0.10298064958E+02  0.11909029706E+02  0.51100000000E-03 0. -1.
        -11    1    3    3    0    0 -0.52920754865E+01 -0.36495559074E+02  0.46320461933E+01  0.37167024999E+02  0.51100000000E-03 0.  1.
         12    1    3    3    0    0  0.69292634675E+00  0.40566710988E+02  0.54095221746E+01  0.40931663996E+02  0.00000000000E+00 0. -1.
</event>
<event>
 7    1  0.4400431E-015  0.9000769E+02  0.7816164E-02  0.1186339E+00
        -11   -1    0    0    0    0  0.00000000000E+00  0.00000000000E+00  0.45593999997E+02  0.45594000000E+02  0.51100000000E-03 0. -1.
         11   -1    0    0    0    0 -0.00000000000E+00 -0.00000000000E+00 -0.45593999997E+02  0.45594000000E+02  0.51100000000E-03 0.  1.
    9900012    2    1    2    0    0  0.83470645028E+00 -0.36936334298E+00  0.74831708193E+00  0.90007685384E+02  0.89999946031E+02 0.  0.
         12    1    1    2    0    0 -0.83470645028E+00  0.36936334298E+00 -0.74831708193E+00  0.11803146158E+01  0.00000000000E+00 0. -1.
         11    1    3    3    0    0 -0.16749197094E+02 -0.19781837381E+02  0.24887899686E+02  0.35934165421E+02  0.51100000000E-03 0. -1.
        -11    1    3    3    0    0  0.67882609173E+00 -0.87989381750E+01  0.49911639128E+01  0.10138729473E+02  0.51100000000E-03 0.  1.
        -12    1    3    3    0    0  0.16905077453E+02  0.28211412213E+02 -0.29130746517E+02  0.43934790490E+02  0.00000000000E+00 0.  1.
</event>
<event>
 7    1  0.4400431E-015  0.9000777E+02  0.7816164E-02  0.1186339E+00
        -11   -1    0    0    0    0  0.00000000000E+00  0.00000000000E+00  0.45593999997E+02  0.45594000000E+02  0.51100000000E-03 0. -1.
         11   -1    0    0    0    0 -0.00000000000E+00 -0.00000000000E+00 -0.45593999997E+02  0.45594000000E+02  0.51100000000E-03 0.  1.
    9900012    2    1    2    0    0  0.83698383699E+00  0.56645039064E+00  0.60952787218E+00  0.90007774507E+02  0.90000036330E+02 0.  0.
         12    1    1    2    0    0 -0.83698383699E+00 -0.56645039064E+00 -0.60952787218E+00  0.11802254935E+01  0.00000000000E+00 0. -1.
         11    1    3    3    0    0  0.95676175458E+01  0.31624875939E+01 -0.24059736633E+01  0.10359987588E+02  0.51100000000E-03 0. -1.
        -11    1    3    3    0    0  0.12284628347E+02  0.28354676846E+02 -0.18965322790E+02  0.36257182205E+02  0.51100000000E-03 0.  1.
         12    1    3    3    0    0 -0.21015262056E+02 -0.30950714049E+02  0.21980824325E+02  0.43390604714E+02  0.00000000000E+00 0. -1.
</event>
<event>
 7    1  0.4400431E-015  0.9000775E+02  0.7816164E-02  0.1186339E+00
        -11   -1    0    0    0    0  0.00000000000E+00  0.00000000000E+00  0.45593999997E+02  0.45594000000E+02  0.51100000000E-03 0. -1.
         11   -1    0    0    0    0 -0.00000000000E+00 -0.00000000000E+00 -0.45593999997E+02  0.45594000000E+02  0.51100000000E-03 0.  1.
    9900012    2    1    2    0    0  0.63634645124E+00 -0.62806842443E+00 -0.77043948498E+00  0.90007752673E+02  0.90000014209E+02 0.  0.
         12    1    1    2    0    0 -0.63634645124E+00  0.62806842443E+00  0.77043948498E+00  0.11802473265E+01  0.00000000000E+00 0. -1.
         11    1    3    3    0    0  0.80016953764E+01 -0.36129754813E+02  0.38828156076E+01  0.37208366922E+02  0.51100000000E-03 0. -1.
        -11    1    3    3    0    0  0.76463145476E+01 -0.51661624696E+01 -0.13124130356E+01  0.93208255568E+01  0.51100000000E-03 0.  1.
        -12    1    3    3    0    0 -0.15011663473E+02  0.40667848858E+02 -0.33408420571E+01  0.43478560194E+02  0.00000000000E+00 0.  1.
</event>
<event>
 7    1  0.4400431E-015  0.9000766E+02  0.7816164E-02  0.1186339E+00
        -11   -1    0    0    0    0  0.00000000000E+00  0.00000000000E+00  0.45593999997E+02  0.45594000000E+02  0.51100000000E-03 0.  1.
         11   -1    0    0    0    0 -0.00000000000E+00 -0.00000000000E+00 -0.45593999997E+02  0.45594000000E+02  0.51100000000E-03 0. -1.
    9900012    2    1    2    0    0 -0.30588674124E+00 -0.10283641931E+01  0.49203014208E+00  0.90007663915E+02  0.89999924279E+02 0.  0.
         12    1    1    2    0    0  0.30588674124E+00  0.10283641931E+01 -0.49203014208E+00  0.11803360847E+01  0.00000000000E+00 0. -1.
         11    1    3    3    0    0  0.16433106323E+02  0.63690156287E+00  0.37661397409E+01  0.16871171739E+02  0.51100000000E-03 0. -1.
        -11    1    3    3    0    0 -0.24769978100E+02  0.20740531605E+02 -0.25046825877E+02  0.40878661342E+02  0.51100000000E-03 0.  1.
         12    1    3    3    0    0  0.80309850359E+01 -0.22405797361E+02  0.21772716278E+02  0.32257830835E+02  0.00000000000E+00 0. -1.
</event>
<event>
 7    1  0.4400431E-015  0.9000782E+02  0.7816164E-02  0.1186339E+00
        -11   -1    0    0    0    0  0.00000000000E+00  0.00000000000E+00  0.45593999997E+02  0.45594000000E+02  0.51100000000E-03 0. -1.
         11   -1    0    0    0    0 -0.00000000000E+00 -0.00000000000E+00 -0.45593999997E+02  0.45594000000E+02  0.51100000000E-03 0.  1.
    9900012    2    1    2    0    0  0.80673178519E+00 -0.30214025117E+00 -0.80666522713E+00  0.90007824719E+02  0.90000087206E+02 0.  0.
         12    1    1    2    0    0 -0.80673178519E+00  0.30214025117E+00  0.80666522713E+00  0.11801752807E+01  0.00000000000E+00 0. -1.
         11    1    3    3    0    0 -0.27896182085E+01 -0.30633072989E+01 -0.76540065949E+01  0.87034268293E+01  0.51100000000E-03 0. -1.
        -11    1    3    3    0    0 -0.41231436367E+01 -0.32606490656E+02 -0.17927889317E+02  0.37437851994E+02  0.51100000000E-03 0.  1.
         12    1    3    3    0    0  0.77194936304E+01  0.35367657704E+02  0.24775230684E+02  0.43866545896E+02  0.00000000000E+00 0. -1.
</event>
<event>
 7    1  0.4400431E-015  0.9000774E+02  0.7816164E-02  0.1186339E+00
        -11   -1    0    0    0    0  0.00000000000E+00  0.00000000000E+00  0.45593999997E+02  0.45594000000E+02  0.51100000000E-03 0.  1.
         11   -1    0    0    0    0 -0.00000000000E+00 -0.00000000000E+00 -0.45593999997E+02  0.45594000000E+02  0.51100000000E-03 0. -1.
    9900012    2    1    2    0    0 -0.11073580709E+01 -0.26151018729E+00 -0.31365050936E+00  0.90007743199E+02  0.90000004609E+02 0.  0.
         12    1    1    2    0    0  0.11073580709E+01  0.26151018729E+00  0.31365050936E+00  0.11802568014E+01  0.00000000000E+00 0. -1.
         11    1    3    3    0    0  0.44486007318E+01 -0.34088092173E+02  0.37862676856E+01  0.34585024211E+02  0.51100000000E-03 0. -1.
        -11    1    3    3    0    0 -0.66250298426E+00 -0.10231568702E+02  0.26319214534E+01  0.10585410673E+02  0.51100000000E-03 0.  1.
        -12    1    3    3    0    0 -0.48934558185E+01  0.44058150688E+02 -0.67318396484E+01  0.44837308315E+02  0.00000000000E+00 0.  1.
</event>
<event>
 7    1  0.4400431E-015  0.9000788E+02  0.7816164E-02  0.1186339E+00
        -11   -1    0    0    0    0  0.00000000000E+00  0.00000000000E+00  0.45593999997E+02  0.45594000000E+02  0.51100000000E-03 0. -1.
         11   -1    0    0    0    0 -0.00000000000E+00 -0.00000000000E+00 -0.45593999997E+02  0.45594000000E+02  0.51100000000E-03 0.  1.
    9900012    2    1    2    0    0  0.27464623460E+00  0.11432452246E+01 -0.10121744897E+00  0.90007879172E+02  0.90000142377E+02 0.  0.
         12    1    1    2    0    0 -0.27464623460E+00 -0.11432452246E+01  0.10121744897E+00  0.11801208284E+01  0.00000000000E+00 0. -1.
         11    1    3    3    0    0  0.15518542142E+01  0.15138165496E+01  0.16294324444E+02  0.16437910494E+02  0.51100000000E-03 0. -1.
        -11    1    3    3    0    0  0.22735487989E+02 -0.23370851716E+02 -0.22697000207E+02  0.39727231752E+02  0.51100000000E-03 0.  1.
         12    1    3    3    0    0 -0.24012695969E+02  0.23000280391E+02  0.63014583135E+01  0.33842736926E+02  0.00000000000E+00 0. -1.
</event>
<event>
 7    1  0.4400431E-015  0.9000771E+02  0.7816164E-02  0.1186339E+00
        -11   -1    0    0    0    0  0.00000000000E+00  0.00000000000E+00  0.45593999997E+02  0.45594000000E+02  0.51100000000E-03 0. -1.
         11   -1    0    0    0    0 -0.00000000000E+00 -0.00000000000E+00 -0.45593999997E+02  0.45594000000E+02  0.51100000000E-03 0.  1.
    9900012    2    1    2    0    0 -0.98428640054E+00  0.44221340163E+00  0.47823338610E+00  0.90007712076E+02  0.89999973076E+02 0.  0.
         12    1    1    2    0    0  0.98428640054E+00 -0.44221340163E+00 -0.47823338610E+00  0.11802879235E+01  0.00000000000E+00 0. -1.
         11    1    3    3    0    0 -0.24690673576E+02  0.32908685435E+02  0.13308603691E+02  0.43240373162E+02  0.51100000000E-03 0. -1.
        -11    1    3    3    0    0  0.10279857358E+02 -0.13390849315E+01  0.40736607770E+00  0.10374707858E+02  0.51100000000E-03 0.  1.
        -12    1    3    3    0    0  0.13426529818E+02 -0.31127387102E+02 -0.13237736382E+02  0.36392631057E+02  0.00000000000E+00 0.  1.
</event>
<event>
 7    1  0.4400431E-015  0.9000767E+02  0.7816164E-02  0.1186339E+00
        -11   -1    0    0    0    0  0.00000000000E+00  0.00000000000E+00  0.45593999997E+02  0.45594000000E+02  0.51100000000E-03 0. -1.
         11   -1    0    0    0    0 -0.00000000000E+00 -0.00000000000E+00 -0.45593999997E+02  0.45594000000E+02  0.51100000000E-03 0.  1.
    9900012    2    1    2    0    0  0.57783119849E+00  0.31763247879E+00 -0.97898285739E+00  0.90007666691E+02  0.89999927091E+02 0.  0.
         12    1    1    2    0    0 -0.57783119849E+00 -0.31763247879E+00  0.97898285739E+00  0.11803333091E+01  0.00000000000E+00 0. -1.
         11    1    3    3    0    0 -0.27614232020E+02  0.26727983292E+02 -0.16011817274E+02  0.41633030079E+02  0.51100000000E-03 0. -1.
        -11    1    3    3    0    0 -0.12244337115E+00  0.69658932901E+00  0.86276386150E+01  0.86565800062E+01  0.51100000000E-03 0.  1.
        -12    1    3    3    0    0  0.28314506589E+02 -0.27106940142E+02  0.64051958014E+01  0.39718056606E+02  0.00000000000E+00 0.  1.
</event>
<event>
 7    1  0.4400431E-015  0.9000778E+02  0.7816164E-02  0.1186339E+00
        -11   -1    0    0    0    0  0.00000000000E+00  0.00000000000E+00  0.45593999997E+02  0.45594000000E+02  0.51100000000E-03 0.  1.
         11   -1    0    0    0    0 -0.00000000000E+00 -0.00000000000E+00 -0.45593999997E+02  0.45594000000E+02  0.51100000000E-03 0. -1.
    9900012    2    1    2    0    0  0.88646310953E+00  0.77396810185E+00 -0.89888928895E-01  0.90007778204E+02  0.90000040077E+02 0.  0.
         12    1    1    2    0    0 -0.88646310953E+00 -0.77396810185E+00  0.89888928895E-01  0.11802217956E+01  0.00000000000E+00 0. -1.
         11    1    3    3    0    0  0.25279318965E+02  0.19085471887E+02 -0.17945820144E+02  0.36405379622E+02  0.51100000000E-03 0. -1.
        -11    1    3    3    0    0  0.13526356673E+01  0.48930486327E+01 -0.86089247142E+01  0.99942550080E+01  0.51100000000E-03 0.  1.
        -12    1    3    3    0    0 -0.25745491523E+02 -0.23204552418E+02  0.26464855930E+02  0.43608143575E+02  0.00000000000E+00 0.  1.
</event>
<event>
 7    1  0.4400431E-015  0.9000774E+02  0.7816164E-02  0.1186339E+00
        -11   -1    0    0    0    0  0.00000000000E+00  0.00000000000E+00  0.45593999997E+02  0.45594000000E+02  0.51100000000E-03 0. -1.
         11   -1    0    0    0    0 -0.00000000000E+00 -0.00000000000E+00 -0.45593999997E+02  0.45594000000E+02  0.51100000000E-03 0.  1.
    9900012    2    1    2    0    0 -0.86901993934E+00 -0.43711634549E+00 -0.66839685991E+00  0.90007737014E+02  0.89999998342E+02 0.  0.
         12    1    1    2    0    0  0.86901993934E+00  0.43711634549E+00  0.66839685991E+00  0.11802629863E+01  0.00000000000E+00 0. -1.
         11    1    3    3    0    0  0.24551060145E+02  0.47252725023E+01  0.77453044486E+01  0.26173889580E+02  0.51100000000E-03 0. -1.
        -11    1    3    3    0    0  0.56163724993E+01  0.16219030407E+02 -0.18075690040E+02  0.24926515161E+02  0.51100000000E-03 0.  1.
        -12    1    3    3    0    0 -0.31036452584E+02 -0.21381419255E+02  0.96619887314E+01  0.38907332273E+02  0.00000000000E+00 0.  1.
</event>
<event>
 7    1  0.4400431E-015  0.9000776E+02  0.7816164E-02  0.1186339E+00
        -11   -1    0    0    0    0  0.00000000000E+00  0.00000000000E+00  0.45593999997E+02  0.45594000000E+02  0.51100000000E-03 0.  1.
         11   -1    0    0    0    0 -0.00000000000E+00 -0.00000000000E+00 -0.45593999997E+02  0.45594000000E+02  0.51100000000E-03 0. -1.
    9900012    2    1    2    0    0 -0.66502488349E+00 -0.65246597520E+00 -0.72457416909E+00  0.90007755250E+02  0.90000016819E+02 0.  0.
         12    1    1    2    0    0  0.66502488349E+00  0.65246597520E+00  0.72457416909E+00  0.11802447505E+01  0.00000000000E+00 0. -1.
         11    1    3    3    0    0  0.64362741700E+01 -0.74780954569E+00 -0.56540775859E+01  0.85996184751E+01  0.51100000000E-03 0. -1.
        -11    1    3    3    0    0  0.36398205121E+02 -0.63489673720E+01 -0.14352389269E+01  0.36975649200E+02  0.51100000000E-03 0.  1.
         12    1    3    3    0    0 -0.43499504175E+02  0.64443109425E+01  0.63647423438E+01  0.44432487574E+02  0.00000000000E+00 0. -1.
</event>
<event>
 7    1  0.4400431E-015  0.9000774E+02  0.7816164E-02  0.1186339E+00
        -11   -1    0    0    0    0  0.00000000000E+00  0.00000000000E+00  0.45593999997E+02  0.45594000000E+02  0.51100000000E-03 0. -1.
         11   -1    0    0    0    0 -0.00000000000E+00 -0.00000000000E+00 -0.45593999997E+02  0.45594000000E+02  0.51100000000E-03 0.  1.
    9900012    2    1    2    0    0 -0.10640022919E+01 -0.42213501833E+00 -0.28762011311E+00  0.90007735546E+02  0.89999996856E+02 0.  0.
         12    1    1    2    0    0  0.10640022919E+01  0.42213501833E+00  0.28762011311E+00  0.11802644536E+01  0.00000000000E+00 0. -1.
         11    1    3    3    0    0  0.57511872882E+01  0.80399370682E+01 -0.11050680902E+02  0.14826809905E+02  0.51100000000E-03 0. -1.
        -11    1    3    3    0    0 -0.24220131400E+02  0.25974921293E+02  0.85636249564E+01  0.36532820503E+02  0.51100000000E-03 0.  1.
         12    1    3    3    0    0  0.17404941820E+02 -0.34436993380E+02  0.21994358330E+01  0.38648105139E+02  0.00000000000E+00 0. -1.
</event>
<event>
 7    1  0.4400431E-015  0.9000778E+02  0.7816164E-02  0.1186339E+00
        -11   -1    0    0    0    0  0.00000000000E+00  0.00000000000E+00  0.45593999997E+02  0.45594000000E+02  0.51100000000E-03 0.  1.
         11   -1    0    0    0    0 -0.00000000000E+00 -0.00000000000E+00 -0.45593999997E+02  0.45594000000E+02  0.51100000000E-03 0. -1.
    9900012    2    1    2    0    0 -0.79823670264E+00  0.86584375288E+00 -0.77752714435E-01  0.90007782765E+02  0.90000044697E+02 0.  0.
         12    1    1    2    0    0  0.79823670264E+00 -0.86584375288E+00  0.77752714435E-01  0.11802172353E+01  0.00000000000E+00 0. -1.
         11    1    3    3    0    0  0.61172599861E+01  0.37933674756E+02 -0.10075339064E+02  0.39722751764E+02  0.51100000000E-03 0. -1.
        -11    1    3    3    0    0  0.97536880393E+01 -0.13705823937E+01  0.27536984686E+01  0.10227207927E+02  0.51100000000E-03 0.  1.
        -12    1    3    3    0    0 -0.16669184728E+02 -0.35697248609E+02  0.72438878809E+01  0.40057823073E+02  0.00000000000E+00 0.  1.
</event>
<event>
 7    1  0.4400431E-015  0.9000765E+02  0.7816164E-02  0.1186339E+00
        -11   -1    0    0    0    0  0.00000000000E+00  0.00000000000E+00  0.45593999997E+02  0.45594000000E+02  0.51100000000E-03 0.  1.
         11   -1    0    0    0    0 -0.00000000000E+00 -0.00000000000E+00 -0.45593999997E+02  0.45594000000E+02  0.51100000000E-03 0. -1.
    9900012    2    1    2    0    0 -0.54703541400E+00 -0.23194469904E+00  0.10198887432E+01  0.90007652959E+02  0.89999913178E+02 0.  0.
         12    1    1    2    0    0  0.54703541400E+00  0.23194469904E+00 -0.10198887432E+01  0.11803470405E+01  0.00000000000E+00 0. -1.
         11    1    3    3    0    0  0.82269929334E+01 -0.98335682912E+01  0.19436503006E+01  0.12967661887E+02  0.51100000000E-03 0. -1.
        -11    1    3    3    0    0 -0.17161482601E+02  0.27594757289E+02  0.27363110422E+02  0.42482077717E+02  0.51100000000E-03 0.  1.
         12    1    3    3    0    0  0.83874542537E+01 -0.17993133697E+02 -0.28286871980E+02  0.34557913356E+02  0.00000000000E+00 0. -1.
</event>
<event>
 7    1  0.4400431E-015  0.9000773E+02  0.7816164E-02  0.1186339E+00
        -11   -1    0    0    0    0  0.00000000000E+00  0.00000000000E+00  0.45593999997E+02  0.45594000000E+02  0.51100000000E-03 0. -1.
         11   -1    0    0    0    0 -0.00000000000E+00 -0.00000000000E+00 -0.45593999997E+02  0.45594000000E+02  0.51100000000E-03 0.  1.
    9900012    2    1    2    0    0 -0.99088635232E+00  0.58547727616E+00 -0.26153726007E+00  0.90007728361E+02  0.89999989575E+02 0.  0.
         12    1    1    2    0    0  0.99088635232E+00 -0.58547727616E+00  0.26153726007E+00  0.11802716393E+01  0.00000000000E+00 0. -1.
         11    1    3    3    0    0  0.10307301207E+02  0.55305257901E+01  0.39037759390E+02  0.40752592950E+02  0.51100000000E-03 0. -1.
        -11    1    3    3    0    0  0.67924663157E+01  0.39957369000E+01 -0.46282235212E+01  0.91391446672E+01  0.51100000000E-03 0.  1.
        -12    1    3    3    0    0 -0.18090653875E+02 -0.89407854139E+01 -0.34671073129E+02  0.40115990744E+02  0.00000000000E+00 0.  1.
</event>
<event>
 7    1  0.4400431E-015  0.9000781E+02  0.7816164E-02  0.1186339E+00
        -11   -1    0    0    0    0  0.00000000000E+00  0.00000000000E+00  0.45593999997E+02  0.45594000000E+02  0.51100000000E-03 0. -1.
         11   -1    0    0    0    0 -0.00000000000E+00 -0.00000000000E+00 -0.45593999997E+02  0.45594000000E+02  0.51100000000E-03 0.  1.
    9900012    2    1    2    0    0  0.40879653594E+00 -0.10971030993E+01 -0.14869106494E+00  0.90007805588E+02  0.90000067821E+02 0.  0.
         12    1    1    2    0    0 -0.40879653594E+00  0.10971030993E+01  0.14869106494E+00  0.11801944124E+01  0.00000000000E+00 0. -1.
         11    1    3    3    0    0 -0.12742863972E+02 -0.12564145217E+01  0.92912620657E+01  0.15820452291E+02  0.51100000000E-03 0. -1.
        -11    1    3    3    0    0 -0.20465010098E+02 -0.22835517524E+02 -0.12994447204E+02  0.33303650810E+02  0.51100000000E-03 0.  1.
         12    1    3    3    0    0  0.33616670606E+02  0.22994828946E+02  0.35544940729E+01  0.40883702487E+02  0.00000000000E+00 0. -1.
</event>
<event>
 7    1  0.4400431E-015  0.9000767E+02  0.7816164E-02  0.1186339E+00
        -11   -1    0    0    0    0  0.00000000000E+00  0.00000000000E+00  0.45593999997E+02  0.45594000000E+02  0.51100000000E-03 0.  1.
         11   -1    0    0    0    0 -0.00000000000E+00 -0.00000000000E+00 -0.45593999997E+02  0.45594000000E+02  0.51100000000E-03 0. -1.
    9900012    2    1    2    0    0 -0.90125935347E+00 -0.27288516709E+00 -0.71164570917E+00  0.90007671930E+02  0.89999932400E+02 0.  0.
         12    1    1    2    0    0  0.90125935347E+00  0.27288516709E+00  0.71164570917E+00  0.11803280697E+01  0.00000000000E+00 0. -1.
         11    1    3    3    0    0 -0.35879608588E+02 -0.11940540969E+02 -0.93602100552E+01  0.38955569096E+02  0.51100000000E-03 0. -1.
        -11    1    3    3    0    0 -0.27150391563E+01 -0.28309687800E+01  0.98982401986E+01  0.10647111399E+02  0.51100000000E-03 0.  1.
        -12    1    3    3    0    0  0.37693388391E+02  0.14498624582E+02 -0.12496758526E+01  0.40404991435E+02  0.00000000000E+00 0.  1.
</event>
<event>
 7    1  0.4400431E-015  0.9000775E+02  0.7816164E-02  0.1186339E+00
        -11   -1    0    0    0    0  0.00000000000E+00  0.00000000000E+00  0.45593999997E+02  0.45594000000E+02  0.51100000000E-03 0.  1.
         11   -1    0    0    0    0 -0.00000000000E+00 -0.00000000000E+00 -0.45593999997E+02  0.45594000000E+02  0.51100000000E-03 0. -1.
    9900012    2    1    2    0    0  0.10274498117E+01  0.43985137691E+00 -0.37928348861E+00  0.90007754977E+02  0.90000016543E+02 0.  0.
         12    1    1    2    0    0 -0.10274498117E+01 -0.43985137691E+00  0.37928348861E+00  0.11802450229E+01  0.00000000000E+00 0. -1.
         11    1    3    3    0    0 -0.38317916352E+01 -0.81462277697E+01 -0.20474808268E+01  0.92323253847E+01  0.51100000000E-03 0. -1.
        -11    1    3    3    0    0 -0.18032057622E+02 -0.24944426564E+02  0.19495761719E+02  0.36434382717E+02  0.51100000000E-03 0.  1.
         12    1    3    3    0    0  0.22891299068E+02  0.33530505711E+02 -0.17827564381E+02  0.44341046876E+02  0.00000000000E+00 0. -1.
</event>
<event>
 7    1  0.4400431E-015  0.9000778E+02  0.7816164E-02  0.1186339E+00
        -11   -1    0    0    0    0  0.00000000000E+00  0.00000000000E+00  0.45593999997E+02  0.45594000000E+02  0.51100000000E-03 0.  1.
         11   -1    0    0    0    0 -0.00000000000E+00 -0.00000000000E+00 -0.45593999997E+02  0.45594000000E+02  0.51100000000E-03 0. -1.
    9900012    2    1    2    0    0  0.51423504270E-01 -0.69130555007E-01  0.11770754604E+01  0.90007775424E+02  0.90000037260E+02 0.  0.
         12    1    1    2    0    0 -0.51423504270E-01  0.69130555007E-01 -0.11770754604E+01  0.11802245761E+01  0.00000000000E+00 0. -1.
         11    1    3    3    0    0  0.13645142081E+02  0.30900601857E+02 -0.12677489844E+01  0.33803021836E+02  0.51100000000E-03 0. -1.
        -11    1    3    3    0    0  0.11761861256E+02 -0.22598592617E+02 -0.91835061665E+01  0.27080889096E+02  0.51100000000E-03 0.  1.
        -12    1    3    3    0    0 -0.25355579833E+02 -0.83711397941E+01  0.11628330611E+02  0.29123864491E+02  0.00000000000E+00 0.  1.
</event>
<event>
 7    1  0.4400431E-015  0.9000775E+02  0.7816164E-02  0.1186339E+00
        -11   -1    0    0    0    0  0.00000000000E+00  0.00000000000E+00  0.45593999997E+02  0.45594000000E+02  0.51100000000E-03 0.  1.
         11   -1    0    0    0    0 -0.00000000000E+00 -0.00000000000E+00 -0.45593999997E+02  0.45594000000E+02  0.51100000000E-03 0. -1.
    9900012    2    1    2    0    0 -0.77675190916E+00 -0.87285647190E+00  0.16665326850E+00  0.90007747798E+02  0.90000009269E+02 0.  0.
         12    1    1    2    0    0  0.77675190916E+00  0.87285647190E+00 -0.16665326850E+00  0.11802522022E+01  0.00000000000E+00 0. -1.
         11    1    3    3    0    0  0.92845257621E+01  0.24678276498E+01 -0.90377104510E+00  0.96493209243E+01  0.51100000000E-03 0. -1.
        -11    1    3    3    0    0  0.11291381216E+02 -0.10970150263E+02  0.35670724379E+02  0.38990256020E+02  0.51100000000E-03 0.  1.
         12    1    3    3    0    0 -0.21352658887E+02  0.76294661409E+01 -0.34600300065E+02  0.41368170853E+02  0.00000000000E+00 0. -1.
</event>
<event>
 7    1  0.4400431E-015  0.9000778E+02  0.7816164E-02  0.1186339E+00
        -11   -1    0    0    0    0  0.00000000000E+00  0.00000000000E+00  0.45593999997E+02  0.45594000000E+02  0.51100000000E-03 0. -1.
         11   -1    0    0    0    0 -0.00000000000E+00 -0.00000000000E+00 -0.45593999997E+02  0.45594000000E+02  0.51100000000E-03 0.  1.
    9900012    2    1    2    0    0  0.84769505518E+00  0.45099043752E+00 -0.68624643292E+00  0.90007782457E+02  0.90000044386E+02 0.  0.
         12    1    1    2    0    0 -0.84769505518E+00 -0.45099043752E+00  0.68624643292E+00  0.11802175427E+01  0.00000000000E+00 0. -1.
         11    1    3    3    0    0 -0.29201661953E+02  0.96600163720E+01 -0.13207107748E+02  0.33473581709E+02  0.51100000000E-03 0. -1.
        -11    1    3    3    0    0 -0.41207247197E+01  0.21864846917E+01 -0.12056848166E+02  0.12927825629E+02  0.51100000000E-03 0.  1.
        -12    1    3    3    0    0  0.34170081728E+02 -0.11395510626E+02  0.24577709481E+02  0.43606375119E+02  0.00000000000E+00 0.  1.
</event>
<event>
 7    1  0.4400431E-015  0.9000766E+02  0.7816164E-02  0.1186339E+00
        -11   -1    0    0    0    0  0.00000000000E+00  0.00000000000E+00  0.45593999997E+02  0.45594000000E+02  0.51100000000E-03 0.  1.
         11   -1    0    0    0    0 -0.00000000000E+00 -0.00000000000E+00 -0.45593999997E+02  0.45594000000E+02  0.51100000000E-03 0. -1.
    9900012    2    1    2    0    0 -0.89524741651E+00  0.54786698154E+00 -0.53996808307E+00  0.90007664583E+02  0.89999924955E+02 0.  0.
         12    1    1    2    0    0  0.89524741651E+00 -0.54786698154E+00  0.53996808307E+00  0.11803354171E+01  0.00000000000E+00 0. -1.
         11    1    3    3    0    0  0.21979104639E+01  0.70614909742E+01  0.61983505071E+01  0.96496121402E+01  0.51100000000E-03 0. -1.
        -11    1    3    3    0    0 -0.84744741719E+01 -0.28851162024E+02  0.26412748721E+02  0.40022987868E+02  0.51100000000E-03 0.  1.
         12    1    3    3    0    0  0.53813162915E+01  0.22337538031E+02 -0.33151067312E+02  0.40335064574E+02  0.00000000000E+00 0. -1.
</event>
<event>
 7    1  0.4400431E-015  0.9000777E+02  0.7816164E-02  0.1186339E+00
        -11   -1    0    0    0    0  0.00000000000E+00  0.00000000000E+00  0.45593999997E+02  0.45594000000E+02  0.51100000000E-03 0.  1.
         11   -1    0    0    0    0 -0.00000000000E+00 -0.00000000000E+00 -0.45593999997E+02  0.45594000000E+02  0.51100000000E-03 0. -1.
    9900012    2    1    2    0    0 -0.61094087796E+00  0.81269189609E+00  0.59935520578E+00  0.90007769710E+02  0.90000031470E+02 0.  0.
         12    1    1    2    0    0  0.61094087796E+00 -0.81269189609E+00 -0.59935520578E+00  0.11802302898E+01  0.00000000000E+00 0. -1.
         11    1    3    3    0    0  0.11599974952E+02 -0.14979711759E+02 -0.30905505787E+02  0.36250537534E+02  0.51100000000E-03 0. -1.
        -11    1    3    3    0    0  0.75025470767E+01  0.22323050193E+01 -0.55874810704E+01  0.96172419805E+01  0.51100000000E-03 0.  1.
        -12    1    3    3    0    0 -0.19713462906E+02  0.13560098636E+02  0.37092342063E+02  0.44139990196E+02  0.00000000000E+00 0.  1.
</event>
<event>
 7    1  0.4400431E-015  0.9000779E+02  0.7816164E-02  0.1186339E+00
        -11   -1    0    0    0    0  0.00000000000E+00  0.00000000000E+00  0.45593999997E+02  0.45594000000E+02  0.51100000000E-03 0.  1.
         11   -1    0    0    0    0 -0.00000000000E+00 -0.00000000000E+00 -0.45593999997E+02  0.45594000000E+02  0.51100000000E-03 0. -1.
    9900012    2    1    2    0    0 -0.13137573846E-01 -0.11792146591E+01  0.46552049312E-01  0.90007793704E+02  0.90000055781E+02 0.  0.
         12    1    1    2    0    0  0.13137573846E-01  0.11792146591E+01 -0.46552049312E-01  0.11802062961E+01  0.00000000000E+00 0. -1.
         11    1    3    3    0    0 -0.38878109371E+01 -0.24492696573E+02 -0.49968347071E+01  0.25297739358E+02  0.51100000000E-03 0. -1.
        -11    1    3    3    0    0 -0.18495974272E+02 -0.62811913038E+01 -0.12992555235E+02  0.23459772383E+02  0.51100000000E-03 0.  1.
         12    1    3    3    0    0  0.22370647635E+02  0.29594673218E+02  0.18035941992E+02  0.41250281963E+02  0.00000000000E+00 0. -1.
</event>
<event>
 7    1  0.4400431E-015  0.9000765E+02  0.7816164E-02  0.1186339E+00
        -11   -1    0    0    0    0  0.00000000000E+00  0.00000000000E+00  0.45593999997E+02  0.45594000000E+02  0.51100000000E-03 0.  1.
         11   -1    0    0    0    0 -0.00000000000E+00 -0.00000000000E+00 -0.45593999997E+02  0.45594000000E+02  0.51100000000E-03 0. -1.
    9900012    2    1    2    0    0  0.76705657354E+00  0.87548967898E+00  0.19588143170E+00  0.90007649416E+02  0.89999909589E+02 0.  0.
         12    1    1    2    0    0 -0.76705657354E+00 -0.87548967898E+00 -0.19588143170E+00  0.11803505836E+01  0.00000000000E+00 0. -1.
         11    1    3    3    0    0 -0.48179948116E+01  0.21853089604E+02 -0.32963739207E+02  0.39841921415E+02  0.51100000000E-03 0. -1.
        -11    1    3    3    0    0 -0.41948911843E+01  0.66837237039E+01  0.10282488899E+02  0.12961437144E+02  0.51100000000E-03 0.  1.
        -12    1    3    3    0    0  0.97799425695E+01 -0.27661323629E+02  0.22877131740E+02  0.37204290858E+02  0.00000000000E+00 0.  1.
</event>
<event>
 7    1  0.4400431E-015  0.9000776E+02  0.7816164E-02  0.1186339E+00
        -11   -1    0    0    0    0  0.00000000000E+00  0.00000000000E+00  0.45593999997E+02  0.45594000000E+02  0.51100000000E-03 0.  1.
         11   -1    0    0    0    0 -0.00000000000E+00 -0.00000000000E+00 -0.45593999997E+02  0.45594000000E+02  0.51100000000E-03 0. -1.
    9900012    2    1    2    0    0 -0.10164099490E+01  0.43481323363E+00  0.41330338562E+00  0.90007757897E+02  0.90000019502E+02 0.  0.
         12    1    1    2    0    0  0.10164099490E+01 -0.43481323363E+00 -0.41330338562E+00  0.11802421027E+01  0.00000000000E+00 0. -1.
         11    1    3    3    0    0  0.41507660042E+01  0.25335284902E+01 -0.75447344541E+01  0.89761151550E+01  0.51100000000E-03 0. -1.
        -11    1    3    3    0    0 -0.10195771003E+02 -0.40530254017E+02  0.60172339290E+01  0.42223954593E+02  0.51100000000E-03 0.  1.
         12    1    3    3    0    0  0.50285950496E+01  0.38431538761E+02  0.19408039108E+01  0.38807688149E+02  0.00000000000E+00 0. -1.
</event>
<event>
 7    1  0.4400431E-015  0.9000772E+02  0.7816164E-02  0.1186339E+00
        -11   -1    0    0    0    0  0.00000000000E+00  0.00000000000E+00  0.45593999997E+02  0.45594000000E+02  0.51100000000E-03 0.  1.
         11   -1    0    0    0    0 -0.00000000000E+00 -0.00000000000E+00 -0.45593999997E+02  0.45594000000E+02  0.51100000000E-03 0. -1.
    9900012    2    1    2    0    0 -0.70283391165E+00 -0.81279216449E+00  0.48831445150E+00  0.90007721383E+02  0.89999982505E+02 0.  0.
         12    1    1    2    0    0  0.70283391165E+00  0.81279216449E+00 -0.48831445150E+00  0.11802786169E+01  0.00000000000E+00 0. -1.
         11    1    3    3    0    0  0.18208713110E+01 -0.43364854311E+01  0.83049539733E+01  0.95442620974E+01  0.51100000000E-03 0. -1.
        -11    1    3    3    0    0 -0.27096999890E+02  0.28473942572E+02 -0.19059081829E+02  0.43683651507E+02  0.51100000000E-03 0.  1.
         12    1    3    3    0    0  0.24573294667E+02 -0.24950249305E+02  0.11242442307E+02  0.36779807778E+02  0.00000000000E+00 0. -1.
</event>
<event>
 7    1  0.4400431E-015  0.9000783E+02  0.7816164E-02  0.1186339E+00
        -11   -1    0    0    0    0  0.00000000000E+00  0.00000000000E+00  0.45593999997E+02  0.45594000000E+02  0.51100000000E-03 0. -1.
         11   -1    0    0    0    0 -0.00000000000E+00 -0.00000000000E+00 -0.45593999997E+02  0.45594000000E+02  0.51100000000E-03 0.  1.
    9900012    2    1    2    0    0 -0.78020342254E+00  0.76692855110E+00 -0.44261495062E+00  0.90007828497E+02  0.90000091033E+02 0.  0.
         12    1    1    2    0    0  0.78020342254E+00 -0.76692855110E+00  0.44261495062E+00  0.11801715034E+01  0.00000000000E+00 0. -1.
         11    1    3    3    0    0  0.30761638183E+01 -0.32882637374E+01 -0.56511455973E+01  0.72257116651E+01  0.51100000000E-03 0. -1.
        -11    1    3    3    0    0 -0.20977749557E+02  0.15245641425E+02 -0.31474716773E+02  0.40781777243E+02  0.51100000000E-03 0.  1.
         12    1    3    3    0    0  0.17121382316E+02 -0.11190449137E+02  0.36683247419E+02  0.42000339588E+02  0.00000000000E+00 0. -1.
</event>
<event>
 7    1  0.4400431E-015  0.9000778E+02  0.7816164E-02  0.1186339E+00
        -11   -1    0    0    0    0  0.00000000000E+00  0.00000000000E+00  0.45593999997E+02  0.45594000000E+02  0.51100000000E-03 0.  1.
         11   -1    0    0    0    0 -0.00000000000E+00 -0.00000000000E+00 -0.45593999997E+02  0.45594000000E+02  0.51100000000E-03 0. -1.
    9900012    2    1    2    0    0 -0.82522768245E+00 -0.72725677618E+00  0.42780180493E+00  0.90007780728E+02  0.90000042633E+02 0.  0.
         12    1    1    2    0    0  0.82522768245E+00  0.72725677618E+00 -0.42780180493E+00  0.11802192723E+01  0.00000000000E+00 0. -1.
         11    1    3    3    0    0  0.29279558957E+01  0.44144845682E+01 -0.92572518362E+01  0.10665707269E+02  0.51100000000E-03 0. -1.
        -11    1    3    3    0    0 -0.32711661654E+02  0.21701893968E+02  0.53368934578E+01  0.39617009504E+02  0.51100000000E-03 0.  1.
         12    1    3    3    0    0  0.28958478076E+02 -0.26843635313E+02  0.43481601833E+01  0.39725063955E+02  0.00000000000E+00 0. -1.
</event>
<event>
 7    1  0.4400431E-015  0.9000772E+02  0.7816164E-02  0.1186339E+00
        -11   -1    0    0    0    0  0.00000000000E+00  0.00000000000E+00  0.45593999997E+02  0.45594000000E+02  0.51100000000E-03 0.  1.
         11   -1    0    0    0    0 -0.00000000000E+00 -0.00000000000E+00 -0.45593999997E+02  0.45594000000E+02  0.51100000000E-03 0. -1.
    9900012    2    1    2    0    0 -0.46801630419E+00 -0.10607867919E+01  0.22077711187E+00  0.90007724434E+02  0.89999985596E+02 0.  0.
         12    1    1    2    0    0  0.46801630419E+00  0.10607867919E+01 -0.22077711187E+00  0.11802755661E+01  0.00000000000E+00 0. -1.
         11    1    3    3    0    0 -0.81375030348E+01 -0.46525478780E+01  0.56948798376E+01  0.10967990428E+02  0.51100000000E-03 0. -1.
        -11    1    3    3    0    0 -0.16611867203E+02  0.24202529001E+02  0.22233738562E+02  0.36824661203E+02  0.51100000000E-03 0.  1.
         12    1    3    3    0    0  0.24281353934E+02 -0.20610767915E+02 -0.27707841288E+02  0.42215072803E+02  0.00000000000E+00 0. -1.
</event>
<event>
 7    1  0.4400431E-015  0.9000776E+02  0.7816164E-02  0.1186339E+00
        -11   -1    0    0    0    0  0.00000000000E+00  0.00000000000E+00  0.45593999997E+02  0.45594000000E+02  0.51100000000E-03 0.  1.
         11   -1    0    0    0    0 -0.00000000000E+00 -0.00000000000E+00 -0.45593999997E+02  0.45594000000E+02  0.51100000000E-03 0. -1.
    9900012    2    1    2    0    0 -0.87292011541E+00 -0.15864102494E+00  0.77833382979E+00  0.90007762713E+02  0.90000024381E+02 0.  0.
         12    1    1    2    0    0  0.87292011541E+00  0.15864102494E+00 -0.77833382979E+00  0.11802372869E+01  0.00000000000E+00 0. -1.
         11    1    3    3    0    0  0.26484972692E+02 -0.64141069390E+01  0.27247357999E+02  0.38535867247E+02  0.51100000000E-03 0. -1.
        -11    1    3    3    0    0  0.32727304870E+01  0.11077681707E+02 -0.14748182366E+01  0.11644779342E+02  0.51100000000E-03 0.  1.
        -12    1    3    3    0    0 -0.30630623294E+02 -0.48222157925E+01 -0.24994205932E+02  0.39827116124E+02  0.00000000000E+00 0.  1.
</event>
<event>
 7    1  0.4400431E-015  0.9000774E+02  0.7816164E-02  0.1186339E+00
        -11   -1    0    0    0    0  0.00000000000E+00  0.00000000000E+00  0.45593999997E+02  0.45594000000E+02  0.51100000000E-03 0.  1.
         11   -1    0    0    0    0 -0.00000000000E+00 -0.00000000000E+00 -0.45593999997E+02  0.45594000000E+02  0.51100000000E-03 0. -1.
    9900012    2    1    2    0    0 -0.40273310671E+00  0.21903427257E+00  0.10875883892E+01  0.90007737965E+02  0.89999999306E+02 0.  0.
         12    1    1    2    0    0  0.40273310671E+00 -0.21903427257E+00 -0.10875883892E+01  0.11802620354E+01  0.00000000000E+00 0. -1.
         11    1    3    3    0    0 -0.57865278660E+01  0.22099975133E+02 -0.28927685585E+02  0.36860599550E+02  0.51100000000E-03 0. -1.
        -11    1    3    3    0    0 -0.28696130186E+01  0.11634167504E+00 -0.79763590589E+01  0.84776481620E+01  0.51100000000E-03 0.  1.
        -12    1    3    3    0    0  0.82534077779E+01 -0.21997282535E+02  0.37991633033E+02  0.44669490253E+02  0.00000000000E+00 0.  1.
</event>
<event>
 7    1  0.4400431E-015  0.9000752E+02  0.7816164E-02  0.1186339E+00
        -11   -1    0    0    0    0  0.00000000000E+00  0.00000000000E+00  0.45593999997E+02  0.45594000000E+02  0.51100000000E-03 0. -1.
         11   -1    0    0    0    0 -0.00000000000E+00 -0.00000000000E+00 -0.45593999997E+02  0.45594000000E+02  0.51100000000E-03 0.  1.
    9900012    2    1    2    0    0 -0.17999704406E+00 -0.10028488536E+01 -0.59617044930E+00  0.90007523840E+02  0.89999782355E+02 0.  0.
         12    1    1    2    0    0  0.17999704406E+00  0.10028488536E+01  0.59617044930E+00  0.11804761597E+01  0.00000000000E+00 0. -1.
         11    1    3    3    0    0  0.65016667402E+00 -0.95114701978E+01  0.16194941647E+01  0.96702401024E+01  0.51100000000E-03 0. -1.
        -11    1    3    3    0    0 -0.31632969474E+02 -0.11038531463E+02 -0.20758881515E+02  0.39413514137E+02  0.51100000000E-03 0.  1.
         12    1    3    3    0    0  0.30802805756E+02  0.19547152807E+02  0.18543216901E+02  0.40923769601E+02  0.00000000000E+00 0. -1.
</event>
<event>
 7    1  0.4400431E-015  0.9000767E+02  0.7816164E-02  0.1186339E+00
        -11   -1    0    0    0    0  0.00000000000E+00  0.00000000000E+00  0.45593999997E+02  0.45594000000E+02  0.51100000000E-03 0.  1.
         11   -1    0    0    0    0 -0.00000000000E+00 -0.00000000000E+00 -0.45593999997E+02  0.45594000000E+02  0.51100000000E-03 0. -1.
    9900012    2    1    2    0    0  0.10429379086E+01  0.53634262714E+00  0.13338389969E+00  0.90007672012E+02  0.89999932482E+02 0.  0.
         12    1    1    2    0    0 -0.10429379086E+01 -0.53634262714E+00 -0.13338389969E+00  0.11803279882E+01  0.00000000000E+00 0. -1.
         11    1    3    3    0    0 -0.16699978686E+02  0.41073892152E+02 -0.11694650920E+01  0.44354498684E+02  0.51100000000E-03 0. -1.
        -11    1    3    3    0    0  0.55978617229E+01 -0.70701748826E+01 -0.36084604910E+01  0.97131053796E+01  0.51100000000E-03 0.  1.
        -12    1    3    3    0    0  0.12145054872E+02 -0.33467374642E+02  0.49113094827E+01  0.35940067948E+02  0.00000000000E+00 0.  1.
</event>
<event>
 7    1  0.4400431E-015  0.9000776E+02  0.7816164E-02  0.1186339E+00
        -11   -1    0    0    0    0  0.00000000000E+00  0.00000000000E+00  0.45593999997E+02  0.45594000000E+02  0.51100000000E-03 0.  1.
         11   -1    0    0    0    0 -0.00000000000E+00 -0.00000000000E+00 -0.45593999997E+02  0.45594000000E+02  0.51100000000E-03 0. -1.
    9900012    2    1    2    0    0 -0.41582171069E+00 -0.49623150674E+00  0.98681971984E+00  0.90007759955E+02  0.90000021587E+02 0.  0.
         12    1    1    2    0    0  0.41582171069E+00  0.49623150674E+00 -0.98681971984E+00  0.11802400446E+01  0.00000000000E+00 0. -1.
         11    1    3    3    0    0  0.16934675632E+02  0.31881938494E+02  0.12755177990E+02  0.38287541142E+02  0.51100000000E-03 0. -1.
        -11    1    3    3    0    0 -0.16628815750E+01  0.53181422492E+01 -0.92672285096E+01  0.10813386917E+02  0.51100000000E-03 0.  1.
        -12    1    3    3    0    0 -0.15687615768E+02 -0.37696312250E+02 -0.25011297607E+01  0.40906831896E+02  0.00000000000E+00 0.  1.
</event>
<event>
 7    1  0.4400431E-015  0.9000777E+02  0.7816164E-02  0.1186339E+00
        -11   -1    0    0    0    0  0.00000000000E+00  0.00000000000E+00  0.45593999997E+02  0.45594000000E+02  0.51100000000E-03 0. -1.
         11   -1    0    0    0    0 -0.00000000000E+00 -0.00000000000E+00 -0.45593999997E+02  0.45594000000E+02  0.51100000000E-03 0.  1.
    9900012    2    1    2    0    0 -0.10012158723E+00  0.65551444473E-01 -0.11741449153E+01  0.90007772223E+02  0.90000034016E+02 0.  0.
         12    1    1    2    0    0  0.10012158723E+00 -0.65551444473E-01  0.11741449153E+01  0.11802277772E+01  0.00000000000E+00 0. -1.
         11    1    3    3    0    0  0.16972929091E+02 -0.13830639090E+02  0.20826400087E+02  0.30217641212E+02  0.51100000000E-03 0. -1.
        -11    1    3    3    0    0 -0.70362223202E+01  0.16251604375E+02  0.13852893278E+02  0.22483899167E+02  0.51100000000E-03 0.  1.
        -12    1    3    3    0    0 -0.10036828358E+02 -0.23554138408E+01 -0.35853438281E+02  0.37306231844E+02  0.00000000000E+00 0.  1.
</event>
<event>
 7    1  0.4400431E-015  0.9000765E+02  0.7816164E-02  0.1186339E+00
        -11   -1    0    0    0    0  0.00000000000E+00  0.00000000000E+00  0.45593999997E+02  0.45594000000E+02  0.51100000000E-03 0.  1.
         11   -1    0    0    0    0 -0.00000000000E+00 -0.00000000000E+00 -0.45593999997E+02  0.45594000000E+02  0.51100000000E-03 0. -1.
    9900012    2    1    2    0    0 -0.10415889390E+01 -0.29386942788E+00  0.47113580255E+00  0.90007645942E+02  0.89999906068E+02 0.  0.
         12    1    1    2    0    0  0.10415889390E+01  0.29386942788E+00 -0.47113580255E+00  0.11803540583E+01  0.00000000000E+00 0. -1.
         11    1    3    3    0    0  0.35602039570E+02  0.18696065623E+02 -0.10889109850E+02  0.41660782577E+02  0.51100000000E-03 0. -1.
        -11    1    3    3    0    0 -0.14390006756E+01 -0.12560702068E+01  0.86240407457E+01  0.88330353986E+01  0.51100000000E-03 0.  1.
        -12    1    3    3    0    0 -0.35204627834E+02 -0.17733864844E+02  0.27362049070E+01  0.39513827966E+02  0.00000000000E+00 0.  1.
</event>
<event>
 7    1  0.4400431E-015  0.9000830E+02  0.7816164E-02  0.1186338E+00
        -11   -1    0    0    0    0  0.00000000000E+00  0.00000000000E+00  0.45593999997E+02  0.45594000000E+02  0.51100000000E-03 0. -1.
         11   -1    0    0    0    0 -0.00000000000E+00 -0.00000000000E+00 -0.45593999997E+02  0.45594000000E+02  0.51100000000E-03 0.  1.
    9900012    2    1    2    0    0 -0.25883872458E+00  0.67555669788E+00 -0.93183664713E+00  0.90008299244E+02  0.90000567992E+02 0.  0.
         12    1    1    2    0    0  0.25883872458E+00 -0.67555669788E+00  0.93183664713E+00  0.11797007563E+01  0.00000000000E+00 0. -1.
         11    1    3    3    0    0  0.70768181187E+01  0.32681655537E-02 -0.31661262188E+00  0.70838978804E+01  0.51100000000E-03 0. -1.
        -11    1    3    3    0    0 -0.85266161035E+00  0.27059918467E+02 -0.31666954189E+02  0.41662479608E+02  0.51100000000E-03 0.  1.
         12    1    3    3    0    0 -0.64829952329E+01 -0.26387629934E+02  0.31051730164E+02  0.41261921755E+02  0.00000000000E+00 0. -1.
</event>
<event>
 7    1  0.4400431E-015  0.9000778E+02  0.7816164E-02  0.1186339E+00
        -11   -1    0    0    0    0  0.00000000000E+00  0.00000000000E+00  0.45593999997E+02  0.45594000000E+02  0.51100000000E-03 0. -1.
         11   -1    0    0    0    0 -0.00000000000E+00 -0.00000000000E+00 -0.45593999997E+02  0.45594000000E+02  0.51100000000E-03 0.  1.
    9900012    2    1    2    0    0  0.96293866094E+00 -0.27514846693E+00 -0.62447594831E+00  0.90007776397E+02  0.90000038245E+02 0.  0.
         12    1    1    2    0    0 -0.96293866094E+00  0.27514846693E+00  0.62447594831E+00  0.11802236032E+01  0.00000000000E+00 0. -1.
         11    1    3    3    0    0  0.96778463712E+01  0.23197626570E+01 -0.33466395293E+01  0.10499619306E+02  0.51100000000E-03 0. -1.
        -11    1    3    3    0    0 -0.30557745846E+02 -0.28717062139E+02 -0.10082836681E+02  0.43128981960E+02  0.51100000000E-03 0.  1.
         12    1    3    3    0    0  0.21842838136E+02  0.26122151015E+02  0.12805000262E+02  0.36379175131E+02  0.00000000000E+00 0. -1.
</event>
<event>
 7    1  0.4400431E-015  0.9000772E+02  0.7816164E-02  0.1186339E+00
        -11   -1    0    0    0    0  0.00000000000E+00  0.00000000000E+00  0.45593999997E+02  0.45594000000E+02  0.51100000000E-03 0. -1.
         11   -1    0    0    0    0 -0.00000000000E+00 -0.00000000000E+00 -0.45593999997E+02  0.45594000000E+02  0.51100000000E-03 0.  1.
    9900012    2    1    2    0    0  0.50629329844E+00  0.42600060613E-01 -0.10653243972E+01  0.90007718788E+02  0.89999979876E+02 0.  0.
         12    1    1    2    0    0 -0.50629329844E+00 -0.42600060612E-01  0.10653243972E+01  0.11802812125E+01  0.00000000000E+00 0. -1.
         11    1    3    3    0    0 -0.17386498738E+02 -0.37794941476E+02  0.75844187087E+01  0.42287957470E+02  0.51100000000E-03 0. -1.
        -11    1    3    3    0    0 -0.28700724434E+01  0.47474775349E+01 -0.65712413216E+01  0.85998297391E+01  0.51100000000E-03 0.  1.
        -12    1    3    3    0    0  0.20762864480E+02  0.33090064002E+02 -0.20785017843E+01  0.39119931579E+02  0.00000000000E+00 0.  1.
</event>
<event>
 7    1  0.4400431E-015  0.9000766E+02  0.7816164E-02  0.1186339E+00
        -11   -1    0    0    0    0  0.00000000000E+00  0.00000000000E+00  0.45593999997E+02  0.45594000000E+02  0.51100000000E-03 0. -1.
         11   -1    0    0    0    0 -0.00000000000E+00 -0.00000000000E+00 -0.45593999997E+02  0.45594000000E+02  0.51100000000E-03 0.  1.
    9900012    2    1    2    0    0 -0.82334229400E+00  0.77327615584E+00 -0.34255563915E+00  0.90007664068E+02  0.89999924434E+02 0.  0.
         12    1    1    2    0    0  0.82334229400E+00 -0.77327615584E+00  0.34255563915E+00  0.11803359319E+01  0.00000000000E+00 0. -1.
         11    1    3    3    0    0  0.79564734839E+01 -0.34012558094E+02  0.18586659702E+02  0.39567960492E+02  0.51100000000E-03 0. -1.
        -11    1    3    3    0    0  0.72970598278E+01  0.41877357879E+01  0.36317480272E+01  0.91637223417E+01  0.51100000000E-03 0.  1.
        -12    1    3    3    0    0 -0.16076875606E+02  0.30598098462E+02 -0.22560963368E+02  0.41275981234E+02  0.00000000000E+00 0.  1.
</event>
<event>
 7    1  0.4400431E-015  0.9000773E+02  0.7816164E-02  0.1186339E+00
        -11   -1    0    0    0    0  0.00000000000E+00  0.00000000000E+00  0.45593999997E+02  0.45594000000E+02  0.51100000000E-03 0.  1.
         11   -1    0    0    0    0 -0.00000000000E+00 -0.00000000000E+00 -0.45593999997E+02  0.45594000000E+02  0.51100000000E-03 0. -1.
    9900012    2    1    2    0    0  0.76720232707E+00  0.18566256365E+00  0.87747947808E+00  0.90007728746E+02  0.89999989966E+02 0.  0.
         12    1    1    2    0    0 -0.76720232707E+00 -0.18566256365E+00 -0.87747947808E+00  0.11802712538E+01  0.00000000000E+00 0. -1.
         11    1    3    3    0    0  0.86890331979E+01 -0.78357939879E+00  0.52215437175E+01  0.10167488069E+02  0.51100000000E-03 0. -1.
        -11    1    3    3    0    0  0.25889862828E+02 -0.24835931390E+02  0.51929990826E+01  0.36250182414E+02  0.51100000000E-03 0.  1.
         12    1    3    3    0    0 -0.33811693699E+02  0.25805173353E+02 -0.95370633220E+01  0.43590058263E+02  0.00000000000E+00 0. -1.
</event>
<event>
 7    1  0.4400431E-015  0.9000779E+02  0.7816164E-02  0.1186339E+00
        -11   -1    0    0    0    0  0.00000000000E+00  0.00000000000E+00  0.45593999997E+02  0.45594000000E+02  0.51100000000E-03 0. -1.
         11   -1    0    0    0    0 -0.00000000000E+00 -0.00000000000E+00 -0.45593999997E+02  0.45594000000E+02  0.51100000000E-03 0.  1.
    9900012    2    1    2    0    0  0.51031505268E+00  0.97978968097E+00  0.41530507586E+00  0.90007793417E+02  0.90000055490E+02 0.  0.
         12    1    1    2    0    0 -0.51031505268E+00 -0.97978968097E+00 -0.41530507586E+00  0.11802065827E+01  0.00000000000E+00 0. -1.
         11    1    3    3    0    0 -0.37055030804E+01  0.27168115336E+02 -0.28049431199E+02  0.39225091903E+02  0.51100000000E-03 0. -1.
        -11    1    3    3    0    0 -0.13811991400E+01 -0.47767799674E+01 -0.72354281280E+01  0.87793370125E+01  0.51100000000E-03 0.  1.
        -12    1    3    3    0    0  0.55970172731E+01 -0.21411545688E+02  0.35700164403E+02  0.42003364502E+02  0.00000000000E+00 0.  1.
</event>
<event>
 7    1  0.4400431E-015  0.9000704E+02  0.7816164E-02  0.1186340E+00
        -11   -1    0    0    0    0  0.00000000000E+00  0.00000000000E+00  0.45593999997E+02  0.45594000000E+02  0.51100000000E-03 0. -1.
         11   -1    0    0    0    0 -0.00000000000E+00 -0.00000000000E+00 -0.45593999997E+02  0.45594000000E+02  0.51100000000E-03 0.  1.
    9900012    2    1    2    0    0 -0.57414720478E+00 -0.96579625840E+00 -0.36366683386E+00  0.90007042341E+02  0.89999294497E+02 0.  0.
         12    1    1    2    0    0  0.57414720478E+00  0.96579625840E+00  0.36366683386E+00  0.11809576587E+01  0.00000000000E+00 0. -1.
         11    1    3    3    0    0  0.21177155472E+02 -0.10623769922E+02  0.26618600265E+02  0.35635463818E+02  0.51100000000E-03 0. -1.
        -11    1    3    3    0    0 -0.20561696316E+01 -0.83059905133E+01  0.70886618505E+01  0.11111545304E+02  0.51100000000E-03 0.  1.
        -12    1    3    3    0    0 -0.19695133046E+02  0.17963964176E+02 -0.34070928949E+02  0.43260033218E+02  0.00000000000E+00 0.  1.
</event>
<event>
 7    1  0.4400431E-015  0.9000779E+02  0.7816164E-02  0.1186339E+00
        -11   -1    0    0    0    0  0.00000000000E+00  0.00000000000E+00  0.45593999997E+02  0.45594000000E+02  0.51100000000E-03 0. -1.
         11   -1    0    0    0    0 -0.00000000000E+00 -0.00000000000E+00 -0.45593999997E+02  0.45594000000E+02  0.51100000000E-03 0.  1.
    9900012    2    1    2    0    0 -0.86158154350E+00 -0.12040402776E+00 -0.79754803887E+00  0.90007786985E+02  0.90000048973E+02 0.  0.
         12    1    1    2    0    0  0.86158154350E+00  0.12040402776E+00  0.79754803887E+00  0.11802130148E+01  0.00000000000E+00 0. -1.
         11    1    3    3    0    0 -0.98693606134E+01 -0.13441932807E+01 -0.11199115522E+01  0.10023239827E+02  0.51100000000E-03 0. -1.
        -11    1    3    3    0    0 -0.30918562048E+02  0.18403435634E+02  0.47531913758E+01  0.36293756361E+02  0.51100000000E-03 0.  1.
         12    1    3    3    0    0  0.39926341118E+02 -0.17179646381E+02 -0.44308278625E+01  0.43690790797E+02  0.00000000000E+00 0. -1.
</event>
<event>
 7    1  0.4400431E-015  0.9000774E+02  0.7816164E-02  0.1186339E+00
        -11   -1    0    0    0    0  0.00000000000E+00  0.00000000000E+00  0.45593999997E+02  0.45594000000E+02  0.51100000000E-03 0. -1.
         11   -1    0    0    0    0 -0.00000000000E+00 -0.00000000000E+00 -0.45593999997E+02  0.45594000000E+02  0.51100000000E-03 0.  1.
    9900012    2    1    2    0    0 -0.82766595911E+00 -0.67532699975E-01 -0.83870352094E+00  0.90007739350E+02  0.90000000710E+02 0.  0.
         12    1    1    2    0    0  0.82766595911E+00  0.67532699975E-01  0.83870352094E+00  0.11802606498E+01  0.00000000000E+00 0. -1.
         11    1    3    3    0    0  0.31697471109E+02 -0.28162450627E+02 -0.27820951664E+01  0.42492274048E+02  0.51100000000E-03 0. -1.
        -11    1    3    3    0    0 -0.19060691347E+01  0.36294234526E+01  0.68841415108E+01  0.80123166904E+01  0.51100000000E-03 0.  1.
        -12    1    3    3    0    0 -0.30619067933E+02  0.24465494475E+02 -0.49407498654E+01  0.39503148611E+02  0.00000000000E+00 0.  1.
</event>
<event>
 7    1  0.4400431E-015  0.9000773E+02  0.7816164E-02  0.1186339E+00
        -11   -1    0    0    0    0  0.00000000000E+00  0.00000000000E+00  0.45593999997E+02  0.45594000000E+02  0.51100000000E-03 0. -1.
         11   -1    0    0    0    0 -0.00000000000E+00 -0.00000000000E+00 -0.45593999997E+02  0.45594000000E+02  0.51100000000E-03 0.  1.
    9900012    2    1    2    0    0  0.10665325911E+01  0.32364286469E-01  0.50447581735E+00  0.90007730935E+02  0.89999992184E+02 0.  0.
         12    1    1    2    0    0 -0.10665325911E+01 -0.32364286469E-01 -0.50447581735E+00  0.11802690648E+01  0.00000000000E+00 0. -1.
         11    1    3    3    0    0  0.14220298241E+02  0.35089059668E+02  0.10192058607E+02  0.39208889927E+02  0.51100000000E-03 0. -1.
        -11    1    3    3    0    0  0.93961794583E+01 -0.17700407918E+01 -0.60875363153E+00  0.95808044580E+01  0.51100000000E-03 0.  1.
        -12    1    3    3    0    0 -0.22549945109E+02 -0.33286654589E+02 -0.90788291578E+01  0.41218036550E+02  0.00000000000E+00 0.  1.
</event>
<event>
 7    1  0.4400431E-015  0.9000776E+02  0.7816164E-02  0.1186339E+00
        -11   -1    0    0    0    0  0.00000000000E+00  0.00000000000E+00  0.45593999997E+02  0.45594000000E+02  0.51100000000E-03 0.  1.
         11   -1    0    0    0    0 -0.00000000000E+00 -0.00000000000E+00 -0.45593999997E+02  0.45594000000E+02  0.51100000000E-03 0. -1.
    9900012    2    1    2    0    0  0.79824502678E+00  0.10766936981E-01 -0.86928530624E+00  0.90007759349E+02  0.90000020973E+02 0.  0.
         12    1    1    2    0    0 -0.79824502678E+00 -0.10766936981E-01  0.86928530624E+00  0.11802406506E+01  0.00000000000E+00 0. -1.
         11    1    3    3    0    0 -0.29965923897E+00 -0.97728591150E+01  0.15935745963E+01  0.99064651211E+01  0.51100000000E-03 0. -1.
        -11    1    3    3    0    0  0.29855666477E+02 -0.96856009997E+01 -0.23756818385E+02  0.39364426930E+02  0.51100000000E-03 0.  1.
         12    1    3    3    0    0 -0.28757762211E+02  0.19469227052E+02  0.21293958483E+02  0.40736867298E+02  0.00000000000E+00 0. -1.
</event>
<event>
 7    1  0.4400431E-015  0.9000772E+02  0.7816164E-02  0.1186339E+00
        -11   -1    0    0    0    0  0.00000000000E+00  0.00000000000E+00  0.45593999997E+02  0.45594000000E+02  0.51100000000E-03 0. -1.
         11   -1    0    0    0    0 -0.00000000000E+00 -0.00000000000E+00 -0.45593999997E+02  0.45594000000E+02  0.51100000000E-03 0.  1.
    9900012    2    1    2    0    0  0.11152825756E+01  0.23721828841E+00 -0.30484365050E+00  0.90007721477E+02  0.89999982601E+02 0.  0.
         12    1    1    2    0    0 -0.11152825756E+01 -0.23721828841E+00  0.30484365050E+00  0.11802785227E+01  0.00000000000E+00 0. -1.
         11    1    3    3    0    0  0.57772846943E+01  0.12602827794E+02  0.33053340151E+02  0.35843152515E+02  0.51100000000E-03 0. -1.
        -11    1    3    3    0    0  0.15010804665E+01 -0.43969456244E+01  0.92662916555E+01  0.10365834973E+02  0.51100000000E-03 0.  1.
        -12    1    3    3    0    0 -0.61630825852E+01 -0.79686638813E+01 -0.42624475457E+02  0.43798733988E+02  0.00000000000E+00 0.  1.
</event>
<event>
 7    1  0.4400431E-015  0.9000775E+02  0.7816164E-02  0.1186339E+00
        -11   -1    0    0    0    0  0.00000000000E+00  0.00000000000E+00  0.45593999997E+02  0.45594000000E+02  0.51100000000E-03 0.  1.
         11   -1    0    0    0    0 -0.00000000000E+00 -0.00000000000E+00 -0.45593999997E+02  0.45594000000E+02  0.51100000000E-03 0. -1.
    9900012    2    1    2    0    0 -0.16949313127E-01 -0.11636874602E+01  0.19629592612E+00  0.90007750927E+02  0.90000012439E+02 0.  0.
         12    1    1    2    0    0  0.16949313127E-01  0.11636874602E+01 -0.19629592612E+00  0.11802490733E+01  0.00000000000E+00 0. -1.
         11    1    3    3    0    0 -0.13509026587E+02 -0.24733409753E+02 -0.24481485940E+02  0.37330664493E+02  0.51100000000E-03 0. -1.
        -11    1    3    3    0    0 -0.88835786439E+00 -0.84770260213E+01 -0.17734301695E+01  0.87059867154E+01  0.51100000000E-03 0.  1.
        -12    1    3    3    0    0  0.14380435138E+02  0.32046748315E+02  0.26451212036E+02  0.43971099719E+02  0.00000000000E+00 0.  1.
</event>
<event>
 7    1  0.4400431E-015  0.9000778E+02  0.7816164E-02  0.1186339E+00
        -11   -1    0    0    0    0  0.00000000000E+00  0.00000000000E+00  0.45593999997E+02  0.45594000000E+02  0.51100000000E-03 0.  1.
         11   -1    0    0    0    0 -0.00000000000E+00 -0.00000000000E+00 -0.45593999997E+02  0.45594000000E+02  0.51100000000E-03 0. -1.
    9900012    2    1    2    0    0 -0.10359026717E+01 -0.52972301796E+00 -0.19802916569E+00  0.90007781219E+02  0.90000043131E+02 0.  0.
         12    1    1    2    0    0  0.10359026717E+01  0.52972301796E+00  0.19802916569E+00  0.11802187812E+01  0.00000000000E+00 0. -1.
         11    1    3    3    0    0 -0.52852619202E+01  0.37037827979E+01  0.24945843416E+01  0.69191727741E+01  0.51100000000E-03 0. -1.
        -11    1    3    3    0    0 -0.17814570949E+02 -0.17221573963E+02  0.31686046970E+02  0.40223713412E+02  0.51100000000E-03 0.  1.
         12    1    3    3    0    0  0.22063930198E+02  0.12988068147E+02 -0.34378660477E+02  0.42864895032E+02  0.00000000000E+00 0. -1.
</event>
<event>
 7    1  0.4400431E-015  0.9000773E+02  0.7816164E-02  0.1186339E+00
        -11   -1    0    0    0    0  0.00000000000E+00  0.00000000000E+00  0.45593999997E+02  0.45594000000E+02  0.51100000000E-03 0.  1.
         11   -1    0    0    0    0 -0.00000000000E+00 -0.00000000000E+00 -0.45593999997E+02  0.45594000000E+02  0.51100000000E-03 0. -1.
    9900012    2    1    2    0    0  0.51768797333E+00 -0.48999720472E+00  0.94071716032E+00  0.90007725933E+02  0.89999987115E+02 0.  0.
         12    1    1    2    0    0 -0.51768797333E+00  0.48999720472E+00 -0.94071716032E+00  0.11802740674E+01  0.00000000000E+00 0. -1.
         11    1    3    3    0    0 -0.29002177602E+02 -0.62119616265E+01  0.35713846859E+01  0.29874229057E+02  0.51100000000E-03 0. -1.
        -11    1    3    3    0    0 -0.14558179312E+02 -0.29502466759E+01  0.19324379599E+01  0.14979280926E+02  0.51100000000E-03 0.  1.
        -12    1    3    3    0    0  0.44078044887E+02  0.86722110976E+01 -0.45631054855E+01  0.45154215950E+02  0.00000000000E+00 0.  1.
</event>
<event>
 7    1  0.4400431E-015  0.9000898E+02  0.7816164E-02  0.1186337E+00
        -11   -1    0    0    0    0  0.00000000000E+00  0.00000000000E+00  0.45593999997E+02  0.45594000000E+02  0.51100000000E-03 0. -1.
         11   -1    0    0    0    0 -0.00000000000E+00 -0.00000000000E+00 -0.45593999997E+02  0.45594000000E+02  0.51100000000E-03 0.  1.
    9900012    2    1    2    0    0  0.70137545623E+00  0.90576607115E-01 -0.94337224216E+00  0.90008982256E+02  0.90001260013E+02 0.  0.
         12    1    1    2    0    0 -0.70137545623E+00 -0.90576607115E-01  0.94337224216E+00  0.11790177436E+01  0.00000000000E+00 0. -1.
         11    1    3    3    0    0 -0.17038584087E+02 -0.13147514628E+02  0.31419058045E+02  0.38083168162E+02  0.51100000000E-03 0. -1.
        -11    1    3    3    0    0 -0.39922763775E+00  0.62903488045E+01  0.61411579919E+01  0.88000961661E+01  0.51100000000E-03 0.  1.
        -12    1    3    3    0    0  0.18139187181E+02  0.69477424304E+01 -0.38503588279E+02  0.43125717928E+02  0.00000000000E+00 0.  1.
</event>
<event>
 7    1  0.4400431E-015  0.9000749E+02  0.7816164E-02  0.1186340E+00
        -11   -1    0    0    0    0  0.00000000000E+00  0.00000000000E+00  0.45593999997E+02  0.45594000000E+02  0.51100000000E-03 0. -1.
         11   -1    0    0    0    0 -0.00000000000E+00 -0.00000000000E+00 -0.45593999997E+02  0.45594000000E+02  0.51100000000E-03 0.  1.
    9900012    2    1    2    0    0  0.10374179132E+01  0.53871032053E+00  0.16480098139E+00  0.90007489899E+02  0.89999747965E+02 0.  0.
         12    1    1    2    0    0 -0.10374179132E+01 -0.53871032053E+00 -0.16480098139E+00  0.11805101014E+01  0.00000000000E+00 0. -1.
         11    1    3    3    0    0 -0.78017565115E-01  0.74638323166E+01  0.69920122241E+01  0.10227566416E+02  0.51100000000E-03 0. -1.
        -11    1    3    3    0    0 -0.38927985993E+02 -0.19306753335E+01 -0.84309244824E+00  0.38984951018E+02  0.51100000000E-03 0.  1.
         12    1    3    3    0    0  0.40043421472E+02 -0.49944466626E+01 -0.59841187945E+01  0.40794972464E+02  0.00000000000E+00 0. -1.
</event>
<event>
 7    1  0.4400431E-015  0.9000776E+02  0.7816164E-02  0.1186339E+00
        -11   -1    0    0    0    0  0.00000000000E+00  0.00000000000E+00  0.45593999997E+02  0.45594000000E+02  0.51100000000E-03 0.  1.
         11   -1    0    0    0    0 -0.00000000000E+00 -0.00000000000E+00 -0.45593999997E+02  0.45594000000E+02  0.51100000000E-03 0. -1.
    9900012    2    1    2    0    0  0.10919963068E+01 -0.10144366450E+00  0.43614159457E+00  0.90007760091E+02  0.90000021725E+02 0.  0.
         12    1    1    2    0    0 -0.10919963068E+01  0.10144366450E+00 -0.43614159457E+00  0.11802399085E+01  0.00000000000E+00 0. -1.
         11    1    3    3    0    0 -0.16658827674E+01  0.59910016960E+01  0.75669674574E+01  0.97941953972E+01  0.51100000000E-03 0. -1.
        -11    1    3    3    0    0  0.13966949653E+02  0.34616019603E+02 -0.70638441897E+01  0.37990030149E+02  0.51100000000E-03 0.  1.
         12    1    3    3    0    0 -0.11209070579E+02 -0.40708464963E+02 -0.66981673154E-01  0.42223534545E+02  0.00000000000E+00 0. -1.
</event>
<event>
 7    1  0.4400431E-015  0.9000773E+02  0.7816164E-02  0.1186339E+00
        -11   -1    0    0    0    0  0.00000000000E+00  0.00000000000E+00  0.45593999997E+02  0.45594000000E+02  0.51100000000E-03 0.  1.
         11   -1    0    0    0    0 -0.00000000000E+00 -0.00000000000E+00 -0.45593999997E+02  0.45594000000E+02  0.51100000000E-03 0. -1.
    9900012    2    1    2    0    0 -0.54542258900E+00 -0.97719387895E+00  0.37502033133E+00  0.90007731418E+02  0.89999992672E+02 0.  0.
         12    1    1    2    0    0  0.54542258900E+00  0.97719387895E+00 -0.37502033133E+00  0.11802685824E+01  0.00000000000E+00 0. -1.
         11    1    3    3    0    0  0.12542728786E+02  0.33685110480E+01 -0.68484335849E+01  0.14682232627E+02  0.51100000000E-03 0. -1.
        -11    1    3    3    0    0 -0.19773342028E+02  0.31756980568E+02  0.93066465330E+01  0.38550026455E+02  0.51100000000E-03 0.  1.
         12    1    3    3    0    0  0.66851906536E+01 -0.36102685495E+02 -0.20831926167E+01  0.36775472335E+02  0.00000000000E+00 0. -1.
</event>
<event>
 7    1  0.4982979E-015  0.9000776E+02  0.7816164E-02  0.1186339E+00
        -11   -1    0    0    0    0  0.00000000000E+00  0.00000000000E+00  0.45593999997E+02  0.45594000000E+02  0.51100000000E-03 0.  1.
         11   -1    0    0    0    0 -0.00000000000E+00 -0.00000000000E+00 -0.45593999997E+02  0.45594000000E+02  0.51100000000E-03 0. -1.
    9900012    2    1    2    0    0 -0.95341817611E+00 -0.62697596091E+00  0.30144951161E+00  0.90007755584E+02  0.90000017157E+02 0.  0.
         12    1    1    2    0    0  0.95341817611E+00  0.62697596091E+00 -0.30144951161E+00  0.11802444163E+01  0.00000000000E+00 0. -1.
         11    1    3    3    0    0  0.29223666773E+02 -0.24449393216E+01 -0.24332087606E+02  0.38105785853E+02  0.51100000000E-03 0. -1.
        -11    1    3    3    0    0 -0.33817860523E+00 -0.87761030864E+01 -0.35875244587E+01  0.94870797486E+01  0.51100000000E-03 0.  1.
        -12    1    3    3    0    0 -0.29838906344E+02  0.10594066447E+02  0.28221061576E+02  0.42414889982E+02  0.00000000000E+00 0.  1.
</event>
<event>
 7    1  0.4400431E-015  0.9000849E+02  0.7816164E-02  0.1186338E+00
        -11   -1    0    0    0    0  0.00000000000E+00  0.00000000000E+00  0.45593999997E+02  0.45594000000E+02  0.51100000000E-03 0. -1.
         11   -1    0    0    0    0 -0.00000000000E+00 -0.00000000000E+00 -0.45593999997E+02  0.45594000000E+02  0.51100000000E-03 0.  1.
    9900012    2    1    2    0    0  0.40757528307E+00 -0.67410841839E+00 -0.87790206489E+00  0.90008486623E+02  0.90000757843E+02 0.  0.
         12    1    1    2    0    0 -0.40757528307E+00  0.67410841839E+00  0.87790206489E+00  0.11795133771E+01  0.00000000000E+00 0. -1.
         11    1    3    3    0    0  0.96249752880E+01  0.16334099948E+02 -0.47720201200E+01  0.19550323442E+02  0.51100000000E-03 0. -1.
        -11    1    3    3    0    0  0.14111541124E+02  0.16006789307E+02  0.17716322646E+02  0.27734833426E+02  0.51100000000E-03 0.  1.
        -12    1    3    3    0    0 -0.23328941129E+02 -0.33014997673E+02 -0.13822204591E+02  0.42723329755E+02  0.00000000000E+00 0.  1.
</event>
<event>
 7    1  0.4400431E-015  0.9000770E+02  0.7816164E-02  0.1186339E+00
        -11   -1    0    0    0    0  0.00000000000E+00  0.00000000000E+00  0.45593999997E+02  0.45594000000E+02  0.51100000000E-03 0. -1.
         11   -1    0    0    0    0 -0.00000000000E+00 -0.00000000000E+00 -0.45593999997E+02  0.45594000000E+02  0.51100000000E-03 0.  1.
    9900012    2    1    2    0    0  0.49265080290E+00  0.88081006707E+00 -0.61202802977E+00  0.90007699404E+02  0.89999960236E+02 0.  0.
         12    1    1    2    0    0 -0.49265080290E+00 -0.88081006707E+00  0.61202802977E+00  0.11803005961E+01  0.00000000000E+00 0. -1.
         11    1    3    3    0    0  0.10699824566E+02 -0.70049784600E+01 -0.11852194410E+02  0.17436469871E+02  0.51100000000E-03 0. -1.
        -11    1    3    3    0    0  0.15489940933E+02  0.18021228308E+02  0.30669841767E+02  0.38798738821E+02  0.51100000000E-03 0.  1.
         12    1    3    3    0    0 -0.25697114696E+02 -0.10135439781E+02 -0.19429675387E+02  0.33772490712E+02  0.00000000000E+00 0. -1.
</event>
<event>
 7    1  0.4400431E-015  0.9000764E+02  0.7816164E-02  0.1186339E+00
        -11   -1    0    0    0    0  0.00000000000E+00  0.00000000000E+00  0.45593999997E+02  0.45594000000E+02  0.51100000000E-03 0.  1.
         11   -1    0    0    0    0 -0.00000000000E+00 -0.00000000000E+00 -0.45593999997E+02  0.45594000000E+02  0.51100000000E-03 0. -1.
    9900012    2    1    2    0    0 -0.44647514161E+00 -0.97952399383E+00  0.48418838182E+00  0.90007641709E+02  0.89999901779E+02 0.  0.
         12    1    1    2    0    0  0.44647514161E+00  0.97952399383E+00 -0.48418838182E+00  0.11803582912E+01  0.00000000000E+00 0. -1.
         11    1    3    3    0    0 -0.22681972294E+02 -0.12490087716E+02 -0.31806483337E+02  0.41013736001E+02  0.51100000000E-03 0. -1.
        -11    1    3    3    0    0  0.19864101105E+02 -0.12996692806E+01  0.80469675568E+01  0.21471500648E+02  0.51100000000E-03 0.  1.
        -12    1    3    3    0    0  0.23713960477E+01  0.12810233003E+02  0.24243704162E+02  0.27522405060E+02  0.00000000000E+00 0.  1.
</event>
<event>
 7    1  0.4400431E-015  0.9000772E+02  0.7816164E-02  0.1186339E+00
        -11   -1    0    0    0    0  0.00000000000E+00  0.00000000000E+00  0.45593999997E+02  0.45594000000E+02  0.51100000000E-03 0. -1.
         11   -1    0    0    0    0 -0.00000000000E+00 -0.00000000000E+00 -0.45593999997E+02  0.45594000000E+02  0.51100000000E-03 0.  1.
    9900012    2    1    2    0    0 -0.61039838084E+00  0.38529944449E-01 -0.10094530797E+01  0.90007717720E+02  0.89999978794E+02 0.  0.
         12    1    1    2    0    0  0.61039838084E+00 -0.38529944449E-01  0.10094530797E+01  0.11802822798E+01  0.00000000000E+00 0. -1.
         11    1    3    3    0    0  0.18739424783E+02 -0.31758829175E+02  0.11632711673E+02  0.38666642638E+02  0.51100000000E-03 0. -1.
        -11    1    3    3    0    0  0.66957997899E+01 -0.70038184467E+00  0.22700695679E+01  0.71047509217E+01  0.51100000000E-03 0.  1.
        -12    1    3    3    0    0 -0.26045622954E+02  0.32497740964E+02 -0.14912234321E+02  0.44236324161E+02  0.00000000000E+00 0.  1.
</event>
<event>
 7    1  0.8444149E-015  0.9000769E+02  0.7816164E-02  0.1186339E+00
        -11   -1    0    0    0    0  0.00000000000E+00  0.00000000000E+00  0.45593999997E+02  0.45594000000E+02  0.51100000000E-03 0. -1.
         11   -1    0    0    0    0 -0.00000000000E+00 -0.00000000000E+00 -0.45593999997E+02  0.45594000000E+02  0.51100000000E-03 0.  1.
    9900012    2    1    2    0    0 -0.16687043208E+00 -0.73783067190E+00 -0.90603052500E+00  0.90007690230E+02  0.89999950941E+02 0.  0.
         12    1    1    2    0    0  0.16687043208E+00  0.73783067190E+00  0.90603052500E+00  0.11803097702E+01  0.00000000000E+00 0. -1.
         11    1    3    3    0    0 -0.24758916873E+02  0.23962098167E+02  0.10836231956E+02  0.36119385883E+02  0.51100000000E-03 0. -1.
        -11    1    3    3    0    0 -0.76654153016E+01  0.45273344249E+01 -0.36073964786E+01  0.96056576223E+01  0.51100000000E-03 0.  1.
        -12    1    3    3    0    0  0.32257461743E+02 -0.29227263264E+02 -0.81348660028E+01  0.44282646724E+02  0.00000000000E+00 0.  1.
</event>
<event>
 7    1  0.4400431E-015  0.9000742E+02  0.7816164E-02  0.1186340E+00
        -11   -1    0    0    0    0  0.00000000000E+00  0.00000000000E+00  0.45593999997E+02  0.45594000000E+02  0.51100000000E-03 0.  1.
         11   -1    0    0    0    0 -0.00000000000E+00 -0.00000000000E+00 -0.45593999997E+02  0.45594000000E+02  0.51100000000E-03 0. -1.
    9900012    2    1    2    0    0  0.90005764094E+00 -0.32104287554E+00  0.69325762178E+00  0.90007416070E+02  0.89999673162E+02 0.  0.
         12    1    1    2    0    0 -0.90005764094E+00  0.32104287554E+00 -0.69325762178E+00  0.11805839297E+01  0.00000000000E+00 0. -1.
         11    1    3    3    0    0  0.12655526291E+01 -0.28229252997E+02 -0.25536547449E+02  0.38086842927E+02  0.51100000000E-03 0. -1.
        -11    1    3    3    0    0 -0.86174420619E+01 -0.51806535784E+01  0.24590424193E+01  0.10351153031E+02  0.51100000000E-03 0.  1.
        -12    1    3    3    0    0  0.82519470738E+01  0.33088863700E+02  0.23770762651E+02  0.41569420113E+02  0.00000000000E+00 0.  1.
</event>
<event>
 7    1  0.4400431E-015  0.9000777E+02  0.7816164E-02  0.1186339E+00
        -11   -1    0    0    0    0  0.00000000000E+00  0.00000000000E+00  0.45593999997E+02  0.45594000000E+02  0.51100000000E-03 0. -1.
         11   -1    0    0    0    0 -0.00000000000E+00 -0.00000000000E+00 -0.45593999997E+02  0.45594000000E+02  0.51100000000E-03 0.  1.
    9900012    2    1    2    0    0  0.47096472899E+00  0.72561866443E+00 -0.80287071203E+00  0.90007774766E+02  0.90000036593E+02 0.  0.
         12    1    1    2    0    0 -0.47096472899E+00 -0.72561866443E+00  0.80287071203E+00  0.11802252337E+01  0.00000000000E+00 0. -1.
         11    1    3    3    0    0  0.56642197724E+01  0.69368067057E+01 -0.20472503311E+01  0.91866156489E+01  0.51100000000E-03 0. -1.
        -11    1    3    3    0    0 -0.26008606133E+02 -0.12324111188E+01 -0.32017464069E+02  0.41268443583E+02  0.51100000000E-03 0.  1.
         12    1    3    3    0    0  0.20815351089E+02 -0.49787769224E+01  0.33261843688E+02  0.39552715534E+02  0.00000000000E+00 0. -1.
</event>
<event>
 7    1  0.4400431E-015  0.9000745E+02  0.7816164E-02  0.1186340E+00
        -11   -1    0    0    0    0  0.00000000000E+00  0.00000000000E+00  0.45593999997E+02  0.45594000000E+02  0.51100000000E-03 0.  1.
         11   -1    0    0    0    0 -0.00000000000E+00 -0.00000000000E+00 -0.45593999997E+02  0.45594000000E+02  0.51100000000E-03 0. -1.
    9900012    2    1    2    0    0  0.78831247744E+00  0.75300136835E+00 -0.45304407712E+00  0.90007450739E+02  0.89999708288E+02 0.  0.
         12    1    1    2    0    0 -0.78831247744E+00 -0.75300136835E+00  0.45304407712E+00  0.11805492614E+01  0.00000000000E+00 0. -1.
         11    1    3    3    0    0  0.57446411514E+01  0.98982430710E+00  0.70572215559E+01  0.91534163277E+01  0.51100000000E-03 0. -1.
        -11    1    3    3    0    0  0.24543204754E+02 -0.26374155405E+02  0.10492527580E+02  0.37524100365E+02  0.51100000000E-03 0.  1.
         12    1    3    3    0    0 -0.29499533428E+02  0.26137332467E+02 -0.18002793214E+02  0.43329934046E+02  0.00000000000E+00 0. -1.
</event>
<event>
 7    1  0.4400431E-015  0.9000773E+02  0.7816164E-02  0.1186339E+00
        -11   -1    0    0    0    0  0.00000000000E+00  0.00000000000E+00  0.45593999997E+02  0.45594000000E+02  0.51100000000E-03 0. -1.
         11   -1    0    0    0    0 -0.00000000000E+00 -0.00000000000E+00 -0.45593999997E+02  0.45594000000E+02  0.51100000000E-03 0.  1.
    9900012    2    1    2    0    0 -0.59306400555E+00 -0.70594535037E+00  0.73685723025E+00  0.90007727858E+02  0.89999989065E+02 0.  0.
         12    1    1    2    0    0  0.59306400555E+00  0.70594535037E+00 -0.73685723025E+00  0.11802721424E+01  0.00000000000E+00 0. -1.
         11    1    3    3    0    0  0.46799883124E+01  0.59865912457E+01  0.40634332681E+01  0.86170212680E+01  0.51100000000E-03 0. -1.
        -11    1    3    3    0    0 -0.46367018581E+01  0.36909977533E+02  0.30274268670E+01  0.37323059351E+02  0.51100000000E-03 0.  1.
         12    1    3    3    0    0 -0.63635045988E+00 -0.43602514129E+02 -0.63540029049E+01  0.44067647239E+02  0.00000000000E+00 0. -1.
</event>
<event>
 7    1  0.4400431E-015  0.9000772E+02  0.7816164E-02  0.1186339E+00
        -11   -1    0    0    0    0  0.00000000000E+00  0.00000000000E+00  0.45593999997E+02  0.45594000000E+02  0.51100000000E-03 0.  1.
         11   -1    0    0    0    0 -0.00000000000E+00 -0.00000000000E+00 -0.45593999997E+02  0.45594000000E+02  0.51100000000E-03 0. -1.
    9900012    2    1    2    0    0  0.10360822518E+01 -0.23791106747E+00  0.51282871343E+00  0.90007719780E+02  0.89999980881E+02 0.  0.
         12    1    1    2    0    0 -0.10360822518E+01  0.23791106747E+00 -0.51282871343E+00  0.11802802201E+01  0.00000000000E+00 0. -1.
         11    1    3    3    0    0 -0.41688382805E+01 -0.50145789414E+01 -0.71627662528E+01  0.96866111320E+01  0.51100000000E-03 0. -1.
        -11    1    3    3    0    0 -0.86666213839E+00 -0.32084811727E+02 -0.16232375539E+02  0.35967711391E+02  0.51100000000E-03 0.  1.
         12    1    3    3    0    0  0.60715826708E+01  0.36861479601E+02  0.23907970505E+02  0.44353397257E+02  0.00000000000E+00 0. -1.
</event>
<event>
 7    1  0.4400431E-015  0.9000771E+02  0.7816164E-02  0.1186339E+00
        -11   -1    0    0    0    0  0.00000000000E+00  0.00000000000E+00  0.45593999997E+02  0.45594000000E+02  0.51100000000E-03 0.  1.
         11   -1    0    0    0    0 -0.00000000000E+00 -0.00000000000E+00 -0.45593999997E+02  0.45594000000E+02  0.51100000000E-03 0. -1.
    9900012    2    1    2    0    0 -0.13892311251E+00 -0.11652615906E+01 -0.12629091375E+00  0.90007710374E+02  0.89999971351E+02 0.  0.
         12    1    1    2    0    0  0.13892311251E+00  0.11652615906E+01  0.12629091375E+00  0.11802896257E+01  0.00000000000E+00 0. -1.
         11    1    3    3    0    0  0.44353155047E+01  0.30147429147E+02 -0.25471977274E+02  0.39716006022E+02  0.51100000000E-03 0. -1.
        -11    1    3    3    0    0  0.98113730890E+01 -0.14893938261E+01  0.30823812613E+01  0.10391458529E+02  0.51100000000E-03 0.  1.
        -12    1    3    3    0    0 -0.14385611706E+02 -0.29823296911E+02  0.22263305099E+02  0.39900245823E+02  0.00000000000E+00 0.  1.
</event>
<event>
 7    1  0.4400431E-015  0.9000772E+02  0.7816164E-02  0.1186339E+00
        -11   -1    0    0    0    0  0.00000000000E+00  0.00000000000E+00  0.45593999997E+02  0.45594000000E+02  0.51100000000E-03 0. -1.
         11   -1    0    0    0    0 -0.00000000000E+00 -0.00000000000E+00 -0.45593999997E+02  0.45594000000E+02  0.51100000000E-03 0.  1.
    9900012    2    1    2    0    0 -0.87256648534E+00  0.60802454793E+00  0.51185004434E+00  0.90007721817E+02  0.89999982945E+02 0.  0.
         12    1    1    2    0    0  0.87256648534E+00 -0.60802454793E+00 -0.51185004434E+00  0.11802781834E+01  0.00000000000E+00 0. -1.
         11    1    3    3    0    0 -0.27204252835E+01  0.10427426876E+02  0.62927058776E+01  0.12479186372E+02  0.51100000000E-03 0. -1.
        -11    1    3    3    0    0  0.33771591506E+02  0.11731212662E+02 -0.13555629621E+02  0.38234759552E+02  0.51100000000E-03 0.  1.
         12    1    3    3    0    0 -0.31923732707E+02 -0.21550614990E+02  0.77747737881E+01  0.39293775892E+02  0.00000000000E+00 0. -1.
</event>
<event>
 7    1  0.4400431E-015  0.9000772E+02  0.7816164E-02  0.1186339E+00
        -11   -1    0    0    0    0  0.00000000000E+00  0.00000000000E+00  0.45593999997E+02  0.45594000000E+02  0.51100000000E-03 0. -1.
         11   -1    0    0    0    0 -0.00000000000E+00 -0.00000000000E+00 -0.45593999997E+02  0.45594000000E+02  0.51100000000E-03 0.  1.
    9900012    2    1    2    0    0  0.37174559755E+00  0.10878835003E+01 -0.26715659457E+00  0.90007721242E+02  0.89999982363E+02 0.  0.
         12    1    1    2    0    0 -0.37174559755E+00 -0.10878835003E+01  0.26715659457E+00  0.11802787575E+01  0.00000000000E+00 0. -1.
         11    1    3    3    0    0 -0.31610307668E+02  0.99796105330E+01 -0.17186885465E+02  0.37338896737E+02  0.51100000000E-03 0. -1.
        -11    1    3    3    0    0 -0.21426099110E+00  0.10265594465E+02 -0.23582370834E+01  0.10535161124E+02  0.51100000000E-03 0.  1.
        -12    1    3    3    0    0  0.32196314257E+02 -0.19157321498E+02  0.19277965953E+02  0.42133663382E+02  0.00000000000E+00 0.  1.
</event>
<event>
 7    1  0.4400431E-015  0.9000755E+02  0.7816164E-02  0.1186339E+00
        -11   -1    0    0    0    0  0.00000000000E+00  0.00000000000E+00  0.45593999997E+02  0.45594000000E+02  0.51100000000E-03 0.  1.
         11   -1    0    0    0    0 -0.00000000000E+00 -0.00000000000E+00 -0.45593999997E+02  0.45594000000E+02  0.51100000000E-03 0. -1.
    9900012    2    1    2    0    0  0.61653697328E+00 -0.99952505584E+00 -0.11952443253E+00  0.90007553361E+02  0.89999812266E+02 0.  0.
         12    1    1    2    0    0 -0.61653697328E+00  0.99952505584E+00  0.11952443253E+00  0.11804466386E+01  0.00000000000E+00 0. -1.
         11    1    3    3    0    0 -0.21242777264E+01 -0.91853212587E+01 -0.45631882516E+01  0.10474033118E+02  0.51100000000E-03 0. -1.
        -11    1    3    3    0    0 -0.46896294839E+01 -0.26747123462E+02 -0.22119356527E+02  0.35023808640E+02  0.51100000000E-03 0.  1.
         12    1    3    3    0    0  0.74304441836E+01  0.34932919665E+02  0.26563020346E+02  0.44509711603E+02  0.00000000000E+00 0. -1.
</event>
<event>
 7    1  0.4400431E-015  0.9000773E+02  0.7816164E-02  0.1186339E+00
        -11   -1    0    0    0    0  0.00000000000E+00  0.00000000000E+00  0.45593999997E+02  0.45594000000E+02  0.51100000000E-03 0.  1.
         11   -1    0    0    0    0 -0.00000000000E+00 -0.00000000000E+00 -0.45593999997E+02  0.45594000000E+02  0.51100000000E-03 0. -1.
    9900012    2    1    2    0    0 -0.36582849468E+00 -0.73719727069E+00  0.84601229214E+00  0.90007734309E+02  0.89999995602E+02 0.  0.
         12    1    1    2    0    0  0.36582849468E+00  0.73719727069E+00 -0.84601229214E+00  0.11802656912E+01  0.00000000000E+00 0. -1.
         11    1    3    3    0    0  0.21976934756E+02  0.13642458397E+02 -0.29603257523E+02  0.39312277835E+02  0.51100000000E-03 0. -1.
        -11    1    3    3    0    0 -0.23928594685E+01 -0.68867686565E+01 -0.53433587665E+01  0.90390730793E+01  0.51100000000E-03 0.  1.
        -12    1    3    3    0    0 -0.19949903782E+02 -0.74928870107E+01  0.35792628582E+02  0.41656383394E+02  0.00000000000E+00 0.  1.
</event>
<event>
 7    1  0.4400431E-015  0.9000777E+02  0.7816164E-02  0.1186339E+00
        -11   -1    0    0    0    0  0.00000000000E+00  0.00000000000E+00  0.45593999997E+02  0.45594000000E+02  0.51100000000E-03 0.  1.
         11   -1    0    0    0    0 -0.00000000000E+00 -0.00000000000E+00 -0.45593999997E+02  0.45594000000E+02  0.51100000000E-03 0. -1.
    9900012    2    1    2    0    0 -0.82672418977E+00  0.63132584982E+00 -0.55758887368E+00  0.90007766732E+02  0.90000028453E+02 0.  0.
         12    1    1    2    0    0  0.82672418977E+00 -0.63132584982E+00  0.55758887368E+00  0.11802332679E+01  0.00000000000E+00 0. -1.
         11    1    3    3    0    0  0.29316519730E+01 -0.19501666440E+02 -0.34116895598E+02  0.39406498737E+02  0.51100000000E-03 0. -1.
        -11    1    3    3    0    0 -0.46299237560E+01 -0.64730355362E+01  0.25112897504E+00  0.79623770987E+01  0.51100000000E-03 0.  1.
        -12    1    3    3    0    0  0.87154759324E+00  0.26606027826E+02  0.33308177749E+02  0.42638890896E+02  0.00000000000E+00 0.  1.
</event>
<event>
 7    1  0.4400431E-015  0.9000773E+02  0.7816164E-02  0.1186339E+00
        -11   -1    0    0    0    0  0.00000000000E+00  0.00000000000E+00  0.45593999997E+02  0.45594000000E+02  0.51100000000E-03 0.  1.
         11   -1    0    0    0    0 -0.00000000000E+00 -0.00000000000E+00 -0.45593999997E+02  0.45594000000E+02  0.51100000000E-03 0. -1.
    9900012    2    1    2    0    0  0.39207372143E-01  0.25438511338E+00  0.11518585025E+01  0.90007734346E+02  0.89999995640E+02 0.  0.
         12    1    1    2    0    0 -0.39207372143E-01 -0.25438511338E+00 -0.11518585025E+01  0.11802656538E+01  0.00000000000E+00 0. -1.
         11    1    3    3    0    0 -0.48256761928E+01 -0.79469230469E+01 -0.71363734673E+01  0.11720433574E+02  0.51100000000E-03 0. -1.
        -11    1    3    3    0    0 -0.17686545254E+01 -0.31860670890E+02 -0.10433141189E+02  0.33572025910E+02  0.51100000000E-03 0.  1.
         12    1    3    3    0    0  0.66335380904E+01  0.40061979050E+02  0.18721373159E+02  0.44715274862E+02  0.00000000000E+00 0. -1.
</event>
<event>
 7    1  0.4400431E-015  0.9000773E+02  0.7816164E-02  0.1186339E+00
        -11   -1    0    0    0    0  0.00000000000E+00  0.00000000000E+00  0.45593999997E+02  0.45594000000E+02  0.51100000000E-03 0. -1.
         11   -1    0    0    0    0 -0.00000000000E+00 -0.00000000000E+00 -0.45593999997E+02  0.45594000000E+02  0.51100000000E-03 0.  1.
    9900012    2    1    2    0    0 -0.87564924571E+00 -0.76366597548E+00 -0.20756873455E+00  0.90007732190E+02  0.89999993455E+02 0.  0.
         12    1    1    2    0    0  0.87564924571E+00  0.76366597548E+00  0.20756873455E+00  0.11802678099E+01  0.00000000000E+00 0. -1.
         11    1    3    3    0    0  0.29499248860E+02  0.20607528474E+02 -0.11033993328E+02  0.37638078088E+02  0.51100000000E-03 0. -1.
        -11    1    3    3    0    0 -0.36465972821E+01  0.32426343038E+01 -0.95402337918E+01  0.10715801885E+02  0.51100000000E-03 0.  1.
        -12    1    3    3    0    0 -0.26728300824E+02 -0.24613828753E+02  0.20366658385E+02  0.41653852218E+02  0.00000000000E+00 0.  1.
</event>
<event>
 7    1  0.4400431E-015  0.9000784E+02  0.7816164E-02  0.1186339E+00
        -11   -1    0    0    0    0  0.00000000000E+00  0.00000000000E+00  0.45593999997E+02  0.45594000000E+02  0.51100000000E-03 0.  1.
         11   -1    0    0    0    0 -0.00000000000E+00 -0.00000000000E+00 -0.45593999997E+02  0.45594000000E+02  0.51100000000E-03 0. -1.
    9900012    2    1    2    0    0  0.11084251201E+01  0.10568402142E+00  0.39116589153E+00  0.90007836404E+02  0.90000099044E+02 0.  0.
         12    1    1    2    0    0 -0.11084251201E+01 -0.10568402142E+00 -0.39116589153E+00  0.11801635963E+01  0.00000000000E+00 0. -1.
         11    1    3    3    0    0 -0.11328899463E+02  0.88876254332E+01  0.15521481273E+02  0.21171920793E+02  0.51100000000E-03 0. -1.
        -11    1    3    3    0    0 -0.11159500928E+02 -0.71961777595E+01  0.21478898792E+02  0.25251980692E+02  0.51100000000E-03 0.  1.
         12    1    3    3    0    0  0.23596825511E+02 -0.15857636522E+01 -0.36609214174E+02  0.43583934918E+02  0.00000000000E+00 0. -1.
</event>
<event>
 7    1  0.4400431E-015  0.9000763E+02  0.7816164E-02  0.1186339E+00
        -11   -1    0    0    0    0  0.00000000000E+00  0.00000000000E+00  0.45593999997E+02  0.45594000000E+02  0.51100000000E-03 0.  1.
         11   -1    0    0    0    0 -0.00000000000E+00 -0.00000000000E+00 -0.45593999997E+02  0.45594000000E+02  0.51100000000E-03 0. -1.
    9900012    2    1    2    0    0 -0.52663861560E+00  0.91529316347E+00 -0.52740392461E+00  0.90007633656E+02  0.89999893620E+02 0.  0.
         12    1    1    2    0    0  0.52663861560E+00 -0.91529316347E+00  0.52740392461E+00  0.11803663441E+01  0.00000000000E+00 0. -1.
         11    1    3    3    0    0  0.84509432768E+01  0.20476411764E+01  0.23421293643E+01  0.90053787747E+01  0.51100000000E-03 0. -1.
        -11    1    3    3    0    0 -0.26060379507E+02  0.31292391091E+01  0.32331042504E+02  0.41644109152E+02  0.51100000000E-03 0.  1.
         12    1    3    3    0    0  0.17082797614E+02 -0.42615871221E+01 -0.35200575793E+02  0.39358145729E+02  0.00000000000E+00 0. -1.
</event>
<event>
 7    1  0.4400431E-015  0.9000774E+02  0.7816164E-02  0.1186339E+00
        -11   -1    0    0    0    0  0.00000000000E+00  0.00000000000E+00  0.45593999997E+02  0.45594000000E+02  0.51100000000E-03 0.  1.
         11   -1    0    0    0    0 -0.00000000000E+00 -0.00000000000E+00 -0.45593999997E+02  0.45594000000E+02  0.51100000000E-03 0. -1.
    9900012    2    1    2    0    0 -0.11421978842E+00  0.95155209900E-01  0.11708582533E+01  0.90007741671E+02  0.90000003061E+02 0.  0.
         12    1    1    2    0    0  0.11421978842E+00 -0.95155209900E-01 -0.11708582533E+01  0.11802583291E+01  0.00000000000E+00 0. -1.
         11    1    3    3    0    0 -0.86556582199E+01  0.13818287278E+01  0.22741208329E+01  0.90554677226E+01  0.51100000000E-03 0. -1.
        -11    1    3    3    0    0  0.27801722666E+00 -0.19655138171E+02  0.34695064083E+02  0.39876675163E+02  0.51100000000E-03 0.  1.
         12    1    3    3    0    0  0.82634212048E+01  0.18368464653E+02 -0.35798326662E+02  0.41075598785E+02  0.00000000000E+00 0. -1.
</event>
<event>
 7    1  0.4400431E-015  0.9000779E+02  0.7816164E-02  0.1186339E+00
        -11   -1    0    0    0    0  0.00000000000E+00  0.00000000000E+00  0.45593999997E+02  0.45594000000E+02  0.51100000000E-03 0. -1.
         11   -1    0    0    0    0 -0.00000000000E+00 -0.00000000000E+00 -0.45593999997E+02  0.45594000000E+02  0.51100000000E-03 0.  1.
    9900012    2    1    2    0    0 -0.75570791877E+00  0.75070859680E+00  0.50817277886E+00  0.90007789244E+02  0.90000051262E+02 0.  0.
         12    1    1    2    0    0  0.75570791877E+00 -0.75070859680E+00 -0.50817277886E+00  0.11802107562E+01  0.00000000000E+00 0. -1.
         11    1    3    3    0    0  0.40175151604E+01  0.51180729784E+01 -0.61736257891E+01  0.89693229801E+01  0.51100000000E-03 0. -1.
        -11    1    3    3    0    0 -0.54004670049E+01 -0.15898886428E+02 -0.34445703825E+02  0.38320309834E+02  0.51100000000E-03 0.  1.
         12    1    3    3    0    0  0.62724392578E+00  0.11531522046E+02  0.41127502393E+02  0.42718156430E+02  0.00000000000E+00 0. -1.
</event>
<event>
 7    1  0.4400431E-015  0.9000737E+02  0.7816164E-02  0.1186340E+00
        -11   -1    0    0    0    0  0.00000000000E+00  0.00000000000E+00  0.45593999997E+02  0.45594000000E+02  0.51100000000E-03 0.  1.
         11   -1    0    0    0    0 -0.00000000000E+00 -0.00000000000E+00 -0.45593999997E+02  0.45594000000E+02  0.51100000000E-03 0. -1.
    9900012    2    1    2    0    0  0.86064912068E+00 -0.70436457163E+00  0.39627703361E+00  0.90007372266E+02  0.89999628779E+02 0.  0.
         12    1    1    2    0    0 -0.86064912068E+00  0.70436457163E+00 -0.39627703361E+00  0.11806277339E+01  0.00000000000E+00 0. -1.
         11    1    3    3    0    0 -0.14030621586E+02  0.19777258294E+02 -0.16391352717E+02  0.29269006336E+02  0.51100000000E-03 0. -1.
        -11    1    3    3    0    0 -0.21406386047E+01  0.57088037367E+01 -0.14985785339E+02  0.16178582640E+02  0.51100000000E-03 0.  1.
        -12    1    3    3    0    0  0.17031909311E+02 -0.26190426603E+02  0.31773415090E+02  0.44559783290E+02  0.00000000000E+00 0.  1.
</event>
<event>
 7    1  0.4400431E-015  0.9000763E+02  0.7816164E-02  0.1186339E+00
        -11   -1    0    0    0    0  0.00000000000E+00  0.00000000000E+00  0.45593999997E+02  0.45594000000E+02  0.51100000000E-03 0.  1.
         11   -1    0    0    0    0 -0.00000000000E+00 -0.00000000000E+00 -0.45593999997E+02  0.45594000000E+02  0.51100000000E-03 0. -1.
    9900012    2    1    2    0    0 -0.22004150453E+00  0.37538578195E+00  0.10972472226E+01  0.90007625391E+02  0.89999885247E+02 0.  0.
         12    1    1    2    0    0  0.22004150453E+00 -0.37538578195E+00 -0.10972472226E+01  0.11803746085E+01  0.00000000000E+00 0. -1.
         11    1    3    3    0    0  0.13746190468E+02  0.28923117557E+02  0.22070495010E+02  0.38892302990E+02  0.51100000000E-03 0. -1.
        -11    1    3    3    0    0 -0.51423321111E+01 -0.13107558673E-01  0.79957150731E+01  0.95065877759E+01  0.51100000000E-03 0.  1.
        -12    1    3    3    0    0 -0.88238998618E+01 -0.28534624216E+02 -0.28968962861E+02  0.41608734626E+02  0.00000000000E+00 0.  1.
</event>
<event>
 7    1  0.4400431E-015  0.9000771E+02  0.7816164E-02  0.1186339E+00
        -11   -1    0    0    0    0  0.00000000000E+00  0.00000000000E+00  0.45593999997E+02  0.45594000000E+02  0.51100000000E-03 0. -1.
         11   -1    0    0    0    0 -0.00000000000E+00 -0.00000000000E+00 -0.45593999997E+02  0.45594000000E+02  0.51100000000E-03 0.  1.
    9900012    2    1    2    0    0  0.77827332635E+00 -0.77050461347E+00 -0.44012133496E+00  0.90007706172E+02  0.89999967094E+02 0.  0.
         12    1    1    2    0    0 -0.77827332635E+00  0.77050461347E+00  0.44012133496E+00  0.11802938276E+01  0.00000000000E+00 0. -1.
         11    1    3    3    0    0  0.18487469326E+02 -0.20960045081E+02  0.22422395249E+02  0.35831185033E+02  0.51100000000E-03 0. -1.
        -11    1    3    3    0    0  0.94894324257E+01 -0.53871687956E+01 -0.96661451166E+01  0.14577560738E+02  0.51100000000E-03 0.  1.
        -12    1    3    3    0    0 -0.27198628425E+02  0.25576709263E+02 -0.13196371468E+02  0.39598960402E+02  0.00000000000E+00 0.  1.
</event>
<event>
 7    1  0.4400431E-015  0.9000774E+02  0.7816164E-02  0.1186339E+00
        -11   -1    0    0    0    0  0.00000000000E+00  0.00000000000E+00  0.45593999997E+02  0.45594000000E+02  0.51100000000E-03 0.  1.
         11   -1    0    0    0    0 -0.00000000000E+00 -0.00000000000E+00 -0.45593999997E+02  0.45594000000E+02  0.51100000000E-03 0. -1.
    9900012    2    1    2    0    0 -0.15259234341E+00 -0.11381893075E+01 -0.27248474830E+00  0.90007742714E+02  0.90000004118E+02 0.  0.
         12    1    1    2    0    0  0.15259234341E+00  0.11381893075E+01  0.27248474830E+00  0.11802572859E+01  0.00000000000E+00 0. -1.
         11    1    3    3    0    0 -0.29178912082E+01 -0.31958329460E+01  0.71567218092E+01  0.83633787812E+01  0.51100000000E-03 0. -1.
        -11    1    3    3    0    0 -0.33083295214E+02  0.17193214047E+02 -0.17884055647E+02  0.41351547470E+02  0.51100000000E-03 0.  1.
         12    1    3    3    0    0  0.35848594079E+02 -0.15135570408E+02  0.10454849089E+02  0.40292816463E+02  0.00000000000E+00 0. -1.
</event>
<event>
 7    1  0.4400431E-015  0.9000791E+02  0.7816164E-02  0.1186339E+00
        -11   -1    0    0    0    0  0.00000000000E+00  0.00000000000E+00  0.45593999997E+02  0.45594000000E+02  0.51100000000E-03 0.  1.
         11   -1    0    0    0    0 -0.00000000000E+00 -0.00000000000E+00 -0.45593999997E+02  0.45594000000E+02  0.51100000000E-03 0. -1.
    9900012    2    1    2    0    0 -0.21928389571E+00 -0.78110165542E+00  0.85697507164E+00  0.90007910386E+02  0.90000174003E+02 0.  0.
         12    1    1    2    0    0  0.21928389571E+00  0.78110165542E+00 -0.85697507164E+00  0.11800896137E+01  0.00000000000E+00 0. -1.
         11    1    3    3    0    0 -0.26938155481E+02 -0.65760931366E+01 -0.22552714832E+02  0.35742609981E+02  0.51100000000E-03 0. -1.
        -11    1    3    3    0    0 -0.95473647435E+01 -0.45857104334E+01  0.16576110979E+01  0.10720475201E+02  0.51100000000E-03 0.  1.
        -12    1    3    3    0    0  0.36266236329E+02  0.10380701915E+02  0.21752078806E+02  0.43544825204E+02  0.00000000000E+00 0.  1.
</event>
<event>
 7    1  0.4400431E-015  0.9000774E+02  0.7816164E-02  0.1186339E+00
        -11   -1    0    0    0    0  0.00000000000E+00  0.00000000000E+00  0.45593999997E+02  0.45594000000E+02  0.51100000000E-03 0.  1.
         11   -1    0    0    0    0 -0.00000000000E+00 -0.00000000000E+00 -0.45593999997E+02  0.45594000000E+02  0.51100000000E-03 0. -1.
    9900012    2    1    2    0    0  0.70734213460E+00  0.94259725106E+00  0.64714755514E-01  0.90007741353E+02  0.90000002739E+02 0.  0.
         12    1    1    2    0    0 -0.70734213460E+00 -0.94259725106E+00 -0.64714755514E-01  0.11802586465E+01  0.00000000000E+00 0. -1.
         11    1    3    3    0    0  0.78665006753E+01  0.35678797853E+02 -0.15792854432E+02  0.39802923266E+02  0.51100000000E-03 0. -1.
        -11    1    3    3    0    0 -0.15592852752E+02 -0.65952210322E+01  0.23564281191E+00  0.16931908493E+02  0.51100000000E-03 0.  1.
        -12    1    3    3    0    0  0.84336942114E+01 -0.28140979570E+02  0.15621926375E+02  0.33272909595E+02  0.00000000000E+00 0.  1.
</event>
<event>
 7    1  0.4400431E-015  0.9000764E+02  0.7816164E-02  0.1186339E+00
        -11   -1    0    0    0    0  0.00000000000E+00  0.00000000000E+00  0.45593999997E+02  0.45594000000E+02  0.51100000000E-03 0. -1.
         11   -1    0    0    0    0 -0.00000000000E+00 -0.00000000000E+00 -0.45593999997E+02  0.45594000000E+02  0.51100000000E-03 0.  1.
    9900012    2    1    2    0    0  0.75930163727E+00  0.17872817653E+00 -0.88587039805E+00  0.90007640267E+02  0.89999900318E+02 0.  0.
         12    1    1    2    0    0 -0.75930163727E+00 -0.17872817653E+00  0.88587039805E+00  0.11803597331E+01  0.00000000000E+00 0. -1.
         11    1    3    3    0    0 -0.27367663307E+01  0.70040609295E+01  0.84044811401E+01  0.11277502514E+02  0.51100000000E-03 0. -1.
        -11    1    3    3    0    0  0.39875937710E+02  0.96722533731E+00  0.17362498642E+01  0.39925436716E+02  0.51100000000E-03 0.  1.
         12    1    3    3    0    0 -0.36379869742E+02 -0.77925580903E+01 -0.11026601402E+02  0.38804701037E+02  0.00000000000E+00 0. -1.
</event>
<event>
 7    1  0.4400431E-015  0.9000771E+02  0.7816164E-02  0.1186339E+00
        -11   -1    0    0    0    0  0.00000000000E+00  0.00000000000E+00  0.45593999997E+02  0.45594000000E+02  0.51100000000E-03 0. -1.
         11   -1    0    0    0    0 -0.00000000000E+00 -0.00000000000E+00 -0.45593999997E+02  0.45594000000E+02  0.51100000000E-03 0.  1.
    9900012    2    1    2    0    0 -0.90949177749E+00  0.27950956842E+00  0.69841734074E+00  0.90007708649E+02  0.89999969603E+02 0.  0.
         12    1    1    2    0    0  0.90949177749E+00 -0.27950956842E+00 -0.69841734074E+00  0.11802913513E+01  0.00000000000E+00 0. -1.
         11    1    3    3    0    0 -0.67714248321E+01 -0.44242920441E+01 -0.76640960066E+00  0.81248962015E+01  0.51100000000E-03 0. -1.
        -11    1    3    3    0    0 -0.32728734787E+02  0.53295190828E+01 -0.18978925394E+02  0.38206981872E+02  0.51100000000E-03 0.  1.
         12    1    3    3    0    0  0.38590667842E+02 -0.62571747022E+00  0.20443752335E+02  0.43675830575E+02  0.00000000000E+00 0. -1.
</event>
<event>
 7    1  0.4400431E-015  0.9000776E+02  0.7816164E-02  0.1186339E+00
        -11   -1    0    0    0    0  0.00000000000E+00  0.00000000000E+00  0.45593999997E+02  0.45594000000E+02  0.51100000000E-03 0.  1.
         11   -1    0    0    0    0 -0.00000000000E+00 -0.00000000000E+00 -0.45593999997E+02  0.45594000000E+02  0.51100000000E-03 0. -1.
    9900012    2    1    2    0    0 -0.92084480427E+00 -0.73816441264E+00 -0.11114937104E-01  0.90007760450E+02  0.90000022088E+02 0.  0.
         12    1    1    2    0    0  0.92084480427E+00  0.73816441264E+00  0.11114937104E-01  0.11802395500E+01  0.00000000000E+00 0. -1.
         11    1    3    3    0    0  0.80753146656E+01 -0.38051369938E+01  0.41358764634E+01  0.98384576470E+01  0.51100000000E-03 0. -1.
        -11    1    3    3    0    0 -0.21465237045E+02 -0.33866979155E+02  0.41610707259E+01  0.40311824424E+02  0.51100000000E-03 0.  1.
         12    1    3    3    0    0  0.12469077575E+02  0.36933951737E+02 -0.83080621263E+01  0.39857478379E+02  0.00000000000E+00 0. -1.
</event>
<event>
 7    1  0.4400431E-015  0.9000787E+02  0.7816164E-02  0.1186339E+00
        -11   -1    0    0    0    0  0.00000000000E+00  0.00000000000E+00  0.45593999997E+02  0.45594000000E+02  0.51100000000E-03 0.  1.
         11   -1    0    0    0    0 -0.00000000000E+00 -0.00000000000E+00 -0.45593999997E+02  0.45594000000E+02  0.51100000000E-03 0. -1.
    9900012    2    1    2    0    0 -0.10757520351E+00 -0.11518508915E+01 -0.23320668899E+00  0.90007865152E+02  0.90000128171E+02 0.  0.
         12    1    1    2    0    0  0.10757520351E+00  0.11518508915E+01  0.23320668899E+00  0.11801348484E+01  0.00000000000E+00 0. -1.
         11    1    3    3    0    0 -0.26871973875E+02 -0.12655228358E+02 -0.19902591284E+02  0.35754313373E+02  0.51100000000E-03 0. -1.
        -11    1    3    3    0    0 -0.26600076052E+01 -0.51372751810E+01 -0.84789615402E+01  0.10264503193E+02  0.51100000000E-03 0.  1.
        -12    1    3    3    0    0  0.29424406277E+02  0.16640652648E+02  0.28148346135E+02  0.43989048585E+02  0.00000000000E+00 0.  1.
</event>
<event>
 7    1  0.4400431E-015  0.9000774E+02  0.7816164E-02  0.1186339E+00
        -11   -1    0    0    0    0  0.00000000000E+00  0.00000000000E+00  0.45593999997E+02  0.45594000000E+02  0.51100000000E-03 0. -1.
         11   -1    0    0    0    0 -0.00000000000E+00 -0.00000000000E+00 -0.45593999997E+02  0.45594000000E+02  0.51100000000E-03 0.  1.
    9900012    2    1    2    0    0 -0.60977477385E+00 -0.66728644837E+00 -0.75889264796E+00  0.90007739635E+02  0.90000000998E+02 0.  0.
         12    1    1    2    0    0  0.60977477385E+00  0.66728644837E+00  0.75889264796E+00  0.11802603654E+01  0.00000000000E+00 0. -1.
         11    1    3    3    0    0  0.19040362016E+02 -0.24380747404E+02  0.11695444117E+02  0.33071734805E+02  0.51100000000E-03 0. -1.
        -11    1    3    3    0    0  0.93733342493E+01  0.15343651853E+01 -0.17647324531E+02  0.20041001343E+02  0.51100000000E-03 0.  1.
        -12    1    3    3    0    0 -0.29023471039E+02  0.22179095770E+02  0.51929877666E+01  0.36895003486E+02  0.00000000000E+00 0.  1.
</event>
<event>
 7    1  0.4400431E-015  0.9000780E+02  0.7816164E-02  0.1186339E+00
        -11   -1    0    0    0    0  0.00000000000E+00  0.00000000000E+00  0.45593999997E+02  0.45594000000E+02  0.51100000000E-03 0.  1.
         11   -1    0    0    0    0 -0.00000000000E+00 -0.00000000000E+00 -0.45593999997E+02  0.45594000000E+02  0.51100000000E-03 0. -1.
    9900012    2    1    2    0    0 -0.83588326287E-01 -0.71109801498E+00 -0.93820149530E+00  0.90007801101E+02  0.90000063276E+02 0.  0.
         12    1    1    2    0    0  0.83588326287E-01  0.71109801498E+00  0.93820149530E+00  0.11801988989E+01  0.00000000000E+00 0. -1.
         11    1    3    3    0    0  0.65586738199E+01  0.13015406673E+01  0.70553599287E+01  0.97205099850E+01  0.51100000000E-03 0. -1.
        -11    1    3    3    0    0  0.33382177317E+02  0.13411785659E+02  0.27123548755E+01  0.36077730336E+02  0.51100000000E-03 0.  1.
         12    1    3    3    0    0 -0.40024439463E+02 -0.15424424341E+02 -0.10705916299E+02  0.44209560780E+02  0.00000000000E+00 0. -1.
</event>
<event>
 7    1  0.4400431E-015  0.9000771E+02  0.7816164E-02  0.1186339E+00
        -11   -1    0    0    0    0  0.00000000000E+00  0.00000000000E+00  0.45593999997E+02  0.45594000000E+02  0.51100000000E-03 0.  1.
         11   -1    0    0    0    0 -0.00000000000E+00 -0.00000000000E+00 -0.45593999997E+02  0.45594000000E+02  0.51100000000E-03 0. -1.
    9900012    2    1    2    0    0  0.74307778361E+00  0.89725268469E+00 -0.18934248309E+00  0.90007712938E+02  0.89999973949E+02 0.  0.
         12    1    1    2    0    0 -0.74307778361E+00 -0.89725268469E+00  0.18934248309E+00  0.11802870619E+01  0.00000000000E+00 0. -1.
         11    1    3    3    0    0  0.23188616355E+02 -0.52966345841E-01 -0.22350346504E+02  0.32206408104E+02  0.51100000000E-03 0. -1.
        -11    1    3    3    0    0  0.11978613426E+02  0.58509115713E+01 -0.44081210380E+01  0.14041078206E+02  0.51100000000E-03 0.  1.
        -12    1    3    3    0    0 -0.34424151998E+02 -0.49006925408E+01  0.26569125059E+02  0.43760226628E+02  0.00000000000E+00 0.  1.
</event>
<event>
 7    1  0.4400431E-015  0.9000770E+02  0.7816164E-02  0.1186339E+00
        -11   -1    0    0    0    0  0.00000000000E+00  0.00000000000E+00  0.45593999997E+02  0.45594000000E+02  0.51100000000E-03 0. -1.
         11   -1    0    0    0    0 -0.00000000000E+00 -0.00000000000E+00 -0.45593999997E+02  0.45594000000E+02  0.51100000000E-03 0.  1.
    9900012    2    1    2    0    0 -0.39698962139E+00  0.10990219096E+01 -0.16631221156E+00  0.90007699331E+02  0.89999960162E+02 0.  0.
         12    1    1    2    0    0  0.39698962139E+00 -0.10990219096E+01  0.16631221156E+00  0.11803006689E+01  0.00000000000E+00 0. -1.
         11    1    3    3    0    0 -0.43224782745E+01  0.40673300243E+01 -0.54414240159E+01  0.80520859125E+01  0.51100000000E-03 0. -1.
        -11    1    3    3    0    0  0.22886978238E+02  0.18775981403E+02 -0.26004252442E+02  0.39402695287E+02  0.51100000000E-03 0.  1.
         12    1    3    3    0    0 -0.18961489585E+02 -0.21744289518E+02  0.31279364246E+02  0.42552918132E+02  0.00000000000E+00 0. -1.
</event>
<event>
 7    1  0.4400431E-015  0.9000752E+02  0.7816164E-02  0.1186339E+00
        -11   -1    0    0    0    0  0.00000000000E+00  0.00000000000E+00  0.45593999997E+02  0.45594000000E+02  0.51100000000E-03 0. -1.
         11   -1    0    0    0    0 -0.00000000000E+00 -0.00000000000E+00 -0.45593999997E+02  0.45594000000E+02  0.51100000000E-03 0.  1.
    9900012    2    1    2    0    0  0.60424094343E+00 -0.10133720267E+01 -0.38741797096E-01  0.90007520898E+02  0.89999779374E+02 0.  0.
         12    1    1    2    0    0 -0.60424094343E+00  0.10133720267E+01  0.38741797096E-01  0.11804791015E+01  0.00000000000E+00 0. -1.
         11    1    3    3    0    0  0.28869891638E+02 -0.22496348905E+02 -0.13348281054E+02  0.38958092415E+02  0.51100000000E-03 0. -1.
        -11    1    3    3    0    0  0.64550940503E+01  0.34332152979E+00  0.76372308222E+01  0.10005668582E+02  0.51100000000E-03 0.  1.
        -12    1    3    3    0    0 -0.34720744745E+02  0.21139655349E+02  0.56723084345E+01  0.41043759902E+02  0.00000000000E+00 0.  1.
</event>
<event>
 7    1  0.4400431E-015  0.9000773E+02  0.7816164E-02  0.1186339E+00
        -11   -1    0    0    0    0  0.00000000000E+00  0.00000000000E+00  0.45593999997E+02  0.45594000000E+02  0.51100000000E-03 0.  1.
         11   -1    0    0    0    0 -0.00000000000E+00 -0.00000000000E+00 -0.45593999997E+02  0.45594000000E+02  0.51100000000E-03 0. -1.
    9900012    2    1    2    0    0 -0.70604234573E+00 -0.74739773594E+00  0.57961068573E+00  0.90007725576E+02  0.89999986753E+02 0.  0.
         12    1    1    2    0    0  0.70604234573E+00  0.74739773594E+00 -0.57961068573E+00  0.11802744243E+01  0.00000000000E+00 0. -1.
         11    1    3    3    0    0 -0.77062020125E+00 -0.35496322017E+01  0.90932073302E+01  0.97918417100E+01  0.51100000000E-03 0. -1.
        -11    1    3    3    0    0 -0.27622666609E+02  0.23518166576E+02  0.14074337107E+02  0.38912759282E+02  0.51100000000E-03 0.  1.
         12    1    3    3    0    0  0.27687244464E+02 -0.20715932110E+02 -0.22587933752E+02  0.41303124584E+02  0.00000000000E+00 0. -1.
</event>
<event>
 7    1  0.4400431E-015  0.9000787E+02  0.7816164E-02  0.1186339E+00
        -11   -1    0    0    0    0  0.00000000000E+00  0.00000000000E+00  0.45593999997E+02  0.45594000000E+02  0.51100000000E-03 0.  1.
         11   -1    0    0    0    0 -0.00000000000E+00 -0.00000000000E+00 -0.45593999997E+02  0.45594000000E+02  0.51100000000E-03 0. -1.
    9900012    2    1    2    0    0  0.26640095937E+00 -0.98977099799E+00  0.58488887604E+00  0.90007868187E+02  0.90000131247E+02 0.  0.
         12    1    1    2    0    0 -0.26640095937E+00  0.98977099799E+00 -0.58488887604E+00  0.11801318134E+01  0.00000000000E+00 0. -1.
         11    1    3    3    0    0 -0.40973234654E+00  0.30724288545E+02 -0.20679004400E+02  0.37037427157E+02  0.51100000000E-03 0. -1.
        -11    1    3    3    0    0 -0.58534961279E+01  0.52948501002E+01 -0.27665166869E+01  0.83637592829E+01  0.51100000000E-03 0.  1.
        -12    1    3    3    0    0  0.65296294338E+01 -0.37008909643E+02  0.24030409962E+02  0.44606681747E+02  0.00000000000E+00 0.  1.
</event>
<event>
 7    1  0.4400431E-015  0.9000761E+02  0.7816164E-02  0.1186339E+00
        -11   -1    0    0    0    0  0.00000000000E+00  0.00000000000E+00  0.45593999997E+02  0.45594000000E+02  0.51100000000E-03 0.  1.
         11   -1    0    0    0    0 -0.00000000000E+00 -0.00000000000E+00 -0.45593999997E+02  0.45594000000E+02  0.51100000000E-03 0. -1.
    9900012    2    1    2    0    0 -0.10640738366E+01 -0.46079184745E+00  0.22076843322E+00  0.90007609828E+02  0.89999869478E+02 0.  0.
         12    1    1    2    0    0  0.10640738366E+01  0.46079184745E+00 -0.22076843322E+00  0.11803901717E+01  0.00000000000E+00 0. -1.
         11    1    3    3    0    0  0.42102250108E+01  0.65917904694E+01 -0.15880499737E+01  0.79812028676E+01  0.51100000000E-03 0. -1.
        -11    1    3    3    0    0  0.14016849070E+02  0.30511183996E+02  0.16374968416E+02  0.37356980574E+02  0.51100000000E-03 0.  1.
         12    1    3    3    0    0 -0.19291147918E+02 -0.37563766313E+02 -0.14566150009E+02  0.44669426387E+02  0.00000000000E+00 0. -1.
</event>
<event>
 7    1  0.4400431E-015  0.9000801E+02  0.7816164E-02  0.1186339E+00
        -11   -1    0    0    0    0  0.00000000000E+00  0.00000000000E+00  0.45593999997E+02  0.45594000000E+02  0.51100000000E-03 0. -1.
         11   -1    0    0    0    0 -0.00000000000E+00 -0.00000000000E+00 -0.45593999997E+02  0.45594000000E+02  0.51100000000E-03 0.  1.
    9900012    2    1    2    0    0  0.53455072426E+00 -0.74675242037E+00 -0.74094710146E+00  0.90008005821E+02  0.90000270698E+02 0.  0.
         12    1    1    2    0    0 -0.53455072426E+00  0.74675242037E+00  0.74094710146E+00  0.11799941785E+01  0.00000000000E+00 0. -1.
         11    1    3    3    0    0 -0.16456549947E+02  0.65396544944E+01  0.19123646083E+00  0.17709367259E+02  0.51100000000E-03 0. -1.
        -11    1    3    3    0    0  0.34265678063E+02 -0.16190631729E+02 -0.21850182271E+02  0.43745899402E+02  0.51100000000E-03 0.  1.
         12    1    3    3    0    0 -0.17274577392E+02  0.89042248144E+01  0.20917998709E+02  0.28552739161E+02  0.00000000000E+00 0. -1.
</event>
<event>
 7    1  0.4400431E-015  0.9000769E+02  0.7816164E-02  0.1186339E+00
        -11   -1    0    0    0    0  0.00000000000E+00  0.00000000000E+00  0.45593999997E+02  0.45594000000E+02  0.51100000000E-03 0. -1.
         11   -1    0    0    0    0 -0.00000000000E+00 -0.00000000000E+00 -0.45593999997E+02  0.45594000000E+02  0.51100000000E-03 0.  1.
    9900012    2    1    2    0    0  0.38997199468E+00  0.97277457714E+00 -0.54291230660E+00  0.90007693977E+02  0.89999954738E+02 0.  0.
         12    1    1    2    0    0 -0.38997199468E+00 -0.97277457714E+00  0.54291230660E+00  0.11803060227E+01  0.00000000000E+00 0. -1.
         11    1    3    3    0    0  0.85514776235E+01 -0.37597781511E+01  0.35695763406E+02  0.36897848538E+02  0.51100000000E-03 0. -1.
        -11    1    3    3    0    0 -0.40644238738E+01  0.31291349590E+01  0.75352200760E+01  0.91154028365E+01  0.51100000000E-03 0.  1.
        -12    1    3    3    0    0 -0.40970817550E+01  0.16034177692E+01 -0.43773895789E+02  0.43994442603E+02  0.00000000000E+00 0.  1.
</event>
<event>
 7    1  0.4400431E-015  0.9000775E+02  0.7816164E-02  0.1186339E+00
        -11   -1    0    0    0    0  0.00000000000E+00  0.00000000000E+00  0.45593999997E+02  0.45594000000E+02  0.51100000000E-03 0.  1.
         11   -1    0    0    0    0 -0.00000000000E+00 -0.00000000000E+00 -0.45593999997E+02  0.45594000000E+02  0.51100000000E-03 0. -1.
    9900012    2    1    2    0    0  0.52387302736E+00  0.10305057748E+01 -0.23789742242E+00  0.90007754142E+02  0.90000015697E+02 0.  0.
         12    1    1    2    0    0 -0.52387302736E+00 -0.10305057748E+01  0.23789742242E+00  0.11802458576E+01  0.00000000000E+00 0. -1.
         11    1    3    3    0    0 -0.30446602522E+01 -0.32742934759E+01 -0.21765617177E+02  0.22220104527E+02  0.51100000000E-03 0. -1.
        -11    1    3    3    0    0  0.11408156478E+02 -0.24098030566E+02 -0.61498611973E+01  0.27362052269E+02  0.51100000000E-03 0.  1.
         12    1    3    3    0    0 -0.78396231981E+01  0.28402829816E+02  0.27677580952E+02  0.40425597347E+02  0.00000000000E+00 0. -1.
</event>
<event>
 7    1  0.4400431E-015  0.9000769E+02  0.7816164E-02  0.1186339E+00
        -11   -1    0    0    0    0  0.00000000000E+00  0.00000000000E+00  0.45593999997E+02  0.45594000000E+02  0.51100000000E-03 0.  1.
         11   -1    0    0    0    0 -0.00000000000E+00 -0.00000000000E+00 -0.45593999997E+02  0.45594000000E+02  0.51100000000E-03 0. -1.
    9900012    2    1    2    0    0  0.18765726369E+00  0.63147701807E-01  0.11635812138E+01  0.90007693209E+02  0.89999953959E+02 0.  0.
         12    1    1    2    0    0 -0.18765726369E+00 -0.63147701807E-01 -0.11635812138E+01  0.11803067914E+01  0.00000000000E+00 0. -1.
         11    1    3    3    0    0  0.21397149970E+01  0.10305872604E+02 -0.22760918840E+01  0.10768936110E+02  0.51100000000E-03 0. -1.
        -11    1    3    3    0    0  0.35921472884E+02 -0.18489724244E+02  0.14555944655E+01  0.40426981984E+02  0.51100000000E-03 0.  1.
         12    1    3    3    0    0 -0.37873530618E+02  0.82469993414E+01  0.19840786323E+01  0.38811775115E+02  0.00000000000E+00 0. -1.
</event>
<event>
 7    1  0.4400431E-015  0.9000781E+02  0.7816164E-02  0.1186339E+00
        -11   -1    0    0    0    0  0.00000000000E+00  0.00000000000E+00  0.45593999997E+02  0.45594000000E+02  0.51100000000E-03 0. -1.
         11   -1    0    0    0    0 -0.00000000000E+00 -0.00000000000E+00 -0.45593999997E+02  0.45594000000E+02  0.51100000000E-03 0.  1.
    9900012    2    1    2    0    0  0.11163065707E+01  0.96193554603E-01 -0.37073554207E+00  0.90007814251E+02  0.90000076599E+02 0.  0.
         12    1    1    2    0    0 -0.11163065707E+01 -0.96193554603E-01  0.37073554207E+00  0.11801857488E+01  0.00000000000E+00 0. -1.
         11    1    3    3    0    0  0.25349408051E+01  0.20369023579E+02 -0.15540411280E+02  0.25745435119E+02  0.51100000000E-03 0. -1.
        -11    1    3    3    0    0  0.11324377526E+02 -0.33049837322E+02 -0.70476562116E+01  0.35639903643E+02  0.51100000000E-03 0.  1.
         12    1    3    3    0    0 -0.12743011761E+02  0.12777007297E+02  0.22217331949E+02  0.28622475489E+02  0.00000000000E+00 0. -1.
</event>
<event>
 7    1  0.4400431E-015  0.9000833E+02  0.7816164E-02  0.1186338E+00
        -11   -1    0    0    0    0  0.00000000000E+00  0.00000000000E+00  0.45593999997E+02  0.45594000000E+02  0.51100000000E-03 0.  1.
         11   -1    0    0    0    0 -0.00000000000E+00 -0.00000000000E+00 -0.45593999997E+02  0.45594000000E+02  0.51100000000E-03 0. -1.
    9900012    2    1    2    0    0 -0.76545672850E+00 -0.70473971734E+00  0.55591666130E+00  0.90008328263E+02  0.90000597394E+02 0.  0.
         12    1    1    2    0    0  0.76545672850E+00  0.70473971734E+00 -0.55591666130E+00  0.11796717368E+01  0.00000000000E+00 0. -1.
         11    1    3    3    0    0  0.12924478908E+02  0.21228737579E+02 -0.27336356341E+02  0.36945606403E+02  0.51100000000E-03 0. -1.
        -11    1    3    3    0    0  0.77738639308E+01  0.47930765475E+01  0.43440051683E+00  0.91430436548E+01  0.51100000000E-03 0.  1.
        -12    1    3    3    0    0 -0.21463799567E+02 -0.26726553844E+02  0.27457872486E+02  0.43919678205E+02  0.00000000000E+00 0.  1.
</event>
<event>
 7    1  0.4400431E-015  0.9000772E+02  0.7816164E-02  0.1186339E+00
        -11   -1    0    0    0    0  0.00000000000E+00  0.00000000000E+00  0.45593999997E+02  0.45594000000E+02  0.51100000000E-03 0. -1.
         11   -1    0    0    0    0 -0.00000000000E+00 -0.00000000000E+00 -0.45593999997E+02  0.45594000000E+02  0.51100000000E-03 0.  1.
    9900012    2    1    2    0    0 -0.33656315550E+00 -0.10142914852E+01 -0.50099746375E+00  0.90007720189E+02  0.89999981295E+02 0.  0.
         12    1    1    2    0    0  0.33656315550E+00  0.10142914852E+01  0.50099746375E+00  0.11802798114E+01  0.00000000000E+00 0. -1.
         11    1    3    3    0    0 -0.40096087695E+01  0.16973803512E+02  0.38974551462E+02  0.42698976921E+02  0.51100000000E-03 0. -1.
        -11    1    3    3    0    0  0.52154910035E+01 -0.27087291303E+01 -0.11060825498E+01  0.59801320033E+01  0.51100000000E-03 0.  1.
        -12    1    3    3    0    0 -0.15424453895E+01 -0.15279365866E+02 -0.38369466376E+02  0.41328611265E+02  0.00000000000E+00 0.  1.
</event>
<event>
 7    1  0.4400431E-015  0.9000780E+02  0.7816164E-02  0.1186339E+00
        -11   -1    0    0    0    0  0.00000000000E+00  0.00000000000E+00  0.45593999997E+02  0.45594000000E+02  0.51100000000E-03 0.  1.
         11   -1    0    0    0    0 -0.00000000000E+00 -0.00000000000E+00 -0.45593999997E+02  0.45594000000E+02  0.51100000000E-03 0. -1.
    9900012    2    1    2    0    0  0.57477152402E+00  0.21720948829E+00  0.10076361063E+01  0.90007799683E+02  0.90000061838E+02 0.  0.
         12    1    1    2    0    0 -0.57477152402E+00 -0.21720948829E+00 -0.10076361063E+01  0.11802003175E+01  0.00000000000E+00 0. -1.
         11    1    3    3    0    0  0.40060656041E+01 -0.11507888586E+02 -0.40815104030E+01  0.12850633788E+02  0.51100000000E-03 0. -1.
        -11    1    3    3    0    0  0.34025753599E+02  0.89583720580E+01  0.15097348258E+02  0.38287520978E+02  0.51100000000E-03 0.  1.
         12    1    3    3    0    0 -0.37457047680E+02  0.27667260158E+01 -0.10008201749E+02  0.38869644917E+02  0.00000000000E+00 0. -1.
</event>
<event>
 7    1  0.5136052E-015  0.9000760E+02  0.7816164E-02  0.1186339E+00
        -11   -1    0    0    0    0  0.00000000000E+00  0.00000000000E+00  0.45593999997E+02  0.45594000000E+02  0.51100000000E-03 0. -1.
         11   -1    0    0    0    0 -0.00000000000E+00 -0.00000000000E+00 -0.45593999997E+02  0.45594000000E+02  0.51100000000E-03 0.  1.
    9900012    2    1    2    0    0 -0.91514481240E-01 -0.11685134624E+01 -0.13980338378E+00  0.90007600238E+02  0.89999859761E+02 0.  0.
         12    1    1    2    0    0  0.91514481240E-01  0.11685134624E+01  0.13980338378E+00  0.11803997621E+01  0.00000000000E+00 0. -1.
         11    1    3    3    0    0  0.14362937000E+02  0.30867648300E+02  0.15978144792E+02  0.37608599842E+02  0.51100000000E-03 0. -1.
        -11    1    3    3    0    0  0.90387858751E+01  0.31418744753E+00  0.59857854194E+00  0.90640311330E+01  0.51100000000E-03 0.  1.
        -12    1    3    3    0    0 -0.23493237356E+02 -0.32350349210E+02 -0.16716526717E+02  0.43334969263E+02  0.00000000000E+00 0.  1.
</event>
<event>
 7    1  0.4400431E-015  0.9000773E+02  0.7816164E-02  0.1186339E+00
        -11   -1    0    0    0    0  0.00000000000E+00  0.00000000000E+00  0.45593999997E+02  0.45594000000E+02  0.51100000000E-03 0.  1.
         11   -1    0    0    0    0 -0.00000000000E+00 -0.00000000000E+00 -0.45593999997E+02  0.45594000000E+02  0.51100000000E-03 0. -1.
    9900012    2    1    2    0    0  0.10175091180E+01  0.57800965660E+00 -0.15366025092E+00  0.90007732471E+02  0.89999993739E+02 0.  0.
         12    1    1    2    0    0 -0.10175091180E+01 -0.57800965660E+00  0.15366025092E+00  0.11802675295E+01  0.00000000000E+00 0. -1.
         11    1    3    3    0    0  0.19801321146E+01 -0.25698233524E+01  0.77813727088E+01  0.84305798584E+01  0.51100000000E-03 0. -1.
        -11    1    3    3    0    0  0.27572343038E+02 -0.16915071443E+02  0.18992264210E+02  0.37510796347E+02  0.51100000000E-03 0.  1.
         12    1    3    3    0    0 -0.28534966035E+02  0.20062904452E+02 -0.26927297169E+02  0.44066356265E+02  0.00000000000E+00 0. -1.
</event>
<event>
 7    1  0.4400431E-015  0.9000786E+02  0.7816164E-02  0.1186339E+00
        -11   -1    0    0    0    0  0.00000000000E+00  0.00000000000E+00  0.45593999997E+02  0.45594000000E+02  0.51100000000E-03 0.  1.
         11   -1    0    0    0    0 -0.00000000000E+00 -0.00000000000E+00 -0.45593999997E+02  0.45594000000E+02  0.51100000000E-03 0. -1.
    9900012    2    1    2    0    0  0.10718535430E+00 -0.75885366936E+00  0.89743369814E+00  0.90007858130E+02  0.90000121057E+02 0.  0.
         12    1    1    2    0    0 -0.10718535430E+00  0.75885366936E+00 -0.89743369814E+00  0.11801418704E+01  0.00000000000E+00 0. -1.
         11    1    3    3    0    0  0.67366612260E+00  0.45888504530E+01  0.76117944694E+01  0.89135172536E+01  0.51100000000E-03 0. -1.
        -11    1    3    3    0    0 -0.29423582746E+02 -0.84191039406E+01  0.23959946127E+02  0.38867821542E+02  0.51100000000E-03 0.  1.
         12    1    3    3    0    0  0.28857101977E+02  0.30713998181E+01 -0.30674306898E+02  0.42226519334E+02  0.00000000000E+00 0. -1.
</event>
<event>
 7    1  0.4400431E-015  0.9000785E+02  0.7816164E-02  0.1186339E+00
        -11   -1    0    0    0    0  0.00000000000E+00  0.00000000000E+00  0.45593999997E+02  0.45594000000E+02  0.51100000000E-03 0. -1.
         11   -1    0    0    0    0 -0.00000000000E+00 -0.00000000000E+00 -0.45593999997E+02  0.45594000000E+02  0.51100000000E-03 0.  1.
    9900012    2    1    2    0    0  0.77407571160E+00 -0.31965347839E+00 -0.83149942910E+00  0.90007846258E+02  0.90000109029E+02 0.  0.
         12    1    1    2    0    0 -0.77407571160E+00  0.31965347839E+00  0.83149942910E+00  0.11801537417E+01  0.00000000000E+00 0. -1.
         11    1    3    3    0    0 -0.44907459746E+01  0.15584693917E+01  0.89291705406E+01  0.10115617285E+02  0.51100000000E-03 0. -1.
        -11    1    3    3    0    0 -0.25080637311E+02  0.15259784854E+02 -0.27989360244E+02  0.40562343237E+02  0.51100000000E-03 0.  1.
         12    1    3    3    0    0  0.30345458997E+02 -0.17137907725E+02  0.18228690274E+02  0.39329885736E+02  0.00000000000E+00 0. -1.
</event>
<event>
 7    1  0.4400431E-015  0.9000817E+02  0.7816164E-02  0.1186338E+00
        -11   -1    0    0    0    0  0.00000000000E+00  0.00000000000E+00  0.45593999997E+02  0.45594000000E+02  0.51100000000E-03 0. -1.
         11   -1    0    0    0    0 -0.00000000000E+00 -0.00000000000E+00 -0.45593999997E+02  0.45594000000E+02  0.51100000000E-03 0.  1.
    9900012    2    1    2    0    0 -0.10816914813E+01  0.22435054030E+00  0.41424435921E+00  0.90008174583E+02  0.90000441686E+02 0.  0.
         12    1    1    2    0    0  0.10816914813E+01 -0.22435054030E+00 -0.41424435921E+00  0.11798254171E+01  0.00000000000E+00 0. -1.
         11    1    3    3    0    0  0.88962100683E+01  0.18743899646E+02  0.36030023866E+02  0.41576904016E+02  0.51100000000E-03 0. -1.
        -11    1    3    3    0    0 -0.81447938565E+01 -0.61422936585E+01  0.49594833878E+00  0.10213295422E+02  0.51100000000E-03 0.  1.
        -12    1    3    3    0    0 -0.18331076932E+01 -0.12377255447E+02 -0.36111727845E+02  0.38217975145E+02  0.00000000000E+00 0.  1.
</event>
<event>
 7    1  0.4400431E-015  0.9000768E+02  0.7816164E-02  0.1186339E+00
        -11   -1    0    0    0    0  0.00000000000E+00  0.00000000000E+00  0.45593999997E+02  0.45594000000E+02  0.51100000000E-03 0. -1.
         11   -1    0    0    0    0 -0.00000000000E+00 -0.00000000000E+00 -0.45593999997E+02  0.45594000000E+02  0.51100000000E-03 0.  1.
    9900012    2    1    2    0    0 -0.52376007187E+00 -0.10445966469E+01  0.16626531626E+00  0.90007681855E+02  0.89999942456E+02 0.  0.
         12    1    1    2    0    0  0.52376007187E+00  0.10445966469E+01 -0.16626531626E+00  0.11803181448E+01  0.00000000000E+00 0. -1.
         11    1    3    3    0    0  0.59464158466E+01  0.57735274868E+00 -0.11600610297E+02  0.13048653461E+02  0.51100000000E-03 0. -1.
        -11    1    3    3    0    0 -0.12970039959E+02  0.79560796801E+01 -0.29989085049E+02  0.33628356528E+02  0.51100000000E-03 0.  1.
         12    1    3    3    0    0  0.64998640409E+01 -0.95780290757E+01  0.41755960663E+02  0.43330671866E+02  0.00000000000E+00 0. -1.
</event>
<event>
 7    1  0.4400431E-015  0.9000774E+02  0.7816164E-02  0.1186339E+00
        -11   -1    0    0    0    0  0.00000000000E+00  0.00000000000E+00  0.45593999997E+02  0.45594000000E+02  0.51100000000E-03 0. -1.
         11   -1    0    0    0    0 -0.00000000000E+00 -0.00000000000E+00 -0.45593999997E+02  0.45594000000E+02  0.51100000000E-03 0.  1.
    9900012    2    1    2    0    0  0.22996664310E+00 -0.11561206581E+01 -0.59378612634E-01  0.90007735007E+02  0.89999996310E+02 0.  0.
         12    1    1    2    0    0 -0.22996664310E+00  0.11561206581E+01  0.59378612634E-01  0.11802649925E+01  0.00000000000E+00 0. -1.
         11    1    3    3    0    0 -0.16680077690E+02  0.34707886811E+02  0.16481695912E+02  0.41886855922E+02  0.51100000000E-03 0. -1.
        -11    1    3    3    0    0  0.30786557779E+01 -0.29911962694E+00 -0.86057567508E+01  0.91447604378E+01  0.51100000000E-03 0.  1.
        -12    1    3    3    0    0  0.13831388556E+02 -0.35564887843E+02 -0.79353177739E+01  0.38976118647E+02  0.00000000000E+00 0.  1.
</event>
<event>
 7    1  0.4400431E-015  0.9000774E+02  0.7816164E-02  0.1186339E+00
        -11   -1    0    0    0    0  0.00000000000E+00  0.00000000000E+00  0.45593999997E+02  0.45594000000E+02  0.51100000000E-03 0. -1.
         11   -1    0    0    0    0 -0.00000000000E+00 -0.00000000000E+00 -0.45593999997E+02  0.45594000000E+02  0.51100000000E-03 0.  1.
    9900012    2    1    2    0    0  0.11359763124E+01 -0.13048458363E+00  0.29248997907E+00  0.90007737827E+02  0.89999999166E+02 0.  0.
         12    1    1    2    0    0 -0.11359763124E+01  0.13048458363E+00 -0.29248997907E+00  0.11802621729E+01  0.00000000000E+00 0. -1.
         11    1    3    3    0    0 -0.14602873515E+02 -0.20372663404E+02  0.18699115478E+02  0.31272132147E+02  0.51100000000E-03 0. -1.
        -11    1    3    3    0    0  0.26850816674E+02 -0.50219340044E+01 -0.40180589852E+01  0.27610341821E+02  0.51100000000E-03 0.  1.
         12    1    3    3    0    0 -0.11111966846E+02  0.25264112825E+02 -0.14388566514E+02  0.31125263860E+02  0.00000000000E+00 0. -1.
</event>
<event>
 7    1  0.4400431E-015  0.9000777E+02  0.7816164E-02  0.1186339E+00
        -11   -1    0    0    0    0  0.00000000000E+00  0.00000000000E+00  0.45593999997E+02  0.45594000000E+02  0.51100000000E-03 0. -1.
         11   -1    0    0    0    0 -0.00000000000E+00 -0.00000000000E+00 -0.45593999997E+02  0.45594000000E+02  0.51100000000E-03 0.  1.
    9900012    2    1    2    0    0 -0.53389163709E+00  0.60965706309E-01 -0.10508074661E+01  0.90007765520E+02  0.90000027225E+02 0.  0.
         12    1    1    2    0    0  0.53389163709E+00 -0.60965706309E-01  0.10508074661E+01  0.11802344802E+01  0.00000000000E+00 0. -1.
         11    1    3    3    0    0 -0.57580610908E+01 -0.88611444964E+00  0.17345818491E+02  0.18298029558E+02  0.51100000000E-03 0. -1.
        -11    1    3    3    0    0  0.27378012931E+02  0.21563998675E+02 -0.22029629456E+02  0.41229433724E+02  0.51100000000E-03 0.  1.
         12    1    3    3    0    0 -0.22153843478E+02 -0.20616918520E+02  0.36330034994E+01  0.30480302238E+02  0.00000000000E+00 0. -1.
</event>
<event>
 7    1  0.4400431E-015  0.9000780E+02  0.7816164E-02  0.1186339E+00
        -11   -1    0    0    0    0  0.00000000000E+00  0.00000000000E+00  0.45593999997E+02  0.45594000000E+02  0.51100000000E-03 0. -1.
         11   -1    0    0    0    0 -0.00000000000E+00 -0.00000000000E+00 -0.45593999997E+02  0.45594000000E+02  0.51100000000E-03 0.  1.
    9900012    2    1    2    0    0 -0.11479043738E+01 -0.31961884261E-01  0.27231422134E+00  0.90007804657E+02  0.90000066878E+02 0.  0.
         12    1    1    2    0    0  0.11479043738E+01  0.31961884261E-01 -0.27231422134E+00  0.11801953434E+01  0.00000000000E+00 0. -1.
         11    1    3    3    0    0  0.95891924515E+01  0.31576237903E+01 -0.45145963414E+01  0.11059149165E+02  0.51100000000E-03 0. -1.
        -11    1    3    3    0    0  0.75505942337E+01  0.12366012203E+02 -0.31938816140E+02  0.35071608286E+02  0.51100000000E-03 0.  1.
         12    1    3    3    0    0 -0.18287691059E+02 -0.15555597877E+02  0.36725726703E+02  0.43877047205E+02  0.00000000000E+00 0. -1.
</event>
<event>
 7    1  0.4400431E-015  0.9000791E+02  0.7816164E-02  0.1186339E+00
        -11   -1    0    0    0    0  0.00000000000E+00  0.00000000000E+00  0.45593999997E+02  0.45594000000E+02  0.51100000000E-03 0.  1.
         11   -1    0    0    0    0 -0.00000000000E+00 -0.00000000000E+00 -0.45593999997E+02  0.45594000000E+02  0.51100000000E-03 0. -1.
    9900012    2    1    2    0    0 -0.59300742296E+00 -0.91084508884E+00 -0.45970114548E+00  0.90007906053E+02  0.90000169613E+02 0.  0.
         12    1    1    2    0    0  0.59300742296E+00  0.91084508884E+00  0.45970114548E+00  0.11800939466E+01  0.00000000000E+00 0. -1.
         11    1    3    3    0    0  0.98073413965E-01  0.29611980314E+02 -0.24853771568E+02  0.38659914096E+02  0.51100000000E-03 0. -1.
        -11    1    3    3    0    0  0.63847549181E+01 -0.23947703366E-01 -0.52239348859E+01  0.82495554310E+01  0.51100000000E-03 0.  1.
        -12    1    3    3    0    0 -0.70758357550E+01 -0.30498877699E+02  0.29618005309E+02  0.43098436526E+02  0.00000000000E+00 0.  1.
</event>
<event>
 7    1  0.4400431E-015  0.9000768E+02  0.7816164E-02  0.1186339E+00
        -11   -1    0    0    0    0  0.00000000000E+00  0.00000000000E+00  0.45593999997E+02  0.45594000000E+02  0.51100000000E-03 0. -1.
         11   -1    0    0    0    0 -0.00000000000E+00 -0.00000000000E+00 -0.45593999997E+02  0.45594000000E+02  0.51100000000E-03 0.  1.
    9900012    2    1    2    0    0  0.16660709555E+00 -0.32033694465E+00 -0.11237317007E+01  0.90007683679E+02  0.89999944304E+02 0.  0.
         12    1    1    2    0    0 -0.16660709555E+00  0.32033694465E+00  0.11237317007E+01  0.11803163209E+01  0.00000000000E+00 0. -1.
         11    1    3    3    0    0  0.74020161851E+01 -0.53713860729E+01 -0.44687265875E+01  0.10178956210E+02  0.51100000000E-03 0. -1.
        -11    1    3    3    0    0 -0.21592713149E+02 -0.19570259839E+02 -0.25903270147E+02  0.38989995331E+02  0.51100000000E-03 0.  1.
         12    1    3    3    0    0  0.14357304060E+02  0.24621308968E+02  0.29248265034E+02  0.40838732138E+02  0.00000000000E+00 0. -1.
</event>
<event>
 7    1  0.4400431E-015  0.9000774E+02  0.7816164E-02  0.1186339E+00
        -11   -1    0    0    0    0  0.00000000000E+00  0.00000000000E+00  0.45593999997E+02  0.45594000000E+02  0.51100000000E-03 0.  1.
         11   -1    0    0    0    0 -0.00000000000E+00 -0.00000000000E+00 -0.45593999997E+02  0.45594000000E+02  0.51100000000E-03 0. -1.
    9900012    2    1    2    0    0  0.58031129598E+00 -0.87128505165E+00  0.54508127221E+00  0.90007740522E+02  0.90000001897E+02 0.  0.
         12    1    1    2    0    0 -0.58031129598E+00  0.87128505165E+00 -0.54508127221E+00  0.11802594777E+01  0.00000000000E+00 0. -1.
         11    1    3    3    0    0  0.60241593494E+01  0.34579586268E+02 -0.78452306990E+01  0.35966455585E+02  0.51100000000E-03 0. -1.
        -11    1    3    3    0    0 -0.57850429504E+00  0.59551952525E+01 -0.73504630706E+01  0.94777806120E+01  0.51100000000E-03 0.  1.
        -12    1    3    3    0    0 -0.48653437584E+01 -0.41406066572E+02  0.15740775042E+02  0.44563504326E+02  0.00000000000E+00 0.  1.
</event>
<event>
 7    1  0.4400431E-015  0.9000786E+02  0.7816164E-02  0.1186339E+00
        -11   -1    0    0    0    0  0.00000000000E+00  0.00000000000E+00  0.45593999997E+02  0.45594000000E+02  0.51100000000E-03 0.  1.
         11   -1    0    0    0    0 -0.00000000000E+00 -0.00000000000E+00 -0.45593999997E+02  0.45594000000E+02  0.51100000000E-03 0. -1.
    9900012    2    1    2    0    0 -0.14127092067E+00  0.11178694975E+01 -0.35091121960E+00  0.90007860868E+02  0.90000123831E+02 0.  0.
         12    1    1    2    0    0  0.14127092067E+00 -0.11178694975E+01  0.35091121960E+00  0.11801391319E+01  0.00000000000E+00 0. -1.
         11    1    3    3    0    0 -0.11884317806E+01  0.79524514638E+01  0.70352820650E+01  0.10684055802E+02  0.51100000000E-03 0. -1.
        -11    1    3    3    0    0  0.27042099572E+02 -0.10804714489E+02  0.24455457675E+02  0.38027442917E+02  0.51100000000E-03 0.  1.
         12    1    3    3    0    0 -0.25994938712E+02  0.39701325231E+01 -0.31841650960E+02  0.41296362149E+02  0.00000000000E+00 0. -1.
</event>
<event>
 7    1  0.4400431E-015  0.9000773E+02  0.7816164E-02  0.1186339E+00
        -11   -1    0    0    0    0  0.00000000000E+00  0.00000000000E+00  0.45593999997E+02  0.45594000000E+02  0.51100000000E-03 0.  1.
         11   -1    0    0    0    0 -0.00000000000E+00 -0.00000000000E+00 -0.45593999997E+02  0.45594000000E+02  0.51100000000E-03 0. -1.
    9900012    2    1    2    0    0 -0.19856787986E+00 -0.10275712428E+01  0.54561963713E+00  0.90007731958E+02  0.89999993220E+02 0.  0.
         12    1    1    2    0    0  0.19856787986E+00  0.10275712428E+01 -0.54561963713E+00  0.11802680418E+01  0.00000000000E+00 0. -1.
         11    1    3    3    0    0 -0.59428284451E+00 -0.19521891504E+02 -0.75144400265E+01  0.20926639223E+02  0.51100000000E-03 0. -1.
        -11    1    3    3    0    0  0.24584705430E+02 -0.18800868788E+01  0.23345002016E+02  0.33954846298E+02  0.51100000000E-03 0.  1.
         12    1    3    3    0    0 -0.24188990465E+02  0.20374407140E+02 -0.15284942353E+02  0.35126246437E+02  0.00000000000E+00 0. -1.
</event>
<event>
 7    1  0.4400431E-015  0.9000769E+02  0.7816164E-02  0.1186339E+00
        -11   -1    0    0    0    0  0.00000000000E+00  0.00000000000E+00  0.45593999997E+02  0.45594000000E+02  0.51100000000E-03 0.  1.
         11   -1    0    0    0    0 -0.00000000000E+00 -0.00000000000E+00 -0.45593999997E+02  0.45594000000E+02  0.51100000000E-03 0. -1.
    9900012    2    1    2    0    0  0.22113068629E+00  0.31442040415E+00  0.11159641450E+01  0.90007688624E+02  0.89999949314E+02 0.  0.
         12    1    1    2    0    0 -0.22113068629E+00 -0.31442040415E+00 -0.11159641450E+01  0.11803113758E+01  0.00000000000E+00 0. -1.
         11    1    3    3    0    0  0.74596625118E+01  0.42278172390E+01  0.32547207764E-01  0.85745007422E+01  0.51100000000E-03 0. -1.
        -11    1    3    3    0    0  0.12890887582E+02  0.30794109375E+02  0.17957620031E+02  0.37906836748E+02  0.51100000000E-03 0.  1.
         12    1    3    3    0    0 -0.20129419408E+02 -0.34707506209E+02 -0.16874203094E+02  0.43526351134E+02  0.00000000000E+00 0. -1.
</event>
<event>
 7    1  0.4400431E-015  0.9000775E+02  0.7816164E-02  0.1186339E+00
        -11   -1    0    0    0    0  0.00000000000E+00  0.00000000000E+00  0.45593999997E+02  0.45594000000E+02  0.51100000000E-03 0. -1.
         11   -1    0    0    0    0 -0.00000000000E+00 -0.00000000000E+00 -0.45593999997E+02  0.45594000000E+02  0.51100000000E-03 0.  1.
    9900012    2    1    2    0    0 -0.46883082631E+00  0.22544764591E+00 -0.10594198033E+01  0.90007746085E+02  0.90000007533E+02 0.  0.
         12    1    1    2    0    0  0.46883082631E+00 -0.22544764591E+00  0.10594198033E+01  0.11802539152E+01  0.00000000000E+00 0. -1.
         11    1    3    3    0    0  0.23616918811E+02 -0.42201834159E+01  0.30835544824E+02  0.39069164657E+02  0.51100000000E-03 0. -1.
        -11    1    3    3    0    0 -0.39481779199E+01  0.35684364117E-01  0.63581517541E+01  0.74843487526E+01  0.51100000000E-03 0.  1.
        -12    1    3    3    0    0 -0.20137571717E+02  0.44099466976E+01 -0.38253116381E+02  0.43454232675E+02  0.00000000000E+00 0.  1.
</event>
<event>
 7    1  0.4400431E-015  0.9000770E+02  0.7816164E-02  0.1186339E+00
        -11   -1    0    0    0    0  0.00000000000E+00  0.00000000000E+00  0.45593999997E+02  0.45594000000E+02  0.51100000000E-03 0. -1.
         11   -1    0    0    0    0 -0.00000000000E+00 -0.00000000000E+00 -0.45593999997E+02  0.45594000000E+02  0.51100000000E-03 0.  1.
    9900012    2    1    2    0    0  0.94138991607E+00 -0.63348858072E+00 -0.32492495500E+00  0.90007703858E+02  0.89999964749E+02 0.  0.
         12    1    1    2    0    0 -0.94138991607E+00  0.63348858072E+00  0.32492495500E+00  0.11802961418E+01  0.00000000000E+00 0. -1.
         11    1    3    3    0    0  0.25943421928E+01 -0.14670925568E+02 -0.14419166578E+02  0.20733524387E+02  0.51100000000E-03 0. -1.
        -11    1    3    3    0    0  0.17640130176E+02 -0.13580782625E+02 -0.13229928746E+02  0.25896773239E+02  0.51100000000E-03 0.  1.
         12    1    3    3    0    0 -0.19293082453E+02  0.27618219612E+02  0.27324170369E+02  0.43377406232E+02  0.00000000000E+00 0. -1.
</event>
<event>
 7    1  0.4400431E-015  0.9000778E+02  0.7816164E-02  0.1186339E+00
        -11   -1    0    0    0    0  0.00000000000E+00  0.00000000000E+00  0.45593999997E+02  0.45594000000E+02  0.51100000000E-03 0. -1.
         11   -1    0    0    0    0 -0.00000000000E+00 -0.00000000000E+00 -0.45593999997E+02  0.45594000000E+02  0.51100000000E-03 0.  1.
    9900012    2    1    2    0    0 -0.82493679305E+00  0.58955929321E+00 -0.60400316245E+00  0.90007779388E+02  0.90000041276E+02 0.  0.
         12    1    1    2    0    0  0.82493679305E+00 -0.58955929321E+00  0.60400316245E+00  0.11802206120E+01  0.00000000000E+00 0. -1.
         11    1    3    3    0    0 -0.79482680485E+01  0.46758848815E+01 -0.30737381229E+01  0.97204285247E+01  0.51100000000E-03 0. -1.
        -11    1    3    3    0    0 -0.32188896261E+02 -0.15699796893E+02 -0.10451368362E+02  0.37307368788E+02  0.51100000000E-03 0.  1.
         12    1    3    3    0    0  0.39312227517E+02  0.11613471305E+02  0.12921103323E+02  0.42979982075E+02  0.00000000000E+00 0. -1.
</event>
<event>
 7    1  0.4400431E-015  0.9000830E+02  0.7816164E-02  0.1186338E+00
        -11   -1    0    0    0    0  0.00000000000E+00  0.00000000000E+00  0.45593999997E+02  0.45594000000E+02  0.51100000000E-03 0. -1.
         11   -1    0    0    0    0 -0.00000000000E+00 -0.00000000000E+00 -0.45593999997E+02  0.45594000000E+02  0.51100000000E-03 0.  1.
    9900012    2    1    2    0    0 -0.49104681184E+00  0.42794344394E+00 -0.98357738557E+00  0.90008302142E+02  0.90000570929E+02 0.  0.
         12    1    1    2    0    0  0.49104681184E+00 -0.42794344394E+00  0.98357738557E+00  0.11796978579E+01  0.00000000000E+00 0. -1.
         11    1    3    3    0    0 -0.20219727781E+02  0.82216542098E+01  0.31133293138E+02  0.38022558190E+02  0.51100000000E-03 0. -1.
        -11    1    3    3    0    0 -0.69152863173E+01  0.30005700837E+01  0.15700845268E+01  0.76999851532E+01  0.51100000000E-03 0.  1.
        -12    1    3    3    0    0  0.26643967286E+02 -0.10794280850E+02 -0.33686955050E+02  0.44285758799E+02  0.00000000000E+00 0.  1.
</event>
<event>
 7    1  0.4400431E-015  0.9000769E+02  0.7816164E-02  0.1186339E+00
        -11   -1    0    0    0    0  0.00000000000E+00  0.00000000000E+00  0.45593999997E+02  0.45594000000E+02  0.51100000000E-03 0.  1.
         11   -1    0    0    0    0 -0.00000000000E+00 -0.00000000000E+00 -0.45593999997E+02  0.45594000000E+02  0.51100000000E-03 0. -1.
    9900012    2    1    2    0    0  0.10309797029E+01  0.19208172086E+00  0.54159792411E+00  0.90007685276E+02  0.89999945922E+02 0.  0.
         12    1    1    2    0    0 -0.10309797029E+01 -0.19208172086E+00 -0.54159792411E+00  0.11803147235E+01  0.00000000000E+00 0. -1.
         11    1    3    3    0    0 -0.24125083338E+02  0.16431415243E+02 -0.25616757042E+02  0.38835927883E+02  0.51100000000E-03 0. -1.
        -11    1    3    3    0    0  0.30980120731E+00 -0.74510120251E+01 -0.60158812626E+01  0.95814604635E+01  0.51100000000E-03 0.  1.
        -12    1    3    3    0    0  0.24846261833E+02 -0.87883214965E+01  0.32174236229E+02  0.41590296930E+02  0.00000000000E+00 0.  1.
</event>
<event>
 7    1  0.4400431E-015  0.9000773E+02  0.7816164E-02  0.1186339E+00
        -11   -1    0    0    0    0  0.00000000000E+00  0.00000000000E+00  0.45593999997E+02  0.45594000000E+02  0.51100000000E-03 0. -1.
         11   -1    0    0    0    0 -0.00000000000E+00 -0.00000000000E+00 -0.45593999997E+02  0.45594000000E+02  0.51100000000E-03 0.  1.
    9900012    2    1    2    0    0  0.37080380717E+00  0.77979189407E+00  0.80465760433E+00  0.90007726844E+02  0.89999988039E+02 0.  0.
         12    1    1    2    0    0 -0.37080380717E+00 -0.77979189407E+00 -0.80465760433E+00  0.11802731555E+01  0.00000000000E+00 0. -1.
         11    1    3    3    0    0 -0.54525834486E+01 -0.26424463792E+00 -0.67198773250E+01  0.86577851103E+01  0.51100000000E-03 0. -1.
        -11    1    3    3    0    0  0.17312603502E+02  0.14992233935E+02 -0.31149411600E+02  0.38662373979E+02  0.51100000000E-03 0.  1.
         12    1    3    3    0    0 -0.11489216247E+02 -0.13948197403E+02  0.38673946529E+02  0.42687567756E+02  0.00000000000E+00 0. -1.
</event>
<event>
 7    1  0.4400431E-015  0.9000777E+02  0.7816164E-02  0.1186339E+00
        -11   -1    0    0    0    0  0.00000000000E+00  0.00000000000E+00  0.45593999997E+02  0.45594000000E+02  0.51100000000E-03 0. -1.
         11   -1    0    0    0    0 -0.00000000000E+00 -0.00000000000E+00 -0.45593999997E+02  0.45594000000E+02  0.51100000000E-03 0.  1.
    9900012    2    1    2    0    0 -0.14913237874E+00  0.10588971741E+01  0.49944261850E+00  0.90007768404E+02  0.90000030147E+02 0.  0.
         12    1    1    2    0    0  0.14913237874E+00 -0.10588971741E+01 -0.49944261850E+00  0.11802315963E+01  0.00000000000E+00 0. -1.
         11    1    3    3    0    0  0.53060943119E+01 -0.16081103750E+00  0.80781314507E+01  0.96662663440E+01  0.51100000000E-03 0. -1.
        -11    1    3    3    0    0 -0.29759528325E+02  0.27902489746E+02  0.70463890657E+01  0.41398430637E+02  0.51100000000E-03 0.  1.
         12    1    3    3    0    0  0.24304301634E+02 -0.26682781534E+02 -0.14625077898E+02  0.38943071422E+02  0.00000000000E+00 0. -1.
</event>
<event>
 7    1  0.4400431E-015  0.9000778E+02  0.7816164E-02  0.1186339E+00
        -11   -1    0    0    0    0  0.00000000000E+00  0.00000000000E+00  0.45593999997E+02  0.45594000000E+02  0.51100000000E-03 0.  1.
         11   -1    0    0    0    0 -0.00000000000E+00 -0.00000000000E+00 -0.45593999997E+02  0.45594000000E+02  0.51100000000E-03 0. -1.
    9900012    2    1    2    0    0 -0.82191559621E+00 -0.27354506246E+00  0.80158870690E+00  0.90007781121E+02  0.90000043031E+02 0.  0.
         12    1    1    2    0    0  0.82191559621E+00  0.27354506246E+00 -0.80158870690E+00  0.11802188795E+01  0.00000000000E+00 0. -1.
         11    1    3    3    0    0 -0.24975020536E+02 -0.28113718973E+02 -0.17992511983E+01  0.37647976711E+02  0.51100000000E-03 0. -1.
        -11    1    3    3    0    0  0.17668430561E+01 -0.89919111385E+01 -0.21450405759E+00  0.91663631042E+01  0.51100000000E-03 0.  1.
        -12    1    3    3    0    0  0.22386261884E+02  0.36832085049E+02  0.28153439628E+01  0.43193441306E+02  0.00000000000E+00 0.  1.
</event>
<event>
 7    1  0.4400431E-015  0.9000779E+02  0.7816164E-02  0.1186339E+00
        -11   -1    0    0    0    0  0.00000000000E+00  0.00000000000E+00  0.45593999997E+02  0.45594000000E+02  0.51100000000E-03 0. -1.
         11   -1    0    0    0    0 -0.00000000000E+00 -0.00000000000E+00 -0.45593999997E+02  0.45594000000E+02  0.51100000000E-03 0.  1.
    9900012    2    1    2    0    0  0.95979567524E+00 -0.60942608411E+00 -0.31668644336E+00  0.90007788920E+02  0.90000050934E+02 0.  0.
         12    1    1    2    0    0 -0.95979567524E+00  0.60942608411E+00  0.31668644336E+00  0.11802110801E+01  0.00000000000E+00 0. -1.
         11    1    3    3    0    0  0.69136791971E+01 -0.26946879634E+01 -0.54381849725E+01  0.91996825661E+01  0.51100000000E-03 0. -1.
        -11    1    3    3    0    0  0.31621797591E+02  0.60782629629E+01  0.22432729939E+02  0.39244244627E+02  0.51100000000E-03 0.  1.
         12    1    3    3    0    0 -0.37575681113E+02 -0.39930010837E+01 -0.17311231410E+02  0.41563861727E+02  0.00000000000E+00 0. -1.
</event>
<event>
 7    1  0.4400431E-015  0.9000803E+02  0.7816164E-02  0.1186338E+00
        -11   -1    0    0    0    0  0.00000000000E+00  0.00000000000E+00  0.45593999997E+02  0.45594000000E+02  0.51100000000E-03 0. -1.
         11   -1    0    0    0    0 -0.00000000000E+00 -0.00000000000E+00 -0.45593999997E+02  0.45594000000E+02  0.51100000000E-03 0.  1.
    9900012    2    1    2    0    0 -0.50345532644E+00 -0.93312210930E+00  0.51783772757E+00  0.90008025403E+02  0.90000290538E+02 0.  0.
         12    1    1    2    0    0  0.50345532644E+00  0.93312210930E+00 -0.51783772757E+00  0.11799745966E+01  0.00000000000E+00 0. -1.
         11    1    3    3    0    0  0.79104749038E+01 -0.23924138376E+01  0.44247451858E+01  0.93743067687E+01  0.51100000000E-03 0. -1.
        -11    1    3    3    0    0 -0.29084723670E+02 -0.11926985285E+02 -0.30910687585E+02  0.44086786413E+02  0.51100000000E-03 0.  1.
         12    1    3    3    0    0  0.20670793439E+02  0.13386277013E+02  0.27003780127E+02  0.36546932222E+02  0.00000000000E+00 0. -1.
</event>
<event>
 7    1  0.4400431E-015  0.9000774E+02  0.7816164E-02  0.1186339E+00
        -11   -1    0    0    0    0  0.00000000000E+00  0.00000000000E+00  0.45593999997E+02  0.45594000000E+02  0.51100000000E-03 0. -1.
         11   -1    0    0    0    0 -0.00000000000E+00 -0.00000000000E+00 -0.45593999997E+02  0.45594000000E+02  0.51100000000E-03 0.  1.
    9900012    2    1    2    0    0  0.42318074581E+00 -0.29009857154E+00 -0.10629061015E+01  0.90007742187E+02  0.90000003584E+02 0.  0.
         12    1    1    2    0    0 -0.42318074581E+00  0.29009857154E+00  0.10629061015E+01  0.11802578131E+01  0.00000000000E+00 0. -1.
         11    1    3    3    0    0  0.31393611570E+00  0.34784988506E+01  0.93163021290E+01  0.99494721347E+01  0.51100000000E-03 0. -1.
        -11    1    3    3    0    0  0.16729449086E+02  0.20633196445E+02 -0.33360456982E+02  0.42644147929E+02  0.51100000000E-03 0.  1.
         12    1    3    3    0    0 -0.16620204455E+02 -0.24401793868E+02  0.22981248751E+02  0.37414122124E+02  0.00000000000E+00 0. -1.
</event>
<event>
 7    1  0.4400431E-015  0.9000778E+02  0.7816164E-02  0.1186339E+00
        -11   -1    0    0    0    0  0.00000000000E+00  0.00000000000E+00  0.45593999997E+02  0.45594000000E+02  0.51100000000E-03 0. -1.
         11   -1    0    0    0    0 -0.00000000000E+00 -0.00000000000E+00 -0.45593999997E+02  0.45594000000E+02  0.51100000000E-03 0.  1.
    9900012    2    1    2    0    0  0.51762765062E+00  0.39630833955E+00 -0.98382361767E+00  0.90007784937E+02  0.90000046898E+02 0.  0.
         12    1    1    2    0    0 -0.51762765062E+00 -0.39630833955E+00  0.98382361767E+00  0.11802150632E+01  0.00000000000E+00 0. -1.
         11    1    3    3    0    0  0.10015781523E+02  0.32837252933E+02  0.80001072533E+01  0.35250571287E+02  0.51100000000E-03 0. -1.
        -11    1    3    3    0    0 -0.34843482284E+01  0.97804793447E+01  0.23165187458E+01  0.10637890681E+02  0.51100000000E-03 0.  1.
        -12    1    3    3    0    0 -0.60138056435E+01 -0.42221423938E+02 -0.11300449617E+02  0.44119322969E+02  0.00000000000E+00 0.  1.
</event>
<event>
 7    1  0.4400431E-015  0.9000772E+02  0.7816164E-02  0.1186339E+00
        -11   -1    0    0    0    0  0.00000000000E+00  0.00000000000E+00  0.45593999997E+02  0.45594000000E+02  0.51100000000E-03 0.  1.
         11   -1    0    0    0    0 -0.00000000000E+00 -0.00000000000E+00 -0.45593999997E+02  0.45594000000E+02  0.51100000000E-03 0. -1.
    9900012    2    1    2    0    0  0.13009526682E+00  0.18274601902E+00  0.11587671755E+01  0.90007719418E+02  0.89999980514E+02 0.  0.
         12    1    1    2    0    0 -0.13009526682E+00 -0.18274601902E+00 -0.11587671755E+01  0.11802805823E+01  0.00000000000E+00 0. -1.
         11    1    3    3    0    0 -0.20707966514E+02  0.30014675592E+02 -0.16161898565E+02  0.39886182990E+02  0.51100000000E-03 0. -1.
        -11    1    3    3    0    0  0.39835402897E+01  0.39683297055E+01  0.10257170418E+02  0.11697255197E+02  0.51100000000E-03 0.  1.
        -12    1    3    3    0    0  0.16854521491E+02 -0.33800259278E+02  0.70634953225E+01  0.38424281231E+02  0.00000000000E+00 0.  1.
</event>
<event>
 7    1  0.4400431E-015  0.9000774E+02  0.7816164E-02  0.1186339E+00
        -11   -1    0    0    0    0  0.00000000000E+00  0.00000000000E+00  0.45593999997E+02  0.45594000000E+02  0.51100000000E-03 0. -1.
         11   -1    0    0    0    0 -0.00000000000E+00 -0.00000000000E+00 -0.45593999997E+02  0.45594000000E+02  0.51100000000E-03 0.  1.
    9900012    2    1    2    0    0 -0.45702119854E+00 -0.82657610471E+00 -0.70774923439E+00  0.90007743498E+02  0.90000004912E+02 0.  0.
         12    1    1    2    0    0  0.45702119854E+00  0.82657610471E+00  0.70774923439E+00  0.11802565025E+01  0.00000000000E+00 0. -1.
         11    1    3    3    0    0 -0.96985458937E+01  0.15424786225E+01 -0.44494343279E+01  0.10781395960E+02  0.51100000000E-03 0. -1.
        -11    1    3    3    0    0  0.60650969230E+01  0.15605836445E+02 -0.33667793894E+02  0.37601168569E+02  0.51100000000E-03 0.  1.
         12    1    3    3    0    0  0.31764277722E+01 -0.17974891172E+02  0.37409478987E+02  0.41625178968E+02  0.00000000000E+00 0. -1.
</event>
<event>
 7    1  0.4400431E-015  0.9000773E+02  0.7816164E-02  0.1186339E+00
        -11   -1    0    0    0    0  0.00000000000E+00  0.00000000000E+00  0.45593999997E+02  0.45594000000E+02  0.51100000000E-03 0.  1.
         11   -1    0    0    0    0 -0.00000000000E+00 -0.00000000000E+00 -0.45593999997E+02  0.45594000000E+02  0.51100000000E-03 0. -1.
    9900012    2    1    2    0    0 -0.42773283295E+00  0.46428109827E+00  0.99726090753E+00  0.90007728153E+02  0.89999989365E+02 0.  0.
         12    1    1    2    0    0  0.42773283295E+00 -0.46428109827E+00 -0.99726090753E+00  0.11802718468E+01  0.00000000000E+00 0. -1.
         11    1    3    3    0    0 -0.68767223441E+01  0.38859969800E+02  0.12134318989E+02  0.41287144011E+02  0.51100000000E-03 0. -1.
        -11    1    3    3    0    0 -0.16315394859E+01 -0.37535144715E+01  0.75133434582E+01  0.85557654341E+01  0.51100000000E-03 0.  1.
        -12    1    3    3    0    0  0.80805289970E+01 -0.34642174230E+02 -0.18650401539E+02  0.40164818708E+02  0.00000000000E+00 0.  1.
</event>
<event>
 7    1  0.4400431E-015  0.9000774E+02  0.7816164E-02  0.1186339E+00
        -11   -1    0    0    0    0  0.00000000000E+00  0.00000000000E+00  0.45593999997E+02  0.45594000000E+02  0.51100000000E-03 0.  1.
         11   -1    0    0    0    0 -0.00000000000E+00 -0.00000000000E+00 -0.45593999997E+02  0.45594000000E+02  0.51100000000E-03 0. -1.
    9900012    2    1    2    0    0 -0.47591081608E+00 -0.49546416174E+00  0.95970144972E+00  0.90007744641E+02  0.90000006070E+02 0.  0.
         12    1    1    2    0    0  0.47591081608E+00  0.49546416174E+00 -0.95970144972E+00  0.11802553592E+01  0.00000000000E+00 0. -1.
         11    1    3    3    0    0 -0.80659581315E+01 -0.41718224612E+01  0.57511105384E+01  0.10748909522E+02  0.51100000000E-03 0. -1.
        -11    1    3    3    0    0 -0.12846503718E+02  0.17742152912E+02  0.29618114121E+02  0.36838150497E+02  0.51100000000E-03 0.  1.
         12    1    3    3    0    0  0.20436551034E+02 -0.14065794612E+02 -0.34409523209E+02  0.42420684621E+02  0.00000000000E+00 0. -1.
</event>
<event>
 7    1  0.4400431E-015  0.9000762E+02  0.7816164E-02  0.1186339E+00
        -11   -1    0    0    0    0  0.00000000000E+00  0.00000000000E+00  0.45593999997E+02  0.45594000000E+02  0.51100000000E-03 0. -1.
         11   -1    0    0    0    0 -0.00000000000E+00 -0.00000000000E+00 -0.45593999997E+02  0.45594000000E+02  0.51100000000E-03 0.  1.
    9900012    2    1    2    0    0  0.42132142275E+00 -0.43279738659E+00 -0.10141404282E+01  0.90007616110E+02  0.89999875843E+02 0.  0.
         12    1    1    2    0    0 -0.42132142275E+00  0.43279738659E+00  0.10141404282E+01  0.11803838897E+01  0.00000000000E+00 0. -1.
         11    1    3    3    0    0 -0.12244093649E+02 -0.20908174029E+02  0.19648985774E+01  0.24309059982E+02  0.51100000000E-03 0. -1.
        -11    1    3    3    0    0  0.27139421480E+02 -0.87116943624E+01 -0.13396642198E+02  0.31494631914E+02  0.51100000000E-03 0.  1.
        -12    1    3    3    0    0 -0.14474006408E+02  0.29187071005E+02  0.10417603193E+02  0.34203924214E+02  0.00000000000E+00 0.  1.
</event>
<event>
 7    1  0.4400431E-015  0.9000760E+02  0.7816164E-02  0.1186339E+00
        -11   -1    0    0    0    0  0.00000000000E+00  0.00000000000E+00  0.45593999997E+02  0.45594000000E+02  0.51100000000E-03 0. -1.
         11   -1    0    0    0    0 -0.00000000000E+00 -0.00000000000E+00 -0.45593999997E+02  0.45594000000E+02  0.51100000000E-03 0.  1.
    9900012    2    1    2    0    0  0.19131633528E+00  0.11631410026E+01  0.62018898809E-01  0.90007599527E+02  0.89999859041E+02 0.  0.
         12    1    1    2    0    0 -0.19131633528E+00 -0.11631410026E+01 -0.62018898809E-01  0.11804004726E+01  0.00000000000E+00 0. -1.
         11    1    3    3    0    0  0.63295898298E+01 -0.47219100200E+01  0.21806655275E+01  0.81924016048E+01  0.51100000000E-03 0. -1.
        -11    1    3    3    0    0 -0.11696859900E+02 -0.35534939591E+02 -0.11194928388E+02  0.39049646415E+02  0.51100000000E-03 0.  1.
         12    1    3    3    0    0  0.55585864057E+01  0.41419990613E+02  0.90762817593E+01  0.42765551508E+02  0.00000000000E+00 0. -1.
</event>
<event>
 7    1  0.4400431E-015  0.9000772E+02  0.7816164E-02  0.1186339E+00
        -11   -1    0    0    0    0  0.00000000000E+00  0.00000000000E+00  0.45593999997E+02  0.45594000000E+02  0.51100000000E-03 0. -1.
         11   -1    0    0    0    0 -0.00000000000E+00 -0.00000000000E+00 -0.45593999997E+02  0.45594000000E+02  0.51100000000E-03 0.  1.
    9900012    2    1    2    0    0 -0.58135973150E+00  0.87522725080E-01 -0.10234378264E+01  0.90007718530E+02  0.89999979614E+02 0.  0.
         12    1    1    2    0    0  0.58135973150E+00 -0.87522725080E-01  0.10234378264E+01  0.11802814704E+01  0.00000000000E+00 0. -1.
         11    1    3    3    0    0  0.15455835525E+02  0.18414953023E+01  0.19849569311E+02  0.25224578467E+02  0.51100000000E-03 0. -1.
        -11    1    3    3    0    0  0.91111708791E+00 -0.27717137489E+02 -0.19205314749E+02  0.33732980298E+02  0.51100000000E-03 0.  1.
         12    1    3    3    0    0 -0.16948312344E+02  0.25963164911E+02 -0.16676923887E+01  0.31050159765E+02  0.00000000000E+00 0. -1.
</event>
<event>
 7    1  0.4400431E-015  0.9000778E+02  0.7816164E-02  0.1186339E+00
        -11   -1    0    0    0    0  0.00000000000E+00  0.00000000000E+00  0.45593999997E+02  0.45594000000E+02  0.51100000000E-03 0. -1.
         11   -1    0    0    0    0 -0.00000000000E+00 -0.00000000000E+00 -0.45593999997E+02  0.45594000000E+02  0.51100000000E-03 0.  1.
    9900012    2    1    2    0    0  0.43994414752E+00  0.10270255407E+01  0.38025809912E+00  0.90007776065E+02  0.90000037909E+02 0.  0.
         12    1    1    2    0    0 -0.43994414752E+00 -0.10270255407E+01 -0.38025809912E+00  0.11802239347E+01  0.00000000000E+00 0. -1.
         11    1    3    3    0    0 -0.19877242940E+00 -0.28474809276E+02  0.18944549958E+02  0.34201611763E+02  0.51100000000E-03 0. -1.
        -11    1    3    3    0    0 -0.16336960024E+01 -0.90492505643E+01  0.50992252347E+01  0.10514751384E+02  0.51100000000E-03 0.  1.
        -12    1    3    3    0    0  0.22724125793E+01  0.38551085381E+02 -0.23663517093E+02  0.45291412919E+02  0.00000000000E+00 0.  1.
</event>
<event>
 7    1  0.4400431E-015  0.9000774E+02  0.7816164E-02  0.1186339E+00
        -11   -1    0    0    0    0  0.00000000000E+00  0.00000000000E+00  0.45593999997E+02  0.45594000000E+02  0.51100000000E-03 0. -1.
         11   -1    0    0    0    0 -0.00000000000E+00 -0.00000000000E+00 -0.45593999997E+02  0.45594000000E+02  0.51100000000E-03 0.  1.
    9900012    2    1    2    0    0 -0.48063976811E+00  0.10626004713E+01 -0.18130093752E+00  0.90007743935E+02  0.90000005355E+02 0.  0.
         12    1    1    2    0    0  0.48063976811E+00 -0.10626004713E+01  0.18130093752E+00  0.11802560647E+01  0.00000000000E+00 0. -1.
         11    1    3    3    0    0 -0.31830708881E+02  0.15178686120E+02  0.20789206977E+02  0.40936263473E+02  0.51100000000E-03 0. -1.
        -11    1    3    3    0    0 -0.49543676833E+01 -0.12280412134E+01 -0.56458756086E+01  0.76111599649E+01  0.51100000000E-03 0.  1.
        -12    1    3    3    0    0  0.36304436796E+02 -0.12888044436E+02 -0.15324632305E+02  0.41460320497E+02  0.00000000000E+00 0.  1.
</event>
<event>
 7    1  0.4400431E-015  0.9000772E+02  0.7816164E-02  0.1186339E+00
        -11   -1    0    0    0    0  0.00000000000E+00  0.00000000000E+00  0.45593999997E+02  0.45594000000E+02  0.51100000000E-03 0. -1.
         11   -1    0    0    0    0 -0.00000000000E+00 -0.00000000000E+00 -0.45593999997E+02  0.45594000000E+02  0.51100000000E-03 0.  1.
    9900012    2    1    2    0    0 -0.72514042986E+00  0.88635249975E+00  0.28567522957E+00  0.90007720485E+02  0.89999981595E+02 0.  0.
         12    1    1    2    0    0  0.72514042986E+00 -0.88635249975E+00 -0.28567522957E+00  0.11802795150E+01  0.00000000000E+00 0. -1.
         11    1    3    3    0    0 -0.89617384391E+01 -0.33401906876E+02  0.92209130946E+01  0.35791414855E+02  0.51100000000E-03 0. -1.
        -11    1    3    3    0    0  0.29010248226E+01 -0.89468072502E+01  0.12229751399E+01  0.94845650110E+01  0.51100000000E-03 0.  1.
        -12    1    3    3    0    0  0.53355731866E+01  0.43235066625E+02 -0.10158213005E+02  0.44731740619E+02  0.00000000000E+00 0.  1.
</event>
<event>
 7    1  0.4400431E-015  0.9000797E+02  0.7816164E-02  0.1186339E+00
        -11   -1    0    0    0    0  0.00000000000E+00  0.00000000000E+00  0.45593999997E+02  0.45594000000E+02  0.51100000000E-03 0. -1.
         11   -1    0    0    0    0 -0.00000000000E+00 -0.00000000000E+00 -0.45593999997E+02  0.45594000000E+02  0.51100000000E-03 0.  1.
    9900012    2    1    2    0    0 -0.11139376362E+01 -0.14292672204E+00 -0.36220714950E+00  0.90007966473E+02  0.90000230830E+02 0.  0.
         12    1    1    2    0    0  0.11139376362E+01  0.14292672204E+00  0.36220714950E+00  0.11800335268E+01  0.00000000000E+00 0. -1.
         11    1    3    3    0    0 -0.11602507488E+02  0.32800986081E+02 -0.34457565165E+01  0.34962781727E+02  0.51100000000E-03 0. -1.
        -11    1    3    3    0    0 -0.80316402982E+01  0.66097666426E+01 -0.32857294688E+01  0.10908358234E+02  0.51100000000E-03 0.  1.
        -12    1    3    3    0    0  0.18520210150E+02 -0.39553679446E+02  0.63692788358E+01  0.44136826512E+02  0.00000000000E+00 0.  1.
</event>
<event>
 7    1  0.4400431E-015  0.9000767E+02  0.7816164E-02  0.1186339E+00
        -11   -1    0    0    0    0  0.00000000000E+00  0.00000000000E+00  0.45593999997E+02  0.45594000000E+02  0.51100000000E-03 0.  1.
         11   -1    0    0    0    0 -0.00000000000E+00 -0.00000000000E+00 -0.45593999997E+02  0.45594000000E+02  0.51100000000E-03 0. -1.
    9900012    2    1    2    0    0 -0.10070623990E+01 -0.35750191455E+00  0.50119289532E+00  0.90007670973E+02  0.89999931430E+02 0.  0.
         12    1    1    2    0    0  0.10070623990E+01  0.35750191455E+00 -0.50119289532E+00  0.11803290273E+01  0.00000000000E+00 0. -1.
         11    1    3    3    0    0 -0.43997772805E+01 -0.27500902614E+02 -0.25663853106E+02  0.37872035082E+02  0.51100000000E-03 0. -1.
        -11    1    3    3    0    0 -0.81301534311E+01 -0.54640376579E+01  0.98685372766E+01  0.13904788045E+02  0.51100000000E-03 0.  1.
        -12    1    3    3    0    0  0.11522868313E+02  0.32607438357E+02  0.16296508725E+02  0.38230847846E+02  0.00000000000E+00 0.  1.
</event>
<event>
 7    1  0.4400431E-015  0.9000779E+02  0.7816164E-02  0.1186339E+00
        -11   -1    0    0    0    0  0.00000000000E+00  0.00000000000E+00  0.45593999997E+02  0.45594000000E+02  0.51100000000E-03 0. -1.
         11   -1    0    0    0    0 -0.00000000000E+00 -0.00000000000E+00 -0.45593999997E+02  0.45594000000E+02  0.51100000000E-03 0.  1.
    9900012    2    1    2    0    0 -0.10306154854E+01 -0.42761724890E+00  0.38453349278E+00  0.90007792053E+02  0.90000054108E+02 0.  0.
         12    1    1    2    0    0  0.10306154854E+01  0.42761724890E+00 -0.38453349278E+00  0.11802079467E+01  0.00000000000E+00 0. -1.
         11    1    3    3    0    0 -0.35633127576E+02  0.52379396630E+01  0.82903921094E+01  0.36957900297E+02  0.51100000000E-03 0. -1.
        -11    1    3    3    0    0 -0.58601246261E+01 -0.93793840497E+01 -0.54853135848E+01  0.12345143627E+02  0.51100000000E-03 0.  1.
        -12    1    3    3    0    0  0.40462636716E+02  0.37138271378E+01 -0.24205450318E+01  0.40704748130E+02  0.00000000000E+00 0.  1.
</event>
<event>
 7    1  0.4400431E-015  0.9000784E+02  0.7816164E-02  0.1186339E+00
        -11   -1    0    0    0    0  0.00000000000E+00  0.00000000000E+00  0.45593999997E+02  0.45594000000E+02  0.51100000000E-03 0.  1.
         11   -1    0    0    0    0 -0.00000000000E+00 -0.00000000000E+00 -0.45593999997E+02  0.45594000000E+02  0.51100000000E-03 0. -1.
    9900012    2    1    2    0    0 -0.28509060648E-01 -0.58970535981E+00  0.10218729121E+01  0.90007835000E+02  0.90000097622E+02 0.  0.
         12    1    1    2    0    0  0.28509060648E-01  0.58970535981E+00 -0.10218729121E+01  0.11801649996E+01  0.00000000000E+00 0. -1.
         11    1    3    3    0    0  0.30209765358E+02  0.16839483479E+02  0.14369536230E+02  0.37452392428E+02  0.51100000000E-03 0. -1.
        -11    1    3    3    0    0 -0.48455995423E+01  0.60116959997E+01  0.86462121321E+01  0.11592122679E+02  0.51100000000E-03 0.  1.
        -12    1    3    3    0    0 -0.25392674876E+02 -0.23440884838E+02 -0.21993875450E+02  0.40963319894E+02  0.00000000000E+00 0.  1.
</event>
<event>
 7    1  0.4400431E-015  0.9000778E+02  0.7816164E-02  0.1186339E+00
        -11   -1    0    0    0    0  0.00000000000E+00  0.00000000000E+00  0.45593999997E+02  0.45594000000E+02  0.51100000000E-03 0.  1.
         11   -1    0    0    0    0 -0.00000000000E+00 -0.00000000000E+00 -0.45593999997E+02  0.45594000000E+02  0.51100000000E-03 0. -1.
    9900012    2    1    2    0    0 -0.74009727570E+00 -0.91295669481E+00  0.10814785048E+00  0.90007775504E+02  0.90000037340E+02 0.  0.
         12    1    1    2    0    0  0.74009727570E+00  0.91295669481E+00 -0.10814785048E+00  0.11802244963E+01  0.00000000000E+00 0. -1.
         11    1    3    3    0    0 -0.73406979338E+01  0.34705803042E+00 -0.71646596517E+01  0.10263461581E+02  0.51100000000E-03 0. -1.
        -11    1    3    3    0    0 -0.34109822796E+02 -0.10204306402E+02 -0.57741540812E+01  0.36068666956E+02  0.51100000000E-03 0.  1.
         12    1    3    3    0    0  0.40710423455E+02  0.89442916769E+01  0.13046961583E+02  0.43675646967E+02  0.00000000000E+00 0. -1.
</event>
<event>
 7    1  0.4400431E-015  0.9000774E+02  0.7816164E-02  0.1186339E+00
        -11   -1    0    0    0    0  0.00000000000E+00  0.00000000000E+00  0.45593999997E+02  0.45594000000E+02  0.51100000000E-03 0.  1.
         11   -1    0    0    0    0 -0.00000000000E+00 -0.00000000000E+00 -0.45593999997E+02  0.45594000000E+02  0.51100000000E-03 0. -1.
    9900012    2    1    2    0    0 -0.43683253775E+00  0.30856198751E+00  0.10521351155E+01  0.90007736696E+02  0.89999998020E+02 0.  0.
         12    1    1    2    0    0  0.43683253775E+00 -0.30856198751E+00 -0.10521351155E+01  0.11802633043E+01  0.00000000000E+00 0. -1.
         11    1    3    3    0    0  0.38383992144E+01  0.38522976379E+01 -0.35846797666E+02  0.36256949799E+02  0.51100000000E-03 0. -1.
        -11    1    3    3    0    0 -0.97124657719E+01  0.83859890911E+01 -0.17390055691E+01  0.12949167735E+02  0.51100000000E-03 0.  1.
        -12    1    3    3    0    0  0.54372340198E+01 -0.11929724742E+02  0.38637938350E+02  0.40801619161E+02  0.00000000000E+00 0.  1.
</event>
<event>
 7    1  0.4400431E-015  0.9000761E+02  0.7816164E-02  0.1186339E+00
        -11   -1    0    0    0    0  0.00000000000E+00  0.00000000000E+00  0.45593999997E+02  0.45594000000E+02  0.51100000000E-03 0.  1.
         11   -1    0    0    0    0 -0.00000000000E+00 -0.00000000000E+00 -0.45593999997E+02  0.45594000000E+02  0.51100000000E-03 0. -1.
    9900012    2    1    2    0    0  0.33456908337E+00 -0.59562922220E+00  0.96260684153E+00  0.90007609144E+02  0.89999868784E+02 0.  0.
         12    1    1    2    0    0 -0.33456908337E+00  0.59562922220E+00 -0.96260684153E+00  0.11803908561E+01  0.00000000000E+00 0. -1.
         11    1    3    3    0    0  0.31896171378E+01  0.34848510242E+01 -0.40031982789E+02  0.40309769168E+02  0.51100000000E-03 0. -1.
        -11    1    3    3    0    0 -0.86276611392E+01 -0.44030427110E+01  0.15232171365E+01  0.98052798304E+01  0.51100000000E-03 0.  1.
        -12    1    3    3    0    0  0.57726130847E+01  0.32256246454E+00  0.39471372494E+02  0.39892560145E+02  0.00000000000E+00 0.  1.
</event>
<event>
 7    1  0.4400431E-015  0.9000781E+02  0.7816164E-02  0.1186339E+00
        -11   -1    0    0    0    0  0.00000000000E+00  0.00000000000E+00  0.45593999997E+02  0.45594000000E+02  0.51100000000E-03 0. -1.
         11   -1    0    0    0    0 -0.00000000000E+00 -0.00000000000E+00 -0.45593999997E+02  0.45594000000E+02  0.51100000000E-03 0.  1.
    9900012    2    1    2    0    0  0.65140748614E+00 -0.26100065232E+00 -0.94889742257E+00  0.90007805367E+02  0.90000067598E+02 0.  0.
         12    1    1    2    0    0 -0.65140748614E+00  0.26100065232E+00  0.94889742257E+00  0.11801946331E+01  0.00000000000E+00 0. -1.
         11    1    3    3    0    0  0.15189274823E+02 -0.94962185918E+00  0.38346459010E+02  0.41256111913E+02  0.51100000000E-03 0. -1.
        -11    1    3    3    0    0 -0.62601870713E+01  0.60052689248E+01 -0.45721963855E+00  0.86869008908E+01  0.51100000000E-03 0.  1.
        -12    1    3    3    0    0 -0.82776802658E+01 -0.53166477180E+01 -0.38838136794E+02  0.40064792563E+02  0.00000000000E+00 0.  1.
</event>
<event>
 7    1  0.4400431E-015  0.9000781E+02  0.7816164E-02  0.1186339E+00
        -11   -1    0    0    0    0  0.00000000000E+00  0.00000000000E+00  0.45593999997E+02  0.45594000000E+02  0.51100000000E-03 0.  1.
         11   -1    0    0    0    0 -0.00000000000E+00 -0.00000000000E+00 -0.45593999997E+02  0.45594000000E+02  0.51100000000E-03 0. -1.
    9900012    2    1    2    0    0  0.35014923823E+00  0.64029325098E+00  0.92750721074E+00  0.90007809523E+02  0.90000071809E+02 0.  0.
         12    1    1    2    0    0 -0.35014923823E+00 -0.64029325098E+00 -0.92750721074E+00  0.11801904771E+01  0.00000000000E+00 0. -1.
         11    1    3    3    0    0 -0.31557284216E+01  0.77325077001E+01  0.54071320082E+01  0.99492398713E+01  0.51100000000E-03 0. -1.
        -11    1    3    3    0    0  0.13421749133E+02 -0.80813458692E+01  0.35527778076E+02  0.38828784633E+02  0.51100000000E-03 0.  1.
         12    1    3    3    0    0 -0.99158714729E+01  0.98913142008E+00 -0.40007402873E+02  0.41229785018E+02  0.00000000000E+00 0. -1.
</event>
<event>
 7    1  0.4400431E-015  0.9000771E+02  0.7816164E-02  0.1186339E+00
        -11   -1    0    0    0    0  0.00000000000E+00  0.00000000000E+00  0.45593999997E+02  0.45594000000E+02  0.51100000000E-03 0. -1.
         11   -1    0    0    0    0 -0.00000000000E+00 -0.00000000000E+00 -0.45593999997E+02  0.45594000000E+02  0.51100000000E-03 0.  1.
    9900012    2    1    2    0    0  0.96883262621E+00  0.66793857880E+00 -0.91105776494E-01  0.90007712380E+02  0.89999973384E+02 0.  0.
         12    1    1    2    0    0 -0.96883262621E+00 -0.66793857880E+00  0.91105776494E-01  0.11802876197E+01  0.00000000000E+00 0. -1.
         11    1    3    3    0    0 -0.11391018428E+01  0.60926335835E+01 -0.71736908060E+01  0.94804840083E+01  0.51100000000E-03 0. -1.
        -11    1    3    3    0    0 -0.51941762996E+01  0.35469751437E+02  0.13864986488E+02  0.38435928309E+02  0.51100000000E-03 0.  1.
         12    1    3    3    0    0  0.73021107687E+01 -0.40894446442E+02 -0.67824014582E+01  0.42091300063E+02  0.00000000000E+00 0. -1.
</event>
<event>
 7    1  0.4400431E-015  0.9000778E+02  0.7816164E-02  0.1186339E+00
        -11   -1    0    0    0    0  0.00000000000E+00  0.00000000000E+00  0.45593999997E+02  0.45594000000E+02  0.51100000000E-03 0.  1.
         11   -1    0    0    0    0 -0.00000000000E+00 -0.00000000000E+00 -0.45593999997E+02  0.45594000000E+02  0.51100000000E-03 0. -1.
    9900012    2    1    2    0    0  0.24979353828E+00  0.11533074598E+01  0.19877982115E-01  0.90007783900E+02  0.90000045847E+02 0.  0.
         12    1    1    2    0    0 -0.24979353828E+00 -0.11533074598E+01 -0.19877982115E-01  0.11802161000E+01  0.00000000000E+00 0. -1.
         11    1    3    3    0    0 -0.19862249027E+02 -0.74848625944E+01 -0.31289310022E+02  0.37809430389E+02  0.51100000000E-03 0. -1.
        -11    1    3    3    0    0  0.29421708241E+01 -0.64254779694E+01 -0.54474332936E+01  0.89228731943E+01  0.51100000000E-03 0.  1.
        -12    1    3    3    0    0  0.17169871741E+02  0.15063648024E+02  0.36756621298E+02  0.43275480316E+02  0.00000000000E+00 0.  1.
</event>
<event>
 7    1  0.4400431E-015  0.9000775E+02  0.7816164E-02  0.1186339E+00
        -11   -1    0    0    0    0  0.00000000000E+00  0.00000000000E+00  0.45593999997E+02  0.45594000000E+02  0.51100000000E-03 0.  1.
         11   -1    0    0    0    0 -0.00000000000E+00 -0.00000000000E+00 -0.45593999997E+02  0.45594000000E+02  0.51100000000E-03 0. -1.
    9900012    2    1    2    0    0 -0.87210803967E+00  0.49654553605E+00  0.62117901834E+00  0.90007748639E+02  0.90000010121E+02 0.  0.
         12    1    1    2    0    0  0.87210803967E+00 -0.49654553605E+00 -0.62117901834E+00  0.11802513610E+01  0.00000000000E+00 0. -1.
         11    1    3    3    0    0 -0.14955015220E+02 -0.23692064721E+02  0.22347175585E+02  0.35838005914E+02  0.51100000000E-03 0. -1.
        -11    1    3    3    0    0  0.40306669182E+01 -0.24914889035E+01  0.10272103853E+02  0.11312378644E+02  0.51100000000E-03 0.  1.
        -12    1    3    3    0    0  0.10052240263E+02  0.26680099161E+02 -0.31998100420E+02  0.42857364081E+02  0.00000000000E+00 0.  1.
</event>
<event>
 7    1  0.4751257E-015  0.9000777E+02  0.7816164E-02  0.1186339E+00
        -11   -1    0    0    0    0  0.00000000000E+00  0.00000000000E+00  0.45593999997E+02  0.45594000000E+02  0.51100000000E-03 0. -1.
         11   -1    0    0    0    0 -0.00000000000E+00 -0.00000000000E+00 -0.45593999997E+02  0.45594000000E+02  0.51100000000E-03 0.  1.
    9900012    2    1    2    0    0  0.82930777432E+00  0.21749501765E+00 -0.81110708649E+00  0.90007766899E+02  0.90000028622E+02 0.  0.
         12    1    1    2    0    0 -0.82930777432E+00 -0.21749501765E+00  0.81110708649E+00  0.11802331011E+01  0.00000000000E+00 0. -1.
         11    1    3    3    0    0 -0.49477242523E+01  0.31400251980E+02  0.25901626579E+02  0.41004268795E+02  0.51100000000E-03 0. -1.
        -11    1    3    3    0    0  0.92221201962E+00  0.36006903231E+01 -0.88551829107E+01  0.96036300666E+01  0.51100000000E-03 0.  1.
        -12    1    3    3    0    0  0.48548200071E+01 -0.34783447286E+02 -0.17857550755E+02  0.39399868037E+02  0.00000000000E+00 0.  1.
</event>
<event>
 7    1  0.4400431E-015  0.9000759E+02  0.7816164E-02  0.1186339E+00
        -11   -1    0    0    0    0  0.00000000000E+00  0.00000000000E+00  0.45593999997E+02  0.45594000000E+02  0.51100000000E-03 0.  1.
         11   -1    0    0    0    0 -0.00000000000E+00 -0.00000000000E+00 -0.45593999997E+02  0.45594000000E+02  0.51100000000E-03 0. -1.
    9900012    2    1    2    0    0 -0.70349306349E+00  0.93480175906E+00  0.15687707006E+00  0.90007590226E+02  0.89999849617E+02 0.  0.
         12    1    1    2    0    0  0.70349306349E+00 -0.93480175906E+00 -0.15687707006E+00  0.11804097739E+01  0.00000000000E+00 0. -1.
         11    1    3    3    0    0 -0.63695326544E+01  0.43000439373E+01  0.49986068455E+01  0.91677366212E+01  0.51100000000E-03 0. -1.
        -11    1    3    3    0    0  0.12512974687E+01  0.30502164848E+02  0.21809516380E+02  0.37518033141E+02  0.51100000000E-03 0.  1.
         12    1    3    3    0    0  0.44147421221E+01 -0.33867407026E+02 -0.26651246156E+02  0.43321820464E+02  0.00000000000E+00 0. -1.
</event>
<event>
 7    1  0.4400431E-015  0.9000772E+02  0.7816164E-02  0.1186339E+00
        -11   -1    0    0    0    0  0.00000000000E+00  0.00000000000E+00  0.45593999997E+02  0.45594000000E+02  0.51100000000E-03 0.  1.
         11   -1    0    0    0    0 -0.00000000000E+00 -0.00000000000E+00 -0.45593999997E+02  0.45594000000E+02  0.51100000000E-03 0. -1.
    9900012    2    1    2    0    0 -0.71215016029E+00  0.94010289055E+00  0.45895187666E-01  0.90007721362E+02  0.89999982484E+02 0.  0.
         12    1    1    2    0    0  0.71215016029E+00 -0.94010289055E+00 -0.45895187666E-01  0.11802786382E+01  0.00000000000E+00 0. -1.
         11    1    3    3    0    0 -0.11751977738E+02 -0.34809014826E+00 -0.12195619775E+02  0.16939990835E+02  0.51100000000E-03 0. -1.
        -11    1    3    3    0    0 -0.21359203452E+02  0.15223428853E+02  0.24338794905E+02  0.35781912970E+02  0.51100000000E-03 0.  1.
         12    1    3    3    0    0  0.32399031030E+02 -0.13935235814E+02 -0.12097279942E+02  0.37285817557E+02  0.00000000000E+00 0. -1.
</event>
<event>
 7    1  0.4400431E-015  0.9000774E+02  0.7816164E-02  0.1186339E+00
        -11   -1    0    0    0    0  0.00000000000E+00  0.00000000000E+00  0.45593999997E+02  0.45594000000E+02  0.51100000000E-03 0.  1.
         11   -1    0    0    0    0 -0.00000000000E+00 -0.00000000000E+00 -0.45593999997E+02  0.45594000000E+02  0.51100000000E-03 0. -1.
    9900012    2    1    2    0    0 -0.37312239428E+00 -0.63290949432E+00  0.92370294073E+00  0.90007736524E+02  0.89999997847E+02 0.  0.
         12    1    1    2    0    0  0.37312239428E+00  0.63290949432E+00 -0.92370294073E+00  0.11802634756E+01  0.00000000000E+00 0. -1.
         11    1    3    3    0    0 -0.69546596254E+01  0.61465838271E+01  0.21698601681E+01  0.95318453963E+01  0.51100000000E-03 0. -1.
        -11    1    3    3    0    0 -0.19080416008E+02  0.11505642032E+02  0.29152958942E+02  0.36692466378E+02  0.51100000000E-03 0.  1.
         12    1    3    3    0    0  0.25661953239E+02 -0.18285135353E+02 -0.30399116169E+02  0.43783424750E+02  0.00000000000E+00 0. -1.
</event>
<event>
 7    1  0.4494697E-015  0.9000776E+02  0.7816164E-02  0.1186339E+00
        -11   -1    0    0    0    0  0.00000000000E+00  0.00000000000E+00  0.45593999997E+02  0.45594000000E+02  0.51100000000E-03 0.  1.
         11   -1    0    0    0    0 -0.00000000000E+00 -0.00000000000E+00 -0.45593999997E+02  0.45594000000E+02  0.51100000000E-03 0. -1.
    9900012    2    1    2    0    0  0.42699584029E+00  0.92502050338E+00  0.59579290384E+00  0.90007763768E+02  0.90000025450E+02 0.  0.
         12    1    1    2    0    0 -0.42699584029E+00 -0.92502050338E+00 -0.59579290384E+00  0.11802362321E+01  0.00000000000E+00 0. -1.
         11    1    3    3    0    0  0.54780749377E+01 -0.15231289581E+01  0.81279637931E+01  0.99193257094E+01  0.51100000000E-03 0. -1.
        -11    1    3    3    0    0 -0.23574589521E+02  0.29120987497E+00  0.30013688849E+02  0.38166314898E+02  0.51100000000E-03 0.  1.
         12    1    3    3    0    0  0.18523510423E+02  0.21569395865E+01 -0.37545859739E+02  0.41922123161E+02  0.00000000000E+00 0. -1.
</event>
<event>
 7    1  0.4400431E-015  0.9000775E+02  0.7816164E-02  0.1186339E+00
        -11   -1    0    0    0    0  0.00000000000E+00  0.00000000000E+00  0.45593999997E+02  0.45594000000E+02  0.51100000000E-03 0. -1.
         11   -1    0    0    0    0 -0.00000000000E+00 -0.00000000000E+00 -0.45593999997E+02  0.45594000000E+02  0.51100000000E-03 0.  1.
    9900012    2    1    2    0    0  0.42958075715E+00 -0.10957515612E+01  0.88216315814E-01  0.90007748658E+02  0.90000010141E+02 0.  0.
         12    1    1    2    0    0 -0.42958075715E+00  0.10957515612E+01 -0.88216315814E-01  0.11802513415E+01  0.00000000000E+00 0. -1.
         11    1    3    3    0    0  0.32228984027E+01 -0.36868416174E+02  0.42684901468E+01  0.37254358050E+02  0.51100000000E-03 0. -1.
        -11    1    3    3    0    0  0.60458978317E+01 -0.62854502926E+01  0.29133551548E+01  0.91949662583E+01  0.51100000000E-03 0.  1.
        -12    1    3    3    0    0 -0.88392154773E+01  0.42058114906E+02 -0.70936289858E+01  0.43558424350E+02  0.00000000000E+00 0.  1.
</event>
<event>
 7    1  0.4400431E-015  0.9000772E+02  0.7816164E-02  0.1186339E+00
        -11   -1    0    0    0    0  0.00000000000E+00  0.00000000000E+00  0.45593999997E+02  0.45594000000E+02  0.51100000000E-03 0. -1.
         11   -1    0    0    0    0 -0.00000000000E+00 -0.00000000000E+00 -0.45593999997E+02  0.45594000000E+02  0.51100000000E-03 0.  1.
    9900012    2    1    2    0    0 -0.46342004143E-01  0.37337989212E+00 -0.11187015874E+01  0.90007723182E+02  0.89999984328E+02 0.  0.
         12    1    1    2    0    0  0.46342004143E-01 -0.37337989212E+00  0.11187015874E+01  0.11802768178E+01  0.00000000000E+00 0. -1.
         11    1    3    3    0    0 -0.17029534109E+02 -0.27365152552E+02 -0.18428702258E+02  0.37127801892E+02  0.51100000000E-03 0. -1.
        -11    1    3    3    0    0 -0.82302498688E+01 -0.37932971712E+01  0.29259332977E+00  0.90670682941E+01  0.51100000000E-03 0.  1.
        -12    1    3    3    0    0  0.25213441974E+02  0.31531829616E+02  0.17017407340E+02  0.43812852996E+02  0.00000000000E+00 0.  1.
</event>
<event>
 7    1  0.4400431E-015  0.9000771E+02  0.7816164E-02  0.1186339E+00
        -11   -1    0    0    0    0  0.00000000000E+00  0.00000000000E+00  0.45593999997E+02  0.45594000000E+02  0.51100000000E-03 0.  1.
         11   -1    0    0    0    0 -0.00000000000E+00 -0.00000000000E+00 -0.45593999997E+02  0.45594000000E+02  0.51100000000E-03 0. -1.
    9900012    2    1    2    0    0  0.52915070042E+00 -0.84657025427E+00  0.62960140729E+00  0.90007712073E+02  0.89999973072E+02 0.  0.
         12    1    1    2    0    0 -0.52915070042E+00  0.84657025427E+00 -0.62960140729E+00  0.11802879273E+01  0.00000000000E+00 0. -1.
         11    1    3    3    0    0 -0.44689034677E+01  0.40789233176E+01 -0.71792541198E+01  0.93888446367E+01  0.51100000000E-03 0. -1.
        -11    1    3    3    0    0 -0.31842093937E+02  0.15223478769E+02 -0.72109762243E+01  0.36023206833E+02  0.51100000000E-03 0.  1.
         12    1    3    3    0    0  0.36840148105E+02 -0.20148972341E+02  0.15019831751E+02  0.44595660603E+02  0.00000000000E+00 0. -1.
</event>
<event>
 7    1  0.4400431E-015  0.9000767E+02  0.7816164E-02  0.1186339E+00
        -11   -1    0    0    0    0  0.00000000000E+00  0.00000000000E+00  0.45593999997E+02  0.45594000000E+02  0.51100000000E-03 0. -1.
         11   -1    0    0    0    0 -0.00000000000E+00 -0.00000000000E+00 -0.45593999997E+02  0.45594000000E+02  0.51100000000E-03 0.  1.
    9900012    2    1    2    0    0  0.29163728986E-01 -0.11181295000E+01 -0.37699184574E+00  0.90007666592E+02  0.89999926991E+02 0.  0.
         12    1    1    2    0    0 -0.29163728986E-01  0.11181295000E+01  0.37699184574E+00  0.11803334079E+01  0.00000000000E+00 0. -1.
         11    1    3    3    0    0 -0.13683353401E+02 -0.21101984470E+02  0.36850609823E+02  0.44614967819E+02  0.51100000000E-03 0. -1.
        -11    1    3    3    0    0  0.63436317426E+01  0.57873468162E+01 -0.65651847068E+01  0.10809102523E+02  0.51100000000E-03 0.  1.
        -12    1    3    3    0    0  0.73688853877E+01  0.14196508154E+02 -0.30662416962E+02  0.34583596250E+02  0.00000000000E+00 0.  1.
</event>
<event>
 7    1  0.4592048E-015  0.9000769E+02  0.7816164E-02  0.1186339E+00
        -11   -1    0    0    0    0  0.00000000000E+00  0.00000000000E+00  0.45593999997E+02  0.45594000000E+02  0.51100000000E-03 0. -1.
         11   -1    0    0    0    0 -0.00000000000E+00 -0.00000000000E+00 -0.45593999997E+02  0.45594000000E+02  0.51100000000E-03 0.  1.
    9900012    2    1    2    0    0  0.31842051696E+00 -0.91545716863E+00 -0.67355412362E+00  0.90007691307E+02  0.89999952032E+02 0.  0.
         12    1    1    2    0    0 -0.31842051696E+00  0.91545716863E+00  0.67355412362E+00  0.11803086930E+01  0.00000000000E+00 0. -1.
         11    1    3    3    0    0 -0.78150830640E+01 -0.13863915228E+01  0.37749443521E+02  0.38574837539E+02  0.51100000000E-03 0. -1.
        -11    1    3    3    0    0  0.66886766160E+01  0.43932681939E+01  0.39012137976E+01  0.89027338303E+01  0.51100000000E-03 0.  1.
        -12    1    3    3    0    0  0.14448269650E+01 -0.39223338397E+01 -0.42324211442E+02  0.42530119938E+02  0.00000000000E+00 0.  1.
</event>
<event>
 7    1  0.4400431E-015  0.9000753E+02  0.7816164E-02  0.1186339E+00
        -11   -1    0    0    0    0  0.00000000000E+00  0.00000000000E+00  0.45593999997E+02  0.45594000000E+02  0.51100000000E-03 0.  1.
         11   -1    0    0    0    0 -0.00000000000E+00 -0.00000000000E+00 -0.45593999997E+02  0.45594000000E+02  0.51100000000E-03 0. -1.
    9900012    2    1    2    0    0 -0.43121544616E+00  0.67434221727E-01  0.10968209802E+01  0.90007529586E+02  0.89999788177E+02 0.  0.
         12    1    1    2    0    0  0.43121544616E+00 -0.67434221727E-01 -0.10968209802E+01  0.11804704138E+01  0.00000000000E+00 0. -1.
         11    1    3    3    0    0  0.70169362720E+01 -0.43328593424E+01 -0.50000917703E+01  0.96442720149E+01  0.51100000000E-03 0. -1.
        -11    1    3    3    0    0 -0.22839672214E+02 -0.30361065530E+02 -0.96745853020E+01  0.39205133949E+02  0.51100000000E-03 0.  1.
         12    1    3    3    0    0  0.15391520496E+02  0.34761359094E+02  0.15771498052E+02  0.41158123622E+02  0.00000000000E+00 0. -1.
</event>
<event>
 7    1  0.4400431E-015  0.9000765E+02  0.7816164E-02  0.1186339E+00
        -11   -1    0    0    0    0  0.00000000000E+00  0.00000000000E+00  0.45593999997E+02  0.45594000000E+02  0.51100000000E-03 0.  1.
         11   -1    0    0    0    0 -0.00000000000E+00 -0.00000000000E+00 -0.45593999997E+02  0.45594000000E+02  0.51100000000E-03 0. -1.
    9900012    2    1    2    0    0  0.10552692994E+01 -0.41181854936E+00  0.33172237037E+00  0.90007649398E+02  0.89999909570E+02 0.  0.
         12    1    1    2    0    0 -0.10552692994E+01  0.41181854936E+00 -0.33172237037E+00  0.11803506016E+01  0.00000000000E+00 0. -1.
         11    1    3    3    0    0 -0.18016870333E+02 -0.32597110016E+02 -0.27724472089E+01  0.37347900366E+02  0.51100000000E-03 0. -1.
        -11    1    3    3    0    0 -0.90907567658E+01  0.18201892617E+01 -0.48879909797E+01  0.10480811209E+02  0.51100000000E-03 0.  1.
        -12    1    3    3    0    0  0.28162896398E+02  0.30365102205E+02  0.79921605589E+01  0.42178937823E+02  0.00000000000E+00 0.  1.
</event>
<event>
 7    1  0.4400431E-015  0.9000776E+02  0.7816164E-02  0.1186339E+00
        -11   -1    0    0    0    0  0.00000000000E+00  0.00000000000E+00  0.45593999997E+02  0.45594000000E+02  0.51100000000E-03 0.  1.
         11   -1    0    0    0    0 -0.00000000000E+00 -0.00000000000E+00 -0.45593999997E+02  0.45594000000E+02  0.51100000000E-03 0. -1.
    9900012    2    1    2    0    0 -0.48298024999E-01  0.10329262804E+01  0.56893726205E+00  0.90007763156E+02  0.90000024830E+02 0.  0.
         12    1    1    2    0    0  0.48298024999E-01 -0.10329262804E+01 -0.56893726205E+00  0.11802368440E+01  0.00000000000E+00 0. -1.
         11    1    3    3    0    0 -0.60773719094E+00  0.94595662003E+01 -0.17851689387E+01  0.96457019233E+01  0.51100000000E-03 0. -1.
        -11    1    3    3    0    0 -0.73415203508E+01  0.29973474184E+02  0.20616553603E+02  0.37112657658E+02  0.51100000000E-03 0.  1.
         12    1    3    3    0    0  0.79009595167E+01 -0.38400114104E+02 -0.18262447402E+02  0.43249403575E+02  0.00000000000E+00 0. -1.
</event>
<event>
 7    1  0.4400431E-015  0.9000794E+02  0.7816164E-02  0.1186339E+00
        -11   -1    0    0    0    0  0.00000000000E+00  0.00000000000E+00  0.45593999997E+02  0.45594000000E+02  0.51100000000E-03 0.  1.
         11   -1    0    0    0    0 -0.00000000000E+00 -0.00000000000E+00 -0.45593999997E+02  0.45594000000E+02  0.51100000000E-03 0. -1.
    9900012    2    1    2    0    0 -0.57143498398E+00  0.10191925245E+01  0.16511057762E+00  0.90007935237E+02  0.90000199181E+02 0.  0.
         12    1    1    2    0    0  0.57143498398E+00 -0.10191925245E+01 -0.16511057762E+00  0.11800647634E+01  0.00000000000E+00 0. -1.
         11    1    3    3    0    0  0.39007715246E+01 -0.60093842222E+01 -0.46673759213E+01  0.85506207651E+01  0.51100000000E-03 0. -1.
        -11    1    3    3    0    0 -0.42159341865E+02  0.35431314510E+01 -0.42916795733E+01  0.42525079668E+02  0.51100000000E-03 0.  1.
         12    1    3    3    0    0  0.37687135356E+02  0.34854452957E+01  0.91241660722E+01  0.38932234803E+02  0.00000000000E+00 0. -1.
</event>
<event>
 7    1  0.4400431E-015  0.9000768E+02  0.7816164E-02  0.1186339E+00
        -11   -1    0    0    0    0  0.00000000000E+00  0.00000000000E+00  0.45593999997E+02  0.45594000000E+02  0.51100000000E-03 0. -1.
         11   -1    0    0    0    0 -0.00000000000E+00 -0.00000000000E+00 -0.45593999997E+02  0.45594000000E+02  0.51100000000E-03 0.  1.
    9900012    2    1    2    0    0 -0.51093401782E+00 -0.83747781158E+00 -0.65630384508E+00  0.90007679115E+02  0.89999939679E+02 0.  0.
         12    1    1    2    0    0  0.51093401782E+00  0.83747781158E+00  0.65630384508E+00  0.11803208854E+01  0.00000000000E+00 0. -1.
         11    1    3    3    0    0  0.74055008049E+01 -0.92751947074E+01  0.13384687018E+00  0.11869650133E+02  0.51100000000E-03 0. -1.
        -11    1    3    3    0    0  0.19882445411E+02 -0.20135678572E+02  0.18543484908E+02  0.33832203888E+02  0.51100000000E-03 0.  1.
         12    1    3    3    0    0 -0.27798880234E+02  0.28573395468E+02 -0.19333635623E+02  0.44305825094E+02  0.00000000000E+00 0. -1.
</event>
<event>
 7    1  0.4400431E-015  0.9000797E+02  0.7816164E-02  0.1186339E+00
        -11   -1    0    0    0    0  0.00000000000E+00  0.00000000000E+00  0.45593999997E+02  0.45594000000E+02  0.51100000000E-03 0.  1.
         11   -1    0    0    0    0 -0.00000000000E+00 -0.00000000000E+00 -0.45593999997E+02  0.45594000000E+02  0.51100000000E-03 0. -1.
    9900012    2    1    2    0    0  0.67337182840E+00 -0.65408857139E+00 -0.71499411770E+00  0.90007966921E+02  0.90000231284E+02 0.  0.
         12    1    1    2    0    0 -0.67337182840E+00  0.65408857139E+00  0.71499411770E+00  0.11800330787E+01  0.00000000000E+00 0. -1.
         11    1    3    3    0    0 -0.20130251490E+02 -0.29057365726E+02  0.11041827970E+02  0.37033491507E+02  0.51100000000E-03 0. -1.
        -11    1    3    3    0    0  0.22790705392E+01 -0.87536310883E+01 -0.64687191690E+01  0.11120456272E+02  0.51100000000E-03 0.  1.
        -12    1    3    3    0    0  0.18524552779E+02  0.37156908243E+02 -0.52881029182E+01  0.41854019142E+02  0.00000000000E+00 0.  1.
</event>
<event>
 7    1  0.4400431E-015  0.9000782E+02  0.7816164E-02  0.1186339E+00
        -11   -1    0    0    0    0  0.00000000000E+00  0.00000000000E+00  0.45593999997E+02  0.45594000000E+02  0.51100000000E-03 0.  1.
         11   -1    0    0    0    0 -0.00000000000E+00 -0.00000000000E+00 -0.45593999997E+02  0.45594000000E+02  0.51100000000E-03 0. -1.
    9900012    2    1    2    0    0  0.10053387432E+01  0.24141182841E+00  0.56907406721E+00  0.90007817407E+02  0.90000079796E+02 0.  0.
         12    1    1    2    0    0 -0.10053387432E+01 -0.24141182841E+00 -0.56907406721E+00  0.11801825933E+01  0.00000000000E+00 0. -1.
         11    1    3    3    0    0  0.65473592668E+01  0.56473070216E+01  0.65963527853E+01  0.10875286676E+02  0.51100000000E-03 0. -1.
        -11    1    3    3    0    0  0.15647912510E+02 -0.20119885847E+02  0.27061812449E+02  0.37175377143E+02  0.51100000000E-03 0.  1.
         12    1    3    3    0    0 -0.21189933033E+02  0.14713990654E+02 -0.33089091167E+02  0.41957153588E+02  0.00000000000E+00 0. -1.
</event>
<event>
 7    1  0.4400431E-015  0.9000773E+02  0.7816164E-02  0.1186339E+00
        -11   -1    0    0    0    0  0.00000000000E+00  0.00000000000E+00  0.45593999997E+02  0.45594000000E+02  0.51100000000E-03 0. -1.
         11   -1    0    0    0    0 -0.00000000000E+00 -0.00000000000E+00 -0.45593999997E+02  0.45594000000E+02  0.51100000000E-03 0.  1.
    9900012    2    1    2    0    0 -0.99690973761E-01  0.81834547982E+00 -0.84463649295E+00  0.90007729514E+02  0.89999990744E+02 0.  0.
         12    1    1    2    0    0  0.99690973761E-01 -0.81834547982E+00  0.84463649295E+00  0.11802704859E+01  0.00000000000E+00 0. -1.
         11    1    3    3    0    0 -0.21845182070E+01 -0.20684711015E+02  0.28598559214E+02  0.35362508097E+02  0.51100000000E-03 0. -1.
        -11    1    3    3    0    0 -0.84272731043E+00 -0.10579109645E+02  0.55291199027E+00  0.10627015674E+02  0.51100000000E-03 0.  1.
        -12    1    3    3    0    0  0.29275545437E+01  0.32082166140E+02 -0.29996107697E+02  0.44018205743E+02  0.00000000000E+00 0.  1.
</event>
<event>
 7    1  0.4400431E-015  0.9000773E+02  0.7816164E-02  0.1186339E+00
        -11   -1    0    0    0    0  0.00000000000E+00  0.00000000000E+00  0.45593999997E+02  0.45594000000E+02  0.51100000000E-03 0.  1.
         11   -1    0    0    0    0 -0.00000000000E+00 -0.00000000000E+00 -0.45593999997E+02  0.45594000000E+02  0.51100000000E-03 0. -1.
    9900012    2    1    2    0    0 -0.64972454345E+00  0.31870558496E+00  0.93237818608E+00  0.90007727017E+02  0.89999988214E+02 0.  0.
         12    1    1    2    0    0  0.64972454345E+00 -0.31870558496E+00 -0.93237818608E+00  0.11802729829E+01  0.00000000000E+00 0. -1.
         11    1    3    3    0    0 -0.88087441130E+01  0.28048232645E+01  0.11544274601E+01  0.93163141539E+01  0.51100000000E-03 0. -1.
        -11    1    3    3    0    0  0.15803089441E+02 -0.35675458237E+02  0.16958850253E+02  0.42545018022E+02  0.51100000000E-03 0.  1.
         12    1    3    3    0    0 -0.76440698719E+01  0.33189340557E+02 -0.17180899527E+02  0.38146394841E+02  0.00000000000E+00 0. -1.
</event>
<event>
 7    1  0.4625109E-015  0.9000776E+02  0.7816164E-02  0.1186339E+00
        -11   -1    0    0    0    0  0.00000000000E+00  0.00000000000E+00  0.45593999997E+02  0.45594000000E+02  0.51100000000E-03 0. -1.
         11   -1    0    0    0    0 -0.00000000000E+00 -0.00000000000E+00 -0.45593999997E+02  0.45594000000E+02  0.51100000000E-03 0.  1.
    9900012    2    1    2    0    0 -0.80780724163E+00 -0.23593748429E+00 -0.82749661374E+00  0.90007758634E+02  0.90000020248E+02 0.  0.
         12    1    1    2    0    0  0.80780724163E+00  0.23593748429E+00  0.82749661374E+00  0.11802413659E+01  0.00000000000E+00 0. -1.
         11    1    3    3    0    0  0.23202234063E+02  0.18580437221E+02  0.20100457342E+02  0.35883209144E+02  0.51100000000E-03 0. -1.
        -11    1    3    3    0    0 -0.83337718533E+00  0.88572606843E+01  0.45008717382E+01  0.99701269313E+01  0.51100000000E-03 0.  1.
        -12    1    3    3    0    0 -0.23176664119E+02 -0.27673635390E+02 -0.25428825694E+02  0.44154422559E+02  0.00000000000E+00 0.  1.
</event>
<event>
 7    1 -0.4400431E-015  0.9000788E+02  0.7816164E-02  0.1186339E+00
        -11   -1    0    0    0    0  0.00000000000E+00  0.00000000000E+00  0.45593999997E+02  0.45594000000E+02  0.51100000000E-03 0.  1.
         11   -1    0    0    0    0 -0.00000000000E+00 -0.00000000000E+00 -0.45593999997E+02  0.45594000000E+02  0.51100000000E-03 0. -1.
    9900012    2    1    2    0    0  0.86509256486E+00  0.22306027243E+00  0.77105800106E+00  0.90007884975E+02  0.90000148257E+02 0.  0.
         12    1    1    2    0    0 -0.86509256486E+00 -0.22306027243E+00 -0.77105800106E+00  0.11801150249E+01  0.00000000000E+00 0. -1.
         11    1    3    3    0    0  0.85249521995E+01  0.59385732746E+01  0.12213550431E+02  0.16034720981E+02  0.51100000000E-03 0. -1.
        -11    1    3    3    0    0  0.85413829108E+01  0.21352834221E+02  0.19226439132E+02  0.29975902209E+02  0.51100000000E-03 0.  1.
         12    1    3    3    0    0 -0.16201242545E+02 -0.27068347223E+02 -0.30668931562E+02  0.43997261785E+02  0.00000000000E+00 0. -1.
</event>
<event>
 7    1  0.4400431E-015  0.9000784E+02  0.7816164E-02  0.1186339E+00
        -11   -1    0    0    0    0  0.00000000000E+00  0.00000000000E+00  0.45593999997E+02  0.45594000000E+02  0.51100000000E-03 0. -1.
         11   -1    0    0    0    0 -0.00000000000E+00 -0.00000000000E+00 -0.45593999997E+02  0.45594000000E+02  0.51100000000E-03 0.  1.
    9900012    2    1    2    0    0 -0.76596832804E+00  0.50637599331E+00 -0.74138574959E+00  0.90007840284E+02  0.90000102975E+02 0.  0.
         12    1    1    2    0    0  0.76596832804E+00 -0.50637599331E+00  0.74138574959E+00  0.11801597162E+01  0.00000000000E+00 0. -1.
         11    1    3    3    0    0  0.36611744513E+02  0.17078784858E+02 -0.13892897774E+02  0.42721392034E+02  0.51100000000E-03 0. -1.
        -11    1    3    3    0    0 -0.10494055725E+01 -0.49755064352E+01  0.70108748165E+01  0.86607899349E+01  0.51100000000E-03 0.  1.
        -12    1    3    3    0    0 -0.36328307268E+02 -0.11596902430E+02  0.61406372081E+01  0.38625658315E+02  0.00000000000E+00 0.  1.
</event>
<event>
 7    1  0.4400431E-015  0.9000767E+02  0.7816164E-02  0.1186339E+00
        -11   -1    0    0    0    0  0.00000000000E+00  0.00000000000E+00  0.45593999997E+02  0.45594000000E+02  0.51100000000E-03 0.  1.
         11   -1    0    0    0    0 -0.00000000000E+00 -0.00000000000E+00 -0.45593999997E+02  0.45594000000E+02  0.51100000000E-03 0. -1.
    9900012    2    1    2    0    0 -0.63797505402E+00 -0.16652314096E+00  0.97899251744E+00  0.90007674420E+02  0.89999934922E+02 0.  0.
         12    1    1    2    0    0  0.63797505402E+00  0.16652314096E+00 -0.97899251744E+00  0.11803255802E+01  0.00000000000E+00 0. -1.
         11    1    3    3    0    0  0.65528291989E+01 -0.41465703959E+01  0.29067353282E+01  0.82814688967E+01  0.51100000000E-03 0. -1.
        -11    1    3    3    0    0  0.33768038225E+02  0.10462039479E+02  0.12980290634E+02  0.37659296606E+02  0.51100000000E-03 0.  1.
         12    1    3    3    0    0 -0.40958842478E+02 -0.64819922243E+01 -0.14908033445E+02  0.44066908917E+02  0.00000000000E+00 0. -1.
</event>
<event>
 7    1  0.4400431E-015  0.9000778E+02  0.7816164E-02  0.1186339E+00
        -11   -1    0    0    0    0  0.00000000000E+00  0.00000000000E+00  0.45593999997E+02  0.45594000000E+02  0.51100000000E-03 0. -1.
         11   -1    0    0    0    0 -0.00000000000E+00 -0.00000000000E+00 -0.45593999997E+02  0.45594000000E+02  0.51100000000E-03 0.  1.
    9900012    2    1    2    0    0 -0.11322546228E+01 -0.55303367694E-01 -0.32843379752E+00  0.90007776397E+02  0.90000038246E+02 0.  0.
         12    1    1    2    0    0  0.11322546228E+01  0.55303367694E-01  0.32843379752E+00  0.11802236028E+01  0.00000000000E+00 0. -1.
         11    1    3    3    0    0 -0.83021206958E+01  0.19392283290E+01 -0.48416772273E+01  0.98044710818E+01  0.51100000000E-03 0. -1.
        -11    1    3    3    0    0 -0.16823315720E+01 -0.14126245977E+02  0.39578397364E+02  0.42057467863E+02  0.51100000000E-03 0.  1.
         12    1    3    3    0    0  0.88521976450E+01  0.12131714280E+02 -0.35065153934E+02  0.38145837452E+02  0.00000000000E+00 0. -1.
</event>
<event>
 7    1  0.4400431E-015  0.9000778E+02  0.7816164E-02  0.1186339E+00
        -11   -1    0    0    0    0  0.00000000000E+00  0.00000000000E+00  0.45593999997E+02  0.45594000000E+02  0.51100000000E-03 0.  1.
         11   -1    0    0    0    0 -0.00000000000E+00 -0.00000000000E+00 -0.45593999997E+02  0.45594000000E+02  0.51100000000E-03 0. -1.
    9900012    2    1    2    0    0  0.11351580516E+01  0.14059953680E-02 -0.32299943962E+00  0.90007782047E+02  0.90000043970E+02 0.  0.
         12    1    1    2    0    0 -0.11351580516E+01 -0.14059953680E-02  0.32299943962E+00  0.11802179531E+01  0.00000000000E+00 0. -1.
         11    1    3    3    0    0  0.82934538580E+01 -0.53719006040E+01  0.10400306050E+02  0.14345907402E+02  0.51100000000E-03 0. -1.
        -11    1    3    3    0    0 -0.77474798642E+01 -0.29334618408E+02  0.13626767725E+02  0.33260067352E+02  0.51100000000E-03 0.  1.
         12    1    3    3    0    0  0.58918405785E+00  0.34707925008E+02 -0.24350073214E+02  0.42401807293E+02  0.00000000000E+00 0. -1.
</event>
<event>
 7    1  0.4400431E-015  0.9000776E+02  0.7816164E-02  0.1186339E+00
        -11   -1    0    0    0    0  0.00000000000E+00  0.00000000000E+00  0.45593999997E+02  0.45594000000E+02  0.51100000000E-03 0. -1.
         11   -1    0    0    0    0 -0.00000000000E+00 -0.00000000000E+00 -0.45593999997E+02  0.45594000000E+02  0.51100000000E-03 0.  1.
    9900012    2    1    2    0    0  0.10528722823E+01 -0.34147023085E+00 -0.40966415663E+00  0.90007759905E+02  0.90000021535E+02 0.  0.
         12    1    1    2    0    0 -0.10528722823E+01  0.34147023085E+00  0.40966415663E+00  0.11802400953E+01  0.00000000000E+00 0. -1.
         11    1    3    3    0    0  0.46072649475E+01 -0.73546809939E+01  0.66032091655E+01  0.10905071956E+02  0.51100000000E-03 0. -1.
        -11    1    3    3    0    0  0.14864528549E+02  0.20018328322E+02 -0.35119040855E+02  0.43070113869E+02  0.51100000000E-03 0.  1.
         12    1    3    3    0    0 -0.18418921214E+02 -0.13005117559E+02  0.28106167533E+02  0.36032574080E+02  0.00000000000E+00 0. -1.
</event>
<event>
 7    1  0.4400431E-015  0.9000773E+02  0.7816164E-02  0.1186339E+00
        -11   -1    0    0    0    0  0.00000000000E+00  0.00000000000E+00  0.45593999997E+02  0.45594000000E+02  0.51100000000E-03 0.  1.
         11   -1    0    0    0    0 -0.00000000000E+00 -0.00000000000E+00 -0.45593999997E+02  0.45594000000E+02  0.51100000000E-03 0. -1.
    9900012    2    1    2    0    0  0.62558918814E+00  0.50077581164E+00 -0.86654334261E+00  0.90007730704E+02  0.89999991950E+02 0.  0.
         12    1    1    2    0    0 -0.62558918814E+00 -0.50077581164E+00  0.86654334261E+00  0.11802692957E+01  0.00000000000E+00 0. -1.
         11    1    3    3    0    0 -0.81516559602E+01 -0.36181571041E+02 -0.18750857590E+02  0.41558997082E+02  0.51100000000E-03 0. -1.
        -11    1    3    3    0    0  0.10168558698E+02  0.49152729853E+01 -0.12096419645E+01  0.11358817212E+02  0.51100000000E-03 0.  1.
        -12    1    3    3    0    0 -0.13913135496E+01  0.31767073867E+02  0.19093956212E+02  0.37089916410E+02  0.00000000000E+00 0.  1.
</event>
<event>
 7    1  0.4400431E-015  0.9000776E+02  0.7816164E-02  0.1186339E+00
        -11   -1    0    0    0    0  0.00000000000E+00  0.00000000000E+00  0.45593999997E+02  0.45594000000E+02  0.51100000000E-03 0. -1.
         11   -1    0    0    0    0 -0.00000000000E+00 -0.00000000000E+00 -0.45593999997E+02  0.45594000000E+02  0.51100000000E-03 0.  1.
    9900012    2    1    2    0    0 -0.10895894057E+01 -0.27139150972E+00  0.36346041619E+00  0.90007761931E+02  0.90000023589E+02 0.  0.
         12    1    1    2    0    0  0.10895894057E+01  0.27139150972E+00 -0.36346041619E+00  0.11802380687E+01  0.00000000000E+00 0. -1.
         11    1    3    3    0    0 -0.82292608875E+01 -0.39944296227E+01 -0.61681282575E+01  0.11032769789E+02  0.51100000000E-03 0. -1.
        -11    1    3    3    0    0 -0.13994739684E+02  0.25577409563E+02 -0.22584368501E+02  0.36879673530E+02  0.51100000000E-03 0.  1.
         12    1    3    3    0    0  0.21134411166E+02 -0.21854371450E+02  0.29115957175E+02  0.42095318612E+02  0.00000000000E+00 0. -1.
</event>
<event>
 7    1  0.4400431E-015  0.9000776E+02  0.7816164E-02  0.1186339E+00
        -11   -1    0    0    0    0  0.00000000000E+00  0.00000000000E+00  0.45593999997E+02  0.45594000000E+02  0.51100000000E-03 0.  1.
         11   -1    0    0    0    0 -0.00000000000E+00 -0.00000000000E+00 -0.45593999997E+02  0.45594000000E+02  0.51100000000E-03 0. -1.
    9900012    2    1    2    0    0 -0.59973531117E+00 -0.84564644259E+00  0.56405994184E+00  0.90007761055E+02  0.90000022701E+02 0.  0.
         12    1    1    2    0    0  0.59973531117E+00  0.84564644259E+00 -0.56405994184E+00  0.11802389450E+01  0.00000000000E+00 0. -1.
         11    1    3    3    0    0  0.53965006964E+01 -0.14449746378E+01  0.77593208941E+01  0.95612359279E+01  0.51100000000E-03 0. -1.
        -11    1    3    3    0    0 -0.89028512351E+01  0.16213027662E+02  0.32665245402E+02  0.37538530652E+02  0.51100000000E-03 0.  1.
         12    1    3    3    0    0  0.29066152276E+01 -0.15613699466E+02 -0.39860506354E+02  0.42907994475E+02  0.00000000000E+00 0. -1.
</event>
<event>
 7    1  0.4400431E-015  0.9000775E+02  0.7816164E-02  0.1186339E+00
        -11   -1    0    0    0    0  0.00000000000E+00  0.00000000000E+00  0.45593999997E+02  0.45594000000E+02  0.51100000000E-03 0. -1.
         11   -1    0    0    0    0 -0.00000000000E+00 -0.00000000000E+00 -0.45593999997E+02  0.45594000000E+02  0.51100000000E-03 0.  1.
    9900012    2    1    2    0    0 -0.81218292201E+00 -0.35379218841E+00 -0.77986245066E+00  0.90007747716E+02  0.90000009186E+02 0.  0.
         12    1    1    2    0    0  0.81218292201E+00  0.35379218841E+00  0.77986245066E+00  0.11802522838E+01  0.00000000000E+00 0. -1.
         11    1    3    3    0    0  0.74511506974E+01  0.60497036380E+01 -0.41144643843E+01  0.10442575269E+02  0.51100000000E-03 0. -1.
        -11    1    3    3    0    0  0.96576109515E+01  0.14798318445E+02 -0.30835137569E+02  0.35539631220E+02  0.51100000000E-03 0.  1.
         12    1    3    3    0    0 -0.17920944571E+02 -0.21201814271E+02  0.34169739502E+02  0.44025541227E+02  0.00000000000E+00 0. -1.
</event>
<event>
 7    1  0.4400431E-015  0.9000771E+02  0.7816164E-02  0.1186339E+00
        -11   -1    0    0    0    0  0.00000000000E+00  0.00000000000E+00  0.45593999997E+02  0.45594000000E+02  0.51100000000E-03 0.  1.
         11   -1    0    0    0    0 -0.00000000000E+00 -0.00000000000E+00 -0.45593999997E+02  0.45594000000E+02  0.51100000000E-03 0. -1.
    9900012    2    1    2    0    0  0.85380418042E+00  0.49585843938E+00  0.64669964501E+00  0.90007712916E+02  0.89999973926E+02 0.  0.
         12    1    1    2    0    0 -0.85380418042E+00 -0.49585843938E+00 -0.64669964501E+00  0.11802870843E+01  0.00000000000E+00 0. -1.
         11    1    3    3    0    0  0.18953535768E+01 -0.25821045118E+01  0.79835005550E+01  0.86020875526E+01  0.51100000000E-03 0. -1.
        -11    1    3    3    0    0  0.29483674445E+02  0.43521269707E+01  0.23532501770E+02  0.37973763413E+02  0.51100000000E-03 0.  1.
         12    1    3    3    0    0 -0.30525223841E+02 -0.12741640195E+01 -0.30869302680E+02  0.43431861950E+02  0.00000000000E+00 0. -1.
</event>
<event>
 7    1  0.4400431E-015  0.9000816E+02  0.7816164E-02  0.1186338E+00
        -11   -1    0    0    0    0  0.00000000000E+00  0.00000000000E+00  0.45593999997E+02  0.45594000000E+02  0.51100000000E-03 0.  1.
         11   -1    0    0    0    0 -0.00000000000E+00 -0.00000000000E+00 -0.45593999997E+02  0.45594000000E+02  0.51100000000E-03 0. -1.
    9900012    2    1    2    0    0  0.74603718360E+00  0.84479848509E+00 -0.34894631923E+00  0.90008161243E+02  0.90000428170E+02 0.  0.
         12    1    1    2    0    0 -0.74603718360E+00 -0.84479848509E+00  0.34894631923E+00  0.11798387574E+01  0.00000000000E+00 0. -1.
         11    1    3    3    0    0 -0.34463818141E+01  0.20104507264E+01  0.77087911517E+01  0.86801452185E+01  0.51100000000E-03 0. -1.
        -11    1    3    3    0    0  0.12209261877E+02  0.99380279168E+01  0.33800234505E+02  0.37286543515E+02  0.51100000000E-03 0.  1.
         12    1    3    3    0    0 -0.80168428791E+01 -0.11103680158E+02 -0.41857971976E+02  0.44041472509E+02  0.00000000000E+00 0. -1.
</event>
<event>
 7    1  0.4400431E-015  0.9000773E+02  0.7816164E-02  0.1186339E+00
        -11   -1    0    0    0    0  0.00000000000E+00  0.00000000000E+00  0.45593999997E+02  0.45594000000E+02  0.51100000000E-03 0.  1.
         11   -1    0    0    0    0 -0.00000000000E+00 -0.00000000000E+00 -0.45593999997E+02  0.45594000000E+02  0.51100000000E-03 0. -1.
    9900012    2    1    2    0    0  0.11111874537E+01  0.16300157195E+00  0.36294762014E+00  0.90007729673E+02  0.89999990905E+02 0.  0.
         12    1    1    2    0    0 -0.11111874537E+01 -0.16300157195E+00 -0.36294762014E+00  0.11802703270E+01  0.00000000000E+00 0. -1.
         11    1    3    3    0    0 -0.27882275956E+02  0.53041192519E+01 -0.27669496035E+02  0.39637810290E+02  0.51100000000E-03 0. -1.
        -11    1    3    3    0    0  0.31259821400E+01 -0.10895471073E+02 -0.60695935541E+00  0.11351275442E+02  0.51100000000E-03 0.  1.
        -12    1    3    3    0    0  0.25867481270E+02  0.57543533932E+01  0.28639403010E+02  0.39018643941E+02  0.00000000000E+00 0.  1.
</event>
<event>
 7    1  0.4400431E-015  0.9000773E+02  0.7816164E-02  0.1186339E+00
        -11   -1    0    0    0    0  0.00000000000E+00  0.00000000000E+00  0.45593999997E+02  0.45594000000E+02  0.51100000000E-03 0.  1.
         11   -1    0    0    0    0 -0.00000000000E+00 -0.00000000000E+00 -0.45593999997E+02  0.45594000000E+02  0.51100000000E-03 0. -1.
    9900012    2    1    2    0    0 -0.50594108613E+00 -0.10441902508E+01 -0.21617873433E+00  0.90007727613E+02  0.89999988817E+02 0.  0.
         12    1    1    2    0    0  0.50594108613E+00  0.10441902508E+01  0.21617873433E+00  0.11802723870E+01  0.00000000000E+00 0. -1.
         11    1    3    3    0    0 -0.18923604986E+02  0.27375003902E+02  0.82812589727E+01  0.34293919500E+02  0.51100000000E-03 0. -1.
        -11    1    3    3    0    0 -0.11552378219E+01  0.76939821827E+01  0.82632809605E+01  0.11349614476E+02  0.51100000000E-03 0.  1.
        -12    1    3    3    0    0  0.19572901722E+02 -0.36113176335E+02 -0.16760718668E+02  0.44364193637E+02  0.00000000000E+00 0.  1.
</event>
<event>
 7    1  0.4545613E-015  0.9000888E+02  0.7816164E-02  0.1186337E+00
        -11   -1    0    0    0    0  0.00000000000E+00  0.00000000000E+00  0.45593999997E+02  0.45594000000E+02  0.51100000000E-03 0.  1.
         11   -1    0    0    0    0 -0.00000000000E+00 -0.00000000000E+00 -0.45593999997E+02  0.45594000000E+02  0.51100000000E-03 0. -1.
    9900012    2    1    2    0    0 -0.21355686514E+00 -0.85836165229E+00  0.77969619234E+00  0.90008882782E+02  0.90001159228E+02 0.  0.
         12    1    1    2    0    0  0.21355686514E+00  0.85836165229E+00 -0.77969619234E+00  0.11791172177E+01  0.00000000000E+00 0. -1.
         11    1    3    3    0    0  0.26286550834E+02 -0.10650896597E+02 -0.28659942117E+02  0.40321416585E+02  0.51100000000E-03 0. -1.
        -11    1    3    3    0    0 -0.20202033453E+01  0.82256956689E+01 -0.30279923231E+01  0.89951113703E+01  0.51100000000E-03 0.  1.
        -12    1    3    3    0    0 -0.24479904354E+02  0.15668392753E+01  0.32467630632E+02  0.40692354827E+02  0.00000000000E+00 0.  1.
</event>
<event>
 7    1  0.4400431E-015  0.9000776E+02  0.7816164E-02  0.1186339E+00
        -11   -1    0    0    0    0  0.00000000000E+00  0.00000000000E+00  0.45593999997E+02  0.45594000000E+02  0.51100000000E-03 0. -1.
         11   -1    0    0    0    0 -0.00000000000E+00 -0.00000000000E+00 -0.45593999997E+02  0.45594000000E+02  0.51100000000E-03 0.  1.
    9900012    2    1    2    0    0  0.10879406681E+01  0.33187512209E+00  0.31496551421E+00  0.90007763045E+02  0.90000024718E+02 0.  0.
         12    1    1    2    0    0 -0.10879406681E+01 -0.33187512209E+00 -0.31496551421E+00  0.11802369546E+01  0.00000000000E+00 0. -1.
         11    1    3    3    0    0  0.14671173153E+02  0.23729283862E+02  0.26845469709E+02  0.38716940458E+02  0.51100000000E-03 0. -1.
        -11    1    3    3    0    0  0.71664436011E+01  0.37117870138E+01 -0.25354949747E-01  0.80706827381E+01  0.51100000000E-03 0.  1.
        -12    1    3    3    0    0 -0.20749676086E+02 -0.27109195754E+02 -0.26505149245E+02  0.43220139849E+02  0.00000000000E+00 0.  1.
</event>
<event>
 7    1  0.4400431E-015  0.9000770E+02  0.7816164E-02  0.1186339E+00
        -11   -1    0    0    0    0  0.00000000000E+00  0.00000000000E+00  0.45593999997E+02  0.45594000000E+02  0.51100000000E-03 0. -1.
         11   -1    0    0    0    0 -0.00000000000E+00 -0.00000000000E+00 -0.45593999997E+02  0.45594000000E+02  0.51100000000E-03 0.  1.
    9900012    2    1    2    0    0 -0.16546147739E+00 -0.11514449471E+01  0.19978857351E+00  0.90007695615E+02  0.89999956397E+02 0.  0.
         12    1    1    2    0    0  0.16546147739E+00  0.11514449471E+01 -0.19978857351E+00  0.11803043848E+01  0.00000000000E+00 0. -1.
         11    1    3    3    0    0 -0.10399786024E+02 -0.19261088009E+01  0.39927095978E+02  0.41304218162E+02  0.51100000000E-03 0. -1.
        -11    1    3    3    0    0 -0.75434130581E+01 -0.28040497409E+01 -0.48574930638E+01  0.94000539701E+01  0.51100000000E-03 0.  1.
        -12    1    3    3    0    0  0.17777737604E+02  0.35787135947E+01 -0.34869814341E+02  0.39303423483E+02  0.00000000000E+00 0.  1.
</event>
<event>
 7    1  0.4400431E-015  0.9000777E+02  0.7816164E-02  0.1186339E+00
        -11   -1    0    0    0    0  0.00000000000E+00  0.00000000000E+00  0.45593999997E+02  0.45594000000E+02  0.51100000000E-03 0. -1.
         11   -1    0    0    0    0 -0.00000000000E+00 -0.00000000000E+00 -0.45593999997E+02  0.45594000000E+02  0.51100000000E-03 0.  1.
    9900012    2    1    2    0    0 -0.38317323506E+00  0.99686487957E+00  0.50236907947E+00  0.90007772900E+02  0.90000034702E+02 0.  0.
         12    1    1    2    0    0  0.38317323506E+00 -0.99686487957E+00 -0.50236907947E+00  0.11802271003E+01  0.00000000000E+00 0. -1.
         11    1    3    3    0    0  0.65883536799E+01 -0.17142268608E+01 -0.62574059774E+01  0.92466268319E+01  0.51100000000E-03 0. -1.
        -11    1    3    3    0    0  0.23026022156E+02  0.19045700310E+02 -0.21184951603E+02  0.36629749812E+02  0.51100000000E-03 0.  1.
         12    1    3    3    0    0 -0.29997549071E+02 -0.16334608570E+02  0.27944726660E+02  0.44131396256E+02  0.00000000000E+00 0. -1.
</event>
<event>
 7    1  0.4400431E-015  0.9000778E+02  0.7816164E-02  0.1186339E+00
        -11   -1    0    0    0    0  0.00000000000E+00  0.00000000000E+00  0.45593999997E+02  0.45594000000E+02  0.51100000000E-03 0.  1.
         11   -1    0    0    0    0 -0.00000000000E+00 -0.00000000000E+00 -0.45593999997E+02  0.45594000000E+02  0.51100000000E-03 0. -1.
    9900012    2    1    2    0    0  0.27951308191E+00 -0.41807561730E+00  0.10677112410E+01  0.90007778801E+02  0.90000040681E+02 0.  0.
         12    1    1    2    0    0 -0.27951308191E+00  0.41807561730E+00 -0.10677112410E+01  0.11802211992E+01  0.00000000000E+00 0. -1.
         11    1    3    3    0    0  0.10679680184E+02 -0.31895978615E+02  0.10007308359E+02  0.35093521360E+02  0.51100000000E-03 0. -1.
        -11    1    3    3    0    0 -0.71728105585E+01 -0.37047411614E+01  0.11535363068E+02  0.14079734364E+02  0.51100000000E-03 0.  1.
        -12    1    3    3    0    0 -0.32273565433E+01  0.35182644159E+02 -0.20474960186E+02  0.40834523077E+02  0.00000000000E+00 0.  1.
</event>
<event>
 7    1  0.4400431E-015  0.9000802E+02  0.7816164E-02  0.1186338E+00
        -11   -1    0    0    0    0  0.00000000000E+00  0.00000000000E+00  0.45593999997E+02  0.45594000000E+02  0.51100000000E-03 0.  1.
         11   -1    0    0    0    0 -0.00000000000E+00 -0.00000000000E+00 -0.45593999997E+02  0.45594000000E+02  0.51100000000E-03 0. -1.
    9900012    2    1    2    0    0 -0.59495814016E+00 -0.77986094711E+00  0.65589715877E+00  0.90008017217E+02  0.90000282244E+02 0.  0.
         12    1    1    2    0    0  0.59495814016E+00  0.77986094711E+00 -0.65589715877E+00  0.11799827830E+01  0.00000000000E+00 0. -1.
         11    1    3    3    0    0  0.22123514060E+02 -0.31603551391E+02  0.71641061675E+01  0.39237211321E+02  0.51100000000E-03 0. -1.
        -11    1    3    3    0    0 -0.74231468657E+01 -0.53534411731E+01 -0.69479626680E+01  0.11490719180E+02  0.51100000000E-03 0.  1.
        -12    1    3    3    0    0 -0.15295325334E+02  0.36177131617E+02  0.43975365925E+00  0.39280086715E+02  0.00000000000E+00 0.  1.
</event>
<event>
 7    1  0.4400431E-015  0.9000770E+02  0.7816164E-02  0.1186339E+00
        -11   -1    0    0    0    0  0.00000000000E+00  0.00000000000E+00  0.45593999997E+02  0.45594000000E+02  0.51100000000E-03 0. -1.
         11   -1    0    0    0    0 -0.00000000000E+00 -0.00000000000E+00 -0.45593999997E+02  0.45594000000E+02  0.51100000000E-03 0.  1.
    9900012    2    1    2    0    0  0.79651868091E+00 -0.55217563189E+00 -0.67362306569E+00  0.90007700050E+02  0.89999960891E+02 0.  0.
         12    1    1    2    0    0 -0.79651868091E+00  0.55217563189E+00  0.67362306569E+00  0.11802999501E+01  0.00000000000E+00 0. -1.
         11    1    3    3    0    0 -0.73222222961E+01 -0.48862637745E+01  0.38158910257E+02  0.39161115220E+02  0.51100000000E-03 0. -1.
        -11    1    3    3    0    0 -0.79284941580E+00  0.87251524488E+01  0.18621282179E+01  0.89568084277E+01  0.51100000000E-03 0.  1.
        -12    1    3    3    0    0  0.89115903928E+01 -0.43910643062E+01 -0.40694661541E+02  0.41889776402E+02  0.00000000000E+00 0.  1.
</event>
<event>
 7    1  0.4400431E-015  0.9000772E+02  0.7816164E-02  0.1186339E+00
        -11   -1    0    0    0    0  0.00000000000E+00  0.00000000000E+00  0.45593999997E+02  0.45594000000E+02  0.51100000000E-03 0. -1.
         11   -1    0    0    0    0 -0.00000000000E+00 -0.00000000000E+00 -0.45593999997E+02  0.45594000000E+02  0.51100000000E-03 0.  1.
    9900012    2    1    2    0    0  0.49070148440E+00  0.10702317013E+01 -0.82921912267E-01  0.90007720421E+02  0.89999981530E+02 0.  0.
         12    1    1    2    0    0 -0.49070148440E+00 -0.10702317013E+01  0.82921912267E-01  0.11802795791E+01  0.00000000000E+00 0. -1.
         11    1    3    3    0    0  0.50453925693E+01  0.66744714446E+01  0.35602306464E+01  0.90928432165E+01  0.51100000000E-03 0. -1.
        -11    1    3    3    0    0  0.35108840566E+02  0.65397663166E+01 -0.13669361936E+02  0.38239386572E+02  0.51100000000E-03 0.  1.
         12    1    3    3    0    0 -0.39663531651E+02 -0.12144006060E+02  0.10026209378E+02  0.42675490632E+02  0.00000000000E+00 0. -1.
</event>
<event>
 7    1  0.4400431E-015  0.9000776E+02  0.7816164E-02  0.1186339E+00
        -11   -1    0    0    0    0  0.00000000000E+00  0.00000000000E+00  0.45593999997E+02  0.45594000000E+02  0.51100000000E-03 0.  1.
         11   -1    0    0    0    0 -0.00000000000E+00 -0.00000000000E+00 -0.45593999997E+02  0.45594000000E+02  0.51100000000E-03 0. -1.
    9900012    2    1    2    0    0  0.50346783862E+00  0.10527623050E+01 -0.17658804143E+00  0.90007757791E+02  0.90000019394E+02 0.  0.
         12    1    1    2    0    0 -0.50346783862E+00 -0.10527623050E+01  0.17658804143E+00  0.11802422089E+01  0.00000000000E+00 0. -1.
         11    1    3    3    0    0  0.12698347212E+02 -0.98675727435E+01 -0.10567915773E+02  0.19243124949E+02  0.51100000000E-03 0. -1.
        -11    1    3    3    0    0  0.18980913195E+02 -0.16676352398E+02  0.14152331013E+02  0.28959700765E+02  0.51100000000E-03 0.  1.
        -12    1    3    3    0    0 -0.31175792569E+02  0.27596687446E+02 -0.37610032818E+01  0.41804932077E+02  0.00000000000E+00 0.  1.
</event>
<event>
 7    1  0.4400431E-015  0.9000770E+02  0.7816164E-02  0.1186339E+00
        -11   -1    0    0    0    0  0.00000000000E+00  0.00000000000E+00  0.45593999997E+02  0.45594000000E+02  0.51100000000E-03 0.  1.
         11   -1    0    0    0    0 -0.00000000000E+00 -0.00000000000E+00 -0.45593999997E+02  0.45594000000E+02  0.51100000000E-03 0. -1.
    9900012    2    1    2    0    0 -0.41884958633E-01  0.10019628015E+01  0.62242752156E+00  0.90007703501E+02  0.89999964387E+02 0.  0.
         12    1    1    2    0    0  0.41884958633E-01 -0.10019628015E+01 -0.62242752156E+00  0.11802964987E+01  0.00000000000E+00 0. -1.
         11    1    3    3    0    0  0.27626106867E+02 -0.26609189059E+02 -0.27311272048E+01  0.38453995619E+02  0.51100000000E-03 0. -1.
        -11    1    3    3    0    0  0.17967975093E+01 -0.29928716929E+01  0.80868668587E+01  0.88081313632E+01  0.51100000000E-03 0.  1.
        -12    1    3    3    0    0 -0.29464789335E+02  0.30604023553E+02 -0.47333121323E+01  0.42745576519E+02  0.00000000000E+00 0.  1.
</event>
<event>
 7    1  0.4400431E-015  0.9000736E+02  0.7816164E-02  0.1186340E+00
        -11   -1    0    0    0    0  0.00000000000E+00  0.00000000000E+00  0.45593999997E+02  0.45594000000E+02  0.51100000000E-03 0. -1.
         11   -1    0    0    0    0 -0.00000000000E+00 -0.00000000000E+00 -0.45593999997E+02  0.45594000000E+02  0.51100000000E-03 0.  1.
    9900012    2    1    2    0    0  0.34863686538E+00  0.63878058932E+00 -0.92969212425E+00  0.90007357907E+02  0.89999614231E+02 0.  0.
         12    1    1    2    0    0 -0.34863686538E+00 -0.63878058932E+00  0.92969212425E+00  0.11806420927E+01  0.00000000000E+00 0. -1.
         11    1    3    3    0    0 -0.23529041371E+01 -0.61922122505E+01  0.17684027952E+01  0.68561577535E+01  0.51100000000E-03 0. -1.
        -11    1    3    3    0    0 -0.66041690801E+01  0.34037263509E+02 -0.28219808945E+02  0.44704675075E+02  0.51100000000E-03 0.  1.
         12    1    3    3    0    0  0.93057100825E+01 -0.27206270669E+02  0.25521714025E+02  0.38446525079E+02  0.00000000000E+00 0. -1.
</event>
<event>
 7    1  0.4400431E-015  0.9000781E+02  0.7816164E-02  0.1186339E+00
        -11   -1    0    0    0    0  0.00000000000E+00  0.00000000000E+00  0.45593999997E+02  0.45594000000E+02  0.51100000000E-03 0.  1.
         11   -1    0    0    0    0 -0.00000000000E+00 -0.00000000000E+00 -0.45593999997E+02  0.45594000000E+02  0.51100000000E-03 0. -1.
    9900012    2    1    2    0    0 -0.10718779680E+01 -0.12960649825E+00  0.47656762937E+00  0.90007814876E+02  0.90000077232E+02 0.  0.
         12    1    1    2    0    0  0.10718779680E+01  0.12960649825E+00 -0.47656762937E+00  0.11801851245E+01  0.00000000000E+00 0. -1.
         11    1    3    3    0    0  0.29771089183E+02  0.57297508483E+01  0.22207613716E+02  0.37580924724E+02  0.51100000000E-03 0. -1.
        -11    1    3    3    0    0  0.79763106421E+01 -0.41311540333E+00 -0.90368372489E+00  0.80379624490E+01  0.51100000000E-03 0.  1.
        -12    1    3    3    0    0 -0.38819277793E+02 -0.54462419432E+01 -0.20827362361E+02  0.44388927703E+02  0.00000000000E+00 0.  1.
</event>
<event>
 7    1  0.4400431E-015  0.9000775E+02  0.7816164E-02  0.1186339E+00
        -11   -1    0    0    0    0  0.00000000000E+00  0.00000000000E+00  0.45593999997E+02  0.45594000000E+02  0.51100000000E-03 0.  1.
         11   -1    0    0    0    0 -0.00000000000E+00 -0.00000000000E+00 -0.45593999997E+02  0.45594000000E+02  0.51100000000E-03 0. -1.
    9900012    2    1    2    0    0 -0.30486147613E+00  0.75474096695E+00  0.85463723189E+00  0.90007754583E+02  0.90000016143E+02 0.  0.
         12    1    1    2    0    0  0.30486147613E+00 -0.75474096695E+00 -0.85463723189E+00  0.11802454173E+01  0.00000000000E+00 0. -1.
         11    1    3    3    0    0  0.79844792565E+01 -0.90572425742E+00  0.11899951212E+01  0.81233203850E+01  0.51100000000E-03 0. -1.
        -11    1    3    3    0    0  0.24936974285E+01  0.24491300789E+02  0.32306328107E+02  0.40617006010E+02  0.51100000000E-03 0.  1.
         12    1    3    3    0    0 -0.10783038161E+02 -0.22830835564E+02 -0.32641685996E+02  0.41267428188E+02  0.00000000000E+00 0. -1.
</event>
<event>
 7    1  0.4400431E-015  0.9000771E+02  0.7816164E-02  0.1186339E+00
        -11   -1    0    0    0    0  0.00000000000E+00  0.00000000000E+00  0.45593999997E+02  0.45594000000E+02  0.51100000000E-03 0. -1.
         11   -1    0    0    0    0 -0.00000000000E+00 -0.00000000000E+00 -0.45593999997E+02  0.45594000000E+02  0.51100000000E-03 0.  1.
    9900012    2    1    2    0    0 -0.15145685838E+00 -0.11689953875E+01  0.59873365092E-01  0.90007714350E+02  0.89999975379E+02 0.  0.
         12    1    1    2    0    0  0.15145685838E+00  0.11689953875E+01 -0.59873365092E-01  0.11802856501E+01  0.00000000000E+00 0. -1.
         11    1    3    3    0    0  0.26254133343E+01 -0.90448584358E+01 -0.29653873308E+00  0.94228549167E+01  0.51100000000E-03 0. -1.
        -11    1    3    3    0    0  0.35972914473E+02 -0.10167837145E+02  0.44417167274E+01  0.37645243201E+02  0.51100000000E-03 0.  1.
         12    1    3    3    0    0 -0.38749784666E+02  0.18043700193E+02 -0.40853046292E+01  0.42939616233E+02  0.00000000000E+00 0. -1.
</event>
<event>
 7    1  0.4400431E-015  0.9000771E+02  0.7816164E-02  0.1186339E+00
        -11   -1    0    0    0    0  0.00000000000E+00  0.00000000000E+00  0.45593999997E+02  0.45594000000E+02  0.51100000000E-03 0. -1.
         11   -1    0    0    0    0 -0.00000000000E+00 -0.00000000000E+00 -0.45593999997E+02  0.45594000000E+02  0.51100000000E-03 0.  1.
    9900012    2    1    2    0    0 -0.96942320168E+00  0.53824735240E+00  0.40445841865E+00  0.90007712675E+02  0.89999973683E+02 0.  0.
         12    1    1    2    0    0  0.96942320168E+00 -0.53824735240E+00 -0.40445841865E+00  0.11802873247E+01  0.00000000000E+00 0. -1.
         11    1    3    3    0    0 -0.79413463063E+00  0.35847297296E+01 -0.16752861879E+02  0.17150490326E+02  0.51100000000E-03 0. -1.
        -11    1    3    3    0    0 -0.32913442862E+02 -0.31820659191E+01 -0.48339881470E+01  0.33418373781E+02  0.51100000000E-03 0.  1.
         12    1    3    3    0    0  0.32738154291E+02  0.13558354197E+00  0.21991308444E+02  0.39438848568E+02  0.00000000000E+00 0. -1.
</event>
<event>
 7    1  0.4400431E-015  0.9000767E+02  0.7816164E-02  0.1186339E+00
        -11   -1    0    0    0    0  0.00000000000E+00  0.00000000000E+00  0.45593999997E+02  0.45594000000E+02  0.51100000000E-03 0. -1.
         11   -1    0    0    0    0 -0.00000000000E+00 -0.00000000000E+00 -0.45593999997E+02  0.45594000000E+02  0.51100000000E-03 0.  1.
    9900012    2    1    2    0    0 -0.55262524554E+00 -0.99536102140E+00 -0.31150301592E+00  0.90007672777E+02  0.89999933257E+02 0.  0.
         12    1    1    2    0    0  0.55262524554E+00  0.99536102140E+00  0.31150301592E+00  0.11803272232E+01  0.00000000000E+00 0. -1.
         11    1    3    3    0    0 -0.96561180305E+01  0.55099329658E+01 -0.23343746138E+01  0.11359985995E+02  0.51100000000E-03 0. -1.
        -11    1    3    3    0    0 -0.18084176739E+02 -0.32134154456E+02 -0.11943703050E+02  0.38759429481E+02  0.51100000000E-03 0.  1.
         12    1    3    3    0    0  0.27187669524E+02  0.25628860469E+02  0.13966574648E+02  0.39888257300E+02  0.00000000000E+00 0. -1.
</event>
<event>
 7    1  0.4400431E-015  0.9000780E+02  0.7816164E-02  0.1186339E+00
        -11   -1    0    0    0    0  0.00000000000E+00  0.00000000000E+00  0.45593999997E+02  0.45594000000E+02  0.51100000000E-03 0.  1.
         11   -1    0    0    0    0 -0.00000000000E+00 -0.00000000000E+00 -0.45593999997E+02  0.45594000000E+02  0.51100000000E-03 0. -1.
    9900012    2    1    2    0    0  0.93413466857E+00  0.11981579830E+00  0.71126967059E+00  0.90007801733E+02  0.90000063916E+02 0.  0.
         12    1    1    2    0    0 -0.93413466857E+00 -0.11981579830E+00 -0.71126967059E+00  0.11801982668E+01  0.00000000000E+00 0. -1.
         11    1    3    3    0    0  0.30638896381E+01 -0.30552515340E+02 -0.21361363391E+02  0.37405233049E+02  0.51100000000E-03 0. -1.
        -11    1    3    3    0    0 -0.42453251259E+01 -0.30320612996E+01 -0.65221206737E+01  0.83519003522E+01  0.51100000000E-03 0.  1.
        -12    1    3    3    0    0  0.21155701564E+01  0.33704392437E+02  0.28594753735E+02  0.44250668332E+02  0.00000000000E+00 0.  1.
</event>
<event>
 7    1  0.4400431E-015  0.9000781E+02  0.7816164E-02  0.1186339E+00
        -11   -1    0    0    0    0  0.00000000000E+00  0.00000000000E+00  0.45593999997E+02  0.45594000000E+02  0.51100000000E-03 0. -1.
         11   -1    0    0    0    0 -0.00000000000E+00 -0.00000000000E+00 -0.45593999997E+02  0.45594000000E+02  0.51100000000E-03 0.  1.
    9900012    2    1    2    0    0  0.55338292089E-02 -0.11380734200E+01 -0.31241869722E+00  0.90007810534E+02  0.90000072833E+02 0.  0.
         12    1    1    2    0    0 -0.55338292089E-02  0.11380734200E+01  0.31241869722E+00  0.11801894657E+01  0.00000000000E+00 0. -1.
         11    1    3    3    0    0 -0.98613884747E+00  0.46358372348E+01 -0.77552876419E+01  0.90888912065E+01  0.51100000000E-03 0. -1.
        -11    1    3    3    0    0  0.19510168639E+02  0.72970145044E+01 -0.30373357149E+02  0.36829796710E+02  0.51100000000E-03 0.  1.
         12    1    3    3    0    0 -0.18518495962E+02 -0.13070925159E+02  0.37816226093E+02  0.44089122617E+02  0.00000000000E+00 0. -1.
</event>
<event>
 7    1  0.4400431E-015  0.9000775E+02  0.7816164E-02  0.1186339E+00
        -11   -1    0    0    0    0  0.00000000000E+00  0.00000000000E+00  0.45593999997E+02  0.45594000000E+02  0.51100000000E-03 0. -1.
         11   -1    0    0    0    0 -0.00000000000E+00 -0.00000000000E+00 -0.45593999997E+02  0.45594000000E+02  0.51100000000E-03 0.  1.
    9900012    2    1    2    0    0 -0.38954172595E+00 -0.93003686968E-01 -0.11102278348E+01  0.90007746516E+02  0.90000007970E+02 0.  0.
         12    1    1    2    0    0  0.38954172595E+00  0.93003686968E-01  0.11102278348E+01  0.11802534843E+01  0.00000000000E+00 0. -1.
         11    1    3    3    0    0  0.34654311360E+02 -0.42291574724E+01  0.99104292446E+01  0.36290820834E+02  0.51100000000E-03 0. -1.
        -11    1    3    3    0    0  0.73416050792E+01 -0.30954705220E+01  0.29654964129E+01  0.85014864658E+01  0.51100000000E-03 0.  1.
        -12    1    3    3    0    0 -0.42385458165E+02  0.72316243074E+01 -0.13986153492E+02  0.45215439216E+02  0.00000000000E+00 0.  1.
</event>
<event>
 7    1  0.5887209E-015  0.9000757E+02  0.7816164E-02  0.1186339E+00
        -11   -1    0    0    0    0  0.00000000000E+00  0.00000000000E+00  0.45593999997E+02  0.45594000000E+02  0.51100000000E-03 0. -1.
         11   -1    0    0    0    0 -0.00000000000E+00 -0.00000000000E+00 -0.45593999997E+02  0.45594000000E+02  0.51100000000E-03 0.  1.
    9900012    2    1    2    0    0  0.11624384023E+01  0.15039747144E+00 -0.13977381832E+00  0.90007568232E+02  0.89999827333E+02 0.  0.
         12    1    1    2    0    0 -0.11624384023E+01 -0.15039747144E+00  0.13977381832E+00  0.11804317680E+01  0.00000000000E+00 0. -1.
         11    1    3    3    0    0  0.16717364614E+02  0.55638463066E+01  0.32734788576E+02  0.37175167098E+02  0.51100000000E-03 0. -1.
        -11    1    3    3    0    0  0.91873949482E+01 -0.16467098918E+01  0.23470618209E+01  0.96243742059E+01  0.51100000000E-03 0.  1.
        -12    1    3    3    0    0 -0.24742321160E+02 -0.37667389433E+01 -0.35221624215E+02  0.43208026928E+02  0.00000000000E+00 0.  1.
</event>
<event>
 7    1  0.4400431E-015  0.9000775E+02  0.7816164E-02  0.1186339E+00
        -11   -1    0    0    0    0  0.00000000000E+00  0.00000000000E+00  0.45593999997E+02  0.45594000000E+02  0.51100000000E-03 0.  1.
         11   -1    0    0    0    0 -0.00000000000E+00 -0.00000000000E+00 -0.45593999997E+02  0.45594000000E+02  0.51100000000E-03 0. -1.
    9900012    2    1    2    0    0  0.48477713147E+00 -0.75920721660E+00 -0.76262298683E+00  0.90007746517E+02  0.90000007971E+02 0.  0.
         12    1    1    2    0    0 -0.48477713147E+00  0.75920721660E+00  0.76262298683E+00  0.11802534834E+01  0.00000000000E+00 0. -1.
         11    1    3    3    0    0  0.35788313900E+02  0.36737529181E+01  0.43429853810E+01  0.36237568828E+02  0.51100000000E-03 0. -1.
        -11    1    3    3    0    0  0.58458235398E+01 -0.88362164217E+01  0.41238950779E+01  0.11369207729E+02  0.51100000000E-03 0.  1.
        -12    1    3    3    0    0 -0.41149360308E+02  0.44032562869E+01 -0.92295034457E+01  0.42400969960E+02  0.00000000000E+00 0.  1.
</event>
<event>
 7    1  0.4400431E-015  0.9000779E+02  0.7816164E-02  0.1186339E+00
        -11   -1    0    0    0    0  0.00000000000E+00  0.00000000000E+00  0.45593999997E+02  0.45594000000E+02  0.51100000000E-03 0. -1.
         11   -1    0    0    0    0 -0.00000000000E+00 -0.00000000000E+00 -0.45593999997E+02  0.45594000000E+02  0.51100000000E-03 0.  1.
    9900012    2    1    2    0    0  0.97416340740E+00 -0.58261757784E+00  0.32321248287E+00  0.90007786504E+02  0.90000048486E+02 0.  0.
         12    1    1    2    0    0 -0.97416340740E+00  0.58261757784E+00 -0.32321248287E+00  0.11802134957E+01  0.00000000000E+00 0. -1.
         11    1    3    3    0    0 -0.79655993783E+01  0.26421680702E+01 -0.65126743053E+00  0.84175991289E+01  0.51100000000E-03 0. -1.
        -11    1    3    3    0    0 -0.14898626765E+02 -0.31037582384E+02 -0.19559665179E+02  0.39596478403E+02  0.51100000000E-03 0.  1.
         12    1    3    3    0    0  0.23838389551E+02  0.27812796735E+02  0.20534145093E+02  0.41993708973E+02  0.00000000000E+00 0. -1.
</event>
<event>
 7    1  0.4400431E-015  0.9000775E+02  0.7816164E-02  0.1186339E+00
        -11   -1    0    0    0    0  0.00000000000E+00  0.00000000000E+00  0.45593999997E+02  0.45594000000E+02  0.51100000000E-03 0.  1.
         11   -1    0    0    0    0 -0.00000000000E+00 -0.00000000000E+00 -0.45593999997E+02  0.45594000000E+02  0.51100000000E-03 0. -1.
    9900012    2    1    2    0    0 -0.11491798385E+01  0.24673397201E+00 -0.10728156020E+00  0.90007745245E+02  0.90000006682E+02 0.  0.
         12    1    1    2    0    0  0.11491798385E+01 -0.24673397201E+00  0.10728156020E+00  0.11802547552E+01  0.00000000000E+00 0. -1.
         11    1    3    3    0    0 -0.57150272017E+01 -0.41378298604E+01 -0.35696124214E+01  0.79072944153E+01  0.51100000000E-03 0. -1.
        -11    1    3    3    0    0  0.17930754346E+02 -0.28010529836E+02 -0.21027137458E+02  0.39347709502E+02  0.51100000000E-03 0.  1.
         12    1    3    3    0    0 -0.13364906983E+02  0.32395093669E+02  0.24489468319E+02  0.42752741327E+02  0.00000000000E+00 0. -1.
</event>
<event>
 7    1  0.4400431E-015  0.9000783E+02  0.7816164E-02  0.1186339E+00
        -11   -1    0    0    0    0  0.00000000000E+00  0.00000000000E+00  0.45593999997E+02  0.45594000000E+02  0.51100000000E-03 0.  1.
         11   -1    0    0    0    0 -0.00000000000E+00 -0.00000000000E+00 -0.45593999997E+02  0.45594000000E+02  0.51100000000E-03 0. -1.
    9900012    2    1    2    0    0 -0.95668031196E+00  0.43898972376E+00 -0.53370666448E+00  0.90007833910E+02  0.90000096517E+02 0.  0.
         12    1    1    2    0    0  0.95668031196E+00 -0.43898972376E+00  0.53370666448E+00  0.11801660903E+01  0.00000000000E+00 0. -1.
         11    1    3    3    0    0 -0.16104577945E+02 -0.33829579170E+02  0.78015956849E+01  0.38270912625E+02  0.51100000000E-03 0. -1.
        -11    1    3    3    0    0 -0.10876879088E+02  0.69895342570E+01  0.76705374770E+00  0.12951774378E+02  0.51100000000E-03 0.  1.
        -12    1    3    3    0    0  0.26024776721E+02  0.27279034637E+02 -0.91023560970E+01  0.38785146907E+02  0.00000000000E+00 0.  1.
</event>
<event>
 7    1  0.4400431E-015  0.9000780E+02  0.7816164E-02  0.1186339E+00
        -11   -1    0    0    0    0  0.00000000000E+00  0.00000000000E+00  0.45593999997E+02  0.45594000000E+02  0.51100000000E-03 0. -1.
         11   -1    0    0    0    0 -0.00000000000E+00 -0.00000000000E+00 -0.45593999997E+02  0.45594000000E+02  0.51100000000E-03 0.  1.
    9900012    2    1    2    0    0  0.91478297970E+00  0.15618951828E+00 -0.72913993633E+00  0.90007801664E+02  0.90000063846E+02 0.  0.
         12    1    1    2    0    0 -0.91478297970E+00 -0.15618951828E+00  0.72913993633E+00  0.11801983360E+01  0.00000000000E+00 0. -1.
         11    1    3    3    0    0 -0.21621695302E+02  0.17918296946E+02 -0.17293840242E+02  0.32979387255E+02  0.51100000000E-03 0. -1.
        -11    1    3    3    0    0 -0.91818693549E+01 -0.17547957501E+01 -0.92194759002E+01  0.13129538039E+02  0.51100000000E-03 0.  1.
        -12    1    3    3    0    0  0.31718347636E+02 -0.16007311678E+02  0.25784176206E+02  0.43898876370E+02  0.00000000000E+00 0.  1.
</event>
<event>
 7    1  0.4400431E-015  0.9000773E+02  0.7816164E-02  0.1186339E+00
        -11   -1    0    0    0    0  0.00000000000E+00  0.00000000000E+00  0.45593999997E+02  0.45594000000E+02  0.51100000000E-03 0.  1.
         11   -1    0    0    0    0 -0.00000000000E+00 -0.00000000000E+00 -0.45593999997E+02  0.45594000000E+02  0.51100000000E-03 0. -1.
    9900012    2    1    2    0    0  0.11761261667E+01 -0.98713639896E-01  0.31897511439E-02  0.90007734218E+02  0.89999995509E+02 0.  0.
         12    1    1    2    0    0 -0.11761261667E+01  0.98713639896E-01 -0.31897511439E-02  0.11802657824E+01  0.00000000000E+00 0. -1.
         11    1    3    3    0    0 -0.17556058956E+01  0.77221344371E+01 -0.60845846743E+01  0.99867754178E+01  0.51100000000E-03 0. -1.
        -11    1    3    3    0    0  0.19140690963E+02  0.41843732790E+01  0.37719962947E+02  0.42504948362E+02  0.51100000000E-03 0.  1.
         12    1    3    3    0    0 -0.16208958901E+02 -0.12005221356E+02 -0.31632188522E+02  0.37516010437E+02  0.00000000000E+00 0. -1.
</event>
<event>
 7    1  0.4400431E-015  0.9000776E+02  0.7816164E-02  0.1186339E+00
        -11   -1    0    0    0    0  0.00000000000E+00  0.00000000000E+00  0.45593999997E+02  0.45594000000E+02  0.51100000000E-03 0.  1.
         11   -1    0    0    0    0 -0.00000000000E+00 -0.00000000000E+00 -0.45593999997E+02  0.45594000000E+02  0.51100000000E-03 0. -1.
    9900012    2    1    2    0    0 -0.34656356267E+00 -0.93892362755E+00  0.62552191460E+00  0.90007762080E+02  0.90000023740E+02 0.  0.
         12    1    1    2    0    0  0.34656356267E+00  0.93892362755E+00 -0.62552191460E+00  0.11802379197E+01  0.00000000000E+00 0. -1.
         11    1    3    3    0    0  0.12325480951E+02 -0.22979756058E+02 -0.14888862477E+02  0.30027735434E+02  0.51100000000E-03 0. -1.
        -11    1    3    3    0    0 -0.39814325487E+01  0.14519554281E+02 -0.18630091474E+02  0.23953070164E+02  0.51100000000E-03 0.  1.
        -12    1    3    3    0    0 -0.86906119651E+01  0.75212781493E+01  0.34144475865E+02  0.36026956483E+02  0.00000000000E+00 0.  1.
</event>
<event>
 7    1  0.4400431E-015  0.9000737E+02  0.7816164E-02  0.1186340E+00
        -11   -1    0    0    0    0  0.00000000000E+00  0.00000000000E+00  0.45593999997E+02  0.45594000000E+02  0.51100000000E-03 0. -1.
         11   -1    0    0    0    0 -0.00000000000E+00 -0.00000000000E+00 -0.45593999997E+02  0.45594000000E+02  0.51100000000E-03 0.  1.
    9900012    2    1    2    0    0  0.38826628192E+00  0.35145378857E+00 -0.10581190178E+01  0.90007370368E+02  0.89999626856E+02 0.  0.
         12    1    1    2    0    0 -0.38826628192E+00 -0.35145378857E+00  0.10581190178E+01  0.11806296316E+01  0.00000000000E+00 0. -1.
         11    1    3    3    0    0  0.19986880988E+01  0.10351198326E+02  0.13171710437E+02  0.16871159326E+02  0.51100000000E-03 0. -1.
        -11    1    3    3    0    0  0.20062120090E+02  0.20263688489E+02 -0.20855457344E+02  0.35327833715E+02  0.51100000000E-03 0.  1.
         12    1    3    3    0    0 -0.21672541907E+02 -0.30263433026E+02  0.66256278890E+01  0.37808377328E+02  0.00000000000E+00 0. -1.
</event>
<event>
 7    1  0.4400431E-015  0.9000774E+02  0.7816164E-02  0.1186339E+00
        -11   -1    0    0    0    0  0.00000000000E+00  0.00000000000E+00  0.45593999997E+02  0.45594000000E+02  0.51100000000E-03 0. -1.
         11   -1    0    0    0    0 -0.00000000000E+00 -0.00000000000E+00 -0.45593999997E+02  0.45594000000E+02  0.51100000000E-03 0.  1.
    9900012    2    1    2    0    0  0.24173254458E+00  0.10599954650E+01  0.45934534811E+00  0.90007735980E+02  0.89999997295E+02 0.  0.
         12    1    1    2    0    0 -0.24173254458E+00 -0.10599954650E+01 -0.45934534811E+00  0.11802640204E+01  0.00000000000E+00 0. -1.
         11    1    3    3    0    0 -0.25880541689E+02 -0.60880425739E+01 -0.37102430254E+00  0.26589553583E+02  0.51100000000E-03 0. -1.
        -11    1    3    3    0    0 -0.56497764699E+01 -0.20487259961E+02 -0.92996406154E+00  0.21272344212E+02  0.51100000000E-03 0.  1.
        -12    1    3    3    0    0  0.31772050703E+02  0.27635298000E+02  0.17603337122E+01  0.42145838184E+02  0.00000000000E+00 0.  1.
</event>
<event>
 7    1  0.4400431E-015  0.9000788E+02  0.7816164E-02  0.1186339E+00
        -11   -1    0    0    0    0  0.00000000000E+00  0.00000000000E+00  0.45593999997E+02  0.45594000000E+02  0.51100000000E-03 0.  1.
         11   -1    0    0    0    0 -0.00000000000E+00 -0.00000000000E+00 -0.45593999997E+02  0.45594000000E+02  0.51100000000E-03 0. -1.
    9900012    2    1    2    0    0  0.70824546270E+00 -0.50530672102E+00 -0.79733594631E+00  0.90007876647E+02  0.90000139818E+02 0.  0.
         12    1    1    2    0    0 -0.70824546270E+00  0.50530672102E+00  0.79733594631E+00  0.11801233533E+01  0.00000000000E+00 0. -1.
         11    1    3    3    0    0 -0.83675036203E+00  0.10576739451E+02  0.18600314877E+02  0.21413530358E+02  0.51100000000E-03 0. -1.
        -11    1    3    3    0    0  0.12868528203E+02 -0.26924921152E+02  0.11575168457E+02  0.32008357068E+02  0.51100000000E-03 0.  1.
         12    1    3    3    0    0 -0.11323532378E+02  0.15842874979E+02 -0.30972819280E+02  0.36585989221E+02  0.00000000000E+00 0. -1.
</event>
<event>
 7    1  0.4400431E-015  0.9000772E+02  0.7816164E-02  0.1186339E+00
        -11   -1    0    0    0    0  0.00000000000E+00  0.00000000000E+00  0.45593999997E+02  0.45594000000E+02  0.51100000000E-03 0.  1.
         11   -1    0    0    0    0 -0.00000000000E+00 -0.00000000000E+00 -0.45593999997E+02  0.45594000000E+02  0.51100000000E-03 0. -1.
    9900012    2    1    2    0    0 -0.77262427427E+00  0.78111330320E-01  0.88883027865E+00  0.90007716596E+02  0.89999977655E+02 0.  0.
         12    1    1    2    0    0  0.77262427427E+00 -0.78111330320E-01 -0.88883027865E+00  0.11802834038E+01  0.00000000000E+00 0. -1.
         11    1    3    3    0    0  0.24796735328E+01  0.38039635301E+01  0.45320403281E+01  0.64154741964E+01  0.51100000000E-03 0. -1.
        -11    1    3    3    0    0  0.26770721070E+02  0.42959304830E+00  0.28711736502E+02  0.39258373247E+02  0.51100000000E-03 0.  1.
         12    1    3    3    0    0 -0.30023018877E+02 -0.41554452481E+01 -0.32354946551E+02  0.44333869153E+02  0.00000000000E+00 0. -1.
</event>
<event>
 7    1  0.4400431E-015  0.9000776E+02  0.7816164E-02  0.1186339E+00
        -11   -1    0    0    0    0  0.00000000000E+00  0.00000000000E+00  0.45593999997E+02  0.45594000000E+02  0.51100000000E-03 0.  1.
         11   -1    0    0    0    0 -0.00000000000E+00 -0.00000000000E+00 -0.45593999997E+02  0.45594000000E+02  0.51100000000E-03 0. -1.
    9900012    2    1    2    0    0  0.11639695523E+00 -0.57019429892E+00  0.10267917369E+01  0.90007758050E+02  0.90000019656E+02 0.  0.
         12    1    1    2    0    0 -0.11639695523E+00  0.57019429892E+00 -0.10267917369E+01  0.11802419501E+01  0.00000000000E+00 0. -1.
         11    1    3    3    0    0 -0.49602144457E+01  0.41736064525E+01  0.65486090474E+01  0.92144993833E+01  0.51100000000E-03 0. -1.
        -11    1    3    3    0    0  0.22127345874E+02  0.14125800484E+02  0.28218647391E+02  0.38541532606E+02  0.51100000000E-03 0.  1.
         12    1    3    3    0    0 -0.17050734473E+02 -0.18869601236E+02 -0.33740464701E+02  0.42251726061E+02  0.00000000000E+00 0. -1.
</event>
<event>
 7    1  0.4400431E-015  0.9000771E+02  0.7816164E-02  0.1186339E+00
        -11   -1    0    0    0    0  0.00000000000E+00  0.00000000000E+00  0.45593999997E+02  0.45594000000E+02  0.51100000000E-03 0. -1.
         11   -1    0    0    0    0 -0.00000000000E+00 -0.00000000000E+00 -0.45593999997E+02  0.45594000000E+02  0.51100000000E-03 0.  1.
    9900012    2    1    2    0    0 -0.57995370449E-01  0.98712322328E+00 -0.64445141291E+00  0.90007706247E+02  0.89999967169E+02 0.  0.
         12    1    1    2    0    0  0.57995370449E-01 -0.98712322328E+00  0.64445141291E+00  0.11802937535E+01  0.00000000000E+00 0. -1.
         11    1    3    3    0    0  0.11335920676E+02 -0.30889202986E+02  0.14747346546E+02  0.36057318107E+02  0.51100000000E-03 0. -1.
        -11    1    3    3    0    0  0.46308302448E-01 -0.86139022290E+01  0.12484072856E+01  0.87040207423E+01  0.51100000000E-03 0.  1.
        -12    1    3    3    0    0 -0.11440224348E+02  0.40490228438E+02 -0.16640205244E+02  0.45246367397E+02  0.00000000000E+00 0.  1.
</event>
<event>
 7    1  0.4400431E-015  0.9000760E+02  0.7816164E-02  0.1186339E+00
        -11   -1    0    0    0    0  0.00000000000E+00  0.00000000000E+00  0.45593999997E+02  0.45594000000E+02  0.51100000000E-03 0.  1.
         11   -1    0    0    0    0 -0.00000000000E+00 -0.00000000000E+00 -0.45593999997E+02  0.45594000000E+02  0.51100000000E-03 0. -1.
    9900012    2    1    2    0    0 -0.52110188228E+00  0.52246939711E+00  0.92131959947E+00  0.90007596998E+02  0.89999856478E+02 0.  0.
         12    1    1    2    0    0  0.52110188228E+00 -0.52246939711E+00 -0.92131959947E+00  0.11804030019E+01  0.00000000000E+00 0. -1.
         11    1    3    3    0    0  0.50164341487E+01  0.47550411962E+01 -0.19290158601E+01  0.71760804619E+01  0.51100000000E-03 0. -1.
        -11    1    3    3    0    0  0.10715610910E+02 -0.17071405741E+02 -0.34595669335E+02  0.40038950388E+02  0.51100000000E-03 0.  1.
        -12    1    3    3    0    0 -0.16253146941E+02  0.12838833942E+02  0.37446004795E+02  0.42792566148E+02  0.00000000000E+00 0.  1.
</event>
<event>
 7    1  0.4400431E-015  0.9000769E+02  0.7816164E-02  0.1186339E+00
        -11   -1    0    0    0    0  0.00000000000E+00  0.00000000000E+00  0.45593999997E+02  0.45594000000E+02  0.51100000000E-03 0. -1.
         11   -1    0    0    0    0 -0.00000000000E+00 -0.00000000000E+00 -0.45593999997E+02  0.45594000000E+02  0.51100000000E-03 0.  1.
    9900012    2    1    2    0    0  0.10311269265E+01  0.53723659618E+00  0.20321291201E+00  0.90007685895E+02  0.89999946549E+02 0.  0.
         12    1    1    2    0    0 -0.10311269265E+01 -0.53723659618E+00 -0.20321291201E+00  0.11803141050E+01  0.00000000000E+00 0. -1.
         11    1    3    3    0    0 -0.18523184977E+02 -0.16366840992E+02 -0.12874416842E+02  0.27869920614E+02  0.51100000000E-03 0. -1.
        -11    1    3    3    0    0 -0.16238723940E+02  0.24223148286E+00 -0.71869579886E+01  0.17759707111E+02  0.51100000000E-03 0.  1.
        -12    1    3    3    0    0  0.35793035844E+02  0.16661846105E+02  0.20264587743E+02  0.44378058170E+02  0.00000000000E+00 0.  1.
</event>
<event>
 7    1  0.4400431E-015  0.9000772E+02  0.7816164E-02  0.1186339E+00
        -11   -1    0    0    0    0  0.00000000000E+00  0.00000000000E+00  0.45593999997E+02  0.45594000000E+02  0.51100000000E-03 0.  1.
         11   -1    0    0    0    0 -0.00000000000E+00 -0.00000000000E+00 -0.45593999997E+02  0.45594000000E+02  0.51100000000E-03 0. -1.
    9900012    2    1    2    0    0 -0.45622391487E+00 -0.63021711960E+00  0.88754892282E+00  0.90007721656E+02  0.89999982782E+02 0.  0.
         12    1    1    2    0    0  0.45622391487E+00  0.63021711960E+00 -0.88754892282E+00  0.11802783438E+01  0.00000000000E+00 0. -1.
         11    1    3    3    0    0 -0.10704310598E+02 -0.16038209552E+02 -0.26849348820E+02  0.33055921759E+02  0.51100000000E-03 0.  1.
        -11    1    3    3    0    0 -0.78426090379E+01  0.30100484724E+01 -0.10149858386E+02  0.13175224243E+02  0.51100000000E-03 0. -1.
        -12    1    3    3    0    0  0.18090695721E+02  0.12397943961E+02  0.37886756128E+02  0.43776575655E+02  0.00000000000E+00 0.  1.
</event>
<event>
 7    1  0.4400431E-015  0.9000759E+02  0.7816164E-02  0.1186339E+00
        -11   -1    0    0    0    0  0.00000000000E+00  0.00000000000E+00  0.45593999997E+02  0.45594000000E+02  0.51100000000E-03 0.  1.
         11   -1    0    0    0    0 -0.00000000000E+00 -0.00000000000E+00 -0.45593999997E+02  0.45594000000E+02  0.51100000000E-03 0. -1.
    9900012    2    1    2    0    0 -0.10035303277E+01 -0.12029701886E+00 -0.60976494250E+00  0.90007594232E+02  0.89999853676E+02 0.  0.
         12    1    1    2    0    0  0.10035303277E+01  0.12029701886E+00  0.60976494250E+00  0.11804057677E+01  0.00000000000E+00 0. -1.
         11    1    3    3    0    0  0.14903492216E+02 -0.26616212073E+02 -0.25798126311E+02  0.39950971787E+02  0.51100000000E-03 0. -1.
        -11    1    3    3    0    0  0.45062827267E+01 -0.38713667452E+01  0.70426294450E+01  0.92137231481E+01  0.51100000000E-03 0.  1.
        -12    1    3    3    0    0 -0.20413305270E+02  0.30367281799E+02  0.18145731924E+02  0.40842899297E+02  0.00000000000E+00 0.  1.
</event>
<event>
 7    1  0.4400431E-015  0.9000774E+02  0.7816164E-02  0.1186339E+00
        -11   -1    0    0    0    0  0.00000000000E+00  0.00000000000E+00  0.45593999997E+02  0.45594000000E+02  0.51100000000E-03 0. -1.
         11   -1    0    0    0    0 -0.00000000000E+00 -0.00000000000E+00 -0.45593999997E+02  0.45594000000E+02  0.51100000000E-03 0.  1.
    9900012    2    1    2    0    0  0.67866821252E+00  0.93192322321E+00 -0.25284566030E+00  0.90007744788E+02  0.90000006220E+02 0.  0.
         12    1    1    2    0    0 -0.67866821252E+00 -0.93192322321E+00  0.25284566030E+00  0.11802552116E+01  0.00000000000E+00 0. -1.
         11    1    3    3    0    0  0.15748495980E+01 -0.71686334273E+01  0.58403668759E+01  0.93797303787E+01  0.51100000000E-03 0. -1.
        -11    1    3    3    0    0 -0.39221213806E+02 -0.23895673543E+01 -0.10437305847E+02  0.40656500073E+02  0.51100000000E-03 0.  1.
         12    1    3    3    0    0  0.38325032421E+02  0.10490124005E+02  0.43440933107E+01  0.39971514337E+02  0.00000000000E+00 0. -1.
</event>
<event>
 7    1  0.4400431E-015  0.9000699E+02  0.7816164E-02  0.1186341E+00
        -11   -1    0    0    0    0  0.00000000000E+00  0.00000000000E+00  0.45593999997E+02  0.45594000000E+02  0.51100000000E-03 0.  1.
         11   -1    0    0    0    0 -0.00000000000E+00 -0.00000000000E+00 -0.45593999997E+02  0.45594000000E+02  0.51100000000E-03 0. -1.
    9900012    2    1    2    0    0  0.33973111154E+00  0.70852451125E+00 -0.88167588532E+00  0.90006993405E+02  0.89999244915E+02 0.  0.
         12    1    1    2    0    0 -0.33973111154E+00 -0.70852451125E+00  0.88167588532E+00  0.11810065952E+01  0.00000000000E+00 0. -1.
         11    1    3    3    0    0  0.15569096582E+02  0.92393856218E+01 -0.30008580593E+02  0.35046796209E+02  0.51100000000E-03 0. -1.
        -11    1    3    3    0    0 -0.79150028487E+00 -0.54175067134E+01 -0.10953193547E+02  0.12245337922E+02  0.51100000000E-03 0.  1.
        -12    1    3    3    0    0 -0.14437865186E+02 -0.31133543972E+01  0.40080098254E+02  0.42714859274E+02  0.00000000000E+00 0.  1.
</event>
<event>
 7    1  0.4400431E-015  0.9000769E+02  0.7816164E-02  0.1186339E+00
        -11   -1    0    0    0    0  0.00000000000E+00  0.00000000000E+00  0.45593999997E+02  0.45594000000E+02  0.51100000000E-03 0.  1.
         11   -1    0    0    0    0 -0.00000000000E+00 -0.00000000000E+00 -0.45593999997E+02  0.45594000000E+02  0.51100000000E-03 0. -1.
    9900012    2    1    2    0    0  0.82254259100E+00 -0.72957979501E+00  0.42925173772E+00  0.90007694935E+02  0.89999955708E+02 0.  0.
         12    1    1    2    0    0 -0.82254259100E+00  0.72957979501E+00 -0.42925173772E+00  0.11803050646E+01  0.00000000000E+00 0. -1.
         11    1    3    3    0    0  0.58072413505E+01 -0.22265942954E+01  0.76100599084E+01  0.98282646652E+01  0.51100000000E-03 0. -1.
        -11    1    3    3    0    0  0.68124104343E+01 -0.38001146606E+02 -0.24118265949E+01  0.38682205045E+02  0.51100000000E-03 0.  1.
         12    1    3    3    0    0 -0.11797109194E+02  0.39498161107E+02 -0.47689815758E+01  0.41497225226E+02  0.00000000000E+00 0. -1.
</event>
<event>
 7    1  0.4400431E-015  0.9000749E+02  0.7816164E-02  0.1186340E+00
        -11   -1    0    0    0    0  0.00000000000E+00  0.00000000000E+00  0.45593999997E+02  0.45594000000E+02  0.51100000000E-03 0.  1.
         11   -1    0    0    0    0 -0.00000000000E+00 -0.00000000000E+00 -0.45593999997E+02  0.45594000000E+02  0.51100000000E-03 0. -1.
    9900012    2    1    2    0    0 -0.69531028675E-01 -0.91720710679E+00  0.73994037553E+00  0.90007485197E+02  0.89999743201E+02 0.  0.
         12    1    1    2    0    0  0.69531028675E-01  0.91720710679E+00 -0.73994037553E+00  0.11805148030E+01  0.00000000000E+00 0. -1.
         11    1    3    3    0    0 -0.24715002314E+02 -0.32645806053E+02 -0.11110402367E+02  0.42426654750E+02  0.51100000000E-03 0. -1.
        -11    1    3    3    0    0  0.11064273649E+02 -0.29262365316E+00  0.49315026063E+01  0.12117074655E+02  0.51100000000E-03 0.  1.
        -12    1    3    3    0    0  0.13581197636E+02  0.32021222600E+02  0.69188401367E+01  0.35463755792E+02  0.00000000000E+00 0.  1.
</event>
<event>
 7    1  0.4400431E-015  0.9000788E+02  0.7816164E-02  0.1186339E+00
        -11   -1    0    0    0    0  0.00000000000E+00  0.00000000000E+00  0.45593999997E+02  0.45594000000E+02  0.51100000000E-03 0.  1.
         11   -1    0    0    0    0 -0.00000000000E+00 -0.00000000000E+00 -0.45593999997E+02  0.45594000000E+02  0.51100000000E-03 0. -1.
    9900012    2    1    2    0    0  0.87592722174E+00 -0.58538868192E+00  0.53175147141E+00  0.90007877958E+02  0.90000141147E+02 0.  0.
         12    1    1    2    0    0 -0.87592722174E+00  0.58538868192E+00 -0.53175147141E+00  0.11801220420E+01  0.00000000000E+00 0. -1.
         11    1    3    3    0    0  0.64202734428E+01 -0.29977728181E+02 -0.25623193177E+02  0.39955376695E+02  0.51100000000E-03 0. -1.
        -11    1    3    3    0    0  0.76690688134E+01  0.74782188576E+01 -0.31328811053E+01  0.11160345784E+02  0.51100000000E-03 0.  1.
        -12    1    3    3    0    0 -0.13213415034E+02  0.21914120642E+02  0.29287825754E+02  0.38892155479E+02  0.00000000000E+00 0.  1.
</event>
<event>
 7    1  0.4400431E-015  0.9000777E+02  0.7816164E-02  0.1186339E+00
        -11   -1    0    0    0    0  0.00000000000E+00  0.00000000000E+00  0.45593999997E+02  0.45594000000E+02  0.51100000000E-03 0.  1.
         11   -1    0    0    0    0 -0.00000000000E+00 -0.00000000000E+00 -0.45593999997E+02  0.45594000000E+02  0.51100000000E-03 0. -1.
    9900012    2    1    2    0    0 -0.96553425507E+00 -0.51483168508E+00  0.44231436126E+00  0.90007766949E+02  0.90000028672E+02 0.  0.
         12    1    1    2    0    0  0.96553425507E+00  0.51483168508E+00 -0.44231436126E+00  0.11802330515E+01  0.00000000000E+00 0. -1.
         11    1    3    3    0    0  0.69527874285E+01  0.10525189951E+02  0.68067040682E+01  0.14333600282E+02  0.51100000000E-03 0. -1.
        -11    1    3    3    0    0  0.56057135736E+00  0.31553075617E+02  0.12503222026E+01  0.31582813792E+02  0.51100000000E-03 0.  1.
         12    1    3    3    0    0 -0.84788930409E+01 -0.42593097253E+02 -0.76147119095E+01  0.44091352874E+02  0.00000000000E+00 0. -1.
</event>
<event>
 7    1  0.4400431E-015  0.9000768E+02  0.7816164E-02  0.1186339E+00
        -11   -1    0    0    0    0  0.00000000000E+00  0.00000000000E+00  0.45593999997E+02  0.45594000000E+02  0.51100000000E-03 0.  1.
         11   -1    0    0    0    0 -0.00000000000E+00 -0.00000000000E+00 -0.45593999997E+02  0.45594000000E+02  0.51100000000E-03 0. -1.
    9900012    2    1    2    0    0  0.82890073074E+00 -0.73509746562E+00  0.40706784552E+00  0.90007682697E+02  0.89999943308E+02 0.  0.
         12    1    1    2    0    0 -0.82890073074E+00  0.73509746562E+00 -0.40706784552E+00  0.11803173032E+01  0.00000000000E+00 0. -1.
         11    1    3    3    0    0 -0.28285759864E+01  0.55149757177E+01  0.78262950198E+01  0.99833207540E+01  0.51100000000E-03 0. -1.
        -11    1    3    3    0    0 -0.90620347725E+01 -0.11005185848E+02  0.33769278302E+02  0.36655132616E+02  0.51100000000E-03 0.  1.
         12    1    3    3    0    0  0.12719511490E+02  0.47551126650E+01 -0.41188505477E+02  0.43369229327E+02  0.00000000000E+00 0. -1.
</event>
<event>
 7    1  0.4400431E-015  0.9000776E+02  0.7816164E-02  0.1186339E+00
        -11   -1    0    0    0    0  0.00000000000E+00  0.00000000000E+00  0.45593999997E+02  0.45594000000E+02  0.51100000000E-03 0. -1.
         11   -1    0    0    0    0 -0.00000000000E+00 -0.00000000000E+00 -0.45593999997E+02  0.45594000000E+02  0.51100000000E-03 0.  1.
    9900012    2    1    2    0    0 -0.79318930720E+00  0.22957413835E+00 -0.84326856255E+00  0.90007764672E+02  0.90000026365E+02 0.  0.
         12    1    1    2    0    0  0.79318930720E+00 -0.22957413835E+00  0.84326856255E+00  0.11802353285E+01  0.00000000000E+00 0. -1.
         11    1    3    3    0    0  0.27360338586E+02  0.89119436569E+01 -0.27138558428E+02  0.39553915370E+02  0.51100000000E-03 0. -1.
        -11    1    3    3    0    0  0.34480410351E+01  0.69676050171E+01  0.53685884540E+01  0.94476583821E+01  0.51100000000E-03 0.  1.
        -12    1    3    3    0    0 -0.31601568929E+02 -0.15649974536E+02  0.20926701412E+02  0.41006190919E+02  0.00000000000E+00 0.  1.
</event>
<event>
 7    1  0.4400431E-015  0.9000775E+02  0.7816164E-02  0.1186339E+00
        -11   -1    0    0    0    0  0.00000000000E+00  0.00000000000E+00  0.45593999997E+02  0.45594000000E+02  0.51100000000E-03 0.  1.
         11   -1    0    0    0    0 -0.00000000000E+00 -0.00000000000E+00 -0.45593999997E+02  0.45594000000E+02  0.51100000000E-03 0. -1.
    9900012    2    1    2    0    0  0.96924644061E+00  0.42760480801E-01  0.67210069368E+00  0.90007751525E+02  0.90000013045E+02 0.  0.
         12    1    1    2    0    0 -0.96924644061E+00 -0.42760480801E-01 -0.67210069368E+00  0.11802484754E+01  0.00000000000E+00 0. -1.
         11    1    3    3    0    0 -0.35974385694E+01 -0.81747852321E+01 -0.65013517114E+01  0.11047001955E+02  0.51100000000E-03 0. -1.
        -11    1    3    3    0    0  0.37030595202E+02  0.16049515978E+02 -0.97530642972E+01  0.41520768389E+02  0.51100000000E-03 0.  1.
         12    1    3    3    0    0 -0.32463910192E+02 -0.78319702649E+01  0.16926516702E+02  0.37439981181E+02  0.00000000000E+00 0. -1.
</event>
<event>
 7    1  0.4400431E-015  0.9000777E+02  0.7816164E-02  0.1186339E+00
        -11   -1    0    0    0    0  0.00000000000E+00  0.00000000000E+00  0.45593999997E+02  0.45594000000E+02  0.51100000000E-03 0.  1.
         11   -1    0    0    0    0 -0.00000000000E+00 -0.00000000000E+00 -0.45593999997E+02  0.45594000000E+02  0.51100000000E-03 0. -1.
    9900012    2    1    2    0    0  0.63403507924E+00  0.26666900001E+00  0.95908037335E+00  0.90007767820E+02  0.90000029555E+02 0.  0.
         12    1    1    2    0    0 -0.63403507924E+00 -0.26666900001E+00 -0.95908037335E+00  0.11802321805E+01  0.00000000000E+00 0. -1.
         11    1    3    3    0    0  0.47896183887E+01 -0.15913918428E+02 -0.33351498907E+02  0.37262792752E+02  0.51100000000E-03 0. -1.
        -11    1    3    3    0    0  0.43077040613E+01 -0.80246536971E+01 -0.93826138633E+00  0.91559661384E+01  0.51100000000E-03 0.  1.
        -12    1    3    3    0    0 -0.84632873708E+01  0.24205241125E+02  0.35248840667E+02  0.43589008929E+02  0.00000000000E+00 0.  1.
</event>
<event>
 7    1  0.4400431E-015  0.9000775E+02  0.7816164E-02  0.1186339E+00
        -11   -1    0    0    0    0  0.00000000000E+00  0.00000000000E+00  0.45593999997E+02  0.45594000000E+02  0.51100000000E-03 0.  1.
         11   -1    0    0    0    0 -0.00000000000E+00 -0.00000000000E+00 -0.45593999997E+02  0.45594000000E+02  0.51100000000E-03 0. -1.
    9900012    2    1    2    0    0  0.65694684283E+00  0.61458701815E+00  0.76399351925E+00  0.90007753223E+02  0.90000014766E+02 0.  0.
         12    1    1    2    0    0 -0.65694684283E+00 -0.61458701815E+00 -0.76399351925E+00  0.11802467770E+01  0.00000000000E+00 0. -1.
         11    1    3    3    0    0  0.57413543068E+01 -0.48892920712E+01 -0.47350580444E+01  0.89044427775E+01  0.51100000000E-03 0. -1.
        -11    1    3    3    0    0  0.37422879028E+02  0.82073164944E+01  0.19301474401E+01  0.38360883569E+02  0.51100000000E-03 0.  1.
         12    1    3    3    0    0 -0.42507286492E+02 -0.27034374051E+01  0.35689041236E+01  0.42742426877E+02  0.00000000000E+00 0. -1.
</event>
<event>
 7    1  0.4400431E-015  0.9000759E+02  0.7816164E-02  0.1186339E+00
        -11   -1    0    0    0    0  0.00000000000E+00  0.00000000000E+00  0.45593999997E+02  0.45594000000E+02  0.51100000000E-03 0.  1.
         11   -1    0    0    0    0 -0.00000000000E+00 -0.00000000000E+00 -0.45593999997E+02  0.45594000000E+02  0.51100000000E-03 0. -1.
    9900012    2    1    2    0    0  0.28858045948E+00 -0.11250523254E+01  0.21055888308E+00  0.90007594790E+02  0.89999854241E+02 0.  0.
         12    1    1    2    0    0 -0.28858045948E+00  0.11250523254E+01 -0.21055888308E+00  0.11804052100E+01  0.00000000000E+00 0. -1.
         11    1    3    3    0    0 -0.25519927403E+02  0.24936732788E+02 -0.41148241931E+01  0.35917114517E+02  0.51100000000E-03 0. -1.
        -11    1    3    3    0    0 -0.53892384984E+01  0.20805767450E+01 -0.83959998978E+01  0.10191442770E+02  0.51100000000E-03 0.  1.
        -12    1    3    3    0    0  0.31197746361E+02 -0.28142361859E+02  0.12721382974E+02  0.43899037504E+02  0.00000000000E+00 0.  1.
</event>
<event>
 7    1  0.5839148E-015  0.9000771E+02  0.7816164E-02  0.1186339E+00
        -11   -1    0    0    0    0  0.00000000000E+00  0.00000000000E+00  0.45593999997E+02  0.45594000000E+02  0.51100000000E-03 0. -1.
         11   -1    0    0    0    0 -0.00000000000E+00 -0.00000000000E+00 -0.45593999997E+02  0.45594000000E+02  0.51100000000E-03 0.  1.
    9900012    2    1    2    0    0  0.43105655243E+00  0.91374691156E+00 -0.61019518414E+00  0.90007711335E+02  0.89999972325E+02 0.  0.
         12    1    1    2    0    0 -0.43105655243E+00 -0.91374691156E+00  0.61019518414E+00  0.11802886649E+01  0.00000000000E+00 0. -1.
         11    1    3    3    0    0  0.37395888956E+01 -0.56567443957E+00  0.38557218112E+02  0.38742271248E+02  0.51100000000E-03 0. -1.
        -11    1    3    3    0    0 -0.93289775576E+01  0.30850188015E+01  0.16601948804E+01  0.99651096621E+01  0.51100000000E-03 0.  1.
        -12    1    3    3    0    0  0.60204452145E+01 -0.16055974503E+01 -0.40827608177E+02  0.41300330425E+02  0.00000000000E+00 0.  1.
</event>
<event>
 7    1  0.4400431E-015  0.9000774E+02  0.7816164E-02  0.1186339E+00
        -11   -1    0    0    0    0  0.00000000000E+00  0.00000000000E+00  0.45593999997E+02  0.45594000000E+02  0.51100000000E-03 0. -1.
         11   -1    0    0    0    0 -0.00000000000E+00 -0.00000000000E+00 -0.45593999997E+02  0.45594000000E+02  0.51100000000E-03 0.  1.
    9900012    2    1    2    0    0  0.61346061905E+00  0.44437223678E+00 -0.90509828915E+00  0.90007744295E+02  0.90000005720E+02 0.  0.
         12    1    1    2    0    0 -0.61346061905E+00 -0.44437223678E+00  0.90509828915E+00  0.11802557049E+01  0.00000000000E+00 0. -1.
         11    1    3    3    0    0  0.37221379988E+00 -0.12305357306E+01  0.75632891110E+01  0.76717731806E+01  0.51100000000E-03 0. -1.
        -11    1    3    3    0    0  0.27936084513E+02 -0.18052104019E+02 -0.27688268050E+02  0.43277516857E+02  0.51100000000E-03 0.  1.
         12    1    3    3    0    0 -0.27694837694E+02  0.19727011986E+02  0.19219880650E+02  0.39058454258E+02  0.00000000000E+00 0. -1.
</event>
<event>
 7    1  0.4400431E-015  0.9000774E+02  0.7816164E-02  0.1186339E+00
        -11   -1    0    0    0    0  0.00000000000E+00  0.00000000000E+00  0.45593999997E+02  0.45594000000E+02  0.51100000000E-03 0.  1.
         11   -1    0    0    0    0 -0.00000000000E+00 -0.00000000000E+00 -0.45593999997E+02  0.45594000000E+02  0.51100000000E-03 0. -1.
    9900012    2    1    2    0    0  0.80989734635E+00 -0.35644778446E+00  0.78103541788E+00  0.90007743647E+02  0.90000005063E+02 0.  0.
         12    1    1    2    0    0 -0.80989734635E+00  0.35644778446E+00 -0.78103541788E+00  0.11802563529E+01  0.00000000000E+00 0. -1.
         11    1    3    3    0    0 -0.48135726658E+01  0.56720761175E+00  0.63993392673E+01  0.80276864415E+01  0.51100000000E-03 0. -1.
        -11    1    3    3    0    0  0.82553341779E+01  0.31733942341E+02  0.21701202401E+02  0.39320933671E+02  0.51100000000E-03 0.  1.
         12    1    3    3    0    0 -0.26318641658E+01 -0.32657597737E+02 -0.27319506251E+02  0.42659123534E+02  0.00000000000E+00 0. -1.
</event>
<event>
 7    1  0.4400431E-015  0.9000782E+02  0.7816164E-02  0.1186339E+00
        -11   -1    0    0    0    0  0.00000000000E+00  0.00000000000E+00  0.45593999997E+02  0.45594000000E+02  0.51100000000E-03 0.  1.
         11   -1    0    0    0    0 -0.00000000000E+00 -0.00000000000E+00 -0.45593999997E+02  0.45594000000E+02  0.51100000000E-03 0. -1.
    9900012    2    1    2    0    0 -0.64314728439E+00 -0.98783921477E+00 -0.57995982350E-01  0.90007818540E+02  0.90000080945E+02 0.  0.
         12    1    1    2    0    0  0.64314728439E+00  0.98783921477E+00  0.57995982350E-01  0.11801814596E+01  0.00000000000E+00 0. -1.
         11    1    3    3    0    0 -0.20391774309E+02 -0.34912620699E+02  0.23708471933E+01  0.40501067396E+02  0.51100000000E-03 0. -1.
        -11    1    3    3    0    0  0.26160028402E+01 -0.37008071056E+00  0.90989988307E+01  0.94748198175E+01  0.51100000000E-03 0.  1.
        -12    1    3    3    0    0  0.17132624184E+02  0.34294862195E+02 -0.11527842006E+02  0.40031931327E+02  0.00000000000E+00 0.  1.
</event>
<event>
 7    1  0.4400431E-015  0.9000768E+02  0.7816164E-02  0.1186339E+00
        -11   -1    0    0    0    0  0.00000000000E+00  0.00000000000E+00  0.45593999997E+02  0.45594000000E+02  0.51100000000E-03 0.  1.
         11   -1    0    0    0    0 -0.00000000000E+00 -0.00000000000E+00 -0.45593999997E+02  0.45594000000E+02  0.51100000000E-03 0. -1.
    9900012    2    1    2    0    0  0.93441166616E+00  0.15028420729E+00  0.70529052369E+00  0.90007684268E+02  0.89999944900E+02 0.  0.
         12    1    1    2    0    0 -0.93441166616E+00 -0.15028420729E+00 -0.70529052369E+00  0.11803157322E+01  0.00000000000E+00 0. -1.
         11    1    3    3    0    0 -0.35366386184E+02 -0.49054433087E+01  0.13878971547E+02  0.38307577543E+02  0.51100000000E-03 0. -1.
        -11    1    3    3    0    0 -0.32355215497E+01  0.80199092494E+01  0.25998338064E+01  0.90303200469E+01  0.51100000000E-03 0.  1.
        -12    1    3    3    0    0  0.39536319400E+02 -0.29641817334E+01 -0.15773514830E+02  0.42669786678E+02  0.00000000000E+00 0.  1.
</event>
<event>
 7    1  0.4400431E-015  0.9000771E+02  0.7816164E-02  0.1186339E+00
        -11   -1    0    0    0    0  0.00000000000E+00  0.00000000000E+00  0.45593999997E+02  0.45594000000E+02  0.51100000000E-03 0.  1.
         11   -1    0    0    0    0 -0.00000000000E+00 -0.00000000000E+00 -0.45593999997E+02  0.45594000000E+02  0.51100000000E-03 0. -1.
    9900012    2    1    2    0    0  0.98871996760E+00 -0.22451038657E+00  0.60424231578E+00  0.90007711533E+02  0.89999972526E+02 0.  0.
         12    1    1    2    0    0 -0.98871996760E+00  0.22451038657E+00 -0.60424231578E+00  0.11802884665E+01  0.00000000000E+00 0. -1.
         11    1    3    3    0    0 -0.20065361327E+01  0.87325726544E+01 -0.57308206406E+00  0.89784428344E+01  0.51100000000E-03 0. -1.
        -11    1    3    3    0    0 -0.10383271686E+02  0.29191199771E+02  0.19538085301E+02  0.36628885493E+02  0.51100000000E-03 0.  1.
         12    1    3    3    0    0  0.13378527787E+02 -0.38148282812E+02 -0.18360760921E+02  0.44400383206E+02  0.00000000000E+00 0. -1.
</event>
<event>
 7    1  0.4400431E-015  0.9000775E+02  0.7816164E-02  0.1186339E+00
        -11   -1    0    0    0    0  0.00000000000E+00  0.00000000000E+00  0.45593999997E+02  0.45594000000E+02  0.51100000000E-03 0.  1.
         11   -1    0    0    0    0 -0.00000000000E+00 -0.00000000000E+00 -0.45593999997E+02  0.45594000000E+02  0.51100000000E-03 0. -1.
    9900012    2    1    2    0    0  0.37249026506E+00 -0.10399800931E+01  0.41555206466E+00  0.90007749556E+02  0.90000011050E+02 0.  0.
         12    1    1    2    0    0 -0.37249026506E+00  0.10399800931E+01 -0.41555206466E+00  0.11802504438E+01  0.00000000000E+00 0. -1.
         11    1    3    3    0    0  0.41433539086E+02  0.68807392966E+01  0.45041458825E+01  0.42241804706E+02  0.51100000000E-03 0. -1.
        -11    1    3    3    0    0 -0.84208780575E+01 -0.11103306628E+01  0.86026210697E+01  0.12089214655E+02  0.51100000000E-03 0.  1.
        -12    1    3    3    0    0 -0.32640170764E+02 -0.68103887269E+01 -0.12691214887E+02  0.35676730195E+02  0.00000000000E+00 0.  1.
</event>
<event>
 7    1  0.4400431E-015  0.9000775E+02  0.7816164E-02  0.1186339E+00
        -11   -1    0    0    0    0  0.00000000000E+00  0.00000000000E+00  0.45593999997E+02  0.45594000000E+02  0.51100000000E-03 0. -1.
         11   -1    0    0    0    0 -0.00000000000E+00 -0.00000000000E+00 -0.45593999997E+02  0.45594000000E+02  0.51100000000E-03 0.  1.
    9900012    2    1    2    0    0  0.17107057600E+00  0.11671106719E+01  0.39834038132E-01  0.90007746124E+02  0.90000007572E+02 0.  0.
         12    1    1    2    0    0 -0.17107057600E+00 -0.11671106719E+01 -0.39834038132E-01  0.11802538765E+01  0.00000000000E+00 0. -1.
         11    1    3    3    0    0 -0.21645143333E+01  0.77833848252E+01 -0.62158333696E+01  0.10193271623E+02  0.51100000000E-03 0. -1.
        -11    1    3    3    0    0 -0.16332508324E+02  0.44138671607E+01 -0.31796876559E+02  0.36017695798E+02  0.51100000000E-03 0.  1.
         12    1    3    3    0    0  0.18668093233E+02 -0.11030141314E+02  0.38052543967E+02  0.43796778702E+02  0.00000000000E+00 0. -1.
</event>
<event>
 7    1  0.4400431E-015  0.9000783E+02  0.7816164E-02  0.1186339E+00
        -11   -1    0    0    0    0  0.00000000000E+00  0.00000000000E+00  0.45593999997E+02  0.45594000000E+02  0.51100000000E-03 0.  1.
         11   -1    0    0    0    0 -0.00000000000E+00 -0.00000000000E+00 -0.45593999997E+02  0.45594000000E+02  0.51100000000E-03 0. -1.
    9900012    2    1    2    0    0 -0.20975277226E+00 -0.90118104378E+00  0.73258320876E+00  0.90007829819E+02  0.90000092372E+02 0.  0.
         12    1    1    2    0    0  0.20975277226E+00  0.90118104378E+00 -0.73258320876E+00  0.11801701813E+01  0.00000000000E+00 0. -1.
         11    1    3    3    0    0  0.34692731013E+02 -0.18244690397E+02  0.80308630779E+01  0.40011861677E+02  0.51100000000E-03 0. -1.
        -11    1    3    3    0    0 -0.71717789442E+01 -0.67253280520E+01  0.53078691331E+01  0.11173089350E+02  0.51100000000E-03 0.  1.
        -12    1    3    3    0    0 -0.27730704841E+02  0.24068837405E+02 -0.12606149002E+02  0.38822878792E+02  0.00000000000E+00 0.  1.
</event>
<event>
 7    1  0.4400431E-015  0.9000780E+02  0.7816164E-02  0.1186339E+00
        -11   -1    0    0    0    0  0.00000000000E+00  0.00000000000E+00  0.45593999997E+02  0.45594000000E+02  0.51100000000E-03 0.  1.
         11   -1    0    0    0    0 -0.00000000000E+00 -0.00000000000E+00 -0.45593999997E+02  0.45594000000E+02  0.51100000000E-03 0. -1.
    9900012    2    1    2    0    0  0.44109608739E+00  0.10374255463E+01 -0.34936477507E+00  0.90007799480E+02  0.90000061633E+02 0.  0.
         12    1    1    2    0    0 -0.44109608739E+00 -0.10374255463E+01  0.34936477507E+00  0.11802005205E+01  0.00000000000E+00 0. -1.
         11    1    3    3    0    0 -0.15534126900E+02 -0.12517225405E+01 -0.34939137429E+02  0.38257276856E+02  0.51100000000E-03 0. -1.
        -11    1    3    3    0    0  0.43953407332E+01 -0.29749853270E+01 -0.66990157875E+01  0.85467169509E+01  0.51100000000E-03 0.  1.
        -12    1    3    3    0    0  0.11579882254E+02  0.52641334138E+01  0.41288788442E+02  0.43203805673E+02  0.00000000000E+00 0.  1.
</event>
<event>
 7    1  0.4400431E-015  0.9000757E+02  0.7816164E-02  0.1186339E+00
        -11   -1    0    0    0    0  0.00000000000E+00  0.00000000000E+00  0.45593999997E+02  0.45594000000E+02  0.51100000000E-03 0.  1.
         11   -1    0    0    0    0 -0.00000000000E+00 -0.00000000000E+00 -0.45593999997E+02  0.45594000000E+02  0.51100000000E-03 0. -1.
    9900012    2    1    2    0    0 -0.10486457829E+01  0.22732347943E+00  0.49202590993E+00  0.90007566419E+02  0.89999825496E+02 0.  0.
         12    1    1    2    0    0  0.10486457829E+01 -0.22732347943E+00 -0.49202590993E+00  0.11804335807E+01  0.00000000000E+00 0. -1.
         11    1    3    3    0    0  0.79076950584E+01 -0.36124262088E+01  0.28429235529E+01  0.91467742314E+01  0.51100000000E-03 0. -1.
        -11    1    3    3    0    0 -0.26005081413E+02 -0.18155944463E+02  0.26090947414E+02  0.41068724303E+02  0.51100000000E-03 0.  1.
         12    1    3    3    0    0  0.17048740572E+02  0.21995694152E+02 -0.28441845057E+02  0.39792067885E+02  0.00000000000E+00 0. -1.
</event>
<event>
 7    1  0.4400431E-015  0.9000767E+02  0.7816164E-02  0.1186339E+00
        -11   -1    0    0    0    0  0.00000000000E+00  0.00000000000E+00  0.45593999997E+02  0.45594000000E+02  0.51100000000E-03 0.  1.
         11   -1    0    0    0    0 -0.00000000000E+00 -0.00000000000E+00 -0.45593999997E+02  0.45594000000E+02  0.51100000000E-03 0. -1.
    9900012    2    1    2    0    0  0.10638441094E+01  0.20154597939E+00  0.46987840430E+00  0.90007673441E+02  0.89999933930E+02 0.  0.
         12    1    1    2    0    0 -0.10638441094E+01 -0.20154597939E+00 -0.46987840430E+00  0.11803265590E+01  0.00000000000E+00 0. -1.
         11    1    3    3    0    0 -0.60515211992E+01 -0.61497805976E+01 -0.38412730999E+01  0.94443681372E+01  0.51100000000E-03 0. -1.
        -11    1    3    3    0    0  0.32568865981E+01 -0.14299264583E+01  0.41866186928E+02  0.42017015697E+02  0.51100000000E-03 0.  1.
         12    1    3    3    0    0  0.38584787106E+01  0.77812530353E+01 -0.37555035424E+02  0.38546289606E+02  0.00000000000E+00 0. -1.
</event>
<event>
 7    1  0.4400431E-015  0.9000730E+02  0.7816164E-02  0.1186340E+00
        -11   -1    0    0    0    0  0.00000000000E+00  0.00000000000E+00  0.45593999997E+02  0.45594000000E+02  0.51100000000E-03 0.  1.
         11   -1    0    0    0    0 -0.00000000000E+00 -0.00000000000E+00 -0.45593999997E+02  0.45594000000E+02  0.51100000000E-03 0. -1.
    9900012    2    1    2    0    0  0.10714079979E+01 -0.19475065625E+00  0.45629910964E+00  0.90007300295E+02  0.89999555858E+02 0.  0.
         12    1    1    2    0    0 -0.10714079979E+01  0.19475065625E+00 -0.45629910964E+00  0.11806997050E+01  0.00000000000E+00 0. -1.
         11    1    3    3    0    0  0.15840675157E+02 -0.12890749263E+02 -0.29051104896E+02  0.35511478454E+02  0.51100000000E-03 0. -1.
        -11    1    3    3    0    0  0.90721978720E+01  0.13631819775E+00 -0.52756948907E+01  0.10495537800E+02  0.51100000000E-03 0.  1.
        -12    1    3    3    0    0 -0.23841465031E+02  0.12559680409E+02  0.34783098897E+02  0.44000284041E+02  0.00000000000E+00 0.  1.
</event>
<event>
 7    1  0.4400431E-015  0.9000774E+02  0.7816164E-02  0.1186339E+00
        -11   -1    0    0    0    0  0.00000000000E+00  0.00000000000E+00  0.45593999997E+02  0.45594000000E+02  0.51100000000E-03 0. -1.
         11   -1    0    0    0    0 -0.00000000000E+00 -0.00000000000E+00 -0.45593999997E+02  0.45594000000E+02  0.51100000000E-03 0.  1.
    9900012    2    1    2    0    0  0.49483505858E+00  0.84029853590E+00 -0.66487217009E+00  0.90007738009E+02  0.89999999351E+02 0.  0.
         12    1    1    2    0    0 -0.49483505858E+00 -0.84029853590E+00  0.66487217009E+00  0.11802619909E+01  0.00000000000E+00 0. -1.
         11    1    3    3    0    0  0.72866034420E+01  0.56163884793E+01  0.13340232825E+01  0.92961297135E+01  0.51100000000E-03 0. -1.
        -11    1    3    3    0    0  0.52397359568E+01  0.36890991958E+02 -0.24259330229E+01  0.37340129511E+02  0.51100000000E-03 0.  1.
         12    1    3    3    0    0 -0.12031504340E+02 -0.41667081902E+02  0.42703757032E+00  0.43371478785E+02  0.00000000000E+00 0. -1.
</event>
<event>
 7    1  0.4400431E-015  0.9000761E+02  0.7816164E-02  0.1186339E+00
        -11   -1    0    0    0    0  0.00000000000E+00  0.00000000000E+00  0.45593999997E+02  0.45594000000E+02  0.51100000000E-03 0. -1.
         11   -1    0    0    0    0 -0.00000000000E+00 -0.00000000000E+00 -0.45593999997E+02  0.45594000000E+02  0.51100000000E-03 0.  1.
    9900012    2    1    2    0    0 -0.58951372315E+00 -0.60954571715E+00 -0.82112686426E+00  0.90007609498E+02  0.89999869143E+02 0.  0.
         12    1    1    2    0    0  0.58951372315E+00  0.60954571715E+00  0.82112686426E+00  0.11803905025E+01  0.00000000000E+00 0. -1.
         11    1    3    3    0    0 -0.17116663177E+02 -0.10544124272E+02  0.95030982610E+01  0.22236627258E+02  0.51100000000E-03 0. -1.
        -11    1    3    3    0    0  0.45541853799E+01 -0.26409516896E+02 -0.12230125348E+02  0.29458091477E+02  0.51100000000E-03 0.  1.
         12    1    3    3    0    0  0.11972964074E+02  0.36344095452E+02  0.19059002232E+01  0.38312890762E+02  0.00000000000E+00 0. -1.
</event>
<event>
 7    1  0.4400431E-015  0.9000774E+02  0.7816164E-02  0.1186339E+00
        -11   -1    0    0    0    0  0.00000000000E+00  0.00000000000E+00  0.45593999997E+02  0.45594000000E+02  0.51100000000E-03 0.  1.
         11   -1    0    0    0    0 -0.00000000000E+00 -0.00000000000E+00 -0.45593999997E+02  0.45594000000E+02  0.51100000000E-03 0. -1.
    9900012    2    1    2    0    0 -0.35193933052E+00  0.10800742744E+01  0.32028275081E+00  0.90007744616E+02  0.90000006045E+02 0.  0.
         12    1    1    2    0    0  0.35193933052E+00 -0.10800742744E+01 -0.32028275081E+00  0.11802553838E+01  0.00000000000E+00 0. -1.
         11    1    3    3    0    0  0.58713749022E-01  0.70395659745E+01  0.50568112308E+01  0.86677722915E+01  0.51100000000E-03 0. -1.
        -11    1    3    3    0    0 -0.45960126677E+01  0.11138191680E+02  0.35463750582E+02  0.37454776090E+02  0.51100000000E-03 0.  1.
         12    1    3    3    0    0  0.41853595882E+01 -0.17097683380E+02 -0.40200279062E+02  0.43885196234E+02  0.00000000000E+00 0. -1.
</event>
<event>
 7    1  0.4400431E-015  0.9000891E+02  0.7816164E-02  0.1186337E+00
        -11   -1    0    0    0    0  0.00000000000E+00  0.00000000000E+00  0.45593999997E+02  0.45594000000E+02  0.51100000000E-03 0. -1.
         11   -1    0    0    0    0 -0.00000000000E+00 -0.00000000000E+00 -0.45593999997E+02  0.45594000000E+02  0.51100000000E-03 0.  1.
    9900012    2    1    2    0    0 -0.11009234697E+01 -0.92923203467E-01  0.41179410644E+00  0.90008914933E+02  0.90001191803E+02 0.  0.
         12    1    1    2    0    0  0.11009234697E+01  0.92923203467E-01 -0.41179410644E+00  0.11790850665E+01  0.00000000000E+00 0. -1.
         11    1    3    3    0    0 -0.75242896495E+01 -0.40202307605E+01 -0.53263976956E+01  0.10057221424E+02  0.51100000000E-03 0. -1.
        -11    1    3    3    0    0 -0.32287306684E+01  0.15803897526E+02 -0.33856264959E+02  0.37502460666E+02  0.51100000000E-03 0.  1.
         12    1    3    3    0    0  0.96520968481E+01 -0.11876589969E+02  0.39594456761E+02  0.42449232844E+02  0.00000000000E+00 0. -1.
</event>
<event>
 7    1  0.4400431E-015  0.9000771E+02  0.7816164E-02  0.1186339E+00
        -11   -1    0    0    0    0  0.00000000000E+00  0.00000000000E+00  0.45593999997E+02  0.45594000000E+02  0.51100000000E-03 0. -1.
         11   -1    0    0    0    0 -0.00000000000E+00 -0.00000000000E+00 -0.45593999997E+02  0.45594000000E+02  0.51100000000E-03 0.  1.
    9900012    2    1    2    0    0  0.29461138152E+00  0.59488132303E+00 -0.97591260453E+00  0.90007709753E+02  0.89999970722E+02 0.  0.
         12    1    1    2    0    0 -0.29461138152E+00 -0.59488132303E+00  0.97591260453E+00  0.11802902466E+01  0.00000000000E+00 0. -1.
         11    1    3    3    0    0  0.20095496158E+01  0.84597274835E+01  0.33996007654E+00  0.87017729153E+01  0.51100000000E-03 0. -1.
        -11    1    3    3    0    0 -0.38320670582E+02 -0.14677570614E+02  0.10287959297E+02  0.42305401307E+02  0.51100000000E-03 0.  1.
         12    1    3    3    0    0  0.36605732348E+02  0.68127244532E+01 -0.11603831978E+02  0.39000535531E+02  0.00000000000E+00 0. -1.
</event>
<event>
 7    1  0.4400431E-015  0.9000773E+02  0.7816164E-02  0.1186339E+00
        -11   -1    0    0    0    0  0.00000000000E+00  0.00000000000E+00  0.45593999997E+02  0.45594000000E+02  0.51100000000E-03 0.  1.
         11   -1    0    0    0    0 -0.00000000000E+00 -0.00000000000E+00 -0.45593999997E+02  0.45594000000E+02  0.51100000000E-03 0. -1.
    9900012    2    1    2    0    0  0.11563591301E+01  0.23490001428E+00  0.26465488321E-01  0.90007726779E+02  0.89999987972E+02 0.  0.
         12    1    1    2    0    0 -0.11563591301E+01 -0.23490001428E+00 -0.26465488321E-01  0.11802732211E+01  0.00000000000E+00 0. -1.
         11    1    3    3    0    0  0.40500128300E+02  0.71772718210E+01  0.94421303623E+01  0.42201036115E+02  0.51100000000E-03 0. -1.
        -11    1    3    3    0    0 -0.46351180096E+01  0.77308625397E+01 -0.21291670037E+00  0.90164232572E+01  0.51100000000E-03 0.  1.
        -12    1    3    3    0    0 -0.34708651160E+02 -0.14673234346E+02 -0.92027481736E+01  0.38790267407E+02  0.00000000000E+00 0.  1.
</event>
<event>
 7    1  0.4400431E-015  0.9000780E+02  0.7816164E-02  0.1186339E+00
        -11   -1    0    0    0    0  0.00000000000E+00  0.00000000000E+00  0.45593999997E+02  0.45594000000E+02  0.51100000000E-03 0.  1.
         11   -1    0    0    0    0 -0.00000000000E+00 -0.00000000000E+00 -0.45593999997E+02  0.45594000000E+02  0.51100000000E-03 0. -1.
    9900012    2    1    2    0    0 -0.10372902603E+01 -0.12605779554E+00 -0.54864172067E+00  0.90007801123E+02  0.90000063298E+02 0.  0.
         12    1    1    2    0    0  0.10372902603E+01  0.12605779554E+00  0.54864172067E+00  0.11801988771E+01  0.00000000000E+00 0. -1.
         11    1    3    3    0    0 -0.34673412350E+02 -0.21849540265E+02 -0.64362386468E+01  0.41485818083E+02  0.51100000000E-03 0. -1.
        -11    1    3    3    0    0  0.54448177409E+00  0.14214857311E+02  0.20697250118E+01  0.14375061414E+02  0.51100000000E-03 0.  1.
        -12    1    3    3    0    0  0.33091640316E+02  0.75086251588E+01  0.38178719143E+01  0.34146921626E+02  0.00000000000E+00 0.  1.
</event>
<event>
 7    1  0.4400431E-015  0.9000777E+02  0.7816164E-02  0.1186339E+00
        -11   -1    0    0    0    0  0.00000000000E+00  0.00000000000E+00  0.45593999997E+02  0.45594000000E+02  0.51100000000E-03 0. -1.
         11   -1    0    0    0    0 -0.00000000000E+00 -0.00000000000E+00 -0.45593999997E+02  0.45594000000E+02  0.51100000000E-03 0.  1.
    9900012    2    1    2    0    0  0.35645686003E+00  0.90805703846E+00 -0.66432305829E+00  0.90007765191E+02  0.90000026892E+02 0.  0.
         12    1    1    2    0    0 -0.35645686003E+00 -0.90805703846E+00  0.66432305829E+00  0.11802348088E+01  0.00000000000E+00 0. -1.
         11    1    3    3    0    0 -0.85620834118E+00 -0.53382236385E+01 -0.66873072012E+01  0.85994070844E+01  0.51100000000E-03 0. -1.
        -11    1    3    3    0    0 -0.33502993466E+02 -0.83309957532E+01 -0.15715024890E+02  0.37931755416E+02  0.51100000000E-03 0.  1.
         12    1    3    3    0    0  0.34715658667E+02  0.14577276430E+02  0.21738009033E+02  0.43476602691E+02  0.00000000000E+00 0. -1.
</event>
<event>
 7    1  0.4400431E-015  0.9000768E+02  0.7816164E-02  0.1186339E+00
        -11   -1    0    0    0    0  0.00000000000E+00  0.00000000000E+00  0.45593999997E+02  0.45594000000E+02  0.51100000000E-03 0.  1.
         11   -1    0    0    0    0 -0.00000000000E+00 -0.00000000000E+00 -0.45593999997E+02  0.45594000000E+02  0.51100000000E-03 0. -1.
    9900012    2    1    2    0    0 -0.41425608549E+00  0.99447189783E+00  0.48226496612E+00  0.90007677181E+02  0.89999937720E+02 0.  0.
         12    1    1    2    0    0  0.41425608549E+00 -0.99447189783E+00 -0.48226496612E+00  0.11803228192E+01  0.00000000000E+00 0. -1.
         11    1    3    3    0    0 -0.10557308623E+02  0.20996617948E+02 -0.31378282781E+02  0.39203461086E+02  0.51100000000E-03 0. -1.
        -11    1    3    3    0    0  0.66611751270E+01  0.76759238051E+01  0.28453896588E+01  0.10554018330E+02  0.51100000000E-03 0.  1.
        -12    1    3    3    0    0  0.34818774108E+01 -0.27678069855E+02  0.29015158088E+02  0.40250197765E+02  0.00000000000E+00 0.  1.
</event>
<event>
 7    1  0.4400431E-015  0.9000773E+02  0.7816164E-02  0.1186339E+00
        -11   -1    0    0    0    0  0.00000000000E+00  0.00000000000E+00  0.45593999997E+02  0.45594000000E+02  0.51100000000E-03 0. -1.
         11   -1    0    0    0    0 -0.00000000000E+00 -0.00000000000E+00 -0.45593999997E+02  0.45594000000E+02  0.51100000000E-03 0.  1.
    9900012    2    1    2    0    0 -0.40725496398E+00 -0.38151228424E+00 -0.10400189885E+01  0.90007725572E+02  0.89999986750E+02 0.  0.
         12    1    1    2    0    0  0.40725496398E+00  0.38151228424E+00  0.10400189885E+01  0.11802744279E+01  0.00000000000E+00 0. -1.
         11    1    3    3    0    0 -0.13578223804E+02  0.32824826447E+02  0.15276315755E+02  0.38667857664E+02  0.51100000000E-03 0. -1.
        -11    1    3    3    0    0  0.57744483456E+01 -0.16666373958E+01  0.85851318233E+01  0.10479810236E+02  0.51100000000E-03 0.  1.
        -12    1    3    3    0    0  0.73965204948E+01 -0.31539701336E+02 -0.24901466567E+02  0.40860057672E+02  0.00000000000E+00 0.  1.
</event>
<event>
 7    1  0.4400431E-015  0.9000772E+02  0.7816164E-02  0.1186339E+00
        -11   -1    0    0    0    0  0.00000000000E+00  0.00000000000E+00  0.45593999997E+02  0.45594000000E+02  0.51100000000E-03 0.  1.
         11   -1    0    0    0    0 -0.00000000000E+00 -0.00000000000E+00 -0.45593999997E+02  0.45594000000E+02  0.51100000000E-03 0. -1.
    9900012    2    1    2    0    0  0.82620587469E+00  0.62324352521E+00  0.56745876870E+00  0.90007721180E+02  0.89999982299E+02 0.  0.
         12    1    1    2    0    0 -0.82620587469E+00 -0.62324352521E+00 -0.56745876870E+00  0.11802788201E+01  0.00000000000E+00 0. -1.
         11    1    3    3    0    0  0.38342210677E+01 -0.11908926716E+02  0.11721050420E+01  0.12565731861E+02  0.51100000000E-03 0. -1.
        -11    1    3    3    0    0  0.18742151116E+02 -0.12194167904E+02  0.26584105333E+02  0.34737308703E+02  0.51100000000E-03 0.  1.
         12    1    3    3    0    0 -0.21750166309E+02  0.24726338145E+02 -0.27188751607E+02  0.42704680615E+02  0.00000000000E+00 0. -1.
</event>
<event>
 7    1  0.4400431E-015  0.9000772E+02  0.7816164E-02  0.1186339E+00
        -11   -1    0    0    0    0  0.00000000000E+00  0.00000000000E+00  0.45593999997E+02  0.45594000000E+02  0.51100000000E-03 0.  1.
         11   -1    0    0    0    0 -0.00000000000E+00 -0.00000000000E+00 -0.45593999997E+02  0.45594000000E+02  0.51100000000E-03 0. -1.
    9900012    2    1    2    0    0  0.10868246373E+01 -0.25002788236E+00  0.38646584702E+00  0.90007721395E+02  0.89999982518E+02 0.  0.
         12    1    1    2    0    0 -0.10868246373E+01  0.25002788236E+00 -0.38646584702E+00  0.11802786048E+01  0.00000000000E+00 0. -1.
         11    1    3    3    0    0  0.46577500441E+01 -0.20817924800E+02 -0.31630486986E+02  0.38151911298E+02  0.51100000000E-03 0. -1.
        -11    1    3    3    0    0 -0.49560736260E+01 -0.69979658686E+00 -0.62783303889E+01  0.80293096703E+01  0.51100000000E-03 0.  1.
        -12    1    3    3    0    0  0.13851482191E+01  0.21267693504E+02  0.38295283222E+02  0.43826500427E+02  0.00000000000E+00 0.  1.
</event>
<event>
 7    1  0.4400431E-015  0.9000777E+02  0.7816164E-02  0.1186339E+00
        -11   -1    0    0    0    0  0.00000000000E+00  0.00000000000E+00  0.45593999997E+02  0.45594000000E+02  0.51100000000E-03 0.  1.
         11   -1    0    0    0    0 -0.00000000000E+00 -0.00000000000E+00 -0.45593999997E+02  0.45594000000E+02  0.51100000000E-03 0. -1.
    9900012    2    1    2    0    0  0.19752589585E+00 -0.31059289530E+00  0.11213604765E+01  0.90007773859E+02  0.90000035674E+02 0.  0.
         12    1    1    2    0    0 -0.19752589585E+00  0.31059289530E+00 -0.11213604765E+01  0.11802261412E+01  0.00000000000E+00 0. -1.
         11    1    3    3    0    0  0.59730718643E+01  0.88522251609E+00  0.63162544555E+01  0.87382078830E+01  0.51100000000E-03 0. -1.
        -11    1    3    3    0    0 -0.14843689421E+02 -0.32207756856E+02  0.19620265372E+02  0.40529366277E+02  0.51100000000E-03 0.  1.
         12    1    3    3    0    0  0.90681434525E+01  0.31011941445E+02 -0.24815159351E+02  0.40740199698E+02  0.00000000000E+00 0. -1.
</event>
<event>
 7    1  0.4400431E-015  0.9000774E+02  0.7816164E-02  0.1186339E+00
        -11   -1    0    0    0    0  0.00000000000E+00  0.00000000000E+00  0.45593999997E+02  0.45594000000E+02  0.51100000000E-03 0.  1.
         11   -1    0    0    0    0 -0.00000000000E+00 -0.00000000000E+00 -0.45593999997E+02  0.45594000000E+02  0.51100000000E-03 0. -1.
    9900012    2    1    2    0    0  0.18203382465E+00  0.37857136767E+00  0.11029779827E+01  0.90007740273E+02  0.90000001644E+02 0.  0.
         12    1    1    2    0    0 -0.18203382465E+00 -0.37857136767E+00 -0.11029779827E+01  0.11802597273E+01  0.00000000000E+00 0. -1.
         11    1    3    3    0    0 -0.15001401182E+01 -0.12972642037E+02 -0.33345505568E+02  0.35811487035E+02  0.51100000000E-03 0. -1.
        -11    1    3    3    0    0  0.28768920154E+01 -0.77970536447E+01 -0.47994763022E+01  0.95971624058E+01  0.51100000000E-03 0.  1.
        -12    1    3    3    0    0 -0.11947180725E+01  0.21148267050E+02  0.39247959853E+02  0.44599090832E+02  0.00000000000E+00 0.  1.
</event>
<event>
 7    1  0.4400431E-015  0.9000771E+02  0.7816164E-02  0.1186339E+00
        -11   -1    0    0    0    0  0.00000000000E+00  0.00000000000E+00  0.45593999997E+02  0.45594000000E+02  0.51100000000E-03 0. -1.
         11   -1    0    0    0    0 -0.00000000000E+00 -0.00000000000E+00 -0.45593999997E+02  0.45594000000E+02  0.51100000000E-03 0.  1.
    9900012    2    1    2    0    0  0.78512349814E+00  0.31756107850E+00 -0.82208131172E+00  0.90007711210E+02  0.89999972197E+02 0.  0.
         12    1    1    2    0    0 -0.78512349814E+00 -0.31756107850E+00  0.82208131172E+00  0.11802887905E+01  0.00000000000E+00 0. -1.
         11    1    3    3    0    0  0.63485079482E+01  0.79781811974E+01 -0.51382757964E+01  0.11417390543E+02  0.51100000000E-03 0. -1.
        -11    1    3    3    0    0 -0.17660461518E+02  0.32053623549E+02  0.57710874207E+01  0.37049050378E+02  0.51100000000E-03 0.  1.
         12    1    3    3    0    0  0.12097077068E+02 -0.39714243668E+02 -0.14548929360E+01  0.41541270288E+02  0.00000000000E+00 0. -1.
</event>
<event>
 7    1  0.4400431E-015  0.9000770E+02  0.7816164E-02  0.1186339E+00
        -11   -1    0    0    0    0  0.00000000000E+00  0.00000000000E+00  0.45593999997E+02  0.45594000000E+02  0.51100000000E-03 0.  1.
         11   -1    0    0    0    0 -0.00000000000E+00 -0.00000000000E+00 -0.45593999997E+02  0.45594000000E+02  0.51100000000E-03 0. -1.
    9900012    2    1    2    0    0 -0.19780356586E+00  0.11330063960E+01 -0.26511564745E+00  0.90007696628E+02  0.89999957423E+02 0.  0.
         12    1    1    2    0    0  0.19780356586E+00 -0.11330063960E+01  0.26511564745E+00  0.11803033723E+01  0.00000000000E+00 0. -1.
         11    1    3    3    0    0  0.16792940280E+01  0.78901091399E+01 -0.48661413709E+01  0.94208907633E+01  0.51100000000E-03 0. -1.
        -11    1    3    3    0    0 -0.36067270648E+02  0.14372764413E+02  0.98431612043E+01  0.40053866125E+02  0.51100000000E-03 0.  1.
         12    1    3    3    0    0  0.34190173054E+02 -0.21129867157E+02 -0.52421354809E+01  0.40532939739E+02  0.00000000000E+00 0. -1.
</event>
<event>
 7    1  0.4400431E-015  0.9000756E+02  0.7816164E-02  0.1186339E+00
        -11   -1    0    0    0    0  0.00000000000E+00  0.00000000000E+00  0.45593999997E+02  0.45594000000E+02  0.51100000000E-03 0. -1.
         11   -1    0    0    0    0 -0.00000000000E+00 -0.00000000000E+00 -0.45593999997E+02  0.45594000000E+02  0.51100000000E-03 0.  1.
    9900012    2    1    2    0    0  0.76516506290E+00 -0.35267881868E+00 -0.82678533095E+00  0.90007561985E+02  0.89999821004E+02 0.  0.
         12    1    1    2    0    0 -0.76516506290E+00  0.35267881868E+00  0.82678533095E+00  0.11804380145E+01  0.00000000000E+00 0. -1.
         11    1    3    3    0    0  0.14509267474E+01  0.24938250340E+02  0.24993557577E+02  0.35336941563E+02  0.51100000000E-03 0. -1.
        -11    1    3    3    0    0 -0.10372954442E+01  0.27672065278E+01  0.92762576491E+01  0.97356237623E+01  0.51100000000E-03 0.  1.
        -12    1    3    3    0    0  0.35153375970E+00 -0.28058135686E+02 -0.35096600557E+02  0.44934996660E+02  0.00000000000E+00 0.  1.
</event>
<event>
 7    1  0.6315514E-015  0.9000764E+02  0.7816164E-02  0.1186339E+00
        -11   -1    0    0    0    0  0.00000000000E+00  0.00000000000E+00  0.45593999997E+02  0.45594000000E+02  0.51100000000E-03 0.  1.
         11   -1    0    0    0    0 -0.00000000000E+00 -0.00000000000E+00 -0.45593999997E+02  0.45594000000E+02  0.51100000000E-03 0. -1.
    9900012    2    1    2    0    0  0.32524144680E+00 -0.10881320810E+01 -0.32163326232E+00  0.90007635065E+02  0.89999895048E+02 0.  0.
         12    1    1    2    0    0 -0.32524144680E+00  0.10881320810E+01  0.32163326232E+00  0.11803649350E+01  0.00000000000E+00 0. -1.
         11    1    3    3    0    0  0.14905831879E+00  0.38025811726E+02  0.22606063584E+01  0.38093239783E+02  0.51100000000E-03 0. -1.
        -11    1    3    3    0    0  0.44818618243E+01  0.13287845545E+01  0.85522881416E+01  0.97465063752E+01  0.51100000000E-03 0.  1.
        -12    1    3    3    0    0 -0.43056786963E+01 -0.40442728361E+02 -0.11134527762E+02  0.42167888907E+02  0.00000000000E+00 0.  1.
</event>
<event>
 7    1  0.4400431E-015  0.9000774E+02  0.7816164E-02  0.1186339E+00
        -11   -1    0    0    0    0  0.00000000000E+00  0.00000000000E+00  0.45593999997E+02  0.45594000000E+02  0.51100000000E-03 0.  1.
         11   -1    0    0    0    0 -0.00000000000E+00 -0.00000000000E+00 -0.45593999997E+02  0.45594000000E+02  0.51100000000E-03 0. -1.
    9900012    2    1    2    0    0 -0.64771656910E+00  0.10736925892E-01  0.98658499809E+00  0.90007744945E+02  0.90000006379E+02 0.  0.
         12    1    1    2    0    0  0.64771656910E+00 -0.10736925892E-01 -0.98658499809E+00  0.11802550546E+01  0.00000000000E+00 0. -1.
         11    1    3    3    0    0  0.28625645928E+02  0.62488625746E+00 -0.22028452881E+02  0.36125763996E+02  0.51100000000E-03 0. -1.
        -11    1    3    3    0    0  0.53655003445E+01 -0.65977441871E+01 -0.41444828581E+01  0.94602093385E+01  0.51100000000E-03 0.  1.
        -12    1    3    3    0    0 -0.34638862842E+02  0.59835948555E+01  0.27159520738E+02  0.44421771611E+02  0.00000000000E+00 0.  1.
</event>
<event>
 7    1  0.4400431E-015  0.9000784E+02  0.7816164E-02  0.1186339E+00
        -11   -1    0    0    0    0  0.00000000000E+00  0.00000000000E+00  0.45593999997E+02  0.45594000000E+02  0.51100000000E-03 0.  1.
         11   -1    0    0    0    0 -0.00000000000E+00 -0.00000000000E+00 -0.45593999997E+02  0.45594000000E+02  0.51100000000E-03 0. -1.
    9900012    2    1    2    0    0 -0.76806177521E+00 -0.49948947135E+00  0.74389047602E+00  0.90007838290E+02  0.90000100955E+02 0.  0.
         12    1    1    2    0    0  0.76806177521E+00  0.49948947135E+00 -0.74389047602E+00  0.11801617105E+01  0.00000000000E+00 0. -1.
         11    1    3    3    0    0  0.45160221823E+01  0.85862717950E+01 -0.33822765631E+00  0.97073641066E+01  0.51100000000E-03 0. -1.
        -11    1    3    3    0    0  0.31573871029E+02 -0.13091059781E+02  0.19018139784E+02  0.39114892548E+02  0.51100000000E-03 0.  1.
         12    1    3    3    0    0 -0.36857954986E+02  0.40052985142E+01 -0.17936021652E+02  0.41185581635E+02  0.00000000000E+00 0. -1.
</event>
<event>
 7    1  0.4400431E-015  0.9000777E+02  0.7816164E-02  0.1186339E+00
        -11   -1    0    0    0    0  0.00000000000E+00  0.00000000000E+00  0.45593999997E+02  0.45594000000E+02  0.51100000000E-03 0. -1.
         11   -1    0    0    0    0 -0.00000000000E+00 -0.00000000000E+00 -0.45593999997E+02  0.45594000000E+02  0.51100000000E-03 0.  1.
    9900012    2    1    2    0    0 -0.64471341475E+00  0.44205219834E+00 -0.88424421172E+00  0.90007765549E+02  0.90000027254E+02 0.  0.
         12    1    1    2    0    0  0.64471341475E+00 -0.44205219834E+00  0.88424421172E+00  0.11802344509E+01  0.00000000000E+00 0. -1.
         11    1    3    3    0    0  0.27246817158E+01  0.10027257383E+02 -0.12871643372E+01  0.10470270931E+02  0.51100000000E-03 0. -1.
        -11    1    3    3    0    0  0.28159919926E+02  0.19496430935E+02 -0.94435860539E+01  0.35528484730E+02  0.51100000000E-03 0.  1.
         12    1    3    3    0    0 -0.31529315056E+02 -0.29081636120E+02  0.98465061794E+01  0.44009009887E+02  0.00000000000E+00 0. -1.
</event>
<event>
 7    1  0.4400431E-015  0.9000771E+02  0.7816164E-02  0.1186339E+00
        -11   -1    0    0    0    0  0.00000000000E+00  0.00000000000E+00  0.45593999997E+02  0.45594000000E+02  0.51100000000E-03 0.  1.
         11   -1    0    0    0    0 -0.00000000000E+00 -0.00000000000E+00 -0.45593999997E+02  0.45594000000E+02  0.51100000000E-03 0. -1.
    9900012    2    1    2    0    0 -0.51665402418E+00 -0.10594894747E+01 -0.60201474691E-01  0.90007714634E+02  0.89999975667E+02 0.  0.
         12    1    1    2    0    0  0.51665402418E+00  0.10594894747E+01  0.60201474691E-01  0.11802853661E+01  0.00000000000E+00 0. -1.
         11    1    3    3    0    0 -0.13160835414E+02 -0.23496982439E+01  0.50642657257E+00  0.13378532758E+02  0.51100000000E-03 0. -1.
        -11    1    3    3    0    0  0.28312714989E+02 -0.14678643503E+02  0.26534608657E+02  0.41486839624E+02  0.51100000000E-03 0.  1.
         12    1    3    3    0    0 -0.15668533599E+02  0.15968852272E+02 -0.27101236704E+02  0.35142342252E+02  0.00000000000E+00 0. -1.
</event>
<event>
 7    1  0.4400431E-015  0.9000796E+02  0.7816164E-02  0.1186339E+00
        -11   -1    0    0    0    0  0.00000000000E+00  0.00000000000E+00  0.45593999997E+02  0.45594000000E+02  0.51100000000E-03 0. -1.
         11   -1    0    0    0    0 -0.00000000000E+00 -0.00000000000E+00 -0.45593999997E+02  0.45594000000E+02  0.51100000000E-03 0.  1.
    9900012    2    1    2    0    0  0.14552485600E-01 -0.70034031234E-01 -0.11778679177E+01  0.90007962131E+02  0.90000226431E+02 0.  0.
         12    1    1    2    0    0 -0.14552485600E-01  0.70034031234E-01  0.11778679177E+01  0.11800378688E+01  0.00000000000E+00 0. -1.
         11    1    3    3    0    0  0.22822750964E+02  0.10204757801E+02 -0.61292402511E+01  0.25740680443E+02  0.51100000000E-03 0. -1.
        -11    1    3    3    0    0  0.16058679215E+02  0.11208952683E+02  0.81206515931E-02  0.19583714270E+02  0.51100000000E-03 0.  1.
        -12    1    3    3    0    0 -0.38866877694E+02 -0.21483744515E+02  0.49432516818E+01  0.44683567419E+02  0.00000000000E+00 0.  1.
</event>
<event>
 7    1  0.4400431E-015  0.9000772E+02  0.7816164E-02  0.1186339E+00
        -11   -1    0    0    0    0  0.00000000000E+00  0.00000000000E+00  0.45593999997E+02  0.45594000000E+02  0.51100000000E-03 0.  1.
         11   -1    0    0    0    0 -0.00000000000E+00 -0.00000000000E+00 -0.45593999997E+02  0.45594000000E+02  0.51100000000E-03 0. -1.
    9900012    2    1    2    0    0  0.10586536267E+01 -0.43287328733E+00 -0.29142181412E+00  0.90007723143E+02  0.89999984289E+02 0.  0.
         12    1    1    2    0    0 -0.10586536267E+01  0.43287328733E+00  0.29142181412E+00  0.11802768565E+01  0.00000000000E+00 0. -1.
         11    1    3    3    0    0 -0.10058043343E+02  0.29932936932E+02  0.13006773361E+02  0.34151443641E+02  0.51100000000E-03 0. -1.
        -11    1    3    3    0    0  0.10661228707E+02  0.84649508716E+01 -0.99836313799E+01  0.16881649404E+02  0.51100000000E-03 0.  1.
        -12    1    3    3    0    0  0.45546826228E+00 -0.38830761091E+02 -0.33145637947E+01  0.38974630099E+02  0.00000000000E+00 0.  1.
</event>
<event>
 7    1  0.4400431E-015  0.9000784E+02  0.7816164E-02  0.1186339E+00
        -11   -1    0    0    0    0  0.00000000000E+00  0.00000000000E+00  0.45593999997E+02  0.45594000000E+02  0.51100000000E-03 0. -1.
         11   -1    0    0    0    0 -0.00000000000E+00 -0.00000000000E+00 -0.45593999997E+02  0.45594000000E+02  0.51100000000E-03 0.  1.
    9900012    2    1    2    0    0 -0.10739240962E+01 -0.44429179308E+00  0.20513603840E+00  0.90007835200E+02  0.90000097824E+02 0.  0.
         12    1    1    2    0    0  0.10739240962E+01  0.44429179308E+00 -0.20513603840E+00  0.11801648004E+01  0.00000000000E+00 0. -1.
         11    1    3    3    0    0 -0.64949598218E+00  0.13023042219E+01  0.93435595382E+01  0.94562120547E+01  0.51100000000E-03 0. -1.
        -11    1    3    3    0    0  0.11294567630E+02  0.25222545799E+02 -0.32741171544E+02  0.42845401024E+02  0.51100000000E-03 0.  1.
         12    1    3    3    0    0 -0.11718995744E+02 -0.26969141814E+02  0.23602748044E+02  0.37706222121E+02  0.00000000000E+00 0. -1.
</event>
<event>
 7    1  0.4400431E-015  0.9000781E+02  0.7816164E-02  0.1186339E+00
        -11   -1    0    0    0    0  0.00000000000E+00  0.00000000000E+00  0.45593999997E+02  0.45594000000E+02  0.51100000000E-03 0.  1.
         11   -1    0    0    0    0 -0.00000000000E+00 -0.00000000000E+00 -0.45593999997E+02  0.45594000000E+02  0.51100000000E-03 0. -1.
    9900012    2    1    2    0    0 -0.17390203668E+00 -0.91897351224E+00 -0.71979346508E+00  0.90007806428E+02  0.90000068673E+02 0.  0.
         12    1    1    2    0    0  0.17390203668E+00  0.91897351224E+00  0.71979346508E+00  0.11801935718E+01  0.00000000000E+00 0. -1.
         11    1    3    3    0    0 -0.31992609839E+02  0.92696097132E+01 -0.24067446933E+02  0.41093731281E+02  0.51100000000E-03 0. -1.
        -11    1    3    3    0    0  0.24422223589E+01  0.76885013861E+01  0.76302009322E+01  0.11103939397E+02  0.51100000000E-03 0.  1.
        -12    1    3    3    0    0  0.29376485443E+02 -0.17877084612E+02  0.15717452535E+02  0.37810135749E+02  0.00000000000E+00 0.  1.
</event>
<event>
 7    1  0.4400431E-015  0.9000780E+02  0.7816164E-02  0.1186339E+00
        -11   -1    0    0    0    0  0.00000000000E+00  0.00000000000E+00  0.45593999997E+02  0.45594000000E+02  0.51100000000E-03 0.  1.
         11   -1    0    0    0    0 -0.00000000000E+00 -0.00000000000E+00 -0.45593999997E+02  0.45594000000E+02  0.51100000000E-03 0. -1.
    9900012    2    1    2    0    0  0.87584303680E+00 -0.66147004332E+00 -0.43384804336E+00  0.90007801810E+02  0.90000063994E+02 0.  0.
         12    1    1    2    0    0 -0.87584303680E+00  0.66147004332E+00  0.43384804336E+00  0.11801981902E+01  0.00000000000E+00 0. -1.
         11    1    3    3    0    0 -0.29782951804E+01 -0.40156364304E+00 -0.85619981151E+01  0.90741009211E+01  0.51100000000E-03 0. -1.
        -11    1    3    3    0    0  0.19327611117E+02  0.22034592319E+02 -0.24707763444E+02  0.38334754269E+02  0.51100000000E-03 0.  1.
         12    1    3    3    0    0 -0.15473472900E+02 -0.22294498719E+02  0.32835913516E+02  0.42598946620E+02  0.00000000000E+00 0. -1.
</event>
<event>
 7    1  0.4400431E-015  0.9000770E+02  0.7816164E-02  0.1186339E+00
        -11   -1    0    0    0    0  0.00000000000E+00  0.00000000000E+00  0.45593999997E+02  0.45594000000E+02  0.51100000000E-03 0. -1.
         11   -1    0    0    0    0 -0.00000000000E+00 -0.00000000000E+00 -0.45593999997E+02  0.45594000000E+02  0.51100000000E-03 0.  1.
    9900012    2    1    2    0    0 -0.10804672027E+01 -0.26326275057E+00  0.39544941933E+00  0.90007704742E+02  0.89999965645E+02 0.  0.
         12    1    1    2    0    0  0.10804672027E+01  0.26326275057E+00 -0.39544941933E+00  0.11802952577E+01  0.00000000000E+00 0. -1.
         11    1    3    3    0    0  0.33415727263E+02  0.15997731729E+02 -0.20207629156E+02  0.42200551244E+02  0.51100000000E-03 0. -1.
        -11    1    3    3    0    0 -0.14317999903E+01 -0.91563426110E+01  0.34716000465E+01  0.98964977829E+01  0.51100000000E-03 0.  1.
        -12    1    3    3    0    0 -0.33064394475E+02 -0.71046518688E+01  0.17131478529E+02  0.37910655715E+02  0.00000000000E+00 0.  1.
</event>
<event>
 7    1  0.4400431E-015  0.9000781E+02  0.7816164E-02  0.1186339E+00
        -11   -1    0    0    0    0  0.00000000000E+00  0.00000000000E+00  0.45593999997E+02  0.45594000000E+02  0.51100000000E-03 0. -1.
         11   -1    0    0    0    0 -0.00000000000E+00 -0.00000000000E+00 -0.45593999997E+02  0.45594000000E+02  0.51100000000E-03 0.  1.
    9900012    2    1    2    0    0 -0.97939087509E+00 -0.29612699725E+00 -0.58817667881E+00  0.90007809553E+02  0.90000071839E+02 0.  0.
         12    1    1    2    0    0  0.97939087509E+00  0.29612699725E+00  0.58817667881E+00  0.11801904466E+01  0.00000000000E+00 0. -1.
         11    1    3    3    0    0 -0.37580615242E+02 -0.70307279163E+01 -0.38116411318E+01  0.38422160082E+02  0.51100000000E-03 0. -1.
        -11    1    3    3    0    0 -0.18739324238E+01 -0.91886473679E+01 -0.20904992154E+01  0.96079680688E+01  0.51100000000E-03 0.  1.
        -12    1    3    3    0    0  0.38475156791E+02  0.15923248287E+02  0.53139636685E+01  0.41977681403E+02  0.00000000000E+00 0.  1.
</event>
<event>
 7    1  0.4400431E-015  0.9000782E+02  0.7816164E-02  0.1186339E+00
        -11   -1    0    0    0    0  0.00000000000E+00  0.00000000000E+00  0.45593999997E+02  0.45594000000E+02  0.51100000000E-03 0. -1.
         11   -1    0    0    0    0 -0.00000000000E+00 -0.00000000000E+00 -0.45593999997E+02  0.45594000000E+02  0.51100000000E-03 0.  1.
    9900012    2    1    2    0    0  0.97860383984E+00  0.19076930126E+00  0.63148082755E+00  0.90007819320E+02  0.90000081735E+02 0.  0.
         12    1    1    2    0    0 -0.97860383984E+00 -0.19076930126E+00 -0.63148082755E+00  0.11801806799E+01  0.00000000000E+00 0. -1.
         11    1    3    3    0    0  0.53127612868E+01 -0.13789697123E+02  0.38083931906E+02  0.40850545270E+02  0.51100000000E-03 0. -1.
        -11    1    3    3    0    0 -0.17463494074E+00  0.98243531537E+01  0.13443228828E+01  0.99174400187E+01  0.51100000000E-03 0.  1.
        -12    1    3    3    0    0 -0.41595225062E+01  0.41561132706E+01 -0.38796773961E+02  0.39239834031E+02  0.00000000000E+00 0.  1.
</event>
<event>
 7    1  0.4400431E-015  0.9000777E+02  0.7816164E-02  0.1186339E+00
        -11   -1    0    0    0    0  0.00000000000E+00  0.00000000000E+00  0.45593999997E+02  0.45594000000E+02  0.51100000000E-03 0.  1.
         11   -1    0    0    0    0 -0.00000000000E+00 -0.00000000000E+00 -0.45593999997E+02  0.45594000000E+02  0.51100000000E-03 0. -1.
    9900012    2    1    2    0    0  0.75838756089E+00 -0.41472340445E+00  0.80361947289E+00  0.90007766357E+02  0.90000028073E+02 0.  0.
         12    1    1    2    0    0 -0.75838756089E+00  0.41472340445E+00 -0.80361947289E+00  0.11802336429E+01  0.00000000000E+00 0. -1.
         11    1    3    3    0    0  0.11455126445E+02 -0.32118862430E+02 -0.26621464974E+02  0.43261341210E+02  0.51100000000E-03 0. -1.
        -11    1    3    3    0    0 -0.11396768412E+02  0.19659134032E+02  0.84171059118E+01  0.24232530889E+02  0.51100000000E-03 0.  1.
        -12    1    3    3    0    0  0.70002952809E+00  0.12045004994E+02  0.19007978536E+02  0.22513894258E+02  0.00000000000E+00 0.  1.
</event>
<event>
 7    1  0.4400431E-015  0.9000770E+02  0.7816164E-02  0.1186339E+00
        -11   -1    0    0    0    0  0.00000000000E+00  0.00000000000E+00  0.45593999997E+02  0.45594000000E+02  0.51100000000E-03 0.  1.
         11   -1    0    0    0    0 -0.00000000000E+00 -0.00000000000E+00 -0.45593999997E+02  0.45594000000E+02  0.51100000000E-03 0. -1.
    9900012    2    1    2    0    0 -0.93822367871E+00 -0.62765272922E+00  0.34481079335E+00  0.90007700842E+02  0.89999961693E+02 0.  0.
         12    1    1    2    0    0  0.93822367871E+00  0.62765272922E+00 -0.34481079335E+00  0.11802991583E+01  0.00000000000E+00 0. -1.
         11    1    3    3    0    0 -0.25937555440E+02  0.74516295904E+01 -0.30373052020E+02  0.40630110202E+02  0.51100000000E-03 0. -1.
        -11    1    3    3    0    0 -0.18000809898E+01 -0.95846741019E+01  0.17902850594E+01  0.99152100363E+01  0.51100000000E-03 0.  1.
        -12    1    3    3    0    0  0.26799412751E+02  0.15053917823E+01  0.28927577754E+02  0.39462380604E+02  0.00000000000E+00 0.  1.
</event>
<event>
 7    1  0.4400431E-015  0.9000773E+02  0.7816164E-02  0.1186339E+00
        -11   -1    0    0    0    0  0.00000000000E+00  0.00000000000E+00  0.45593999997E+02  0.45594000000E+02  0.51100000000E-03 0.  1.
         11   -1    0    0    0    0 -0.00000000000E+00 -0.00000000000E+00 -0.45593999997E+02  0.45594000000E+02  0.51100000000E-03 0. -1.
    9900012    2    1    2    0    0  0.15802374687E+00 -0.92509761573E+00  0.71572914292E+00  0.90007726596E+02  0.89999987787E+02 0.  0.
         12    1    1    2    0    0 -0.15802374687E+00  0.92509761573E+00 -0.71572914292E+00  0.11802734044E+01  0.00000000000E+00 0. -1.
         11    1    3    3    0    0  0.33285403631E+02  0.98232473984E+01 -0.94348006930E+01  0.35964284348E+02  0.51100000000E-03 0. -1.
        -11    1    3    3    0    0  0.83796776584E+01 -0.29276539674E+01 -0.36660222549E+01  0.96036386253E+01  0.51100000000E-03 0.  1.
        -12    1    3    3    0    0 -0.41507057542E+02 -0.78206910468E+01  0.13816552091E+02  0.44439803622E+02  0.00000000000E+00 0.  1.
</event>
<event>
 7    1  0.4400431E-015  0.9000775E+02  0.7816164E-02  0.1186339E+00
        -11   -1    0    0    0    0  0.00000000000E+00  0.00000000000E+00  0.45593999997E+02  0.45594000000E+02  0.51100000000E-03 0.  1.
         11   -1    0    0    0    0 -0.00000000000E+00 -0.00000000000E+00 -0.45593999997E+02  0.45594000000E+02  0.51100000000E-03 0. -1.
    9900012    2    1    2    0    0  0.61547764400E+00  0.65121744394E+00  0.76816840225E+00  0.90007754439E+02  0.90000015998E+02 0.  0.
         12    1    1    2    0    0 -0.61547764400E+00 -0.65121744394E+00 -0.76816840225E+00  0.11802455608E+01  0.00000000000E+00 0. -1.
         11    1    3    3    0    0  0.19123840719E+02  0.31301787037E+02 -0.14651392219E+02  0.39499195559E+02  0.51100000000E-03 0. -1.
        -11    1    3    3    0    0  0.82670704290E+01 -0.30138869087E+01  0.66824485245E+01  0.11049121518E+02  0.51100000000E-03 0.  1.
        -12    1    3    3    0    0 -0.26775433504E+02 -0.27636682685E+02  0.87371120969E+01  0.39459437362E+02  0.00000000000E+00 0.  1.
</event>
<event>
 7    1  0.4400431E-015  0.9000773E+02  0.7816164E-02  0.1186339E+00
        -11   -1    0    0    0    0  0.00000000000E+00  0.00000000000E+00  0.45593999997E+02  0.45594000000E+02  0.51100000000E-03 0.  1.
         11   -1    0    0    0    0 -0.00000000000E+00 -0.00000000000E+00 -0.45593999997E+02  0.45594000000E+02  0.51100000000E-03 0. -1.
    9900012    2    1    2    0    0  0.27474142828E+00  0.39603141109E+00  0.10773655847E+01  0.90007728703E+02  0.89999989922E+02 0.  0.
         12    1    1    2    0    0 -0.27474142828E+00 -0.39603141109E+00 -0.10773655847E+01  0.11802712968E+01  0.00000000000E+00 0. -1.
         11    1    3    3    0    0 -0.50592211647E+01  0.37263289687E+02  0.19239245275E+01  0.37654348526E+02  0.51100000000E-03 0. -1.
        -11    1    3    3    0    0  0.84735724255E+00  0.31571403348E+01  0.10101135078E+02  0.10616895945E+02  0.51100000000E-03 0.  1.
        -12    1    3    3    0    0  0.44866053504E+01 -0.40024398610E+02 -0.10947694021E+02  0.41736484232E+02  0.00000000000E+00 0.  1.
</event>
<event>
 7    1  0.4400431E-015  0.9000713E+02  0.7816164E-02  0.1186340E+00
        -11   -1    0    0    0    0  0.00000000000E+00  0.00000000000E+00  0.45593999997E+02  0.45594000000E+02  0.51100000000E-03 0.  1.
         11   -1    0    0    0    0 -0.00000000000E+00 -0.00000000000E+00 -0.45593999997E+02  0.45594000000E+02  0.51100000000E-03 0. -1.
    9900012    2    1    2    0    0  0.38534643928E+00 -0.49268812453E+00  0.10016145434E+01  0.90007125256E+02  0.89999378508E+02 0.  0.
         12    1    1    2    0    0 -0.38534643928E+00  0.49268812453E+00 -0.10016145434E+01  0.11808747435E+01  0.00000000000E+00 0. -1.
         11    1    3    3    0    0 -0.14366176551E+02  0.94931095928E+01 -0.13276384078E+02  0.21743241085E+02  0.51100000000E-03 0. -1.
        -11    1    3    3    0    0 -0.24416114818E+02 -0.25913543896E+01  0.14280962744E+02  0.28404360185E+02  0.51100000000E-03 0.  1.
        -12    1    3    3    0    0  0.39167637809E+02 -0.73944433278E+01 -0.29641227434E-02  0.39859523986E+02  0.00000000000E+00 0.  1.
</event>
<event>
 7    1  0.4400431E-015  0.9000775E+02  0.7816164E-02  0.1186339E+00
        -11   -1    0    0    0    0  0.00000000000E+00  0.00000000000E+00  0.45593999997E+02  0.45594000000E+02  0.51100000000E-03 0.  1.
         11   -1    0    0    0    0 -0.00000000000E+00 -0.00000000000E+00 -0.45593999997E+02  0.45594000000E+02  0.51100000000E-03 0. -1.
    9900012    2    1    2    0    0 -0.93525372117E+00 -0.41547709735E+00  0.58794289837E+00  0.90007746810E+02  0.90000008268E+02 0.  0.
         12    1    1    2    0    0  0.93525372117E+00  0.41547709735E+00 -0.58794289837E+00  0.11802531903E+01  0.00000000000E+00 0. -1.
         11    1    3    3    0    0  0.13232257531E+01 -0.24676838451E+01  0.11509166551E+02  0.11844885179E+02  0.51100000000E-03 0. -1.
        -11    1    3    3    0    0 -0.20311629552E+01  0.10688329768E+02  0.32301877179E+02  0.34084854199E+02  0.51100000000E-03 0.  1.
         12    1    3    3    0    0 -0.22731651914E+00 -0.86361230205E+01 -0.43223100832E+02  0.44078007432E+02  0.00000000000E+00 0. -1.
</event>
<event>
 7    1  0.4400431E-015  0.9000757E+02  0.7816164E-02  0.1186339E+00
        -11   -1    0    0    0    0  0.00000000000E+00  0.00000000000E+00  0.45593999997E+02  0.45594000000E+02  0.51100000000E-03 0.  1.
         11   -1    0    0    0    0 -0.00000000000E+00 -0.00000000000E+00 -0.45593999997E+02  0.45594000000E+02  0.51100000000E-03 0. -1.
    9900012    2    1    2    0    0 -0.30846451057E+00 -0.98657867905E+00  0.57002474522E+00  0.90007569547E+02  0.89999828665E+02 0.  0.
         12    1    1    2    0    0  0.30846451057E+00  0.98657867905E+00 -0.57002474522E+00  0.11804304530E+01  0.00000000000E+00 0. -1.
         11    1    3    3    0    0  0.15059827666E+01 -0.99989535725E+01 -0.94993747641E+00  0.10156251184E+02  0.51100000000E-03 0. -1.
        -11    1    3    3    0    0  0.37203108400E+02 -0.50566192304E+01 -0.49607565795E+01  0.37871490316E+02  0.51100000000E-03 0.  1.
         12    1    3    3    0    0 -0.39017555677E+02  0.14068994124E+02  0.64807188011E+01  0.41979828047E+02  0.00000000000E+00 0. -1.
</event>
<event>
 7    1  0.4400431E-015  0.9000770E+02  0.7816164E-02  0.1186339E+00
        -11   -1    0    0    0    0  0.00000000000E+00  0.00000000000E+00  0.45593999997E+02  0.45594000000E+02  0.51100000000E-03 0. -1.
         11   -1    0    0    0    0 -0.00000000000E+00 -0.00000000000E+00 -0.45593999997E+02  0.45594000000E+02  0.51100000000E-03 0.  1.
    9900012    2    1    2    0    0  0.10799609375E+00 -0.54540280256E+00 -0.10411435091E+01  0.90007700386E+02  0.89999961231E+02 0.  0.
         12    1    1    2    0    0 -0.10799609375E+00  0.54540280256E+00  0.10411435091E+01  0.11802996145E+01  0.00000000000E+00 0. -1.
         11    1    3    3    0    0 -0.22609599269E+02 -0.31711860955E+02  0.61642745034E+01  0.39431388319E+02  0.51100000000E-03 0. -1.
        -11    1    3    3    0    0 -0.70021682342E+01  0.12737840803E-01 -0.84208030447E+00  0.70526322556E+01  0.51100000000E-03 0.  1.
        -12    1    3    3    0    0  0.29719763597E+02  0.31153720312E+02 -0.63633377081E+01  0.43523679811E+02  0.00000000000E+00 0.  1.
</event>
<event>
 7    1  0.4400431E-015  0.9000779E+02  0.7816164E-02  0.1186339E+00
        -11   -1    0    0    0    0  0.00000000000E+00  0.00000000000E+00  0.45593999997E+02  0.45594000000E+02  0.51100000000E-03 0. -1.
         11   -1    0    0    0    0 -0.00000000000E+00 -0.00000000000E+00 -0.45593999997E+02  0.45594000000E+02  0.51100000000E-03 0.  1.
    9900012    2    1    2    0    0 -0.86381338792E+00  0.13397015598E+00 -0.79295674272E+00  0.90007787321E+02  0.90000049314E+02 0.  0.
         12    1    1    2    0    0  0.86381338792E+00 -0.13397015598E+00  0.79295674272E+00  0.11802126790E+01  0.00000000000E+00 0. -1.
         11    1    3    3    0    0  0.98196688769E+01 -0.31524619882E+02 -0.13068548376E+02  0.35510766149E+02  0.51100000000E-03 0. -1.
        -11    1    3    3    0    0 -0.35710845731E+01 -0.10002086835E+02  0.53864941322E+00  0.10634121005E+02  0.51100000000E-03 0.  1.
        -12    1    3    3    0    0 -0.71123976917E+01  0.41660676873E+02  0.11736942220E+02  0.43862900168E+02  0.00000000000E+00 0.  1.
</event>
<event>
 7    1  0.4400431E-015  0.9000779E+02  0.7816164E-02  0.1186339E+00
        -11   -1    0    0    0    0  0.00000000000E+00  0.00000000000E+00  0.45593999997E+02  0.45594000000E+02  0.51100000000E-03 0.  1.
         11   -1    0    0    0    0 -0.00000000000E+00 -0.00000000000E+00 -0.45593999997E+02  0.45594000000E+02  0.51100000000E-03 0. -1.
    9900012    2    1    2    0    0 -0.14761078664E+00 -0.77235527404E-01  0.11683889556E+01  0.90007793653E+02  0.90000055729E+02 0.  0.
         12    1    1    2    0    0  0.14761078664E+00  0.77235527404E-01 -0.11683889556E+01  0.11802063474E+01  0.00000000000E+00 0. -1.
         11    1    3    3    0    0  0.65889008970E+01 -0.34985133824E+01  0.56597260645E+01  0.93640648386E+01  0.51100000000E-03 0. -1.
        -11    1    3    3    0    0  0.13713296375E+02  0.14427775744E+02  0.31824682470E+02  0.37536990089E+02  0.51100000000E-03 0.  1.
         12    1    3    3    0    0 -0.20449808059E+02 -0.11006497889E+02 -0.36316019579E+02  0.43106738725E+02  0.00000000000E+00 0. -1.
</event>
<event>
 7    1  0.4400431E-015  0.9000775E+02  0.7816164E-02  0.1186339E+00
        -11   -1    0    0    0    0  0.00000000000E+00  0.00000000000E+00  0.45593999997E+02  0.45594000000E+02  0.51100000000E-03 0.  1.
         11   -1    0    0    0    0 -0.00000000000E+00 -0.00000000000E+00 -0.45593999997E+02  0.45594000000E+02  0.51100000000E-03 0. -1.
    9900012    2    1    2    0    0  0.96873255102E+00  0.64891268345E+00 -0.18294761647E+00  0.90007745681E+02  0.90000007124E+02 0.  0.
         12    1    1    2    0    0 -0.96873255102E+00 -0.64891268345E+00  0.18294761647E+00  0.11802543186E+01  0.00000000000E+00 0. -1.
         11    1    3    3    0    0 -0.51963995515E+01 -0.31280566332E+02 -0.23797403642E+02  0.39645842389E+02  0.51100000000E-03 0. -1.
        -11    1    3    3    0    0 -0.54724051224E+01  0.10251102747E+02 -0.49768518058E+01  0.12641257038E+02  0.51100000000E-03 0.  1.
        -12    1    3    3    0    0  0.11637537225E+02  0.21678376269E+02  0.28591307832E+02  0.37720646254E+02  0.00000000000E+00 0.  1.
</event>
<event>
 7    1  0.4400431E-015  0.9000773E+02  0.7816164E-02  0.1186339E+00
        -11   -1    0    0    0    0  0.00000000000E+00  0.00000000000E+00  0.45593999997E+02  0.45594000000E+02  0.51100000000E-03 0.  1.
         11   -1    0    0    0    0 -0.00000000000E+00 -0.00000000000E+00 -0.45593999997E+02  0.45594000000E+02  0.51100000000E-03 0. -1.
    9900012    2    1    2    0    0  0.82381966833E+00 -0.18858797254E+00 -0.82388768931E+00  0.90007730881E+02  0.89999992128E+02 0.  0.
         12    1    1    2    0    0 -0.82381966833E+00  0.18858797254E+00  0.82388768931E+00  0.11802691193E+01  0.00000000000E+00 0. -1.
         11    1    3    3    0    0 -0.10912713295E+02 -0.15443980854E+02 -0.34654530121E+02  0.39478352477E+02  0.51100000000E-03 0. -1.
        -11    1    3    3    0    0 -0.21475606607E+01  0.70561567989E+01 -0.47102471532E+01  0.87514452559E+01  0.51100000000E-03 0.  1.
        -12    1    3    3    0    0  0.13884093624E+02  0.81992360830E+01  0.38540889585E+02  0.41777933148E+02  0.00000000000E+00 0.  1.
</event>
<event>
 7    1  0.4400431E-015  0.9000785E+02  0.7816164E-02  0.1186339E+00
        -11   -1    0    0    0    0  0.00000000000E+00  0.00000000000E+00  0.45593999997E+02  0.45594000000E+02  0.51100000000E-03 0.  1.
         11   -1    0    0    0    0 -0.00000000000E+00 -0.00000000000E+00 -0.45593999997E+02  0.45594000000E+02  0.51100000000E-03 0. -1.
    9900012    2    1    2    0    0 -0.10599026020E+01 -0.48075589435E+00  0.19551031749E+00  0.90007854229E+02  0.90000117105E+02 0.  0.
         12    1    1    2    0    0  0.10599026020E+01  0.48075589435E+00 -0.19551031749E+00  0.11801457706E+01  0.00000000000E+00 0. -1.
         11    1    3    3    0    0  0.14696883872E+02  0.35063244062E+02 -0.26556170288E+01  0.38111438988E+02  0.51100000000E-03 0. -1.
        -11    1    3    3    0    0 -0.71413556789E+01  0.46035956089E+01  0.64643672475E+01  0.10676146198E+02  0.51100000000E-03 0.  1.
        -12    1    3    3    0    0 -0.86154307955E+01 -0.40147595565E+02 -0.36132399011E+01  0.41220269043E+02  0.00000000000E+00 0.  1.
</event>
<event>
 7    1  0.4400431E-015  0.9000817E+02  0.7816164E-02  0.1186338E+00
        -11   -1    0    0    0    0  0.00000000000E+00  0.00000000000E+00  0.45593999997E+02  0.45594000000E+02  0.51100000000E-03 0.  1.
         11   -1    0    0    0    0 -0.00000000000E+00 -0.00000000000E+00 -0.45593999997E+02  0.45594000000E+02  0.51100000000E-03 0. -1.
    9900012    2    1    2    0    0  0.56948531113E+00  0.10331403578E+01 -0.17678910469E-01  0.90008167358E+02  0.90000434366E+02 0.  0.
         12    1    1    2    0    0 -0.56948531113E+00 -0.10331403578E+01  0.17678910469E-01  0.11798326417E+01  0.00000000000E+00 0. -1.
         11    1    3    3    0    0  0.30629681377E+02 -0.20196965047E+02 -0.14914019256E+02  0.39604579899E+02  0.51100000000E-03 0. -1.
        -11    1    3    3    0    0 -0.33144105081E+01  0.92109789096E+01 -0.84425888865E+01  0.12926900512E+02  0.51100000000E-03 0.  1.
        -12    1    3    3    0    0 -0.26745785558E+02  0.12019126495E+02  0.23338929232E+02  0.37476686947E+02  0.00000000000E+00 0.  1.
</event>
<event>
 7    1  0.4400431E-015  0.9000781E+02  0.7816164E-02  0.1186339E+00
        -11   -1    0    0    0    0  0.00000000000E+00  0.00000000000E+00  0.45593999997E+02  0.45594000000E+02  0.51100000000E-03 0.  1.
         11   -1    0    0    0    0 -0.00000000000E+00 -0.00000000000E+00 -0.45593999997E+02  0.45594000000E+02  0.51100000000E-03 0. -1.
    9900012    2    1    2    0    0 -0.11049349309E+01 -0.53737775297E-01  0.41118038182E+00  0.90007814313E+02  0.90000076662E+02 0.  0.
         12    1    1    2    0    0  0.11049349309E+01  0.53737775297E-01 -0.41118038182E+00  0.11801856872E+01  0.00000000000E+00 0. -1.
         11    1    3    3    0    0  0.87494539065E+00  0.44995994961E+00 -0.38858236279E+02  0.38870689734E+02  0.51100000000E-03 0. -1.
        -11    1    3    3    0    0  0.46619002400E+01 -0.78832210815E+01 -0.14075568196E+01  0.92660512048E+01  0.51100000000E-03 0.  1.
        -12    1    3    3    0    0 -0.66417805615E+01  0.73795233566E+01  0.40676973480E+02  0.41871073374E+02  0.00000000000E+00 0.  1.
</event>
<event>
 7    1  0.4400431E-015  0.9000812E+02  0.7816164E-02  0.1186338E+00
        -11   -1    0    0    0    0  0.00000000000E+00  0.00000000000E+00  0.45593999997E+02  0.45594000000E+02  0.51100000000E-03 0. -1.
         11   -1    0    0    0    0 -0.00000000000E+00 -0.00000000000E+00 -0.45593999997E+02  0.45594000000E+02  0.51100000000E-03 0.  1.
    9900012    2    1    2    0    0 -0.83592447271E+00  0.82476135473E+00 -0.11453892157E+00  0.90008118573E+02  0.90000384938E+02 0.  0.
         12    1    1    2    0    0  0.83592447271E+00 -0.82476135473E+00  0.11453892157E+00  0.11798814266E+01  0.00000000000E+00 0. -1.
         11    1    3    3    0    0  0.87126775157E+01 -0.39396468311E+01  0.99602971110E+01  0.13807211357E+02  0.51100000000E-03 0. -1.
        -11    1    3    3    0    0 -0.32893923458E+02 -0.17640570246E+02 -0.20012456244E+02  0.42352075796E+02  0.51100000000E-03 0.  1.
         12    1    3    3    0    0  0.23345321470E+02  0.22404978432E+02  0.99376202115E+01  0.33848831420E+02  0.00000000000E+00 0. -1.
</event>
<event>
 7    1  0.4400431E-015  0.9000773E+02  0.7816164E-02  0.1186339E+00
        -11   -1    0    0    0    0  0.00000000000E+00  0.00000000000E+00  0.45593999997E+02  0.45594000000E+02  0.51100000000E-03 0. -1.
         11   -1    0    0    0    0 -0.00000000000E+00 -0.00000000000E+00 -0.45593999997E+02  0.45594000000E+02  0.51100000000E-03 0.  1.
    9900012    2    1    2    0    0  0.10381041386E+00  0.56464531997E+00  0.10312257799E+01  0.90007734120E+02  0.89999995410E+02 0.  0.
         12    1    1    2    0    0 -0.10381041386E+00 -0.56464531997E+00 -0.10312257799E+01  0.11802658804E+01  0.00000000000E+00 0. -1.
         11    1    3    3    0    0 -0.31565973009E+02 -0.99534822321E+01  0.15082584194E+02  0.36372610668E+02  0.51100000000E-03 0. -1.
        -11    1    3    3    0    0 -0.67543509029E+01 -0.64516595029E+01  0.65439300758E-02  0.93405144154E+01  0.51100000000E-03 0.  1.
        -12    1    3    3    0    0  0.38424134326E+02  0.16969787055E+02 -0.14057902344E+02  0.44294609037E+02  0.00000000000E+00 0.  1.
</event>
<event>
 7    1  0.4400431E-015  0.9000772E+02  0.7816164E-02  0.1186339E+00
        -11   -1    0    0    0    0  0.00000000000E+00  0.00000000000E+00  0.45593999997E+02  0.45594000000E+02  0.51100000000E-03 0. -1.
         11   -1    0    0    0    0 -0.00000000000E+00 -0.00000000000E+00 -0.45593999997E+02  0.45594000000E+02  0.51100000000E-03 0.  1.
    9900012    2    1    2    0    0 -0.18030765024E-02 -0.87948639136E+00 -0.78711725514E+00  0.90007723279E+02  0.89999984427E+02 0.  0.
         12    1    1    2    0    0  0.18030765024E-02  0.87948639136E+00  0.78711725514E+00  0.11802767205E+01  0.00000000000E+00 0. -1.
         11    1    3    3    0    0  0.75387275598E+01 -0.33691552099E+02  0.25639466239E+02  0.43003898955E+02  0.51100000000E-03 0. -1.
        -11    1    3    3    0    0 -0.49927969248E+01  0.68631250293E+00 -0.91306586671E+01  0.10429188556E+02  0.51100000000E-03 0.  1.
        -12    1    3    3    0    0 -0.25477337115E+01  0.32125753204E+02 -0.17295924827E+02  0.36574635769E+02  0.00000000000E+00 0.  1.
</event>
<event>
 7    1  0.4400431E-015  0.9000773E+02  0.7816164E-02  0.1186339E+00
        -11   -1    0    0    0    0  0.00000000000E+00  0.00000000000E+00  0.45593999997E+02  0.45594000000E+02  0.51100000000E-03 0. -1.
         11   -1    0    0    0    0 -0.00000000000E+00 -0.00000000000E+00 -0.45593999997E+02  0.45594000000E+02  0.51100000000E-03 0.  1.
    9900012    2    1    2    0    0  0.40170484044E+00  0.54541163558E+00 -0.96654294762E+00  0.90007726345E+02  0.89999987533E+02 0.  0.
         12    1    1    2    0    0 -0.40170484044E+00 -0.54541163558E+00  0.96654294762E+00  0.11802736550E+01  0.00000000000E+00 0. -1.
         11    1    3    3    0    0 -0.10502422016E+01  0.44202782554E+01  0.93253232165E+01  0.10373211744E+02  0.51100000000E-03 0. -1.
        -11    1    3    3    0    0  0.14193563515E+02  0.30069334428E+02  0.13908991861E+02  0.36042782538E+02  0.51100000000E-03 0.  1.
         12    1    3    3    0    0 -0.12741616473E+02 -0.33944201048E+02 -0.24200858025E+02  0.43591732063E+02  0.00000000000E+00 0. -1.
</event>
<event>
 7    1  0.4400431E-015  0.9000766E+02  0.7816164E-02  0.1186339E+00
        -11   -1    0    0    0    0  0.00000000000E+00  0.00000000000E+00  0.45593999997E+02  0.45594000000E+02  0.51100000000E-03 0. -1.
         11   -1    0    0    0    0 -0.00000000000E+00 -0.00000000000E+00 -0.45593999997E+02  0.45594000000E+02  0.51100000000E-03 0.  1.
    9900012    2    1    2    0    0  0.27304614259E+00 -0.11305956586E+01 -0.20099863329E+00  0.90007660562E+02  0.89999920881E+02 0.  0.
         12    1    1    2    0    0 -0.27304614259E+00  0.11305956586E+01  0.20099863329E+00  0.11803394384E+01  0.00000000000E+00 0. -1.
         11    1    3    3    0    0  0.39914904162E+01  0.19577362390E+00  0.59461773899E+01  0.71643107741E+01  0.51100000000E-03 0. -1.
        -11    1    3    3    0    0  0.24875013941E+02 -0.28098305908E+02  0.12374489500E+02  0.39514669480E+02  0.51100000000E-03 0.  1.
         12    1    3    3    0    0 -0.28593458215E+02  0.26771936626E+02 -0.18521665523E+02  0.43328680307E+02  0.00000000000E+00 0. -1.
</event>
<event>
 7    1  0.4400431E-015  0.9000774E+02  0.7816164E-02  0.1186339E+00
        -11   -1    0    0    0    0  0.00000000000E+00  0.00000000000E+00  0.45593999997E+02  0.45594000000E+02  0.51100000000E-03 0. -1.
         11   -1    0    0    0    0 -0.00000000000E+00 -0.00000000000E+00 -0.45593999997E+02  0.45594000000E+02  0.51100000000E-03 0.  1.
    9900012    2    1    2    0    0  0.11054585761E+00  0.10624639199E+01 -0.50194819032E+00  0.90007744963E+02  0.90000006396E+02 0.  0.
         12    1    1    2    0    0 -0.11054585761E+00 -0.10624639199E+01  0.50194819032E+00  0.11802550374E+01  0.00000000000E+00 0. -1.
         11    1    3    3    0    0  0.69209980499E+01 -0.33285175776E+00 -0.62753085244E+01  0.93482887010E+01  0.51100000000E-03 0. -1.
        -11    1    3    3    0    0 -0.43329440424E+02  0.51688005486E+01  0.11072018045E+01  0.43650690747E+02  0.51100000000E-03 0.  1.
         12    1    3    3    0    0  0.36518988231E+02 -0.37734848710E+01  0.46661585297E+01  0.37008765515E+02  0.00000000000E+00 0. -1.
</event>
<event>
 7    1  0.4400431E-015  0.9000776E+02  0.7816164E-02  0.1186339E+00
        -11   -1    0    0    0    0  0.00000000000E+00  0.00000000000E+00  0.45593999997E+02  0.45594000000E+02  0.51100000000E-03 0. -1.
         11   -1    0    0    0    0 -0.00000000000E+00 -0.00000000000E+00 -0.45593999997E+02  0.45594000000E+02  0.51100000000E-03 0.  1.
    9900012    2    1    2    0    0 -0.50102680048E+00 -0.70820115574E+00 -0.80024983154E+00  0.90007755735E+02  0.90000017311E+02 0.  0.
         12    1    1    2    0    0  0.50102680048E+00  0.70820115574E+00  0.80024983154E+00  0.11802442648E+01  0.00000000000E+00 0. -1.
         11    1    3    3    0    0  0.29364190559E+01  0.18345475826E+02  0.35496887586E+02  0.40065047968E+02  0.51100000000E-03 0. -1.
        -11    1    3    3    0    0 -0.47887816992E+01  0.64475927685E+01 -0.46616158063E+01  0.92862556963E+01  0.51100000000E-03 0.  1.
        -12    1    3    3    0    0  0.13513358428E+01 -0.25501269750E+02 -0.31635521611E+02  0.40656452071E+02  0.00000000000E+00 0.  1.
</event>
<event>
 7    1  0.4400431E-015  0.9000770E+02  0.7816164E-02  0.1186339E+00
        -11   -1    0    0    0    0  0.00000000000E+00  0.00000000000E+00  0.45593999997E+02  0.45594000000E+02  0.51100000000E-03 0.  1.
         11   -1    0    0    0    0 -0.00000000000E+00 -0.00000000000E+00 -0.45593999997E+02  0.45594000000E+02  0.51100000000E-03 0. -1.
    9900012    2    1    2    0    0 -0.96053131889E+00  0.66810306077E+00  0.15531056285E+00  0.90007701951E+02  0.89999962816E+02 0.  0.
         12    1    1    2    0    0  0.96053131889E+00 -0.66810306077E+00 -0.15531056285E+00  0.11802980494E+01  0.00000000000E+00 0. -1.
         11    1    3    3    0    0  0.30753337255E+01  0.18380956995E+02 -0.33069936344E+02  0.37959688456E+02  0.51100000000E-03 0. -1.
        -11    1    3    3    0    0  0.90790085509E+01  0.49149567656E+01  0.75062070928E+00  0.10351262145E+02  0.51100000000E-03 0.  1.
        -12    1    3    3    0    0 -0.13114873595E+02 -0.22627810700E+02  0.32474626198E+02  0.41696751350E+02  0.00000000000E+00 0.  1.
</event>
<event>
 7    1  0.4400431E-015  0.9000749E+02  0.7816164E-02  0.1186340E+00
        -11   -1    0    0    0    0  0.00000000000E+00  0.00000000000E+00  0.45593999997E+02  0.45594000000E+02  0.51100000000E-03 0. -1.
         11   -1    0    0    0    0 -0.00000000000E+00 -0.00000000000E+00 -0.45593999997E+02  0.45594000000E+02  0.51100000000E-03 0.  1.
    9900012    2    1    2    0    0 -0.97494617076E+00  0.60360626822E+00 -0.28062920738E+00  0.90007485995E+02  0.89999744010E+02 0.  0.
         12    1    1    2    0    0  0.97494617076E+00 -0.60360626822E+00  0.28062920738E+00  0.11805140046E+01  0.00000000000E+00 0. -1.
         11    1    3    3    0    0  0.17281220723E+01  0.80113358487E+01 -0.53705179583E+01  0.97984882191E+01  0.51100000000E-03 0. -1.
        -11    1    3    3    0    0  0.92223138977E+01 -0.17232229302E+01 -0.35919334738E+02  0.37124374461E+02  0.51100000000E-03 0.  1.
         12    1    3    3    0    0 -0.11925382141E+02 -0.56845066502E+01  0.41009223489E+02  0.43084623315E+02  0.00000000000E+00 0. -1.
</event>
<event>
 7    1  0.4400431E-015  0.9000779E+02  0.7816164E-02  0.1186339E+00
        -11   -1    0    0    0    0  0.00000000000E+00  0.00000000000E+00  0.45593999997E+02  0.45594000000E+02  0.51100000000E-03 0. -1.
         11   -1    0    0    0    0 -0.00000000000E+00 -0.00000000000E+00 -0.45593999997E+02  0.45594000000E+02  0.51100000000E-03 0.  1.
    9900012    2    1    2    0    0 -0.84799782899E+00  0.42109614628E+00 -0.70460713252E+00  0.90007790911E+02  0.90000052951E+02 0.  0.
         12    1    1    2    0    0  0.84799782899E+00 -0.42109614628E+00  0.70460713252E+00  0.11802090889E+01  0.00000000000E+00 0. -1.
         11    1    3    3    0    0  0.98055252307E+01 -0.27646587460E+02  0.20851760883E+02  0.35989971595E+02  0.51100000000E-03 0. -1.
        -11    1    3    3    0    0 -0.41549494771E+01 -0.49530699426E+01  0.72534961423E+01  0.97164661045E+01  0.51100000000E-03 0.  1.
        -12    1    3    3    0    0 -0.64985735826E+01  0.33020753549E+02 -0.28809864158E+02  0.44301353211E+02  0.00000000000E+00 0.  1.
</event>
<event>
 7    1  0.4400431E-015  0.9000772E+02  0.7816164E-02  0.1186339E+00
        -11   -1    0    0    0    0  0.00000000000E+00  0.00000000000E+00  0.45593999997E+02  0.45594000000E+02  0.51100000000E-03 0.  1.
         11   -1    0    0    0    0 -0.00000000000E+00 -0.00000000000E+00 -0.45593999997E+02  0.45594000000E+02  0.51100000000E-03 0. -1.
    9900012    2    1    2    0    0 -0.89526600164E+00 -0.58775645760E+00  0.49608604882E+00  0.90007720273E+02  0.89999981380E+02 0.  0.
         12    1    1    2    0    0  0.89526600164E+00  0.58775645760E+00 -0.49608604882E+00  0.11802797274E+01  0.00000000000E+00 0. -1.
         11    1    3    3    0    0 -0.91857811015E+01 -0.19711124717E+02 -0.34937836240E+02  0.41152878556E+02  0.51100000000E-03 0. -1.
        -11    1    3    3    0    0 -0.14942662923E+01  0.82153229581E+01 -0.20588691538E+01  0.86001921788E+01  0.51100000000E-03 0.  1.
        -12    1    3    3    0    0  0.97847813922E+01  0.10908045302E+02  0.37492791443E+02  0.40254649537E+02  0.00000000000E+00 0.  1.
</event>
<event>
 7    1  0.4400431E-015  0.9000701E+02  0.7816164E-02  0.1186341E+00
        -11   -1    0    0    0    0  0.00000000000E+00  0.00000000000E+00  0.45593999997E+02  0.45594000000E+02  0.51100000000E-03 0. -1.
         11   -1    0    0    0    0 -0.00000000000E+00 -0.00000000000E+00 -0.45593999997E+02  0.45594000000E+02  0.51100000000E-03 0.  1.
    9900012    2    1    2    0    0  0.34412294582E+00  0.99574931309E+00 -0.53366439610E+00  0.90007011014E+02  0.89999262757E+02 0.  0.
         12    1    1    2    0    0 -0.34412294582E+00 -0.99574931309E+00  0.53366439610E+00  0.11809889856E+01  0.00000000000E+00 0. -1.
         11    1    3    3    0    0 -0.33488129910E+01  0.33277408556E+02  0.16442645573E+02  0.37268767921E+02  0.51100000000E-03 0. -1.
        -11    1    3    3    0    0 -0.90284138599E+00  0.86083790005E+01 -0.15453109855E+01  0.87924568744E+01  0.51100000000E-03 0.  1.
        -12    1    3    3    0    0  0.45957773228E+01 -0.40890038243E+02 -0.15430998984E+02  0.43945786219E+02  0.00000000000E+00 0.  1.
</event>
<event>
 7    1  0.4400431E-015  0.9000775E+02  0.7816164E-02  0.1186339E+00
        -11   -1    0    0    0    0  0.00000000000E+00  0.00000000000E+00  0.45593999997E+02  0.45594000000E+02  0.51100000000E-03 0.  1.
         11   -1    0    0    0    0 -0.00000000000E+00 -0.00000000000E+00 -0.45593999997E+02  0.45594000000E+02  0.51100000000E-03 0. -1.
    9900012    2    1    2    0    0  0.52171426228E+00  0.34543633622E+00  0.10007406920E+01  0.90007748346E+02  0.90000009824E+02 0.  0.
         12    1    1    2    0    0 -0.52171426228E+00 -0.34543633622E+00 -0.10007406920E+01  0.11802516539E+01  0.00000000000E+00 0. -1.
         11    1    3    3    0    0  0.14510059458E+01 -0.66917342084E+01 -0.37463953970E+02  0.38084545058E+02  0.51100000000E-03 0. -1.
        -11    1    3    3    0    0  0.84543580940E+01  0.17984673371E+01 -0.29529034868E+01  0.91340185465E+01  0.51100000000E-03 0.  1.
        -12    1    3    3    0    0 -0.93836497775E+01  0.52387032075E+01  0.41417598149E+02  0.42789184741E+02  0.00000000000E+00 0.  1.
</event>
<event>
 7    1  0.4400431E-015  0.9000774E+02  0.7816164E-02  0.1186339E+00
        -11   -1    0    0    0    0  0.00000000000E+00  0.00000000000E+00  0.45593999997E+02  0.45594000000E+02  0.51100000000E-03 0. -1.
         11   -1    0    0    0    0 -0.00000000000E+00 -0.00000000000E+00 -0.45593999997E+02  0.45594000000E+02  0.51100000000E-03 0.  1.
    9900012    2    1    2    0    0  0.21991756820E+00  0.14005678599E+00 -0.11511018611E+01  0.90007739378E+02  0.90000000738E+02 0.  0.
         12    1    1    2    0    0 -0.21991756820E+00 -0.14005678599E+00  0.11511018611E+01  0.11802606215E+01  0.00000000000E+00 0. -1.
         11    1    3    3    0    0 -0.36596220352E+02  0.80506469248E+01  0.66799966506E+01  0.38062036407E+02  0.51100000000E-03 0. -1.
        -11    1    3    3    0    0 -0.62880081534E+01 -0.44758066759E+00 -0.51114403365E+01  0.81157992561E+01  0.51100000000E-03 0.  1.
        -12    1    3    3    0    0  0.43104146073E+02 -0.74630094713E+01 -0.27196581752E+01  0.43829903715E+02  0.00000000000E+00 0.  1.
</event>
<event>
 7    1  0.4400431E-015  0.9000775E+02  0.7816164E-02  0.1186339E+00
        -11   -1    0    0    0    0  0.00000000000E+00  0.00000000000E+00  0.45593999997E+02  0.45594000000E+02  0.51100000000E-03 0. -1.
         11   -1    0    0    0    0 -0.00000000000E+00 -0.00000000000E+00 -0.45593999997E+02  0.45594000000E+02  0.51100000000E-03 0.  1.
    9900012    2    1    2    0    0 -0.25597779589E+00  0.11500961914E+01  0.68793141917E-01  0.90007754950E+02  0.90000016515E+02 0.  0.
         12    1    1    2    0    0  0.25597779589E+00 -0.11500961914E+01 -0.68793141917E-01  0.11802450499E+01  0.00000000000E+00 0. -1.
         11    1    3    3    0    0 -0.13854136590E+02 -0.36981612673E+02 -0.11915441508E+02  0.41249903311E+02  0.51100000000E-03 0. -1.
        -11    1    3    3    0    0  0.82457158118E-02  0.63608451049E+01 -0.68954666366E+01  0.93812514537E+01  0.51100000000E-03 0.  1.
        -12    1    3    3    0    0  0.13589913078E+02  0.31770863760E+02  0.18879701286E+02  0.39376600186E+02  0.00000000000E+00 0.  1.
</event>
<event>
 7    1  0.4400431E-015  0.9000773E+02  0.7816164E-02  0.1186339E+00
        -11   -1    0    0    0    0  0.00000000000E+00  0.00000000000E+00  0.45593999997E+02  0.45594000000E+02  0.51100000000E-03 0. -1.
         11   -1    0    0    0    0 -0.00000000000E+00 -0.00000000000E+00 -0.45593999997E+02  0.45594000000E+02  0.51100000000E-03 0.  1.
    9900012    2    1    2    0    0 -0.43081283243E+00  0.10247854002E+01 -0.39654257646E+00  0.90007732730E+02  0.89999994002E+02 0.  0.
         12    1    1    2    0    0  0.43081283243E+00 -0.10247854002E+01  0.39654257646E+00  0.11802672697E+01  0.00000000000E+00 0. -1.
         11    1    3    3    0    0 -0.56690897115E+01  0.83429537573E+01 -0.26580411366E+01  0.10431137929E+02  0.51100000000E-03 0. -1.
        -11    1    3    3    0    0  0.65657134445E+00  0.52425021824E+01 -0.37374594579E+02  0.37746194978E+02  0.51100000000E-03 0.  1.
         12    1    3    3    0    0  0.45817055346E+01 -0.12560670540E+02  0.39636093140E+02  0.41830399823E+02  0.00000000000E+00 0. -1.
</event>
<event>
 7    1  0.8950840E-015  0.9000770E+02  0.7816164E-02  0.1186339E+00
        -11   -1    0    0    0    0  0.00000000000E+00  0.00000000000E+00  0.45593999997E+02  0.45594000000E+02  0.51100000000E-03 0. -1.
         11   -1    0    0    0    0 -0.00000000000E+00 -0.00000000000E+00 -0.45593999997E+02  0.45594000000E+02  0.51100000000E-03 0.  1.
    9900012    2    1    2    0    0  0.58008183249E+00 -0.45813337039E-01 -0.10269006184E+01  0.90007695516E+02  0.89999956297E+02 0.  0.
         12    1    1    2    0    0 -0.58008183249E+00  0.45813337039E-01  0.10269006184E+01  0.11803044837E+01  0.00000000000E+00 0. -1.
         11    1    3    3    0    0  0.33153704427E+02  0.90282522159E+01  0.15935154478E+02  0.37876201022E+02  0.51100000000E-03 0. -1.
        -11    1    3    3    0    0  0.66742869236E+01  0.36979617393E+01 -0.51328484149E+01  0.91960404564E+01  0.51100000000E-03 0.  1.
        -12    1    3    3    0    0 -0.39247909519E+02 -0.12772027292E+02 -0.11829206682E+02  0.42935454038E+02  0.00000000000E+00 0.  1.
</event>
<event>
 7    1  0.4400431E-015  0.9000771E+02  0.7816164E-02  0.1186339E+00
        -11   -1    0    0    0    0  0.00000000000E+00  0.00000000000E+00  0.45593999997E+02  0.45594000000E+02  0.51100000000E-03 0. -1.
         11   -1    0    0    0    0 -0.00000000000E+00 -0.00000000000E+00 -0.45593999997E+02  0.45594000000E+02  0.51100000000E-03 0.  1.
    9900012    2    1    2    0    0 -0.79058929181E+00 -0.58696632733E+00 -0.65079017868E+00  0.90007708191E+02  0.89999969139E+02 0.  0.
         12    1    1    2    0    0  0.79058929181E+00  0.58696632733E+00  0.65079017868E+00  0.11802918090E+01  0.00000000000E+00 0. -1.
         11    1    3    3    0    0 -0.30074693782E+02 -0.21805750682E+02 -0.11167774054E+02  0.38790425964E+02  0.51100000000E-03 0. -1.
        -11    1    3    3    0    0 -0.56272606732E+01  0.30998066142E+01 -0.57796273938E+01  0.86416987220E+01  0.51100000000E-03 0.  1.
        -12    1    3    3    0    0  0.34911365164E+02  0.18118977740E+02  0.16296611269E+02  0.42575583505E+02  0.00000000000E+00 0.  1.
</event>
<event>
 7    1  0.4400431E-015  0.9000773E+02  0.7816164E-02  0.1186339E+00
        -11   -1    0    0    0    0  0.00000000000E+00  0.00000000000E+00  0.45593999997E+02  0.45594000000E+02  0.51100000000E-03 0.  1.
         11   -1    0    0    0    0 -0.00000000000E+00 -0.00000000000E+00 -0.45593999997E+02  0.45594000000E+02  0.51100000000E-03 0. -1.
    9900012    2    1    2    0    0 -0.57765581369E+00  0.46000475806E+00  0.92072967544E+00  0.90007731492E+02  0.89999992747E+02 0.  0.
         12    1    1    2    0    0  0.57765581369E+00 -0.46000475806E+00 -0.92072967544E+00  0.11802685083E+01  0.00000000000E+00 0. -1.
         11    1    3    3    0    0  0.28130035892E+02  0.14432471435E+02  0.30076297911E+02  0.43636897774E+02  0.51100000000E-03 0. -1.
        -11    1    3    3    0    0 -0.40517428868E+00  0.28062467860E+01 -0.42337932522E+01  0.50955071182E+01  0.51100000000E-03 0.  1.
        -12    1    3    3    0    0 -0.28302517417E+02 -0.16778713463E+02 -0.24921774984E+02  0.41275326600E+02  0.00000000000E+00 0.  1.
</event>
<event>
 7    1  0.4400431E-015  0.9000780E+02  0.7816164E-02  0.1186339E+00
        -11   -1    0    0    0    0  0.00000000000E+00  0.00000000000E+00  0.45593999997E+02  0.45594000000E+02  0.51100000000E-03 0.  1.
         11   -1    0    0    0    0 -0.00000000000E+00 -0.00000000000E+00 -0.45593999997E+02  0.45594000000E+02  0.51100000000E-03 0. -1.
    9900012    2    1    2    0    0  0.96936685932E+00  0.63888619985E+00  0.21217005919E+00  0.90007803483E+02  0.90000065689E+02 0.  0.
         12    1    1    2    0    0 -0.96936685932E+00 -0.63888619985E+00 -0.21217005919E+00  0.11801965168E+01  0.00000000000E+00 0. -1.
         11    1    3    3    0    0  0.30102967326E+02  0.22845976484E+02  0.15502876273E+02  0.40846865930E+02  0.51100000000E-03 0. -1.
        -11    1    3    3    0    0  0.46198192691E+01 -0.82426655572E+01  0.27881718447E+00  0.94531478805E+01  0.51100000000E-03 0.  1.
        -12    1    3    3    0    0 -0.33753419735E+02 -0.13964424727E+02 -0.15569523399E+02  0.39707789672E+02  0.00000000000E+00 0.  1.
</event>
<event>
 7    1  0.4400431E-015  0.9000781E+02  0.7816164E-02  0.1186339E+00
        -11   -1    0    0    0    0  0.00000000000E+00  0.00000000000E+00  0.45593999997E+02  0.45594000000E+02  0.51100000000E-03 0.  1.
         11   -1    0    0    0    0 -0.00000000000E+00 -0.00000000000E+00 -0.45593999997E+02  0.45594000000E+02  0.51100000000E-03 0. -1.
    9900012    2    1    2    0    0  0.51676000606E+00  0.72253736958E-01  0.10585730945E+01  0.90007814208E+02  0.90000076556E+02 0.  0.
         12    1    1    2    0    0 -0.51676000606E+00 -0.72253736958E-01 -0.10585730945E+01  0.11801857917E+01  0.00000000000E+00 0. -1.
         11    1    3    3    0    0 -0.74317386631E+00  0.12793849805E+01  0.92683092820E+01  0.93856640965E+01  0.51100000000E-03 0. -1.
        -11    1    3    3    0    0 -0.72829334223E+01 -0.32580585170E+01  0.35322424695E+02  0.36212287295E+02  0.51100000000E-03 0.  1.
         12    1    3    3    0    0  0.85428672947E+01  0.20509272735E+01 -0.43532160883E+02  0.44409862817E+02  0.00000000000E+00 0. -1.
</event>
<event>
 7    1  0.4400431E-015  0.9000773E+02  0.7816164E-02  0.1186339E+00
        -11   -1    0    0    0    0  0.00000000000E+00  0.00000000000E+00  0.45593999997E+02  0.45594000000E+02  0.51100000000E-03 0.  1.
         11   -1    0    0    0    0 -0.00000000000E+00 -0.00000000000E+00 -0.45593999997E+02  0.45594000000E+02  0.51100000000E-03 0. -1.
    9900012    2    1    2    0    0  0.16357448406E+00  0.76363836408E+00  0.88494452780E+00  0.90007734360E+02  0.89999995654E+02 0.  0.
         12    1    1    2    0    0 -0.16357448406E+00 -0.76363836408E+00 -0.88494452780E+00  0.11802656397E+01  0.00000000000E+00 0. -1.
         11    1    3    3    0    0 -0.75689391739E+01  0.47242762362E+01 -0.60733816475E+00  0.89429573454E+01  0.51100000000E-03 0. -1.
        -11    1    3    3    0    0  0.12069093557E+02 -0.20128225813E+02  0.35848501668E+02  0.42847678651E+02  0.51100000000E-03 0.  1.
         12    1    3    3    0    0 -0.43365798988E+01  0.16167587941E+02 -0.34356218976E+02  0.38217098364E+02  0.00000000000E+00 0. -1.
</event>
<event>
 7    1  0.4400431E-015  0.9000772E+02  0.7816164E-02  0.1186339E+00
        -11   -1    0    0    0    0  0.00000000000E+00  0.00000000000E+00  0.45593999997E+02  0.45594000000E+02  0.51100000000E-03 0.  1.
         11   -1    0    0    0    0 -0.00000000000E+00 -0.00000000000E+00 -0.45593999997E+02  0.45594000000E+02  0.51100000000E-03 0. -1.
    9900012    2    1    2    0    0 -0.25530120855E+00 -0.82200012907E-01  0.11494040390E+01  0.90007718172E+02  0.89999979252E+02 0.  0.
         12    1    1    2    0    0  0.25530120855E+00  0.82200012907E-01 -0.11494040390E+01  0.11802818282E+01  0.00000000000E+00 0. -1.
         11    1    3    3    0    0 -0.10740655318E+02  0.20258258217E+00  0.11734866931E+02  0.15909425461E+02  0.51100000000E-03 0. -1.
        -11    1    3    3    0    0  0.20884623826E+02  0.25898195881E+02 -0.25780304497E+02  0.42089287978E+02  0.51100000000E-03 0.  1.
         12    1    3    3    0    0 -0.10399269717E+02 -0.26182978476E+02  0.15194841606E+02  0.32009004732E+02  0.00000000000E+00 0. -1.
</event>
<event>
 7    1  0.4400431E-015  0.9000767E+02  0.7816164E-02  0.1186339E+00
        -11   -1    0    0    0    0  0.00000000000E+00  0.00000000000E+00  0.45593999997E+02  0.45594000000E+02  0.51100000000E-03 0.  1.
         11   -1    0    0    0    0 -0.00000000000E+00 -0.00000000000E+00 -0.45593999997E+02  0.45594000000E+02  0.51100000000E-03 0. -1.
    9900012    2    1    2    0    0 -0.53402286363E+00 -0.10464240072E+01  0.11396873443E+00  0.90007672717E+02  0.89999933197E+02 0.  0.
         12    1    1    2    0    0  0.53402286363E+00  0.10464240072E+01 -0.11396873443E+00  0.11803272827E+01  0.00000000000E+00 0. -1.
         11    1    3    3    0    0  0.32857606690E+01  0.69925338254E+01  0.78755997661E+01  0.11032534813E+02  0.51100000000E-03 0. -1.
        -11    1    3    3    0    0 -0.76139849580E+01  0.72441452939E+01  0.33341596927E+02  0.34958725576E+02  0.51100000000E-03 0.  1.
         12    1    3    3    0    0  0.37942014254E+01 -0.15283103126E+02 -0.41103227959E+02  0.44016412328E+02  0.00000000000E+00 0. -1.
</event>
<event>
 7    1  0.4400431E-015  0.9000776E+02  0.7816164E-02  0.1186339E+00
        -11   -1    0    0    0    0  0.00000000000E+00  0.00000000000E+00  0.45593999997E+02  0.45594000000E+02  0.51100000000E-03 0.  1.
         11   -1    0    0    0    0 -0.00000000000E+00 -0.00000000000E+00 -0.45593999997E+02  0.45594000000E+02  0.51100000000E-03 0. -1.
    9900012    2    1    2    0    0  0.63703741919E+00  0.89818482609E+00  0.42476307117E+00  0.90007755821E+02  0.90000017398E+02 0.  0.
         12    1    1    2    0    0 -0.63703741919E+00 -0.89818482609E+00 -0.42476307117E+00  0.11802441789E+01  0.00000000000E+00 0. -1.
         11    1    3    3    0    0  0.25726040518E+01  0.26556470774E+02 -0.80332423128E+00  0.26692878482E+02  0.51100000000E-03 0. -1.
        -11    1    3    3    0    0  0.29591424237E+01  0.11510664434E+02  0.18538868500E+02  0.22021388810E+02  0.51100000000E-03 0.  1.
        -12    1    3    3    0    0 -0.48947090563E+01 -0.37168950382E+02 -0.17310781198E+02  0.41293488529E+02  0.00000000000E+00 0.  1.
</event>
<event>
 7    1  0.5261737E-015  0.9000780E+02  0.7816164E-02  0.1186339E+00
        -11   -1    0    0    0    0  0.00000000000E+00  0.00000000000E+00  0.45593999997E+02  0.45594000000E+02  0.51100000000E-03 0. -1.
         11   -1    0    0    0    0 -0.00000000000E+00 -0.00000000000E+00 -0.45593999997E+02  0.45594000000E+02  0.51100000000E-03 0.  1.
    9900012    2    1    2    0    0  0.25182464166E-01 -0.41200416571E+00 -0.11056643573E+01  0.90007798636E+02  0.90000060778E+02 0.  0.
         12    1    1    2    0    0 -0.25182464166E-01  0.41200416571E+00  0.11056643573E+01  0.11802013642E+01  0.00000000000E+00 0. -1.
         11    1    3    3    0    0 -0.10178047392E+02 -0.13599143130E+01  0.20806329459E+01  0.10477168003E+02  0.51100000000E-03 0. -1.
        -11    1    3    3    0    0 -0.24332615137E+02 -0.12685655921E+02 -0.24441520582E+02  0.36747652362E+02  0.51100000000E-03 0.  1.
         12    1    3    3    0    0  0.34535844992E+02  0.13633566068E+02  0.21255223278E+02  0.42782978271E+02  0.00000000000E+00 0. -1.
</event>
<event>
 7    1  0.4400431E-015  0.9000707E+02  0.7816164E-02  0.1186340E+00
        -11   -1    0    0    0    0  0.00000000000E+00  0.00000000000E+00  0.45593999997E+02  0.45594000000E+02  0.51100000000E-03 0. -1.
         11   -1    0    0    0    0 -0.00000000000E+00 -0.00000000000E+00 -0.45593999997E+02  0.45594000000E+02  0.51100000000E-03 0.  1.
    9900012    2    1    2    0    0  0.46391506420E+00  0.37782527098E+00 -0.10181444382E+01  0.90007073576E+02  0.89999326145E+02 0.  0.
         12    1    1    2    0    0 -0.46391506420E+00 -0.37782527098E+00  0.10181444382E+01  0.11809264241E+01  0.00000000000E+00 0. -1.
         11    1    3    3    0    0  0.15918478334E+01 -0.54388566684E+00  0.87393345874E+01  0.88997618190E+01  0.51100000000E-03 0. -1.
        -11    1    3    3    0    0  0.22944269259E+02  0.31730140425E+02 -0.14431115998E+02  0.41731264209E+02  0.51100000000E-03 0.  1.
         12    1    3    3    0    0 -0.24072202028E+02 -0.30808429488E+02  0.46736369720E+01  0.39376047548E+02  0.00000000000E+00 0. -1.
</event>
<event>
 7    1  0.4400431E-015  0.9000765E+02  0.7816164E-02  0.1186339E+00
        -11   -1    0    0    0    0  0.00000000000E+00  0.00000000000E+00  0.45593999997E+02  0.45594000000E+02  0.51100000000E-03 0. -1.
         11   -1    0    0    0    0 -0.00000000000E+00 -0.00000000000E+00 -0.45593999997E+02  0.45594000000E+02  0.51100000000E-03 0.  1.
    9900012    2    1    2    0    0  0.25475808891E+00 -0.11357801777E+00 -0.11469211299E+01  0.90007648473E+02  0.89999908632E+02 0.  0.
         12    1    1    2    0    0 -0.25475808891E+00  0.11357801777E+00  0.11469211299E+01  0.11803515273E+01  0.00000000000E+00 0. -1.
         11    1    3    3    0    0 -0.11713284062E+02  0.19317851361E+01 -0.30963382175E+01  0.12268664473E+02  0.51100000000E-03 0. -1.
        -11    1    3    3    0    0 -0.30907549610E+02 -0.12420977204E+02  0.41697869280E+01  0.33569992864E+02  0.51100000000E-03 0.  1.
         12    1    3    3    0    0  0.42875591761E+02  0.10375614050E+02 -0.22203698404E+01  0.44168991136E+02  0.00000000000E+00 0. -1.
</event>
<event>
 7    1  0.4400431E-015  0.9000768E+02  0.7816164E-02  0.1186339E+00
        -11   -1    0    0    0    0  0.00000000000E+00  0.00000000000E+00  0.45593999997E+02  0.45594000000E+02  0.51100000000E-03 0.  1.
         11   -1    0    0    0    0 -0.00000000000E+00 -0.00000000000E+00 -0.45593999997E+02  0.45594000000E+02  0.51100000000E-03 0. -1.
    9900012    2    1    2    0    0 -0.93273763220E+00 -0.18569080598E+00  0.69905481556E+00  0.90007678772E+02  0.89999939332E+02 0.  0.
         12    1    1    2    0    0  0.93273763220E+00  0.18569080598E+00 -0.69905481556E+00  0.11803212279E+01  0.00000000000E+00 0. -1.
         11    1    3    3    0    0  0.28759888369E+02  0.17955144368E+02 -0.18831860125E+02  0.38783467410E+02  0.51100000000E-03 0. -1.
        -11    1    3    3    0    0  0.68825258811E+01 -0.28981918937E+01  0.51481557135E+01  0.90704016597E+01  0.51100000000E-03 0.  1.
        -12    1    3    3    0    0 -0.36575151883E+02 -0.15242643280E+02  0.14382759228E+02  0.42153809702E+02  0.00000000000E+00 0.  1.
</event>
<event>
 7    1  0.4400431E-015  0.9000777E+02  0.7816164E-02  0.1186339E+00
        -11   -1    0    0    0    0  0.00000000000E+00  0.00000000000E+00  0.45593999997E+02  0.45594000000E+02  0.51100000000E-03 0.  1.
         11   -1    0    0    0    0 -0.00000000000E+00 -0.00000000000E+00 -0.45593999997E+02  0.45594000000E+02  0.51100000000E-03 0. -1.
    9900012    2    1    2    0    0 -0.80200721843E+00 -0.54093328399E+00  0.67611189399E+00  0.90007766256E+02  0.90000027971E+02 0.  0.
         12    1    1    2    0    0  0.80200721843E+00  0.54093328399E+00 -0.67611189399E+00  0.11802337435E+01  0.00000000000E+00 0. -1.
         11    1    3    3    0    0  0.30778415329E+02  0.68727089971E+01 -0.19929450685E+02  0.37305870637E+02  0.51100000000E-03 0. -1.
        -11    1    3    3    0    0 -0.23757049414E+01  0.14716588651E+01 -0.94548749076E+01  0.98592298666E+01  0.51100000000E-03 0.  1.
        -12    1    3    3    0    0 -0.29204717606E+02 -0.88853011462E+01  0.30060437487E+02  0.42842665753E+02  0.00000000000E+00 0.  1.
</event>
<event>
 7    1  0.4400431E-015  0.9000784E+02  0.7816164E-02  0.1186339E+00
        -11   -1    0    0    0    0  0.00000000000E+00  0.00000000000E+00  0.45593999997E+02  0.45594000000E+02  0.51100000000E-03 0.  1.
         11   -1    0    0    0    0 -0.00000000000E+00 -0.00000000000E+00 -0.45593999997E+02  0.45594000000E+02  0.51100000000E-03 0. -1.
    9900012    2    1    2    0    0 -0.10143966044E+01 -0.33594605394E+00 -0.50091734471E+00  0.90007839668E+02  0.90000102352E+02 0.  0.
         12    1    1    2    0    0  0.10143966044E+01  0.33594605394E+00  0.50091734471E+00  0.11801603316E+01  0.00000000000E+00 0. -1.
         11    1    3    3    0    0  0.85351976871E+01 -0.35374391242E+00  0.55013751743E+01  0.10160701914E+02  0.51100000000E-03 0. -1.
        -11    1    3    3    0    0  0.13679161941E+01 -0.33754006806E+02  0.16731363123E+02  0.37698046135E+02  0.51100000000E-03 0.  1.
         12    1    3    3    0    0 -0.10917510486E+02  0.33771804664E+02 -0.22733655642E+02  0.42149091620E+02  0.00000000000E+00 0. -1.
</event>
<event>
 7    1  0.4400431E-015  0.9000805E+02  0.7816164E-02  0.1186338E+00
        -11   -1    0    0    0    0  0.00000000000E+00  0.00000000000E+00  0.45593999997E+02  0.45594000000E+02  0.51100000000E-03 0. -1.
         11   -1    0    0    0    0 -0.00000000000E+00 -0.00000000000E+00 -0.45593999997E+02  0.45594000000E+02  0.51100000000E-03 0.  1.
    9900012    2    1    2    0    0 -0.10962426197E+01  0.42463262534E+00 -0.10114682211E+00  0.90008046006E+02  0.90000311413E+02 0.  0.
         12    1    1    2    0    0  0.10962426197E+01 -0.42463262534E+00  0.10114682211E+00  0.11799539938E+01  0.00000000000E+00 0. -1.
         11    1    3    3    0    0 -0.31923538523E+01 -0.12579083746E+01  0.12917378211E+02  0.13365332645E+02  0.51100000000E-03 0. -1.
        -11    1    3    3    0    0 -0.32292860819E+01  0.12508688397E+02  0.29628186692E+02  0.32322206313E+02  0.51100000000E-03 0.  1.
        -12    1    3    3    0    0  0.53253973145E+01 -0.10826147397E+02 -0.42646711725E+02  0.44320507048E+02  0.00000000000E+00 0.  1.
</event>
<event>
 7    1  0.4400431E-015  0.9000774E+02  0.7816164E-02  0.1186339E+00
        -11   -1    0    0    0    0  0.00000000000E+00  0.00000000000E+00  0.45593999997E+02  0.45594000000E+02  0.51100000000E-03 0.  1.
         11   -1    0    0    0    0 -0.00000000000E+00 -0.00000000000E+00 -0.45593999997E+02  0.45594000000E+02  0.51100000000E-03 0. -1.
    9900012    2    1    2    0    0 -0.10115875103E+01  0.16141419498E+00  0.58621910220E+00  0.90007738728E+02  0.90000000080E+02 0.  0.
         12    1    1    2    0    0  0.10115875103E+01 -0.16141419498E+00 -0.58621910220E+00  0.11802612715E+01  0.00000000000E+00 0. -1.
         11    1    3    3    0    0 -0.26998863510E+02 -0.29924890085E+01  0.34571458349E+02  0.43966798314E+02  0.51100000000E-03 0. -1.
        -11    1    3    3    0    0 -0.12865739532E+00 -0.28221251774E+01 -0.89055766897E+01  0.93429245785E+01  0.51100000000E-03 0.  1.
        -12    1    3    3    0    0  0.26115933395E+02  0.59760283809E+01 -0.25079662557E+02  0.36698015836E+02  0.00000000000E+00 0.  1.
</event>
<event>
 7    1  0.4400431E-015  0.9000771E+02  0.7816164E-02  0.1186339E+00
        -11   -1    0    0    0    0  0.00000000000E+00  0.00000000000E+00  0.45593999997E+02  0.45594000000E+02  0.51100000000E-03 0. -1.
         11   -1    0    0    0    0 -0.00000000000E+00 -0.00000000000E+00 -0.45593999997E+02  0.45594000000E+02  0.51100000000E-03 0.  1.
    9900012    2    1    2    0    0  0.65316370893E+00  0.79338303932E+00 -0.58052827001E+00  0.90007706583E+02  0.89999967510E+02 0.  0.
         12    1    1    2    0    0 -0.65316370893E+00 -0.79338303932E+00  0.58052827001E+00  0.11802934169E+01  0.00000000000E+00 0. -1.
         11    1    3    3    0    0  0.16480737614E+02 -0.28619760954E+02  0.19390110615E+02  0.38297282140E+02  0.51100000000E-03 0. -1.
        -11    1    3    3    0    0  0.20748875660E+01  0.46369016977E+01  0.85231436422E+01  0.99221970134E+01  0.51100000000E-03 0.  1.
        -12    1    3    3    0    0 -0.17902461471E+02  0.24776242296E+02 -0.28493782527E+02  0.41788227430E+02  0.00000000000E+00 0.  1.
</event>
<event>
 7    1  0.4400431E-015  0.9000770E+02  0.7816164E-02  0.1186339E+00
        -11   -1    0    0    0    0  0.00000000000E+00  0.00000000000E+00  0.45593999997E+02  0.45594000000E+02  0.51100000000E-03 0. -1.
         11   -1    0    0    0    0 -0.00000000000E+00 -0.00000000000E+00 -0.45593999997E+02  0.45594000000E+02  0.51100000000E-03 0.  1.
    9900012    2    1    2    0    0 -0.10680700336E+01  0.39992691132E-01 -0.50072594843E+00  0.90007703644E+02  0.89999964532E+02 0.  0.
         12    1    1    2    0    0  0.10680700336E+01 -0.39992691132E-01  0.50072594843E+00  0.11802963558E+01  0.00000000000E+00 0. -1.
         11    1    3    3    0    0  0.41053166702E+01  0.70190812687E+01 -0.37749876982E+01  0.89650242165E+01  0.51100000000E-03 0. -1.
        -11    1    3    3    0    0 -0.40210855118E+02 -0.18211629532E+02  0.51920021002E+00  0.44145734659E+02  0.51100000000E-03 0.  1.
         12    1    3    3    0    0  0.35037468414E+02  0.11232540955E+02  0.27550615398E+01  0.36896944768E+02  0.00000000000E+00 0. -1.
</event>
<event>
 7    1  0.4400431E-015  0.9000774E+02  0.7816164E-02  0.1186339E+00
        -11   -1    0    0    0    0  0.00000000000E+00  0.00000000000E+00  0.45593999997E+02  0.45594000000E+02  0.51100000000E-03 0.  1.
         11   -1    0    0    0    0 -0.00000000000E+00 -0.00000000000E+00 -0.45593999997E+02  0.45594000000E+02  0.51100000000E-03 0. -1.
    9900012    2    1    2    0    0  0.79425194014E-02  0.80926009172E+00  0.85910136777E+00  0.90007737258E+02  0.89999998590E+02 0.  0.
         12    1    1    2    0    0 -0.79425194014E-02 -0.80926009172E+00 -0.85910136777E+00  0.11802627418E+01  0.00000000000E+00 0. -1.
         11    1    3    3    0    0  0.38844484909E+02  0.65147174621E+01  0.69729285842E+01  0.39999466056E+02  0.51100000000E-03 0. -1.
        -11    1    3    3    0    0 -0.44399416501E+00 -0.39925549175E+01  0.80933868652E+01  0.90355153034E+01  0.51100000000E-03 0.  1.
        -12    1    3    3    0    0 -0.38392548225E+02 -0.17129024528E+01 -0.14207214082E+02  0.40972755899E+02  0.00000000000E+00 0.  1.
</event>
<event>
 7    1  0.4400431E-015  0.9000779E+02  0.7816164E-02  0.1186339E+00
        -11   -1    0    0    0    0  0.00000000000E+00  0.00000000000E+00  0.45593999997E+02  0.45594000000E+02  0.51100000000E-03 0. -1.
         11   -1    0    0    0    0 -0.00000000000E+00 -0.00000000000E+00 -0.45593999997E+02  0.45594000000E+02  0.51100000000E-03 0.  1.
    9900012    2    1    2    0    0 -0.62176440858E+00 -0.95218672601E+00  0.31568477103E+00  0.90007785013E+02  0.90000046975E+02 0.  0.
         12    1    1    2    0    0  0.62176440858E+00  0.95218672601E+00 -0.31568477103E+00  0.11802149870E+01  0.00000000000E+00 0. -1.
         11    1    3    3    0    0  0.41930964839E+01  0.81613666711E+01 -0.18898926402E+01  0.93681192625E+01  0.51100000000E-03 0. -1.
        -11    1    3    3    0    0 -0.14723481506E+02  0.24960312307E+02 -0.23096642511E+02  0.37057428320E+02  0.51100000000E-03 0.  1.
         12    1    3    3    0    0  0.99086206134E+01 -0.34073865704E+02  0.25302219922E+02  0.43582237431E+02  0.00000000000E+00 0. -1.
</event>
<event>
 7    1  0.4400431E-015  0.9000781E+02  0.7816164E-02  0.1186339E+00
        -11   -1    0    0    0    0  0.00000000000E+00  0.00000000000E+00  0.45593999997E+02  0.45594000000E+02  0.51100000000E-03 0. -1.
         11   -1    0    0    0    0 -0.00000000000E+00 -0.00000000000E+00 -0.45593999997E+02  0.45594000000E+02  0.51100000000E-03 0.  1.
    9900012    2    1    2    0    0  0.85329392358E+00  0.79074805354E+00  0.19864938730E+00  0.90007807396E+02  0.90000069653E+02 0.  0.
         12    1    1    2    0    0 -0.85329392358E+00 -0.79074805354E+00 -0.19864938730E+00  0.11801926043E+01  0.00000000000E+00 0. -1.
         11    1    3    3    0    0 -0.12210577343E+02  0.35385049784E+02  0.34700376366E+01  0.37593099217E+02  0.51100000000E-03 0. -1.
        -11    1    3    3    0    0 -0.32714043328E+00  0.67464672871E+01 -0.57757436688E+01  0.88871287212E+01  0.51100000000E-03 0.  1.
        -12    1    3    3    0    0  0.13391011700E+02 -0.41340769018E+02  0.25043554195E+01  0.43527579457E+02  0.00000000000E+00 0.  1.
</event>
<event>
 7    1  0.4400431E-015  0.9000780E+02  0.7816164E-02  0.1186339E+00
        -11   -1    0    0    0    0  0.00000000000E+00  0.00000000000E+00  0.45593999997E+02  0.45594000000E+02  0.51100000000E-03 0.  1.
         11   -1    0    0    0    0 -0.00000000000E+00 -0.00000000000E+00 -0.45593999997E+02  0.45594000000E+02  0.51100000000E-03 0. -1.
    9900012    2    1    2    0    0  0.38743106857E+00 -0.10904723445E+01  0.23158971441E+00  0.90007802320E+02  0.90000064511E+02 0.  0.
         12    1    1    2    0    0 -0.38743106857E+00  0.10904723445E+01 -0.23158971441E+00  0.11801976795E+01  0.00000000000E+00 0. -1.
         11    1    3    3    0    0  0.14130083538E+01 -0.40134594706E+02 -0.39539318549E+01  0.40353635056E+02  0.51100000000E-03 0. -1.
        -11    1    3    3    0    0  0.44918178527E+01 -0.14877718481E+01  0.72240351339E+01  0.86357730731E+01  0.51100000000E-03 0.  1.
        -12    1    3    3    0    0 -0.55173951379E+01  0.40531894210E+02 -0.30385135646E+01  0.41018394191E+02  0.00000000000E+00 0.  1.
</event>
<event>
 7    1  0.4400431E-015  0.9000771E+02  0.7816164E-02  0.1186339E+00
        -11   -1    0    0    0    0  0.00000000000E+00  0.00000000000E+00  0.45593999997E+02  0.45594000000E+02  0.51100000000E-03 0.  1.
         11   -1    0    0    0    0 -0.00000000000E+00 -0.00000000000E+00 -0.45593999997E+02  0.45594000000E+02  0.51100000000E-03 0. -1.
    9900012    2    1    2    0    0 -0.25244404953E+00  0.41279572894E+00  0.10765534354E+01  0.90007705286E+02  0.89999966196E+02 0.  0.
         12    1    1    2    0    0  0.25244404953E+00 -0.41279572894E+00 -0.10765534354E+01  0.11802947137E+01  0.00000000000E+00 0. -1.
         11    1    3    3    0    0 -0.56956008575E+00  0.82556789809E+01  0.20620258835E+01  0.85283401159E+01  0.51100000000E-03 0. -1.
        -11    1    3    3    0    0 -0.77711000418E+01  0.32101177589E+02  0.16749883022E+02  0.37032879714E+02  0.51100000000E-03 0.  1.
         12    1    3    3    0    0  0.80882160780E+01 -0.39944060841E+02 -0.17735355470E+02  0.44446485456E+02  0.00000000000E+00 0. -1.
</event>
<event>
 7    1  0.4400431E-015  0.9000768E+02  0.7816164E-02  0.1186339E+00
        -11   -1    0    0    0    0  0.00000000000E+00  0.00000000000E+00  0.45593999997E+02  0.45594000000E+02  0.51100000000E-03 0. -1.
         11   -1    0    0    0    0 -0.00000000000E+00 -0.00000000000E+00 -0.45593999997E+02  0.45594000000E+02  0.51100000000E-03 0.  1.
    9900012    2    1    2    0    0  0.93554408975E+00  0.25242372262E+00 -0.67394766176E+00  0.90007675498E+02  0.89999936014E+02 0.  0.
         12    1    1    2    0    0 -0.93554408975E+00 -0.25242372262E+00  0.67394766176E+00  0.11803245022E+01  0.00000000000E+00 0. -1.
         11    1    3    3    0    0 -0.14486572337E+02  0.27211984846E+02  0.20435705464E+02  0.36986091378E+02  0.51100000000E-03 0. -1.
        -11    1    3    3    0    0 -0.83827517745E+01 -0.17545870478E+01  0.47284927302E+01  0.97830336186E+01  0.51100000000E-03 0.  1.
        -12    1    3    3    0    0  0.23804868201E+02 -0.25204974076E+02 -0.25838145856E+02  0.43238550502E+02  0.00000000000E+00 0.  1.
</event>
<event>
 7    1  0.4400431E-015  0.9000779E+02  0.7816164E-02  0.1186339E+00
        -11   -1    0    0    0    0  0.00000000000E+00  0.00000000000E+00  0.45593999997E+02  0.45594000000E+02  0.51100000000E-03 0. -1.
         11   -1    0    0    0    0 -0.00000000000E+00 -0.00000000000E+00 -0.45593999997E+02  0.45594000000E+02  0.51100000000E-03 0.  1.
    9900012    2    1    2    0    0 -0.67416596513E+00  0.98542238787E-01 -0.96367748465E+00  0.90007794672E+02  0.90000056762E+02 0.  0.
         12    1    1    2    0    0  0.67416596513E+00 -0.98542238787E-01  0.96367748465E+00  0.11802053278E+01  0.00000000000E+00 0. -1.
         11    1    3    3    0    0 -0.10106630124E+02  0.67360825893E+01  0.33033583607E+02  0.35195687624E+02  0.51100000000E-03 0. -1.
        -11    1    3    3    0    0 -0.24283860205E+01  0.19097117671E+01  0.89375800715E+01  0.94564472976E+01  0.51100000000E-03 0.  1.
        -12    1    3    3    0    0  0.11860850180E+02 -0.85472521176E+01 -0.42934841163E+02  0.45355659751E+02  0.00000000000E+00 0.  1.
</event>
<event>
 7    1  0.4400431E-015  0.9000778E+02  0.7816164E-02  0.1186339E+00
        -11   -1    0    0    0    0  0.00000000000E+00  0.00000000000E+00  0.45593999997E+02  0.45594000000E+02  0.51100000000E-03 0. -1.
         11   -1    0    0    0    0 -0.00000000000E+00 -0.00000000000E+00 -0.45593999997E+02  0.45594000000E+02  0.51100000000E-03 0.  1.
    9900012    2    1    2    0    0 -0.22297918133E+00  0.11573832777E+01  0.60556707021E-01  0.90007778461E+02  0.90000040336E+02 0.  0.
         12    1    1    2    0    0  0.22297918133E+00 -0.11573832777E+01 -0.60556707021E-01  0.11802215392E+01  0.00000000000E+00 0. -1.
         11    1    3    3    0    0 -0.60176511413E+01  0.18251113170E+02  0.35129551101E+02  0.40042485163E+02  0.51100000000E-03 0. -1.
        -11    1    3    3    0    0  0.89172601669E+01 -0.69396447926E+01  0.19373861133E+01  0.11464277733E+02  0.51100000000E-03 0.  1.
        -12    1    3    3    0    0 -0.31225882069E+01 -0.10154085100E+02 -0.37006380507E+02  0.38501015565E+02  0.00000000000E+00 0.  1.
</event>
<event>
 7    1  0.4400431E-015  0.9000774E+02  0.7816164E-02  0.1186339E+00
        -11   -1    0    0    0    0  0.00000000000E+00  0.00000000000E+00  0.45593999997E+02  0.45594000000E+02  0.51100000000E-03 0. -1.
         11   -1    0    0    0    0 -0.00000000000E+00 -0.00000000000E+00 -0.45593999997E+02  0.45594000000E+02  0.51100000000E-03 0.  1.
    9900012    2    1    2    0    0  0.97515888630E+00 -0.44140776673E+00 -0.49722059020E+00  0.90007744102E+02  0.90000005524E+02 0.  0.
         12    1    1    2    0    0 -0.97515888630E+00  0.44140776673E+00  0.49722059020E+00  0.11802558983E+01  0.00000000000E+00 0. -1.
         11    1    3    3    0    0 -0.13684561684E+02  0.30652769892E+01  0.32044975624E+02  0.34979188305E+02  0.51100000000E-03 0. -1.
        -11    1    3    3    0    0  0.44897696761E+01 -0.49045742266E+01  0.95867196636E+01  0.11666965083E+02  0.51100000000E-03 0.  1.
        -12    1    3    3    0    0  0.10169950894E+02  0.13978894706E+01 -0.42128915878E+02  0.43361590713E+02  0.00000000000E+00 0.  1.
</event>
<event>
 7    1  0.4400431E-015  0.9000767E+02  0.7816164E-02  0.1186339E+00
        -11   -1    0    0    0    0  0.00000000000E+00  0.00000000000E+00  0.45593999997E+02  0.45594000000E+02  0.51100000000E-03 0.  1.
         11   -1    0    0    0    0 -0.00000000000E+00 -0.00000000000E+00 -0.45593999997E+02  0.45594000000E+02  0.51100000000E-03 0. -1.
    9900012    2    1    2    0    0  0.34300828894E+00 -0.10377587473E-01  0.11293465102E+01  0.90007667030E+02  0.89999927435E+02 0.  0.
         12    1    1    2    0    0 -0.34300828894E+00  0.10377587473E-01 -0.11293465102E+01  0.11803329702E+01  0.00000000000E+00 0. -1.
         11    1    3    3    0    0 -0.41915705395E+01 -0.82731723726E+01 -0.23127669012E+01  0.95584274698E+01  0.51100000000E-03 0. -1.
        -11    1    3    3    0    0  0.31351527516E+02 -0.13594604423E+02  0.22535668183E+02  0.40933945421E+02  0.51100000000E-03 0.  1.
         12    1    3    3    0    0 -0.26816948688E+02  0.21857399209E+02 -0.19093554771E+02  0.39515294139E+02  0.00000000000E+00 0. -1.
</event>
<event>
 7    1  0.4400431E-015  0.9000777E+02  0.7816164E-02  0.1186339E+00
        -11   -1    0    0    0    0  0.00000000000E+00  0.00000000000E+00  0.45593999997E+02  0.45594000000E+02  0.51100000000E-03 0.  1.
         11   -1    0    0    0    0 -0.00000000000E+00 -0.00000000000E+00 -0.45593999997E+02  0.45594000000E+02  0.51100000000E-03 0. -1.
    9900012    2    1    2    0    0 -0.49534240294E-01 -0.52864143061E+00  0.10540525279E+01  0.90007770304E+02  0.90000032072E+02 0.  0.
         12    1    1    2    0    0  0.49534240294E-01  0.52864143061E+00 -0.10540525279E+01  0.11802296957E+01  0.00000000000E+00 0. -1.
         11    1    3    3    0    0  0.71539739295E+01  0.90550193219E+01 -0.36945257611E+02  0.38705616881E+02  0.51100000000E-03 0. -1.
        -11    1    3    3    0    0 -0.48699936076E+00  0.93708304404E+01  0.13251505735E+01  0.94765846076E+01  0.51100000000E-03 0.  1.
        -12    1    3    3    0    0 -0.67165088090E+01 -0.18954491193E+02  0.36674159565E+02  0.41825568816E+02  0.00000000000E+00 0.  1.
</event>
<event>
 7    1  0.4400431E-015  0.9000768E+02  0.7816164E-02  0.1186339E+00
        -11   -1    0    0    0    0  0.00000000000E+00  0.00000000000E+00  0.45593999997E+02  0.45594000000E+02  0.51100000000E-03 0. -1.
         11   -1    0    0    0    0 -0.00000000000E+00 -0.00000000000E+00 -0.45593999997E+02  0.45594000000E+02  0.51100000000E-03 0.  1.
    9900012    2    1    2    0    0 -0.79970270564E+00  0.63246262331E+00  0.59467081099E+00  0.90007675146E+02  0.89999935658E+02 0.  0.
         12    1    1    2    0    0  0.79970270564E+00 -0.63246262331E+00 -0.59467081099E+00  0.11803248539E+01  0.00000000000E+00 0. -1.
         11    1    3    3    0    0  0.69634442747E+00  0.84774582372E+00  0.34498085073E+02  0.34515524659E+02  0.51100000000E-03 0. -1.
        -11    1    3    3    0    0  0.68767756404E+01  0.62030947479E+01  0.80265365847E+01  0.12255354645E+02  0.51100000000E-03 0.  1.
        -12    1    3    3    0    0 -0.83728227735E+01 -0.64183779483E+01 -0.41929950847E+02  0.43236795842E+02  0.00000000000E+00 0.  1.
</event>
<event>
 7    1  0.4400431E-015  0.9000772E+02  0.7816164E-02  0.1186339E+00
        -11   -1    0    0    0    0  0.00000000000E+00  0.00000000000E+00  0.45593999997E+02  0.45594000000E+02  0.51100000000E-03 0.  1.
         11   -1    0    0    0    0 -0.00000000000E+00 -0.00000000000E+00 -0.45593999997E+02  0.45594000000E+02  0.51100000000E-03 0. -1.
    9900012    2    1    2    0    0 -0.56666836773E+00  0.94014734394E+00  0.43368395958E+00  0.90007715355E+02  0.89999976397E+02 0.  0.
         12    1    1    2    0    0  0.56666836773E+00 -0.94014734394E+00 -0.43368395958E+00  0.11802846454E+01  0.00000000000E+00 0. -1.
         11    1    3    3    0    0  0.48455301086E+01  0.31887079278E+00 -0.38317819795E+02  0.38624294877E+02  0.51100000000E-03 0. -1.
        -11    1    3    3    0    0  0.44979006849E+01 -0.13048395384E+01 -0.47827580713E+01  0.66939145365E+01  0.51100000000E-03 0.  1.
        -12    1    3    3    0    0 -0.99100991613E+01  0.19261160896E+01  0.43534261826E+02  0.44689505942E+02  0.00000000000E+00 0.  1.
</event>
<event>
 7    1  0.4400431E-015  0.9000769E+02  0.7816164E-02  0.1186339E+00
        -11   -1    0    0    0    0  0.00000000000E+00  0.00000000000E+00  0.45593999997E+02  0.45594000000E+02  0.51100000000E-03 0.  1.
         11   -1    0    0    0    0 -0.00000000000E+00 -0.00000000000E+00 -0.45593999997E+02  0.45594000000E+02  0.51100000000E-03 0. -1.
    9900012    2    1    2    0    0 -0.46926530774E-01 -0.10593007056E+01  0.51846103611E+00  0.90007694137E+02  0.89999954900E+02 0.  0.
         12    1    1    2    0    0  0.46926530774E-01  0.10593007056E+01 -0.51846103611E+00  0.11803058630E+01  0.00000000000E+00 0. -1.
         11    1    3    3    0    0  0.11811951212E+02 -0.22397876019E+02 -0.74542651418E+01  0.26396081351E+02  0.51100000000E-03 0. -1.
        -11    1    3    3    0    0  0.22760497152E+02  0.74639830171E+01  0.10661414837E+02  0.26218639165E+02  0.51100000000E-03 0.  1.
        -12    1    3    3    0    0 -0.34619374895E+02  0.13874592296E+02 -0.26886886588E+01  0.37392973621E+02  0.00000000000E+00 0.  1.
</event>
<event>
 7    1  0.4400431E-015  0.9000775E+02  0.7816164E-02  0.1186339E+00
        -11   -1    0    0    0    0  0.00000000000E+00  0.00000000000E+00  0.45593999997E+02  0.45594000000E+02  0.51100000000E-03 0. -1.
         11   -1    0    0    0    0 -0.00000000000E+00 -0.00000000000E+00 -0.45593999997E+02  0.45594000000E+02  0.51100000000E-03 0.  1.
    9900012    2    1    2    0    0 -0.32719974711E+00 -0.94442369591E+00 -0.62768100459E+00  0.90007754587E+02  0.90000016147E+02 0.  0.
         12    1    1    2    0    0  0.32719974711E+00  0.94442369591E+00  0.62768100459E+00  0.11802454132E+01  0.00000000000E+00 0. -1.
         11    1    3    3    0    0 -0.78212521362E+01  0.37353999828E+02  0.14917682550E+02  0.40975975169E+02  0.51100000000E-03 0. -1.
        -11    1    3    3    0    0  0.13529158752E+01 -0.66516654584E+01  0.69554498063E+01  0.97187096368E+01  0.51100000000E-03 0.  1.
        -12    1    3    3    0    0  0.61411365139E+01 -0.31646758065E+02 -0.22500813361E+02  0.39313069781E+02  0.00000000000E+00 0.  1.
</event>
<event>
 7    1  0.4400431E-015  0.9000717E+02  0.7816164E-02  0.1186340E+00
        -11   -1    0    0    0    0  0.00000000000E+00  0.00000000000E+00  0.45593999997E+02  0.45594000000E+02  0.51100000000E-03 0. -1.
         11   -1    0    0    0    0 -0.00000000000E+00 -0.00000000000E+00 -0.45593999997E+02  0.45594000000E+02  0.51100000000E-03 0.  1.
    9900012    2    1    2    0    0 -0.66621347363E+00  0.20599319327E-01 -0.97473374615E+00  0.90007165295E+02  0.89999419075E+02 0.  0.
         12    1    1    2    0    0  0.66621347363E+00 -0.20599319327E-01  0.97473374615E+00  0.11808347049E+01  0.00000000000E+00 0. -1.
         11    1    3    3    0    0 -0.10097654372E+01 -0.52330213422E+01  0.66881363340E+01  0.85519182929E+01  0.51100000000E-03 0. -1.
        -11    1    3    3    0    0  0.27915276797E+02 -0.26819084278E+02 -0.17639727973E+01  0.38750968510E+02  0.51100000000E-03 0.  1.
         12    1    3    3    0    0 -0.27571724834E+02  0.32072704939E+02 -0.58988972829E+01  0.42704278492E+02  0.00000000000E+00 0. -1.
</event>
<event>
 7    1  0.4400431E-015  0.9000776E+02  0.7816164E-02  0.1186339E+00
        -11   -1    0    0    0    0  0.00000000000E+00  0.00000000000E+00  0.45593999997E+02  0.45594000000E+02  0.51100000000E-03 0.  1.
         11   -1    0    0    0    0 -0.00000000000E+00 -0.00000000000E+00 -0.45593999997E+02  0.45594000000E+02  0.51100000000E-03 0. -1.
    9900012    2    1    2    0    0 -0.67367381510E+00 -0.87153193301E+00  0.42375464541E+00  0.90007757517E+02  0.90000019116E+02 0.  0.
         12    1    1    2    0    0  0.67367381510E+00  0.87153193301E+00 -0.42375464541E+00  0.11802424831E+01  0.00000000000E+00 0. -1.
         11    1    3    3    0    0  0.35044309047E+01 -0.29365581392E+02  0.17824302681E+01  0.29627613208E+02  0.51100000000E-03 0. -1.
        -11    1    3    3    0    0  0.21886425353E+02  0.78742943261E+00  0.29453619150E+01  0.22097755925E+02  0.51100000000E-03 0.  1.
        -12    1    3    3    0    0 -0.26064530073E+02  0.27706620027E+02 -0.43040375378E+01  0.38282388384E+02  0.00000000000E+00 0.  1.
</event>
<event>
 7    1  0.4400431E-015  0.9000770E+02  0.7816164E-02  0.1186339E+00
        -11   -1    0    0    0    0  0.00000000000E+00  0.00000000000E+00  0.45593999997E+02  0.45594000000E+02  0.51100000000E-03 0.  1.
         11   -1    0    0    0    0 -0.00000000000E+00 -0.00000000000E+00 -0.45593999997E+02  0.45594000000E+02  0.51100000000E-03 0. -1.
    9900012    2    1    2    0    0  0.36594444303E-01  0.10151182140E+01  0.60109289287E+00  0.90007696307E+02  0.89999957098E+02 0.  0.
         12    1    1    2    0    0 -0.36594444303E-01 -0.10151182140E+01 -0.60109289287E+00  0.11803036930E+01  0.00000000000E+00 0. -1.
         11    1    3    3    0    0  0.31174994661E+02 -0.75476956621E+00  0.19950188199E+02  0.37019724184E+02  0.51100000000E-03 0. -1.
        -11    1    3    3    0    0  0.71266720771E+01  0.68124470672E+01 -0.10271229017E+00  0.98594847742E+01  0.51100000000E-03 0.  1.
        -12    1    3    3    0    0 -0.38265072294E+02 -0.50425592870E+01 -0.19246383016E+02  0.43128487349E+02  0.00000000000E+00 0.  1.
</event>
<event>
 7    1  0.4400431E-015  0.9000776E+02  0.7816164E-02  0.1186339E+00
        -11   -1    0    0    0    0  0.00000000000E+00  0.00000000000E+00  0.45593999997E+02  0.45594000000E+02  0.51100000000E-03 0.  1.
         11   -1    0    0    0    0 -0.00000000000E+00 -0.00000000000E+00 -0.45593999997E+02  0.45594000000E+02  0.51100000000E-03 0. -1.
    9900012    2    1    2    0    0  0.24279394867E-01 -0.92613064744E-01  0.11763520709E+01  0.90007758133E+02  0.90000019741E+02 0.  0.
         12    1    1    2    0    0 -0.24279394867E-01  0.92613064744E-01 -0.11763520709E+01  0.11802418665E+01  0.00000000000E+00 0. -1.
         11    1    3    3    0    0  0.38129903559E+02 -0.10929977726E+02  0.50175247852E+01  0.39981614697E+02  0.51100000000E-03 0. -1.
        -11    1    3    3    0    0  0.18052719938E+00 -0.42481401220E+01 -0.75951123077E+01  0.87043101848E+01  0.51100000000E-03 0.  1.
        -12    1    3    3    0    0 -0.38286151364E+02  0.15085504783E+02  0.37539395935E+01  0.41321833252E+02  0.00000000000E+00 0.  1.
</event>
<event>
 7    1  0.4400431E-015  0.9000777E+02  0.7816164E-02  0.1186339E+00
        -11   -1    0    0    0    0  0.00000000000E+00  0.00000000000E+00  0.45593999997E+02  0.45594000000E+02  0.51100000000E-03 0. -1.
         11   -1    0    0    0    0 -0.00000000000E+00 -0.00000000000E+00 -0.45593999997E+02  0.45594000000E+02  0.51100000000E-03 0.  1.
    9900012    2    1    2    0    0 -0.20839622930E+00  0.85255495736E+00 -0.78908924342E+00  0.90007770879E+02  0.90000032655E+02 0.  0.
         12    1    1    2    0    0  0.20839622930E+00 -0.85255495736E+00  0.78908924342E+00  0.11802291209E+01  0.00000000000E+00 0. -1.
         11    1    3    3    0    0  0.33244047857E+01  0.35193261270E+01 -0.71707059289E+01  0.86519562728E+01  0.51100000000E-03 0. -1.
        -11    1    3    3    0    0  0.16606999705E+02 -0.22146064828E+02 -0.26386139043E+02  0.38242240526E+02  0.51100000000E-03 0.  1.
         12    1    3    3    0    0 -0.20139800720E+02  0.19479293659E+02  0.32767755729E+02  0.43113574080E+02  0.00000000000E+00 0. -1.
</event>
<event>
 7    1  0.4400431E-015  0.9000781E+02  0.7816164E-02  0.1186339E+00
        -11   -1    0    0    0    0  0.00000000000E+00  0.00000000000E+00  0.45593999997E+02  0.45594000000E+02  0.51100000000E-03 0.  1.
         11   -1    0    0    0    0 -0.00000000000E+00 -0.00000000000E+00 -0.45593999997E+02  0.45594000000E+02  0.51100000000E-03 0. -1.
    9900012    2    1    2    0    0  0.25371460878E+00 -0.87002656709E+00  0.75600222110E+00  0.90007806504E+02  0.90000068750E+02 0.  0.
         12    1    1    2    0    0 -0.25371460878E+00  0.87002656709E+00 -0.75600222110E+00  0.11801934962E+01  0.00000000000E+00 0. -1.
         11    1    3    3    0    0 -0.43037589903E+01 -0.57944335860E+01 -0.87985396850E+01  0.11380338434E+02  0.51100000000E-03 0. -1.
        -11    1    3    3    0    0 -0.18106595626E+02  0.91435824649E+01  0.37357998812E+02  0.42509692789E+02  0.51100000000E-03 0.  1.
         12    1    3    3    0    0  0.22664069225E+02 -0.42191754460E+01 -0.27803456906E+02  0.36117775281E+02  0.00000000000E+00 0. -1.
</event>
<event>
 7    1  0.4400431E-015  0.9000749E+02  0.7816164E-02  0.1186340E+00
        -11   -1    0    0    0    0  0.00000000000E+00  0.00000000000E+00  0.45593999997E+02  0.45594000000E+02  0.51100000000E-03 0.  1.
         11   -1    0    0    0    0 -0.00000000000E+00 -0.00000000000E+00 -0.45593999997E+02  0.45594000000E+02  0.51100000000E-03 0. -1.
    9900012    2    1    2    0    0 -0.11627373931E+01  0.11958457848E+00 -0.16538889666E+00  0.90007486466E+02  0.89999744487E+02 0.  0.
         12    1    1    2    0    0  0.11627373931E+01 -0.11958457848E+00  0.16538889666E+00  0.11805135339E+01  0.00000000000E+00 0. -1.
         11    1    3    3    0    0  0.12023731485E+02  0.37340737098E+01  0.29701477975E+01  0.12935810894E+02  0.51100000000E-03 0. -1.
        -11    1    3    3    0    0 -0.34872824188E+02 -0.10988119548E+02  0.22312365990E+02  0.42833331815E+02  0.51100000000E-03 0.  1.
         12    1    3    3    0    0  0.21686355310E+02  0.73736304170E+01 -0.25447902684E+02  0.34238343756E+02  0.00000000000E+00 0. -1.
</event>
<event>
 7    1  0.4400431E-015  0.9000775E+02  0.7816164E-02  0.1186339E+00
        -11   -1    0    0    0    0  0.00000000000E+00  0.00000000000E+00  0.45593999997E+02  0.45594000000E+02  0.51100000000E-03 0. -1.
         11   -1    0    0    0    0 -0.00000000000E+00 -0.00000000000E+00 -0.45593999997E+02  0.45594000000E+02  0.51100000000E-03 0.  1.
    9900012    2    1    2    0    0  0.71177320170E+00 -0.93445422772E+00  0.11477976071E+00  0.90007745711E+02  0.90000007154E+02 0.  0.
         12    1    1    2    0    0 -0.71177320170E+00  0.93445422772E+00 -0.11477976071E+00  0.11802542895E+01  0.00000000000E+00 0. -1.
         11    1    3    3    0    0 -0.24541139948E+01 -0.12927285140E+01 -0.88728171624E+01  0.92962738325E+01  0.51100000000E-03 0. -1.
        -11    1    3    3    0    0  0.10912236896E+02 -0.56921255183E+01 -0.34237728119E+02  0.36382677664E+02  0.51100000000E-03 0.  1.
         12    1    3    3    0    0 -0.77463496996E+01  0.60503998045E+01  0.43225325042E+02  0.44328794214E+02  0.00000000000E+00 0. -1.
</event>
<event>
 7    1  0.4400431E-015  0.9000808E+02  0.7816164E-02  0.1186338E+00
        -11   -1    0    0    0    0  0.00000000000E+00  0.00000000000E+00  0.45593999997E+02  0.45594000000E+02  0.51100000000E-03 0. -1.
         11   -1    0    0    0    0 -0.00000000000E+00 -0.00000000000E+00 -0.45593999997E+02  0.45594000000E+02  0.51100000000E-03 0.  1.
    9900012    2    1    2    0    0 -0.10137040498E+01 -0.59093556490E+00  0.12410735107E+00  0.90008083318E+02  0.90000349217E+02 0.  0.
         12    1    1    2    0    0  0.10137040498E+01  0.59093556490E+00 -0.12410735107E+00  0.11799166823E+01  0.00000000000E+00 0. -1.
         11    1    3    3    0    0  0.15511754496E+01 -0.75718538479E+01 -0.49001582977E+01  0.91515390822E+01  0.51100000000E-03 0. -1.
        -11    1    3    3    0    0  0.26714644461E+02 -0.14533710387E+02 -0.20302631356E+02  0.36566348006E+02  0.51100000000E-03 0.  1.
         12    1    3    3    0    0 -0.29279523960E+02  0.21514628670E+02  0.25326897004E+02  0.44290196229E+02  0.00000000000E+00 0. -1.
</event>
<event>
 7    1  0.4400431E-015  0.9000781E+02  0.7816164E-02  0.1186339E+00
        -11   -1    0    0    0    0  0.00000000000E+00  0.00000000000E+00  0.45593999997E+02  0.45594000000E+02  0.51100000000E-03 0. -1.
         11   -1    0    0    0    0 -0.00000000000E+00 -0.00000000000E+00 -0.45593999997E+02  0.45594000000E+02  0.51100000000E-03 0.  1.
    9900012    2    1    2    0    0  0.89748125045E+00  0.38564426486E+00 -0.66231757759E+00  0.90007805665E+02  0.90000067900E+02 0.  0.
         12    1    1    2    0    0 -0.89748125045E+00 -0.38564426486E+00  0.66231757759E+00  0.11801943346E+01  0.00000000000E+00 0. -1.
         11    1    3    3    0    0 -0.18140321282E+01  0.50563487594E+01 -0.78653293837E+01  0.95247457664E+01  0.51100000000E-03 0. -1.
        -11    1    3    3    0    0  0.35109741452E+02 -0.17878124225E+02  0.18758667686E+02  0.43637241941E+02  0.51100000000E-03 0.  1.
         12    1    3    3    0    0 -0.32398228073E+02  0.13207419730E+02 -0.11555655880E+02  0.36845817958E+02  0.00000000000E+00 0. -1.
</event>
<event>
 7    1  0.4400431E-015  0.9000773E+02  0.7816164E-02  0.1186339E+00
        -11   -1    0    0    0    0  0.00000000000E+00  0.00000000000E+00  0.45593999997E+02  0.45594000000E+02  0.51100000000E-03 0.  1.
         11   -1    0    0    0    0 -0.00000000000E+00 -0.00000000000E+00 -0.45593999997E+02  0.45594000000E+02  0.51100000000E-03 0. -1.
    9900012    2    1    2    0    0 -0.35335285620E+00  0.86647972669E+00  0.71929950101E+00  0.90007730061E+02  0.89999991297E+02 0.  0.
         12    1    1    2    0    0  0.35335285620E+00 -0.86647972669E+00 -0.71929950101E+00  0.11802699394E+01  0.00000000000E+00 0. -1.
         11    1    3    3    0    0 -0.17836165858E+02 -0.28310939686E+02 -0.20760854994E+02  0.39378308988E+02  0.51100000000E-03 0. -1.
        -11    1    3    3    0    0  0.23285254901E+01 -0.61499402312E+01  0.68591524742E+01  0.95021981000E+01  0.51100000000E-03 0.  1.
        -12    1    3    3    0    0  0.15154287512E+02  0.35327359643E+02  0.14621002021E+02  0.41127222973E+02  0.00000000000E+00 0.  1.
</event>
<event>
 7    1  0.4400431E-015  0.9000764E+02  0.7816164E-02  0.1186339E+00
        -11   -1    0    0    0    0  0.00000000000E+00  0.00000000000E+00  0.45593999997E+02  0.45594000000E+02  0.51100000000E-03 0.  1.
         11   -1    0    0    0    0 -0.00000000000E+00 -0.00000000000E+00 -0.45593999997E+02  0.45594000000E+02  0.51100000000E-03 0. -1.
    9900012    2    1    2    0    0  0.91443303061E+00 -0.73810958198E+00 -0.11066613488E+00  0.90007643903E+02  0.89999904002E+02 0.  0.
         12    1    1    2    0    0 -0.91443303061E+00  0.73810958198E+00  0.11066613488E+00  0.11803560971E+01  0.00000000000E+00 0. -1.
         11    1    3    3    0    0 -0.20522198102E+02  0.11784779232E+02 -0.30212053620E+02  0.38377204440E+02  0.51100000000E-03 0. -1.
        -11    1    3    3    0    0 -0.81087174365E+01 -0.34465207421E+01  0.48604889106E+00  0.88241740393E+01  0.51100000000E-03 0.  1.
        -12    1    3    3    0    0  0.29545348569E+02 -0.90763680719E+01  0.29615338594E+02  0.42806265423E+02  0.00000000000E+00 0.  1.
</event>
<event>
 7    1  0.4400431E-015  0.9000761E+02  0.7816164E-02  0.1186339E+00
        -11   -1    0    0    0    0  0.00000000000E+00  0.00000000000E+00  0.45593999997E+02  0.45594000000E+02  0.51100000000E-03 0.  1.
         11   -1    0    0    0    0 -0.00000000000E+00 -0.00000000000E+00 -0.45593999997E+02  0.45594000000E+02  0.51100000000E-03 0. -1.
    9900012    2    1    2    0    0  0.16420306078E-01 -0.11798925550E+01 -0.29961564871E-01  0.90007612876E+02  0.89999872566E+02 0.  0.
         12    1    1    2    0    0 -0.16420306078E-01  0.11798925550E+01  0.29961564871E-01  0.11803871243E+01  0.00000000000E+00 0. -1.
         11    1    3    3    0    0  0.74244109342E-01  0.76396068521E+01  0.65495707401E+01  0.10063100028E+02  0.51100000000E-03 0. -1.
        -11    1    3    3    0    0  0.34665668150E+02  0.14407611786E+02 -0.68900495410E+01  0.38167533436E+02  0.51100000000E-03 0.  1.
         12    1    3    3    0    0 -0.34723491953E+02 -0.23227111193E+02  0.31051723601E+00  0.41776979411E+02  0.00000000000E+00 0. -1.
</event>
<event>
 7    1  0.4400431E-015  0.9000788E+02  0.7816164E-02  0.1186339E+00
        -11   -1    0    0    0    0  0.00000000000E+00  0.00000000000E+00  0.45593999997E+02  0.45594000000E+02  0.51100000000E-03 0. -1.
         11   -1    0    0    0    0 -0.00000000000E+00 -0.00000000000E+00 -0.45593999997E+02  0.45594000000E+02  0.51100000000E-03 0.  1.
    9900012    2    1    2    0    0  0.95085216423E-01  0.11211759027E+01 -0.35580452278E+00  0.90007884132E+02  0.90000147403E+02 0.  0.
         12    1    1    2    0    0 -0.95085216423E-01 -0.11211759027E+01  0.35580452278E+00  0.11801158678E+01  0.00000000000E+00 0. -1.
         11    1    3    3    0    0 -0.33716188549E+02  0.80473604123E+01 -0.18894761302E+02  0.39478518017E+02  0.51100000000E-03 0. -1.
        -11    1    3    3    0    0 -0.89484696788E-01  0.74137393169E+01 -0.28663603496E+01  0.79490603271E+01  0.51100000000E-03 0.  1.
        -12    1    3    3    0    0  0.33900758462E+02 -0.14339923827E+02  0.21405317128E+02  0.42580305788E+02  0.00000000000E+00 0.  1.
</event>
<event>
 7    1  0.4400431E-015  0.9000776E+02  0.7816164E-02  0.1186339E+00
        -11   -1    0    0    0    0  0.00000000000E+00  0.00000000000E+00  0.45593999997E+02  0.45594000000E+02  0.51100000000E-03 0. -1.
         11   -1    0    0    0    0 -0.00000000000E+00 -0.00000000000E+00 -0.45593999997E+02  0.45594000000E+02  0.51100000000E-03 0.  1.
    9900012    2    1    2    0    0 -0.15345314587E+00 -0.11693918760E+01  0.44045516974E-01  0.90007760518E+02  0.90000022157E+02 0.  0.
         12    1    1    2    0    0  0.15345314587E+00  0.11693918760E+01 -0.44045516974E-01  0.11802394821E+01  0.00000000000E+00 0. -1.
         11    1    3    3    0    0 -0.16490624565E+02 -0.18260953433E+02  0.24273937038E+02  0.34563378574E+02  0.51100000000E-03 0. -1.
        -11    1    3    3    0    0  0.23570060495E+01 -0.83571813632E+01  0.81805612185E+01  0.11929775353E+02  0.51100000000E-03 0.  1.
        -12    1    3    3    0    0  0.13980165369E+02  0.25448742921E+02 -0.32410452740E+02  0.43514606591E+02  0.00000000000E+00 0.  1.
</event>
<event>
 7    1  0.4400431E-015  0.9000780E+02  0.7816164E-02  0.1186339E+00
        -11   -1    0    0    0    0  0.00000000000E+00  0.00000000000E+00  0.45593999997E+02  0.45594000000E+02  0.51100000000E-03 0.  1.
         11   -1    0    0    0    0 -0.00000000000E+00 -0.00000000000E+00 -0.45593999997E+02  0.45594000000E+02  0.51100000000E-03 0. -1.
    9900012    2    1    2    0    0  0.29930670500E+00  0.94518421494E+00  0.64023671816E+00  0.90007804779E+02  0.90000067002E+02 0.  0.
         12    1    1    2    0    0 -0.29930670500E+00 -0.94518421494E+00 -0.64023671816E+00  0.11801952208E+01  0.00000000000E+00 0. -1.
         11    1    3    3    0    0  0.15836391309E+02  0.33174161341E+01  0.15936664911E+02  0.22710654509E+02  0.51100000000E-03 0. -1.
        -11    1    3    3    0    0 -0.22598912716E+02 -0.10370846833E+01  0.20655503656E+02  0.30633906577E+02  0.51100000000E-03 0.  1.
         12    1    3    3    0    0  0.70618281121E+01 -0.13351472359E+01 -0.35951931849E+02  0.36663243693E+02  0.00000000000E+00 0. -1.
</event>
<event>
 7    1  0.4400431E-015  0.9000768E+02  0.7816164E-02  0.1186339E+00
        -11   -1    0    0    0    0  0.00000000000E+00  0.00000000000E+00  0.45593999997E+02  0.45594000000E+02  0.51100000000E-03 0. -1.
         11   -1    0    0    0    0 -0.00000000000E+00 -0.00000000000E+00 -0.45593999997E+02  0.45594000000E+02  0.51100000000E-03 0.  1.
    9900012    2    1    2    0    0  0.20680798935E+00 -0.40209801052E+00 -0.10902788085E+01  0.90007677911E+02  0.89999938459E+02 0.  0.
         12    1    1    2    0    0 -0.20680798935E+00  0.40209801052E+00  0.10902788085E+01  0.11803220894E+01  0.00000000000E+00 0. -1.
         11    1    3    3    0    0 -0.85997210772E+01  0.21229557332E+02  0.23574589884E+02  0.32869599869E+02  0.51100000000E-03 0. -1.
        -11    1    3    3    0    0 -0.17662091504E+02 -0.17093775826E+02 -0.99585007723E+01  0.26520150568E+02  0.51100000000E-03 0.  1.
        -12    1    3    3    0    0  0.26468620570E+02 -0.45378795166E+01 -0.14706367920E+02  0.30617927474E+02  0.00000000000E+00 0.  1.
</event>
<event>
 7    1  0.4400431E-015  0.9000769E+02  0.7816164E-02  0.1186339E+00
        -11   -1    0    0    0    0  0.00000000000E+00  0.00000000000E+00  0.45593999997E+02  0.45594000000E+02  0.51100000000E-03 0.  1.
         11   -1    0    0    0    0 -0.00000000000E+00 -0.00000000000E+00 -0.45593999997E+02  0.45594000000E+02  0.51100000000E-03 0. -1.
    9900012    2    1    2    0    0 -0.10275409996E+01  0.37340168277E+00  0.44480651205E+00  0.90007694041E+02  0.89999954803E+02 0.  0.
         12    1    1    2    0    0  0.10275409996E+01 -0.37340168277E+00 -0.44480651205E+00  0.11803059585E+01  0.00000000000E+00 0. -1.
         11    1    3    3    0    0  0.23605688280E+01  0.89332079851E+01  0.24063462923E+00  0.92429646425E+01  0.51100000000E-03 0. -1.
        -11    1    3    3    0    0 -0.11780363215E+02  0.57236541214E+01  0.37625769301E+02  0.39840126628E+02  0.51100000000E-03 0.  1.
         12    1    3    3    0    0  0.83922533878E+01 -0.14283460424E+02 -0.37421597418E+02  0.40924602771E+02  0.00000000000E+00 0. -1.
</event>
<event>
 7    1  0.4400431E-015  0.9000777E+02  0.7816164E-02  0.1186339E+00
        -11   -1    0    0    0    0  0.00000000000E+00  0.00000000000E+00  0.45593999997E+02  0.45594000000E+02  0.51100000000E-03 0.  1.
         11   -1    0    0    0    0 -0.00000000000E+00 -0.00000000000E+00 -0.45593999997E+02  0.45594000000E+02  0.51100000000E-03 0. -1.
    9900012    2    1    2    0    0  0.51497364489E+00  0.53290596702E+00  0.91856176679E+00  0.90007770216E+02  0.90000031982E+02 0.  0.
         12    1    1    2    0    0 -0.51497364489E+00 -0.53290596702E+00 -0.91856176679E+00  0.11802297844E+01  0.00000000000E+00 0. -1.
         11    1    3    3    0    0  0.34016056853E+01 -0.69317665772E+01 -0.36097269843E+02  0.36913861888E+02  0.51100000000E-03 0. -1.
        -11    1    3    3    0    0 -0.82426132054E+01 -0.51454570225E+01 -0.34972119530E+01  0.10326998215E+02  0.51100000000E-03 0.  1.
        -12    1    3    3    0    0  0.53559811650E+01  0.12610129567E+02  0.40513043562E+02  0.42766910113E+02  0.00000000000E+00 0.  1.
</event>
<event>
 7    1  0.4400431E-015  0.9000770E+02  0.7816164E-02  0.1186339E+00
        -11   -1    0    0    0    0  0.00000000000E+00  0.00000000000E+00  0.45593999997E+02  0.45594000000E+02  0.51100000000E-03 0. -1.
         11   -1    0    0    0    0 -0.00000000000E+00 -0.00000000000E+00 -0.45593999997E+02  0.45594000000E+02  0.51100000000E-03 0.  1.
    9900012    2    1    2    0    0 -0.80967114836E+00  0.52075738233E+00 -0.68290233883E+00  0.90007698672E+02  0.89999959495E+02 0.  0.
         12    1    1    2    0    0  0.80967114836E+00 -0.52075738233E+00  0.68290233883E+00  0.11803013277E+01  0.00000000000E+00 0. -1.
         11    1    3    3    0    0  0.29046539074E+02  0.26238750178E+02  0.26029351446E+01  0.39229436839E+02  0.51100000000E-03 0. -1.
        -11    1    3    3    0    0 -0.26887911658E+01  0.55631781565E+01  0.56740415490E+01  0.83888793587E+01  0.51100000000E-03 0.  1.
        -12    1    3    3    0    0 -0.27167419056E+02 -0.31281170952E+02 -0.89598790323E+01  0.42389382475E+02  0.00000000000E+00 0.  1.
</event>
<event>
 7    1  0.4400431E-015  0.9000776E+02  0.7816164E-02  0.1186339E+00
        -11   -1    0    0    0    0  0.00000000000E+00  0.00000000000E+00  0.45593999997E+02  0.45594000000E+02  0.51100000000E-03 0. -1.
         11   -1    0    0    0    0 -0.00000000000E+00 -0.00000000000E+00 -0.45593999997E+02  0.45594000000E+02  0.51100000000E-03 0.  1.
    9900012    2    1    2    0    0 -0.81719876624E+00 -0.83939397035E+00 -0.14342932082E+00  0.90007759333E+02  0.90000020957E+02 0.  0.
         12    1    1    2    0    0  0.81719876624E+00  0.83939397035E+00  0.14342932082E+00  0.11802406666E+01  0.00000000000E+00 0. -1.
         11    1    3    3    0    0 -0.21515315788E+01  0.55190825375E+01  0.76209743081E+01  0.96523888161E+01  0.51100000000E-03 0. -1.
        -11    1    3    3    0    0  0.22829211659E+02  0.29817949722E+02  0.59426980805E-01  0.37553782266E+02  0.51100000000E-03 0.  1.
         12    1    3    3    0    0 -0.21494878847E+02 -0.36176426230E+02 -0.78238306098E+01  0.42801588251E+02  0.00000000000E+00 0. -1.
</event>
<event>
 7    1  0.4400431E-015  0.9000772E+02  0.7816164E-02  0.1186339E+00
        -11   -1    0    0    0    0  0.00000000000E+00  0.00000000000E+00  0.45593999997E+02  0.45594000000E+02  0.51100000000E-03 0.  1.
         11   -1    0    0    0    0 -0.00000000000E+00 -0.00000000000E+00 -0.45593999997E+02  0.45594000000E+02  0.51100000000E-03 0. -1.
    9900012    2    1    2    0    0 -0.70727231009E+00 -0.67538319984E+00 -0.66082406037E+00  0.90007718243E+02  0.89999979324E+02 0.  0.
         12    1    1    2    0    0  0.70727231009E+00  0.67538319984E+00  0.66082406037E+00  0.11802817570E+01  0.00000000000E+00 0. -1.
         11    1    3    3    0    0  0.38674431938E+01  0.72840191172E+01  0.19175498003E+01  0.84670566820E+01  0.51100000000E-03 0. -1.
        -11    1    3    3    0    0 -0.17059474161E+02 -0.62070629680E+01  0.36344999210E+02  0.40626496983E+02  0.51100000000E-03 0.  1.
         12    1    3    3    0    0  0.12484758657E+02 -0.17523393491E+01 -0.38923373070E+02  0.40914164578E+02  0.00000000000E+00 0. -1.
</event>
<event>
 7    1  0.4400431E-015  0.9000790E+02  0.7816164E-02  0.1186339E+00
        -11   -1    0    0    0    0  0.00000000000E+00  0.00000000000E+00  0.45593999997E+02  0.45594000000E+02  0.51100000000E-03 0. -1.
         11   -1    0    0    0    0 -0.00000000000E+00 -0.00000000000E+00 -0.45593999997E+02  0.45594000000E+02  0.51100000000E-03 0.  1.
    9900012    2    1    2    0    0  0.43978735057E+00  0.44023144190E-01 -0.10942089898E+01  0.90007896503E+02  0.90000159936E+02 0.  0.
         12    1    1    2    0    0 -0.43978735057E+00 -0.44023144190E-01  0.10942089898E+01  0.11801034973E+01  0.00000000000E+00 0. -1.
         11    1    3    3    0    0  0.36055118180E+01  0.40747276749E+02 -0.12437817152E+02  0.42755579446E+02  0.51100000000E-03 0. -1.
        -11    1    3    3    0    0  0.16171698217E+01 -0.67341706345E+01 -0.56794957599E+01  0.89566156954E+01  0.51100000000E-03 0.  1.
        -12    1    3    3    0    0 -0.47828942892E+01 -0.33969082971E+02  0.17023103922E+02  0.38295701362E+02  0.00000000000E+00 0.  1.
</event>
<event>
 7    1  0.4400431E-015  0.9000772E+02  0.7816164E-02  0.1186339E+00
        -11   -1    0    0    0    0  0.00000000000E+00  0.00000000000E+00  0.45593999997E+02  0.45594000000E+02  0.51100000000E-03 0.  1.
         11   -1    0    0    0    0 -0.00000000000E+00 -0.00000000000E+00 -0.45593999997E+02  0.45594000000E+02  0.51100000000E-03 0. -1.
    9900012    2    1    2    0    0  0.65199938116E+00  0.89411677121E+00 -0.41050305625E+00  0.90007720053E+02  0.89999981158E+02 0.  0.
         12    1    1    2    0    0 -0.65199938116E+00 -0.89411677121E+00  0.41050305625E+00  0.11802799468E+01  0.00000000000E+00 0. -1.
         11    1    3    3    0    0 -0.36654919305E+01  0.66726964814E+01 -0.87960231128E-01  0.76137012477E+01  0.51100000000E-03 0. -1.
        -11    1    3    3    0    0 -0.12257603483E+02  0.82862638531E+01  0.36639117924E+02  0.39513744119E+02  0.51100000000E-03 0.  1.
         12    1    3    3    0    0  0.16575094795E+02 -0.14064843563E+02 -0.36961660749E+02  0.42880274687E+02  0.00000000000E+00 0. -1.
</event>
<event>
 7    1  0.4400431E-015  0.9000769E+02  0.7816164E-02  0.1186339E+00
        -11   -1    0    0    0    0  0.00000000000E+00  0.00000000000E+00  0.45593999997E+02  0.45594000000E+02  0.51100000000E-03 0.  1.
         11   -1    0    0    0    0 -0.00000000000E+00 -0.00000000000E+00 -0.45593999997E+02  0.45594000000E+02  0.51100000000E-03 0. -1.
    9900012    2    1    2    0    0  0.23458225263E+00  0.13639322712E+00  0.11486975358E+01  0.90007687340E+02  0.89999948013E+02 0.  0.
         12    1    1    2    0    0 -0.23458225263E+00 -0.13639322712E+00 -0.11486975358E+01  0.11803126596E+01  0.00000000000E+00 0. -1.
         11    1    3    3    0    0 -0.18491482426E+01  0.10914501015E+02 -0.31073559465E+00  0.11074395627E+02  0.51100000000E-03 0. -1.
        -11    1    3    3    0    0 -0.11186049614E+02 -0.27446074292E+02  0.30753818914E+02  0.42710795803E+02  0.51100000000E-03 0.  1.
         12    1    3    3    0    0  0.13269780109E+02  0.16667966504E+02 -0.29294385784E+02  0.36222495911E+02  0.00000000000E+00 0. -1.
</event>
<event>
 7    1  0.4400431E-015  0.9000776E+02  0.7816164E-02  0.1186339E+00
        -11   -1    0    0    0    0  0.00000000000E+00  0.00000000000E+00  0.45593999997E+02  0.45594000000E+02  0.51100000000E-03 0.  1.
         11   -1    0    0    0    0 -0.00000000000E+00 -0.00000000000E+00 -0.45593999997E+02  0.45594000000E+02  0.51100000000E-03 0. -1.
    9900012    2    1    2    0    0 -0.90246309724E+00 -0.29685059046E+00  0.70028583493E+00  0.90007762666E+02  0.90000024333E+02 0.  0.
         12    1    1    2    0    0  0.90246309724E+00  0.29685059046E+00 -0.70028583493E+00  0.11802373344E+01  0.00000000000E+00 0. -1.
         11    1    3    3    0    0  0.86422934007E+01  0.36769538519E+01 -0.19544018036E+00  0.93940098987E+01  0.51100000000E-03 0. -1.
        -11    1    3    3    0    0  0.34195933512E+02 -0.79429127670E+01  0.82987061694E+01  0.36073816770E+02  0.51100000000E-03 0.  1.
         12    1    3    3    0    0 -0.43740690010E+02  0.39691083246E+01 -0.74029801541E+01  0.44539935997E+02  0.00000000000E+00 0. -1.
</event>
<event>
 7    1  0.4400431E-015  0.9000775E+02  0.7816164E-02  0.1186339E+00
        -11   -1    0    0    0    0  0.00000000000E+00  0.00000000000E+00  0.45593999997E+02  0.45594000000E+02  0.51100000000E-03 0. -1.
         11   -1    0    0    0    0 -0.00000000000E+00 -0.00000000000E+00 -0.45593999997E+02  0.45594000000E+02  0.51100000000E-03 0.  1.
    9900012    2    1    2    0    0 -0.79868988645E+00  0.86267278787E+00 -0.10428605633E+00  0.90007751952E+02  0.90000013478E+02 0.  0.
         12    1    1    2    0    0  0.79868988645E+00 -0.86267278787E+00  0.10428605633E+00  0.11802480482E+01  0.00000000000E+00 0. -1.
         11    1    3    3    0    0 -0.72612399272E+01 -0.37165886148E+01  0.84639520487E+01  0.11754876467E+02  0.51100000000E-03 0. -1.
        -11    1    3    3    0    0 -0.23773123549E+02 -0.22999780336E+02 -0.15860601583E+02  0.36683919932E+02  0.51100000000E-03 0.  1.
         12    1    3    3    0    0  0.30235673589E+02  0.27579041739E+02  0.72923634775E+01  0.41568955553E+02  0.00000000000E+00 0. -1.
</event>
<event>
 7    1  0.4400431E-015  0.9000771E+02  0.7816164E-02  0.1186339E+00
        -11   -1    0    0    0    0  0.00000000000E+00  0.00000000000E+00  0.45593999997E+02  0.45594000000E+02  0.51100000000E-03 0.  1.
         11   -1    0    0    0    0 -0.00000000000E+00 -0.00000000000E+00 -0.45593999997E+02  0.45594000000E+02  0.51100000000E-03 0. -1.
    9900012    2    1    2    0    0 -0.69583591306E+00 -0.69559235686E+00  0.65194911892E+00  0.90007714442E+02  0.89999975473E+02 0.  0.
         12    1    1    2    0    0  0.69583591306E+00  0.69559235686E+00 -0.65194911892E+00  0.11802855580E+01  0.00000000000E+00 0. -1.
         11    1    3    3    0    0 -0.33996052841E+02 -0.48370312267E+01  0.86884811356E+01  0.35420589839E+02  0.51100000000E-03 0. -1.
        -11    1    3    3    0    0 -0.48623584159E+01 -0.64818216062E+01  0.84251575068E+01  0.11689303657E+02  0.51100000000E-03 0.  1.
        -12    1    3    3    0    0  0.38162575344E+02  0.10623260476E+02 -0.16461689523E+02  0.42897820947E+02  0.00000000000E+00 0.  1.
</event>
<event>
 7    1  0.4400431E-015  0.9000772E+02  0.7816164E-02  0.1186339E+00
        -11   -1    0    0    0    0  0.00000000000E+00  0.00000000000E+00  0.45593999997E+02  0.45594000000E+02  0.51100000000E-03 0. -1.
         11   -1    0    0    0    0 -0.00000000000E+00 -0.00000000000E+00 -0.45593999997E+02  0.45594000000E+02  0.51100000000E-03 0.  1.
    9900012    2    1    2    0    0 -0.78505873374E-01  0.11756071179E+01 -0.69545036103E-01  0.90007723854E+02  0.89999985009E+02 0.  0.
         12    1    1    2    0    0  0.78505873374E-01 -0.11756071179E+01  0.69545036103E-01  0.11802761456E+01  0.00000000000E+00 0. -1.
         11    1    3    3    0    0 -0.14406637895E+02 -0.14866220785E+02  0.31638975607E+02  0.37809793885E+02  0.51100000000E-03 0. -1.
        -11    1    3    3    0    0  0.11662161558E+02 -0.48480208806E+01  0.16614162382E+01  0.12738509444E+02  0.51100000000E-03 0.  1.
        -12    1    3    3    0    0  0.26659704638E+01  0.20889848784E+02 -0.33369936882E+02  0.39459420526E+02  0.00000000000E+00 0.  1.
</event>
<event>
 7    1  0.4400431E-015  0.9000776E+02  0.7816164E-02  0.1186339E+00
        -11   -1    0    0    0    0  0.00000000000E+00  0.00000000000E+00  0.45593999997E+02  0.45594000000E+02  0.51100000000E-03 0. -1.
         11   -1    0    0    0    0 -0.00000000000E+00 -0.00000000000E+00 -0.45593999997E+02  0.45594000000E+02  0.51100000000E-03 0.  1.
    9900012    2    1    2    0    0  0.88764898117E+00  0.69741249799E+00  0.34447361893E+00  0.90007759779E+02  0.90000021408E+02 0.  0.
         12    1    1    2    0    0 -0.88764898117E+00 -0.69741249799E+00 -0.34447361893E+00  0.11802402214E+01  0.00000000000E+00 0. -1.
         11    1    3    3    0    0 -0.23236313641E+02 -0.12256953366E+02  0.24259093533E+02  0.35758394773E+02  0.51100000000E-03 0. -1.
        -11    1    3    3    0    0 -0.24421940864E+01 -0.95619569452E+01  0.29126532991E+01  0.10289746454E+02  0.51100000000E-03 0.  1.
        -12    1    3    3    0    0  0.26566156709E+02  0.22516322809E+02 -0.26827273213E+02  0.43959618552E+02  0.00000000000E+00 0.  1.
</event>
<event>
 7    1  0.4400431E-015  0.9000714E+02  0.7816164E-02  0.1186340E+00
        -11   -1    0    0    0    0  0.00000000000E+00  0.00000000000E+00  0.45593999997E+02  0.45594000000E+02  0.51100000000E-03 0. -1.
         11   -1    0    0    0    0 -0.00000000000E+00 -0.00000000000E+00 -0.45593999997E+02  0.45594000000E+02  0.51100000000E-03 0.  1.
    9900012    2    1    2    0    0  0.10471845103E+01 -0.41500902677E+00 -0.35441280815E+00  0.90007137464E+02  0.89999390876E+02 0.  0.
         12    1    1    2    0    0 -0.10471845103E+01  0.41500902677E+00  0.35441280815E+00  0.11808625362E+01  0.00000000000E+00 0. -1.
         11    1    3    3    0    0  0.37274377920E+02  0.29709061391E+01  0.20175319691E+02  0.42488222574E+02  0.51100000000E-03 0. -1.
        -11    1    3    3    0    0 -0.72699131982E+01 -0.43933351635E+01  0.41538647728E+01  0.94555605111E+01  0.51100000000E-03 0.  1.
        -12    1    3    3    0    0 -0.28957280211E+02  0.10074199976E+01 -0.24683597272E+02  0.38063354379E+02  0.00000000000E+00 0.  1.
</event>
<event>
 7    1  0.4400431E-015  0.9000773E+02  0.7816164E-02  0.1186339E+00
        -11   -1    0    0    0    0  0.00000000000E+00  0.00000000000E+00  0.45593999997E+02  0.45594000000E+02  0.51100000000E-03 0. -1.
         11   -1    0    0    0    0 -0.00000000000E+00 -0.00000000000E+00 -0.45593999997E+02  0.45594000000E+02  0.51100000000E-03 0.  1.
    9900012    2    1    2    0    0 -0.18451395213E+00  0.53531748257E-01 -0.11645295029E+01  0.90007728841E+02  0.89999990061E+02 0.  0.
         12    1    1    2    0    0  0.18451395213E+00 -0.53531748257E-01  0.11645295029E+01  0.11802711594E+01  0.00000000000E+00 0. -1.
         11    1    3    3    0    0  0.15222883291E+01  0.78020496202E+01  0.61576378624E+01  0.10055140195E+02  0.51100000000E-03 0. -1.
        -11    1    3    3    0    0  0.35382087441E+02  0.80351586030E+01  0.74193404823E+01  0.37033802112E+02  0.51100000000E-03 0.  1.
         12    1    3    3    0    0 -0.37088889722E+02 -0.15783676475E+02 -0.14741507848E+02  0.42918786533E+02  0.00000000000E+00 0. -1.
</event>
<event>
 7    1  0.4400431E-015  0.9000753E+02  0.7816164E-02  0.1186339E+00
        -11   -1    0    0    0    0  0.00000000000E+00  0.00000000000E+00  0.45593999997E+02  0.45594000000E+02  0.51100000000E-03 0. -1.
         11   -1    0    0    0    0 -0.00000000000E+00 -0.00000000000E+00 -0.45593999997E+02  0.45594000000E+02  0.51100000000E-03 0.  1.
    9900012    2    1    2    0    0  0.86635584632E+00 -0.44706896202E+00  0.66562731967E+00  0.90007532788E+02  0.89999791421E+02 0.  0.
         12    1    1    2    0    0 -0.86635584632E+00  0.44706896202E+00 -0.66562731967E+00  0.11804672117E+01  0.00000000000E+00 0. -1.
         11    1    3    3    0    0  0.44695208260E+01 -0.60409295076E+00 -0.28705131622E+01  0.53461566366E+01  0.51100000000E-03 0. -1.
        -11    1    3    3    0    0  0.46795519398E+01  0.41832480184E+02  0.13725433343E+01  0.42115774719E+02  0.51100000000E-03 0.  1.
         12    1    3    3    0    0 -0.82827169195E+01 -0.41675456195E+02  0.21635971476E+01  0.42545601433E+02  0.00000000000E+00 0. -1.
</event>
<event>
 7    1  0.4400431E-015  0.9000773E+02  0.7816164E-02  0.1186339E+00
        -11   -1    0    0    0    0  0.00000000000E+00  0.00000000000E+00  0.45593999997E+02  0.45594000000E+02  0.51100000000E-03 0. -1.
         11   -1    0    0    0    0 -0.00000000000E+00 -0.00000000000E+00 -0.45593999997E+02  0.45594000000E+02  0.51100000000E-03 0.  1.
    9900012    2    1    2    0    0 -0.81724385006E+00  0.13940122822E+00 -0.84007254435E+00  0.90007727958E+02  0.89999989167E+02 0.  0.
         12    1    1    2    0    0  0.81724385006E+00 -0.13940122822E+00  0.84007254435E+00  0.11802720418E+01  0.00000000000E+00 0. -1.
         11    1    3    3    0    0 -0.66460057428E+00  0.41916532955E+01 -0.86767563371E+01  0.96590761498E+01  0.51100000000E-03 0. -1.
        -11    1    3    3    0    0  0.30459618715E+02  0.99946018639E+01 -0.19016065560E+02  0.37273196647E+02  0.51100000000E-03 0.  1.
         12    1    3    3    0    0 -0.30612261991E+02 -0.14046853931E+02  0.26852749353E+02  0.43075455161E+02  0.00000000000E+00 0. -1.
</event>
<event>
 7    1  0.4400431E-015  0.9000774E+02  0.7816164E-02  0.1186339E+00
        -11   -1    0    0    0    0  0.00000000000E+00  0.00000000000E+00  0.45593999997E+02  0.45594000000E+02  0.51100000000E-03 0.  1.
         11   -1    0    0    0    0 -0.00000000000E+00 -0.00000000000E+00 -0.45593999997E+02  0.45594000000E+02  0.51100000000E-03 0. -1.
    9900012    2    1    2    0    0 -0.62300498025E+00  0.78346504135E+00  0.62534298244E+00  0.90007743027E+02  0.90000004435E+02 0.  0.
         12    1    1    2    0    0  0.62300498025E+00 -0.78346504135E+00 -0.62534298244E+00  0.11802569729E+01  0.00000000000E+00 0. -1.
         11    1    3    3    0    0 -0.35488489642E+02 -0.17758926219E+02  0.13715722497E+02  0.41987300478E+02  0.51100000000E-03 0. -1.
        -11    1    3    3    0    0 -0.37544347600E+00  0.93712509976E+01 -0.16628533115E+00  0.93802427547E+01  0.51100000000E-03 0.  1.
        -12    1    3    3    0    0  0.35240928138E+02  0.91711402626E+01 -0.12924094184E+02  0.38640199795E+02  0.00000000000E+00 0.  1.
</event>
<event>
 7    1  0.4400431E-015  0.9000767E+02  0.7816164E-02  0.1186339E+00
        -11   -1    0    0    0    0  0.00000000000E+00  0.00000000000E+00  0.45593999997E+02  0.45594000000E+02  0.51100000000E-03 0.  1.
         11   -1    0    0    0    0 -0.00000000000E+00 -0.00000000000E+00 -0.45593999997E+02  0.45594000000E+02  0.51100000000E-03 0. -1.
    9900012    2    1    2    0    0 -0.10899339721E+01  0.71865014545E-01 -0.44728309260E+00  0.90007668348E+02  0.89999928770E+02 0.  0.
         12    1    1    2    0    0  0.10899339721E+01 -0.71865014545E-01  0.44728309260E+00  0.11803316520E+01  0.00000000000E+00 0. -1.
         11    1    3    3    0    0  0.30561609800E+02 -0.24678641195E+02 -0.25234747161E+01  0.39362612333E+02  0.51100000000E-03 0. -1.
        -11    1    3    3    0    0 -0.77242286853E+01 -0.72059138197E+01  0.18412246581E+01  0.10722826645E+02  0.51100000000E-03 0.  1.
        -12    1    3    3    0    0 -0.23927315087E+02  0.31956420029E+02  0.23496696539E+00  0.39922229369E+02  0.00000000000E+00 0.  1.
</event>
<event>
 7    1  0.4400431E-015  0.9000768E+02  0.7816164E-02  0.1186339E+00
        -11   -1    0    0    0    0  0.00000000000E+00  0.00000000000E+00  0.45593999997E+02  0.45594000000E+02  0.51100000000E-03 0. -1.
         11   -1    0    0    0    0 -0.00000000000E+00 -0.00000000000E+00 -0.45593999997E+02  0.45594000000E+02  0.51100000000E-03 0.  1.
    9900012    2    1    2    0    0  0.90601930284E+00  0.41407323579E+00  0.63311761055E+00  0.90007675667E+02  0.89999936186E+02 0.  0.
         12    1    1    2    0    0 -0.90601930284E+00 -0.41407323579E+00 -0.63311761055E+00  0.11803243328E+01  0.00000000000E+00 0. -1.
         11    1    3    3    0    0  0.12109107785E+02  0.17471949427E+02  0.37965448066E+02  0.43511777201E+02  0.51100000000E-03 0. -1.
        -11    1    3    3    0    0  0.25535304099E+01  0.19914692455E+01 -0.96865982400E+01  0.10213552420E+02  0.51100000000E-03 0.  1.
        -12    1    3    3    0    0 -0.13756618892E+02 -0.19049345436E+02 -0.27645732215E+02  0.36282346046E+02  0.00000000000E+00 0.  1.
</event>
<event>
 7    1  0.4999734E-015  0.9000771E+02  0.7816164E-02  0.1186339E+00
        -11   -1    0    0    0    0  0.00000000000E+00  0.00000000000E+00  0.45593999997E+02  0.45594000000E+02  0.51100000000E-03 0.  1.
         11   -1    0    0    0    0 -0.00000000000E+00 -0.00000000000E+00 -0.45593999997E+02  0.45594000000E+02  0.51100000000E-03 0. -1.
    9900012    2    1    2    0    0  0.11044956005E+01  0.35913013517E+00  0.21022169832E+00  0.90007712684E+02  0.89999973692E+02 0.  0.
         12    1    1    2    0    0 -0.11044956005E+01 -0.35913013517E+00 -0.21022169832E+00  0.11802873159E+01  0.00000000000E+00 0. -1.
         11    1    3    3    0    0  0.11699542932E+01  0.80607426097E+01  0.42063987698E+01  0.91672326980E+01  0.51100000000E-03 0. -1.
        -11    1    3    3    0    0  0.77936998926E+01 -0.23875035599E+02  0.31954829173E+02  0.40643205959E+02  0.51100000000E-03 0.  1.
         12    1    3    3    0    0 -0.78591585853E+01  0.16173423124E+02 -0.35951006245E+02  0.40197274027E+02  0.00000000000E+00 0. -1.
</event>
<event>
 7    1  0.4400431E-015  0.9000768E+02  0.7816164E-02  0.1186339E+00
        -11   -1    0    0    0    0  0.00000000000E+00  0.00000000000E+00  0.45593999997E+02  0.45594000000E+02  0.51100000000E-03 0.  1.
         11   -1    0    0    0    0 -0.00000000000E+00 -0.00000000000E+00 -0.45593999997E+02  0.45594000000E+02  0.51100000000E-03 0. -1.
    9900012    2    1    2    0    0 -0.20022951116E+00 -0.98009570808E+00  0.62648745403E+00  0.90007675475E+02  0.89999935991E+02 0.  0.
         12    1    1    2    0    0  0.20022951116E+00  0.98009570808E+00 -0.62648745403E+00  0.11803245249E+01  0.00000000000E+00 0. -1.
         11    1    3    3    0    0 -0.24438206147E+02  0.15698131997E+02  0.26761556428E+02  0.39494786625E+02  0.51100000000E-03 0. -1.
        -11    1    3    3    0    0 -0.59660263682E+01  0.30918704481E+01 -0.68080381899E+01  0.95656948389E+01  0.51100000000E-03 0.  1.
        -12    1    3    3    0    0  0.30204003004E+02 -0.19770098153E+02 -0.19327030784E+02  0.40947194011E+02  0.00000000000E+00 0.  1.
</event>
<event>
 7    1  0.4400431E-015  0.9000752E+02  0.7816164E-02  0.1186339E+00
        -11   -1    0    0    0    0  0.00000000000E+00  0.00000000000E+00  0.45593999997E+02  0.45594000000E+02  0.51100000000E-03 0.  1.
         11   -1    0    0    0    0 -0.00000000000E+00 -0.00000000000E+00 -0.45593999997E+02  0.45594000000E+02  0.51100000000E-03 0. -1.
    9900012    2    1    2    0    0 -0.21745302126E+00  0.10216939116E+01  0.54990348891E+00  0.90007517847E+02  0.89999776283E+02 0.  0.
         12    1    1    2    0    0  0.21745302126E+00 -0.10216939116E+01 -0.54990348891E+00  0.11804821526E+01  0.00000000000E+00 0. -1.
         11    1    3    3    0    0  0.69961043712E+00  0.92838612595E+01 -0.48978968509E+01  0.10519930060E+02  0.51100000000E-03 0. -1.
        -11    1    3    3    0    0  0.38751978690E+02 -0.19193383484E+01  0.62889057795E+01  0.39305852595E+02  0.51100000000E-03 0.  1.
         12    1    3    3    0    0 -0.39669042148E+02 -0.63428289994E+01 -0.84110543976E+00  0.40181735192E+02  0.00000000000E+00 0. -1.
</event>
<event>
 7    1  0.4400431E-015  0.9000774E+02  0.7816164E-02  0.1186339E+00
        -11   -1    0    0    0    0  0.00000000000E+00  0.00000000000E+00  0.45593999997E+02  0.45594000000E+02  0.51100000000E-03 0. -1.
         11   -1    0    0    0    0 -0.00000000000E+00 -0.00000000000E+00 -0.45593999997E+02  0.45594000000E+02  0.51100000000E-03 0.  1.
    9900012    2    1    2    0    0 -0.77923428152E+00 -0.87282334795E+00  0.15488013489E+00  0.90007739640E+02  0.90000001003E+02 0.  0.
         12    1    1    2    0    0  0.77923428152E+00  0.87282334795E+00 -0.15488013489E+00  0.11802603604E+01  0.00000000000E+00 0. -1.
         11    1    3    3    0    0 -0.30514373145E+02 -0.54902246057E+00  0.25513636438E+02  0.39779065332E+02  0.51100000000E-03 0. -1.
        -11    1    3    3    0    0  0.52391733040E+01 -0.43870632499E+01  0.67725823842E+01  0.96209736139E+01  0.51100000000E-03 0.  1.
        -12    1    3    3    0    0  0.24495965560E+02  0.40632623625E+01 -0.32131338688E+02  0.40607700694E+02  0.00000000000E+00 0.  1.
</event>
<event>
 7    1  0.4400431E-015  0.9000755E+02  0.7816164E-02  0.1186339E+00
        -11   -1    0    0    0    0  0.00000000000E+00  0.00000000000E+00  0.45593999997E+02  0.45594000000E+02  0.51100000000E-03 0.  1.
         11   -1    0    0    0    0 -0.00000000000E+00 -0.00000000000E+00 -0.45593999997E+02  0.45594000000E+02  0.51100000000E-03 0. -1.
    9900012    2    1    2    0    0 -0.96625202495E+00 -0.16312611816E+00  0.65818260389E+00  0.90007552015E+02  0.89999810901E+02 0.  0.
         12    1    1    2    0    0  0.96625202495E+00  0.16312611816E+00 -0.65818260389E+00  0.11804479854E+01  0.00000000000E+00 0. -1.
         11    1    3    3    0    0 -0.19866702572E-01  0.69103640160E+01  0.34549399500E+01  0.77259391558E+01  0.51100000000E-03 0. -1.
        -11    1    3    3    0    0  0.19223272766E+02  0.72362798777E+01  0.32941847076E+02  0.38820912551E+02  0.51100000000E-03 0.  1.
         12    1    3    3    0    0 -0.20169658089E+02 -0.14309770012E+02 -0.35738604422E+02  0.43460700307E+02  0.00000000000E+00 0. -1.
</event>
<event>
 7    1  0.4400431E-015  0.9000869E+02  0.7816164E-02  0.1186337E+00
        -11   -1    0    0    0    0  0.00000000000E+00  0.00000000000E+00  0.45593999997E+02  0.45594000000E+02  0.51100000000E-03 0.  1.
         11   -1    0    0    0    0 -0.00000000000E+00 -0.00000000000E+00 -0.45593999997E+02  0.45594000000E+02  0.51100000000E-03 0. -1.
    9900012    2    1    2    0    0 -0.81697909855E-01 -0.68827934176E+00  0.95413431298E+00  0.90008688638E+02  0.90000962523E+02 0.  0.
         12    1    1    2    0    0  0.81697909855E-01  0.68827934176E+00 -0.95413431298E+00  0.11793113618E+01  0.00000000000E+00 0. -1.
         11    1    3    3    0    0 -0.77241378136E+01  0.22269448872E+02  0.27846846222E+02  0.36483386668E+02  0.51100000000E-03 0. -1.
        -11    1    3    3    0    0  0.24815551287E+00  0.25048013660E+01  0.87484595993E+01  0.91033596361E+01  0.51100000000E-03 0.  1.
        -12    1    3    3    0    0  0.73942843908E+01 -0.25462529580E+02 -0.35641171508E+02  0.44421942334E+02  0.00000000000E+00 0.  1.
</event>
<event>
 7    1  0.4400431E-015  0.9000776E+02  0.7816164E-02  0.1186339E+00
        -11   -1    0    0    0    0  0.00000000000E+00  0.00000000000E+00  0.45593999997E+02  0.45594000000E+02  0.51100000000E-03 0. -1.
         11   -1    0    0    0    0 -0.00000000000E+00 -0.00000000000E+00 -0.45593999997E+02  0.45594000000E+02  0.51100000000E-03 0.  1.
    9900012    2    1    2    0    0 -0.55662926300E+00 -0.22644626754E+00  0.10158045764E+01  0.90007757234E+02  0.90000018830E+02 0.  0.
         12    1    1    2    0    0  0.55662926300E+00  0.22644626754E+00 -0.10158045764E+01  0.11802427656E+01  0.00000000000E+00 0. -1.
         11    1    3    3    0    0 -0.62109878139E+00 -0.59494362087E+01  0.77264531119E+01  0.97713680132E+01  0.51100000000E-03 0. -1.
        -11    1    3    3    0    0  0.42427091823E+01 -0.35456340676E+02  0.74730276336E+01  0.36482856490E+02  0.51100000000E-03 0.  1.
         12    1    3    3    0    0 -0.41782396639E+01  0.41179330618E+02 -0.14183676169E+02  0.43753532731E+02  0.00000000000E+00 0. -1.
</event>
<event>
 7    1  0.4898808E-015  0.9000767E+02  0.7816164E-02  0.1186339E+00
        -11   -1    0    0    0    0  0.00000000000E+00  0.00000000000E+00  0.45593999997E+02  0.45594000000E+02  0.51100000000E-03 0.  1.
         11   -1    0    0    0    0 -0.00000000000E+00 -0.00000000000E+00 -0.45593999997E+02  0.45594000000E+02  0.51100000000E-03 0. -1.
    9900012    2    1    2    0    0  0.57168871462E+00 -0.71998008142E-01  0.10301240066E+01  0.90007674973E+02  0.89999935483E+02 0.  0.
         12    1    1    2    0    0 -0.57168871462E+00  0.71998008142E-01 -0.10301240066E+01  0.11803250266E+01  0.00000000000E+00 0. -1.
         11    1    3    3    0    0  0.92282351019E+01  0.17222399546E+01  0.20742256168E+01  0.96139921847E+01  0.51100000000E-03 0. -1.
        -11    1    3    3    0    0 -0.71652386750E+01  0.13484474479E+01  0.39264279978E+02  0.39935480944E+02  0.51100000000E-03 0.  1.
         12    1    3    3    0    0 -0.14913077123E+01 -0.31426854107E+01 -0.40308381588E+02  0.40458201845E+02  0.00000000000E+00 0. -1.
</event>
<event>
 7    1  0.4400431E-015  0.9000766E+02  0.7816164E-02  0.1186339E+00
        -11   -1    0    0    0    0  0.00000000000E+00  0.00000000000E+00  0.45593999997E+02  0.45594000000E+02  0.51100000000E-03 0. -1.
         11   -1    0    0    0    0 -0.00000000000E+00 -0.00000000000E+00 -0.45593999997E+02  0.45594000000E+02  0.51100000000E-03 0.  1.
    9900012    2    1    2    0    0  0.11528058878E+01 -0.22915872187E+00  0.10824231063E+00  0.90007664653E+02  0.89999925026E+02 0.  0.
         12    1    1    2    0    0 -0.11528058878E+01  0.22915872187E+00 -0.10824231063E+00  0.11803353475E+01  0.00000000000E+00 0. -1.
         11    1    3    3    0    0  0.92619850225E+01  0.14136283403E+01 -0.22495368987E+01  0.96355139023E+01  0.51100000000E-03 0. -1.
        -11    1    3    3    0    0  0.22155485495E+02  0.23633034055E+02  0.19019818840E+02  0.37565134702E+02  0.51100000000E-03 0.  1.
         12    1    3    3    0    0 -0.30264664630E+02 -0.25275821118E+02 -0.16662039630E+02  0.42807016049E+02  0.00000000000E+00 0. -1.
</event>
<event>
 7    1  0.4400431E-015  0.9000795E+02  0.7816164E-02  0.1186339E+00
        -11   -1    0    0    0    0  0.00000000000E+00  0.00000000000E+00  0.45593999997E+02  0.45594000000E+02  0.51100000000E-03 0.  1.
         11   -1    0    0    0    0 -0.00000000000E+00 -0.00000000000E+00 -0.45593999997E+02  0.45594000000E+02  0.51100000000E-03 0. -1.
    9900012    2    1    2    0    0  0.11288454868E+01 -0.31490434087E+00  0.13809180961E+00  0.90007946516E+02  0.90000210610E+02 0.  0.
         12    1    1    2    0    0 -0.11288454868E+01  0.31490434087E+00 -0.13809180961E+00  0.11800534839E+01  0.00000000000E+00 0. -1.
         11    1    3    3    0    0 -0.19530984972E+02  0.29067032075E+02 -0.22916749880E+02  0.41851274209E+02  0.51100000000E-03 0. -1.
        -11    1    3    3    0    0 -0.33193534546E+01 -0.99878503503E+01  0.17413800854E+01  0.10668067624E+02  0.51100000000E-03 0.  1.
        -12    1    3    3    0    0  0.23979183913E+02 -0.19394086065E+02  0.21313461605E+02  0.37488604682E+02  0.00000000000E+00 0.  1.
</event>
<event>
 7    1  0.4400431E-015  0.9000785E+02  0.7816164E-02  0.1186339E+00
        -11   -1    0    0    0    0  0.00000000000E+00  0.00000000000E+00  0.45593999997E+02  0.45594000000E+02  0.51100000000E-03 0.  1.
         11   -1    0    0    0    0 -0.00000000000E+00 -0.00000000000E+00 -0.45593999997E+02  0.45594000000E+02  0.51100000000E-03 0. -1.
    9900012    2    1    2    0    0 -0.96960441376E+00  0.62400108520E+00  0.25150036095E+00  0.90007846406E+02  0.90000109179E+02 0.  0.
         12    1    1    2    0    0  0.96960441376E+00 -0.62400108520E+00 -0.25150036095E+00  0.11801535938E+01  0.00000000000E+00 0. -1.
         11    1    3    3    0    0  0.65718404140E+01 -0.73057375642E+01 -0.11220592511E+01  0.98904956907E+01  0.51100000000E-03 0. -1.
        -11    1    3    3    0    0 -0.79299039822E+01  0.28179885520E+02  0.32018547286E+02  0.43384060387E+02  0.51100000000E-03 0.  1.
         12    1    3    3    0    0  0.38845915440E+00 -0.20250146871E+02 -0.30644987674E+02  0.36733290328E+02  0.00000000000E+00 0. -1.
</event>
<event>
 7    1  0.4400431E-015  0.9000772E+02  0.7816164E-02  0.1186339E+00
        -11   -1    0    0    0    0  0.00000000000E+00  0.00000000000E+00  0.45593999997E+02  0.45594000000E+02  0.51100000000E-03 0. -1.
         11   -1    0    0    0    0 -0.00000000000E+00 -0.00000000000E+00 -0.45593999997E+02  0.45594000000E+02  0.51100000000E-03 0.  1.
    9900012    2    1    2    0    0  0.20987814201E+00 -0.34722497911E-01 -0.11609540432E+01  0.90007716654E+02  0.89999977714E+02 0.  0.
         12    1    1    2    0    0 -0.20987814201E+00  0.34722497911E-01  0.11609540432E+01  0.11802833460E+01  0.00000000000E+00 0. -1.
         11    1    3    3    0    0  0.33793349408E+02  0.15461457508E+02 -0.19820607122E+02  0.42117734975E+02  0.51100000000E-03 0. -1.
        -11    1    3    3    0    0  0.14829590126E+01  0.12573054411E+00  0.78759628122E+01  0.80153456621E+01  0.51100000000E-03 0.  1.
        -12    1    3    3    0    0 -0.35066430279E+02 -0.15621910550E+02  0.10783690267E+02  0.39874636017E+02  0.00000000000E+00 0.  1.
</event>
<event>
 7    1  0.4400431E-015  0.9000773E+02  0.7816164E-02  0.1186339E+00
        -11   -1    0    0    0    0  0.00000000000E+00  0.00000000000E+00  0.45593999997E+02  0.45594000000E+02  0.51100000000E-03 0.  1.
         11   -1    0    0    0    0 -0.00000000000E+00 -0.00000000000E+00 -0.45593999997E+02  0.45594000000E+02  0.51100000000E-03 0. -1.
    9900012    2    1    2    0    0 -0.35232958748E+00  0.17168642065E+00  0.11132951648E+01  0.90007729485E+02  0.89999990714E+02 0.  0.
         12    1    1    2    0    0  0.35232958748E+00 -0.17168642065E+00 -0.11132951648E+01  0.11802705153E+01  0.00000000000E+00 0. -1.
         11    1    3    3    0    0 -0.11765578632E+01  0.77793896223E+00  0.10452442333E+02  0.10547181065E+02  0.51100000000E-03 0. -1.
        -11    1    3    3    0    0  0.36842683905E+02 -0.15413559806E+02 -0.36423699670E+01  0.40102718642E+02  0.51100000000E-03 0.  1.
         12    1    3    3    0    0 -0.36018455630E+02  0.14807307264E+02 -0.56967772009E+01  0.39357829778E+02  0.00000000000E+00 0. -1.
</event>
<event>
 7    1  0.4400431E-015  0.9000764E+02  0.7816164E-02  0.1186339E+00
        -11   -1    0    0    0    0  0.00000000000E+00  0.00000000000E+00  0.45593999997E+02  0.45594000000E+02  0.51100000000E-03 0.  1.
         11   -1    0    0    0    0 -0.00000000000E+00 -0.00000000000E+00 -0.45593999997E+02  0.45594000000E+02  0.51100000000E-03 0. -1.
    9900012    2    1    2    0    0  0.72992887000E+00  0.92397555327E+00  0.81951648551E-01  0.90007642829E+02  0.89999902914E+02 0.  0.
         12    1    1    2    0    0 -0.72992887000E+00 -0.92397555327E+00 -0.81951648551E-01  0.11803571709E+01  0.00000000000E+00 0. -1.
         11    1    3    3    0    0  0.43052714559E+01 -0.42115667379E+01 -0.64200295236E+01  0.88028084178E+01  0.51100000000E-03 0. -1.
        -11    1    3    3    0    0  0.14468689079E+02  0.31676620495E+02  0.26171892440E+02  0.43562819053E+02  0.51100000000E-03 0.  1.
         12    1    3    3    0    0 -0.18044031665E+02 -0.26541078204E+02 -0.19669911268E+02  0.37642015359E+02  0.00000000000E+00 0. -1.
</event>
<event>
 7    1  0.5140655E-015  0.9000759E+02  0.7816164E-02  0.1186339E+00
        -11   -1    0    0    0    0  0.00000000000E+00  0.00000000000E+00  0.45593999997E+02  0.45594000000E+02  0.51100000000E-03 0. -1.
         11   -1    0    0    0    0 -0.00000000000E+00 -0.00000000000E+00 -0.45593999997E+02  0.45594000000E+02  0.51100000000E-03 0.  1.
    9900012    2    1    2    0    0  0.56963327301E+00 -0.25957046510E+00 -0.10007546811E+01  0.90007589553E+02  0.89999848935E+02 0.  0.
         12    1    1    2    0    0 -0.56963327301E+00  0.25957046510E+00  0.10007546811E+01  0.11804104472E+01  0.00000000000E+00 0. -1.
         11    1    3    3    0    0 -0.22264450707E+01  0.98182364339E+01 -0.11533236709E+01  0.10133359763E+02  0.51100000000E-03 0. -1.
        -11    1    3    3    0    0 -0.16286159295E+02  0.20410870917E+02 -0.24868396432E+02  0.36059392362E+02  0.51100000000E-03 0.  1.
         12    1    3    3    0    0  0.19082237638E+02 -0.30488677816E+02  0.25020965422E+02  0.43814837428E+02  0.00000000000E+00 0. -1.
</event>
<event>
 7    1  0.4400431E-015  0.9000775E+02  0.7816164E-02  0.1186339E+00
        -11   -1    0    0    0    0  0.00000000000E+00  0.00000000000E+00  0.45593999997E+02  0.45594000000E+02  0.51100000000E-03 0.  1.
         11   -1    0    0    0    0 -0.00000000000E+00 -0.00000000000E+00 -0.45593999997E+02  0.45594000000E+02  0.51100000000E-03 0. -1.
    9900012    2    1    2    0    0 -0.19326188344E+00  0.11556606254E+01  0.14175707094E+00  0.90007747186E+02  0.90000008649E+02 0.  0.
         12    1    1    2    0    0  0.19326188344E+00 -0.11556606254E+01 -0.14175707094E+00  0.11802528136E+01  0.00000000000E+00 0. -1.
         11    1    3    3    0    0 -0.93200059903E+01 -0.21387676635E+01  0.79877124569E+01  0.12459550126E+02  0.51100000000E-03 0. -1.
        -11    1    3    3    0    0  0.31112156838E+02  0.17670442179E+02  0.18555134872E+02  0.40305134416E+02  0.51100000000E-03 0.  1.
         12    1    3    3    0    0 -0.21985412731E+02 -0.14376013890E+02 -0.26401090258E+02  0.37243062645E+02  0.00000000000E+00 0. -1.
</event>
<event>
 7    1  0.4400431E-015  0.9000776E+02  0.7816164E-02  0.1186339E+00
        -11   -1    0    0    0    0  0.00000000000E+00  0.00000000000E+00  0.45593999997E+02  0.45594000000E+02  0.51100000000E-03 0.  1.
         11   -1    0    0    0    0 -0.00000000000E+00 -0.00000000000E+00 -0.45593999997E+02  0.45594000000E+02  0.51100000000E-03 0. -1.
    9900012    2    1    2    0    0 -0.17609005946E+00 -0.10115270400E+01  0.58204671966E+00  0.90007757209E+02  0.90000018804E+02 0.  0.
         12    1    1    2    0    0  0.17609005946E+00  0.10115270400E+01 -0.58204671966E+00  0.11802427910E+01  0.00000000000E+00 0. -1.
         11    1    3    3    0    0 -0.28491226859E+02 -0.23323302951E+02 -0.44626941437E+01  0.37089649604E+02  0.51100000000E-03 0. -1.
        -11    1    3    3    0    0 -0.18098003743E+01 -0.89677333916E+01  0.21300627339E+01  0.93932309185E+01  0.51100000000E-03 0.  1.
        -12    1    3    3    0    0  0.30124937174E+02  0.31279509303E+02  0.29146781295E+01  0.43524876686E+02  0.00000000000E+00 0.  1.
</event>
<event>
 7    1  0.4400431E-015  0.9000776E+02  0.7816164E-02  0.1186339E+00
        -11   -1    0    0    0    0  0.00000000000E+00  0.00000000000E+00  0.45593999997E+02  0.45594000000E+02  0.51100000000E-03 0.  1.
         11   -1    0    0    0    0 -0.00000000000E+00 -0.00000000000E+00 -0.45593999997E+02  0.45594000000E+02  0.51100000000E-03 0. -1.
    9900012    2    1    2    0    0 -0.94594685373E+00  0.70579039132E+00 -0.30247770179E-02  0.90007760755E+02  0.90000022397E+02 0.  0.
         12    1    1    2    0    0  0.94594685373E+00 -0.70579039132E+00  0.30247770179E-02  0.11802392452E+01  0.00000000000E+00 0. -1.
         11    1    3    3    0    0  0.25350031166E+01 -0.96455949507E+01  0.42278240612E+01  0.10832277660E+02  0.51100000000E-03 0. -1.
        -11    1    3    3    0    0 -0.30186238280E+02 -0.19695928975E+02  0.84544422378E+01  0.37021834011E+02  0.51100000000E-03 0.  1.
         12    1    3    3    0    0  0.26705288310E+02  0.30047314317E+02 -0.12685291076E+02  0.42153649084E+02  0.00000000000E+00 0. -1.
</event>
<event>
 7    1  0.4400431E-015  0.9000774E+02  0.7816164E-02  0.1186339E+00
        -11   -1    0    0    0    0  0.00000000000E+00  0.00000000000E+00  0.45593999997E+02  0.45594000000E+02  0.51100000000E-03 0.  1.
         11   -1    0    0    0    0 -0.00000000000E+00 -0.00000000000E+00 -0.45593999997E+02  0.45594000000E+02  0.51100000000E-03 0. -1.
    9900012    2    1    2    0    0  0.10724074587E+00 -0.61665328084E+00  0.10006271069E+01  0.90007738820E+02  0.90000000172E+02 0.  0.
         12    1    1    2    0    0 -0.10724074587E+00  0.61665328084E+00 -0.10006271069E+01  0.11802611801E+01  0.00000000000E+00 0. -1.
         11    1    3    3    0    0 -0.70084308717E+01  0.51505515670E+01  0.54178658721E+01  0.10246929081E+02  0.51100000000E-03 0. -1.
        -11    1    3    3    0    0 -0.21138658594E+02  0.65843711256E+00  0.28768179499E+02  0.35705525882E+02  0.51100000000E-03 0.  1.
         12    1    3    3    0    0  0.28254330211E+02 -0.64256419604E+01 -0.33185418264E+02  0.44055283856E+02  0.00000000000E+00 0. -1.
</event>
<event>
 7    1  0.4400431E-015  0.9000773E+02  0.7816164E-02  0.1186339E+00
        -11   -1    0    0    0    0  0.00000000000E+00  0.00000000000E+00  0.45593999997E+02  0.45594000000E+02  0.51100000000E-03 0.  1.
         11   -1    0    0    0    0 -0.00000000000E+00 -0.00000000000E+00 -0.45593999997E+02  0.45594000000E+02  0.51100000000E-03 0. -1.
    9900012    2    1    2    0    0 -0.25849028693E+00 -0.11486872918E+01  0.82132272046E-01  0.90007726543E+02  0.89999987734E+02 0.  0.
         12    1    1    2    0    0  0.25849028693E+00  0.11486872918E+01 -0.82132272046E-01  0.11802734568E+01  0.00000000000E+00 0. -1.
         11    1    3    3    0    0 -0.34408329755E+01 -0.11857220232E+01  0.10519472683E+02  0.11131243150E+02  0.51100000000E-03 0. -1.
        -11    1    3    3    0    0  0.54147628533E+01 -0.28753730327E+02  0.21131704489E+02  0.36092181970E+02  0.51100000000E-03 0.  1.
         12    1    3    3    0    0 -0.22324201647E+01  0.28790765058E+02 -0.31569044900E+02  0.42784301424E+02  0.00000000000E+00 0. -1.
</event>
<event>
 7    1  0.4400431E-015  0.9000779E+02  0.7816164E-02  0.1186339E+00
        -11   -1    0    0    0    0  0.00000000000E+00  0.00000000000E+00  0.45593999997E+02  0.45594000000E+02  0.51100000000E-03 0.  1.
         11   -1    0    0    0    0 -0.00000000000E+00 -0.00000000000E+00 -0.45593999997E+02  0.45594000000E+02  0.51100000000E-03 0. -1.
    9900012    2    1    2    0    0 -0.56213461523E+00 -0.67874709752E-01  0.10355121027E+01  0.90007793401E+02  0.90000055474E+02 0.  0.
         12    1    1    2    0    0  0.56213461523E+00  0.67874709752E-01 -0.10355121027E+01  0.11802065992E+01  0.00000000000E+00 0. -1.
         11    1    3    3    0    0 -0.34672002951E+02  0.12344486587E+02 -0.46641449548E+01  0.37098360963E+02  0.51100000000E-03 0. -1.
        -11    1    3    3    0    0  0.69013206770E+00  0.76301793764E+01 -0.84915457145E+01  0.11436881938E+02  0.51100000000E-03 0.  1.
        -12    1    3    3    0    0  0.33419736268E+02 -0.20042540673E+02  0.14191202772E+02  0.41472550500E+02  0.00000000000E+00 0.  1.
</event>
<event>
 7    1  0.4400431E-015  0.9000771E+02  0.7816164E-02  0.1186339E+00
        -11   -1    0    0    0    0  0.00000000000E+00  0.00000000000E+00  0.45593999997E+02  0.45594000000E+02  0.51100000000E-03 0.  1.
         11   -1    0    0    0    0 -0.00000000000E+00 -0.00000000000E+00 -0.45593999997E+02  0.45594000000E+02  0.51100000000E-03 0. -1.
    9900012    2    1    2    0    0 -0.66934240729E+00 -0.88053896154E+00 -0.41196321420E+00  0.90007711132E+02  0.89999972119E+02 0.  0.
         12    1    1    2    0    0  0.66934240729E+00  0.88053896154E+00  0.41196321420E+00  0.11802888675E+01  0.00000000000E+00 0. -1.
         11    1    3    3    0    0  0.28294583632E+01  0.49330539140E+01  0.55865547177E+01  0.79718535751E+01  0.51100000000E-03 0. -1.
        -11    1    3    3    0    0  0.16429149617E+02 -0.32013309365E+02  0.19010283492E+02  0.40695943438E+02  0.51100000000E-03 0.  1.
         12    1    3    3    0    0 -0.19927950387E+02  0.26199716489E+02 -0.25008801424E+02  0.41339914119E+02  0.00000000000E+00 0. -1.
</event>
<event>
 7    1  0.4400431E-015  0.9000781E+02  0.7816164E-02  0.1186339E+00
        -11   -1    0    0    0    0  0.00000000000E+00  0.00000000000E+00  0.45593999997E+02  0.45594000000E+02  0.51100000000E-03 0.  1.
         11   -1    0    0    0    0 -0.00000000000E+00 -0.00000000000E+00 -0.45593999997E+02  0.45594000000E+02  0.51100000000E-03 0. -1.
    9900012    2    1    2    0    0  0.97221215882E+00  0.69687863675E-01  0.66543445719E+00  0.90007806839E+02  0.90000069089E+02 0.  0.
         12    1    1    2    0    0 -0.97221215882E+00 -0.69687863675E-01 -0.66543445719E+00  0.11801931608E+01  0.00000000000E+00 0. -1.
         11    1    3    3    0    0 -0.62371449237E+00  0.91528350734E+01 -0.53122724773E+01  0.10601115450E+02  0.51100000000E-03 0. -1.
        -11    1    3    3    0    0  0.33125564200E+02  0.67911286467E+01  0.22310047905E+02  0.40511241276E+02  0.51100000000E-03 0.  1.
         12    1    3    3    0    0 -0.31529637549E+02 -0.15874275856E+02 -0.16332340971E+02  0.38895450114E+02  0.00000000000E+00 0. -1.
</event>
<event>
 7    1  0.4400431E-015  0.9000773E+02  0.7816164E-02  0.1186339E+00
        -11   -1    0    0    0    0  0.00000000000E+00  0.00000000000E+00  0.45593999997E+02  0.45594000000E+02  0.51100000000E-03 0. -1.
         11   -1    0    0    0    0 -0.00000000000E+00 -0.00000000000E+00 -0.45593999997E+02  0.45594000000E+02  0.51100000000E-03 0.  1.
    9900012    2    1    2    0    0  0.25142803893E+00 -0.75568238872E-01 -0.11506995594E+01  0.90007730500E+02  0.89999991742E+02 0.  0.
         12    1    1    2    0    0 -0.25142803893E+00  0.75568238872E-01  0.11506995594E+01  0.11802695004E+01  0.00000000000E+00 0. -1.
         11    1    3    3    0    0 -0.18019581776E+02 -0.21988766669E+01  0.32354832555E+02  0.37099536061E+02  0.51100000000E-03 0. -1.
        -11    1    3    3    0    0 -0.84301131140E+01 -0.31657042630E+01  0.88575101904E+00  0.90483725456E+01  0.51100000000E-03 0.  1.
        -12    1    3    3    0    0  0.26701122929E+02  0.52890126911E+01 -0.34391283134E+02  0.43859821893E+02  0.00000000000E+00 0.  1.
</event>
<event>
 7    1  0.4443991E-015  0.9000775E+02  0.7816164E-02  0.1186339E+00
        -11   -1    0    0    0    0  0.00000000000E+00  0.00000000000E+00  0.45593999997E+02  0.45594000000E+02  0.51100000000E-03 0. -1.
         11   -1    0    0    0    0 -0.00000000000E+00 -0.00000000000E+00 -0.45593999997E+02  0.45594000000E+02  0.51100000000E-03 0.  1.
    9900012    2    1    2    0    0  0.66931357326E+00  0.92384219995E+00 -0.30255035142E+00  0.90007745034E+02  0.90000006468E+02 0.  0.
         12    1    1    2    0    0 -0.66931357326E+00 -0.92384219995E+00  0.30255035142E+00  0.11802549661E+01  0.00000000000E+00 0. -1.
         11    1    3    3    0    0 -0.15046121349E+02  0.78210220298E+01  0.39065174205E+02  0.42586875786E+02  0.51100000000E-03 0. -1.
        -11    1    3    3    0    0 -0.46713473858E+01  0.41884597393E+00 -0.85667920407E+01  0.97666188867E+01  0.51100000000E-03 0.  1.
        -12    1    3    3    0    0  0.20386782308E+02 -0.73160258038E+01 -0.30800932516E+02  0.37654250362E+02  0.00000000000E+00 0.  1.
</event>
<event>
 7    1  0.4400431E-015  0.9000773E+02  0.7816164E-02  0.1186339E+00
        -11   -1    0    0    0    0  0.00000000000E+00  0.00000000000E+00  0.45593999997E+02  0.45594000000E+02  0.51100000000E-03 0.  1.
         11   -1    0    0    0    0 -0.00000000000E+00 -0.00000000000E+00 -0.45593999997E+02  0.45594000000E+02  0.51100000000E-03 0. -1.
    9900012    2    1    2    0    0 -0.48187140274E+00  0.84725675523E+00  0.66557688789E+00  0.90007730263E+02  0.89999991503E+02 0.  0.
         12    1    1    2    0    0  0.48187140274E+00 -0.84725675523E+00 -0.66557688789E+00  0.11802697369E+01  0.00000000000E+00 0. -1.
         11    1    3    3    0    0 -0.26325550560E+02  0.74385309229E+01 -0.31465293339E+02  0.41694496516E+02  0.51100000000E-03 0. -1.
        -11    1    3    3    0    0  0.94628620952E+01  0.58687740099E+00 -0.20827943059E+01  0.97071219472E+01  0.51100000000E-03 0.  1.
        -12    1    3    3    0    0  0.16380817062E+02 -0.71781515686E+01  0.34213664533E+02  0.38606111800E+02  0.00000000000E+00 0.  1.
</event>
<event>
 7    1  0.4400431E-015  0.9000773E+02  0.7816164E-02  0.1186339E+00
        -11   -1    0    0    0    0  0.00000000000E+00  0.00000000000E+00  0.45593999997E+02  0.45594000000E+02  0.51100000000E-03 0.  1.
         11   -1    0    0    0    0 -0.00000000000E+00 -0.00000000000E+00 -0.45593999997E+02  0.45594000000E+02  0.51100000000E-03 0. -1.
    9900012    2    1    2    0    0 -0.40659410488E+00 -0.35072222010E+00  0.10510542347E+01  0.90007728910E+02  0.89999990131E+02 0.  0.
         12    1    1    2    0    0  0.40659410488E+00  0.35072222010E+00 -0.10510542347E+01  0.11802710901E+01  0.00000000000E+00 0. -1.
         11    1    3    3    0    0 -0.26951317778E+02  0.33475581494E+01 -0.31143021130E+02  0.41321513052E+02  0.51100000000E-03 0. -1.
        -11    1    3    3    0    0  0.12143599235E+02 -0.36295872748E+00 -0.11589254300E+01  0.12204173460E+02  0.51100000000E-03 0.  1.
        -12    1    3    3    0    0  0.14401124438E+02 -0.33353216420E+01  0.33353000794E+02  0.36482042398E+02  0.00000000000E+00 0.  1.
</event>
<event>
 7    1  0.4400431E-015  0.9000769E+02  0.7816164E-02  0.1186339E+00
        -11   -1    0    0    0    0  0.00000000000E+00  0.00000000000E+00  0.45593999997E+02  0.45594000000E+02  0.51100000000E-03 0.  1.
         11   -1    0    0    0    0 -0.00000000000E+00 -0.00000000000E+00 -0.45593999997E+02  0.45594000000E+02  0.51100000000E-03 0. -1.
    9900012    2    1    2    0    0  0.85385322776E+00  0.81425326646E+00  0.32707100841E-01  0.90007685012E+02  0.89999945654E+02 0.  0.
         12    1    1    2    0    0 -0.85385322776E+00 -0.81425326646E+00 -0.32707100841E-01  0.11803149880E+01  0.00000000000E+00 0. -1.
         11    1    3    3    0    0  0.67241712040E+01 -0.21911672026E+02 -0.34697124369E+02  0.41583966731E+02  0.51100000000E-03 0. -1.
        -11    1    3    3    0    0  0.67775508631E+01 -0.99078947836E+00  0.64534784783E+01  0.94108577836E+01  0.51100000000E-03 0.  1.
        -12    1    3    3    0    0 -0.12647868839E+02  0.23716714771E+02  0.28276352991E+02  0.39012860497E+02  0.00000000000E+00 0.  1.
</event>
<event>
 7    1  0.4400431E-015  0.9000765E+02  0.7816164E-02  0.1186339E+00
        -11   -1    0    0    0    0  0.00000000000E+00  0.00000000000E+00  0.45593999997E+02  0.45594000000E+02  0.51100000000E-03 0.  1.
         11   -1    0    0    0    0 -0.00000000000E+00 -0.00000000000E+00 -0.45593999997E+02  0.45594000000E+02  0.51100000000E-03 0. -1.
    9900012    2    1    2    0    0  0.72487675964E-01  0.32197702045E+00  0.11332745387E+01  0.90007646305E+02  0.89999906436E+02 0.  0.
         12    1    1    2    0    0 -0.72487675964E-01 -0.32197702045E+00 -0.11332745387E+01  0.11803536948E+01  0.00000000000E+00 0. -1.
         11    1    3    3    0    0 -0.65638431924E+01 -0.46032426191E+01  0.87563615073E+01  0.11872141642E+02  0.51100000000E-03 0. -1.
        -11    1    3    3    0    0  0.11534735356E+02  0.22690695868E+02  0.28114984547E+02  0.37925850750E+02  0.51100000000E-03 0.  1.
         12    1    3    3    0    0 -0.48984044877E+01 -0.17765476229E+02 -0.35738071516E+02  0.40209653913E+02  0.00000000000E+00 0. -1.
</event>
<event>
 7    1  0.4400431E-015  0.9000775E+02  0.7816164E-02  0.1186339E+00
        -11   -1    0    0    0    0  0.00000000000E+00  0.00000000000E+00  0.45593999997E+02  0.45594000000E+02  0.51100000000E-03 0.  1.
         11   -1    0    0    0    0 -0.00000000000E+00 -0.00000000000E+00 -0.45593999997E+02  0.45594000000E+02  0.51100000000E-03 0. -1.
    9900012    2    1    2    0    0 -0.10718348914E+00  0.57713025492E+00  0.10239228336E+01  0.90007751890E+02  0.90000013415E+02 0.  0.
         12    1    1    2    0    0  0.10718348914E+00 -0.57713025492E+00 -0.10239228336E+01  0.11802481098E+01  0.00000000000E+00 0. -1.
         11    1    3    3    0    0 -0.82277382412E+01 -0.11994374529E+01 -0.42677070288E+01  0.93459964858E+01  0.51100000000E-03 0. -1.
        -11    1    3    3    0    0 -0.15695838292E+02  0.29186880490E+02 -0.17811986930E+02  0.37623133989E+02  0.51100000000E-03 0.  1.
         12    1    3    3    0    0  0.23816393044E+02 -0.27410312783E+02  0.23103616793E+02  0.43038621416E+02  0.00000000000E+00 0. -1.
</event>
<event>
 7    1  0.4400431E-015  0.9000772E+02  0.7816164E-02  0.1186339E+00
        -11   -1    0    0    0    0  0.00000000000E+00  0.00000000000E+00  0.45593999997E+02  0.45594000000E+02  0.51100000000E-03 0.  1.
         11   -1    0    0    0    0 -0.00000000000E+00 -0.00000000000E+00 -0.45593999997E+02  0.45594000000E+02  0.51100000000E-03 0. -1.
    9900012    2    1    2    0    0  0.94403260197E+00  0.67368009994E+00 -0.21913308324E+00  0.90007719636E+02  0.89999980735E+02 0.  0.
         12    1    1    2    0    0 -0.94403260197E+00 -0.67368009994E+00  0.21913308324E+00  0.11802803645E+01  0.00000000000E+00 0. -1.
         11    1    3    3    0    0  0.71167385401E+01  0.53974575690E+01  0.47747942910E+01  0.10128137856E+02  0.51100000000E-03 0. -1.
        -11    1    3    3    0    0  0.21964325811E+02 -0.15161499466E+02  0.25629699421E+02  0.37002488661E+02  0.51100000000E-03 0.  1.
         12    1    3    3    0    0 -0.28137031750E+02  0.10437721997E+02 -0.30623626795E+02  0.42877093118E+02  0.00000000000E+00 0. -1.
</event>
<event>
 7    1  0.4400431E-015  0.9000779E+02  0.7816164E-02  0.1186339E+00
        -11   -1    0    0    0    0  0.00000000000E+00  0.00000000000E+00  0.45593999997E+02  0.45594000000E+02  0.51100000000E-03 0.  1.
         11   -1    0    0    0    0 -0.00000000000E+00 -0.00000000000E+00 -0.45593999997E+02  0.45594000000E+02  0.51100000000E-03 0. -1.
    9900012    2    1    2    0    0 -0.41280291723E+00  0.85742164663E+00  0.69807837548E+00  0.90007791736E+02  0.90000053787E+02 0.  0.
         12    1    1    2    0    0  0.41280291723E+00 -0.85742164663E+00 -0.69807837548E+00  0.11802082642E+01  0.00000000000E+00 0. -1.
         11    1    3    3    0    0 -0.88990489663E+01 -0.34959688538E+01 -0.81011832761E+01  0.12531721409E+02  0.51100000000E-03 0. -1.
        -11    1    3    3    0    0  0.87760900745E+01  0.71817649578E+01  0.42331190440E+02  0.43823819884E+02  0.51100000000E-03 0.  1.
         12    1    3    3    0    0 -0.28984402540E+00 -0.28283744574E+01 -0.33531928788E+02  0.33652250443E+02  0.00000000000E+00 0. -1.
</event>
<event>
 7    1  0.4445292E-015  0.9000765E+02  0.7816164E-02  0.1186339E+00
        -11   -1    0    0    0    0  0.00000000000E+00  0.00000000000E+00  0.45593999997E+02  0.45594000000E+02  0.51100000000E-03 0. -1.
         11   -1    0    0    0    0 -0.00000000000E+00 -0.00000000000E+00 -0.45593999997E+02  0.45594000000E+02  0.51100000000E-03 0.  1.
    9900012    2    1    2    0    0 -0.68889831709E+00 -0.94518845087E-01 -0.95378859619E+00  0.90007649463E+02  0.89999909636E+02 0.  0.
         12    1    1    2    0    0  0.68889831709E+00  0.94518845087E-01  0.95378859619E+00  0.11803505367E+01  0.00000000000E+00 0. -1.
         11    1    3    3    0    0  0.87102901748E+01  0.11494139346E+01  0.31254601710E+01  0.93251707150E+01  0.51100000000E-03 0. -1.
        -11    1    3    3    0    0  0.31991200865E+02 -0.14216441990E+02 -0.11136487301E+02  0.36736432942E+02  0.51100000000E-03 0.  1.
         12    1    3    3    0    0 -0.41390389357E+02  0.12972509210E+02  0.70572385337E+01  0.43946045807E+02  0.00000000000E+00 0. -1.
</event>
<event>
 7    1  0.4400431E-015  0.9000814E+02  0.7816164E-02  0.1186338E+00
        -11   -1    0    0    0    0  0.00000000000E+00  0.00000000000E+00  0.45593999997E+02  0.45594000000E+02  0.51100000000E-03 0.  1.
         11   -1    0    0    0    0 -0.00000000000E+00 -0.00000000000E+00 -0.45593999997E+02  0.45594000000E+02  0.51100000000E-03 0. -1.
    9900012    2    1    2    0    0 -0.47638533866E+00 -0.79437959546E+00  0.73081329330E+00  0.90008139838E+02  0.90000406483E+02 0.  0.
         12    1    1    2    0    0  0.47638533866E+00  0.79437959546E+00 -0.73081329330E+00  0.11798601622E+01  0.00000000000E+00 0. -1.
         11    1    3    3    0    0 -0.42180817965E+01  0.71641152228E+01 -0.33946916210E+01  0.89800162823E+01  0.51100000000E-03 0. -1.
        -11    1    3    3    0    0  0.21161732877E+02  0.28972237813E+02 -0.10933605921E+02  0.37506709279E+02  0.51100000000E-03 0.  1.
         12    1    3    3    0    0 -0.17420036419E+02 -0.36930732631E+02  0.15059110835E+02  0.43521414277E+02  0.00000000000E+00 0. -1.
</event>
<event>
 7    1  0.4400431E-015  0.9000775E+02  0.7816164E-02  0.1186339E+00
        -11   -1    0    0    0    0  0.00000000000E+00  0.00000000000E+00  0.45593999997E+02  0.45594000000E+02  0.51100000000E-03 0. -1.
         11   -1    0    0    0    0 -0.00000000000E+00 -0.00000000000E+00 -0.45593999997E+02  0.45594000000E+02  0.51100000000E-03 0.  1.
    9900012    2    1    2    0    0 -0.28289030594E+00 -0.19465445857E+00 -0.11291877913E+01  0.90007753267E+02  0.90000014810E+02 0.  0.
         12    1    1    2    0    0  0.28289030594E+00  0.19465445857E+00  0.11291877913E+01  0.11802467333E+01  0.00000000000E+00 0. -1.
         11    1    3    3    0    0  0.16701076573E+02  0.27280045960E+02  0.16293885474E+02  0.35897319821E+02  0.51100000000E-03 0. -1.
        -11    1    3    3    0    0  0.34715835424E+01  0.86436273054E+01 -0.63805433509E+00  0.93365571214E+01  0.51100000000E-03 0.  1.
        -12    1    3    3    0    0 -0.20455550421E+02 -0.36118327723E+02 -0.16785018930E+02  0.44773876324E+02  0.00000000000E+00 0.  1.
</event>
<event>
 7    1  0.4400431E-015  0.9000776E+02  0.7816164E-02  0.1186339E+00
        -11   -1    0    0    0    0  0.00000000000E+00  0.00000000000E+00  0.45593999997E+02  0.45594000000E+02  0.51100000000E-03 0.  1.
         11   -1    0    0    0    0 -0.00000000000E+00 -0.00000000000E+00 -0.45593999997E+02  0.45594000000E+02  0.51100000000E-03 0. -1.
    9900012    2    1    2    0    0 -0.19812902303E+00  0.10626543255E+01 -0.47378004209E+00  0.90007764069E+02  0.90000025754E+02 0.  0.
         12    1    1    2    0    0  0.19812902303E+00 -0.10626543255E+01  0.47378004209E+00  0.11802359313E+01  0.00000000000E+00 0. -1.
         11    1    3    3    0    0  0.11025500605E+02 -0.39097956116E+01 -0.20643468552E+01  0.11878960119E+02  0.51100000000E-03 0. -1.
        -11    1    3    3    0    0 -0.51785157787E+01 -0.29212092978E+02  0.22827321774E+02  0.37433274255E+02  0.51100000000E-03 0.  1.
         12    1    3    3    0    0 -0.60451138495E+01  0.34184542915E+02 -0.21236754961E+02  0.40695529694E+02  0.00000000000E+00 0. -1.
</event>
<event>
 7    1  0.4400431E-015  0.9000787E+02  0.7816164E-02  0.1186339E+00
        -11   -1    0    0    0    0  0.00000000000E+00  0.00000000000E+00  0.45593999997E+02  0.45594000000E+02  0.51100000000E-03 0.  1.
         11   -1    0    0    0    0 -0.00000000000E+00 -0.00000000000E+00 -0.45593999997E+02  0.45594000000E+02  0.51100000000E-03 0. -1.
    9900012    2    1    2    0    0 -0.89556993029E-02  0.13773752943E-01  0.11800116593E+01  0.90007873974E+02  0.90000137110E+02 0.  0.
         12    1    1    2    0    0  0.89556993029E-02 -0.13773752943E-01 -0.11800116593E+01  0.11801260259E+01  0.00000000000E+00 0. -1.
         11    1    3    3    0    0  0.32160207101E+02  0.98241983800E+01 -0.16941939882E+02  0.37653992110E+02  0.51100000000E-03 0. -1.
        -11    1    3    3    0    0  0.69140811014E+01  0.14749649881E+01  0.75067963516E+01  0.10311742380E+02  0.51100000000E-03 0.  1.
        -12    1    3    3    0    0 -0.39083243902E+02 -0.11285389615E+02  0.10615155190E+02  0.42042139484E+02  0.00000000000E+00 0.  1.
</event>
<event>
 7    1  0.4400431E-015  0.9000769E+02  0.7816164E-02  0.1186339E+00
        -11   -1    0    0    0    0  0.00000000000E+00  0.00000000000E+00  0.45593999997E+02  0.45594000000E+02  0.51100000000E-03 0.  1.
         11   -1    0    0    0    0 -0.00000000000E+00 -0.00000000000E+00 -0.45593999997E+02  0.45594000000E+02  0.51100000000E-03 0. -1.
    9900012    2    1    2    0    0 -0.32069062238E-01  0.15154923173E+00  0.11701020156E+01  0.90007688888E+02  0.89999949581E+02 0.  0.
         12    1    1    2    0    0  0.32069062238E-01 -0.15154923173E+00 -0.11701020156E+01  0.11803111120E+01  0.00000000000E+00 0. -1.
         11    1    3    3    0    0  0.24576704667E+02  0.26926921217E+02 -0.11686266097E+02  0.38283708207E+02  0.51100000000E-03 0. -1.
        -11    1    3    3    0    0  0.15958022731E+00  0.63639987640E+01 -0.34655949944E+01  0.72481925363E+01  0.51100000000E-03 0.  1.
        -12    1    3    3    0    0 -0.24768353957E+02 -0.33139370750E+02  0.16321963106E+02  0.44475788144E+02  0.00000000000E+00 0.  1.
</event>
<event>
 7    1  0.4400431E-015  0.9000773E+02  0.7816164E-02  0.1186339E+00
        -11   -1    0    0    0    0  0.00000000000E+00  0.00000000000E+00  0.45593999997E+02  0.45594000000E+02  0.51100000000E-03 0. -1.
         11   -1    0    0    0    0 -0.00000000000E+00 -0.00000000000E+00 -0.45593999997E+02  0.45594000000E+02  0.51100000000E-03 0.  1.
    9900012    2    1    2    0    0 -0.98231727816E+00  0.51935320156E+00  0.39795559648E+00  0.90007727303E+02  0.89999988503E+02 0.  0.
         12    1    1    2    0    0  0.98231727816E+00 -0.51935320156E+00 -0.39795559648E+00  0.11802726972E+01  0.00000000000E+00 0. -1.
         11    1    3    3    0    0 -0.45307112406E+01 -0.40209777367E+01  0.95538610193E+01  0.11312465113E+02  0.51100000000E-03 0. -1.
        -11    1    3    3    0    0  0.37249172608E+02  0.97168240192E+01  0.97462188231E+01  0.39710279659E+02  0.51100000000E-03 0.  1.
         12    1    3    3    0    0 -0.33700778645E+02 -0.51764930809E+01 -0.18902124246E+02  0.38984982531E+02  0.00000000000E+00 0. -1.
</event>
<event>
 7    1  0.4400431E-015  0.9000775E+02  0.7816164E-02  0.1186339E+00
        -11   -1    0    0    0    0  0.00000000000E+00  0.00000000000E+00  0.45593999997E+02  0.45594000000E+02  0.51100000000E-03 0.  1.
         11   -1    0    0    0    0 -0.00000000000E+00 -0.00000000000E+00 -0.45593999997E+02  0.45594000000E+02  0.51100000000E-03 0. -1.
    9900012    2    1    2    0    0  0.50617484079E+00 -0.94085803554E+00 -0.50156131334E+00  0.90007749788E+02  0.90000011285E+02 0.  0.
         12    1    1    2    0    0 -0.50617484079E+00  0.94085803554E+00  0.50156131334E+00  0.11802502123E+01  0.00000000000E+00 0. -1.
         11    1    3    3    0    0  0.75126088855E+01 -0.15245817976E+02 -0.66018986934E+01  0.18233467160E+02  0.51100000000E-03 0. -1.
        -11    1    3    3    0    0  0.13375987138E+02 -0.16917605670E+02  0.22387445208E+02  0.31085689903E+02  0.51100000000E-03 0.  1.
         12    1    3    3    0    0 -0.20382421183E+02  0.31222565611E+02 -0.16287107828E+02  0.40688592726E+02  0.00000000000E+00 0. -1.
</event>
<event>
 7    1  0.4400431E-015  0.9000776E+02  0.7816164E-02  0.1186339E+00
        -11   -1    0    0    0    0  0.00000000000E+00  0.00000000000E+00  0.45593999997E+02  0.45594000000E+02  0.51100000000E-03 0. -1.
         11   -1    0    0    0    0 -0.00000000000E+00 -0.00000000000E+00 -0.45593999997E+02  0.45594000000E+02  0.51100000000E-03 0.  1.
    9900012    2    1    2    0    0  0.70568541741E+00 -0.62239754129E+00  0.71245645944E+00  0.90007760696E+02  0.90000022337E+02 0.  0.
         12    1    1    2    0    0 -0.70568541741E+00  0.62239754129E+00 -0.71245645944E+00  0.11802393038E+01  0.00000000000E+00 0. -1.
         11    1    3    3    0    0  0.20364704579E+02  0.18698657732E+02  0.35015970622E+02  0.44614786702E+02  0.51100000000E-03 0. -1.
        -11    1    3    3    0    0 -0.42587349320E+01  0.77604997632E+00 -0.62566448522E+01  0.76081983317E+01  0.51100000000E-03 0.  1.
        -12    1    3    3    0    0 -0.15400284229E+02 -0.20097105250E+02 -0.28046869310E+02  0.37784775663E+02  0.00000000000E+00 0.  1.
</event>
<event>
 7    1  0.4400431E-015  0.9000777E+02  0.7816164E-02  0.1186339E+00
        -11   -1    0    0    0    0  0.00000000000E+00  0.00000000000E+00  0.45593999997E+02  0.45594000000E+02  0.51100000000E-03 0. -1.
         11   -1    0    0    0    0 -0.00000000000E+00 -0.00000000000E+00 -0.45593999997E+02  0.45594000000E+02  0.51100000000E-03 0.  1.
    9900012    2    1    2    0    0 -0.59428589202E+00 -0.70097746821E-01 -0.10172720960E+01  0.90007774626E+02  0.90000036451E+02 0.  0.
         12    1    1    2    0    0  0.59428589202E+00  0.70097746821E-01  0.10172720960E+01  0.11802253738E+01  0.00000000000E+00 0. -1.
         11    1    3    3    0    0 -0.10736277600E+02  0.20879647327E+01 -0.31213088192E+01  0.11374085564E+02  0.51100000000E-03 0. -1.
        -11    1    3    3    0    0 -0.30806557028E+02  0.87600352114E+01  0.13488191997E+02  0.34752172543E+02  0.51100000000E-03 0.  1.
         12    1    3    3    0    0  0.40948548736E+02 -0.10918097691E+02 -0.11384155273E+02  0.43881516519E+02  0.00000000000E+00 0. -1.
</event>
<event>
 7    1  0.4400431E-015  0.9000754E+02  0.7816164E-02  0.1186339E+00
        -11   -1    0    0    0    0  0.00000000000E+00  0.00000000000E+00  0.45593999997E+02  0.45594000000E+02  0.51100000000E-03 0.  1.
         11   -1    0    0    0    0 -0.00000000000E+00 -0.00000000000E+00 -0.45593999997E+02  0.45594000000E+02  0.51100000000E-03 0. -1.
    9900012    2    1    2    0    0  0.39959059072E-01  0.11618477509E+01 -0.20493244200E+00  0.90007540671E+02  0.89999799407E+02 0.  0.
         12    1    1    2    0    0 -0.39959059072E-01 -0.11618477509E+01  0.20493244200E+00  0.11804593294E+01  0.00000000000E+00 0. -1.
         11    1    3    3    0    0 -0.31928067729E+02 -0.14686473130E+02 -0.19844675240E+02  0.40359696946E+02  0.51100000000E-03 0. -1.
        -11    1    3    3    0    0 -0.24646339732E+01  0.18836194839E+01 -0.44066317728E+01  0.53889560050E+01  0.51100000000E-03 0.  1.
        -12    1    3    3    0    0  0.34432660762E+02  0.13964701397E+02  0.24046374570E+02  0.44258887720E+02  0.00000000000E+00 0.  1.
</event>
<event>
 7    1  0.4400431E-015  0.9000770E+02  0.7816164E-02  0.1186339E+00
        -11   -1    0    0    0    0  0.00000000000E+00  0.00000000000E+00  0.45593999997E+02  0.45594000000E+02  0.51100000000E-03 0. -1.
         11   -1    0    0    0    0 -0.00000000000E+00 -0.00000000000E+00 -0.45593999997E+02  0.45594000000E+02  0.51100000000E-03 0.  1.
    9900012    2    1    2    0    0 -0.11529155029E+01 -0.20242294771E+00 -0.15135672398E+00  0.90007704247E+02  0.89999965143E+02 0.  0.
         12    1    1    2    0    0  0.11529155029E+01  0.20242294771E+00  0.15135672398E+00  0.11802957530E+01  0.00000000000E+00 0. -1.
         11    1    3    3    0    0  0.71497481086E+01 -0.60909102016E+01  0.86902377046E+00  0.94325652754E+01  0.51100000000E-03 0. -1.
        -11    1    3    3    0    0  0.75238940730E+01 -0.41437267853E+01 -0.38085795534E+02  0.39042377942E+02  0.51100000000E-03 0.  1.
         12    1    3    3    0    0 -0.15826557684E+02  0.10032214039E+02  0.37065415039E+02  0.41532761029E+02  0.00000000000E+00 0. -1.
</event>
<event>
 7    1  0.4400431E-015  0.9000772E+02  0.7816164E-02  0.1186339E+00
        -11   -1    0    0    0    0  0.00000000000E+00  0.00000000000E+00  0.45593999997E+02  0.45594000000E+02  0.51100000000E-03 0. -1.
         11   -1    0    0    0    0 -0.00000000000E+00 -0.00000000000E+00 -0.45593999997E+02  0.45594000000E+02  0.51100000000E-03 0.  1.
    9900012    2    1    2    0    0  0.78215512139E+00  0.68552506734E+00 -0.55798331186E+00  0.90007721801E+02  0.89999982928E+02 0.  0.
         12    1    1    2    0    0 -0.78215512139E+00 -0.68552506734E+00  0.55798331186E+00  0.11802781995E+01  0.00000000000E+00 0. -1.
         11    1    3    3    0    0 -0.54714022588E+01 -0.57336036952E+01 -0.52181939622E+00  0.79424649671E+01  0.51100000000E-03 0. -1.
        -11    1    3    3    0    0  0.78614259248E+01 -0.34056522721E+02 -0.16108688712E+02  0.38485563654E+02  0.51100000000E-03 0.  1.
         12    1    3    3    0    0 -0.16078685446E+01  0.40475651484E+02  0.16072524797E+02  0.43579693180E+02  0.00000000000E+00 0. -1.
</event>
<event>
 7    1  0.4400431E-015  0.9000688E+02  0.7816164E-02  0.1186341E+00
        -11   -1    0    0    0    0  0.00000000000E+00  0.00000000000E+00  0.45593999997E+02  0.45594000000E+02  0.51100000000E-03 0. -1.
         11   -1    0    0    0    0 -0.00000000000E+00 -0.00000000000E+00 -0.45593999997E+02  0.45594000000E+02  0.51100000000E-03 0.  1.
    9900012    2    1    2    0    0  0.52664908852E+00 -0.85392361203E+00 -0.62329222018E+00  0.90006882737E+02  0.89999132785E+02 0.  0.
         12    1    1    2    0    0 -0.52664908852E+00  0.85392361203E+00  0.62329222018E+00  0.11811172632E+01  0.00000000000E+00 0. -1.
         11    1    3    3    0    0 -0.19239921084E+02  0.29490917112E+02  0.14812227575E+02  0.38200665458E+02  0.51100000000E-03 0. -1.
        -11    1    3    3    0    0  0.22852707763E+01 -0.31306579408E+01  0.99568576605E+01  0.10684685133E+02  0.51100000000E-03 0.  1.
        -12    1    3    3    0    0  0.17481299397E+02 -0.27214182783E+02 -0.25392377455E+02  0.41121532146E+02  0.00000000000E+00 0.  1.
</event>
<event>
 7    1  0.4400431E-015  0.9000777E+02  0.7816164E-02  0.1186339E+00
        -11   -1    0    0    0    0  0.00000000000E+00  0.00000000000E+00  0.45593999997E+02  0.45594000000E+02  0.51100000000E-03 0. -1.
         11   -1    0    0    0    0 -0.00000000000E+00 -0.00000000000E+00 -0.45593999997E+02  0.45594000000E+02  0.51100000000E-03 0.  1.
    9900012    2    1    2    0    0 -0.50714639784E+00 -0.99336772577E+00 -0.38594594473E+00  0.90007774945E+02  0.90000036775E+02 0.  0.
         12    1    1    2    0    0  0.50714639784E+00  0.99336772577E+00  0.38594594473E+00  0.11802250547E+01  0.00000000000E+00 0. -1.
         11    1    3    3    0    0  0.35898435989E+01  0.63638419550E+01 -0.50211880754E+01  0.88655395460E+01  0.51100000000E-03 0. -1.
        -11    1    3    3    0    0 -0.20015783198E+02 -0.38146058964E+01 -0.33756971470E+02  0.39429886105E+02  0.51100000000E-03 0.  1.
         12    1    3    3    0    0  0.15918793201E+02 -0.35426037843E+01  0.38392213600E+02  0.41712349295E+02  0.00000000000E+00 0. -1.
</event>
<event>
 7    1  0.4400431E-015  0.9000873E+02  0.7816164E-02  0.1186337E+00
        -11   -1    0    0    0    0  0.00000000000E+00  0.00000000000E+00  0.45593999997E+02  0.45594000000E+02  0.51100000000E-03 0.  1.
         11   -1    0    0    0    0 -0.00000000000E+00 -0.00000000000E+00 -0.45593999997E+02  0.45594000000E+02  0.51100000000E-03 0. -1.
    9900012    2    1    2    0    0  0.77494534629E+00  0.88006807929E+00  0.12499421377E+00  0.90008727484E+02  0.90001001881E+02 0.  0.
         12    1    1    2    0    0 -0.77494534629E+00 -0.88006807929E+00 -0.12499421377E+00  0.11792725162E+01  0.00000000000E+00 0. -1.
         11    1    3    3    0    0 -0.31949082833E+01  0.10181036175E+02  0.38417759306E+01  0.11341083683E+02  0.51100000000E-03 0. -1.
        -11    1    3    3    0    0 -0.14674864071E+02 -0.16746189559E+02  0.31235768085E+02  0.38359610378E+02  0.51100000000E-03 0.  1.
         12    1    3    3    0    0  0.18644717701E+02  0.74452214629E+01 -0.34952549802E+02  0.40308033423E+02  0.00000000000E+00 0. -1.
</event>
<event>
 7    1  0.4400431E-015  0.9000776E+02  0.7816164E-02  0.1186339E+00
        -11   -1    0    0    0    0  0.00000000000E+00  0.00000000000E+00  0.45593999997E+02  0.45594000000E+02  0.51100000000E-03 0. -1.
         11   -1    0    0    0    0 -0.00000000000E+00 -0.00000000000E+00 -0.45593999997E+02  0.45594000000E+02  0.51100000000E-03 0.  1.
    9900012    2    1    2    0    0 -0.12768921932E-01  0.39163992625E-01 -0.11795205105E+01  0.90007760406E+02  0.90000022044E+02 0.  0.
         12    1    1    2    0    0  0.12768921932E-01 -0.39163992625E-01  0.11795205105E+01  0.11802395936E+01  0.00000000000E+00 0. -1.
         11    1    3    3    0    0 -0.34321490268E+01  0.72890680075E+01  0.39957036994E+01  0.89930977797E+01  0.51100000000E-03 0. -1.
        -11    1    3    3    0    0 -0.19481870964E+01  0.21814524845E+02 -0.33535050031E+02  0.40053320812E+02  0.51100000000E-03 0.  1.
         12    1    3    3    0    0  0.53675672013E+01 -0.29064428860E+02  0.28359825822E+02  0.40961341815E+02  0.00000000000E+00 0. -1.
</event>
<event>
 7    1  0.4400431E-015  0.9000767E+02  0.7816164E-02  0.1186339E+00
        -11   -1    0    0    0    0  0.00000000000E+00  0.00000000000E+00  0.45593999997E+02  0.45594000000E+02  0.51100000000E-03 0. -1.
         11   -1    0    0    0    0 -0.00000000000E+00 -0.00000000000E+00 -0.45593999997E+02  0.45594000000E+02  0.51100000000E-03 0.  1.
    9900012    2    1    2    0    0 -0.94081865448E+00 -0.14241800376E+00 -0.69838792194E+00  0.90007674486E+02  0.89999934990E+02 0.  0.
         12    1    1    2    0    0  0.94081865448E+00  0.14241800376E+00  0.69838792194E+00  0.11803255136E+01  0.00000000000E+00 0. -1.
         11    1    3    3    0    0  0.20009710401E+01 -0.51935382001E+00 -0.91443442009E+01  0.93751077124E+01  0.51100000000E-03 0. -1.
        -11    1    3    3    0    0  0.28925970199E+02 -0.13739753656E+02 -0.18132465963E+02  0.36800528592E+02  0.51100000000E-03 0.  1.
         12    1    3    3    0    0 -0.31867759894E+02  0.14116689472E+02  0.26578422242E+02  0.43832038182E+02  0.00000000000E+00 0. -1.
</event>
<event>
 7    1  0.4400431E-015  0.9000735E+02  0.7816164E-02  0.1186340E+00
        -11   -1    0    0    0    0  0.00000000000E+00  0.00000000000E+00  0.45593999997E+02  0.45594000000E+02  0.51100000000E-03 0.  1.
         11   -1    0    0    0    0 -0.00000000000E+00 -0.00000000000E+00 -0.45593999997E+02  0.45594000000E+02  0.51100000000E-03 0. -1.
    9900012    2    1    2    0    0 -0.70755816471E+00 -0.93584883729E+00 -0.13218609925E+00  0.90007354089E+02  0.89999610362E+02 0.  0.
         12    1    1    2    0    0  0.70755816471E+00  0.93584883729E+00  0.13218609925E+00  0.11806459112E+01  0.00000000000E+00 0. -1.
         11    1    3    3    0    0 -0.90395113416E+01  0.31437173588E+01 -0.31534092505E+02  0.32954433913E+02  0.51100000000E-03 0. -1.
        -11    1    3    3    0    0  0.17358953606E+02 -0.10696274055E+02 -0.32420207350E+01  0.20645925692E+02  0.51100000000E-03 0.  1.
         12    1    3    3    0    0 -0.90270004294E+01  0.66167078592E+01  0.34643927141E+02  0.36406994484E+02  0.00000000000E+00 0. -1.
</event>
<event>
 7    1  0.4400431E-015  0.9000791E+02  0.7816164E-02  0.1186339E+00
        -11   -1    0    0    0    0  0.00000000000E+00  0.00000000000E+00  0.45593999997E+02  0.45594000000E+02  0.51100000000E-03 0.  1.
         11   -1    0    0    0    0 -0.00000000000E+00 -0.00000000000E+00 -0.45593999997E+02  0.45594000000E+02  0.51100000000E-03 0. -1.
    9900012    2    1    2    0    0 -0.96969298466E+00  0.11852823389E+00 -0.66201114738E+00  0.90007910094E+02  0.90000173707E+02 0.  0.
         12    1    1    2    0    0  0.96969298466E+00 -0.11852823389E+00  0.66201114738E+00  0.11800899059E+01  0.00000000000E+00 0. -1.
         11    1    3    3    0    0 -0.53020873330E+01 -0.88982860292E+01 -0.92095809167E+01  0.13860303217E+02  0.51100000000E-03 0. -1.
        -11    1    3    3    0    0  0.42188452917E+01 -0.32451378626E+02  0.11216759995E+02  0.34593443532E+02  0.51100000000E-03 0.  1.
         12    1    3    3    0    0  0.11354905664E+00  0.41468192889E+02 -0.26691902256E+01  0.41554163346E+02  0.00000000000E+00 0. -1.
</event>
<event>
 7    1  0.4400431E-015  0.9000768E+02  0.7816164E-02  0.1186339E+00
        -11   -1    0    0    0    0  0.00000000000E+00  0.00000000000E+00  0.45593999997E+02  0.45594000000E+02  0.51100000000E-03 0.  1.
         11   -1    0    0    0    0 -0.00000000000E+00 -0.00000000000E+00 -0.45593999997E+02  0.45594000000E+02  0.51100000000E-03 0. -1.
    9900012    2    1    2    0    0 -0.24074050247E-01  0.74590384300E+00  0.91444562065E+00  0.90007676783E+02  0.89999937317E+02 0.  0.
         12    1    1    2    0    0  0.24074050247E-01 -0.74590384300E+00 -0.91444562065E+00  0.11803232168E+01  0.00000000000E+00 0. -1.
         11    1    3    3    0    0  0.24346314280E+02 -0.31259613339E+02  0.78129021525E+01  0.40384995795E+02  0.51100000000E-03 0. -1.
        -11    1    3    3    0    0  0.43368743446E+01  0.52051708954E+01 -0.78099678556E+01  0.10339143161E+02  0.51100000000E-03 0.  1.
        -12    1    3    3    0    0 -0.28707262675E+02  0.26800346286E+02  0.91151132371E+00  0.39283537827E+02  0.00000000000E+00 0.  1.
</event>
<event>
 7    1  0.4400431E-015  0.9000673E+02  0.7816164E-02  0.1186341E+00
        -11   -1    0    0    0    0  0.00000000000E+00  0.00000000000E+00  0.45593999997E+02  0.45594000000E+02  0.51100000000E-03 0.  1.
         11   -1    0    0    0    0 -0.00000000000E+00 -0.00000000000E+00 -0.45593999997E+02  0.45594000000E+02  0.51100000000E-03 0. -1.
    9900012    2    1    2    0    0 -0.45253325087E+00 -0.10243939755E+01 -0.37580724639E+00  0.90006729308E+02  0.89998977330E+02 0.  0.
         12    1    1    2    0    0  0.45253325087E+00  0.10243939755E+01  0.37580724639E+00  0.11812706916E+01  0.00000000000E+00 0. -1.
         11    1    3    3    0    0  0.44371696172E+01  0.77931768397E+01  0.99769580165E+00  0.90231633389E+01  0.51100000000E-03 0. -1.
        -11    1    3    3    0    0 -0.21397871307E+02  0.29610791617E+02  0.95416384832E+01  0.37758585009E+02  0.51100000000E-03 0.  1.
         12    1    3    3    0    0  0.16508168439E+02 -0.38428362432E+02 -0.10915141531E+02  0.43224980961E+02  0.00000000000E+00 0. -1.
</event>
<event>
 7    1  0.4400431E-015  0.9000772E+02  0.7816164E-02  0.1186339E+00
        -11   -1    0    0    0    0  0.00000000000E+00  0.00000000000E+00  0.45593999997E+02  0.45594000000E+02  0.51100000000E-03 0. -1.
         11   -1    0    0    0    0 -0.00000000000E+00 -0.00000000000E+00 -0.45593999997E+02  0.45594000000E+02  0.51100000000E-03 0.  1.
    9900012    2    1    2    0    0 -0.22502643476E+00 -0.68011019360E+00 -0.93802146739E+00  0.90007715693E+02  0.89999976740E+02 0.  0.
         12    1    1    2    0    0  0.22502643476E+00  0.68011019360E+00  0.93802146739E+00  0.11802843069E+01  0.00000000000E+00 0. -1.
         11    1    3    3    0    0 -0.21384025682E+02 -0.27684863250E+02  0.21325446956E+02  0.40969536190E+02  0.51100000000E-03 0. -1.
        -11    1    3    3    0    0  0.74059168049E+01  0.12306631856E+02  0.49473146741E+01  0.15191336811E+02  0.51100000000E-03 0.  1.
        -12    1    3    3    0    0  0.13753082442E+02  0.14698121200E+02 -0.27210783097E+02  0.33846842692E+02  0.00000000000E+00 0.  1.
</event>
<event>
 7    1  0.4400431E-015  0.9000789E+02  0.7816164E-02  0.1186339E+00
        -11   -1    0    0    0    0  0.00000000000E+00  0.00000000000E+00  0.45593999997E+02  0.45594000000E+02  0.51100000000E-03 0.  1.
         11   -1    0    0    0    0 -0.00000000000E+00 -0.00000000000E+00 -0.45593999997E+02  0.45594000000E+02  0.51100000000E-03 0. -1.
    9900012    2    1    2    0    0  0.62928359129E+00  0.22023358414E+00  0.97373039839E+00  0.90007893412E+02  0.90000156805E+02 0.  0.
         12    1    1    2    0    0 -0.62928359129E+00 -0.22023358414E+00 -0.97373039839E+00  0.11801065878E+01  0.00000000000E+00 0. -1.
         11    1    3    3    0    0 -0.29788129822E+02 -0.11094180937E+02 -0.24493307265E+01  0.31881228806E+02  0.51100000000E-03 0. -1.
        -11    1    3    3    0    0  0.87774014475E+01 -0.16401074406E+02  0.11735410015E+02  0.21994496273E+02  0.51100000000E-03 0.  1.
         12    1    3    3    0    0  0.21640011965E+02  0.27715488927E+02 -0.83123488900E+01  0.36132168332E+02  0.00000000000E+00 0. -1.
</event>
<event>
 7    1  0.4400431E-015  0.9000778E+02  0.7816164E-02  0.1186339E+00
        -11   -1    0    0    0    0  0.00000000000E+00  0.00000000000E+00  0.45593999997E+02  0.45594000000E+02  0.51100000000E-03 0. -1.
         11   -1    0    0    0    0 -0.00000000000E+00 -0.00000000000E+00 -0.45593999997E+02  0.45594000000E+02  0.51100000000E-03 0.  1.
    9900012    2    1    2    0    0  0.85561077766E+00  0.45718383025E+00 -0.67217822254E+00  0.90007783740E+02  0.90000045685E+02 0.  0.
         12    1    1    2    0    0 -0.85561077766E+00 -0.45718383025E+00  0.67217822254E+00  0.11802162600E+01  0.00000000000E+00 0. -1.
         11    1    3    3    0    0 -0.42521110100E+01 -0.20436581503E+02  0.31476602584E+02  0.37769178201E+02  0.51100000000E-03 0. -1.
        -11    1    3    3    0    0  0.33010474934E+01  0.95740627815E+01  0.64278688020E+01  0.11994877669E+02  0.51100000000E-03 0.  1.
        -12    1    3    3    0    0  0.18066742943E+01  0.11319702551E+02 -0.38576649608E+02  0.40243727870E+02  0.00000000000E+00 0.  1.
</event>
<event>
 7    1  0.4400431E-015  0.9000775E+02  0.7816164E-02  0.1186339E+00
        -11   -1    0    0    0    0  0.00000000000E+00  0.00000000000E+00  0.45593999997E+02  0.45594000000E+02  0.51100000000E-03 0.  1.
         11   -1    0    0    0    0 -0.00000000000E+00 -0.00000000000E+00 -0.45593999997E+02  0.45594000000E+02  0.51100000000E-03 0. -1.
    9900012    2    1    2    0    0 -0.27286886064E+00  0.44638960623E+00  0.10579526691E+01  0.90007752168E+02  0.90000013696E+02 0.  0.
         12    1    1    2    0    0  0.27286886064E+00 -0.44638960623E+00 -0.10579526691E+01  0.11802478323E+01  0.00000000000E+00 0. -1.
         11    1    3    3    0    0  0.74837645301E+01 -0.45521747639E+01  0.13396493902E+01  0.88613592283E+01  0.51100000000E-03 0. -1.
        -11    1    3    3    0    0  0.24733481170E+02  0.21969128149E+02  0.20589591311E+02  0.38965612443E+02  0.51100000000E-03 0.  1.
         12    1    3    3    0    0 -0.32490114561E+02 -0.16970563779E+02 -0.20871288033E+02  0.42180780497E+02  0.00000000000E+00 0. -1.
</event>
<event>
 7    1  0.4400431E-015  0.9000777E+02  0.7816164E-02  0.1186339E+00
        -11   -1    0    0    0    0  0.00000000000E+00  0.00000000000E+00  0.45593999997E+02  0.45594000000E+02  0.51100000000E-03 0.  1.
         11   -1    0    0    0    0 -0.00000000000E+00 -0.00000000000E+00 -0.45593999997E+02  0.45594000000E+02  0.51100000000E-03 0. -1.
    9900012    2    1    2    0    0  0.10331667972E+01 -0.36678289622E+00 -0.43702159923E+00  0.90007766463E+02  0.90000028180E+02 0.  0.
         12    1    1    2    0    0 -0.10331667972E+01  0.36678289622E+00  0.43702159923E+00  0.11802335370E+01  0.00000000000E+00 0. -1.
         11    1    3    3    0    0  0.12969795136E+02 -0.19803804033E+02 -0.35716607049E+02  0.42849530446E+02  0.51100000000E-03 0. -1.
        -11    1    3    3    0    0 -0.20812503400E-01 -0.45012066654E+01  0.41709078737E+01  0.61365924874E+01  0.51100000000E-03 0.  1.
        -12    1    3    3    0    0 -0.11915815835E+02  0.23938227802E+02  0.31108677576E+02  0.41021643530E+02  0.00000000000E+00 0.  1.
</event>
<event>
 7    1  0.4400431E-015  0.9000779E+02  0.7816164E-02  0.1186339E+00
        -11   -1    0    0    0    0  0.00000000000E+00  0.00000000000E+00  0.45593999997E+02  0.45594000000E+02  0.51100000000E-03 0.  1.
         11   -1    0    0    0    0 -0.00000000000E+00 -0.00000000000E+00 -0.45593999997E+02  0.45594000000E+02  0.51100000000E-03 0. -1.
    9900012    2    1    2    0    0  0.55185599617E+00  0.10023184235E+01 -0.28930787236E+00  0.90007793955E+02  0.90000056036E+02 0.  0.
         12    1    1    2    0    0 -0.55185599617E+00 -0.10023184235E+01  0.28930787236E+00  0.11802060446E+01  0.00000000000E+00 0. -1.
         11    1    3    3    0    0  0.69604421971E+00 -0.20961554649E+01  0.77759522973E+01  0.80835499430E+01  0.51100000000E-03 0. -1.
        -11    1    3    3    0    0  0.70062911684E+01  0.32966477699E+02  0.20941902900E+02  0.39679214523E+02  0.51100000000E-03 0.  1.
         12    1    3    3    0    0 -0.71504793920E+01 -0.29868003811E+02 -0.29007163070E+02  0.42245029489E+02  0.00000000000E+00 0. -1.
</event>
<event>
 7    1  0.4400431E-015  0.9000785E+02  0.7816164E-02  0.1186339E+00
        -11   -1    0    0    0    0  0.00000000000E+00  0.00000000000E+00  0.45593999997E+02  0.45594000000E+02  0.51100000000E-03 0. -1.
         11   -1    0    0    0    0 -0.00000000000E+00 -0.00000000000E+00 -0.45593999997E+02  0.45594000000E+02  0.51100000000E-03 0.  1.
    9900012    2    1    2    0    0 -0.57373912320E+00  0.62984701989E+00 -0.81661572298E+00  0.90007853785E+02  0.90000116655E+02 0.  0.
         12    1    1    2    0    0  0.57373912320E+00 -0.62984701989E+00  0.81661572298E+00  0.11801462151E+01  0.00000000000E+00 0. -1.
         11    1    3    3    0    0 -0.19954689528E+02  0.34705387485E+02  0.11012850841E+02  0.41520313565E+02  0.51100000000E-03 0. -1.
        -11    1    3    3    0    0  0.10164053754E+02 -0.84365509712E+00  0.34516231268E+01  0.10767239438E+02  0.51100000000E-03 0.  1.
        -12    1    3    3    0    0  0.92168966501E+01 -0.33231885368E+02 -0.15281089690E+02  0.37720300782E+02  0.00000000000E+00 0.  1.
</event>
<event>
 7    1  0.1063369E-014  0.9000780E+02  0.7816164E-02  0.1186339E+00
        -11   -1    0    0    0    0  0.00000000000E+00  0.00000000000E+00  0.45593999997E+02  0.45594000000E+02  0.51100000000E-03 0. -1.
         11   -1    0    0    0    0 -0.00000000000E+00 -0.00000000000E+00 -0.45593999997E+02  0.45594000000E+02  0.51100000000E-03 0.  1.
    9900012    2    1    2    0    0 -0.11093212189E+00 -0.32860260202E+00 -0.11280898099E+01  0.90007799922E+02  0.90000062081E+02 0.  0.
         12    1    1    2    0    0  0.11093212189E+00  0.32860260202E+00  0.11280898099E+01  0.11802000784E+01  0.00000000000E+00 0. -1.
         11    1    3    3    0    0  0.93827650792E+01  0.10428533187E+00  0.11094826055E+01  0.94487093232E+01  0.51100000000E-03 0. -1.
        -11    1    3    3    0    0  0.72054806587E+01 -0.14865590416E+02 -0.36350567032E+02  0.39928291396E+02  0.51100000000E-03 0.  1.
         12    1    3    3    0    0 -0.16699177860E+02  0.14432702482E+02  0.34112994617E+02  0.40630799203E+02  0.00000000000E+00 0. -1.
</event>
<event>
 7    1  0.4400431E-015  0.9000777E+02  0.7816164E-02  0.1186339E+00
        -11   -1    0    0    0    0  0.00000000000E+00  0.00000000000E+00  0.45593999997E+02  0.45594000000E+02  0.51100000000E-03 0. -1.
         11   -1    0    0    0    0 -0.00000000000E+00 -0.00000000000E+00 -0.45593999997E+02  0.45594000000E+02  0.51100000000E-03 0.  1.
    9900012    2    1    2    0    0  0.87634805458E-01 -0.36626355323E-02 -0.11769661326E+01  0.90007770128E+02  0.90000031893E+02 0.  0.
         12    1    1    2    0    0 -0.87634805458E-01  0.36626355323E-02  0.11769661326E+01  0.11802298723E+01  0.00000000000E+00 0. -1.
         11    1    3    3    0    0  0.18123235806E+02 -0.77122125556E+01  0.37900964668E+00  0.19699582411E+02  0.51100000000E-03 0. -1.
        -11    1    3    3    0    0 -0.17718186065E+02  0.17997776991E+02 -0.30493446629E+02  0.39594246825E+02  0.51100000000E-03 0.  1.
         12    1    3    3    0    0 -0.31741493546E+00 -0.10289227071E+02  0.28937470850E+02  0.30713940892E+02  0.00000000000E+00 0. -1.
</event>
<event>
 7    1  0.4400431E-015  0.9000775E+02  0.7816164E-02  0.1186339E+00
        -11   -1    0    0    0    0  0.00000000000E+00  0.00000000000E+00  0.45593999997E+02  0.45594000000E+02  0.51100000000E-03 0.  1.
         11   -1    0    0    0    0 -0.00000000000E+00 -0.00000000000E+00 -0.45593999997E+02  0.45594000000E+02  0.51100000000E-03 0. -1.
    9900012    2    1    2    0    0  0.47472560868E-01  0.11770277772E+01 -0.73032827332E-01  0.90007753489E+02  0.90000015035E+02 0.  0.
         12    1    1    2    0    0 -0.47472560868E-01 -0.11770277772E+01  0.73032827332E-01  0.11802465108E+01  0.00000000000E+00 0. -1.
         11    1    3    3    0    0  0.35653016156E+01  0.62255108351E+01  0.39637842747E+01  0.81963374019E+01  0.51100000000E-03 0. -1.
        -11    1    3    3    0    0  0.23311856013E+02  0.29669134799E+02 -0.39175666356E+01  0.37934779808E+02  0.51100000000E-03 0.  1.
         12    1    3    3    0    0 -0.26829685068E+02 -0.34717617857E+02 -0.11925046644E+00  0.43876636279E+02  0.00000000000E+00 0. -1.
</event>
<event>
 7    1  0.4400431E-015  0.9000773E+02  0.7816164E-02  0.1186339E+00
        -11   -1    0    0    0    0  0.00000000000E+00  0.00000000000E+00  0.45593999997E+02  0.45594000000E+02  0.51100000000E-03 0. -1.
         11   -1    0    0    0    0 -0.00000000000E+00 -0.00000000000E+00 -0.45593999997E+02  0.45594000000E+02  0.51100000000E-03 0.  1.
    9900012    2    1    2    0    0 -0.49351086159E+00 -0.99341939779E+00  0.40322929155E+00  0.90007733533E+02  0.89999994816E+02 0.  0.
         12    1    1    2    0    0  0.49351086159E+00  0.99341939779E+00 -0.40322929155E+00  0.11802664665E+01  0.00000000000E+00 0. -1.
         11    1    3    3    0    0  0.28654788323E+01  0.20534617926E+01  0.97981676947E+01  0.10413057414E+02  0.51100000000E-03 0. -1.
        -11    1    3    3    0    0  0.17467999318E+01  0.37789939902E+02 -0.59587551710E+01  0.38296705227E+02  0.51100000000E-03 0.  1.
         12    1    3    3    0    0 -0.51057896256E+01 -0.40836821092E+02 -0.34361832321E+01  0.41297970892E+02  0.00000000000E+00 0. -1.
</event>
<event>
 7    1  0.4400431E-015  0.9000775E+02  0.7816164E-02  0.1186339E+00
        -11   -1    0    0    0    0  0.00000000000E+00  0.00000000000E+00  0.45593999997E+02  0.45594000000E+02  0.51100000000E-03 0. -1.
         11   -1    0    0    0    0 -0.00000000000E+00 -0.00000000000E+00 -0.45593999997E+02  0.45594000000E+02  0.51100000000E-03 0.  1.
    9900012    2    1    2    0    0 -0.85983397988E+00  0.16738430868E+00 -0.79097899390E+00  0.90007754369E+02  0.90000015927E+02 0.  0.
         12    1    1    2    0    0  0.85983397988E+00 -0.16738430868E+00  0.79097899390E+00  0.11802456306E+01  0.00000000000E+00 0. -1.
         11    1    3    3    0    0  0.29930549267E+02 -0.11821229379E+02  0.11837379117E+02  0.34288522688E+02  0.51100000000E-03 0. -1.
        -11    1    3    3    0    0  0.72381353281E+01 -0.82851382533E+01 -0.80171427312E+00  0.11030723682E+02  0.51100000000E-03 0.  1.
        -12    1    3    3    0    0 -0.38028518575E+02  0.20273751941E+02 -0.11826643838E+02  0.44688508000E+02  0.00000000000E+00 0.  1.
</event>
<event>
 7    1  0.4400431E-015  0.9000768E+02  0.7816164E-02  0.1186339E+00
        -11   -1    0    0    0    0  0.00000000000E+00  0.00000000000E+00  0.45593999997E+02  0.45594000000E+02  0.51100000000E-03 0. -1.
         11   -1    0    0    0    0 -0.00000000000E+00 -0.00000000000E+00 -0.45593999997E+02  0.45594000000E+02  0.51100000000E-03 0.  1.
    9900012    2    1    2    0    0 -0.41917497638E+00  0.83324293004E+00 -0.72329620774E+00  0.90007678499E+02  0.89999939055E+02 0.  0.
         12    1    1    2    0    0  0.41917497638E+00 -0.83324293004E+00  0.72329620774E+00  0.11803215009E+01  0.00000000000E+00 0. -1.
         11    1    3    3    0    0  0.39195012358E+01  0.36853845740E+02 -0.16253881973E+02  0.40469211942E+02  0.51100000000E-03 0. -1.
        -11    1    3    3    0    0  0.67630708362E+01  0.22328719505E+01  0.12932647499E+01  0.72386033361E+01  0.51100000000E-03 0.  1.
        -12    1    3    3    0    0 -0.11101747048E+02 -0.38253474761E+02  0.14237321015E+02  0.42299863221E+02  0.00000000000E+00 0.  1.
</event>
<event>
 7    1  0.4400431E-015  0.9000709E+02  0.7816164E-02  0.1186340E+00
        -11   -1    0    0    0    0  0.00000000000E+00  0.00000000000E+00  0.45593999997E+02  0.45594000000E+02  0.51100000000E-03 0.  1.
         11   -1    0    0    0    0 -0.00000000000E+00 -0.00000000000E+00 -0.45593999997E+02  0.45594000000E+02  0.51100000000E-03 0. -1.
    9900012    2    1    2    0    0  0.11303278472E+01  0.34066261948E+00 -0.29104141984E-01  0.90007093944E+02  0.89999346781E+02 0.  0.
         12    1    1    2    0    0 -0.11303278472E+01 -0.34066261948E+00  0.29104141984E-01  0.11809060562E+01  0.00000000000E+00 0. -1.
         11    1    3    3    0    0  0.23048305970E+02  0.99808596177E+01 -0.36384660717E+02  0.44211825370E+02  0.51100000000E-03 0. -1.
        -11    1    3    3    0    0 -0.81362095712E+01  0.26198975996E+01  0.66549948308E+01  0.10832854014E+02  0.51100000000E-03 0.  1.
        -12    1    3    3    0    0 -0.13781768551E+02 -0.12260094598E+02  0.29700561744E+02  0.34962414560E+02  0.00000000000E+00 0.  1.
</event>
<event>
 7    1  0.4400431E-015  0.9000768E+02  0.7816164E-02  0.1186339E+00
        -11   -1    0    0    0    0  0.00000000000E+00  0.00000000000E+00  0.45593999997E+02  0.45594000000E+02  0.51100000000E-03 0.  1.
         11   -1    0    0    0    0 -0.00000000000E+00 -0.00000000000E+00 -0.45593999997E+02  0.45594000000E+02  0.51100000000E-03 0. -1.
    9900012    2    1    2    0    0 -0.19158733257E+00  0.14280902055E+00  0.11558748589E+01  0.90007683597E+02  0.89999944220E+02 0.  0.
         12    1    1    2    0    0  0.19158733257E+00 -0.14280902055E+00 -0.11558748589E+01  0.11803164033E+01  0.00000000000E+00 0. -1.
         11    1    3    3    0    0  0.48780800698E+01 -0.77348467503E+01 -0.10159853760E+01  0.92008557191E+01  0.51100000000E-03 0. -1.
        -11    1    3    3    0    0  0.35691138281E+02 -0.20208739608E+01 -0.10018894289E+02  0.37125725938E+02  0.51100000000E-03 0.  1.
         12    1    3    3    0    0 -0.40760805683E+02  0.98985297316E+01  0.12190754524E+02  0.43681101940E+02  0.00000000000E+00 0. -1.
</event>
<event>
 7    1  0.4400431E-015  0.9000771E+02  0.7816164E-02  0.1186339E+00
        -11   -1    0    0    0    0  0.00000000000E+00  0.00000000000E+00  0.45593999997E+02  0.45594000000E+02  0.51100000000E-03 0. -1.
         11   -1    0    0    0    0 -0.00000000000E+00 -0.00000000000E+00 -0.45593999997E+02  0.45594000000E+02  0.51100000000E-03 0.  1.
    9900012    2    1    2    0    0  0.93020371651E+00  0.60437303689E+00 -0.40316915244E+00  0.90007707203E+02  0.89999968138E+02 0.  0.
         12    1    1    2    0    0 -0.93020371651E+00 -0.60437303689E+00  0.40316915244E+00  0.11802927973E+01  0.00000000000E+00 0. -1.
         11    1    3    3    0    0 -0.86043220541E+01 -0.37672597165E+01  0.12441400769E+02  0.15588940219E+02  0.51100000000E-03 0. -1.
        -11    1    3    3    0    0  0.17478725167E+02  0.33853497673E+02  0.59548742427E+01  0.38561971755E+02  0.51100000000E-03 0.  1.
         12    1    3    3    0    0 -0.79441993960E+01 -0.29481864920E+02 -0.18799444164E+02  0.35856795229E+02  0.00000000000E+00 0. -1.
</event>
<event>
 7    1  0.4400431E-015  0.9000773E+02  0.7816164E-02  0.1186339E+00
        -11   -1    0    0    0    0  0.00000000000E+00  0.00000000000E+00  0.45593999997E+02  0.45594000000E+02  0.51100000000E-03 0. -1.
         11   -1    0    0    0    0 -0.00000000000E+00 -0.00000000000E+00 -0.45593999997E+02  0.45594000000E+02  0.51100000000E-03 0.  1.
    9900012    2    1    2    0    0 -0.95785762614E+00 -0.68570983466E+00 -0.73105097511E-01  0.90007731571E+02  0.89999992828E+02 0.  0.
         12    1    1    2    0    0  0.95785762614E+00  0.68570983466E+00  0.73105097511E-01  0.11802684290E+01  0.00000000000E+00 0. -1.
         11    1    3    3    0    0 -0.20537585561E+02 -0.29306622963E+02 -0.18520661898E+02  0.40294980922E+02  0.51100000000E-03 0. -1.
        -11    1    3    3    0    0 -0.80771159346E+01  0.38639890002E+01  0.23736458426E+01  0.92630668605E+01  0.51100000000E-03 0.  1.
        -12    1    3    3    0    0  0.27656843869E+02  0.24756924128E+02  0.16073910958E+02  0.40449683788E+02  0.00000000000E+00 0.  1.
</event>
<event>
 7    1  0.4400431E-015  0.9000775E+02  0.7816164E-02  0.1186339E+00
        -11   -1    0    0    0    0  0.00000000000E+00  0.00000000000E+00  0.45593999997E+02  0.45594000000E+02  0.51100000000E-03 0. -1.
         11   -1    0    0    0    0 -0.00000000000E+00 -0.00000000000E+00 -0.45593999997E+02  0.45594000000E+02  0.51100000000E-03 0.  1.
    9900012    2    1    2    0    0  0.80272347557E+00  0.19950721446E-01  0.86499888862E+00  0.90007751684E+02  0.90000013206E+02 0.  0.
         12    1    1    2    0    0 -0.80272347557E+00 -0.19950721446E-01 -0.86499888862E+00  0.11802483157E+01  0.00000000000E+00 0. -1.
         11    1    3    3    0    0 -0.18403151854E+02 -0.27279718701E+02 -0.14654554274E+02  0.36022423736E+02  0.51100000000E-03 0. -1.
        -11    1    3    3    0    0 -0.35854218460E+01 -0.33276404717E+01 -0.78311985205E+01  0.92334236040E+01  0.51100000000E-03 0.  1.
         12    1    3    3    0    0  0.22791297175E+02  0.30627309894E+02  0.23350751683E+02  0.44751904345E+02  0.00000000000E+00 0. -1.
</event>
<event>
 7    1  0.4400431E-015  0.9000771E+02  0.7816164E-02  0.1186339E+00
        -11   -1    0    0    0    0  0.00000000000E+00  0.00000000000E+00  0.45593999997E+02  0.45594000000E+02  0.51100000000E-03 0.  1.
         11   -1    0    0    0    0 -0.00000000000E+00 -0.00000000000E+00 -0.45593999997E+02  0.45594000000E+02  0.51100000000E-03 0. -1.
    9900012    2    1    2    0    0  0.50319029631E+00  0.97680543031E+00 -0.43096915323E+00  0.90007710318E+02  0.89999971294E+02 0.  0.
         12    1    1    2    0    0 -0.50319029631E+00 -0.97680543031E+00  0.43096915323E+00  0.11802896822E+01  0.00000000000E+00 0. -1.
         11    1    3    3    0    0 -0.19865094827E+01  0.64077184099E-01  0.10463923037E+02  0.10651009877E+02  0.51100000000E-03 0. -1.
        -11    1    3    3    0    0 -0.23300225331E+02 -0.24617728426E+02 -0.23157701399E+02  0.41051336003E+02  0.51100000000E-03 0.  1.
         12    1    3    3    0    0  0.25789925110E+02  0.25530456672E+02  0.12262809209E+02  0.38305364438E+02  0.00000000000E+00 0. -1.
</event>
<event>
 7    1  0.4400431E-015  0.9000774E+02  0.7816164E-02  0.1186339E+00
        -11   -1    0    0    0    0  0.00000000000E+00  0.00000000000E+00  0.45593999997E+02  0.45594000000E+02  0.51100000000E-03 0. -1.
         11   -1    0    0    0    0 -0.00000000000E+00 -0.00000000000E+00 -0.45593999997E+02  0.45594000000E+02  0.51100000000E-03 0.  1.
    9900012    2    1    2    0    0 -0.33821953838E+00  0.11278181218E+01 -0.81573660544E-01  0.90007737134E+02  0.89999998464E+02 0.  0.
         12    1    1    2    0    0  0.33821953838E+00 -0.11278181218E+01  0.81573660544E-01  0.11802628665E+01  0.00000000000E+00 0. -1.
         11    1    3    3    0    0  0.14940835154E+02 -0.19777993294E+02  0.30169985403E+02  0.39046454299E+02  0.51100000000E-03 0. -1.
        -11    1    3    3    0    0  0.87744963551E+01  0.53326290902E+00 -0.29869918819E+01  0.92843026867E+01  0.51100000000E-03 0.  1.
        -12    1    3    3    0    0 -0.24053551047E+02  0.20372548507E+02 -0.27264567182E+02  0.41676980148E+02  0.00000000000E+00 0.  1.
</event>
<event>
 7    1  0.4400431E-015  0.9000743E+02  0.7816164E-02  0.1186340E+00
        -11   -1    0    0    0    0  0.00000000000E+00  0.00000000000E+00  0.45593999997E+02  0.45594000000E+02  0.51100000000E-03 0. -1.
         11   -1    0    0    0    0 -0.00000000000E+00 -0.00000000000E+00 -0.45593999997E+02  0.45594000000E+02  0.51100000000E-03 0.  1.
    9900012    2    1    2    0    0  0.63319747018E+00  0.69272845802E+00  0.71619564374E+00  0.90007428972E+02  0.89999686234E+02 0.  0.
         12    1    1    2    0    0 -0.63319747018E+00 -0.69272845802E+00 -0.71619564374E+00  0.11805710283E+01  0.00000000000E+00 0. -1.
         11    1    3    3    0    0 -0.78562212457E+01  0.33322616147E+02  0.21384786840E+02  0.40366150022E+02  0.51100000000E-03 0. -1.
        -11    1    3    3    0    0  0.54794923400E+01 -0.36899857681E+01  0.69044487277E+01  0.95557440195E+01  0.51100000000E-03 0.  1.
        -12    1    3    3    0    0  0.30099263759E+01 -0.28939901921E+02 -0.27573039924E+02  0.40085534930E+02  0.00000000000E+00 0.  1.
</event>
<event>
 7    1  0.4400431E-015  0.9000783E+02  0.7816164E-02  0.1186339E+00
        -11   -1    0    0    0    0  0.00000000000E+00  0.00000000000E+00  0.45593999997E+02  0.45594000000E+02  0.51100000000E-03 0. -1.
         11   -1    0    0    0    0 -0.00000000000E+00 -0.00000000000E+00 -0.45593999997E+02  0.45594000000E+02  0.51100000000E-03 0.  1.
    9900012    2    1    2    0    0 -0.71573040232E+00 -0.76270426622E+00 -0.54662813890E+00  0.90007834703E+02  0.90000097321E+02 0.  0.
         12    1    1    2    0    0  0.71573040232E+00  0.76270426622E+00  0.54662813890E+00  0.11801652972E+01  0.00000000000E+00 0. -1.
         11    1    3    3    0    0  0.16038339554E+02 -0.13178105106E+02  0.12620516469E+02  0.24293378234E+02  0.51100000000E-03 0. -1.
        -11    1    3    3    0    0  0.74720962410E+01  0.18094778239E+02  0.17474929473E+02  0.26241691678E+02  0.51100000000E-03 0.  1.
        -12    1    3    3    0    0 -0.24226166197E+02 -0.56793773989E+01 -0.30642074081E+02  0.39472764791E+02  0.00000000000E+00 0.  1.
</event>
<event>
 7    1  0.4400431E-015  0.9000771E+02  0.7816164E-02  0.1186339E+00
        -11   -1    0    0    0    0  0.00000000000E+00  0.00000000000E+00  0.45593999997E+02  0.45594000000E+02  0.51100000000E-03 0. -1.
         11   -1    0    0    0    0 -0.00000000000E+00 -0.00000000000E+00 -0.45593999997E+02  0.45594000000E+02  0.51100000000E-03 0.  1.
    9900012    2    1    2    0    0 -0.10809190654E+01 -0.40632875701E-01 -0.47227849799E+00  0.90007710190E+02  0.89999971164E+02 0.  0.
         12    1    1    2    0    0  0.10809190654E+01  0.40632875701E-01  0.47227849799E+00  0.11802898103E+01  0.00000000000E+00 0. -1.
         11    1    3    3    0    0  0.25797539959E+02  0.14682166822E+00  0.28790695693E+02  0.38657971795E+02  0.51100000000E-03 0. -1.
        -11    1    3    3    0    0  0.75310269504E+01  0.17110669626E+01 -0.49110467215E+01  0.91521853806E+01  0.51100000000E-03 0.  1.
        -12    1    3    3    0    0 -0.34409485974E+02 -0.18985215065E+01 -0.24351927470E+02  0.42197553015E+02  0.00000000000E+00 0.  1.
</event>
<event>
 7    1  0.4400431E-015  0.9000774E+02  0.7816164E-02  0.1186339E+00
        -11   -1    0    0    0    0  0.00000000000E+00  0.00000000000E+00  0.45593999997E+02  0.45594000000E+02  0.51100000000E-03 0. -1.
         11   -1    0    0    0    0 -0.00000000000E+00 -0.00000000000E+00 -0.45593999997E+02  0.45594000000E+02  0.51100000000E-03 0.  1.
    9900012    2    1    2    0    0  0.27518843695E+00 -0.76024474845E+00  0.85982923044E+00  0.90007742800E+02  0.90000004205E+02 0.  0.
         12    1    1    2    0    0 -0.27518843695E+00  0.76024474845E+00 -0.85982923044E+00  0.11802572003E+01  0.00000000000E+00 0. -1.
         11    1    3    3    0    0  0.28886706819E+01 -0.29066072766E+02  0.22220859512E+02  0.36700784761E+02  0.51100000000E-03 0. -1.
        -11    1    3    3    0    0  0.87814857223E+01  0.13873112102E+02  0.83082065612E+01  0.18401196358E+02  0.51100000000E-03 0.  1.
        -12    1    3    3    0    0 -0.11394967967E+02  0.14432715916E+02 -0.29669236843E+02  0.34905761681E+02  0.00000000000E+00 0.  1.
</event>
<event>
 7    1  0.4400431E-015  0.9000784E+02  0.7816164E-02  0.1186339E+00
        -11   -1    0    0    0    0  0.00000000000E+00  0.00000000000E+00  0.45593999997E+02  0.45594000000E+02  0.51100000000E-03 0.  1.
         11   -1    0    0    0    0 -0.00000000000E+00 -0.00000000000E+00 -0.45593999997E+02  0.45594000000E+02  0.51100000000E-03 0. -1.
    9900012    2    1    2    0    0 -0.43181971488E+00  0.58444059295E+00  0.92990700468E+00  0.90007844879E+02  0.90000107631E+02 0.  0.
         12    1    1    2    0    0  0.43181971488E+00 -0.58444059295E+00 -0.92990700468E+00  0.11801551212E+01  0.00000000000E+00 0. -1.
         11    1    3    3    0    0 -0.23923383403E+02  0.22978217456E+02 -0.18202512105E+02  0.37837259390E+02  0.51100000000E-03 0. -1.
        -11    1    3    3    0    0 -0.86952758167E+01 -0.46600410772E+01 -0.15733234621E+01  0.99899525198E+01  0.51100000000E-03 0.  1.
        -12    1    3    3    0    0  0.32186839505E+02 -0.17733735786E+02  0.20705742572E+02  0.42180632969E+02  0.00000000000E+00 0.  1.
</event>
<event>
 7    1  0.4400431E-015  0.9000803E+02  0.7816164E-02  0.1186338E+00
        -11   -1    0    0    0    0  0.00000000000E+00  0.00000000000E+00  0.45593999997E+02  0.45594000000E+02  0.51100000000E-03 0. -1.
         11   -1    0    0    0    0 -0.00000000000E+00 -0.00000000000E+00 -0.45593999997E+02  0.45594000000E+02  0.51100000000E-03 0.  1.
    9900012    2    1    2    0    0 -0.22892543685E+00 -0.11542352580E+01 -0.87530742144E-01  0.90008030713E+02  0.90000295918E+02 0.  0.
         12    1    1    2    0    0  0.22892543685E+00  0.11542352580E+01  0.87530742144E-01  0.11799692866E+01  0.00000000000E+00 0. -1.
         11    1    3    3    0    0  0.58811377683E+01  0.26698714351E+02  0.30270707588E+02  0.40788783600E+02  0.51100000000E-03 0. -1.
        -11    1    3    3    0    0  0.64472193716E+01 -0.49908767080E+01  0.12388909088E+01  0.82468381144E+01  0.51100000000E-03 0.  1.
        -12    1    3    3    0    0 -0.12557282577E+02 -0.22862072901E+02 -0.31597129239E+02  0.40972408999E+02  0.00000000000E+00 0.  1.
</event>
<event>
 7    1  0.4400431E-015  0.9000768E+02  0.7816164E-02  0.1186339E+00
        -11   -1    0    0    0    0  0.00000000000E+00  0.00000000000E+00  0.45593999997E+02  0.45594000000E+02  0.51100000000E-03 0.  1.
         11   -1    0    0    0    0 -0.00000000000E+00 -0.00000000000E+00 -0.45593999997E+02  0.45594000000E+02  0.51100000000E-03 0. -1.
    9900012    2    1    2    0    0  0.16483611614E-01  0.58081801915E+00  0.10273966103E+01  0.90007675860E+02  0.89999936381E+02 0.  0.
         12    1    1    2    0    0 -0.16483611614E-01 -0.58081801915E+00 -0.10273966103E+01  0.11803241401E+01  0.00000000000E+00 0. -1.
         11    1    3    3    0    0  0.23788013203E+02  0.31407148328E+02 -0.11192457682E+01  0.39414860771E+02  0.51100000000E-03 0. -1.
        -11    1    3    3    0    0 -0.70828164220E+01  0.64314780276E+01 -0.11459972958E+01  0.96355336205E+01  0.51100000000E-03 0.  1.
        -12    1    3    3    0    0 -0.16688713170E+02 -0.37257808336E+02  0.32926396743E+01  0.40957281469E+02  0.00000000000E+00 0.  1.
</event>
<event>
 7    1  0.4400431E-015  0.9000751E+02  0.7816164E-02  0.1186340E+00
        -11   -1    0    0    0    0  0.00000000000E+00  0.00000000000E+00  0.45593999997E+02  0.45594000000E+02  0.51100000000E-03 0. -1.
         11   -1    0    0    0    0 -0.00000000000E+00 -0.00000000000E+00 -0.45593999997E+02  0.45594000000E+02  0.51100000000E-03 0.  1.
    9900012    2    1    2    0    0 -0.77645983763E+00 -0.61730874720E+00 -0.64000297776E+00  0.90007506976E+02  0.89999765267E+02 0.  0.
         12    1    1    2    0    0  0.77645983763E+00  0.61730874720E+00  0.64000297776E+00  0.11804930243E+01  0.00000000000E+00 0. -1.
         11    1    3    3    0    0 -0.23632467442E+01 -0.33416754167E+02 -0.17331537291E+02  0.37717987478E+02  0.51100000000E-03 0. -1.
        -11    1    3    3    0    0  0.98952617432E+01 -0.23323087579E+01 -0.37106534773E+01  0.10822422030E+02  0.51100000000E-03 0.  1.
        -12    1    3    3    0    0 -0.83084748366E+01  0.35131754178E+02  0.20402187791E+02  0.41467097468E+02  0.00000000000E+00 0.  1.
</event>
<event>
 7    1  0.4400431E-015  0.9000784E+02  0.7816164E-02  0.1186339E+00
        -11   -1    0    0    0    0  0.00000000000E+00  0.00000000000E+00  0.45593999997E+02  0.45594000000E+02  0.51100000000E-03 0. -1.
         11   -1    0    0    0    0 -0.00000000000E+00 -0.00000000000E+00 -0.45593999997E+02  0.45594000000E+02  0.51100000000E-03 0.  1.
    9900012    2    1    2    0    0 -0.83743256489E+00  0.25619644773E+00  0.79109885894E+00  0.90007844364E+02  0.90000107110E+02 0.  0.
         12    1    1    2    0    0  0.83743256489E+00 -0.25619644773E+00 -0.79109885894E+00  0.11801556360E+01  0.00000000000E+00 0. -1.
         11    1    3    3    0    0 -0.21569853173E+02  0.74848763992E+01 -0.14868742896E+01  0.22879963637E+02  0.51100000000E-03 0. -1.
        -11    1    3    3    0    0  0.23648301557E+01  0.14491740808E+02 -0.24173952342E+02  0.28283969760E+02  0.51100000000E-03 0.  1.
        -12    1    3    3    0    0  0.18367590453E+02 -0.21720420759E+02  0.26451925491E+02  0.38843910966E+02  0.00000000000E+00 0.  1.
</event>
<event>
 7    1  0.4400431E-015  0.9000774E+02  0.7816164E-02  0.1186339E+00
        -11   -1    0    0    0    0  0.00000000000E+00  0.00000000000E+00  0.45593999997E+02  0.45594000000E+02  0.51100000000E-03 0.  1.
         11   -1    0    0    0    0 -0.00000000000E+00 -0.00000000000E+00 -0.45593999997E+02  0.45594000000E+02  0.51100000000E-03 0. -1.
    9900012    2    1    2    0    0 -0.10557051237E+01 -0.11986589259E+00  0.51394070811E+00  0.90007738931E+02  0.90000000284E+02 0.  0.
         12    1    1    2    0    0  0.10557051237E+01  0.11986589259E+00 -0.51394070811E+00  0.11802610694E+01  0.00000000000E+00 0. -1.
         11    1    3    3    0    0  0.36667364724E+01  0.66798424893E+01  0.39952550902E+01  0.86039128039E+01  0.51100000000E-03 0. -1.
        -11    1    3    3    0    0 -0.18276025138E+02  0.29206045420E+02  0.16333568102E+02  0.38128619581E+02  0.51100000000E-03 0.  1.
         12    1    3    3    0    0  0.13553583542E+02 -0.36005753802E+02 -0.19814882484E+02  0.43275206546E+02  0.00000000000E+00 0. -1.
</event>
<event>
 7    1  0.4400431E-015  0.9000764E+02  0.7816164E-02  0.1186339E+00
        -11   -1    0    0    0    0  0.00000000000E+00  0.00000000000E+00  0.45593999997E+02  0.45594000000E+02  0.51100000000E-03 0.  1.
         11   -1    0    0    0    0 -0.00000000000E+00 -0.00000000000E+00 -0.45593999997E+02  0.45594000000E+02  0.51100000000E-03 0. -1.
    9900012    2    1    2    0    0 -0.73259430474E+00  0.63451598314E+00  0.67375595877E+00  0.90007639021E+02  0.89999899056E+02 0.  0.
         12    1    1    2    0    0  0.73259430474E+00 -0.63451598314E+00 -0.67375595877E+00  0.11803609788E+01  0.00000000000E+00 0. -1.
         11    1    3    3    0    0 -0.25397356704E+02 -0.67145023319E+01 -0.23098468108E+02  0.34980701799E+02  0.51100000000E-03 0. -1.
        -11    1    3    3    0    0 -0.12618916157E+01 -0.35569054297E+01 -0.10227037548E+02  0.10901203784E+02  0.51100000000E-03 0.  1.
        -12    1    3    3    0    0  0.25926654015E+02  0.10905923745E+02  0.33999261614E+02  0.44125733438E+02  0.00000000000E+00 0.  1.
</event>
<event>
 7    1  0.4400431E-015  0.9000782E+02  0.7816164E-02  0.1186339E+00
        -11   -1    0    0    0    0  0.00000000000E+00  0.00000000000E+00  0.45593999997E+02  0.45594000000E+02  0.51100000000E-03 0. -1.
         11   -1    0    0    0    0 -0.00000000000E+00 -0.00000000000E+00 -0.45593999997E+02  0.45594000000E+02  0.51100000000E-03 0.  1.
    9900012    2    1    2    0    0  0.59484326758E+00 -0.35655669153E+00 -0.95490774127E+00  0.90007822055E+02  0.90000084506E+02 0.  0.
         12    1    1    2    0    0 -0.59484326758E+00  0.35655669153E+00  0.95490774127E+00  0.11801779449E+01  0.00000000000E+00 0. -1.
         11    1    3    3    0    0  0.29903884389E+02 -0.17087057189E+02  0.15035031052E+02  0.37580074294E+02  0.51100000000E-03 0. -1.
        -11    1    3    3    0    0  0.17348479710E+01 -0.58089646731E+01  0.57305673356E+01  0.83422521122E+01  0.51100000000E-03 0.  1.
        -12    1    3    3    0    0 -0.31043889092E+02  0.22539465170E+02 -0.21720506129E+02  0.44085495649E+02  0.00000000000E+00 0.  1.
</event>
<event>
 7    1  0.4400431E-015  0.9000772E+02  0.7816164E-02  0.1186339E+00
        -11   -1    0    0    0    0  0.00000000000E+00  0.00000000000E+00  0.45593999997E+02  0.45594000000E+02  0.51100000000E-03 0. -1.
         11   -1    0    0    0    0 -0.00000000000E+00 -0.00000000000E+00 -0.45593999997E+02  0.45594000000E+02  0.51100000000E-03 0.  1.
    9900012    2    1    2    0    0 -0.27046590304E+00 -0.11487585071E+01 -0.16321770771E-01  0.90007718545E+02  0.89999979630E+02 0.  0.
         12    1    1    2    0    0  0.27046590304E+00  0.11487585071E+01  0.16321770771E-01  0.11802814548E+01  0.00000000000E+00 0. -1.
         11    1    3    3    0    0 -0.16946888696E+01  0.53142414569E+01  0.50467307725E+01  0.75221422732E+01  0.51100000000E-03 0. -1.
        -11    1    3    3    0    0  0.41016373264E+02 -0.92913316913E+01  0.22871551130E+01  0.42117725474E+02  0.51100000000E-03 0.  1.
         12    1    3    3    0    0 -0.39592150297E+02  0.28283317274E+01 -0.73502076563E+01  0.40367850799E+02  0.00000000000E+00 0. -1.
</event>
<event>
 7    1  0.4400431E-015  0.9000768E+02  0.7816164E-02  0.1186339E+00
        -11   -1    0    0    0    0  0.00000000000E+00  0.00000000000E+00  0.45593999997E+02  0.45594000000E+02  0.51100000000E-03 0.  1.
         11   -1    0    0    0    0 -0.00000000000E+00 -0.00000000000E+00 -0.45593999997E+02  0.45594000000E+02  0.51100000000E-03 0. -1.
    9900012    2    1    2    0    0  0.38243980865E+00  0.10897873684E+01 -0.24341207177E+00  0.90007683876E+02  0.89999944503E+02 0.  0.
         12    1    1    2    0    0 -0.38243980865E+00 -0.10897873684E+01  0.24341207177E+00  0.11803161238E+01  0.00000000000E+00 0. -1.
         11    1    3    3    0    0 -0.74127077034E+01  0.29798653561E+01  0.88350128947E+01  0.11911561029E+02  0.51100000000E-03 0. -1.
        -11    1    3    3    0    0 -0.29436028457E+01  0.23896660328E+02  0.24545380069E+02  0.34383002422E+02  0.51100000000E-03 0.  1.
         12    1    3    3    0    0  0.10738750358E+02 -0.25786738316E+02 -0.33623805036E+02  0.43713120425E+02  0.00000000000E+00 0. -1.
</event>
<event>
 7    1  0.4400431E-015  0.9000772E+02  0.7816164E-02  0.1186339E+00
        -11   -1    0    0    0    0  0.00000000000E+00  0.00000000000E+00  0.45593999997E+02  0.45594000000E+02  0.51100000000E-03 0. -1.
         11   -1    0    0    0    0 -0.00000000000E+00 -0.00000000000E+00 -0.45593999997E+02  0.45594000000E+02  0.51100000000E-03 0.  1.
    9900012    2    1    2    0    0 -0.25567561873E-01  0.82448129044E+00 -0.84417189939E+00  0.90007724907E+02  0.89999986076E+02 0.  0.
         12    1    1    2    0    0  0.25567561873E-01 -0.82448129044E+00  0.84417189939E+00  0.11802750926E+01  0.00000000000E+00 0. -1.
         11    1    3    3    0    0 -0.56975320692E+01  0.87012611787E+01  0.56157159884E+01  0.11819902034E+02  0.51100000000E-03 0. -1.
        -11    1    3    3    0    0 -0.29391048887E+02  0.90114056372E+00  0.18062384150E+02  0.34509354245E+02  0.51100000000E-03 0.  1.
         12    1    3    3    0    0  0.35063013394E+02 -0.87779204520E+01 -0.24522272038E+02  0.43678468628E+02  0.00000000000E+00 0. -1.
</event>
<event>
 7    1  0.4400431E-015  0.9000807E+02  0.7816164E-02  0.1186338E+00
        -11   -1    0    0    0    0  0.00000000000E+00  0.00000000000E+00  0.45593999997E+02  0.45594000000E+02  0.51100000000E-03 0. -1.
         11   -1    0    0    0    0 -0.00000000000E+00 -0.00000000000E+00 -0.45593999997E+02  0.45594000000E+02  0.51100000000E-03 0.  1.
    9900012    2    1    2    0    0  0.10190785177E+00 -0.87173092027E+00 -0.78863551210E+00  0.90008065265E+02  0.90000330926E+02 0.  0.
         12    1    1    2    0    0 -0.10190785177E+00  0.87173092027E+00  0.78863551210E+00  0.11799347349E+01  0.00000000000E+00 0. -1.
         11    1    3    3    0    0 -0.15197490720E+01  0.27620641992E+02  0.12169431433E+02  0.30220929220E+02  0.51100000000E-03 0. -1.
        -11    1    3    3    0    0  0.10728881727E+02  0.11162303385E+02 -0.11113663565E+02  0.19058316768E+02  0.51100000000E-03 0.  1.
        -12    1    3    3    0    0 -0.91072248028E+01 -0.39654676297E+02 -0.18444033798E+01  0.40728819276E+02  0.00000000000E+00 0.  1.
</event>
<event>
 7    1  0.4400431E-015  0.9000775E+02  0.7816164E-02  0.1186339E+00
        -11   -1    0    0    0    0  0.00000000000E+00  0.00000000000E+00  0.45593999997E+02  0.45594000000E+02  0.51100000000E-03 0.  1.
         11   -1    0    0    0    0 -0.00000000000E+00 -0.00000000000E+00 -0.45593999997E+02  0.45594000000E+02  0.51100000000E-03 0. -1.
    9900012    2    1    2    0    0  0.32445735903E+00  0.53607510871E+00  0.10001666360E+01  0.90007753246E+02  0.90000014789E+02 0.  0.
         12    1    1    2    0    0 -0.32445735903E+00 -0.53607510871E+00 -0.10001666360E+01  0.11802467538E+01  0.00000000000E+00 0. -1.
         11    1    3    3    0    0 -0.37272136619E+01  0.80772098335E+01  0.20542782778E+00  0.88980695226E+01  0.51100000000E-03 0. -1.
        -11    1    3    3    0    0 -0.30977365326E+01  0.34990089934E+02  0.10965489609E+02  0.36798700083E+02  0.51100000000E-03 0.  1.
         12    1    3    3    0    0  0.71494075536E+01 -0.42531224659E+02 -0.10170750800E+02  0.44310983640E+02  0.00000000000E+00 0. -1.
</event>
<event>
 7    1  0.4400431E-015  0.9000769E+02  0.7816164E-02  0.1186339E+00
        -11   -1    0    0    0    0  0.00000000000E+00  0.00000000000E+00  0.45593999997E+02  0.45594000000E+02  0.51100000000E-03 0.  1.
         11   -1    0    0    0    0 -0.00000000000E+00 -0.00000000000E+00 -0.45593999997E+02  0.45594000000E+02  0.51100000000E-03 0. -1.
    9900012    2    1    2    0    0  0.21410311265E+00  0.45816217244E-01  0.11598201702E+01  0.90007694067E+02  0.89999954829E+02 0.  0.
         12    1    1    2    0    0 -0.21410311265E+00 -0.45816217244E-01 -0.11598201702E+01  0.11803059332E+01  0.00000000000E+00 0. -1.
         11    1    3    3    0    0 -0.26716148657E+02 -0.14634208203E+02 -0.25754929827E+02  0.39890212577E+02  0.51100000000E-03 0. -1.
        -11    1    3    3    0    0  0.39642800137E+01 -0.76000068892E+01  0.43264033502E+00  0.85827034590E+01  0.51100000000E-03 0.  1.
        -12    1    3    3    0    0  0.22965971756E+02  0.22280031310E+02  0.26482109662E+02  0.41534778030E+02  0.00000000000E+00 0.  1.
</event>
<event>
 7    1  0.4400431E-015  0.9000770E+02  0.7816164E-02  0.1186339E+00
        -11   -1    0    0    0    0  0.00000000000E+00  0.00000000000E+00  0.45593999997E+02  0.45594000000E+02  0.51100000000E-03 0.  1.
         11   -1    0    0    0    0 -0.00000000000E+00 -0.00000000000E+00 -0.45593999997E+02  0.45594000000E+02  0.51100000000E-03 0. -1.
    9900012    2    1    2    0    0 -0.11655808250E+01  0.12870927861E+00  0.13402862069E+00  0.90007699865E+02  0.89999960703E+02 0.  0.
         12    1    1    2    0    0  0.11655808250E+01 -0.12870927861E+00 -0.13402862069E+00  0.11803001352E+01  0.00000000000E+00 0. -1.
         11    1    3    3    0    0 -0.13421769433E+02  0.31928479540E+02 -0.20304674574E+02  0.40147870557E+02  0.51100000000E-03 0. -1.
        -11    1    3    3    0    0 -0.87277424777E+01 -0.31282988811E+01  0.90828969769E+00  0.93158323881E+01  0.51100000000E-03 0.  1.
        -12    1    3    3    0    0  0.20983931086E+02 -0.28671471380E+02  0.19530413497E+02  0.40543996920E+02  0.00000000000E+00 0.  1.
</event>
<event>
 7    1  0.4400431E-015  0.9000768E+02  0.7816164E-02  0.1186339E+00
        -11   -1    0    0    0    0  0.00000000000E+00  0.00000000000E+00  0.45593999997E+02  0.45594000000E+02  0.51100000000E-03 0.  1.
         11   -1    0    0    0    0 -0.00000000000E+00 -0.00000000000E+00 -0.45593999997E+02  0.45594000000E+02  0.51100000000E-03 0. -1.
    9900012    2    1    2    0    0  0.94331234113E+00 -0.64110811895E+00  0.30380704164E+00  0.90007679488E+02  0.89999940057E+02 0.  0.
         12    1    1    2    0    0 -0.94331234113E+00  0.64110811895E+00 -0.30380704164E+00  0.11803205123E+01  0.00000000000E+00 0. -1.
         11    1    3    3    0    0  0.69490693443E+01 -0.60809204665E+01  0.12497712547E+01  0.93182126463E+01  0.51100000000E-03 0. -1.
        -11    1    3    3    0    0  0.36513334736E+02 -0.21779211864E+01  0.55859539939E+01  0.37002295017E+02  0.51100000000E-03 0.  1.
         12    1    3    3    0    0 -0.42519091739E+02  0.76177335340E+01 -0.65319182070E+01  0.43687171824E+02  0.00000000000E+00 0. -1.
</event>
<event>
 7    1  0.4400431E-015  0.9000750E+02  0.7816164E-02  0.1186340E+00
        -11   -1    0    0    0    0  0.00000000000E+00  0.00000000000E+00  0.45593999997E+02  0.45594000000E+02  0.51100000000E-03 0. -1.
         11   -1    0    0    0    0 -0.00000000000E+00 -0.00000000000E+00 -0.45593999997E+02  0.45594000000E+02  0.51100000000E-03 0.  1.
    9900012    2    1    2    0    0  0.89869490805E+00  0.70373133874E+00 -0.30112807683E+00  0.90007504996E+02  0.89999763262E+02 0.  0.
         12    1    1    2    0    0 -0.89869490805E+00 -0.70373133874E+00  0.30112807683E+00  0.11804950036E+01  0.00000000000E+00 0. -1.
         11    1    3    3    0    0  0.24754265918E+02  0.11667944202E+02  0.30498207970E+02  0.40976277194E+02  0.51100000000E-03 0. -1.
        -11    1    3    3    0    0  0.60538337575E+01 -0.10342232448E+01 -0.82277476740E+01  0.10267149212E+02  0.51100000000E-03 0.  1.
        -12    1    3    3    0    0 -0.29909404767E+02 -0.99299896183E+01 -0.22571588373E+02  0.38764078591E+02  0.00000000000E+00 0.  1.
</event>
<event>
 7    1  0.4400431E-015  0.9000755E+02  0.7816164E-02  0.1186339E+00
        -11   -1    0    0    0    0  0.00000000000E+00  0.00000000000E+00  0.45593999997E+02  0.45594000000E+02  0.51100000000E-03 0. -1.
         11   -1    0    0    0    0 -0.00000000000E+00 -0.00000000000E+00 -0.45593999997E+02  0.45594000000E+02  0.51100000000E-03 0.  1.
    9900012    2    1    2    0    0 -0.97859169004E+00  0.41986865084E+00 -0.50944751761E+00  0.90007547480E+02  0.89999806306E+02 0.  0.
         12    1    1    2    0    0  0.97859169004E+00 -0.41986865084E+00  0.50944751761E+00  0.11804525204E+01  0.00000000000E+00 0. -1.
         11    1    3    3    0    0 -0.29403976072E+02 -0.24921307011E+02 -0.92265784597E+01  0.39633257528E+02  0.51100000000E-03 0. -1.
        -11    1    3    3    0    0  0.48245077548E-01  0.44650255118E+01 -0.96586404536E+01  0.10640870081E+02  0.51100000000E-03 0.  1.
        -12    1    3    3    0    0  0.28377139304E+02  0.20876150150E+02  0.18375771396E+02  0.39733419870E+02  0.00000000000E+00 0.  1.
</event>
<event>
 7    1  0.4400431E-015  0.9000774E+02  0.7816164E-02  0.1186339E+00
        -11   -1    0    0    0    0  0.00000000000E+00  0.00000000000E+00  0.45593999997E+02  0.45594000000E+02  0.51100000000E-03 0. -1.
         11   -1    0    0    0    0 -0.00000000000E+00 -0.00000000000E+00 -0.45593999997E+02  0.45594000000E+02  0.51100000000E-03 0.  1.
    9900012    2    1    2    0    0  0.46835790444E+00  0.97638948423E+00 -0.46939272252E+00  0.90007735166E+02  0.89999996470E+02 0.  0.
         12    1    1    2    0    0 -0.46835790444E+00 -0.97638948423E+00  0.46939272252E+00  0.11802648345E+01  0.00000000000E+00 0. -1.
         11    1    3    3    0    0  0.22379726041E+01 -0.85374543657E+01  0.65375739568E+00  0.88500874242E+01  0.51100000000E-03 0. -1.
        -11    1    3    3    0    0  0.34273611339E+02  0.18333491230E+02  0.13681700197E+02  0.41206628780E+02  0.51100000000E-03 0.  1.
         12    1    3    3    0    0 -0.36043226038E+02 -0.88196473802E+01 -0.14804850316E+02  0.39951018961E+02  0.00000000000E+00 0. -1.
</event>
<event>
 7    1  0.4400431E-015  0.9000778E+02  0.7816164E-02  0.1186339E+00
        -11   -1    0    0    0    0  0.00000000000E+00  0.00000000000E+00  0.45593999997E+02  0.45594000000E+02  0.51100000000E-03 0.  1.
         11   -1    0    0    0    0 -0.00000000000E+00 -0.00000000000E+00 -0.45593999997E+02  0.45594000000E+02  0.51100000000E-03 0. -1.
    9900012    2    1    2    0    0  0.83284658418E+00  0.55347381622E+00 -0.62686303869E+00  0.90007778001E+02  0.90000039870E+02 0.  0.
         12    1    1    2    0    0 -0.83284658418E+00 -0.55347381622E+00  0.62686303869E+00  0.11802219992E+01  0.00000000000E+00 0. -1.
         11    1    3    3    0    0 -0.21116770005E+01  0.84374989640E+01  0.10482837034E+01  0.87606773429E+01  0.51100000000E-03 0. -1.
        -11    1    3    3    0    0  0.36638544918E+02  0.15041545348E+02 -0.67553378032E+01  0.40177924900E+02  0.51100000000E-03 0.  1.
         12    1    3    3    0    0 -0.33694021334E+02 -0.22925570496E+02  0.50801910611E+01  0.41069175758E+02  0.00000000000E+00 0. -1.
</event>
<event>
 7    1  0.4400431E-015  0.9000774E+02  0.7816164E-02  0.1186339E+00
        -11   -1    0    0    0    0  0.00000000000E+00  0.00000000000E+00  0.45593999997E+02  0.45594000000E+02  0.51100000000E-03 0.  1.
         11   -1    0    0    0    0 -0.00000000000E+00 -0.00000000000E+00 -0.45593999997E+02  0.45594000000E+02  0.51100000000E-03 0. -1.
    9900012    2    1    2    0    0  0.39017134965E+00 -0.70061353266E+00  0.86597850253E+00  0.90007740803E+02  0.90000002182E+02 0.  0.
         12    1    1    2    0    0 -0.39017134965E+00  0.70061353266E+00 -0.86597850253E+00  0.11802591966E+01  0.00000000000E+00 0. -1.
         11    1    3    3    0    0 -0.68834921250E+01  0.28654723208E+01  0.79503091385E+01  0.10899578483E+02  0.51100000000E-03 0. -1.
        -11    1    3    3    0    0 -0.28287811605E+02  0.20222227083E+02  0.37472131192E+01  0.34973995483E+02  0.51100000000E-03 0.  1.
         12    1    3    3    0    0  0.35561475080E+02 -0.23788312937E+02 -0.10831543755E+02  0.44134166837E+02  0.00000000000E+00 0. -1.
</event>
<event>
 7    1  0.4400431E-015  0.9000791E+02  0.7816164E-02  0.1186339E+00
        -11   -1    0    0    0    0  0.00000000000E+00  0.00000000000E+00  0.45593999997E+02  0.45594000000E+02  0.51100000000E-03 0.  1.
         11   -1    0    0    0    0 -0.00000000000E+00 -0.00000000000E+00 -0.45593999997E+02  0.45594000000E+02  0.51100000000E-03 0. -1.
    9900012    2    1    2    0    0  0.41059289793E+00 -0.27251460221E+00  0.10722679722E+01  0.90007911300E+02  0.90000174929E+02 0.  0.
         12    1    1    2    0    0 -0.41059289793E+00  0.27251460221E+00 -0.10722679722E+01  0.11800887003E+01  0.00000000000E+00 0. -1.
         11    1    3    3    0    0  0.10408187273E+02 -0.59246688788E+01 -0.24203877376E+02  0.27004809645E+02  0.51100000000E-03 0. -1.
        -11    1    3    3    0    0  0.18243066386E+02  0.17815624732E+02  0.44995008413E+01  0.25893077527E+02  0.51100000000E-03 0.  1.
        -12    1    3    3    0    0 -0.28240660761E+02 -0.12163470456E+02  0.20776644507E+02  0.37110024127E+02  0.00000000000E+00 0.  1.
</event>
<event>
 7    1  0.4400431E-015  0.9000768E+02  0.7816164E-02  0.1186339E+00
        -11   -1    0    0    0    0  0.00000000000E+00  0.00000000000E+00  0.45593999997E+02  0.45594000000E+02  0.51100000000E-03 0. -1.
         11   -1    0    0    0    0 -0.00000000000E+00 -0.00000000000E+00 -0.45593999997E+02  0.45594000000E+02  0.51100000000E-03 0.  1.
    9900012    2    1    2    0    0  0.51786492843E+00 -0.18101487597E+00 -0.10450863168E+01  0.90007679756E+02  0.89999940329E+02 0.  0.
         12    1    1    2    0    0 -0.51786492843E+00  0.18101487597E+00  0.10450863168E+01  0.11803202442E+01  0.00000000000E+00 0. -1.
         11    1    3    3    0    0 -0.11943275986E+01 -0.95671780085E+00 -0.96270650233E+01  0.97479284254E+01  0.51100000000E-03 0. -1.
        -11    1    3    3    0    0 -0.36142547379E+02 -0.84485172342E+01  0.16303393746E+02  0.40539632736E+02  0.51100000000E-03 0.  1.
         12    1    3    3    0    0  0.37854739906E+02  0.92242201591E+01 -0.77214150393E+01  0.39720118594E+02  0.00000000000E+00 0. -1.
</event>
<event>
 7    1  0.4400431E-015  0.9000782E+02  0.7816164E-02  0.1186339E+00
        -11   -1    0    0    0    0  0.00000000000E+00  0.00000000000E+00  0.45593999997E+02  0.45594000000E+02  0.51100000000E-03 0.  1.
         11   -1    0    0    0    0 -0.00000000000E+00 -0.00000000000E+00 -0.45593999997E+02  0.45594000000E+02  0.51100000000E-03 0. -1.
    9900012    2    1    2    0    0 -0.72693025330E+00 -0.70177474432E+00  0.60984133779E+00  0.90007821267E+02  0.90000083708E+02 0.  0.
         12    1    1    2    0    0  0.72693025330E+00  0.70177474432E+00 -0.60984133779E+00  0.11801787332E+01  0.00000000000E+00 0. -1.
         11    1    3    3    0    0  0.24458539962E+02  0.41637946573E+01 -0.26819128096E+02  0.36535229507E+02  0.51100000000E-03 0. -1.
        -11    1    3    3    0    0 -0.26713750245E+01  0.45649344964E+01 -0.85149614182E+01  0.10023943321E+02  0.51100000000E-03 0.  1.
        -12    1    3    3    0    0 -0.22514095191E+02 -0.94305038980E+01  0.35943930852E+02  0.43448648439E+02  0.00000000000E+00 0.  1.
</event>
<event>
 7    1  0.4400431E-015  0.9000782E+02  0.7816164E-02  0.1186339E+00
        -11   -1    0    0    0    0  0.00000000000E+00  0.00000000000E+00  0.45593999997E+02  0.45594000000E+02  0.51100000000E-03 0. -1.
         11   -1    0    0    0    0 -0.00000000000E+00 -0.00000000000E+00 -0.45593999997E+02  0.45594000000E+02  0.51100000000E-03 0.  1.
    9900012    2    1    2    0    0  0.17548781912E+00 -0.10475619043E+00 -0.11623493406E+01  0.90007819580E+02  0.90000081998E+02 0.  0.
         12    1    1    2    0    0 -0.17548781912E+00  0.10475619043E+00  0.11623493406E+01  0.11801804200E+01  0.00000000000E+00 0. -1.
         11    1    3    3    0    0  0.90697861808E+00  0.36170253886E+02  0.16699662595E+02  0.39849574746E+02  0.51100000000E-03 0. -1.
        -11    1    3    3    0    0 -0.86721374175E+01  0.10003606923E+01 -0.40181517423E+01  0.96100068984E+01  0.51100000000E-03 0.  1.
        -12    1    3    3    0    0  0.79406466185E+01 -0.37275370768E+02 -0.13843860193E+02  0.40548237936E+02  0.00000000000E+00 0.  1.
</event>
<event>
 7    1  0.4400431E-015  0.9000774E+02  0.7816164E-02  0.1186339E+00
        -11   -1    0    0    0    0  0.00000000000E+00  0.00000000000E+00  0.45593999997E+02  0.45594000000E+02  0.51100000000E-03 0. -1.
         11   -1    0    0    0    0 -0.00000000000E+00 -0.00000000000E+00 -0.45593999997E+02  0.45594000000E+02  0.51100000000E-03 0.  1.
    9900012    2    1    2    0    0 -0.67319541447E+00  0.86028593640E+00  0.44690049568E+00  0.90007744091E+02  0.90000005513E+02 0.  0.
         12    1    1    2    0    0  0.67319541447E+00 -0.86028593640E+00 -0.44690049568E+00  0.11802559093E+01  0.00000000000E+00 0. -1.
         11    1    3    3    0    0  0.16989287521E+02 -0.28743624514E+02  0.98863206714E+01  0.34821992725E+02  0.51100000000E-03 0. -1.
        -11    1    3    3    0    0 -0.15631943253E+02 -0.59091005724E+01  0.39606456686E+01  0.17174452941E+02  0.51100000000E-03 0.  1.
        -12    1    3    3    0    0 -0.20305396823E+01  0.35513011023E+02 -0.13400065844E+02  0.38011298425E+02  0.00000000000E+00 0.  1.
</event>
<event>
 7    1  0.4400431E-015  0.9000769E+02  0.7816164E-02  0.1186339E+00
        -11   -1    0    0    0    0  0.00000000000E+00  0.00000000000E+00  0.45593999997E+02  0.45594000000E+02  0.51100000000E-03 0. -1.
         11   -1    0    0    0    0 -0.00000000000E+00 -0.00000000000E+00 -0.45593999997E+02  0.45594000000E+02  0.51100000000E-03 0.  1.
    9900012    2    1    2    0    0  0.76474127110E+00  0.58160858624E+00 -0.68559328783E+00  0.90007688213E+02  0.89999948897E+02 0.  0.
         12    1    1    2    0    0 -0.76474127110E+00 -0.58160858624E+00  0.68559328783E+00  0.11803117875E+01  0.00000000000E+00 0. -1.
         11    1    3    3    0    0 -0.11977766232E+02 -0.10714806126E+02  0.33218304091E+02  0.36901621660E+02  0.51100000000E-03 0. -1.
        -11    1    3    3    0    0  0.25490506993E-02 -0.13112311647E+02 -0.13633187853E+02  0.18915510422E+02  0.51100000000E-03 0.  1.
        -12    1    3    3    0    0  0.12739958452E+02  0.24408726359E+02 -0.20270709525E+02  0.34190556130E+02  0.00000000000E+00 0.  1.
</event>
<event>
 7    1  0.4400431E-015  0.9000775E+02  0.7816164E-02  0.1186339E+00
        -11   -1    0    0    0    0  0.00000000000E+00  0.00000000000E+00  0.45593999997E+02  0.45594000000E+02  0.51100000000E-03 0.  1.
         11   -1    0    0    0    0 -0.00000000000E+00 -0.00000000000E+00 -0.45593999997E+02  0.45594000000E+02  0.51100000000E-03 0. -1.
    9900012    2    1    2    0    0  0.53496263218E+00 -0.77188175659E+00  0.71484711488E+00  0.90007748814E+02  0.90000010299E+02 0.  0.
         12    1    1    2    0    0 -0.53496263218E+00  0.77188175659E+00 -0.71484711488E+00  0.11802511858E+01  0.00000000000E+00 0. -1.
         11    1    3    3    0    0  0.63778978321E+01 -0.41486578107E+01  0.69734307246E-02  0.76084815356E+01  0.51100000000E-03 0. -1.
        -11    1    3    3    0    0  0.23428156871E+01 -0.26820463859E+02  0.29458914871E+02  0.39908066009E+02  0.51100000000E-03 0.  1.
         12    1    3    3    0    0 -0.81857508870E+01  0.30197239913E+02 -0.28751041187E+02  0.42491201269E+02  0.00000000000E+00 0. -1.
</event>
<event>
 7    1  0.4400431E-015  0.9000772E+02  0.7816164E-02  0.1186339E+00
        -11   -1    0    0    0    0  0.00000000000E+00  0.00000000000E+00  0.45593999997E+02  0.45594000000E+02  0.51100000000E-03 0. -1.
         11   -1    0    0    0    0 -0.00000000000E+00 -0.00000000000E+00 -0.45593999997E+02  0.45594000000E+02  0.51100000000E-03 0.  1.
    9900012    2    1    2    0    0 -0.58139652844E+00 -0.54243168035E+00 -0.87223922837E+00  0.90007722354E+02  0.89999983489E+02 0.  0.
         12    1    1    2    0    0  0.58139652844E+00  0.54243168035E+00  0.87223922837E+00  0.11802776464E+01  0.00000000000E+00 0. -1.
         11    1    3    3    0    0 -0.28741456212E+02  0.89966607301E+01  0.29250202546E+02  0.41983158037E+02  0.51100000000E-03 0. -1.
        -11    1    3    3    0    0  0.69780623471E+01  0.32675751915E+01  0.15170242049E+01  0.78531372363E+01  0.51100000000E-03 0.  1.
        -12    1    3    3    0    0  0.21181997337E+02 -0.12806667602E+02 -0.31639465979E+02  0.40171427081E+02  0.00000000000E+00 0.  1.
</event>
<event>
 7    1  0.4400431E-015  0.9000774E+02  0.7816164E-02  0.1186339E+00
        -11   -1    0    0    0    0  0.00000000000E+00  0.00000000000E+00  0.45593999997E+02  0.45594000000E+02  0.51100000000E-03 0. -1.
         11   -1    0    0    0    0 -0.00000000000E+00 -0.00000000000E+00 -0.45593999997E+02  0.45594000000E+02  0.51100000000E-03 0.  1.
    9900012    2    1    2    0    0 -0.80828207433E+00  0.30881628218E+00  0.80269438305E+00  0.90007743384E+02  0.90000004796E+02 0.  0.
         12    1    1    2    0    0  0.80828207433E+00 -0.30881628218E+00 -0.80269438305E+00  0.11802566163E+01  0.00000000000E+00 0. -1.
         11    1    3    3    0    0  0.20398075911E+02  0.26907270906E+02  0.21925670752E+02  0.40259381101E+02  0.51100000000E-03 0. -1.
        -11    1    3    3    0    0 -0.41707354465E+01 -0.55348601116E+01  0.75864136725E+01  0.10275377525E+02  0.51100000000E-03 0.  1.
        -12    1    3    3    0    0 -0.17035622539E+02 -0.21063594513E+02 -0.28709390041E+02  0.39472984757E+02  0.00000000000E+00 0.  1.
</event>
<event>
 7    1  0.4400431E-015  0.9000779E+02  0.7816164E-02  0.1186339E+00
        -11   -1    0    0    0    0  0.00000000000E+00  0.00000000000E+00  0.45593999997E+02  0.45594000000E+02  0.51100000000E-03 0.  1.
         11   -1    0    0    0    0 -0.00000000000E+00 -0.00000000000E+00 -0.45593999997E+02  0.45594000000E+02  0.51100000000E-03 0. -1.
    9900012    2    1    2    0    0 -0.62853483456E+00 -0.12791846913E+00  0.99069925381E+00  0.90007786382E+02  0.90000048362E+02 0.  0.
         12    1    1    2    0    0  0.62853483456E+00  0.12791846913E+00 -0.99069925381E+00  0.11802136182E+01  0.00000000000E+00 0. -1.
         11    1    3    3    0    0 -0.14848490318E+02 -0.16905390689E+02 -0.34792403964E+02  0.41434059334E+02  0.51100000000E-03 0. -1.
        -11    1    3    3    0    0 -0.22167681362E+01 -0.48730315197E+01  0.86068889356E+01  0.10136026567E+02  0.51100000000E-03 0.  1.
        -12    1    3    3    0    0  0.16436723620E+02  0.21650503739E+02  0.27176214282E+02  0.38437700480E+02  0.00000000000E+00 0.  1.
</event>
<event>
 7    1  0.4400431E-015  0.9000768E+02  0.7816164E-02  0.1186339E+00
        -11   -1    0    0    0    0  0.00000000000E+00  0.00000000000E+00  0.45593999997E+02  0.45594000000E+02  0.51100000000E-03 0. -1.
         11   -1    0    0    0    0 -0.00000000000E+00 -0.00000000000E+00 -0.45593999997E+02  0.45594000000E+02  0.51100000000E-03 0.  1.
    9900012    2    1    2    0    0 -0.98766260311E+00  0.57695694633E+00 -0.29118985504E+00  0.90007682980E+02  0.89999943596E+02 0.  0.
         12    1    1    2    0    0  0.98766260311E+00 -0.57695694633E+00  0.29118985504E+00  0.11803170198E+01  0.00000000000E+00 0. -1.
         11    1    3    3    0    0  0.80350368019E+01 -0.33053271796E+01 -0.97416457876E+01  0.13053224394E+02  0.51100000000E-03 0. -1.
        -11    1    3    3    0    0 -0.57777137616E+01 -0.20446355242E+02 -0.26162270480E+02  0.33703112852E+02  0.51100000000E-03 0.  1.
         12    1    3    3    0    0 -0.32449856434E+01  0.24328639367E+02  0.35612726412E+02  0.43251345734E+02  0.00000000000E+00 0. -1.
</event>
<event>
 7    1  0.4400431E-015  0.9000772E+02  0.7816164E-02  0.1186339E+00
        -11   -1    0    0    0    0  0.00000000000E+00  0.00000000000E+00  0.45593999997E+02  0.45594000000E+02  0.51100000000E-03 0. -1.
         11   -1    0    0    0    0 -0.00000000000E+00 -0.00000000000E+00 -0.45593999997E+02  0.45594000000E+02  0.51100000000E-03 0.  1.
    9900012    2    1    2    0    0 -0.42946687189E+00 -0.47334658774E+00 -0.99225073866E+00  0.90007720239E+02  0.89999981346E+02 0.  0.
         12    1    1    2    0    0  0.42946687189E+00  0.47334658774E+00  0.99225073866E+00  0.11802797611E+01  0.00000000000E+00 0. -1.
         11    1    3    3    0    0  0.17603748999E+02 -0.28715313203E+02  0.19181007579E+02  0.38760446891E+02  0.51100000000E-03 0. -1.
        -11    1    3    3    0    0 -0.55531827273E+01 -0.74521563981E+01 -0.37496137302E+01  0.10021580553E+02  0.51100000000E-03 0.  1.
        -12    1    3    3    0    0 -0.12480033143E+02  0.35694123013E+02 -0.16423644587E+02  0.41225692796E+02  0.00000000000E+00 0.  1.
</event>
<event>
 7    1  0.4400431E-015  0.9000774E+02  0.7816164E-02  0.1186339E+00
        -11   -1    0    0    0    0  0.00000000000E+00  0.00000000000E+00  0.45593999997E+02  0.45594000000E+02  0.51100000000E-03 0. -1.
         11   -1    0    0    0    0 -0.00000000000E+00 -0.00000000000E+00 -0.45593999997E+02  0.45594000000E+02  0.51100000000E-03 0.  1.
    9900012    2    1    2    0    0 -0.10866820325E+01  0.29626259235E+00  0.35265769594E+00  0.90007738667E+02  0.90000000018E+02 0.  0.
         12    1    1    2    0    0  0.10866820325E+01 -0.29626259235E+00 -0.35265769594E+00  0.11802613329E+01  0.00000000000E+00 0. -1.
         11    1    3    3    0    0  0.19522659870E+02  0.96706815796E+01  0.28590945211E+02  0.35945771363E+02  0.51100000000E-03 0. -1.
        -11    1    3    3    0    0 -0.78314356598E+01 -0.85032573683E+01  0.90206668564E+01  0.14663192052E+02  0.51100000000E-03 0.  1.
        -12    1    3    3    0    0 -0.12777906242E+02 -0.87116161892E+00 -0.37258954371E+02  0.39398775252E+02  0.00000000000E+00 0.  1.
</event>
<event>
 7    1  0.4400431E-015  0.9000772E+02  0.7816164E-02  0.1186339E+00
        -11   -1    0    0    0    0  0.00000000000E+00  0.00000000000E+00  0.45593999997E+02  0.45594000000E+02  0.51100000000E-03 0. -1.
         11   -1    0    0    0    0 -0.00000000000E+00 -0.00000000000E+00 -0.45593999997E+02  0.45594000000E+02  0.51100000000E-03 0.  1.
    9900012    2    1    2    0    0  0.58081519649E+00 -0.10206952514E+01 -0.11784610854E+00  0.90007723425E+02  0.89999984574E+02 0.  0.
         12    1    1    2    0    0 -0.58081519649E+00  0.10206952514E+01  0.11784610854E+00  0.11802765753E+01  0.00000000000E+00 0. -1.
         11    1    3    3    0    0  0.46864580608E+00  0.66714828008E+01  0.73926647839E+01  0.99689419961E+01  0.51100000000E-03 0. -1.
        -11    1    3    3    0    0 -0.31104777729E+02 -0.24283126638E+02  0.98241361964E+01  0.40665600809E+02  0.51100000000E-03 0.  1.
         12    1    3    3    0    0  0.31216947120E+02  0.16590948585E+02 -0.17334647089E+02  0.39373180620E+02  0.00000000000E+00 0. -1.
</event>
<event>
 7    1  0.4400431E-015  0.9000774E+02  0.7816164E-02  0.1186339E+00
        -11   -1    0    0    0    0  0.00000000000E+00  0.00000000000E+00  0.45593999997E+02  0.45594000000E+02  0.51100000000E-03 0. -1.
         11   -1    0    0    0    0 -0.00000000000E+00 -0.00000000000E+00 -0.45593999997E+02  0.45594000000E+02  0.51100000000E-03 0.  1.
    9900012    2    1    2    0    0 -0.32907856179E+00 -0.30440115175E-01 -0.11330477959E+01  0.90007738754E+02  0.90000000106E+02 0.  0.
         12    1    1    2    0    0  0.32907856179E+00  0.30440115175E-01  0.11330477959E+01  0.11802612457E+01  0.00000000000E+00 0. -1.
         11    1    3    3    0    0 -0.11362525979E+02 -0.82697297728E+01  0.23742156330E+02  0.27589588881E+02  0.51100000000E-03 0. -1.
        -11    1    3    3    0    0  0.11082434003E+02 -0.11325818326E+02  0.12532447161E+02  0.20202889305E+02  0.51100000000E-03 0.  1.
        -12    1    3    3    0    0 -0.48986585905E-01  0.19565107983E+02 -0.37407651287E+02  0.42215260569E+02  0.00000000000E+00 0.  1.
</event>
<event>
 7    1  0.4400431E-015  0.9000709E+02  0.7816164E-02  0.1186340E+00
        -11   -1    0    0    0    0  0.00000000000E+00  0.00000000000E+00  0.45593999997E+02  0.45594000000E+02  0.51100000000E-03 0.  1.
         11   -1    0    0    0    0 -0.00000000000E+00 -0.00000000000E+00 -0.45593999997E+02  0.45594000000E+02  0.51100000000E-03 0. -1.
    9900012    2    1    2    0    0 -0.65936747547E+00  0.18943518111E+00  0.96119354543E+00  0.90007091796E+02  0.89999344605E+02 0.  0.
         12    1    1    2    0    0  0.65936747547E+00 -0.18943518111E+00 -0.96119354543E+00  0.11809082044E+01  0.00000000000E+00 0. -1.
         11    1    3    3    0    0 -0.21091214510E+02  0.33063669209E+02  0.12014917953E+02  0.41017115997E+02  0.51100000000E-03 0. -1.
        -11    1    3    3    0    0  0.31297513955E+01 -0.71944622167E+01  0.91222763089E+01  0.12032105207E+02  0.51100000000E-03 0.  1.
        -12    1    3    3    0    0  0.17302095639E+02 -0.25679771811E+02 -0.20176000717E+02  0.36957870592E+02  0.00000000000E+00 0.  1.
</event>
<event>
 7    1  0.4400431E-015  0.9000774E+02  0.7816164E-02  0.1186339E+00
        -11   -1    0    0    0    0  0.00000000000E+00  0.00000000000E+00  0.45593999997E+02  0.45594000000E+02  0.51100000000E-03 0. -1.
         11   -1    0    0    0    0 -0.00000000000E+00 -0.00000000000E+00 -0.45593999997E+02  0.45594000000E+02  0.51100000000E-03 0.  1.
    9900012    2    1    2    0    0 -0.10482886903E+01 -0.14506810296E+00 -0.52255555606E+00  0.90007738062E+02  0.89999999405E+02 0.  0.
         12    1    1    2    0    0  0.10482886903E+01  0.14506810296E+00  0.52255555606E+00  0.11802619378E+01  0.00000000000E+00 0. -1.
         11    1    3    3    0    0 -0.85497087782E+01 -0.22824865595E+01 -0.41200293449E+01  0.97612451639E+01  0.51100000000E-03 0. -1.
        -11    1    3    3    0    0 -0.16951840285E+02 -0.26797791099E+02 -0.18177719895E+02  0.36550184646E+02  0.51100000000E-03 0.  1.
         12    1    3    3    0    0  0.24453260373E+02  0.28935209556E+02  0.21775193683E+02  0.43696308252E+02  0.00000000000E+00 0. -1.
</event>
<event>
 7    1  0.4400431E-015  0.9000774E+02  0.7816164E-02  0.1186339E+00
        -11   -1    0    0    0    0  0.00000000000E+00  0.00000000000E+00  0.45593999997E+02  0.45594000000E+02  0.51100000000E-03 0. -1.
         11   -1    0    0    0    0 -0.00000000000E+00 -0.00000000000E+00 -0.45593999997E+02  0.45594000000E+02  0.51100000000E-03 0.  1.
    9900012    2    1    2    0    0  0.71008990805E+00 -0.48775283361E+00 -0.80677843094E+00  0.90007736495E+02  0.89999997817E+02 0.  0.
         12    1    1    2    0    0 -0.71008990805E+00  0.48775283361E+00  0.80677843094E+00  0.11802635048E+01  0.00000000000E+00 0. -1.
         11    1    3    3    0    0 -0.27101277761E+02 -0.23712476868E+02 -0.16717591924E+02  0.39701872695E+02  0.51100000000E-03 0. -1.
        -11    1    3    3    0    0  0.20835033792E+01 -0.46671680571E+01  0.10889486588E+02  0.12029312632E+02  0.51100000000E-03 0.  1.
        -12    1    3    3    0    0  0.25727864290E+02  0.27891892092E+02  0.50213269059E+01  0.38276551167E+02  0.00000000000E+00 0.  1.
</event>
<event>
 7    1  0.4400431E-015  0.9000772E+02  0.7816164E-02  0.1186339E+00
        -11   -1    0    0    0    0  0.00000000000E+00  0.00000000000E+00  0.45593999997E+02  0.45594000000E+02  0.51100000000E-03 0.  1.
         11   -1    0    0    0    0 -0.00000000000E+00 -0.00000000000E+00 -0.45593999997E+02  0.45594000000E+02  0.51100000000E-03 0. -1.
    9900012    2    1    2    0    0 -0.66201783364E+00 -0.73998716821E+00  0.63813673705E+00  0.90007717357E+02  0.89999978427E+02 0.  0.
         12    1    1    2    0    0  0.66201783364E+00  0.73998716821E+00 -0.63813673705E+00  0.11802826426E+01  0.00000000000E+00 0. -1.
         11    1    3    3    0    0  0.44122185231E+01 -0.34719346605E+02 -0.12416173630E+02  0.37135724967E+02  0.51100000000E-03 0. -1.
        -11    1    3    3    0    0 -0.69443576847E+01 -0.65705358359E+01 -0.16428678356E+01  0.97002608114E+01  0.51100000000E-03 0.  1.
        -12    1    3    3    0    0  0.18701213280E+01  0.40549895272E+02  0.14697178203E+02  0.43171731579E+02  0.00000000000E+00 0.  1.
</event>
<event>
 7    1  0.4400431E-015  0.9000774E+02  0.7816164E-02  0.1186339E+00
        -11   -1    0    0    0    0  0.00000000000E+00  0.00000000000E+00  0.45593999997E+02  0.45594000000E+02  0.51100000000E-03 0. -1.
         11   -1    0    0    0    0 -0.00000000000E+00 -0.00000000000E+00 -0.45593999997E+02  0.45594000000E+02  0.51100000000E-03 0.  1.
    9900012    2    1    2    0    0  0.19711866110E+00 -0.10640592402E+01 -0.47110479576E+00  0.90007738350E+02  0.89999999697E+02 0.  0.
         12    1    1    2    0    0 -0.19711866110E+00  0.10640592402E+01  0.47110479576E+00  0.11802616497E+01  0.00000000000E+00 0. -1.
         11    1    3    3    0    0  0.18129295453E+01  0.54731740594E+01 -0.49545916747E+01  0.76019949188E+01  0.51100000000E-03 0. -1.
        -11    1    3    3    0    0 -0.26880146890E+02  0.25584483618E+02  0.15287505208E+02  0.40134971217E+02  0.51100000000E-03 0.  1.
         12    1    3    3    0    0  0.25264336006E+02 -0.32121716918E+02 -0.10804018329E+02  0.42270772215E+02  0.00000000000E+00 0. -1.
</event>
<event>
 7    1  0.4660376E-015  0.9000767E+02  0.7816164E-02  0.1186339E+00
        -11   -1    0    0    0    0  0.00000000000E+00  0.00000000000E+00  0.45593999997E+02  0.45594000000E+02  0.51100000000E-03 0. -1.
         11   -1    0    0    0    0 -0.00000000000E+00 -0.00000000000E+00 -0.45593999997E+02  0.45594000000E+02  0.51100000000E-03 0.  1.
    9900012    2    1    2    0    0 -0.69231318440E+00  0.64721018855E+00 -0.70355430145E+00  0.90007674948E+02  0.89999935457E+02 0.  0.
         12    1    1    2    0    0  0.69231318440E+00 -0.64721018855E+00  0.70355430145E+00  0.11803250521E+01  0.00000000000E+00 0. -1.
         11    1    3    3    0    0  0.21093584851E+01 -0.74643111460E+01 -0.49045920346E+01  0.91771649974E+01  0.51100000000E-03 0. -1.
        -11    1    3    3    0    0 -0.19151331491E+02  0.23581301542E+02 -0.28152529556E+02  0.41417583235E+02  0.51100000000E-03 0.  1.
         12    1    3    3    0    0  0.16349659822E+02 -0.15469780208E+02  0.32353567289E+02  0.39412926716E+02  0.00000000000E+00 0. -1.
</event>
<event>
 7    1  0.4400431E-015  0.9000775E+02  0.7816164E-02  0.1186339E+00
        -11   -1    0    0    0    0  0.00000000000E+00  0.00000000000E+00  0.45593999997E+02  0.45594000000E+02  0.51100000000E-03 0.  1.
         11   -1    0    0    0    0 -0.00000000000E+00 -0.00000000000E+00 -0.45593999997E+02  0.45594000000E+02  0.51100000000E-03 0. -1.
    9900012    2    1    2    0    0 -0.33765156145E+00 -0.61035797151E+00  0.95207735919E+00  0.90007747176E+02  0.90000008639E+02 0.  0.
         12    1    1    2    0    0  0.33765156145E+00  0.61035797151E+00 -0.95207735919E+00  0.11802528239E+01  0.00000000000E+00 0. -1.
         11    1    3    3    0    0  0.95504833997E+00  0.48140456648E+01 -0.88742874819E+01  0.10141012354E+02  0.51100000000E-03 0. -1.
        -11    1    3    3    0    0  0.62006933827E+01  0.33113756960E+02  0.20171749379E+02  0.39266639424E+02  0.51100000000E-03 0.  1.
         12    1    3    3    0    0 -0.74933932841E+01 -0.38538160596E+02 -0.10345384538E+02  0.40600095398E+02  0.00000000000E+00 0. -1.
</event>
<event>
 7    1  0.4400431E-015  0.9000767E+02  0.7816164E-02  0.1186339E+00
        -11   -1    0    0    0    0  0.00000000000E+00  0.00000000000E+00  0.45593999997E+02  0.45594000000E+02  0.51100000000E-03 0.  1.
         11   -1    0    0    0    0 -0.00000000000E+00 -0.00000000000E+00 -0.45593999997E+02  0.45594000000E+02  0.51100000000E-03 0. -1.
    9900012    2    1    2    0    0  0.70598199966E+00  0.85962860788E+00 -0.39472930743E+00  0.90007668202E+02  0.89999928622E+02 0.  0.
         12    1    1    2    0    0 -0.70598199966E+00 -0.85962860788E+00  0.39472930743E+00  0.11803317980E+01  0.00000000000E+00 0. -1.
         11    1    3    3    0    0  0.59688663616E+01  0.40615685913E+01 -0.53430672795E+01  0.89817633725E+01  0.51100000000E-03 0. -1.
        -11    1    3    3    0    0  0.36434151839E+02  0.87475859468E+01  0.12003608119E+01  0.37488778940E+02  0.51100000000E-03 0.  1.
         12    1    3    3    0    0 -0.41697036201E+02 -0.11949525930E+02  0.37479771602E+01  0.43537125889E+02  0.00000000000E+00 0. -1.
</event>
<event>
 7    1  0.4400431E-015  0.9000778E+02  0.7816164E-02  0.1186339E+00
        -11   -1    0    0    0    0  0.00000000000E+00  0.00000000000E+00  0.45593999997E+02  0.45594000000E+02  0.51100000000E-03 0. -1.
         11   -1    0    0    0    0 -0.00000000000E+00 -0.00000000000E+00 -0.45593999997E+02  0.45594000000E+02  0.51100000000E-03 0.  1.
    9900012    2    1    2    0    0 -0.10257703979E+01  0.29685175426E+00 -0.50257943523E+00  0.90007783087E+02  0.90000045024E+02 0.  0.
         12    1    1    2    0    0  0.10257703979E+01 -0.29685175426E+00  0.50257943523E+00  0.11802169131E+01  0.00000000000E+00 0. -1.
         11    1    3    3    0    0  0.27215056368E+02 -0.18945287718E+01 -0.18743051273E+02  0.33099101252E+02  0.51100000000E-03 0. -1.
        -11    1    3    3    0    0  0.17834783661E+01 -0.11836961736E+02 -0.82031035159E+01  0.14511559729E+02  0.51100000000E-03 0.  1.
        -12    1    3    3    0    0 -0.30024305132E+02  0.14028342262E+02  0.26443575354E+02  0.42397122105E+02  0.00000000000E+00 0.  1.
</event>
<event>
 7    1  0.4400431E-015  0.9000773E+02  0.7816164E-02  0.1186339E+00
        -11   -1    0    0    0    0  0.00000000000E+00  0.00000000000E+00  0.45593999997E+02  0.45594000000E+02  0.51100000000E-03 0.  1.
         11   -1    0    0    0    0 -0.00000000000E+00 -0.00000000000E+00 -0.45593999997E+02  0.45594000000E+02  0.51100000000E-03 0. -1.
    9900012    2    1    2    0    0 -0.10469919192E+00  0.11590268843E+01 -0.19682254507E+00  0.90007727000E+02  0.89999988197E+02 0.  0.
         12    1    1    2    0    0  0.10469919192E+00 -0.11590268843E+01  0.19682254507E+00  0.11802729996E+01  0.00000000000E+00 0. -1.
         11    1    3    3    0    0 -0.11641179071E+02  0.32043635257E+01  0.59719494168E+01  0.13470307193E+02  0.51100000000E-03 0. -1.
        -11    1    3    3    0    0 -0.93849104194E+01 -0.99529128946E+01  0.30589750926E+02  0.33509250673E+02  0.51100000000E-03 0.  1.
         12    1    3    3    0    0  0.20921390299E+02  0.79075762533E+01 -0.36758522888E+02  0.43028169135E+02  0.00000000000E+00 0. -1.
</event>
<event>
 7    1  0.4400431E-015  0.9000776E+02  0.7816164E-02  0.1186339E+00
        -11   -1    0    0    0    0  0.00000000000E+00  0.00000000000E+00  0.45593999997E+02  0.45594000000E+02  0.51100000000E-03 0.  1.
         11   -1    0    0    0    0 -0.00000000000E+00 -0.00000000000E+00 -0.45593999997E+02  0.45594000000E+02  0.51100000000E-03 0. -1.
    9900012    2    1    2    0    0  0.98662662065E+00 -0.62851851743E+00 -0.15648850730E+00  0.90007764317E+02  0.90000026006E+02 0.  0.
         12    1    1    2    0    0 -0.98662662065E+00  0.62851851743E+00  0.15648850730E+00  0.11802356833E+01  0.00000000000E+00 0. -1.
         11    1    3    3    0    0 -0.11825332836E+01 -0.10169283336E+02 -0.50550650092E+01  0.11417810256E+02  0.51100000000E-03 0. -1.
        -11    1    3    3    0    0  0.85235265614E+01 -0.26036486290E+02  0.25126620098E+02  0.37173863953E+02  0.51100000000E-03 0.  1.
         12    1    3    3    0    0 -0.63543666571E+01  0.35577251109E+02 -0.20228043596E+02  0.41416090108E+02  0.00000000000E+00 0. -1.
</event>
<event>
 7    1  0.4400431E-015  0.9000771E+02  0.7816164E-02  0.1186339E+00
        -11   -1    0    0    0    0  0.00000000000E+00  0.00000000000E+00  0.45593999997E+02  0.45594000000E+02  0.51100000000E-03 0. -1.
         11   -1    0    0    0    0 -0.00000000000E+00 -0.00000000000E+00 -0.45593999997E+02  0.45594000000E+02  0.51100000000E-03 0.  1.
    9900012    2    1    2    0    0  0.28472896234E+00 -0.76118957643E-01 -0.11428971453E+01  0.90007712509E+02  0.89999973514E+02 0.  0.
         12    1    1    2    0    0 -0.28472896234E+00  0.76118957643E-01  0.11428971453E+01  0.11802874915E+01  0.00000000000E+00 0. -1.
         11    1    3    3    0    0  0.34964051323E+02 -0.22035831890E+01 -0.89462867211E+01  0.36157664612E+02  0.51100000000E-03 0. -1.
        -11    1    3    3    0    0  0.57279127422E+01 -0.60612175699E+01 -0.61086734057E+01  0.10337467478E+02  0.51100000000E-03 0.  1.
        -12    1    3    3    0    0 -0.40407235103E+02  0.81886818012E+01  0.13912062981E+02  0.43512580419E+02  0.00000000000E+00 0.  1.
</event>
<event>
 7    1  0.4400431E-015  0.9000745E+02  0.7816164E-02  0.1186340E+00
        -11   -1    0    0    0    0  0.00000000000E+00  0.00000000000E+00  0.45593999997E+02  0.45594000000E+02  0.51100000000E-03 0. -1.
         11   -1    0    0    0    0 -0.00000000000E+00 -0.00000000000E+00 -0.45593999997E+02  0.45594000000E+02  0.51100000000E-03 0.  1.
    9900012    2    1    2    0    0  0.52378489871E-01 -0.11167371960E+01 -0.37928061270E+00  0.90007449597E+02  0.89999707131E+02 0.  0.
         12    1    1    2    0    0 -0.52378489871E-01  0.11167371960E+01  0.37928061270E+00  0.11805504031E+01  0.00000000000E+00 0. -1.
         11    1    3    3    0    0 -0.12689422654E+01 -0.82231927191E+01  0.16469757710E+00  0.83221534786E+01  0.51100000000E-03 0. -1.
        -11    1    3    3    0    0  0.95593571890E+01 -0.30257031056E+02  0.20735004815E+02  0.37905272234E+02  0.51100000000E-03 0.  1.
         12    1    3    3    0    0 -0.82380364338E+01  0.37363486579E+02 -0.21278983004E+02  0.43780023885E+02  0.00000000000E+00 0. -1.
</event>
<event>
 7    1  0.4400431E-015  0.9000774E+02  0.7816164E-02  0.1186339E+00
        -11   -1    0    0    0    0  0.00000000000E+00  0.00000000000E+00  0.45593999997E+02  0.45594000000E+02  0.51100000000E-03 0. -1.
         11   -1    0    0    0    0 -0.00000000000E+00 -0.00000000000E+00 -0.45593999997E+02  0.45594000000E+02  0.51100000000E-03 0.  1.
    9900012    2    1    2    0    0 -0.60928251411E+00  0.64981008837E+00  0.77429336223E+00  0.90007742171E+02  0.90000003567E+02 0.  0.
         12    1    1    2    0    0  0.60928251411E+00 -0.64981008837E+00 -0.77429336223E+00  0.11802578294E+01  0.00000000000E+00 0. -1.
         11    1    3    3    0    0 -0.21352668241E+01 -0.23901653014E+02  0.32365732030E+02  0.40291301682E+02  0.51100000000E-03 0. -1.
        -11    1    3    3    0    0  0.10167804080E+02 -0.17325331101E+01 -0.55132585783E+01  0.11695380764E+02  0.51100000000E-03 0.  1.
        -12    1    3    3    0    0 -0.86418197703E+01  0.26283996212E+02 -0.26078180089E+02  0.38021059725E+02  0.00000000000E+00 0.  1.
</event>
<event>
 7    1  0.4400431E-015  0.9000722E+02  0.7816164E-02  0.1186340E+00
        -11   -1    0    0    0    0  0.00000000000E+00  0.00000000000E+00  0.45593999997E+02  0.45594000000E+02  0.51100000000E-03 0. -1.
         11   -1    0    0    0    0 -0.00000000000E+00 -0.00000000000E+00 -0.45593999997E+02  0.45594000000E+02  0.51100000000E-03 0.  1.
    9900012    2    1    2    0    0  0.88341064776E+00  0.57828073409E+00 -0.52860608472E+00  0.90007217474E+02  0.89999471943E+02 0.  0.
         12    1    1    2    0    0 -0.88341064776E+00 -0.57828073409E+00  0.52860608472E+00  0.11807825256E+01  0.00000000000E+00 0. -1.
         11    1    3    3    0    0 -0.30042951581E+02 -0.22132252996E+02  0.32904428056E+01  0.37459879558E+02  0.51100000000E-03 0. -1.
        -11    1    3    3    0    0 -0.10404018732E+01 -0.49286296846E+01  0.72823984328E+01  0.88547814101E+01  0.51100000000E-03 0.  1.
        -12    1    3    3    0    0  0.31966764102E+02  0.27639163414E+02 -0.11101447323E+02  0.43692556506E+02  0.00000000000E+00 0.  1.
</event>
<event>
 7    1  0.4400431E-015  0.9000790E+02  0.7816164E-02  0.1186339E+00
        -11   -1    0    0    0    0  0.00000000000E+00  0.00000000000E+00  0.45593999997E+02  0.45594000000E+02  0.51100000000E-03 0.  1.
         11   -1    0    0    0    0 -0.00000000000E+00 -0.00000000000E+00 -0.45593999997E+02  0.45594000000E+02  0.51100000000E-03 0. -1.
    9900012    2    1    2    0    0  0.60296790471E+00 -0.75635600588E+00  0.67600860312E+00  0.90007901558E+02  0.90000165058E+02 0.  0.
         12    1    1    2    0    0 -0.60296790471E+00  0.75635600588E+00 -0.67600860312E+00  0.11800984422E+01  0.00000000000E+00 0. -1.
         11    1    3    3    0    0  0.29830351183E+02 -0.10302520101E+02 -0.24395928829E+02  0.39889260657E+02  0.51100000000E-03 0. -1.
        -11    1    3    3    0    0  0.41517534741E+01  0.33945607126E+01  0.13053794375E+02  0.14112464249E+02  0.51100000000E-03 0.  1.
        -12    1    3    3    0    0 -0.33379136752E+02  0.61516033826E+01  0.12018143057E+02  0.36006176651E+02  0.00000000000E+00 0.  1.
</event>
<event>
 7    1  0.4400431E-015  0.9000777E+02  0.7816164E-02  0.1186339E+00
        -11   -1    0    0    0    0  0.00000000000E+00  0.00000000000E+00  0.45593999997E+02  0.45594000000E+02  0.51100000000E-03 0. -1.
         11   -1    0    0    0    0 -0.00000000000E+00 -0.00000000000E+00 -0.45593999997E+02  0.45594000000E+02  0.51100000000E-03 0.  1.
    9900012    2    1    2    0    0  0.10678084904E+01  0.47103788858E+00  0.17567667980E+00  0.90007765294E+02  0.90000026996E+02 0.  0.
         12    1    1    2    0    0 -0.10678084904E+01 -0.47103788858E+00 -0.17567667980E+00  0.11802347057E+01  0.00000000000E+00 0. -1.
         11    1    3    3    0    0  0.70071445650E+01  0.97719895037E+01  0.35521669968E+02  0.37501745178E+02  0.51100000000E-03 0. -1.
        -11    1    3    3    0    0  0.12190314898E+02 -0.75352991172E+00 -0.40018128229E+00  0.12220136249E+02  0.51100000000E-03 0.  1.
        -12    1    3    3    0    0 -0.18129650972E+02 -0.85474217034E+01 -0.34945812006E+02  0.40285883867E+02  0.00000000000E+00 0.  1.
</event>
<event>
 7    1  0.4400431E-015  0.9000785E+02  0.7816164E-02  0.1186339E+00
        -11   -1    0    0    0    0  0.00000000000E+00  0.00000000000E+00  0.45593999997E+02  0.45594000000E+02  0.51100000000E-03 0. -1.
         11   -1    0    0    0    0 -0.00000000000E+00 -0.00000000000E+00 -0.45593999997E+02  0.45594000000E+02  0.51100000000E-03 0.  1.
    9900012    2    1    2    0    0 -0.70003519469E+00  0.74269612061E+00 -0.59254520702E+00  0.90007848898E+02  0.90000111703E+02 0.  0.
         12    1    1    2    0    0  0.70003519469E+00 -0.74269612061E+00  0.59254520702E+00  0.11801511021E+01  0.00000000000E+00 0. -1.
         11    1    3    3    0    0  0.55668826069E+01  0.51502916131E+01  0.13347634580E+02  0.15351711136E+02  0.51100000000E-03 0. -1.
        -11    1    3    3    0    0  0.10608515828E+02  0.67418651695E+01 -0.39850688746E+02  0.41786011389E+02  0.51100000000E-03 0.  1.
         12    1    3    3    0    0 -0.16875433629E+02 -0.11149460662E+02  0.25910508959E+02  0.32870126373E+02  0.00000000000E+00 0. -1.
</event>
<event>
 7    1  0.4400431E-015  0.9000764E+02  0.7816164E-02  0.1186339E+00
        -11   -1    0    0    0    0  0.00000000000E+00  0.00000000000E+00  0.45593999997E+02  0.45594000000E+02  0.51100000000E-03 0. -1.
         11   -1    0    0    0    0 -0.00000000000E+00 -0.00000000000E+00 -0.45593999997E+02  0.45594000000E+02  0.51100000000E-03 0.  1.
    9900012    2    1    2    0    0 -0.25363954901E+00 -0.88557022683E+00 -0.73802183327E+00  0.90007642480E+02  0.89999902561E+02 0.  0.
         12    1    1    2    0    0  0.25363954901E+00  0.88557022683E+00  0.73802183327E+00  0.11803575195E+01  0.00000000000E+00 0. -1.
         11    1    3    3    0    0  0.19758387432E+02  0.36580145170E+02  0.85960615142E+01  0.42454601263E+02  0.51100000000E-03 0. -1.
        -11    1    3    3    0    0  0.36418197472E+00 -0.78899966698E+01  0.44707894112E+01  0.90759370965E+01  0.51100000000E-03 0.  1.
        -12    1    3    3    0    0 -0.20376208956E+02 -0.29575718727E+02 -0.13804872759E+02  0.38477104121E+02  0.00000000000E+00 0.  1.
</event>
<event>
 7    1  0.4400431E-015  0.9000734E+02  0.7816164E-02  0.1186340E+00
        -11   -1    0    0    0    0  0.00000000000E+00  0.00000000000E+00  0.45593999997E+02  0.45594000000E+02  0.51100000000E-03 0. -1.
         11   -1    0    0    0    0 -0.00000000000E+00 -0.00000000000E+00 -0.45593999997E+02  0.45594000000E+02  0.51100000000E-03 0.  1.
    9900012    2    1    2    0    0 -0.76341524747E+00  0.66503591421E+00 -0.60736520854E+00  0.90007335736E+02  0.89999591767E+02 0.  0.
         12    1    1    2    0    0  0.76341524747E+00 -0.66503591421E+00  0.60736520854E+00  0.11806642638E+01  0.00000000000E+00 0. -1.
         11    1    3    3    0    0  0.33072333226E+02 -0.64627700986E+01  0.21747618095E+02  0.40106178021E+02  0.51100000000E-03 0. -1.
        -11    1    3    3    0    0 -0.58732250102E+00 -0.78849725289E+01 -0.59818511723E+01  0.99146499288E+01  0.51100000000E-03 0.  1.
        -12    1    3    3    0    0 -0.33248425973E+02  0.15012778542E+02 -0.16373132131E+02  0.39986507787E+02  0.00000000000E+00 0.  1.
</event>
<event>
 7    1  0.4400431E-015  0.9000775E+02  0.7816164E-02  0.1186339E+00
        -11   -1    0    0    0    0  0.00000000000E+00  0.00000000000E+00  0.45593999997E+02  0.45594000000E+02  0.51100000000E-03 0.  1.
         11   -1    0    0    0    0 -0.00000000000E+00 -0.00000000000E+00 -0.45593999997E+02  0.45594000000E+02  0.51100000000E-03 0. -1.
    9900012    2    1    2    0    0 -0.71533596909E+00  0.81659154222E+00 -0.46311382134E+00  0.90007745067E+02  0.90000006502E+02 0.  0.
         12    1    1    2    0    0  0.71533596909E+00 -0.81659154222E+00  0.46311382134E+00  0.11802549331E+01  0.00000000000E+00 0. -1.
         11    1    3    3    0    0 -0.68842159247E+00  0.87759373084E+01  0.58254191351E+01  0.10555875534E+02  0.51100000000E-03 0. -1.
        -11    1    3    3    0    0 -0.19677230665E+01  0.25128019496E+02  0.23815750707E+02  0.34676783009E+02  0.51100000000E-03 0.  1.
         12    1    3    3    0    0  0.19408086898E+01 -0.33087365262E+02 -0.30104283663E+02  0.44775086524E+02  0.00000000000E+00 0. -1.
</event>
<event>
 7    1  0.4400431E-015  0.9000770E+02  0.7816164E-02  0.1186339E+00
        -11   -1    0    0    0    0  0.00000000000E+00  0.00000000000E+00  0.45593999997E+02  0.45594000000E+02  0.51100000000E-03 0. -1.
         11   -1    0    0    0    0 -0.00000000000E+00 -0.00000000000E+00 -0.45593999997E+02  0.45594000000E+02  0.51100000000E-03 0.  1.
    9900012    2    1    2    0    0  0.49534161077E+00 -0.87951618635E+00 -0.61170825822E+00  0.90007703839E+02  0.89999964730E+02 0.  0.
         12    1    1    2    0    0 -0.49534161077E+00  0.87951618635E+00  0.61170825822E+00  0.11802961605E+01  0.00000000000E+00 0. -1.
         11    1    3    3    0    0  0.79455916629E+01 -0.45124647587E+01  0.22167389367E+01  0.94025899010E+01  0.51100000000E-03 0. -1.
        -11    1    3    3    0    0 -0.53238655815E+01 -0.29006068425E+02 -0.26961314129E+02  0.39957577630E+02  0.51100000000E-03 0.  1.
         12    1    3    3    0    0 -0.21263844706E+01  0.32639016998E+02  0.24132866934E+02  0.40647536309E+02  0.00000000000E+00 0. -1.
</event>
<event>
 7    1  0.4400431E-015  0.9000784E+02  0.7816164E-02  0.1186339E+00
        -11   -1    0    0    0    0  0.00000000000E+00  0.00000000000E+00  0.45593999997E+02  0.45594000000E+02  0.51100000000E-03 0. -1.
         11   -1    0    0    0    0 -0.00000000000E+00 -0.00000000000E+00 -0.45593999997E+02  0.45594000000E+02  0.51100000000E-03 0.  1.
    9900012    2    1    2    0    0 -0.18627528972E+00  0.70110984662E-01 -0.11632581207E+01  0.90007837516E+02  0.90000100171E+02 0.  0.
         12    1    1    2    0    0  0.18627528972E+00 -0.70110984662E-01  0.11632581207E+01  0.11801624842E+01  0.00000000000E+00 0. -1.
         11    1    3    3    0    0 -0.70812238258E+01 -0.36358754484E+02  0.95080284685E+01  0.38242716484E+02  0.51100000000E-03 0. -1.
        -11    1    3    3    0    0  0.97647186989E+00  0.17531213275E+01  0.10512219324E+02  0.10702041257E+02  0.51100000000E-03 0.  1.
        -12    1    3    3    0    0  0.59184766662E+01  0.34675744141E+02 -0.21183505913E+02  0.41063079774E+02  0.00000000000E+00 0.  1.
</event>
<event>
 7    1  0.4400431E-015  0.9000779E+02  0.7816164E-02  0.1186339E+00
        -11   -1    0    0    0    0  0.00000000000E+00  0.00000000000E+00  0.45593999997E+02  0.45594000000E+02  0.51100000000E-03 0. -1.
         11   -1    0    0    0    0 -0.00000000000E+00 -0.00000000000E+00 -0.45593999997E+02  0.45594000000E+02  0.51100000000E-03 0.  1.
    9900012    2    1    2    0    0  0.77858304136E+00 -0.33366314620E-03  0.88696443495E+00  0.90007789183E+02  0.90000051200E+02 0.  0.
         12    1    1    2    0    0 -0.77858304136E+00  0.33366314620E-03 -0.88696443495E+00  0.11802108170E+01  0.00000000000E+00 0. -1.
         11    1    3    3    0    0  0.32411737898E+02  0.74019946673E+01  0.27162653148E+02  0.42931573520E+02  0.51100000000E-03 0. -1.
        -11    1    3    3    0    0  0.31557667113E+01 -0.86790140167E+00 -0.43304187100E+01  0.54281343797E+01  0.51100000000E-03 0.  1.
        -12    1    3    3    0    0 -0.34788921567E+02 -0.65344269288E+01 -0.21945270003E+02  0.41648081284E+02  0.00000000000E+00 0.  1.
</event>
<event>
 7    1  0.4400431E-015  0.9000816E+02  0.7816164E-02  0.1186338E+00
        -11   -1    0    0    0    0  0.00000000000E+00  0.00000000000E+00  0.45593999997E+02  0.45594000000E+02  0.51100000000E-03 0.  1.
         11   -1    0    0    0    0 -0.00000000000E+00 -0.00000000000E+00 -0.45593999997E+02  0.45594000000E+02  0.51100000000E-03 0. -1.
    9900012    2    1    2    0    0 -0.33588741479E+00 -0.11141637298E+01  0.19455390582E+00  0.90008155775E+02  0.90000422631E+02 0.  0.
         12    1    1    2    0    0  0.33588741479E+00  0.11141637298E+01 -0.19455390582E+00  0.11798442246E+01  0.00000000000E+00 0. -1.
         11    1    3    3    0    0 -0.25404770930E+01 -0.82088274736E+01 -0.64382450246E+01  0.10737312122E+02  0.51100000000E-03 0. -1.
        -11    1    3    3    0    0 -0.13650855698E+02 -0.23784470686E+02  0.27444975392E+02  0.38797855374E+02  0.51100000000E-03 0.  1.
         12    1    3    3    0    0  0.15855445376E+02  0.30879134429E+02 -0.20812176462E+02  0.40472988279E+02  0.00000000000E+00 0. -1.
</event>
<event>
 7    1  0.4400431E-015  0.9000759E+02  0.7816164E-02  0.1186339E+00
        -11   -1    0    0    0    0  0.00000000000E+00  0.00000000000E+00  0.45593999997E+02  0.45594000000E+02  0.51100000000E-03 0. -1.
         11   -1    0    0    0    0 -0.00000000000E+00 -0.00000000000E+00 -0.45593999997E+02  0.45594000000E+02  0.51100000000E-03 0.  1.
    9900012    2    1    2    0    0 -0.77536004009E+00  0.88712074364E+00 -0.72043356953E-01  0.90007594709E+02  0.89999854159E+02 0.  0.
         12    1    1    2    0    0  0.77536004009E+00 -0.88712074364E+00  0.72043356953E-01  0.11804052909E+01  0.00000000000E+00 0. -1.
         11    1    3    3    0    0  0.67829066776E+01  0.67146809855E+00  0.64295382766E+01  0.93700402942E+01  0.51100000000E-03 0. -1.
        -11    1    3    3    0    0  0.30491542842E+02  0.20946446587E+02 -0.44290041248E+01  0.37257266235E+02  0.51100000000E-03 0.  1.
         12    1    3    3    0    0 -0.38049809560E+02 -0.20730793942E+02 -0.20725775088E+01  0.43380288180E+02  0.00000000000E+00 0. -1.
</event>
<event>
 7    1  0.4400431E-015  0.9000773E+02  0.7816164E-02  0.1186339E+00
        -11   -1    0    0    0    0  0.00000000000E+00  0.00000000000E+00  0.45593999997E+02  0.45594000000E+02  0.51100000000E-03 0.  1.
         11   -1    0    0    0    0 -0.00000000000E+00 -0.00000000000E+00 -0.45593999997E+02  0.45594000000E+02  0.51100000000E-03 0. -1.
    9900012    2    1    2    0    0 -0.11663753102E+01 -0.10071473080E+00  0.14990677517E+00  0.90007725938E+02  0.89999987120E+02 0.  0.
         12    1    1    2    0    0  0.11663753102E+01  0.10071473080E+00 -0.14990677517E+00  0.11802740624E+01  0.00000000000E+00 0. -1.
         11    1    3    3    0    0 -0.24653982910E+02 -0.28356258395E+02  0.74303626276E+01  0.38302826953E+02  0.51100000000E-03 0. -1.
        -11    1    3    3    0    0 -0.84506711226E+01  0.26705800393E+01  0.32661364491E+01  0.94452891821E+01  0.51100000000E-03 0.  1.
        -12    1    3    3    0    0  0.31938278723E+02  0.25584963625E+02 -0.10546592302E+02  0.42259609803E+02  0.00000000000E+00 0.  1.
</event>
<event>
 7    1  0.4400431E-015  0.9000825E+02  0.7816164E-02  0.1186338E+00
        -11   -1    0    0    0    0  0.00000000000E+00  0.00000000000E+00  0.45593999997E+02  0.45594000000E+02  0.51100000000E-03 0.  1.
         11   -1    0    0    0    0 -0.00000000000E+00 -0.00000000000E+00 -0.45593999997E+02  0.45594000000E+02  0.51100000000E-03 0. -1.
    9900012    2    1    2    0    0  0.84702926892E+00 -0.16670297657E-01 -0.82102291878E+00  0.90008247859E+02  0.90000515929E+02 0.  0.
         12    1    1    2    0    0 -0.84702926892E+00  0.16670297657E-01  0.82102291878E+00  0.11797521411E+01  0.00000000000E+00 0. -1.
         11    1    3    3    0    0 -0.22328305863E+02  0.29879970629E+02 -0.15371995035E+02  0.40344319539E+02  0.51100000000E-03 0. -1.
        -11    1    3    3    0    0 -0.57589790541E+01 -0.37638665030E+01  0.72551922781E+01  0.99985171926E+01  0.51100000000E-03 0.  1.
        -12    1    3    3    0    0  0.28934314186E+02 -0.26132774423E+02  0.72957798379E+01  0.39665411127E+02  0.00000000000E+00 0.  1.
</event>
<event>
 7    1  0.4400431E-015  0.9000801E+02  0.7816164E-02  0.1186339E+00
        -11   -1    0    0    0    0  0.00000000000E+00  0.00000000000E+00  0.45593999997E+02  0.45594000000E+02  0.51100000000E-03 0.  1.
         11   -1    0    0    0    0 -0.00000000000E+00 -0.00000000000E+00 -0.45593999997E+02  0.45594000000E+02  0.51100000000E-03 0. -1.
    9900012    2    1    2    0    0 -0.40662538016E+00  0.54098325957E+00  0.96663008197E+00  0.90008008135E+02  0.90000273042E+02 0.  0.
         12    1    1    2    0    0  0.40662538016E+00 -0.54098325957E+00 -0.96663008197E+00  0.11799918654E+01  0.00000000000E+00 0. -1.
         11    1    3    3    0    0  0.36313595234E+01 -0.33265124348E+02 -0.67037039010E+01  0.34127626875E+02  0.51100000000E-03 0. -1.
        -11    1    3    3    0    0  0.39019355896E+01 -0.96641145260E+01  0.51346440287E+01  0.11618295076E+02  0.51100000000E-03 0.  1.
         12    1    3    3    0    0 -0.79399204932E+01  0.43470222133E+02  0.25356899543E+01  0.44262086183E+02  0.00000000000E+00 0. -1.
</event>
<event>
 7    1  0.4400431E-015  0.9000786E+02  0.7816164E-02  0.1186339E+00
        -11   -1    0    0    0    0  0.00000000000E+00  0.00000000000E+00  0.45593999997E+02  0.45594000000E+02  0.51100000000E-03 0.  1.
         11   -1    0    0    0    0 -0.00000000000E+00 -0.00000000000E+00 -0.45593999997E+02  0.45594000000E+02  0.51100000000E-03 0. -1.
    9900012    2    1    2    0    0  0.58257702747E+00 -0.10059882817E+01 -0.20329529869E+00  0.90007857045E+02  0.90000119958E+02 0.  0.
         12    1    1    2    0    0 -0.58257702747E+00  0.10059882817E+01  0.20329529869E+00  0.11801429550E+01  0.00000000000E+00 0. -1.
         11    1    3    3    0    0 -0.60396952930E+01 -0.24206643508E+00 -0.73054202458E+01  0.94818606096E+01  0.51100000000E-03 0. -1.
        -11    1    3    3    0    0 -0.34357139151E+02  0.12696492634E+01  0.16948619549E+02  0.38331197800E+02  0.51100000000E-03 0.  1.
         12    1    3    3    0    0  0.40979411471E+02 -0.20335711099E+01 -0.98464946022E+01  0.42194798636E+02  0.00000000000E+00 0. -1.
</event>
<event>
 7    1  0.4400431E-015  0.9000790E+02  0.7816164E-02  0.1186339E+00
        -11   -1    0    0    0    0  0.00000000000E+00  0.00000000000E+00  0.45593999997E+02  0.45594000000E+02  0.51100000000E-03 0. -1.
         11   -1    0    0    0    0 -0.00000000000E+00 -0.00000000000E+00 -0.45593999997E+02  0.45594000000E+02  0.51100000000E-03 0.  1.
    9900012    2    1    2    0    0 -0.81344417962E+00 -0.77621378924E+00 -0.35838628141E+00  0.90007898307E+02  0.90000161764E+02 0.  0.
         12    1    1    2    0    0  0.81344417962E+00  0.77621378924E+00  0.35838628141E+00  0.11801016934E+01  0.00000000000E+00 0. -1.
         11    1    3    3    0    0 -0.33563625197E+02  0.25371196596E+02  0.97695643595E+01  0.43193274258E+02  0.51100000000E-03 0. -1.
        -11    1    3    3    0    0  0.72638695757E+01 -0.27882326556E+01  0.48168671832E+01  0.91509700183E+01  0.51100000000E-03 0.  1.
        -12    1    3    3    0    0  0.25486311442E+02 -0.23359177730E+02 -0.14944817824E+02  0.37663654030E+02  0.00000000000E+00 0.  1.
</event>
<event>
 7    1  0.4400431E-015  0.9000776E+02  0.7816164E-02  0.1186339E+00
        -11   -1    0    0    0    0  0.00000000000E+00  0.00000000000E+00  0.45593999997E+02  0.45594000000E+02  0.51100000000E-03 0.  1.
         11   -1    0    0    0    0 -0.00000000000E+00 -0.00000000000E+00 -0.45593999997E+02  0.45594000000E+02  0.51100000000E-03 0. -1.
    9900012    2    1    2    0    0  0.68039941649E+00 -0.95675981363E+00 -0.12101601507E+00  0.90007755287E+02  0.90000016857E+02 0.  0.
         12    1    1    2    0    0 -0.68039941649E+00  0.95675981363E+00  0.12101601507E+00  0.11802447131E+01  0.00000000000E+00 0. -1.
         11    1    3    3    0    0  0.46726565633E+01  0.26158413706E+01 -0.35765833196E+02  0.36164501516E+02  0.51100000000E-03 0. -1.
        -11    1    3    3    0    0  0.39033206287E+00  0.87795340525E+01 -0.56972421227E+01  0.10473354065E+02  0.51100000000E-03 0.  1.
        -12    1    3    3    0    0 -0.43825892097E+01 -0.12352135237E+02  0.41342059303E+02  0.43369899706E+02  0.00000000000E+00 0.  1.
</event>
<event>
 7    1  0.4400431E-015  0.9000775E+02  0.7816164E-02  0.1186339E+00
        -11   -1    0    0    0    0  0.00000000000E+00  0.00000000000E+00  0.45593999997E+02  0.45594000000E+02  0.51100000000E-03 0. -1.
         11   -1    0    0    0    0 -0.00000000000E+00 -0.00000000000E+00 -0.45593999997E+02  0.45594000000E+02  0.51100000000E-03 0.  1.
    9900012    2    1    2    0    0 -0.28164139210E+00  0.18386556994E+00 -0.11313123643E+01  0.90007747448E+02  0.90000008914E+02 0.  0.
         12    1    1    2    0    0  0.28164139210E+00 -0.18386556994E+00  0.11313123643E+01  0.11802525523E+01  0.00000000000E+00 0. -1.
         11    1    3    3    0    0 -0.29198533878E+01 -0.88748298447E+01  0.63606202766E+01  0.11302461641E+02  0.51100000000E-03 0. -1.
        -11    1    3    3    0    0 -0.33442725862E+02 -0.11045196754E+02 -0.11879824452E+02  0.37169106980E+02  0.51100000000E-03 0.  1.
         12    1    3    3    0    0  0.36080937857E+02  0.20103892169E+02  0.43878918109E+01  0.41536178827E+02  0.00000000000E+00 0. -1.
</event>
<event>
 7    1  0.4400431E-015  0.9000771E+02  0.7816164E-02  0.1186339E+00
        -11   -1    0    0    0    0  0.00000000000E+00  0.00000000000E+00  0.45593999997E+02  0.45594000000E+02  0.51100000000E-03 0.  1.
         11   -1    0    0    0    0 -0.00000000000E+00 -0.00000000000E+00 -0.45593999997E+02  0.45594000000E+02  0.51100000000E-03 0. -1.
    9900012    2    1    2    0    0  0.77861275581E+00  0.86754410881E+00  0.18496219530E+00  0.90007711214E+02  0.89999972202E+02 0.  0.
         12    1    1    2    0    0 -0.77861275581E+00 -0.86754410881E+00 -0.18496219530E+00  0.11802887858E+01  0.00000000000E+00 0. -1.
         11    1    3    3    0    0  0.63941188466E+01 -0.11362810414E+01  0.75604809034E+01  0.99667829404E+01  0.51100000000E-03 0. -1.
        -11    1    3    3    0    0 -0.17299713845E+02  0.47824117962E+01  0.33191389279E+02  0.37733537924E+02  0.51100000000E-03 0.  1.
         12    1    3    3    0    0  0.11684207754E+02 -0.27785866459E+01 -0.40566907987E+02  0.42307390350E+02  0.00000000000E+00 0. -1.
</event>
<event>
 7    1  0.4400431E-015  0.9000769E+02  0.7816164E-02  0.1186339E+00
        -11   -1    0    0    0    0  0.00000000000E+00  0.00000000000E+00  0.45593999997E+02  0.45594000000E+02  0.51100000000E-03 0. -1.
         11   -1    0    0    0    0 -0.00000000000E+00 -0.00000000000E+00 -0.45593999997E+02  0.45594000000E+02  0.51100000000E-03 0.  1.
    9900012    2    1    2    0    0  0.42531906666E+00 -0.10922801703E+01 -0.13841034987E+00  0.90007690844E+02  0.89999951563E+02 0.  0.
         12    1    1    2    0    0 -0.42531906666E+00  0.10922801703E+01  0.13841034987E+00  0.11803091561E+01  0.00000000000E+00 0. -1.
         11    1    3    3    0    0 -0.15900108819E+01  0.10812023270E+02  0.25450901740E+00  0.10931274258E+02  0.51100000000E-03 0. -1.
        -11    1    3    3    0    0 -0.75332742306E+01  0.21361299961E+02  0.26780171815E+02  0.35074676896E+02  0.51100000000E-03 0.  1.
         12    1    3    3    0    0  0.95486041791E+01 -0.33265603401E+02 -0.27173091182E+02  0.44001739691E+02  0.00000000000E+00 0. -1.
</event>
<event>
 7    1  0.4400431E-015  0.9000770E+02  0.7816164E-02  0.1186339E+00
        -11   -1    0    0    0    0  0.00000000000E+00  0.00000000000E+00  0.45593999997E+02  0.45594000000E+02  0.51100000000E-03 0.  1.
         11   -1    0    0    0    0 -0.00000000000E+00 -0.00000000000E+00 -0.45593999997E+02  0.45594000000E+02  0.51100000000E-03 0. -1.
    9900012    2    1    2    0    0  0.18032056172E+00  0.11205939255E+01 -0.32381705326E+00  0.90007701845E+02  0.89999962709E+02 0.  0.
         12    1    1    2    0    0 -0.18032056172E+00 -0.11205939255E+01  0.32381705326E+00  0.11802981551E+01  0.00000000000E+00 0. -1.
         11    1    3    3    0    0  0.38908552375E+02  0.11516323423E+02 -0.66882781998E+01  0.41124618158E+02  0.51100000000E-03 0. -1.
        -11    1    3    3    0    0  0.27743883608E+01 -0.32637562009E+01  0.52253216560E+01  0.67567242052E+01  0.51100000000E-03 0.  1.
        -12    1    3    3    0    0 -0.41502620174E+02 -0.71319732965E+01  0.11391394905E+01  0.42126359482E+02  0.00000000000E+00 0.  1.
</event>
<event>
 7    1  0.4400431E-015  0.9000754E+02  0.7816164E-02  0.1186339E+00
        -11   -1    0    0    0    0  0.00000000000E+00  0.00000000000E+00  0.45593999997E+02  0.45594000000E+02  0.51100000000E-03 0. -1.
         11   -1    0    0    0    0 -0.00000000000E+00 -0.00000000000E+00 -0.45593999997E+02  0.45594000000E+02  0.51100000000E-03 0.  1.
    9900012    2    1    2    0    0  0.68035186883E+00 -0.55157486039E+00 -0.79143421616E+00  0.90007541779E+02  0.89999800531E+02 0.  0.
         12    1    1    2    0    0 -0.68035186883E+00  0.55157486039E+00  0.79143421616E+00  0.11804582206E+01  0.00000000000E+00 0. -1.
         11    1    3    3    0    0 -0.33359533544E+02  0.19456333913E+02  0.14287661482E+02  0.41176992101E+02  0.51100000000E-03 0. -1.
        -11    1    3    3    0    0  0.72970911670E+01 -0.42525289263E+00  0.60792252721E+01  0.95071215250E+01  0.51100000000E-03 0.  1.
        -12    1    3    3    0    0  0.26742794246E+02 -0.19582655881E+02 -0.21158320971E+02  0.39323428153E+02  0.00000000000E+00 0.  1.
</event>
<event>
 7    1  0.4400431E-015  0.9000768E+02  0.7816164E-02  0.1186339E+00
        -11   -1    0    0    0    0  0.00000000000E+00  0.00000000000E+00  0.45593999997E+02  0.45594000000E+02  0.51100000000E-03 0.  1.
         11   -1    0    0    0    0 -0.00000000000E+00 -0.00000000000E+00 -0.45593999997E+02  0.45594000000E+02  0.51100000000E-03 0. -1.
    9900012    2    1    2    0    0 -0.71055878398E+00  0.59114791994E+00  0.73403860668E+00  0.90007677025E+02  0.89999937562E+02 0.  0.
         12    1    1    2    0    0  0.71055878398E+00 -0.59114791994E+00 -0.73403860668E+00  0.11803229748E+01  0.00000000000E+00 0. -1.
         11    1    3    3    0    0 -0.70860821994E+01  0.67859156304E+01  0.32908739907E+01  0.10348481230E+02  0.51100000000E-03 0. -1.
        -11    1    3    3    0    0  0.13915441763E+02 -0.31855003669E+02  0.23784890815E+02  0.42120087957E+02  0.51100000000E-03 0.  1.
         12    1    3    3    0    0 -0.75399183476E+01  0.25660235959E+02 -0.26341726199E+02  0.37539107838E+02  0.00000000000E+00 0. -1.
</event>
<event>
 7    1  0.4400431E-015  0.9000770E+02  0.7816164E-02  0.1186339E+00
        -11   -1    0    0    0    0  0.00000000000E+00  0.00000000000E+00  0.45593999997E+02  0.45594000000E+02  0.51100000000E-03 0.  1.
         11   -1    0    0    0    0 -0.00000000000E+00 -0.00000000000E+00 -0.45593999997E+02  0.45594000000E+02  0.51100000000E-03 0. -1.
    9900012    2    1    2    0    0 -0.10323606321E+01 -0.16808757927E+00 -0.54687778931E+00  0.90007704602E+02  0.89999965503E+02 0.  0.
         12    1    1    2    0    0  0.10323606321E+01  0.16808757927E+00  0.54687778931E+00  0.11802953975E+01  0.00000000000E+00 0. -1.
         11    1    3    3    0    0 -0.94822690532E+01  0.24486699969E+02 -0.21524070281E+02  0.33952871800E+02  0.51100000000E-03 0. -1.
        -11    1    3    3    0    0  0.26577576301E+01 -0.17175926346E+01 -0.13708823673E+02  0.14069315791E+02  0.51100000000E-03 0.  1.
        -12    1    3    3    0    0  0.57921507910E+01 -0.22937194914E+02  0.34686016164E+02  0.41985517011E+02  0.00000000000E+00 0.  1.
</event>
<event>
 7    1  0.4400431E-015  0.9000777E+02  0.7816164E-02  0.1186339E+00
        -11   -1    0    0    0    0  0.00000000000E+00  0.00000000000E+00  0.45593999997E+02  0.45594000000E+02  0.51100000000E-03 0.  1.
         11   -1    0    0    0    0 -0.00000000000E+00 -0.00000000000E+00 -0.45593999997E+02  0.45594000000E+02  0.51100000000E-03 0. -1.
    9900012    2    1    2    0    0  0.50415323826E+00  0.78839742994E-01  0.10642112420E+01  0.90007774699E+02  0.90000036525E+02 0.  0.
         12    1    1    2    0    0 -0.50415323826E+00 -0.78839742994E-01 -0.10642112420E+01  0.11802253007E+01  0.00000000000E+00 0. -1.
         11    1    3    3    0    0 -0.78853204968E+01 -0.10910295139E+01  0.24294590215E+01  0.83229139209E+01  0.51100000000E-03 0. -1.
        -11    1    3    3    0    0 -0.30018215722E+02  0.33894109413E+01  0.21364400112E+02  0.37000256405E+02  0.51100000000E-03 0.  1.
         12    1    3    3    0    0  0.38407689457E+02 -0.22195416843E+01 -0.22729647891E+02  0.44684604373E+02  0.00000000000E+00 0. -1.
</event>
<event>
 7    1  0.4400431E-015  0.9000773E+02  0.7816164E-02  0.1186339E+00
        -11   -1    0    0    0    0  0.00000000000E+00  0.00000000000E+00  0.45593999997E+02  0.45594000000E+02  0.51100000000E-03 0. -1.
         11   -1    0    0    0    0 -0.00000000000E+00 -0.00000000000E+00 -0.45593999997E+02  0.45594000000E+02  0.51100000000E-03 0.  1.
    9900012    2    1    2    0    0  0.10670195074E+01 -0.41476093541E+00 -0.28718665019E+00  0.90007731626E+02  0.89999992883E+02 0.  0.
         12    1    1    2    0    0 -0.10670195074E+01  0.41476093541E+00  0.28718665019E+00  0.11802683740E+01  0.00000000000E+00 0. -1.
         11    1    3    3    0    0 -0.14794315704E+02  0.16172833537E+02  0.28116241624E+02  0.35650460938E+02  0.51100000000E-03 0. -1.
        -11    1    3    3    0    0 -0.76986556734E+01  0.62623647972E+01  0.14021028423E+01  0.10022594708E+02  0.51100000000E-03 0.  1.
        -12    1    3    3    0    0  0.23559990885E+02 -0.22849959270E+02 -0.29805531117E+02  0.44334675980E+02  0.00000000000E+00 0.  1.
</event>
<event>
 7    1  0.4400431E-015  0.9000792E+02  0.7816164E-02  0.1186339E+00
        -11   -1    0    0    0    0  0.00000000000E+00  0.00000000000E+00  0.45593999997E+02  0.45594000000E+02  0.51100000000E-03 0.  1.
         11   -1    0    0    0    0 -0.00000000000E+00 -0.00000000000E+00 -0.45593999997E+02  0.45594000000E+02  0.51100000000E-03 0. -1.
    9900012    2    1    2    0    0 -0.78445328590E+00  0.62016876885E+00 -0.62658527899E+00  0.90007921455E+02  0.90000185218E+02 0.  0.
         12    1    1    2    0    0  0.78445328590E+00 -0.62016876885E+00  0.62658527899E+00  0.11800785446E+01  0.00000000000E+00 0. -1.
         11    1    3    3    0    0 -0.24555842021E+02  0.20803397200E+02 -0.16132026244E+02  0.36000180324E+02  0.51100000000E-03 0. -1.
        -11    1    3    3    0    0 -0.21961348919E+01  0.10542990258E+02 -0.32861225087E+00  0.10774304540E+02  0.51100000000E-03 0.  1.
        -12    1    3    3    0    0  0.25967523627E+02 -0.30726218689E+02  0.15834053216E+02  0.43233436591E+02  0.00000000000E+00 0.  1.
</event>
<event>
 7    1  0.4400431E-015  0.9000782E+02  0.7816164E-02  0.1186339E+00
        -11   -1    0    0    0    0  0.00000000000E+00  0.00000000000E+00  0.45593999997E+02  0.45594000000E+02  0.51100000000E-03 0. -1.
         11   -1    0    0    0    0 -0.00000000000E+00 -0.00000000000E+00 -0.45593999997E+02  0.45594000000E+02  0.51100000000E-03 0.  1.
    9900012    2    1    2    0    0  0.95580304459E-01  0.10126176373E+01 -0.59858536448E+00  0.90007815899E+02  0.90000078269E+02 0.  0.
         12    1    1    2    0    0 -0.95580304459E-01 -0.10126176373E+01  0.59858536448E+00  0.11801841011E+01  0.00000000000E+00 0. -1.
         11    1    3    3    0    0 -0.49630326800E+01 -0.14268779732E+02  0.39757010790E+02  0.42530573423E+02  0.51100000000E-03 0. -1.
        -11    1    3    3    0    0 -0.54082324098E+01  0.61810747519E+01 -0.52925972016E+01  0.97706831023E+01  0.51100000000E-03 0.  1.
        -12    1    3    3    0    0  0.10466845394E+02  0.91003226170E+01 -0.35062998953E+02  0.37706559374E+02  0.00000000000E+00 0.  1.
</event>
<event>
 7    1  0.4400431E-015  0.9000775E+02  0.7816164E-02  0.1186339E+00
        -11   -1    0    0    0    0  0.00000000000E+00  0.00000000000E+00  0.45593999997E+02  0.45594000000E+02  0.51100000000E-03 0.  1.
         11   -1    0    0    0    0 -0.00000000000E+00 -0.00000000000E+00 -0.45593999997E+02  0.45594000000E+02  0.51100000000E-03 0. -1.
    9900012    2    1    2    0    0 -0.10326561730E+01 -0.54529020611E+00  0.17109847800E+00  0.90007747963E+02  0.90000009437E+02 0.  0.
         12    1    1    2    0    0  0.10326561730E+01  0.54529020611E+00 -0.17109847800E+00  0.11802520365E+01  0.00000000000E+00 0. -1.
         11    1    3    3    0    0  0.33743154835E+02 -0.16568333484E+02 -0.25138772110E+01  0.37675320192E+02  0.51100000000E-03 0. -1.
        -11    1    3    3    0    0  0.62868548397E+01  0.80757991980E+01 -0.13078026402E+01  0.10317626882E+02  0.51100000000E-03 0.  1.
        -12    1    3    3    0    0 -0.41062665848E+02  0.79472440797E+01  0.39927783292E+01  0.42014800890E+02  0.00000000000E+00 0.  1.
</event>
<event>
 7    1  0.4400431E-015  0.9000779E+02  0.7816164E-02  0.1186339E+00
        -11   -1    0    0    0    0  0.00000000000E+00  0.00000000000E+00  0.45593999997E+02  0.45594000000E+02  0.51100000000E-03 0.  1.
         11   -1    0    0    0    0 -0.00000000000E+00 -0.00000000000E+00 -0.45593999997E+02  0.45594000000E+02  0.51100000000E-03 0. -1.
    9900012    2    1    2    0    0 -0.13534543148E+00  0.10228492396E+01  0.57302250757E+00  0.90007790804E+02  0.90000052842E+02 0.  0.
         12    1    1    2    0    0  0.13534543148E+00 -0.10228492396E+01 -0.57302250757E+00  0.11802091963E+01  0.00000000000E+00 0. -1.
         11    1    3    3    0    0  0.90629768772E+01  0.12491690420E+01  0.58724905780E+00  0.91674879269E+01  0.51100000000E-03 0. -1.
        -11    1    3    3    0    0 -0.80089811138E+01 -0.96241546859E+01  0.38860661101E+02  0.40827920757E+02  0.51100000000E-03 0.  1.
         12    1    3    3    0    0 -0.11893411949E+01  0.93978348836E+01 -0.38874887651E+02  0.40012382119E+02  0.00000000000E+00 0. -1.
</event>
<event>
 7    1  0.7832639E-015  0.9000763E+02  0.7816164E-02  0.1186339E+00
        -11   -1    0    0    0    0  0.00000000000E+00  0.00000000000E+00  0.45593999997E+02  0.45594000000E+02  0.51100000000E-03 0. -1.
         11   -1    0    0    0    0 -0.00000000000E+00 -0.00000000000E+00 -0.45593999997E+02  0.45594000000E+02  0.51100000000E-03 0.  1.
    9900012    2    1    2    0    0  0.11642155676E+01 -0.66639735301E-01 -0.18285591908E+00  0.90007629283E+02  0.89999889190E+02 0.  0.
         12    1    1    2    0    0 -0.11642155676E+01  0.66639735301E-01  0.18285591908E+00  0.11803707169E+01  0.00000000000E+00 0. -1.
         11    1    3    3    0    0 -0.23387655292E+02  0.95163085239E+01  0.26724245425E+02  0.36765851571E+02  0.51100000000E-03 0. -1.
        -11    1    3    3    0    0 -0.77684166713E+01  0.43383617826E+01  0.73692512224E-01  0.88980397495E+01  0.51100000000E-03 0.  1.
        -12    1    3    3    0    0  0.32320287531E+02 -0.13921310042E+02 -0.26980793856E+02  0.44343737962E+02  0.00000000000E+00 0.  1.
</event>
<event>
 7    1  0.4400431E-015  0.9000774E+02  0.7816164E-02  0.1186339E+00
        -11   -1    0    0    0    0  0.00000000000E+00  0.00000000000E+00  0.45593999997E+02  0.45594000000E+02  0.51100000000E-03 0. -1.
         11   -1    0    0    0    0 -0.00000000000E+00 -0.00000000000E+00 -0.45593999997E+02  0.45594000000E+02  0.51100000000E-03 0.  1.
    9900012    2    1    2    0    0  0.11761803694E+01 -0.96604384597E-01 -0.17036773121E-01  0.90007736080E+02  0.89999997397E+02 0.  0.
         12    1    1    2    0    0 -0.11761803694E+01  0.96604384597E-01  0.17036773121E-01  0.11802639197E+01  0.00000000000E+00 0. -1.
         11    1    3    3    0    0 -0.19827750447E+02 -0.81387119507E+01  0.36697310024E+02  0.42497892692E+02  0.51100000000E-03 0. -1.
        -11    1    3    3    0    0  0.10246143880E+02 -0.16722422154E+01 -0.29918941840E+01  0.10804225539E+02  0.51100000000E-03 0.  1.
        -12    1    3    3    0    0  0.10757786936E+02  0.97143497816E+01 -0.33722452613E+02  0.36705617849E+02  0.00000000000E+00 0.  1.
</event>
<event>
 7    1  0.4400431E-015  0.9000782E+02  0.7816164E-02  0.1186339E+00
        -11   -1    0    0    0    0  0.00000000000E+00  0.00000000000E+00  0.45593999997E+02  0.45594000000E+02  0.51100000000E-03 0. -1.
         11   -1    0    0    0    0 -0.00000000000E+00 -0.00000000000E+00 -0.45593999997E+02  0.45594000000E+02  0.51100000000E-03 0.  1.
    9900012    2    1    2    0    0  0.45727335610E+00 -0.91899835549E+00 -0.58238334801E+00  0.90007818970E+02  0.90000081380E+02 0.  0.
         12    1    1    2    0    0 -0.45727335610E+00  0.91899835549E+00  0.58238334801E+00  0.11801810300E+01  0.00000000000E+00 0. -1.
         11    1    3    3    0    0  0.12768361424E+02  0.19125076316E+02  0.28091023386E+02  0.36302963965E+02  0.51100000000E-03 0. -1.
        -11    1    3    3    0    0  0.84550056062E+01  0.28715437863E+01  0.30175025432E+01  0.94254021334E+01  0.51100000000E-03 0.  1.
        -12    1    3    3    0    0 -0.20766093675E+02 -0.22915618457E+02 -0.31690909277E+02  0.44279452871E+02  0.00000000000E+00 0.  1.
</event>
<event>
 7    1  0.4400431E-015  0.9000773E+02  0.7816164E-02  0.1186339E+00
        -11   -1    0    0    0    0  0.00000000000E+00  0.00000000000E+00  0.45593999997E+02  0.45594000000E+02  0.51100000000E-03 0.  1.
         11   -1    0    0    0    0 -0.00000000000E+00 -0.00000000000E+00 -0.45593999997E+02  0.45594000000E+02  0.51100000000E-03 0. -1.
    9900012    2    1    2    0    0 -0.11358522815E+01  0.31917193936E+00  0.31884524483E-01  0.90007725559E+02  0.89999986737E+02 0.  0.
         12    1    1    2    0    0  0.11358522815E+01 -0.31917193936E+00 -0.31884524483E-01  0.11802744406E+01  0.00000000000E+00 0. -1.
         11    1    3    3    0    0  0.26858822036E+01  0.68957862845E+01 -0.66995048906E+01  0.99824444768E+01  0.51100000000E-03 0. -1.
        -11    1    3    3    0    0  0.25157007098E+00  0.51164532618E+01 -0.35576117157E+02  0.35943031226E+02  0.51100000000E-03 0.  1.
         12    1    3    3    0    0 -0.40733045561E+01 -0.11693067607E+02  0.42307506572E+02  0.44082249857E+02  0.00000000000E+00 0. -1.
</event>
<event>
 7    1  0.4400431E-015  0.9000767E+02  0.7816164E-02  0.1186339E+00
        -11   -1    0    0    0    0  0.00000000000E+00  0.00000000000E+00  0.45593999997E+02  0.45594000000E+02  0.51100000000E-03 0. -1.
         11   -1    0    0    0    0 -0.00000000000E+00 -0.00000000000E+00 -0.45593999997E+02  0.45594000000E+02  0.51100000000E-03 0.  1.
    9900012    2    1    2    0    0 -0.23855133455E+00  0.69732210712E+00 -0.92196514781E+00  0.90007667592E+02  0.89999928004E+02 0.  0.
         12    1    1    2    0    0  0.23855133455E+00 -0.69732210712E+00  0.92196514781E+00  0.11803324083E+01  0.00000000000E+00 0. -1.
         11    1    3    3    0    0 -0.61636028688E+00  0.46324809650E+01 -0.87381637443E+01  0.99093534490E+01  0.51100000000E-03 0. -1.
        -11    1    3    3    0    0 -0.39169915399E+02 -0.42051997602E+01  0.94622374032E+01  0.40515428103E+02  0.51100000000E-03 0.  1.
         12    1    3    3    0    0  0.39547724352E+02  0.27004090238E+00 -0.16460388067E+01  0.39582886040E+02  0.00000000000E+00 0. -1.
</event>
<event>
 7    1  0.4400431E-015  0.9000774E+02  0.7816164E-02  0.1186339E+00
        -11   -1    0    0    0    0  0.00000000000E+00  0.00000000000E+00  0.45593999997E+02  0.45594000000E+02  0.51100000000E-03 0. -1.
         11   -1    0    0    0    0 -0.00000000000E+00 -0.00000000000E+00 -0.45593999997E+02  0.45594000000E+02  0.51100000000E-03 0.  1.
    9900012    2    1    2    0    0  0.98612330874E+00  0.59110621815E+00  0.26677148358E+00  0.90007740382E+02  0.90000001755E+02 0.  0.
         12    1    1    2    0    0 -0.98612330874E+00 -0.59110621815E+00 -0.26677148358E+00  0.11802596179E+01  0.00000000000E+00 0. -1.
         11    1    3    3    0    0 -0.24550607422E+02  0.31463506990E+02  0.10790992826E+02  0.41341627004E+02  0.51100000000E-03 0. -1.
        -11    1    3    3    0    0 -0.49980804186E+01 -0.57648064835E+01 -0.39490266257E+01  0.85911939342E+01  0.51100000000E-03 0.  1.
        -12    1    3    3    0    0  0.30534811149E+02 -0.25107594289E+02 -0.65751947163E+01  0.40074919444E+02  0.00000000000E+00 0.  1.
</event>
<event>
 7    1  0.4400431E-015  0.9000771E+02  0.7816164E-02  0.1186339E+00
        -11   -1    0    0    0    0  0.00000000000E+00  0.00000000000E+00  0.45593999997E+02  0.45594000000E+02  0.51100000000E-03 0. -1.
         11   -1    0    0    0    0 -0.00000000000E+00 -0.00000000000E+00 -0.45593999997E+02  0.45594000000E+02  0.51100000000E-03 0.  1.
    9900012    2    1    2    0    0  0.11197438644E+01 -0.10708603735E+00 -0.35747921141E+00  0.90007709727E+02  0.89999970696E+02 0.  0.
         12    1    1    2    0    0 -0.11197438644E+01  0.10708603735E+00  0.35747921141E+00  0.11802902727E+01  0.00000000000E+00 0. -1.
         11    1    3    3    0    0 -0.30091450881E+02 -0.17908776233E+02  0.10437762147E+02  0.36539931051E+02  0.51100000000E-03 0. -1.
        -11    1    3    3    0    0  0.17389233128E+00 -0.55728504687E+01  0.84377839039E+01  0.10113510684E+02  0.51100000000E-03 0.  1.
        -12    1    3    3    0    0  0.31037302414E+02  0.23374540664E+02 -0.19233025262E+02  0.43354267992E+02  0.00000000000E+00 0.  1.
</event>
<event>
 7    1  0.4400431E-015  0.9000775E+02  0.7816164E-02  0.1186339E+00
        -11   -1    0    0    0    0  0.00000000000E+00  0.00000000000E+00  0.45593999997E+02  0.45594000000E+02  0.51100000000E-03 0.  1.
         11   -1    0    0    0    0 -0.00000000000E+00 -0.00000000000E+00 -0.45593999997E+02  0.45594000000E+02  0.51100000000E-03 0. -1.
    9900012    2    1    2    0    0 -0.36083022141E+00 -0.83533394349E+00  0.75167177739E+00  0.90007749303E+02  0.90000010794E+02 0.  0.
         12    1    1    2    0    0  0.36083022141E+00  0.83533394349E+00 -0.75167177739E+00  0.11802506966E+01  0.00000000000E+00 0. -1.
         11    1    3    3    0    0  0.24373738160E+02  0.21790354237E+02 -0.21016858140E+02  0.38866527707E+02  0.51100000000E-03 0. -1.
        -11    1    3    3    0    0 -0.24711442500E+01 -0.17538069882E+01 -0.79723601883E+01  0.85288287642E+01  0.51100000000E-03 0.  1.
        -12    1    3    3    0    0 -0.22263424131E+02 -0.20871881193E+02  0.29740890106E+02  0.42612392832E+02  0.00000000000E+00 0.  1.
</event>
<event>
 7    1  0.4400431E-015  0.9000774E+02  0.7816164E-02  0.1186339E+00
        -11   -1    0    0    0    0  0.00000000000E+00  0.00000000000E+00  0.45593999997E+02  0.45594000000E+02  0.51100000000E-03 0.  1.
         11   -1    0    0    0    0 -0.00000000000E+00 -0.00000000000E+00 -0.45593999997E+02  0.45594000000E+02  0.51100000000E-03 0. -1.
    9900012    2    1    2    0    0  0.74793442594E+00 -0.85525892172E+00  0.31959398847E+00  0.90007739840E+02  0.90000001206E+02 0.  0.
         12    1    1    2    0    0 -0.74793442594E+00  0.85525892172E+00 -0.31959398847E+00  0.11802601604E+01  0.00000000000E+00 0. -1.
         11    1    3    3    0    0 -0.79938414739E+01 -0.33691551086E+02  0.15254604040E+02  0.37838142935E+02  0.51100000000E-03 0. -1.
        -11    1    3    3    0    0 -0.97012052149E+01 -0.25774089423E+01 -0.35954568252E+01  0.10662257243E+02  0.51100000000E-03 0.  1.
        -12    1    3    3    0    0  0.18442981115E+02  0.35413701106E+02 -0.11339553226E+02  0.41507339662E+02  0.00000000000E+00 0.  1.
</event>
<event>
 7    1  0.4400431E-015  0.9000772E+02  0.7816164E-02  0.1186339E+00
        -11   -1    0    0    0    0  0.00000000000E+00  0.00000000000E+00  0.45593999997E+02  0.45594000000E+02  0.51100000000E-03 0.  1.
         11   -1    0    0    0    0 -0.00000000000E+00 -0.00000000000E+00 -0.45593999997E+02  0.45594000000E+02  0.51100000000E-03 0. -1.
    9900012    2    1    2    0    0  0.25445381785E+00 -0.11312141580E+01  0.22058952158E+00  0.90007723781E+02  0.89999984935E+02 0.  0.
         12    1    1    2    0    0 -0.25445381785E+00  0.11312141580E+01 -0.22058952158E+00  0.11802762192E+01  0.00000000000E+00 0. -1.
         11    1    3    3    0    0 -0.29220172399E+02 -0.26520841932E+02 -0.13014345199E+02  0.41551735379E+02  0.51100000000E-03 0. -1.
        -11    1    3    3    0    0  0.20225137947E+01  0.46026056401E+01 -0.69226225365E+01  0.85555387774E+01  0.51100000000E-03 0.  1.
        -12    1    3    3    0    0  0.27452112422E+02  0.20787022134E+02  0.20157557257E+02  0.39900449624E+02  0.00000000000E+00 0.  1.
</event>
<event>
 7    1  0.4400431E-015  0.9000832E+02  0.7816164E-02  0.1186338E+00
        -11   -1    0    0    0    0  0.00000000000E+00  0.00000000000E+00  0.45593999997E+02  0.45594000000E+02  0.51100000000E-03 0.  1.
         11   -1    0    0    0    0 -0.00000000000E+00 -0.00000000000E+00 -0.45593999997E+02  0.45594000000E+02  0.51100000000E-03 0. -1.
    9900012    2    1    2    0    0  0.43189229650E+00  0.32852175519E+00  0.10474647766E+01  0.90008322096E+02  0.90000591146E+02 0.  0.
         12    1    1    2    0    0 -0.43189229650E+00 -0.32852175519E+00 -0.10474647766E+01  0.11796779041E+01  0.00000000000E+00 0. -1.
         11    1    3    3    0    0  0.31156908510E+02 -0.97389001150E+01 -0.21240160534E+02  0.38945391809E+02  0.51100000000E-03 0. -1.
        -11    1    3    3    0    0  0.34618458885E+01 -0.68316368302E+01  0.22431130456E+01  0.79804257488E+01  0.51100000000E-03 0.  1.
        -12    1    3    3    0    0 -0.34186862102E+02  0.16899058700E+02  0.20044512265E+02  0.43082504538E+02  0.00000000000E+00 0.  1.
</event>
<event>
 7    1  0.4400431E-015  0.9000770E+02  0.7816164E-02  0.1186339E+00
        -11   -1    0    0    0    0  0.00000000000E+00  0.00000000000E+00  0.45593999997E+02  0.45594000000E+02  0.51100000000E-03 0. -1.
         11   -1    0    0    0    0 -0.00000000000E+00 -0.00000000000E+00 -0.45593999997E+02  0.45594000000E+02  0.51100000000E-03 0.  1.
    9900012    2    1    2    0    0  0.76020208806E-01  0.77428704047E+00 -0.88758219988E+00  0.90007702726E+02  0.89999963602E+02 0.  0.
         12    1    1    2    0    0 -0.76020208806E-01 -0.77428704047E+00  0.88758219988E+00  0.11802972739E+01  0.00000000000E+00 0. -1.
         11    1    3    3    0    0  0.21249806801E+02  0.19173896809E+02 -0.88697154032E+01  0.29964386520E+02  0.51100000000E-03 0. -1.
        -11    1    3    3    0    0  0.10238808608E+02  0.12005542462E+02  0.26960724630E+01  0.16007343893E+02  0.51100000000E-03 0.  1.
        -12    1    3    3    0    0 -0.31412595200E+02 -0.30405152231E+02  0.52860607403E+01  0.44035972313E+02  0.00000000000E+00 0.  1.
</event>
<event>
 7    1  0.4400431E-015  0.9000769E+02  0.7816164E-02  0.1186339E+00
        -11   -1    0    0    0    0  0.00000000000E+00  0.00000000000E+00  0.45593999997E+02  0.45594000000E+02  0.51100000000E-03 0.  1.
         11   -1    0    0    0    0 -0.00000000000E+00 -0.00000000000E+00 -0.45593999997E+02  0.45594000000E+02  0.51100000000E-03 0. -1.
    9900012    2    1    2    0    0  0.35794287594E+00 -0.98901920982E+00 -0.53559431430E+00  0.90007685055E+02  0.89999945698E+02 0.  0.
         12    1    1    2    0    0 -0.35794287594E+00  0.98901920982E+00  0.53559431430E+00  0.11803149450E+01  0.00000000000E+00 0. -1.
         11    1    3    3    0    0 -0.66440596866E+01 -0.29035326780E+02 -0.22863872962E+02  0.37549306483E+02  0.51100000000E-03 0. -1.
        -11    1    3    3    0    0  0.64239079143E+01 -0.43002132902E+01 -0.57395098548E+01  0.96281047392E+01  0.51100000000E-03 0.  1.
        -12    1    3    3    0    0  0.57809464817E+00  0.32346520860E+02  0.28067788502E+02  0.42830273833E+02  0.00000000000E+00 0.  1.
</event>
<event>
 7    1  0.4400431E-015  0.9000773E+02  0.7816164E-02  0.1186339E+00
        -11   -1    0    0    0    0  0.00000000000E+00  0.00000000000E+00  0.45593999997E+02  0.45594000000E+02  0.51100000000E-03 0. -1.
         11   -1    0    0    0    0 -0.00000000000E+00 -0.00000000000E+00 -0.45593999997E+02  0.45594000000E+02  0.51100000000E-03 0.  1.
    9900012    2    1    2    0    0 -0.53750245296E+00  0.88182369784E+00  0.57142235948E+00  0.90007726543E+02  0.89999987733E+02 0.  0.
         12    1    1    2    0    0  0.53750245296E+00 -0.88182369784E+00 -0.57142235948E+00  0.11802734573E+01  0.00000000000E+00 0. -1.
         11    1    3    3    0    0 -0.39671358868E+01 -0.75956588073E+01 -0.31863561072E+01  0.91424868261E+01  0.51100000000E-03 0. -1.
        -11    1    3    3    0    0  0.14592404253E+02  0.27188212467E+01 -0.36122669880E+02  0.39053521357E+02  0.51100000000E-03 0.  1.
         12    1    3    3    0    0 -0.11162770819E+02  0.57586612585E+01  0.39880448347E+02  0.41811718360E+02  0.00000000000E+00 0. -1.
</event>
<event>
 7    1  0.4400431E-015  0.9000787E+02  0.7816164E-02  0.1186339E+00
        -11   -1    0    0    0    0  0.00000000000E+00  0.00000000000E+00  0.45593999997E+02  0.45594000000E+02  0.51100000000E-03 0.  1.
         11   -1    0    0    0    0 -0.00000000000E+00 -0.00000000000E+00 -0.45593999997E+02  0.45594000000E+02  0.51100000000E-03 0. -1.
    9900012    2    1    2    0    0  0.28108387892E+00 -0.11434128214E+01  0.79468303024E-01  0.90007866008E+02  0.90000129040E+02 0.  0.
         12    1    1    2    0    0 -0.28108387892E+00  0.11434128214E+01 -0.79468303024E-01  0.11801339916E+01  0.00000000000E+00 0. -1.
         11    1    3    3    0    0  0.16392153783E+01  0.23876178766E+01  0.91982972043E+01  0.96434650360E+01  0.51100000000E-03 0. -1.
        -11    1    3    3    0    0  0.99674908475E+01  0.36566146392E+02 -0.99216758425E+00  0.37913300206E+02  0.51100000000E-03 0.  1.
         12    1    3    3    0    0 -0.11325622347E+02 -0.40097177090E+02 -0.81266613170E+01  0.42451100766E+02  0.00000000000E+00 0. -1.
</event>
<event>
 7    1  0.4400431E-015  0.9000772E+02  0.7816164E-02  0.1186339E+00
        -11   -1    0    0    0    0  0.00000000000E+00  0.00000000000E+00  0.45593999997E+02  0.45594000000E+02  0.51100000000E-03 0.  1.
         11   -1    0    0    0    0 -0.00000000000E+00 -0.00000000000E+00 -0.45593999997E+02  0.45594000000E+02  0.51100000000E-03 0. -1.
    9900012    2    1    2    0    0  0.27285494481E+00  0.14395215562E+00 -0.11392528246E+01  0.90007716542E+02  0.89999977600E+02 0.  0.
         12    1    1    2    0    0 -0.27285494481E+00 -0.14395215562E+00  0.11392528246E+01  0.11802834584E+01  0.00000000000E+00 0. -1.
         11    1    3    3    0    0 -0.28436931128E+02  0.82818838772E+01 -0.26600740469E+02  0.39810150041E+02  0.51100000000E-03 0. -1.
        -11    1    3    3    0    0  0.20227554838E+01  0.57878158884E+00 -0.69828140762E+01  0.72928883550E+01  0.51100000000E-03 0.  1.
        -12    1    3    3    0    0  0.26687030589E+02 -0.87167133104E+01  0.32444301721E+02  0.42904678145E+02  0.00000000000E+00 0.  1.
</event>
<event>
 7    1  0.4400431E-015  0.9000787E+02  0.7816164E-02  0.1186339E+00
        -11   -1    0    0    0    0  0.00000000000E+00  0.00000000000E+00  0.45593999997E+02  0.45594000000E+02  0.51100000000E-03 0.  1.
         11   -1    0    0    0    0 -0.00000000000E+00 -0.00000000000E+00 -0.45593999997E+02  0.45594000000E+02  0.51100000000E-03 0. -1.
    9900012    2    1    2    0    0 -0.82455102754E+00  0.66236921956E+00  0.52353291984E+00  0.90007871152E+02  0.90000134251E+02 0.  0.
         12    1    1    2    0    0  0.82455102754E+00 -0.66236921956E+00 -0.52353291984E+00  0.11801288481E+01  0.00000000000E+00 0. -1.
         11    1    3    3    0    0 -0.44151177036E+01 -0.97270383337E+00  0.97378378879E+01  0.10736149406E+02  0.51100000000E-03 0. -1.
        -11    1    3    3    0    0 -0.19819458185E+02  0.25649849362E+02  0.17094920989E+02  0.36646446197E+02  0.51100000000E-03 0.  1.
         12    1    3    3    0    0  0.23410024861E+02 -0.24014776309E+02 -0.26309225957E+02  0.42625275548E+02  0.00000000000E+00 0. -1.
</event>
<event>
 7    1  0.4400431E-015  0.9000773E+02  0.7816164E-02  0.1186339E+00
        -11   -1    0    0    0    0  0.00000000000E+00  0.00000000000E+00  0.45593999997E+02  0.45594000000E+02  0.51100000000E-03 0.  1.
         11   -1    0    0    0    0 -0.00000000000E+00 -0.00000000000E+00 -0.45593999997E+02  0.45594000000E+02  0.51100000000E-03 0. -1.
    9900012    2    1    2    0    0  0.83985257074E+00  0.54569882743E+00  0.62442574662E+00  0.90007725852E+02  0.89999987033E+02 0.  0.
         12    1    1    2    0    0 -0.83985257074E+00 -0.54569882743E+00 -0.62442574662E+00  0.11802741478E+01  0.00000000000E+00 0. -1.
         11    1    3    3    0    0  0.26999962674E+02  0.16211434985E+02 -0.21152568698E+02  0.37937313709E+02  0.51100000000E-03 0. -1.
        -11    1    3    3    0    0 -0.12547132185E+00  0.11589096779E+00 -0.88702241158E+01  0.88718684557E+01  0.51100000000E-03 0.  1.
        -12    1    3    3    0    0 -0.26034638781E+02 -0.15781627126E+02  0.30647218561E+02  0.43198543687E+02  0.00000000000E+00 0.  1.
</event>
<event>
 7    1  0.4400431E-015  0.9000766E+02  0.7816164E-02  0.1186339E+00
        -11   -1    0    0    0    0  0.00000000000E+00  0.00000000000E+00  0.45593999997E+02  0.45594000000E+02  0.51100000000E-03 0.  1.
         11   -1    0    0    0    0 -0.00000000000E+00 -0.00000000000E+00 -0.45593999997E+02  0.45594000000E+02  0.51100000000E-03 0. -1.
    9900012    2    1    2    0    0  0.18806597044E+00 -0.77576257623E+00  0.86949448507E+00  0.90007662318E+02  0.89999922661E+02 0.  0.
         12    1    1    2    0    0 -0.18806597044E+00  0.77576257623E+00 -0.86949448507E+00  0.11803376820E+01  0.00000000000E+00 0. -1.
         11    1    3    3    0    0  0.11403535893E+02 -0.86849984240E+01 -0.33000625492E+02  0.35979315052E+02  0.51100000000E-03 0. -1.
        -11    1    3    3    0    0 -0.15993651934E+01 -0.11323722976E+02 -0.25659001194E+01  0.11720431509E+02  0.51100000000E-03 0.  1.
        -12    1    3    3    0    0 -0.96161047294E+01  0.19232958824E+02  0.36436020096E+02  0.42307915758E+02  0.00000000000E+00 0.  1.
</event>
<event>
 7    1  0.4400431E-015  0.9000774E+02  0.7816164E-02  0.1186339E+00
        -11   -1    0    0    0    0  0.00000000000E+00  0.00000000000E+00  0.45593999997E+02  0.45594000000E+02  0.51100000000E-03 0.  1.
         11   -1    0    0    0    0 -0.00000000000E+00 -0.00000000000E+00 -0.45593999997E+02  0.45594000000E+02  0.51100000000E-03 0. -1.
    9900012    2    1    2    0    0  0.92003902995E+00  0.69782866918E+00 -0.24407292093E+00  0.90007742291E+02  0.90000003690E+02 0.  0.
         12    1    1    2    0    0 -0.92003902995E+00 -0.69782866918E+00  0.24407292093E+00  0.11802577087E+01  0.00000000000E+00 0. -1.
         11    1    3    3    0    0  0.17532558054E+02  0.73263074165E-01 -0.34422783863E+02  0.38630609735E+02  0.51100000000E-03 0. -1.
        -11    1    3    3    0    0  0.99471063565E+01 -0.39695506686E+01  0.55730990382E+01  0.12073180630E+02  0.51100000000E-03 0.  1.
        -12    1    3    3    0    0 -0.26559625380E+02  0.45941162636E+01  0.28605611904E+02  0.39303951926E+02  0.00000000000E+00 0.  1.
</event>
<event>
 7    1  0.4400431E-015  0.9000760E+02  0.7816164E-02  0.1186339E+00
        -11   -1    0    0    0    0  0.00000000000E+00  0.00000000000E+00  0.45593999997E+02  0.45594000000E+02  0.51100000000E-03 0.  1.
         11   -1    0    0    0    0 -0.00000000000E+00 -0.00000000000E+00 -0.45593999997E+02  0.45594000000E+02  0.51100000000E-03 0. -1.
    9900012    2    1    2    0    0  0.37318451791E+00  0.94502300340E+00  0.60083935385E+00  0.90007600453E+02  0.89999859979E+02 0.  0.
         12    1    1    2    0    0 -0.37318451791E+00 -0.94502300340E+00 -0.60083935385E+00  0.11803995470E+01  0.00000000000E+00 0. -1.
         11    1    3    3    0    0 -0.29425850512E+02 -0.17526447671E+02 -0.18160180605E+02  0.38766599106E+02  0.51100000000E-03 0. -1.
        -11    1    3    3    0    0 -0.56814040791E+01  0.76434662179E+01 -0.31247327195E+00  0.95288282565E+01  0.51100000000E-03 0.  1.
        -12    1    3    3    0    0  0.35480439109E+02  0.10828004457E+02  0.19073493231E+02  0.41712173091E+02  0.00000000000E+00 0.  1.
</event>
<event>
 7    1  0.4400431E-015  0.9000774E+02  0.7816164E-02  0.1186339E+00
        -11   -1    0    0    0    0  0.00000000000E+00  0.00000000000E+00  0.45593999997E+02  0.45594000000E+02  0.51100000000E-03 0. -1.
         11   -1    0    0    0    0 -0.00000000000E+00 -0.00000000000E+00 -0.45593999997E+02  0.45594000000E+02  0.51100000000E-03 0.  1.
    9900012    2    1    2    0    0 -0.62507024632E+00  0.56631701202E+00 -0.82558764396E+00  0.90007736161E+02  0.89999997479E+02 0.  0.
         12    1    1    2    0    0  0.62507024632E+00 -0.56631701202E+00  0.82558764396E+00  0.11802638386E+01  0.00000000000E+00 0. -1.
         11    1    3    3    0    0  0.37989837599E+02 -0.11337874524E+02  0.14343148387E+02  0.42160420603E+02  0.51100000000E-03 0. -1.
        -11    1    3    3    0    0 -0.75889659472E+01 -0.58346099730E+01 -0.42844470647E+01  0.10487686332E+02  0.51100000000E-03 0.  1.
        -12    1    3    3    0    0 -0.31025941898E+02  0.17738801509E+02 -0.10884288966E+02  0.37359629226E+02  0.00000000000E+00 0.  1.
</event>
<event>
 7    1  0.4400431E-015  0.9000772E+02  0.7816164E-02  0.1186339E+00
        -11   -1    0    0    0    0  0.00000000000E+00  0.00000000000E+00  0.45593999997E+02  0.45594000000E+02  0.51100000000E-03 0.  1.
         11   -1    0    0    0    0 -0.00000000000E+00 -0.00000000000E+00 -0.45593999997E+02  0.45594000000E+02  0.51100000000E-03 0. -1.
    9900012    2    1    2    0    0  0.80531785514E+00 -0.23923908939E-01  0.86253245819E+00  0.90007715525E+02  0.89999976570E+02 0.  0.
         12    1    1    2    0    0 -0.80531785514E+00  0.23923908939E-01 -0.86253245819E+00  0.11802844753E+01  0.00000000000E+00 0. -1.
         11    1    3    3    0    0 -0.15068428971E+01 -0.66316302412E+01  0.70506906115E+01  0.97959855825E+01  0.51100000000E-03 0. -1.
        -11    1    3    3    0    0 -0.15095375727E+02 -0.16914548649E+02  0.27466299429E+02  0.35614181570E+02  0.51100000000E-03 0.  1.
         12    1    3    3    0    0  0.17407536479E+02  0.23522254981E+02 -0.33654457582E+02  0.44597548372E+02  0.00000000000E+00 0. -1.
</event>
<event>
 7    1  0.4400431E-015  0.9000769E+02  0.7816164E-02  0.1186339E+00
        -11   -1    0    0    0    0  0.00000000000E+00  0.00000000000E+00  0.45593999997E+02  0.45594000000E+02  0.51100000000E-03 0. -1.
         11   -1    0    0    0    0 -0.00000000000E+00 -0.00000000000E+00 -0.45593999997E+02  0.45594000000E+02  0.51100000000E-03 0.  1.
    9900012    2    1    2    0    0  0.81934096870E+00 -0.54358693592E-01 -0.84785320270E+00  0.90007690912E+02  0.89999951632E+02 0.  0.
         12    1    1    2    0    0 -0.81934096870E+00  0.54358693592E-01  0.84785320270E+00  0.11803090883E+01  0.00000000000E+00 0. -1.
         11    1    3    3    0    0  0.12813683347E+02 -0.39350509708E+01  0.18196336991E+01  0.13527238230E+02  0.51100000000E-03 0. -1.
        -11    1    3    3    0    0 -0.31531831083E+02 -0.17135816672E+02 -0.21802075512E+02  0.41990749950E+02  0.51100000000E-03 0.  1.
         12    1    3    3    0    0  0.19537488704E+02  0.21016508949E+02  0.19134588611E+02  0.34489702732E+02  0.00000000000E+00 0. -1.
</event>
<event>
 7    1  0.4400431E-015  0.9000773E+02  0.7816164E-02  0.1186339E+00
        -11   -1    0    0    0    0  0.00000000000E+00  0.00000000000E+00  0.45593999997E+02  0.45594000000E+02  0.51100000000E-03 0.  1.
         11   -1    0    0    0    0 -0.00000000000E+00 -0.00000000000E+00 -0.45593999997E+02  0.45594000000E+02  0.51100000000E-03 0. -1.
    9900012    2    1    2    0    0 -0.41093461648E+00  0.11036745431E+01 -0.77853226948E-01  0.90007734826E+02  0.89999996126E+02 0.  0.
         12    1    1    2    0    0  0.41093461648E+00 -0.11036745431E+01  0.77853226948E-01  0.11802651740E+01  0.00000000000E+00 0. -1.
         11    1    3    3    0    0  0.17989136068E+02  0.28448557013E+02 -0.25547281577E+02  0.42256277745E+02  0.51100000000E-03 0. -1.
        -11    1    3    3    0    0 -0.60795718415E+01  0.35043629672E+01  0.29095781064E+01  0.75965385934E+01  0.51100000000E-03 0.  1.
        -12    1    3    3    0    0 -0.12320498843E+02 -0.30849245437E+02  0.22559850243E+02  0.40154918488E+02  0.00000000000E+00 0.  1.
</event>
<event>
 7    1  0.4400431E-015  0.9000756E+02  0.7816164E-02  0.1186339E+00
        -11   -1    0    0    0    0  0.00000000000E+00  0.00000000000E+00  0.45593999997E+02  0.45594000000E+02  0.51100000000E-03 0.  1.
         11   -1    0    0    0    0 -0.00000000000E+00 -0.00000000000E+00 -0.45593999997E+02  0.45594000000E+02  0.51100000000E-03 0. -1.
    9900012    2    1    2    0    0  0.36967124310E+00 -0.44168291626E+00  0.10303817454E+01  0.90007564840E+02  0.89999823895E+02 0.  0.
         12    1    1    2    0    0 -0.36967124310E+00  0.44168291626E+00 -0.10303817454E+01  0.11804351603E+01  0.00000000000E+00 0. -1.
         11    1    3    3    0    0  0.34944576904E+02 -0.85604412531E+01 -0.15012087950E+02  0.38984194160E+02  0.51100000000E-03 0. -1.
        -11    1    3    3    0    0  0.52611184659E+01 -0.22915520429E+01  0.66652482717E+01  0.87952324052E+01  0.51100000000E-03 0.  1.
        -12    1    3    3    0    0 -0.39836024127E+02  0.10410310380E+02  0.93772214234E+01  0.42228138274E+02  0.00000000000E+00 0.  1.
</event>
<event>
 7    1  0.4400431E-015  0.9000774E+02  0.7816164E-02  0.1186339E+00
        -11   -1    0    0    0    0  0.00000000000E+00  0.00000000000E+00  0.45593999997E+02  0.45594000000E+02  0.51100000000E-03 0. -1.
         11   -1    0    0    0    0 -0.00000000000E+00 -0.00000000000E+00 -0.45593999997E+02  0.45594000000E+02  0.51100000000E-03 0.  1.
    9900012    2    1    2    0    0  0.69443807992E+00  0.45988927924E+00  0.83621895223E+00  0.90007743870E+02  0.90000005289E+02 0.  0.
         12    1    1    2    0    0 -0.69443807992E+00 -0.45988927924E+00 -0.83621895223E+00  0.11802561299E+01  0.00000000000E+00 0. -1.
         11    1    3    3    0    0 -0.57832132309E+01  0.13497416079E+01 -0.79634230067E+01  0.99339550999E+01  0.51100000000E-03 0. -1.
        -11    1    3    3    0    0 -0.33686417953E+02  0.36361116059E+01 -0.10239831996E+02  0.35395624329E+02  0.51100000000E-03 0.  1.
         12    1    3    3    0    0  0.40164069264E+02 -0.45259639346E+01  0.19039473955E+02  0.44678164441E+02  0.00000000000E+00 0. -1.
</event>
<event>
 7    1  0.4400431E-015  0.9000767E+02  0.7816164E-02  0.1186339E+00
        -11   -1    0    0    0    0  0.00000000000E+00  0.00000000000E+00  0.45593999997E+02  0.45594000000E+02  0.51100000000E-03 0.  1.
         11   -1    0    0    0    0 -0.00000000000E+00 -0.00000000000E+00 -0.45593999997E+02  0.45594000000E+02  0.51100000000E-03 0. -1.
    9900012    2    1    2    0    0  0.23848452695E+00 -0.12744750919E+00  0.11489370356E+01  0.90007672059E+02  0.89999932530E+02 0.  0.
         12    1    1    2    0    0 -0.23848452695E+00  0.12744750919E+00 -0.11489370356E+01  0.11803279413E+01  0.00000000000E+00 0. -1.
         11    1    3    3    0    0  0.19932882891E+02 -0.56159375442E+01 -0.28112033288E+02  0.34916256825E+02  0.51100000000E-03 0. -1.
        -11    1    3    3    0    0  0.33434324633E+01 -0.33015020338E+01 -0.86634966988E+01  0.98556903171E+01  0.51100000000E-03 0.  1.
        -12    1    3    3    0    0 -0.23037830827E+02  0.87899920688E+01  0.37924467022E+02  0.45235724916E+02  0.00000000000E+00 0.  1.
</event>
<event>
 7    1  0.4400431E-015  0.9000769E+02  0.7816164E-02  0.1186339E+00
        -11   -1    0    0    0    0  0.00000000000E+00  0.00000000000E+00  0.45593999997E+02  0.45594000000E+02  0.51100000000E-03 0.  1.
         11   -1    0    0    0    0 -0.00000000000E+00 -0.00000000000E+00 -0.45593999997E+02  0.45594000000E+02  0.51100000000E-03 0. -1.
    9900012    2    1    2    0    0 -0.10966738759E+01  0.21368770327E+00  0.38049173882E+00  0.90007690724E+02  0.89999951441E+02 0.  0.
         12    1    1    2    0    0  0.10966738759E+01 -0.21368770327E+00 -0.38049173882E+00  0.11803092764E+01  0.00000000000E+00 0. -1.
         11    1    3    3    0    0 -0.11196676175E+02  0.10326476371E+02 -0.36943173427E+02  0.39959976661E+02  0.51100000000E-03 0. -1.
        -11    1    3    3    0    0  0.54226147082E+01 -0.14752888053E+01 -0.44289712192E+01  0.71552088477E+01  0.51100000000E-03 0.  1.
        -12    1    3    3    0    0  0.46773875913E+01 -0.86374998626E+01  0.41752636385E+02  0.42892505215E+02  0.00000000000E+00 0.  1.
</event>
<event>
 7    1  0.4400431E-015  0.9000769E+02  0.7816164E-02  0.1186339E+00
        -11   -1    0    0    0    0  0.00000000000E+00  0.00000000000E+00  0.45593999997E+02  0.45594000000E+02  0.51100000000E-03 0.  1.
         11   -1    0    0    0    0 -0.00000000000E+00 -0.00000000000E+00 -0.45593999997E+02  0.45594000000E+02  0.51100000000E-03 0. -1.
    9900012    2    1    2    0    0 -0.48419527808E+00  0.83019211268E+00  0.68518366643E+00  0.90007686199E+02  0.89999946857E+02 0.  0.
         12    1    1    2    0    0  0.48419527808E+00 -0.83019211268E+00 -0.68518366643E+00  0.11803138007E+01  0.00000000000E+00 0. -1.
         11    1    3    3    0    0  0.23532945202E+01  0.39315261452E+01 -0.45065524866E+01  0.64268116905E+01  0.51100000000E-03 0. -1.
        -11    1    3    3    0    0  0.14330466557E+02  0.36976588881E+02  0.50805018838E+01  0.39980518965E+02  0.51100000000E-03 0.  1.
        -12    1    3    3    0    0 -0.17167956355E+02 -0.40077922914E+02  0.11123426923E+00  0.43600355544E+02  0.00000000000E+00 0.  1.
</event>
<event>
 7    1  0.4400431E-015  0.9000773E+02  0.7816164E-02  0.1186339E+00
        -11   -1    0    0    0    0  0.00000000000E+00  0.00000000000E+00  0.45593999997E+02  0.45594000000E+02  0.51100000000E-03 0.  1.
         11   -1    0    0    0    0 -0.00000000000E+00 -0.00000000000E+00 -0.45593999997E+02  0.45594000000E+02  0.51100000000E-03 0. -1.
    9900012    2    1    2    0    0  0.10969159130E+01 -0.37964344292E+00  0.21376381297E+00  0.90007725188E+02  0.89999986361E+02 0.  0.
         12    1    1    2    0    0 -0.10969159130E+01  0.37964344292E+00 -0.21376381297E+00  0.11802748119E+01  0.00000000000E+00 0. -1.
         11    1    3    3    0    0 -0.19353153160E+01 -0.45285057814E+01  0.10210566586E+02  0.11336158091E+02  0.51100000000E-03 0. -1.
        -11    1    3    3    0    0 -0.17560957799E+02 -0.23735213251E+02  0.17591771481E+02  0.34368852337E+02  0.51100000000E-03 0.  1.
         12    1    3    3    0    0  0.20593189028E+02  0.27884075589E+02 -0.27588574254E+02  0.44302714761E+02  0.00000000000E+00 0. -1.
</event>
<event>
 7    1  0.4400431E-015  0.9000774E+02  0.7816164E-02  0.1186339E+00
        -11   -1    0    0    0    0  0.00000000000E+00  0.00000000000E+00  0.45593999997E+02  0.45594000000E+02  0.51100000000E-03 0. -1.
         11   -1    0    0    0    0 -0.00000000000E+00 -0.00000000000E+00 -0.45593999997E+02  0.45594000000E+02  0.51100000000E-03 0.  1.
    9900012    2    1    2    0    0 -0.11692378128E+01 -0.15006434167E+00  0.58195806408E-01  0.90007735995E+02  0.89999997310E+02 0.  0.
         12    1    1    2    0    0  0.11692378128E+01  0.15006434167E+00 -0.58195806408E-01  0.11802640049E+01  0.00000000000E+00 0. -1.
         11    1    3    3    0    0  0.27996750531E+02  0.19612012403E+02  0.17213470628E+02  0.38272086984E+02  0.51100000000E-03 0. -1.
        -11    1    3    3    0    0  0.51452536366E+01  0.22491944492E+01 -0.82986387301E+01  0.10019975833E+02  0.51100000000E-03 0.  1.
        -12    1    3    3    0    0 -0.34311241981E+02 -0.22011271194E+02 -0.88566360917E+01  0.41715673178E+02  0.00000000000E+00 0.  1.
</event>
<event>
 7    1  0.4400431E-015  0.9000772E+02  0.7816164E-02  0.1186339E+00
        -11   -1    0    0    0    0  0.00000000000E+00  0.00000000000E+00  0.45593999997E+02  0.45594000000E+02  0.51100000000E-03 0. -1.
         11   -1    0    0    0    0 -0.00000000000E+00 -0.00000000000E+00 -0.45593999997E+02  0.45594000000E+02  0.51100000000E-03 0.  1.
    9900012    2    1    2    0    0  0.37933686114E+00 -0.10831225690E+01 -0.27570853978E+00  0.90007717766E+02  0.89999978840E+02 0.  0.
         12    1    1    2    0    0 -0.37933686114E+00  0.10831225690E+01  0.27570853978E+00  0.11802822343E+01  0.00000000000E+00 0. -1.
         11    1    3    3    0    0 -0.65590097018E+01 -0.50082178406E+01  0.39652174003E+02  0.40501824127E+02  0.51100000000E-03 0. -1.
        -11    1    3    3    0    0 -0.39813921101E+01 -0.63195058466E+01 -0.68132550708E+00  0.75001227981E+01  0.51100000000E-03 0.  1.
        -12    1    3    3    0    0  0.10919738673E+02  0.10244601118E+02 -0.39246557036E+02  0.42005770840E+02  0.00000000000E+00 0.  1.
</event>
<event>
 7    1  0.4400431E-015  0.9000799E+02  0.7816164E-02  0.1186339E+00
        -11   -1    0    0    0    0  0.00000000000E+00  0.00000000000E+00  0.45593999997E+02  0.45594000000E+02  0.51100000000E-03 0. -1.
         11   -1    0    0    0    0 -0.00000000000E+00 -0.00000000000E+00 -0.45593999997E+02  0.45594000000E+02  0.51100000000E-03 0.  1.
    9900012    2    1    2    0    0 -0.65964037476E+00 -0.89400201897E+00  0.39757345502E+00  0.90007987421E+02  0.90000252055E+02 0.  0.
         12    1    1    2    0    0  0.65964037476E+00  0.89400201897E+00 -0.39757345502E+00  0.11800125788E+01  0.00000000000E+00 0. -1.
         11    1    3    3    0    0 -0.29675219354E+01  0.29499870637E+01 -0.13883409799E+02  0.14500264757E+02  0.51100000000E-03 0. -1.
        -11    1    3    3    0    0  0.99297388692E+01  0.70713980000E+01 -0.28342817497E+02  0.30853195744E+02  0.51100000000E-03 0.  1.
         12    1    3    3    0    0 -0.76218573085E+01 -0.10915387083E+02  0.42623800751E+02  0.44654526920E+02  0.00000000000E+00 0. -1.
</event>
<event>
 7    1  0.4400431E-015  0.9000772E+02  0.7816164E-02  0.1186339E+00
        -11   -1    0    0    0    0  0.00000000000E+00  0.00000000000E+00  0.45593999997E+02  0.45594000000E+02  0.51100000000E-03 0.  1.
         11   -1    0    0    0    0 -0.00000000000E+00 -0.00000000000E+00 -0.45593999997E+02  0.45594000000E+02  0.51100000000E-03 0. -1.
    9900012    2    1    2    0    0  0.99713553532E-01 -0.61186694688E+00  0.10043606793E+01  0.90007718539E+02  0.89999979624E+02 0.  0.
         12    1    1    2    0    0 -0.99713553532E-01  0.61186694688E+00 -0.10043606793E+01  0.11802814612E+01  0.00000000000E+00 0. -1.
         11    1    3    3    0    0 -0.28481000940E+01 -0.86303368907E+01  0.25647353228E+01  0.94431062967E+01  0.51100000000E-03 0. -1.
        -11    1    3    3    0    0  0.11445338636E+02 -0.33839286992E+02 -0.98509746975E+01  0.37055833865E+02  0.51100000000E-03 0.  1.
         12    1    3    3    0    0 -0.84975249881E+01  0.41857756936E+02  0.82906000540E+01  0.43508778378E+02  0.00000000000E+00 0. -1.
</event>
<event>
 7    1  0.4400431E-015  0.9000771E+02  0.7816164E-02  0.1186339E+00
        -11   -1    0    0    0    0  0.00000000000E+00  0.00000000000E+00  0.45593999997E+02  0.45594000000E+02  0.51100000000E-03 0.  1.
         11   -1    0    0    0    0 -0.00000000000E+00 -0.00000000000E+00 -0.45593999997E+02  0.45594000000E+02  0.51100000000E-03 0. -1.
    9900012    2    1    2    0    0  0.33276295881E+00  0.26674745313E+00  0.11005465484E+01  0.90007708470E+02  0.89999969422E+02 0.  0.
         12    1    1    2    0    0 -0.33276295881E+00 -0.26674745313E+00 -0.11005465484E+01  0.11802915300E+01  0.00000000000E+00 0. -1.
         11    1    3    3    0    0  0.41919817711E+02  0.48900495729E+01 -0.66879334342E+01  0.42730693367E+02  0.51100000000E-03 0. -1.
        -11    1    3    3    0    0 -0.62896252416E+01 -0.77262887494E+01 -0.27030611313E+01  0.10322861195E+02  0.51100000000E-03 0.  1.
        -12    1    3    3    0    0 -0.35297429511E+02  0.31029866296E+01  0.10491541114E+02  0.36954153908E+02  0.00000000000E+00 0.  1.
</event>
<event>
 7    1  0.4400431E-015  0.9000784E+02  0.7816164E-02  0.1186339E+00
        -11   -1    0    0    0    0  0.00000000000E+00  0.00000000000E+00  0.45593999997E+02  0.45594000000E+02  0.51100000000E-03 0.  1.
         11   -1    0    0    0    0 -0.00000000000E+00 -0.00000000000E+00 -0.45593999997E+02  0.45594000000E+02  0.51100000000E-03 0. -1.
    9900012    2    1    2    0    0  0.81893923421E+00  0.57395363613E-02  0.84975578578E+00  0.90007839288E+02  0.90000101966E+02 0.  0.
         12    1    1    2    0    0 -0.81893923421E+00 -0.57395363613E-02 -0.84975578578E+00  0.11801607124E+01  0.00000000000E+00 0. -1.
         11    1    3    3    0    0 -0.50802702379E+00  0.65963211073E+01  0.74994396487E+01  0.10000556930E+02  0.51100000000E-03 0. -1.
        -11    1    3    3    0    0 -0.29990456562E+02  0.18854744024E+02  0.92879605228E+01  0.36622330182E+02  0.51100000000E-03 0.  1.
         12    1    3    3    0    0  0.31317422820E+02 -0.25445325594E+02 -0.15937644386E+02  0.43384952176E+02  0.00000000000E+00 0. -1.
</event>
<event>
 7    1  0.4400431E-015  0.9000761E+02  0.7816164E-02  0.1186339E+00
        -11   -1    0    0    0    0  0.00000000000E+00  0.00000000000E+00  0.45593999997E+02  0.45594000000E+02  0.51100000000E-03 0.  1.
         11   -1    0    0    0    0 -0.00000000000E+00 -0.00000000000E+00 -0.45593999997E+02  0.45594000000E+02  0.51100000000E-03 0. -1.
    9900012    2    1    2    0    0  0.25729079088E+00  0.11379921627E+01  0.17912475205E+00  0.90007614305E+02  0.89999874013E+02 0.  0.
         12    1    1    2    0    0 -0.25729079088E+00 -0.11379921627E+01 -0.17912475205E+00  0.11803856955E+01  0.00000000000E+00 0. -1.
         11    1    3    3    0    0 -0.49178326624E+01  0.13871741226E+02 -0.98663413771E+01  0.17718774652E+02  0.51100000000E-03 0. -1.
        -11    1    3    3    0    0 -0.31713511212E+02 -0.55841203324E+01  0.12710926081E+02  0.34619313040E+02  0.51100000000E-03 0.  1.
         12    1    3    3    0    0  0.36888634665E+02 -0.71496287309E+01 -0.26654599520E+01  0.37669526612E+02  0.00000000000E+00 0. -1.
</event>
<event>
 7    1  0.4400431E-015  0.9000777E+02  0.7816164E-02  0.1186339E+00
        -11   -1    0    0    0    0  0.00000000000E+00  0.00000000000E+00  0.45593999997E+02  0.45594000000E+02  0.51100000000E-03 0.  1.
         11   -1    0    0    0    0 -0.00000000000E+00 -0.00000000000E+00 -0.45593999997E+02  0.45594000000E+02  0.51100000000E-03 0. -1.
    9900012    2    1    2    0    0  0.33973210813E+00 -0.10027349367E+01 -0.52159134878E+00  0.90007765789E+02  0.90000027497E+02 0.  0.
         12    1    1    2    0    0 -0.33973210813E+00  0.10027349367E+01  0.52159134878E+00  0.11802342114E+01  0.00000000000E+00 0. -1.
         11    1    3    3    0    0  0.73911325025E+01  0.24716721113E+02 -0.26218162339E+02  0.36782294368E+02  0.51100000000E-03 0. -1.
        -11    1    3    3    0    0  0.29855328701E+01 -0.53632499103E+00 -0.88249292482E+01  0.93316894243E+01  0.51100000000E-03 0.  1.
        -12    1    3    3    0    0 -0.10036933265E+02 -0.25183131059E+02  0.34521500238E+02  0.43893781997E+02  0.00000000000E+00 0.  1.
</event>
<event>
 7    1  0.4400431E-015  0.9000759E+02  0.7816164E-02  0.1186339E+00
        -11   -1    0    0    0    0  0.00000000000E+00  0.00000000000E+00  0.45593999997E+02  0.45594000000E+02  0.51100000000E-03 0.  1.
         11   -1    0    0    0    0 -0.00000000000E+00 -0.00000000000E+00 -0.45593999997E+02  0.45594000000E+02  0.51100000000E-03 0. -1.
    9900012    2    1    2    0    0  0.74849096714E-01  0.90874005776E+00  0.74963366635E+00  0.90007592649E+02  0.89999852072E+02 0.  0.
         12    1    1    2    0    0 -0.74849096714E-01 -0.90874005776E+00 -0.74963366635E+00  0.11804073507E+01  0.00000000000E+00 0. -1.
         11    1    3    3    0    0 -0.51019685443E+01  0.10259334478E+02 -0.20328618553E+02  0.23335311429E+02  0.51100000000E-03 0. -1.
        -11    1    3    3    0    0  0.51187148548E+00  0.25237962773E+02  0.19208722745E+02  0.31720526589E+02  0.51100000000E-03 0.  1.
         12    1    3    3    0    0  0.46649461555E+01 -0.34588557193E+02  0.18695294745E+01  0.34951754631E+02  0.00000000000E+00 0. -1.
</event>
<event>
 7    1  0.4400431E-015  0.9000772E+02  0.7816164E-02  0.1186339E+00
        -11   -1    0    0    0    0  0.00000000000E+00  0.00000000000E+00  0.45593999997E+02  0.45594000000E+02  0.51100000000E-03 0.  1.
         11   -1    0    0    0    0 -0.00000000000E+00 -0.00000000000E+00 -0.45593999997E+02  0.45594000000E+02  0.51100000000E-03 0. -1.
    9900012    2    1    2    0    0 -0.74415801763E+00 -0.91560534377E+00  0.31072028476E-01  0.90007716233E+02  0.89999977287E+02 0.  0.
         12    1    1    2    0    0  0.74415801763E+00  0.91560534377E+00 -0.31072028476E-01  0.11802837674E+01  0.00000000000E+00 0. -1.
         11    1    3    3    0    0  0.20217567065E+00 -0.18804663893E+02 -0.15158169819E+02  0.24154220577E+02  0.51100000000E-03 0. -1.
        -11    1    3    3    0    0 -0.16379555696E+02 -0.13912501884E+02  0.20980314803E+02  0.30033667159E+02  0.51100000000E-03 0.  1.
         12    1    3    3    0    0  0.15433222008E+02  0.31801560434E+02 -0.57910729554E+01  0.35819828497E+02  0.00000000000E+00 0. -1.
</event>
<event>
 7    1  0.4400431E-015  0.9000775E+02  0.7816164E-02  0.1186339E+00
        -11   -1    0    0    0    0  0.00000000000E+00  0.00000000000E+00  0.45593999997E+02  0.45594000000E+02  0.51100000000E-03 0.  1.
         11   -1    0    0    0    0 -0.00000000000E+00 -0.00000000000E+00 -0.45593999997E+02  0.45594000000E+02  0.51100000000E-03 0. -1.
    9900012    2    1    2    0    0 -0.78254021117E+00  0.21515337530E+00 -0.85692637764E+00  0.90007753003E+02  0.90000014543E+02 0.  0.
         12    1    1    2    0    0  0.78254021117E+00 -0.21515337530E+00  0.85692637764E+00  0.11802469969E+01  0.00000000000E+00 0. -1.
         11    1    3    3    0    0 -0.58888126571E+01 -0.40797794481E+01 -0.64335558429E+01  0.96287774873E+01  0.51100000000E-03 0. -1.
        -11    1    3    3    0    0  0.87623461706E+01 -0.31851101989E+02 -0.17455784643E+02  0.37362759883E+02  0.51100000000E-03 0.  1.
         12    1    3    3    0    0 -0.36560737247E+01  0.36146034812E+02  0.23032414108E+02  0.43016215633E+02  0.00000000000E+00 0. -1.
</event>
<event>
 7    1  0.4400431E-015  0.9000763E+02  0.7816164E-02  0.1186339E+00
        -11   -1    0    0    0    0  0.00000000000E+00  0.00000000000E+00  0.45593999997E+02  0.45594000000E+02  0.51100000000E-03 0.  1.
         11   -1    0    0    0    0 -0.00000000000E+00 -0.00000000000E+00 -0.45593999997E+02  0.45594000000E+02  0.51100000000E-03 0. -1.
    9900012    2    1    2    0    0 -0.13811702835E+00  0.11123372002E+01 -0.36999758560E+00  0.90007632018E+02  0.89999891960E+02 0.  0.
         12    1    1    2    0    0  0.13811702835E+00 -0.11123372002E+01  0.36999758560E+00  0.11803679824E+01  0.00000000000E+00 0. -1.
         11    1    3    3    0    0 -0.29354017789E+02  0.43380055651E+01 -0.21933413060E+02  0.36899204075E+02  0.51100000000E-03 0. -1.
        -11    1    3    3    0    0 -0.84345024953E+01 -0.38278739397E+01 -0.82683992597E+00  0.92993072735E+01  0.51100000000E-03 0.  1.
        -12    1    3    3    0    0  0.37650403256E+02  0.60220557478E+00  0.22390255401E+02  0.43809120669E+02  0.00000000000E+00 0.  1.
</event>
<event>
 7    1  0.4400431E-015  0.9000780E+02  0.7816164E-02  0.1186339E+00
        -11   -1    0    0    0    0  0.00000000000E+00  0.00000000000E+00  0.45593999997E+02  0.45594000000E+02  0.51100000000E-03 0.  1.
         11   -1    0    0    0    0 -0.00000000000E+00 -0.00000000000E+00 -0.45593999997E+02  0.45594000000E+02  0.51100000000E-03 0. -1.
    9900012    2    1    2    0    0 -0.99144202039E+00  0.26383558028E-01  0.63969305662E+00  0.90007804856E+02  0.90000067080E+02 0.  0.
         12    1    1    2    0    0  0.99144202039E+00 -0.26383558028E-01 -0.63969305662E+00  0.11801951443E+01  0.00000000000E+00 0. -1.
         11    1    3    3    0    0  0.15824751090E+02  0.29348351672E+02 -0.23913989520E+02  0.41032028806E+02  0.51100000000E-03 0. -1.
        -11    1    3    3    0    0 -0.68904383240E+00 -0.79840858185E+01 -0.47381110141E+01  0.93096779752E+01  0.51100000000E-03 0.  1.
        -12    1    3    3    0    0 -0.16127149278E+02 -0.21337882296E+02  0.29291793591E+02  0.39666098074E+02  0.00000000000E+00 0.  1.
</event>
<event>
 7    1  0.4400431E-015  0.9000780E+02  0.7816164E-02  0.1186339E+00
        -11   -1    0    0    0    0  0.00000000000E+00  0.00000000000E+00  0.45593999997E+02  0.45594000000E+02  0.51100000000E-03 0.  1.
         11   -1    0    0    0    0 -0.00000000000E+00 -0.00000000000E+00 -0.45593999997E+02  0.45594000000E+02  0.51100000000E-03 0. -1.
    9900012    2    1    2    0    0 -0.68651894954E+00  0.94991400692E+00  0.13869202019E+00  0.90007796473E+02  0.90000058586E+02 0.  0.
         12    1    1    2    0    0  0.68651894954E+00 -0.94991400692E+00 -0.13869202019E+00  0.11802035270E+01  0.00000000000E+00 0. -1.
         11    1    3    3    0    0 -0.11370007698E+02  0.93911585992E+01 -0.31921724267E+02  0.35163438616E+02  0.51100000000E-03 0. -1.
        -11    1    3    3    0    0 -0.12516617162E+02 -0.16647685026E+01 -0.23001831337E+01  0.12834640706E+02  0.51100000000E-03 0.  1.
        -12    1    3    3    0    0  0.23200105911E+02 -0.67764760896E+01  0.34360599421E+02  0.42009717150E+02  0.00000000000E+00 0.  1.
</event>
<event>
 7    1  0.4400431E-015  0.9000779E+02  0.7816164E-02  0.1186339E+00
        -11   -1    0    0    0    0  0.00000000000E+00  0.00000000000E+00  0.45593999997E+02  0.45594000000E+02  0.51100000000E-03 0. -1.
         11   -1    0    0    0    0 -0.00000000000E+00 -0.00000000000E+00 -0.45593999997E+02  0.45594000000E+02  0.51100000000E-03 0.  1.
    9900012    2    1    2    0    0  0.21794158601E+00 -0.79512262594E+00 -0.84449713399E+00  0.90007790724E+02  0.90000052762E+02 0.  0.
         12    1    1    2    0    0 -0.21794158601E+00  0.79512262594E+00  0.84449713399E+00  0.11802092757E+01  0.00000000000E+00 0. -1.
         11    1    3    3    0    0  0.42390237221E+01  0.66275244840E+01 -0.85938992812E+01  0.11651116171E+02  0.51100000000E-03 0. -1.
        -11    1    3    3    0    0 -0.15963459250E+01 -0.40973026338E+02  0.15502604527E+02  0.43836833314E+02  0.51100000000E-03 0.  1.
         12    1    3    3    0    0 -0.24247362110E+01  0.33550379228E+02 -0.77532023796E+01  0.34519841240E+02  0.00000000000E+00 0. -1.
</event>
<event>
 7    1  0.4400431E-015  0.9000788E+02  0.7816164E-02  0.1186339E+00
        -11   -1    0    0    0    0  0.00000000000E+00  0.00000000000E+00  0.45593999997E+02  0.45594000000E+02  0.51100000000E-03 0. -1.
         11   -1    0    0    0    0 -0.00000000000E+00 -0.00000000000E+00 -0.45593999997E+02  0.45594000000E+02  0.51100000000E-03 0.  1.
    9900012    2    1    2    0    0  0.11724997907E+01 -0.46868389124E-01  0.12545149086E+00  0.90007876921E+02  0.90000140096E+02 0.  0.
         12    1    1    2    0    0 -0.11724997907E+01  0.46868389124E-01 -0.12545149086E+00  0.11801230790E+01  0.00000000000E+00 0. -1.
         11    1    3    3    0    0  0.85796129638E+01  0.39201050556E+02  0.13602787628E+02  0.42371782531E+02  0.51100000000E-03 0. -1.
        -11    1    3    3    0    0 -0.66130143135E+01 -0.61979195459E+01  0.43751939340E+01  0.10064218163E+02  0.51100000000E-03 0.  1.
        -12    1    3    3    0    0 -0.79409885953E+00 -0.33049999399E+02 -0.17852530071E+02  0.37571876227E+02  0.00000000000E+00 0.  1.
</event>
<event>
 7    1  0.4400431E-015  0.9000770E+02  0.7816164E-02  0.1186339E+00
        -11   -1    0    0    0    0  0.00000000000E+00  0.00000000000E+00  0.45593999997E+02  0.45594000000E+02  0.51100000000E-03 0. -1.
         11   -1    0    0    0    0 -0.00000000000E+00 -0.00000000000E+00 -0.45593999997E+02  0.45594000000E+02  0.51100000000E-03 0.  1.
    9900012    2    1    2    0    0  0.42984901187E+00  0.63099166863E+00 -0.90009894056E+00  0.90007703952E+02  0.89999964844E+02 0.  0.
         12    1    1    2    0    0 -0.42984901187E+00 -0.63099166863E+00  0.90009894056E+00  0.11802960483E+01  0.00000000000E+00 0. -1.
         11    1    3    3    0    0 -0.56126584914E+01  0.19892891626E+01 -0.83920661810E+01  0.10290091436E+02  0.51100000000E-03 0. -1.
        -11    1    3    3    0    0  0.30423495811E+02 -0.70073571694E+01 -0.24081322128E+02  0.39428444397E+02  0.51100000000E-03 0.  1.
         12    1    3    3    0    0 -0.24380988308E+02  0.56490596754E+01  0.31573289369E+02  0.40289168118E+02  0.00000000000E+00 0. -1.
</event>
<event>
 7    1  0.4400431E-015  0.9000779E+02  0.7816164E-02  0.1186339E+00
        -11   -1    0    0    0    0  0.00000000000E+00  0.00000000000E+00  0.45593999997E+02  0.45594000000E+02  0.51100000000E-03 0.  1.
         11   -1    0    0    0    0 -0.00000000000E+00 -0.00000000000E+00 -0.45593999997E+02  0.45594000000E+02  0.51100000000E-03 0. -1.
    9900012    2    1    2    0    0  0.25734190182E+00  0.11505882634E+01 -0.53046169456E-01  0.90007791500E+02  0.90000053548E+02 0.  0.
         12    1    1    2    0    0 -0.25734190182E+00 -0.11505882634E+01  0.53046169456E-01  0.11802084996E+01  0.00000000000E+00 0. -1.
         11    1    3    3    0    0 -0.12469964937E+02  0.33708082930E+02  0.16980242452E+02  0.39750012759E+02  0.51100000000E-03 0. -1.
        -11    1    3    3    0    0 -0.70402078971E+01 -0.18515092205E+01  0.38028734678E+01  0.82130664494E+01  0.51100000000E-03 0.  1.
        -12    1    3    3    0    0  0.19767514736E+02 -0.30705985446E+02 -0.20836162089E+02  0.42044712292E+02  0.00000000000E+00 0.  1.
</event>
<event>
 7    1  0.4400431E-015  0.9000764E+02  0.7816164E-02  0.1186339E+00
        -11   -1    0    0    0    0  0.00000000000E+00  0.00000000000E+00  0.45593999997E+02  0.45594000000E+02  0.51100000000E-03 0.  1.
         11   -1    0    0    0    0 -0.00000000000E+00 -0.00000000000E+00 -0.45593999997E+02  0.45594000000E+02  0.51100000000E-03 0. -1.
    9900012    2    1    2    0    0  0.23537582060E+00  0.50291438104E+00 -0.10416001209E+01  0.90007637571E+02  0.89999897587E+02 0.  0.
         12    1    1    2    0    0 -0.23537582060E+00 -0.50291438104E+00  0.10416001209E+01  0.11803624289E+01  0.00000000000E+00 0. -1.
         11    1    3    3    0    0 -0.70799845865E+01  0.35043302567E+01 -0.59776781006E+01  0.99065204804E+01  0.51100000000E-03 0. -1.
        -11    1    3    3    0    0 -0.34265674043E+02 -0.13839128483E+02  0.13065312680E+01  0.36977897709E+02  0.51100000000E-03 0.  1.
         12    1    3    3    0    0  0.41581034450E+02  0.10837712608E+02  0.36295467117E+01  0.43123219381E+02  0.00000000000E+00 0. -1.
</event>
<event>
 7    1  0.4400431E-015  0.9000774E+02  0.7816164E-02  0.1186339E+00
        -11   -1    0    0    0    0  0.00000000000E+00  0.00000000000E+00  0.45593999997E+02  0.45594000000E+02  0.51100000000E-03 0.  1.
         11   -1    0    0    0    0 -0.00000000000E+00 -0.00000000000E+00 -0.45593999997E+02  0.45594000000E+02  0.51100000000E-03 0. -1.
    9900012    2    1    2    0    0  0.73430155867E+00 -0.53030765413E+00  0.75668856595E+00  0.90007744700E+02  0.90000006130E+02 0.  0.
         12    1    1    2    0    0 -0.73430155867E+00  0.53030765413E+00 -0.75668856595E+00  0.11802552999E+01  0.00000000000E+00 0. -1.
         11    1    3    3    0    0 -0.23189694626E+01 -0.77119556494E+01 -0.10859735433E+02  0.13519827412E+02  0.51100000000E-03 0. -1.
        -11    1    3    3    0    0 -0.35249425684E+02  0.67752383703E+01  0.12951623206E+02  0.38159800969E+02  0.51100000000E-03 0.  1.
         12    1    3    3    0    0  0.38302696705E+02  0.40640962488E+00 -0.13351992073E+01  0.38328116320E+02  0.00000000000E+00 0. -1.
</event>
<event>
 7    1  0.4400431E-015  0.9000786E+02  0.7816164E-02  0.1186339E+00
        -11   -1    0    0    0    0  0.00000000000E+00  0.00000000000E+00  0.45593999997E+02  0.45594000000E+02  0.51100000000E-03 0.  1.
         11   -1    0    0    0    0 -0.00000000000E+00 -0.00000000000E+00 -0.45593999997E+02  0.45594000000E+02  0.51100000000E-03 0. -1.
    9900012    2    1    2    0    0  0.89205778808E+00 -0.34520469961E+00  0.69123437841E+00  0.90007856641E+02  0.90000119549E+02 0.  0.
         12    1    1    2    0    0 -0.89205778808E+00  0.34520469961E+00 -0.69123437841E+00  0.11801433590E+01  0.00000000000E+00 0. -1.
         11    1    3    3    0    0  0.74436431130E+01 -0.37376888753E+02 -0.10786226850E+02  0.39607856867E+02  0.51100000000E-03 0. -1.
        -11    1    3    3    0    0  0.40015197321E+00 -0.80911069874E+00  0.11889529317E+02  0.11923744771E+02  0.51100000000E-03 0.  1.
        -12    1    3    3    0    0 -0.69517372981E+01  0.37840794752E+02 -0.41206808828E+00  0.38476255003E+02  0.00000000000E+00 0.  1.
</event>
<event>
 7    1  0.4400431E-015  0.9000765E+02  0.7816164E-02  0.1186339E+00
        -11   -1    0    0    0    0  0.00000000000E+00  0.00000000000E+00  0.45593999997E+02  0.45594000000E+02  0.51100000000E-03 0. -1.
         11   -1    0    0    0    0 -0.00000000000E+00 -0.00000000000E+00 -0.45593999997E+02  0.45594000000E+02  0.51100000000E-03 0.  1.
    9900012    2    1    2    0    0  0.26159456745E+00 -0.11137671189E+01 -0.29038128372E+00  0.90007648272E+02  0.89999908429E+02 0.  0.
         12    1    1    2    0    0 -0.26159456745E+00  0.11137671189E+01  0.29038128372E+00  0.11803517285E+01  0.00000000000E+00 0. -1.
         11    1    3    3    0    0 -0.14504312742E+02  0.36195488164E+02 -0.39906001279E+01  0.39197108837E+02  0.51100000000E-03 0. -1.
        -11    1    3    3    0    0 -0.75954971503E+01 -0.52791064634E+00  0.93701204147E-01  0.76143973358E+01  0.51100000000E-03 0.  1.
        -12    1    3    3    0    0  0.22361404459E+02 -0.36781344637E+02  0.36065176401E+01  0.43196142098E+02  0.00000000000E+00 0.  1.
</event>
<event>
 7    1  0.4400431E-015  0.9000752E+02  0.7816164E-02  0.1186339E+00
        -11   -1    0    0    0    0  0.00000000000E+00  0.00000000000E+00  0.45593999997E+02  0.45594000000E+02  0.51100000000E-03 0. -1.
         11   -1    0    0    0    0 -0.00000000000E+00 -0.00000000000E+00 -0.45593999997E+02  0.45594000000E+02  0.51100000000E-03 0.  1.
    9900012    2    1    2    0    0 -0.56159749880E+00  0.65204055601E+00 -0.80807995068E+00  0.90007516267E+02  0.89999774681E+02 0.  0.
         12    1    1    2    0    0  0.56159749880E+00 -0.65204055601E+00  0.80807995068E+00  0.11804837331E+01  0.00000000000E+00 0. -1.
         11    1    3    3    0    0 -0.23548395795E+02 -0.15378984983E+02  0.29016780019E+02  0.40410563552E+02  0.51100000000E-03 0. -1.
        -11    1    3    3    0    0 -0.96752802784E+00  0.87479028105E+01  0.20774950605E+01  0.90431134049E+01  0.51100000000E-03 0.  1.
        -12    1    3    3    0    0  0.23954326324E+02  0.72831227281E+01 -0.31902355031E+02  0.40553839310E+02  0.00000000000E+00 0.  1.
</event>
<event>
 7    1  0.4400431E-015  0.9000791E+02  0.7816164E-02  0.1186339E+00
        -11   -1    0    0    0    0  0.00000000000E+00  0.00000000000E+00  0.45593999997E+02  0.45594000000E+02  0.51100000000E-03 0.  1.
         11   -1    0    0    0    0 -0.00000000000E+00 -0.00000000000E+00 -0.45593999997E+02  0.45594000000E+02  0.51100000000E-03 0. -1.
    9900012    2    1    2    0    0 -0.13824570303E+00  0.90568403986E+00  0.74379416370E+00  0.90007913049E+02  0.90000176701E+02 0.  0.
         12    1    1    2    0    0  0.13824570303E+00 -0.90568403986E+00 -0.74379416370E+00  0.11800869512E+01  0.00000000000E+00 0. -1.
         11    1    3    3    0    0 -0.20502690970E+02 -0.28388874483E+02  0.67002649642E+01  0.35653640519E+02  0.51100000000E-03 0. -1.
        -11    1    3    3    0    0 -0.41919001658E+01 -0.77766779390E+01 -0.43773385681E+01  0.98595050569E+01  0.51100000000E-03 0.  1.
        -12    1    3    3    0    0  0.24556345433E+02  0.37071236462E+02 -0.15791322324E+01  0.44494767473E+02  0.00000000000E+00 0.  1.
</event>
<event>
 7    1  0.4400431E-015  0.9000760E+02  0.7816164E-02  0.1186339E+00
        -11   -1    0    0    0    0  0.00000000000E+00  0.00000000000E+00  0.45593999997E+02  0.45594000000E+02  0.51100000000E-03 0. -1.
         11   -1    0    0    0    0 -0.00000000000E+00 -0.00000000000E+00 -0.45593999997E+02  0.45594000000E+02  0.51100000000E-03 0.  1.
    9900012    2    1    2    0    0 -0.11448370831E+00  0.72051786451E+00 -0.92795062255E+00  0.90007599699E+02  0.89999859215E+02 0.  0.
         12    1    1    2    0    0  0.11448370831E+00 -0.72051786451E+00  0.92795062255E+00  0.11804003009E+01  0.00000000000E+00 0. -1.
         11    1    3    3    0    0  0.11387941786E+01 -0.87453345575E+01 -0.13609385496E+02  0.16217062081E+02  0.51100000000E-03 0. -1.
        -11    1    3    3    0    0 -0.34009081468E+02 -0.47192731218E+00 -0.63880263281E+01  0.34607040010E+02  0.51100000000E-03 0.  1.
         12    1    3    3    0    0  0.32755803581E+02  0.99377797342E+01  0.19069461201E+02  0.39183497608E+02  0.00000000000E+00 0. -1.
</event>
<event>
 7    1  0.4400431E-015  0.9000776E+02  0.7816164E-02  0.1186339E+00
        -11   -1    0    0    0    0  0.00000000000E+00  0.00000000000E+00  0.45593999997E+02  0.45594000000E+02  0.51100000000E-03 0.  1.
         11   -1    0    0    0    0 -0.00000000000E+00 -0.00000000000E+00 -0.45593999997E+02  0.45594000000E+02  0.51100000000E-03 0. -1.
    9900012    2    1    2    0    0 -0.42010207793E+00 -0.81885699717E+00  0.73888241037E+00  0.90007762840E+02  0.90000024509E+02 0.  0.
         12    1    1    2    0    0  0.42010207793E+00  0.81885699717E+00 -0.73888241037E+00  0.11802371601E+01  0.00000000000E+00 0. -1.
         11    1    3    3    0    0  0.78121313988E+01 -0.42654402593E+01  0.16423176398E+01  0.90509991210E+01  0.51100000000E-03 0. -1.
        -11    1    3    3    0    0  0.11542092734E+02 -0.82654165400E+01  0.35315158844E+02  0.38061758495E+02  0.51100000000E-03 0.  1.
         12    1    3    3    0    0 -0.19774326211E+02  0.11711999802E+02 -0.36218594074E+02  0.42895005224E+02  0.00000000000E+00 0. -1.
</event>
<event>
 7    1  0.4400431E-015  0.9000764E+02  0.7816164E-02  0.1186339E+00
        -11   -1    0    0    0    0  0.00000000000E+00  0.00000000000E+00  0.45593999997E+02  0.45594000000E+02  0.51100000000E-03 0.  1.
         11   -1    0    0    0    0 -0.00000000000E+00 -0.00000000000E+00 -0.45593999997E+02  0.45594000000E+02  0.51100000000E-03 0. -1.
    9900012    2    1    2    0    0  0.31056553343E+00  0.11314389355E+01  0.12905804795E+00  0.90007635228E+02  0.89999895213E+02 0.  0.
         12    1    1    2    0    0 -0.31056553343E+00 -0.11314389355E+01 -0.12905804795E+00  0.11803647721E+01  0.00000000000E+00 0. -1.
         11    1    3    3    0    0 -0.19544620001E+02  0.98839127028E+01 -0.78517727311E+01  0.23266590566E+02  0.51100000000E-03 0. -1.
        -11    1    3    3    0    0  0.19390834741E+02  0.20145725925E+02  0.21071880657E+02  0.35012553459E+02  0.51100000000E-03 0.  1.
         12    1    3    3    0    0  0.46435079360E+00 -0.28898199692E+02 -0.13091049878E+02  0.31728491203E+02  0.00000000000E+00 0. -1.
</event>
<event>
 7    1  0.4400431E-015  0.9000773E+02  0.7816164E-02  0.1186339E+00
        -11   -1    0    0    0    0  0.00000000000E+00  0.00000000000E+00  0.45593999997E+02  0.45594000000E+02  0.51100000000E-03 0.  1.
         11   -1    0    0    0    0 -0.00000000000E+00 -0.00000000000E+00 -0.45593999997E+02  0.45594000000E+02  0.51100000000E-03 0. -1.
    9900012    2    1    2    0    0 -0.18256853021E+00  0.10249385659E+01  0.55605374008E+00  0.90007734736E+02  0.89999996034E+02 0.  0.
         12    1    1    2    0    0  0.18256853021E+00 -0.10249385659E+01 -0.55605374008E+00  0.11802652642E+01  0.00000000000E+00 0. -1.
         11    1    3    3    0    0  0.11281014205E+02 -0.19065241426E+01 -0.89944759264E+00  0.11476285202E+02  0.51100000000E-03 0. -1.
        -11    1    3    3    0    0 -0.55455692231E+01 -0.16299644100E+02 -0.33803282793E+02  0.37935388013E+02  0.51100000000E-03 0.  1.
         12    1    3    3    0    0 -0.59180135122E+01  0.19231106809E+02  0.35258784126E+02  0.40596061521E+02  0.00000000000E+00 0. -1.
</event>
<event>
 7    1  0.4400431E-015  0.9000775E+02  0.7816164E-02  0.1186339E+00
        -11   -1    0    0    0    0  0.00000000000E+00  0.00000000000E+00  0.45593999997E+02  0.45594000000E+02  0.51100000000E-03 0. -1.
         11   -1    0    0    0    0 -0.00000000000E+00 -0.00000000000E+00 -0.45593999997E+02  0.45594000000E+02  0.51100000000E-03 0.  1.
    9900012    2    1    2    0    0  0.86095782948E+00  0.63761743909E+00 -0.49516402360E+00  0.90007749267E+02  0.90000010757E+02 0.  0.
         12    1    1    2    0    0 -0.86095782948E+00 -0.63761743909E+00  0.49516402360E+00  0.11802507331E+01  0.00000000000E+00 0. -1.
         11    1    3    3    0    0 -0.41491703656E+02  0.79100868946E+01  0.87689576154E+01  0.43139605526E+02  0.51100000000E-03 0. -1.
        -11    1    3    3    0    0  0.22513467363E+02 -0.79768092260E+01  0.21288227889E+01  0.23979524283E+02  0.51100000000E-03 0.  1.
        -12    1    3    3    0    0  0.19839194123E+02  0.70433977052E+00 -0.11392944428E+02  0.22888619458E+02  0.00000000000E+00 0.  1.
</event>
<event>
 7    1  0.4400431E-015  0.9000774E+02  0.7816164E-02  0.1186339E+00
        -11   -1    0    0    0    0  0.00000000000E+00  0.00000000000E+00  0.45593999997E+02  0.45594000000E+02  0.51100000000E-03 0.  1.
         11   -1    0    0    0    0 -0.00000000000E+00 -0.00000000000E+00 -0.45593999997E+02  0.45594000000E+02  0.51100000000E-03 0. -1.
    9900012    2    1    2    0    0 -0.10755371388E+01  0.46768583404E+00 -0.13232042046E+00  0.90007737796E+02  0.89999999135E+02 0.  0.
         12    1    1    2    0    0  0.10755371388E+01 -0.46768583404E+00  0.13232042046E+00  0.11802622039E+01  0.00000000000E+00 0. -1.
         11    1    3    3    0    0  0.37605341402E+02 -0.63959951338E+01  0.33555672297E+01  0.38292692350E+02  0.51100000000E-03 0. -1.
        -11    1    3    3    0    0  0.19182663154E+01 -0.25375428774E+01 -0.91236367939E+01  0.96622781020E+01  0.51100000000E-03 0.  1.
        -12    1    3    3    0    0 -0.40599144856E+02  0.94012238452E+01  0.56357491438E+01  0.42052767344E+02  0.00000000000E+00 0.  1.
</event>
<event>
 7    1  0.4400431E-015  0.9000780E+02  0.7816164E-02  0.1186339E+00
        -11   -1    0    0    0    0  0.00000000000E+00  0.00000000000E+00  0.45593999997E+02  0.45594000000E+02  0.51100000000E-03 0.  1.
         11   -1    0    0    0    0 -0.00000000000E+00 -0.00000000000E+00 -0.45593999997E+02  0.45594000000E+02  0.51100000000E-03 0. -1.
    9900012    2    1    2    0    0 -0.14178631430E+00 -0.10170242917E+01 -0.58175358047E+00  0.90007797053E+02  0.90000059174E+02 0.  0.
         12    1    1    2    0    0  0.14178631430E+00  0.10170242917E+01  0.58175358047E+00  0.11802029475E+01  0.00000000000E+00 0. -1.
         11    1    3    3    0    0 -0.75081387291E+01  0.24613735556E+01 -0.16916848270E+01  0.80803653859E+01  0.51100000000E-03 0. -1.
        -11    1    3    3    0    0 -0.14900540044E+02  0.28034484731E+02  0.21443573589E+02  0.38311685897E+02  0.51100000000E-03 0.  1.
         12    1    3    3    0    0  0.22266892459E+02 -0.31512882578E+02 -0.20333642342E+02  0.43615745770E+02  0.00000000000E+00 0. -1.
</event>
<event>
 7    1  0.4400431E-015  0.9000773E+02  0.7816164E-02  0.1186339E+00
        -11   -1    0    0    0    0  0.00000000000E+00  0.00000000000E+00  0.45593999997E+02  0.45594000000E+02  0.51100000000E-03 0. -1.
         11   -1    0    0    0    0 -0.00000000000E+00 -0.00000000000E+00 -0.45593999997E+02  0.45594000000E+02  0.51100000000E-03 0.  1.
    9900012    2    1    2    0    0  0.15719749047E+00  0.99187648628E+00 -0.62008001267E+00  0.90007733404E+02  0.89999994685E+02 0.  0.
         12    1    1    2    0    0 -0.15719749047E+00 -0.99187648628E+00  0.62008001267E+00  0.11802665958E+01  0.00000000000E+00 0. -1.
         11    1    3    3    0    0  0.71317892536E+01  0.33323375917E+01  0.61063905353E+01  0.99626752137E+01  0.51100000000E-03 0. -1.
        -11    1    3    3    0    0  0.38325793037E+01  0.32961748361E+02 -0.22294433708E+02  0.39977584891E+02  0.51100000000E-03 0.  1.
         12    1    3    3    0    0 -0.10807171067E+02 -0.35302209466E+02  0.15567963160E+02  0.40067473299E+02  0.00000000000E+00 0. -1.
</event>
<event>
 7    1  0.4400431E-015  0.9000776E+02  0.7816164E-02  0.1186339E+00
        -11   -1    0    0    0    0  0.00000000000E+00  0.00000000000E+00  0.45593999997E+02  0.45594000000E+02  0.51100000000E-03 0. -1.
         11   -1    0    0    0    0 -0.00000000000E+00 -0.00000000000E+00 -0.45593999997E+02  0.45594000000E+02  0.51100000000E-03 0.  1.
    9900012    2    1    2    0    0  0.79888130320E+00 -0.42545905270E+00 -0.75745054679E+00  0.90007763552E+02  0.90000025231E+02 0.  0.
         12    1    1    2    0    0 -0.79888130320E+00  0.42545905270E+00  0.75745054679E+00  0.11802364479E+01  0.00000000000E+00 0. -1.
         11    1    3    3    0    0  0.34847754858E+02  0.52825482415E+00  0.13290042050E+02  0.37299735787E+02  0.51100000000E-03 0. -1.
        -11    1    3    3    0    0  0.22497587051E+01 -0.75134762344E+01  0.67627453328E+01  0.10356083432E+02  0.51100000000E-03 0.  1.
        -12    1    3    3    0    0 -0.36298632260E+02  0.65597623576E+01 -0.20810237930E+02  0.42351944333E+02  0.00000000000E+00 0.  1.
</event>
<event>
 7    1  0.4400431E-015  0.9000772E+02  0.7816164E-02  0.1186339E+00
        -11   -1    0    0    0    0  0.00000000000E+00  0.00000000000E+00  0.45593999997E+02  0.45594000000E+02  0.51100000000E-03 0.  1.
         11   -1    0    0    0    0 -0.00000000000E+00 -0.00000000000E+00 -0.45593999997E+02  0.45594000000E+02  0.51100000000E-03 0. -1.
    9900012    2    1    2    0    0  0.11141693366E+01 -0.27403108024E+00  0.27676849548E+00  0.90007717346E+02  0.89999978415E+02 0.  0.
         12    1    1    2    0    0 -0.11141693366E+01  0.27403108024E+00 -0.27676849548E+00  0.11802826541E+01  0.00000000000E+00 0. -1.
         11    1    3    3    0    0 -0.43063243923E+02  0.44470045353E+01 -0.58691309977E+01  0.43688276750E+02  0.51100000000E-03 0. -1.
        -11    1    3    3    0    0  0.86151388813E+01  0.37266082759E+00 -0.32011090895E+01  0.91981842611E+01  0.51100000000E-03 0.  1.
        -12    1    3    3    0    0  0.35562274378E+02 -0.50936964432E+01  0.93470085827E+01  0.37121256334E+02  0.00000000000E+00 0.  1.
</event>
<event>
 7    1  0.4400431E-015  0.9000656E+02  0.7816164E-02  0.1186341E+00
        -11   -1    0    0    0    0  0.00000000000E+00  0.00000000000E+00  0.45593999997E+02  0.45594000000E+02  0.51100000000E-03 0.  1.
         11   -1    0    0    0    0 -0.00000000000E+00 -0.00000000000E+00 -0.45593999997E+02  0.45594000000E+02  0.51100000000E-03 0. -1.
    9900012    2    1    2    0    0  0.45212628584E+00  0.10883129045E+01  0.83450700690E-01  0.90006557163E+02  0.89998802910E+02 0.  0.
         12    1    1    2    0    0 -0.45212628584E+00 -0.10883129045E+01 -0.83450700690E-01  0.11814428365E+01  0.00000000000E+00 0. -1.
         11    1    3    3    0    0 -0.14266975931E+02  0.19724574634E+02 -0.28711424330E+02  0.37642414030E+02  0.51100000000E-03 0. -1.
        -11    1    3    3    0    0  0.25172962343E+01 -0.68122378182E+00 -0.86757568838E+01  0.90592275575E+01  0.51100000000E-03 0.  1.
        -12    1    3    3    0    0  0.12201805983E+02 -0.17955037948E+02  0.37470631914E+02  0.43304915576E+02  0.00000000000E+00 0.  1.
</event>
<event>
 7    1  0.4400431E-015  0.9000779E+02  0.7816164E-02  0.1186339E+00
        -11   -1    0    0    0    0  0.00000000000E+00  0.00000000000E+00  0.45593999997E+02  0.45594000000E+02  0.51100000000E-03 0.  1.
         11   -1    0    0    0    0 -0.00000000000E+00 -0.00000000000E+00 -0.45593999997E+02  0.45594000000E+02  0.51100000000E-03 0. -1.
    9900012    2    1    2    0    0 -0.14899300551E+00 -0.10603758537E+01  0.49628157493E+00  0.90007791854E+02  0.90000053906E+02 0.  0.
         12    1    1    2    0    0  0.14899300551E+00  0.10603758537E+01 -0.49628157493E+00  0.11802081462E+01  0.00000000000E+00 0. -1.
         11    1    3    3    0    0  0.16276823587E+02 -0.16806260471E+01 -0.31865540718E+02  0.35821392707E+02  0.51100000000E-03 0. -1.
        -11    1    3    3    0    0  0.10949115989E+02  0.21628442725E+01 -0.76230799205E+00  0.11186695224E+02  0.51100000000E-03 0.  1.
        -12    1    3    3    0    0 -0.27374932582E+02 -0.15425940792E+01  0.33124130285E+02  0.42999703923E+02  0.00000000000E+00 0.  1.
</event>
<event>
 7    1  0.4400431E-015  0.9000794E+02  0.7816164E-02  0.1186339E+00
        -11   -1    0    0    0    0  0.00000000000E+00  0.00000000000E+00  0.45593999997E+02  0.45594000000E+02  0.51100000000E-03 0.  1.
         11   -1    0    0    0    0 -0.00000000000E+00 -0.00000000000E+00 -0.45593999997E+02  0.45594000000E+02  0.51100000000E-03 0. -1.
    9900012    2    1    2    0    0  0.10679153570E+01 -0.29401998532E+00  0.40699759315E+00  0.90007941526E+02  0.90000205554E+02 0.  0.
         12    1    1    2    0    0 -0.10679153570E+01  0.29401998532E+00 -0.40699759315E+00  0.11800584741E+01  0.00000000000E+00 0. -1.
         11    1    3    3    0    0  0.12649218502E+02 -0.60568476637E+01  0.30100569055E+01  0.14343938621E+02  0.51100000000E-03 0. -1.
        -11    1    3    3    0    0  0.26943893909E+02 -0.77580532790E+01  0.14299788707E+02  0.31474509797E+02  0.51100000000E-03 0.  1.
         12    1    3    3    0    0 -0.38525197054E+02  0.13520880957E+02 -0.16902848019E+02  0.44189493107E+02  0.00000000000E+00 0. -1.
</event>
<event>
 7    1  0.4400431E-015  0.9000774E+02  0.7816164E-02  0.1186339E+00
        -11   -1    0    0    0    0  0.00000000000E+00  0.00000000000E+00  0.45593999997E+02  0.45594000000E+02  0.51100000000E-03 0.  1.
         11   -1    0    0    0    0 -0.00000000000E+00 -0.00000000000E+00 -0.45593999997E+02  0.45594000000E+02  0.51100000000E-03 0. -1.
    9900012    2    1    2    0    0 -0.24523171894E-01 -0.11626695953E+01 -0.20151415137E+00  0.90007741585E+02  0.90000002974E+02 0.  0.
         12    1    1    2    0    0  0.24523171894E-01  0.11626695953E+01  0.20151415137E+00  0.11802584153E+01  0.00000000000E+00 0. -1.
         11    1    3    3    0    0  0.96465602749E+01  0.19050208591E+01 -0.11980762788E+01  0.99055851236E+01  0.51100000000E-03 0. -1.
        -11    1    3    3    0    0  0.17515189930E+02  0.19703555393E+02  0.25751954401E+02  0.36853427645E+02  0.51100000000E-03 0.  1.
         12    1    3    3    0    0 -0.27186273377E+02 -0.22771245848E+02 -0.24755392274E+02  0.43248728816E+02  0.00000000000E+00 0. -1.
</event>
<event>
 7    1  0.4400431E-015  0.9000785E+02  0.7816164E-02  0.1186339E+00
        -11   -1    0    0    0    0  0.00000000000E+00  0.00000000000E+00  0.45593999997E+02  0.45594000000E+02  0.51100000000E-03 0.  1.
         11   -1    0    0    0    0 -0.00000000000E+00 -0.00000000000E+00 -0.45593999997E+02  0.45594000000E+02  0.51100000000E-03 0. -1.
    9900012    2    1    2    0    0  0.66802034889E+00 -0.70464851970E+00  0.67080892911E+00  0.90007845204E+02  0.90000107961E+02 0.  0.
         12    1    1    2    0    0 -0.66802034889E+00  0.70464851970E+00 -0.67080892911E+00  0.11801547959E+01  0.00000000000E+00 0. -1.
         11    1    3    3    0    0 -0.28275298274E+01 -0.13984068797E+00  0.64047146366E+01  0.70024888561E+01  0.51100000000E-03 0. -1.
        -11    1    3    3    0    0 -0.26168750165E+02  0.30245825614E+02 -0.14501735190E+01  0.40021449946E+02  0.51100000000E-03 0.  1.
         12    1    3    3    0    0  0.29664300341E+02 -0.30810633446E+02 -0.42837321885E+01  0.42983906402E+02  0.00000000000E+00 0. -1.
</event>
<event>
 7    1  0.4400431E-015  0.9000773E+02  0.7816164E-02  0.1186339E+00
        -11   -1    0    0    0    0  0.00000000000E+00  0.00000000000E+00  0.45593999997E+02  0.45594000000E+02  0.51100000000E-03 0.  1.
         11   -1    0    0    0    0 -0.00000000000E+00 -0.00000000000E+00 -0.45593999997E+02  0.45594000000E+02  0.51100000000E-03 0. -1.
    9900012    2    1    2    0    0 -0.28752841849E+00  0.46981221834E+00  0.10438629280E+01  0.90007726335E+02  0.89999987523E+02 0.  0.
         12    1    1    2    0    0  0.28752841849E+00 -0.46981221834E+00 -0.10438629280E+01  0.11802736650E+01  0.00000000000E+00 0. -1.
         11    1    3    3    0    0 -0.31869309005E+02 -0.56747539866E+01  0.12324186252E+02  0.34637281306E+02  0.51100000000E-03 0. -1.
        -11    1    3    3    0    0  0.11066481189E+02 -0.78690189143E+01  0.14293613360E+02  0.19715370849E+02  0.51100000000E-03 0.  1.
         12    1    3    3    0    0  0.20515299397E+02  0.14013585119E+02 -0.25573936684E+02  0.35655074180E+02  0.00000000000E+00 0. -1.
</event>
<event>
 7    1  0.4400431E-015  0.9000773E+02  0.7816164E-02  0.1186339E+00
        -11   -1    0    0    0    0  0.00000000000E+00  0.00000000000E+00  0.45593999997E+02  0.45594000000E+02  0.51100000000E-03 0. -1.
         11   -1    0    0    0    0 -0.00000000000E+00 -0.00000000000E+00 -0.45593999997E+02  0.45594000000E+02  0.51100000000E-03 0.  1.
    9900012    2    1    2    0    0 -0.53667513281E+00 -0.62499667471E-01 -0.10493401436E+01  0.90007728360E+02  0.89999989575E+02 0.  0.
         12    1    1    2    0    0  0.53667513281E+00  0.62499667471E-01  0.10493401436E+01  0.11802716397E+01  0.00000000000E+00 0. -1.
         11    1    3    3    0    0 -0.35745776080E+02  0.14551139227E+01 -0.74449029852E+01  0.36541817755E+02  0.51100000000E-03 0. -1.
        -11    1    3    3    0    0 -0.18718625436E+01  0.11828870793E+02 -0.41413283248E+01  0.12671884397E+02  0.51100000000E-03 0.  1.
        -12    1    3    3    0    0  0.37080963491E+02 -0.13346484383E+02  0.10536891166E+02  0.40794026208E+02  0.00000000000E+00 0.  1.
</event>
<event>
 7    1  0.4400431E-015  0.9000788E+02  0.7816164E-02  0.1186339E+00
        -11   -1    0    0    0    0  0.00000000000E+00  0.00000000000E+00  0.45593999997E+02  0.45594000000E+02  0.51100000000E-03 0. -1.
         11   -1    0    0    0    0 -0.00000000000E+00 -0.00000000000E+00 -0.45593999997E+02  0.45594000000E+02  0.51100000000E-03 0.  1.
    9900012    2    1    2    0    0 -0.14941725160E+00 -0.11240751201E+01  0.32680700185E+00  0.90007884240E+02  0.90000147512E+02 0.  0.
         12    1    1    2    0    0  0.14941725160E+00  0.11240751201E+01 -0.32680700185E+00  0.11801157601E+01  0.00000000000E+00 0. -1.
         11    1    3    3    0    0 -0.26094028826E+01  0.39183067342E+01 -0.68790093342E+01  0.83356391926E+01  0.51100000000E-03 0. -1.
        -11    1    3    3    0    0 -0.25015474303E+02 -0.75397020833E+01 -0.27103834753E+02  0.37646233818E+02  0.51100000000E-03 0.  1.
         12    1    3    3    0    0  0.27475459934E+02  0.24973202290E+01  0.34309651089E+02  0.44026011229E+02  0.00000000000E+00 0. -1.
</event>
<event>
 7    1  0.4400431E-015  0.9000733E+02  0.7816164E-02  0.1186340E+00
        -11   -1    0    0    0    0  0.00000000000E+00  0.00000000000E+00  0.45593999997E+02  0.45594000000E+02  0.51100000000E-03 0. -1.
         11   -1    0    0    0    0 -0.00000000000E+00 -0.00000000000E+00 -0.45593999997E+02  0.45594000000E+02  0.51100000000E-03 0.  1.
    9900012    2    1    2    0    0  0.91397873005E+00 -0.10944679603E+00 -0.73935547226E+00  0.90007329752E+02  0.89999585704E+02 0.  0.
         12    1    1    2    0    0 -0.91397873005E+00  0.10944679603E+00  0.73935547226E+00  0.11806702480E+01  0.00000000000E+00 0. -1.
         11    1    3    3    0    0  0.66702274822E+01 -0.10670393145E+02  0.28004292284E+01  0.12891533216E+02  0.51100000000E-03 0. -1.
        -11    1    3    3    0    0 -0.39312333265E+02  0.12951542509E+02 -0.10633441495E+02  0.42734904684E+02  0.51100000000E-03 0.  1.
         12    1    3    3    0    0  0.33556084513E+02 -0.23905961600E+01  0.70936567946E+01  0.34380891852E+02  0.00000000000E+00 0. -1.
</event>
<event>
 7    1  0.4400431E-015  0.9000782E+02  0.7816164E-02  0.1186339E+00
        -11   -1    0    0    0    0  0.00000000000E+00  0.00000000000E+00  0.45593999997E+02  0.45594000000E+02  0.51100000000E-03 0.  1.
         11   -1    0    0    0    0 -0.00000000000E+00 -0.00000000000E+00 -0.45593999997E+02  0.45594000000E+02  0.51100000000E-03 0. -1.
    9900012    2    1    2    0    0  0.12291619004E-02  0.17306882667E+00  0.11674250834E+01  0.90007815415E+02  0.90000077778E+02 0.  0.
         12    1    1    2    0    0 -0.12291619004E-02 -0.17306882667E+00 -0.11674250834E+01  0.11801845851E+01  0.00000000000E+00 0. -1.
         11    1    3    3    0    0  0.26027117081E+02 -0.49993880341E+01 -0.23899796586E+02  0.35687602629E+02  0.51100000000E-03 0. -1.
        -11    1    3    3    0    0  0.75829136888E+01 -0.66654437470E+01 -0.10365099653E+01  0.10149042986E+02  0.51100000000E-03 0.  1.
        -12    1    3    3    0    0 -0.33608801608E+02  0.11837900608E+02  0.26103731634E+02  0.44171169801E+02  0.00000000000E+00 0.  1.
</event>
<event>
 7    1  0.7261058E-015  0.9000770E+02  0.7816164E-02  0.1186339E+00
        -11   -1    0    0    0    0  0.00000000000E+00  0.00000000000E+00  0.45593999997E+02  0.45594000000E+02  0.51100000000E-03 0. -1.
         11   -1    0    0    0    0 -0.00000000000E+00 -0.00000000000E+00 -0.45593999997E+02  0.45594000000E+02  0.51100000000E-03 0.  1.
    9900012    2    1    2    0    0  0.11153392446E+00 -0.10892246425E+01 -0.44074025143E+00  0.90007702534E+02  0.89999963408E+02 0.  0.
         12    1    1    2    0    0 -0.11153392446E+00  0.10892246425E+01  0.44074025143E+00  0.11802974656E+01  0.00000000000E+00 0. -1.
         11    1    3    3    0    0 -0.35773779337E+02  0.65620071158E+01 -0.98742315653E+00  0.36384038124E+02  0.51100000000E-03 0. -1.
        -11    1    3    3    0    0 -0.80565619925E+01 -0.35681978361E+01  0.32942941978E+01  0.94070506249E+01  0.51100000000E-03 0.  1.
        -12    1    3    3    0    0  0.43941875254E+02 -0.40830339221E+01 -0.27476112927E+01  0.44216613786E+02  0.00000000000E+00 0.  1.
</event>
<event>
 7    1  0.4400431E-015  0.9000751E+02  0.7816164E-02  0.1186339E+00
        -11   -1    0    0    0    0  0.00000000000E+00  0.00000000000E+00  0.45593999997E+02  0.45594000000E+02  0.51100000000E-03 0.  1.
         11   -1    0    0    0    0 -0.00000000000E+00 -0.00000000000E+00 -0.45593999997E+02  0.45594000000E+02  0.51100000000E-03 0. -1.
    9900012    2    1    2    0    0  0.98203351865E+00  0.38916030457E+00 -0.52698258561E+00  0.90007514413E+02  0.89999772803E+02 0.  0.
         12    1    1    2    0    0 -0.98203351865E+00 -0.38916030457E+00  0.52698258561E+00  0.11804855865E+01  0.00000000000E+00 0. -1.
         11    1    3    3    0    0  0.41783891455E+02  0.54320665968E+01  0.14891768864E+02  0.44689660021E+02  0.51100000000E-03 0. -1.
        -11    1    3    3    0    0 -0.73710996688E+01  0.31741908472E+01 -0.13977999411E+01  0.81463146759E+01  0.51100000000E-03 0.  1.
        -12    1    3    3    0    0 -0.33430758267E+02 -0.82170971394E+01 -0.14020951508E+02  0.37171539717E+02  0.00000000000E+00 0.  1.
</event>
<event>
 7    1  0.4400431E-015  0.9000771E+02  0.7816164E-02  0.1186339E+00
        -11   -1    0    0    0    0  0.00000000000E+00  0.00000000000E+00  0.45593999997E+02  0.45594000000E+02  0.51100000000E-03 0.  1.
         11   -1    0    0    0    0 -0.00000000000E+00 -0.00000000000E+00 -0.45593999997E+02  0.45594000000E+02  0.51100000000E-03 0. -1.
    9900012    2    1    2    0    0  0.57161652488E-01 -0.11732216745E+01 -0.11557616471E+00  0.90007714271E+02  0.89999975299E+02 0.  0.
         12    1    1    2    0    0 -0.57161652488E-01  0.11732216745E+01  0.11557616471E+00  0.11802857289E+01  0.00000000000E+00 0. -1.
         11    1    3    3    0    0  0.37609925632E+01  0.50260031396E+01  0.45251537232E+01  0.77383970627E+01  0.51100000000E-03 0. -1.
        -11    1    3    3    0    0  0.34785274357E+02 -0.92819891650E+01  0.14936113059E+02  0.38977661660E+02  0.51100000000E-03 0.  1.
         12    1    3    3    0    0 -0.38489105267E+02  0.30827643509E+01 -0.19576842947E+02  0.43291655548E+02  0.00000000000E+00 0. -1.
</event>
<event>
 7    1  0.4400431E-015  0.9000772E+02  0.7816164E-02  0.1186339E+00
        -11   -1    0    0    0    0  0.00000000000E+00  0.00000000000E+00  0.45593999997E+02  0.45594000000E+02  0.51100000000E-03 0. -1.
         11   -1    0    0    0    0 -0.00000000000E+00 -0.00000000000E+00 -0.45593999997E+02  0.45594000000E+02  0.51100000000E-03 0.  1.
    9900012    2    1    2    0    0  0.49454144739E+00  0.96515807245E+00 -0.46580085582E+00  0.90007715380E+02  0.89999976423E+02 0.  0.
         12    1    1    2    0    0 -0.49454144739E+00 -0.96515807245E+00  0.46580085582E+00  0.11802846205E+01  0.00000000000E+00 0. -1.
         11    1    3    3    0    0 -0.59617993857E+01 -0.47737113996E+01  0.25681557410E+01  0.80577165881E+01  0.51100000000E-03 0. -1.
        -11    1    3    3    0    0 -0.31312447176E+02  0.43530046954E+00  0.20224232660E+02  0.37278390813E+02  0.51100000000E-03 0.  1.
         12    1    3    3    0    0  0.37768788009E+02  0.53035690025E+01 -0.23258189257E+02  0.44671607978E+02  0.00000000000E+00 0. -1.
</event>
<event>
 7    1  0.4400431E-015  0.9000768E+02  0.7816164E-02  0.1186339E+00
        -11   -1    0    0    0    0  0.00000000000E+00  0.00000000000E+00  0.45593999997E+02  0.45594000000E+02  0.51100000000E-03 0.  1.
         11   -1    0    0    0    0 -0.00000000000E+00 -0.00000000000E+00 -0.45593999997E+02  0.45594000000E+02  0.51100000000E-03 0. -1.
    9900012    2    1    2    0    0  0.90235775075E+00 -0.72869769998E+00 -0.21887297321E+00  0.90007680032E+02  0.89999940608E+02 0.  0.
         12    1    1    2    0    0 -0.90235775075E+00  0.72869769998E+00  0.21887297321E+00  0.11803199679E+01  0.00000000000E+00 0. -1.
         11    1    3    3    0    0  0.99888977654E+01 -0.16260803166E+01  0.53573936074E+00  0.10134556364E+02  0.51100000000E-03 0. -1.
        -11    1    3    3    0    0 -0.20098463509E+02 -0.72670991307E+01  0.35319434655E+02  0.41282216871E+02  0.51100000000E-03 0.  1.
         12    1    3    3    0    0  0.11011923495E+02  0.81644817474E+01 -0.36074046989E+02  0.38590906797E+02  0.00000000000E+00 0. -1.
</event>
<event>
 7    1  0.4400431E-015  0.9000802E+02  0.7816164E-02  0.1186338E+00
        -11   -1    0    0    0    0  0.00000000000E+00  0.00000000000E+00  0.45593999997E+02  0.45594000000E+02  0.51100000000E-03 0. -1.
         11   -1    0    0    0    0 -0.00000000000E+00 -0.00000000000E+00 -0.45593999997E+02  0.45594000000E+02  0.51100000000E-03 0.  1.
    9900012    2    1    2    0    0 -0.46354555096E-01  0.67364947088E+00 -0.96768168259E+00  0.90008016867E+02  0.90000281890E+02 0.  0.
         12    1    1    2    0    0  0.46354555096E-01 -0.67364947088E+00  0.96768168259E+00  0.11799831326E+01  0.00000000000E+00 0. -1.
         11    1    3    3    0    0  0.88375075402E+01 -0.35265196503E+01 -0.11108838437E+01  0.95797674055E+01  0.51100000000E-03 0. -1.
        -11    1    3    3    0    0  0.34256983833E+02  0.11700039144E+02 -0.41186358622E+01  0.36433432709E+02  0.51100000000E-03 0.  1.
         12    1    3    3    0    0 -0.43140845929E+02 -0.74998700223E+01  0.42618380232E+01  0.43994816753E+02  0.00000000000E+00 0. -1.
</event>
<event>
 7    1  0.4400431E-015  0.9000774E+02  0.7816164E-02  0.1186339E+00
        -11   -1    0    0    0    0  0.00000000000E+00  0.00000000000E+00  0.45593999997E+02  0.45594000000E+02  0.51100000000E-03 0.  1.
         11   -1    0    0    0    0 -0.00000000000E+00 -0.00000000000E+00 -0.45593999997E+02  0.45594000000E+02  0.51100000000E-03 0. -1.
    9900012    2    1    2    0    0 -0.11583113114E+01  0.20115952713E+00 -0.10417583698E+00  0.90007744581E+02  0.90000006009E+02 0.  0.
         12    1    1    2    0    0  0.11583113114E+01 -0.20115952713E+00  0.10417583698E+00  0.11802554191E+01  0.00000000000E+00 0. -1.
         11    1    3    3    0    0  0.54523989801E+01 -0.19915956441E+01  0.73512374459E+01  0.93667390320E+01  0.51100000000E-03 0. -1.
        -11    1    3    3    0    0 -0.21256937417E+01 -0.27451472763E+02  0.24476230375E+02  0.36840029647E+02  0.51100000000E-03 0.  1.
         12    1    3    3    0    0 -0.44850165497E+01  0.29644227935E+02 -0.31931643658E+02  0.43800975902E+02  0.00000000000E+00 0. -1.
</event>
<event>
 7    1  0.4400431E-015  0.9000772E+02  0.7816164E-02  0.1186339E+00
        -11   -1    0    0    0    0  0.00000000000E+00  0.00000000000E+00  0.45593999997E+02  0.45594000000E+02  0.51100000000E-03 0.  1.
         11   -1    0    0    0    0 -0.00000000000E+00 -0.00000000000E+00 -0.45593999997E+02  0.45594000000E+02  0.51100000000E-03 0. -1.
    9900012    2    1    2    0    0  0.57010860788E+00 -0.92309475433E+00 -0.46467667661E+00  0.90007723692E+02  0.89999984844E+02 0.  0.
         12    1    1    2    0    0 -0.57010860788E+00  0.92309475433E+00  0.46467667661E+00  0.11802763083E+01  0.00000000000E+00 0. -1.
         11    1    3    3    0    0 -0.11588918170E+02 -0.35490940924E+02  0.10721231910E+02  0.38843979276E+02  0.51100000000E-03 0. -1.
        -11    1    3    3    0    0 -0.44417736945E+00 -0.40899850143E+01 -0.96318252780E+01  0.10473649288E+02  0.51100000000E-03 0.  1.
        -12    1    3    3    0    0  0.12603204148E+02  0.38657831184E+02 -0.15540833089E+01  0.40690095128E+02  0.00000000000E+00 0.  1.
</event>
<event>
 7    1  0.4400431E-015  0.9000782E+02  0.7816164E-02  0.1186339E+00
        -11   -1    0    0    0    0  0.00000000000E+00  0.00000000000E+00  0.45593999997E+02  0.45594000000E+02  0.51100000000E-03 0. -1.
         11   -1    0    0    0    0 -0.00000000000E+00 -0.00000000000E+00 -0.45593999997E+02  0.45594000000E+02  0.51100000000E-03 0.  1.
    9900012    2    1    2    0    0  0.68222308803E-02 -0.10366251174E+01 -0.56408465620E+00  0.90007817948E+02  0.90000080345E+02 0.  0.
         12    1    1    2    0    0 -0.68222308803E-02  0.10366251174E+01  0.56408465620E+00  0.11801820521E+01  0.00000000000E+00 0. -1.
         11    1    3    3    0    0 -0.79915433858E+01 -0.48890985911E+01  0.17701636570E+01  0.95342294054E+01  0.51100000000E-03 0. -1.
        -11    1    3    3    0    0  0.35139385490E+02  0.15645132849E+02  0.20042579464E+02  0.43373397219E+02  0.51100000000E-03 0.  1.
         12    1    3    3    0    0 -0.27141019873E+02 -0.11792659376E+02 -0.22376827777E+02  0.37100191324E+02  0.00000000000E+00 0. -1.
</event>
<event>
 7    1  0.4400431E-015  0.9000776E+02  0.7816164E-02  0.1186339E+00
        -11   -1    0    0    0    0  0.00000000000E+00  0.00000000000E+00  0.45593999997E+02  0.45594000000E+02  0.51100000000E-03 0.  1.
         11   -1    0    0    0    0 -0.00000000000E+00 -0.00000000000E+00 -0.45593999997E+02  0.45594000000E+02  0.51100000000E-03 0. -1.
    9900012    2    1    2    0    0 -0.10832522817E+00 -0.77430420068E+00  0.88412948757E+00  0.90007760066E+02  0.90000021699E+02 0.  0.
         12    1    1    2    0    0  0.10832522817E+00  0.77430420068E+00 -0.88412948757E+00  0.11802399337E+01  0.00000000000E+00 0. -1.
         11    1    3    3    0    0  0.27483005778E+02  0.19280883571E+02 -0.10952075916E+02  0.35313114349E+02  0.51100000000E-03 0. -1.
        -11    1    3    3    0    0  0.96920912354E+01  0.21686434934E+01  0.11836129450E+01  0.10002029143E+02  0.51100000000E-03 0.  1.
        -12    1    3    3    0    0 -0.37283422242E+02 -0.22223831265E+02  0.10652592458E+02  0.44692616574E+02  0.00000000000E+00 0.  1.
</event>
<event>
 7    1  0.4400431E-015  0.9000777E+02  0.7816164E-02  0.1186339E+00
        -11   -1    0    0    0    0  0.00000000000E+00  0.00000000000E+00  0.45593999997E+02  0.45594000000E+02  0.51100000000E-03 0. -1.
         11   -1    0    0    0    0 -0.00000000000E+00 -0.00000000000E+00 -0.45593999997E+02  0.45594000000E+02  0.51100000000E-03 0.  1.
    9900012    2    1    2    0    0 -0.87507122351E+00  0.37784376066E-01 -0.79105328147E+00  0.90007770107E+02  0.90000031873E+02 0.  0.
         12    1    1    2    0    0  0.87507122351E+00 -0.37784376066E-01  0.79105328147E+00  0.11802298926E+01  0.00000000000E+00 0. -1.
         11    1    3    3    0    0 -0.32846957716E+02  0.17989132778E+02  0.79955723948E+01  0.38294395249E+02  0.51100000000E-03 0. -1.
        -11    1    3    3    0    0  0.31109624788E+01  0.89525581205E+01 -0.77514562184E+01  0.12243833477E+02  0.51100000000E-03 0.  1.
        -12    1    3    3    0    0  0.28860924013E+02 -0.26903906522E+02 -0.10351694579E+01  0.39469541382E+02  0.00000000000E+00 0.  1.
</event>
<event>
 7    1  0.4400431E-015  0.9000777E+02  0.7816164E-02  0.1186339E+00
        -11   -1    0    0    0    0  0.00000000000E+00  0.00000000000E+00  0.45593999997E+02  0.45594000000E+02  0.51100000000E-03 0. -1.
         11   -1    0    0    0    0 -0.00000000000E+00 -0.00000000000E+00 -0.45593999997E+02  0.45594000000E+02  0.51100000000E-03 0.  1.
    9900012    2    1    2    0    0  0.12954100616E-01 -0.93658647639E+00 -0.71804026923E+00  0.90007769571E+02  0.90000031330E+02 0.  0.
         12    1    1    2    0    0 -0.12954100616E-01  0.93658647639E+00  0.71804026923E+00  0.11802304287E+01  0.00000000000E+00 0. -1.
         11    1    3    3    0    0  0.29289642897E+01 -0.83864171037E+01 -0.68472159661E+00  0.89095267873E+01  0.51100000000E-03 0. -1.
        -11    1    3    3    0    0  0.28330648698E+02  0.27341875946E+01 -0.27241820086E+02  0.39398200458E+02  0.51100000000E-03 0.  1.
         12    1    3    3    0    0 -0.31246658888E+02  0.47156430327E+01  0.27208501413E+02  0.41700042326E+02  0.00000000000E+00 0. -1.
</event>
<event>
 7    1  0.4400431E-015  0.9000773E+02  0.7816164E-02  0.1186339E+00
        -11   -1    0    0    0    0  0.00000000000E+00  0.00000000000E+00  0.45593999997E+02  0.45594000000E+02  0.51100000000E-03 0. -1.
         11   -1    0    0    0    0 -0.00000000000E+00 -0.00000000000E+00 -0.45593999997E+02  0.45594000000E+02  0.51100000000E-03 0.  1.
    9900012    2    1    2    0    0  0.75234815560E+00 -0.85186295332E+00  0.31832152157E+00  0.90007734424E+02  0.89999995719E+02 0.  0.
         12    1    1    2    0    0 -0.75234815560E+00  0.85186295332E+00 -0.31832152157E+00  0.11802655759E+01  0.00000000000E+00 0. -1.
         11    1    3    3    0    0 -0.34344625897E+02  0.24985922520E+01  0.15756481438E+02  0.37869024266E+02  0.51100000000E-03 0. -1.
        -11    1    3    3    0    0 -0.39003751390E+01  0.67545835347E+01  0.22843146283E+01  0.81274484639E+01  0.51100000000E-03 0.  1.
        -12    1    3    3    0    0  0.38997349192E+02 -0.10105038740E+02 -0.17722474545E+02  0.44011261694E+02  0.00000000000E+00 0.  1.
</event>
<event>
 7    1  0.4400431E-015  0.9000857E+02  0.7816164E-02  0.1186337E+00
        -11   -1    0    0    0    0  0.00000000000E+00  0.00000000000E+00  0.45593999997E+02  0.45594000000E+02  0.51100000000E-03 0.  1.
         11   -1    0    0    0    0 -0.00000000000E+00 -0.00000000000E+00 -0.45593999997E+02  0.45594000000E+02  0.51100000000E-03 0. -1.
    9900012    2    1    2    0    0  0.13898245086E-01  0.87504782866E+00  0.79066258602E+00  0.90008572517E+02  0.90000844870E+02 0.  0.
         12    1    1    2    0    0 -0.13898245086E-01 -0.87504782866E+00 -0.79066258602E+00  0.11794274834E+01  0.00000000000E+00 0. -1.
         11    1    3    3    0    0 -0.50426134639E+01 -0.64015531570E+01  0.49503245992E+01  0.95348595830E+01  0.51100000000E-03 0. -1.
        -11    1    3    3    0    0  0.99318645339E+00 -0.31985294075E+02  0.16411104095E+02  0.35963450812E+02  0.51100000000E-03 0.  1.
         12    1    3    3    0    0  0.40633252556E+01  0.39261895061E+02 -0.20570766108E+02  0.44510262122E+02  0.00000000000E+00 0. -1.
</event>
<event>
 7    1  0.4400431E-015  0.9000771E+02  0.7816164E-02  0.1186339E+00
        -11   -1    0    0    0    0  0.00000000000E+00  0.00000000000E+00  0.45593999997E+02  0.45594000000E+02  0.51100000000E-03 0. -1.
         11   -1    0    0    0    0 -0.00000000000E+00 -0.00000000000E+00 -0.45593999997E+02  0.45594000000E+02  0.51100000000E-03 0.  1.
    9900012    2    1    2    0    0  0.90278034095E+00  0.28242679870E+00 -0.70590759607E+00  0.90007710724E+02  0.89999971706E+02 0.  0.
         12    1    1    2    0    0 -0.90278034095E+00 -0.28242679870E+00  0.70590759607E+00  0.11802892759E+01  0.00000000000E+00 0. -1.
         11    1    3    3    0    0  0.97348367053E+01  0.52467372256E+01  0.39439766484E+02  0.40960840784E+02  0.51100000000E-03 0. -1.
        -11    1    3    3    0    0  0.64956592070E+01 -0.59607191053E+01 -0.38217459636E+01  0.96088242391E+01  0.51100000000E-03 0.  1.
        -12    1    3    3    0    0 -0.15327715571E+02  0.99640867840E+00 -0.36323928116E+02  0.39438045701E+02  0.00000000000E+00 0.  1.
</event>
<event>
 7    1  0.4400431E-015  0.9000772E+02  0.7816164E-02  0.1186339E+00
        -11   -1    0    0    0    0  0.00000000000E+00  0.00000000000E+00  0.45593999997E+02  0.45594000000E+02  0.51100000000E-03 0.  1.
         11   -1    0    0    0    0 -0.00000000000E+00 -0.00000000000E+00 -0.45593999997E+02  0.45594000000E+02  0.51100000000E-03 0. -1.
    9900012    2    1    2    0    0 -0.48315751162E+00 -0.85236819312E+00  0.65809595622E+00  0.90007719099E+02  0.89999980191E+02 0.  0.
         12    1    1    2    0    0  0.48315751162E+00  0.85236819312E+00 -0.65809595622E+00  0.11802809010E+01  0.00000000000E+00 0. -1.
         11    1    3    3    0    0  0.98086445416E+01 -0.27947043963E+01  0.57316487207E+01  0.11699216971E+02  0.51100000000E-03 0. -1.
        -11    1    3    3    0    0 -0.23487488873E+02  0.33062548441E+02  0.92485673666E+01  0.41597238388E+02  0.51100000000E-03 0.  1.
         12    1    3    3    0    0  0.13195686819E+02 -0.31120212238E+02 -0.14322120131E+02  0.36711263740E+02  0.00000000000E+00 0. -1.
</event>
<event>
 7    1  0.4400431E-015  0.9000773E+02  0.7816164E-02  0.1186339E+00
        -11   -1    0    0    0    0  0.00000000000E+00  0.00000000000E+00  0.45593999997E+02  0.45594000000E+02  0.51100000000E-03 0. -1.
         11   -1    0    0    0    0 -0.00000000000E+00 -0.00000000000E+00 -0.45593999997E+02  0.45594000000E+02  0.51100000000E-03 0.  1.
    9900012    2    1    2    0    0  0.31695007568E+00  0.15290106841E+00 -0.11265908536E+01  0.90007727557E+02  0.89999988761E+02 0.  0.
         12    1    1    2    0    0 -0.31695007568E+00 -0.15290106841E+00  0.11265908536E+01  0.11802724426E+01  0.00000000000E+00 0. -1.
         11    1    3    3    0    0 -0.22226203294E+02  0.21740313648E+02 -0.20202471822E+02  0.37078096207E+02  0.51100000000E-03 0. -1.
        -11    1    3    3    0    0 -0.35338691869E+01 -0.41730545509E+01 -0.92026148690E+01  0.10704706274E+02  0.51100000000E-03 0.  1.
        -12    1    3    3    0    0  0.26077022556E+02 -0.17414358029E+02  0.28278495837E+02  0.42224925077E+02  0.00000000000E+00 0.  1.
</event>
<event>
 7    1  0.4400431E-015  0.9000781E+02  0.7816164E-02  0.1186339E+00
        -11   -1    0    0    0    0  0.00000000000E+00  0.00000000000E+00  0.45593999997E+02  0.45594000000E+02  0.51100000000E-03 0.  1.
         11   -1    0    0    0    0 -0.00000000000E+00 -0.00000000000E+00 -0.45593999997E+02  0.45594000000E+02  0.51100000000E-03 0. -1.
    9900012    2    1    2    0    0  0.15593766493E-01 -0.23789000990E+00  0.11558572644E+01  0.90007813219E+02  0.90000075553E+02 0.  0.
         12    1    1    2    0    0 -0.15593766493E-01  0.23789000990E+00 -0.11558572644E+01  0.11801867810E+01  0.00000000000E+00 0. -1.
         11    1    3    3    0    0 -0.24485169899E+02 -0.27906872842E+02  0.84950727972E+01  0.38085211814E+02  0.51100000000E-03 0. -1.
        -11    1    3    3    0    0 -0.10679581531E+01 -0.75841099122E+01 -0.27262713229E+01  0.81296871627E+01  0.51100000000E-03 0.  1.
        -12    1    3    3    0    0  0.25568721819E+02  0.35253092745E+02 -0.46129442099E+01  0.43792914242E+02  0.00000000000E+00 0.  1.
</event>
<event>
 7    1  0.4400431E-015  0.9000781E+02  0.7816164E-02  0.1186339E+00
        -11   -1    0    0    0    0  0.00000000000E+00  0.00000000000E+00  0.45593999997E+02  0.45594000000E+02  0.51100000000E-03 0. -1.
         11   -1    0    0    0    0 -0.00000000000E+00 -0.00000000000E+00 -0.45593999997E+02  0.45594000000E+02  0.51100000000E-03 0.  1.
    9900012    2    1    2    0    0 -0.10679946964E+01  0.42171955727E+00 -0.27275761016E+00  0.90007806469E+02  0.90000068714E+02 0.  0.
         12    1    1    2    0    0  0.10679946964E+01 -0.42171955727E+00  0.27275761016E+00  0.11801935309E+01  0.00000000000E+00 0. -1.
         11    1    3    3    0    0 -0.20020525016E+02  0.34819181659E+02  0.11263185192E+02  0.41713980561E+02  0.51100000000E-03 0. -1.
        -11    1    3    3    0    0 -0.25190679577E+01 -0.30471546579E+01 -0.94437865885E+01  0.10237966608E+02  0.51100000000E-03 0.  1.
        -12    1    3    3    0    0  0.21471598278E+02 -0.31350307444E+02 -0.20921562140E+01  0.38055859300E+02  0.00000000000E+00 0.  1.
</event>
<event>
 7    1  0.4400431E-015  0.9000776E+02  0.7816164E-02  0.1186339E+00
        -11   -1    0    0    0    0  0.00000000000E+00  0.00000000000E+00  0.45593999997E+02  0.45594000000E+02  0.51100000000E-03 0.  1.
         11   -1    0    0    0    0 -0.00000000000E+00 -0.00000000000E+00 -0.45593999997E+02  0.45594000000E+02  0.51100000000E-03 0. -1.
    9900012    2    1    2    0    0  0.89030696501E+00 -0.77451915152E+00  0.20822684193E-01  0.90007762739E+02  0.90000024407E+02 0.  0.
         12    1    1    2    0    0 -0.89030696501E+00  0.77451915152E+00 -0.20822684193E-01  0.11802372610E+01  0.00000000000E+00 0. -1.
         11    1    3    3    0    0 -0.33253073932E+02  0.79540067996E+01 -0.21113044364E+02  0.40184496920E+02  0.51100000000E-03 0. -1.
        -11    1    3    3    0    0  0.36224895803E+01  0.45589620716E+01 -0.48632183935E+01  0.75866632543E+01  0.51100000000E-03 0.  1.
        -12    1    3    3    0    0  0.30520891317E+02 -0.13287488023E+02  0.25997085442E+02  0.42236602565E+02  0.00000000000E+00 0.  1.
</event>
<event>
 7    1  0.4400431E-015  0.9000835E+02  0.7816164E-02  0.1186338E+00
        -11   -1    0    0    0    0  0.00000000000E+00  0.00000000000E+00  0.45593999997E+02  0.45594000000E+02  0.51100000000E-03 0. -1.
         11   -1    0    0    0    0 -0.00000000000E+00 -0.00000000000E+00 -0.45593999997E+02  0.45594000000E+02  0.51100000000E-03 0.  1.
    9900012    2    1    2    0    0 -0.10350981262E+01 -0.50983157841E+00 -0.24537923800E+00  0.90008352875E+02  0.90000622331E+02 0.  0.
         12    1    1    2    0    0  0.10350981262E+01  0.50983157841E+00  0.24537923800E+00  0.11796471251E+01  0.00000000000E+00 0. -1.
         11    1    3    3    0    0 -0.66015530109E+01 -0.51591666896E+01  0.53579724085E+01  0.99451179821E+01  0.51100000000E-03 0. -1.
        -11    1    3    3    0    0  0.15196626591E+02 -0.34893721806E+02  0.39333909972E+01  0.38262002642E+02  0.51100000000E-03 0.  1.
         12    1    3    3    0    0 -0.96301717063E+01  0.39543056917E+02 -0.95367426437E+01  0.41801232251E+02  0.00000000000E+00 0. -1.
</event>
<event>
 7    1  0.4400431E-015  0.9000768E+02  0.7816164E-02  0.1186339E+00
        -11   -1    0    0    0    0  0.00000000000E+00  0.00000000000E+00  0.45593999997E+02  0.45594000000E+02  0.51100000000E-03 0.  1.
         11   -1    0    0    0    0 -0.00000000000E+00 -0.00000000000E+00 -0.45593999997E+02  0.45594000000E+02  0.51100000000E-03 0. -1.
    9900012    2    1    2    0    0 -0.30456249353E+00 -0.88262041933E+00  0.72205993723E+00  0.90007683233E+02  0.89999943852E+02 0.  0.
         12    1    1    2    0    0  0.30456249353E+00  0.88262041933E+00 -0.72205993723E+00  0.11803167668E+01  0.00000000000E+00 0. -1.
         11    1    3    3    0    0  0.91914595357E+01  0.43990633097E+01 -0.21967783716E+01  0.10424035777E+02  0.51100000000E-03 0. -1.
        -11    1    3    3    0    0  0.30445176881E+02 -0.58417456867E+01  0.19181445335E+02  0.36454939766E+02  0.51100000000E-03 0.  1.
         12    1    3    3    0    0 -0.39941198910E+02  0.56006195766E+00 -0.16262607026E+02  0.43128707690E+02  0.00000000000E+00 0. -1.
</event>
<event>
 7    1  0.4400431E-015  0.9000773E+02  0.7816164E-02  0.1186339E+00
        -11   -1    0    0    0    0  0.00000000000E+00  0.00000000000E+00  0.45593999997E+02  0.45594000000E+02  0.51100000000E-03 0.  1.
         11   -1    0    0    0    0 -0.00000000000E+00 -0.00000000000E+00 -0.45593999997E+02  0.45594000000E+02  0.51100000000E-03 0. -1.
    9900012    2    1    2    0    0  0.96767853741E+00  0.44809276653E+00 -0.50581355969E+00  0.90007730439E+02  0.89999991681E+02 0.  0.
         12    1    1    2    0    0 -0.96767853741E+00 -0.44809276653E+00  0.50581355969E+00  0.11802695609E+01  0.00000000000E+00 0. -1.
         11    1    3    3    0    0  0.25057860084E+02 -0.21157747194E+02 -0.12864445913E+02  0.35228405970E+02  0.51100000000E-03 0. -1.
        -11    1    3    3    0    0  0.30210252277E+01 -0.98144958072E+01 -0.27229525639E+01  0.10623812513E+02  0.51100000000E-03 0.  1.
        -12    1    3    3    0    0 -0.27111206774E+02  0.31420335767E+02  0.15081584917E+02  0.44155511956E+02  0.00000000000E+00 0.  1.
</event>
<event>
 7    1  0.4400431E-015  0.9000767E+02  0.7816164E-02  0.1186339E+00
        -11   -1    0    0    0    0  0.00000000000E+00  0.00000000000E+00  0.45593999997E+02  0.45594000000E+02  0.51100000000E-03 0. -1.
         11   -1    0    0    0    0 -0.00000000000E+00 -0.00000000000E+00 -0.45593999997E+02  0.45594000000E+02  0.51100000000E-03 0.  1.
    9900012    2    1    2    0    0 -0.12410474326E+00  0.26094769069E+00 -0.11444101775E+01  0.90007673630E+02  0.89999934122E+02 0.  0.
         12    1    1    2    0    0  0.12410474326E+00 -0.26094769069E+00  0.11444101775E+01  0.11803263697E+01  0.00000000000E+00 0. -1.
         11    1    3    3    0    0 -0.14356628088E+02  0.77625444332E+01 -0.16856112773E+02  0.23462702406E+02  0.51100000000E-03 0. -1.
        -11    1    3    3    0    0  0.51945199287E+01  0.18779472426E+02 -0.15394258286E+02  0.24832132617E+02  0.51100000000E-03 0.  1.
         12    1    3    3    0    0  0.90380034157E+01 -0.26281069168E+02  0.31105960881E+02  0.41712838607E+02  0.00000000000E+00 0. -1.
</event>
<event>
 7    1  0.4400431E-015  0.9000763E+02  0.7816164E-02  0.1186339E+00
        -11   -1    0    0    0    0  0.00000000000E+00  0.00000000000E+00  0.45593999997E+02  0.45594000000E+02  0.51100000000E-03 0. -1.
         11   -1    0    0    0    0 -0.00000000000E+00 -0.00000000000E+00 -0.45593999997E+02  0.45594000000E+02  0.51100000000E-03 0.  1.
    9900012    2    1    2    0    0  0.25064915056E+00 -0.99099156347E+00 -0.59024324598E+00  0.90007628717E+02  0.89999888616E+02 0.  0.
         12    1    1    2    0    0 -0.25064915056E+00  0.99099156347E+00  0.59024324598E+00  0.11803712827E+01  0.00000000000E+00 0. -1.
         11    1    3    3    0    0  0.12407675171E+01 -0.66050718854E+01 -0.73904117396E+01  0.99892274268E+01  0.51100000000E-03 0. -1.
        -11    1    3    3    0    0  0.28986910558E+02 -0.20298261611E+02 -0.10308950026E+02  0.36858307870E+02  0.51100000000E-03 0.  1.
         12    1    3    3    0    0 -0.29977028924E+02  0.25912341933E+02  0.17109118520E+02  0.43160093421E+02  0.00000000000E+00 0. -1.
</event>
<event>
 7    1  0.4400431E-015  0.9000771E+02  0.7816164E-02  0.1186339E+00
        -11   -1    0    0    0    0  0.00000000000E+00  0.00000000000E+00  0.45593999997E+02  0.45594000000E+02  0.51100000000E-03 0.  1.
         11   -1    0    0    0    0 -0.00000000000E+00 -0.00000000000E+00 -0.45593999997E+02  0.45594000000E+02  0.51100000000E-03 0. -1.
    9900012    2    1    2    0    0  0.11018005323E+00 -0.56449179344E+00  0.10306747892E+01  0.90007711412E+02  0.89999972403E+02 0.  0.
         12    1    1    2    0    0 -0.11018005323E+00  0.56449179344E+00 -0.10306747892E+01  0.11802885877E+01  0.00000000000E+00 0. -1.
         11    1    3    3    0    0  0.33880597415E+02  0.20491696460E+02 -0.27531122574E+01  0.39691108984E+02  0.51100000000E-03 0. -1.
        -11    1    3    3    0    0 -0.47945110735E+01  0.75550539406E+01 -0.20499117030E+01  0.91797774881E+01  0.51100000000E-03 0.  1.
        -12    1    3    3    0    0 -0.28975906288E+02 -0.28611242194E+02  0.58336987496E+01  0.41136824941E+02  0.00000000000E+00 0.  1.
</event>
<event>
 7    1  0.4400431E-015  0.9000769E+02  0.7816164E-02  0.1186339E+00
        -11   -1    0    0    0    0  0.00000000000E+00  0.00000000000E+00  0.45593999997E+02  0.45594000000E+02  0.51100000000E-03 0.  1.
         11   -1    0    0    0    0 -0.00000000000E+00 -0.00000000000E+00 -0.45593999997E+02  0.45594000000E+02  0.51100000000E-03 0. -1.
    9900012    2    1    2    0    0 -0.59584799633E+00  0.15574022205E+00  0.10068941487E+01  0.90007692549E+02  0.89999953291E+02 0.  0.
         12    1    1    2    0    0  0.59584799633E+00 -0.15574022205E+00 -0.10068941487E+01  0.11803074507E+01  0.00000000000E+00 0. -1.
         11    1    3    3    0    0  0.64799431623E+00 -0.86644702395E+01  0.10652307443E+02  0.13746439368E+02  0.51100000000E-03 0. -1.
        -11    1    3    3    0    0 -0.30279431029E+02  0.15045108766E+00  0.18014377519E+02  0.35233285067E+02  0.51100000000E-03 0.  1.
         12    1    3    3    0    0  0.29035588716E+02  0.86697593739E+01 -0.27659790814E+02  0.41027968114E+02  0.00000000000E+00 0. -1.
</event>
<event>
 7    1  0.4400431E-015  0.9000795E+02  0.7816164E-02  0.1186339E+00
        -11   -1    0    0    0    0  0.00000000000E+00  0.00000000000E+00  0.45593999997E+02  0.45594000000E+02  0.51100000000E-03 0. -1.
         11   -1    0    0    0    0 -0.00000000000E+00 -0.00000000000E+00 -0.45593999997E+02  0.45594000000E+02  0.51100000000E-03 0.  1.
    9900012    2    1    2    0    0  0.72855048363E+00  0.34868857476E+00 -0.86031699034E+00  0.90007951334E+02  0.90000215492E+02 0.  0.
         12    1    1    2    0    0 -0.72855048363E+00 -0.34868857476E+00  0.86031699034E+00  0.11800486656E+01  0.00000000000E+00 0. -1.
         11    1    3    3    0    0  0.97256931244E+01 -0.21022359515E+01 -0.10133546061E+00  0.99508176490E+01  0.51100000000E-03 0. -1.
        -11    1    3    3    0    0  0.24162925812E+02 -0.62974721680E-01 -0.28060719236E+02  0.37030459273E+02  0.51100000000E-03 0.  1.
         12    1    3    3    0    0 -0.33160068453E+02  0.25138992480E+01  0.27301737706E+02  0.43026674413E+02  0.00000000000E+00 0. -1.
</event>
<event>
 7    1  0.4400431E-015  0.9000776E+02  0.7816164E-02  0.1186339E+00
        -11   -1    0    0    0    0  0.00000000000E+00  0.00000000000E+00  0.45593999997E+02  0.45594000000E+02  0.51100000000E-03 0. -1.
         11   -1    0    0    0    0 -0.00000000000E+00 -0.00000000000E+00 -0.45593999997E+02  0.45594000000E+02  0.51100000000E-03 0.  1.
    9900012    2    1    2    0    0  0.45514109129E+00 -0.82613853281E+00 -0.70943495170E+00  0.90007764329E+02  0.90000026018E+02 0.  0.
         12    1    1    2    0    0 -0.45514109129E+00  0.82613853281E+00  0.70943495170E+00  0.11802356710E+01  0.00000000000E+00 0. -1.
         11    1    3    3    0    0  0.32468832713E+02  0.21146693298E+02 -0.17935118358E+01  0.38789488527E+02  0.51100000000E-03 0. -1.
        -11    1    3    3    0    0 -0.23046249797E+01 -0.11121036032E+01  0.12815318677E+02  0.13068299958E+02  0.51100000000E-03 0.  1.
        -12    1    3    3    0    0 -0.29709066642E+02 -0.20860728227E+02 -0.11731241793E+02  0.38149975845E+02  0.00000000000E+00 0.  1.
</event>
<event>
 7    1  0.4400431E-015  0.9000779E+02  0.7816164E-02  0.1186339E+00
        -11   -1    0    0    0    0  0.00000000000E+00  0.00000000000E+00  0.45593999997E+02  0.45594000000E+02  0.51100000000E-03 0. -1.
         11   -1    0    0    0    0 -0.00000000000E+00 -0.00000000000E+00 -0.45593999997E+02  0.45594000000E+02  0.51100000000E-03 0.  1.
    9900012    2    1    2    0    0  0.99044717673E+00 -0.63477145395E+00 -0.94725226274E-01  0.90007791003E+02  0.90000053044E+02 0.  0.
         12    1    1    2    0    0 -0.99044717673E+00  0.63477145395E+00  0.94725226274E-01  0.11802089972E+01  0.00000000000E+00 0. -1.
         11    1    3    3    0    0  0.45227269565E+01 -0.36803136621E+02 -0.52175871924E+01  0.37445281954E+02  0.51100000000E-03 0. -1.
        -11    1    3    3    0    0  0.39622029485E+01 -0.64807015036E+01  0.52954764166E+01  0.92596228283E+01  0.51100000000E-03 0.  1.
        -12    1    3    3    0    0 -0.74944827282E+01  0.42649066671E+02 -0.17261445046E+00  0.43302886220E+02  0.00000000000E+00 0.  1.
</event>
<event>
 7    1  0.5123279E-015  0.9000776E+02  0.7816164E-02  0.1186339E+00
        -11   -1    0    0    0    0  0.00000000000E+00  0.00000000000E+00  0.45593999997E+02  0.45594000000E+02  0.51100000000E-03 0. -1.
         11   -1    0    0    0    0 -0.00000000000E+00 -0.00000000000E+00 -0.45593999997E+02  0.45594000000E+02  0.51100000000E-03 0.  1.
    9900012    2    1    2    0    0 -0.30582454696E+00  0.42928080440E+00 -0.10560109755E+01  0.90007758566E+02  0.90000020179E+02 0.  0.
         12    1    1    2    0    0  0.30582454696E+00 -0.42928080440E+00  0.10560109755E+01  0.11802414342E+01  0.00000000000E+00 0. -1.
         11    1    3    3    0    0 -0.75014638214E+01  0.44101738539E+01 -0.17398045564E+01  0.88740358936E+01  0.51100000000E-03 0. -1.
        -11    1    3    3    0    0 -0.27117073297E+02  0.47020707295E+01 -0.25175337539E+02  0.37299366668E+02  0.51100000000E-03 0.  1.
         12    1    3    3    0    0  0.34312712572E+02 -0.86829637790E+01  0.25859131120E+02  0.43834356004E+02  0.00000000000E+00 0. -1.
</event>
<event>
 7    1  0.4400431E-015  0.9000776E+02  0.7816164E-02  0.1186339E+00
        -11   -1    0    0    0    0  0.00000000000E+00  0.00000000000E+00  0.45593999997E+02  0.45594000000E+02  0.51100000000E-03 0. -1.
         11   -1    0    0    0    0 -0.00000000000E+00 -0.00000000000E+00 -0.45593999997E+02  0.45594000000E+02  0.51100000000E-03 0.  1.
    9900012    2    1    2    0    0  0.76995049607E+00 -0.81078378989E+00  0.37785419949E+00  0.90007759382E+02  0.90000021006E+02 0.  0.
         12    1    1    2    0    0 -0.76995049607E+00  0.81078378989E+00 -0.37785419949E+00  0.11802406180E+01  0.00000000000E+00 0. -1.
         11    1    3    3    0    0  0.86520739916E+01  0.54610500320E+01  0.12109669806E+01  0.10302809961E+02  0.51100000000E-03 0. -1.
        -11    1    3    3    0    0  0.19381191461E+02  0.99390694125E+01  0.28927287292E+02  0.36210545889E+02  0.51100000000E-03 0.  1.
         12    1    3    3    0    0 -0.27263314957E+02 -0.16210903234E+02 -0.29760400073E+02  0.43494403532E+02  0.00000000000E+00 0. -1.
</event>
<event>
 7    1  0.4400431E-015  0.9000734E+02  0.7816164E-02  0.1186340E+00
        -11   -1    0    0    0    0  0.00000000000E+00  0.00000000000E+00  0.45593999997E+02  0.45594000000E+02  0.51100000000E-03 0. -1.
         11   -1    0    0    0    0 -0.00000000000E+00 -0.00000000000E+00 -0.45593999997E+02  0.45594000000E+02  0.51100000000E-03 0.  1.
    9900012    2    1    2    0    0 -0.10278166973E+00  0.34993279339E+00 -0.11229196704E+01  0.90007336789E+02  0.89999592834E+02 0.  0.
         12    1    1    2    0    0  0.10278166973E+00 -0.34993279339E+00  0.11229196704E+01  0.11806632110E+01  0.00000000000E+00 0. -1.
         11    1    3    3    0    0  0.25565710337E+01  0.14713365946E+02 -0.11113392106E+02  0.18615227027E+02  0.51100000000E-03 0. -1.
        -11    1    3    3    0    0 -0.11765864533E+02  0.19294200584E+02 -0.16181512652E+02  0.27794659494E+02  0.51100000000E-03 0.  1.
         12    1    3    3    0    0  0.91065118296E+01 -0.33657633737E+02  0.26171985088E+02  0.43597450268E+02  0.00000000000E+00 0. -1.
</event>
<event>
 7    1  0.4400431E-015  0.9000776E+02  0.7816164E-02  0.1186339E+00
        -11   -1    0    0    0    0  0.00000000000E+00  0.00000000000E+00  0.45593999997E+02  0.45594000000E+02  0.51100000000E-03 0.  1.
         11   -1    0    0    0    0 -0.00000000000E+00 -0.00000000000E+00 -0.45593999997E+02  0.45594000000E+02  0.51100000000E-03 0. -1.
    9900012    2    1    2    0    0  0.91885258571E+00 -0.34530106289E+00  0.65532572272E+00  0.90007756508E+02  0.90000018094E+02 0.  0.
         12    1    1    2    0    0 -0.91885258571E+00  0.34530106289E+00 -0.65532572272E+00  0.11802434923E+01  0.00000000000E+00 0. -1.
         11    1    3    3    0    0  0.99015135905E+01  0.16819968884E+02 -0.33894018808E+02  0.39112093218E+02  0.51100000000E-03 0. -1.
        -11    1    3    3    0    0  0.45467858546E+01  0.75200455642E+01  0.51175837112E+01  0.10169267928E+02  0.51100000000E-03 0.  1.
        -12    1    3    3    0    0 -0.13529446859E+02 -0.24685315511E+02  0.29431760820E+02  0.40726395362E+02  0.00000000000E+00 0.  1.
</event>
<event>
 7    1  0.4400431E-015  0.9000791E+02  0.7816164E-02  0.1186339E+00
        -11   -1    0    0    0    0  0.00000000000E+00  0.00000000000E+00  0.45593999997E+02  0.45594000000E+02  0.51100000000E-03 0. -1.
         11   -1    0    0    0    0 -0.00000000000E+00 -0.00000000000E+00 -0.45593999997E+02  0.45594000000E+02  0.51100000000E-03 0.  1.
    9900012    2    1    2    0    0 -0.97859451737E+00 -0.36585911946E+00 -0.54874258746E+00  0.90007907397E+02  0.90000170974E+02 0.  0.
         12    1    1    2    0    0  0.97859451737E+00  0.36585911946E+00  0.54874258746E+00  0.11800926032E+01  0.00000000000E+00 0. -1.
         11    1    3    3    0    0  0.11111336914E+02 -0.30070684004E+02  0.22223762725E+02  0.39007736084E+02  0.51100000000E-03 0. -1.
        -11    1    3    3    0    0 -0.67776951097E+01 -0.50193853710E+01  0.11325933514E+01  0.85096503138E+01  0.51100000000E-03 0.  1.
        -12    1    3    3    0    0 -0.53122363215E+01  0.34724210256E+02 -0.23905098664E+02  0.42490520999E+02  0.00000000000E+00 0.  1.
</event>
<event>
 7    1  0.4400431E-015  0.9000771E+02  0.7816164E-02  0.1186339E+00
        -11   -1    0    0    0    0  0.00000000000E+00  0.00000000000E+00  0.45593999997E+02  0.45594000000E+02  0.51100000000E-03 0.  1.
         11   -1    0    0    0    0 -0.00000000000E+00 -0.00000000000E+00 -0.45593999997E+02  0.45594000000E+02  0.51100000000E-03 0. -1.
    9900012    2    1    2    0    0 -0.11468779257E+00 -0.29098617619E+00  0.11380981606E+01  0.90007706110E+02  0.89999967030E+02 0.  0.
         12    1    1    2    0    0  0.11468779257E+00  0.29098617619E+00 -0.11380981606E+01  0.11802938904E+01  0.00000000000E+00 0. -1.
         11    1    3    3    0    0 -0.74793458124E+01  0.83291658636E+01  0.11238245244E+02  0.15862338232E+02  0.51100000000E-03 0. -1.
        -11    1    3    3    0    0  0.32581636969E+02  0.86246423969E+01 -0.23188259546E+02  0.40910180947E+02  0.51100000000E-03 0.  1.
         12    1    3    3    0    0 -0.25216978949E+02 -0.17244794437E+02  0.13088112463E+02  0.33235186931E+02  0.00000000000E+00 0. -1.
</event>
<event>
 7    1  0.4606802E-015  0.9000764E+02  0.7816164E-02  0.1186339E+00
        -11   -1    0    0    0    0  0.00000000000E+00  0.00000000000E+00  0.45593999997E+02  0.45594000000E+02  0.51100000000E-03 0.  1.
         11   -1    0    0    0    0 -0.00000000000E+00 -0.00000000000E+00 -0.45593999997E+02  0.45594000000E+02  0.51100000000E-03 0. -1.
    9900012    2    1    2    0    0  0.86676955286E-01 -0.11710569849E+01  0.11979929180E+00  0.90007644449E+02  0.89999904556E+02 0.  0.
         12    1    1    2    0    0 -0.86676955286E-01  0.11710569849E+01 -0.11979929180E+00  0.11803555510E+01  0.00000000000E+00 0. -1.
         11    1    3    3    0    0  0.74834722765E+01 -0.56114450642E+01 -0.25527073674E+01  0.96957200964E+01  0.51100000000E-03 0. -1.
        -11    1    3    3    0    0  0.49677864291E+01 -0.34468589748E+02  0.14626254912E+02  0.37771549005E+02  0.51100000000E-03 0.  1.
         12    1    3    3    0    0 -0.12364581750E+02  0.38908977827E+02 -0.11953748253E+02  0.42540375348E+02  0.00000000000E+00 0. -1.
</event>
<event>
 7    1  0.4400431E-015  0.9000769E+02  0.7816164E-02  0.1186339E+00
        -11   -1    0    0    0    0  0.00000000000E+00  0.00000000000E+00  0.45593999997E+02  0.45594000000E+02  0.51100000000E-03 0.  1.
         11   -1    0    0    0    0 -0.00000000000E+00 -0.00000000000E+00 -0.45593999997E+02  0.45594000000E+02  0.51100000000E-03 0. -1.
    9900012    2    1    2    0    0  0.11252696857E+01  0.80286280347E-01 -0.34706647940E+00  0.90007689493E+02  0.89999950194E+02 0.  0.
         12    1    1    2    0    0 -0.11252696857E+01 -0.80286280347E-01  0.34706647940E+00  0.11803105072E+01  0.00000000000E+00 0. -1.
         11    1    3    3    0    0  0.21425999267E+02 -0.28436275740E+01  0.75398053931E+01  0.22891228189E+02  0.51100000000E-03 0. -1.
        -11    1    3    3    0    0 -0.10195549398E+02 -0.29846334563E+02  0.14570783890E+01  0.31573343062E+02  0.51100000000E-03 0.  1.
         12    1    3    3    0    0 -0.10105180183E+02  0.32770248418E+02 -0.93439502615E+01  0.35543118242E+02  0.00000000000E+00 0. -1.
</event>
<event>
 7    1  0.4400431E-015  0.9000771E+02  0.7816164E-02  0.1186339E+00
        -11   -1    0    0    0    0  0.00000000000E+00  0.00000000000E+00  0.45593999997E+02  0.45594000000E+02  0.51100000000E-03 0.  1.
         11   -1    0    0    0    0 -0.00000000000E+00 -0.00000000000E+00 -0.45593999997E+02  0.45594000000E+02  0.51100000000E-03 0. -1.
    9900012    2    1    2    0    0  0.72421677470E-01 -0.34895305605E+00  0.11251977182E+01  0.90007710612E+02  0.89999971592E+02 0.  0.
         12    1    1    2    0    0 -0.72421677470E-01  0.34895305605E+00 -0.11251977182E+01  0.11802893881E+01  0.00000000000E+00 0. -1.
         11    1    3    3    0    0  0.14676401614E+02  0.35234464084E+01 -0.37177329720E+01  0.15544548165E+02  0.51100000000E-03 0. -1.
        -11    1    3    3    0    0  0.15858634676E+02  0.19760540469E+02  0.20755879087E+02  0.32753347467E+02  0.51100000000E-03 0.  1.
         12    1    3    3    0    0 -0.30462614613E+02 -0.23632939933E+02 -0.15912948396E+02  0.41709814979E+02  0.00000000000E+00 0. -1.
</event>
<event>
 7    1  0.4400431E-015  0.9000777E+02  0.7816164E-02  0.1186339E+00
        -11   -1    0    0    0    0  0.00000000000E+00  0.00000000000E+00  0.45593999997E+02  0.45594000000E+02  0.51100000000E-03 0.  1.
         11   -1    0    0    0    0 -0.00000000000E+00 -0.00000000000E+00 -0.45593999997E+02  0.45594000000E+02  0.51100000000E-03 0. -1.
    9900012    2    1    2    0    0 -0.50144614130E+00 -0.10122357634E+00  0.10636012342E+01  0.90007770348E+02  0.90000032117E+02 0.  0.
         12    1    1    2    0    0  0.50144614130E+00  0.10122357634E+00 -0.10636012342E+01  0.11802296515E+01  0.00000000000E+00 0. -1.
         11    1    3    3    0    0 -0.22004841335E+01 -0.21683061650E+00 -0.42371600197E+02  0.42429254642E+02  0.51100000000E-03 0. -1.
        -11    1    3    3    0    0  0.43016536906E+01 -0.62685933259E+01  0.64912928767E+01  0.99968180054E+01  0.51100000000E-03 0.  1.
        -12    1    3    3    0    0 -0.26026156984E+01  0.63842003661E+01  0.36943908555E+02  0.37581697701E+02  0.00000000000E+00 0.  1.
</event>
<event>
 7    1  0.4400431E-015  0.9000776E+02  0.7816164E-02  0.1186339E+00
        -11   -1    0    0    0    0  0.00000000000E+00  0.00000000000E+00  0.45593999997E+02  0.45594000000E+02  0.51100000000E-03 0. -1.
         11   -1    0    0    0    0 -0.00000000000E+00 -0.00000000000E+00 -0.45593999997E+02  0.45594000000E+02  0.51100000000E-03 0.  1.
    9900012    2    1    2    0    0 -0.83860406669E-01  0.54018055216E+00 -0.10460060356E+01  0.90007764336E+02  0.90000026025E+02 0.  0.
         12    1    1    2    0    0  0.83860406669E-01 -0.54018055216E+00  0.10460060356E+01  0.11802356643E+01  0.00000000000E+00 0. -1.
         11    1    3    3    0    0 -0.17767447628E+02 -0.13084113969E+02  0.35557398886E+02  0.41847399554E+02  0.51100000000E-03 0. -1.
        -11    1    3    3    0    0  0.12798231047E+02 -0.24103833175E+01 -0.88772876530E+01  0.15761056500E+02  0.51100000000E-03 0.  1.
        -12    1    3    3    0    0  0.48853561745E+01  0.16034677839E+02 -0.27726117269E+02  0.32399308282E+02  0.00000000000E+00 0.  1.
</event>
<event>
 7    1  0.4400431E-015  0.9000774E+02  0.7816164E-02  0.1186339E+00
        -11   -1    0    0    0    0  0.00000000000E+00  0.00000000000E+00  0.45593999997E+02  0.45594000000E+02  0.51100000000E-03 0. -1.
         11   -1    0    0    0    0 -0.00000000000E+00 -0.00000000000E+00 -0.45593999997E+02  0.45594000000E+02  0.51100000000E-03 0.  1.
    9900012    2    1    2    0    0  0.27188897361E+00 -0.10151237035E+01  0.53722141580E+00  0.90007742995E+02  0.90000004403E+02 0.  0.
         12    1    1    2    0    0 -0.27188897361E+00  0.10151237035E+01 -0.53722141580E+00  0.11802570046E+01  0.00000000000E+00 0. -1.
         11    1    3    3    0    0 -0.90383332203E+01 -0.71884402765E+01 -0.21968531476E+01  0.11755479787E+02  0.51100000000E-03 0. -1.
        -11    1    3    3    0    0  0.14241521813E+01 -0.35296690722E+02  0.63228882691E+01  0.35886815151E+02  0.51100000000E-03 0.  1.
         12    1    3    3    0    0  0.78860700127E+01  0.41470007295E+02 -0.35888137057E+01  0.42365448057E+02  0.00000000000E+00 0. -1.
</event>
<event>
 7    1  0.4400431E-015  0.9000771E+02  0.7816164E-02  0.1186339E+00
        -11   -1    0    0    0    0  0.00000000000E+00  0.00000000000E+00  0.45593999997E+02  0.45594000000E+02  0.51100000000E-03 0.  1.
         11   -1    0    0    0    0 -0.00000000000E+00 -0.00000000000E+00 -0.45593999997E+02  0.45594000000E+02  0.51100000000E-03 0. -1.
    9900012    2    1    2    0    0  0.11732637848E+01 -0.66665931400E-01 -0.10998456061E+00  0.90007708147E+02  0.89999969094E+02 0.  0.
         12    1    1    2    0    0 -0.11732637848E+01  0.66665931400E-01  0.10998456061E+00  0.11802918532E+01  0.00000000000E+00 0. -1.
         11    1    3    3    0    0 -0.10001984825E+02 -0.26260941138E+02 -0.44046976865E+00  0.28104639186E+02  0.51100000000E-03 0. -1.
        -11    1    3    3    0    0 -0.18310705992E+01 -0.10059281951E+02 -0.16865427116E+02  0.19722692640E+02  0.51100000000E-03 0.  1.
         12    1    3    3    0    0  0.13006319209E+02  0.36253557157E+02  0.17195912324E+02  0.42180376321E+02  0.00000000000E+00 0. -1.
</event>
<event>
 7    1  0.4400431E-015  0.9000770E+02  0.7816164E-02  0.1186339E+00
        -11   -1    0    0    0    0  0.00000000000E+00  0.00000000000E+00  0.45593999997E+02  0.45594000000E+02  0.51100000000E-03 0.  1.
         11   -1    0    0    0    0 -0.00000000000E+00 -0.00000000000E+00 -0.45593999997E+02  0.45594000000E+02  0.51100000000E-03 0. -1.
    9900012    2    1    2    0    0 -0.14198784635E+00 -0.10715527497E+01 -0.47404000375E+00  0.90007703525E+02  0.89999964411E+02 0.  0.
         12    1    1    2    0    0  0.14198784635E+00  0.10715527497E+01  0.47404000375E+00  0.11802964751E+01  0.00000000000E+00 0. -1.
         11    1    3    3    0    0  0.46160159128E+01  0.37033156807E+02 -0.15712226090E+01  0.37352791686E+02  0.51100000000E-03 0. -1.
        -11    1    3    3    0    0 -0.56294498164E+01  0.46907634526E+01 -0.57397495003E+01  0.93079907386E+01  0.51100000000E-03 0.  1.
        -12    1    3    3    0    0  0.87144605726E+00 -0.42795473009E+02  0.68369321055E+01  0.43346921101E+02  0.00000000000E+00 0.  1.
</event>
<event>
 7    1  0.4400431E-015  0.9000784E+02  0.7816164E-02  0.1186339E+00
        -11   -1    0    0    0    0  0.00000000000E+00  0.00000000000E+00  0.45593999997E+02  0.45594000000E+02  0.51100000000E-03 0.  1.
         11   -1    0    0    0    0 -0.00000000000E+00 -0.00000000000E+00 -0.45593999997E+02  0.45594000000E+02  0.51100000000E-03 0. -1.
    9900012    2    1    2    0    0  0.11813988122E+00 -0.14764891858E+00  0.11649082492E+01  0.90007843882E+02  0.90000106621E+02 0.  0.
         12    1    1    2    0    0 -0.11813988122E+00  0.14764891858E+00 -0.11649082492E+01  0.11801561184E+01  0.00000000000E+00 0. -1.
         11    1    3    3    0    0  0.38814527851E+02  0.11279699225E+01  0.18459624768E+01  0.38874766445E+02  0.51100000000E-03 0. -1.
        -11    1    3    3    0    0  0.33350341099E+01 -0.79009074727E+01  0.63718260066E-01  0.85761793174E+01  0.51100000000E-03 0.  1.
        -12    1    3    3    0    0 -0.42031422079E+02  0.66252886316E+01 -0.74477248765E+00  0.42556898119E+02  0.00000000000E+00 0.  1.
</event>
<event>
 7    1  0.4400431E-015  0.9000772E+02  0.7816164E-02  0.1186339E+00
        -11   -1    0    0    0    0  0.00000000000E+00  0.00000000000E+00  0.45593999997E+02  0.45594000000E+02  0.51100000000E-03 0.  1.
         11   -1    0    0    0    0 -0.00000000000E+00 -0.00000000000E+00 -0.45593999997E+02  0.45594000000E+02  0.51100000000E-03 0. -1.
    9900012    2    1    2    0    0  0.39003541215E+00  0.89489380210E+00  0.66339197442E+00  0.90007723994E+02  0.89999985150E+02 0.  0.
         12    1    1    2    0    0 -0.39003541215E+00 -0.89489380210E+00 -0.66339197442E+00  0.11802760065E+01  0.00000000000E+00 0. -1.
         11    1    3    3    0    0  0.29342661483E+02  0.35500329752E+01  0.25912006241E+02  0.39306826185E+02  0.51100000000E-03 0. -1.
        -11    1    3    3    0    0 -0.30350260062E+01 -0.62761894576E+01  0.65175463747E+01  0.95436024631E+01  0.51100000000E-03 0.  1.
        -12    1    3    3    0    0 -0.25917600064E+02  0.36210502845E+01 -0.31766160642E+02  0.41157295346E+02  0.00000000000E+00 0.  1.
</event>
<event>
 7    1  0.4400431E-015  0.9000790E+02  0.7816164E-02  0.1186339E+00
        -11   -1    0    0    0    0  0.00000000000E+00  0.00000000000E+00  0.45593999997E+02  0.45594000000E+02  0.51100000000E-03 0.  1.
         11   -1    0    0    0    0 -0.00000000000E+00 -0.00000000000E+00 -0.45593999997E+02  0.45594000000E+02  0.51100000000E-03 0. -1.
    9900012    2    1    2    0    0 -0.56376534504E+00  0.46670701774E+00  0.92573518438E+00  0.90007901514E+02  0.90000165014E+02 0.  0.
         12    1    1    2    0    0  0.56376534504E+00 -0.46670701774E+00 -0.92573518438E+00  0.11800984858E+01  0.00000000000E+00 0. -1.
         11    1    3    3    0    0 -0.78182972854E+01  0.24481315280E+02  0.25290701929E+02  0.36056624559E+02  0.51100000000E-03 0. -1.
        -11    1    3    3    0    0 -0.14595026781E+02 -0.27836390344E+01  0.13141946403E+00  0.14858691879E+02  0.51100000000E-03 0.  1.
        -12    1    3    3    0    0  0.21849558721E+02 -0.21230969228E+02 -0.24496386208E+02  0.39092585076E+02  0.00000000000E+00 0.  1.
</event>
<event>
 7    1  0.4400431E-015  0.9000778E+02  0.7816164E-02  0.1186339E+00
        -11   -1    0    0    0    0  0.00000000000E+00  0.00000000000E+00  0.45593999997E+02  0.45594000000E+02  0.51100000000E-03 0. -1.
         11   -1    0    0    0    0 -0.00000000000E+00 -0.00000000000E+00 -0.45593999997E+02  0.45594000000E+02  0.51100000000E-03 0.  1.
    9900012    2    1    2    0    0  0.50426257225E-01  0.11184870375E+01  0.37330721595E+00  0.90007782080E+02  0.90000044004E+02 0.  0.
         12    1    1    2    0    0 -0.50426257225E-01 -0.11184870375E+01 -0.37330721595E+00  0.11802179197E+01  0.00000000000E+00 0. -1.
         11    1    3    3    0    0 -0.25279027806E+02  0.29098294591E+02  0.31119646537E+01  0.38670716559E+02  0.51100000000E-03 0. -1.
        -11    1    3    3    0    0 -0.77523473625E+01 -0.33333112260E+01  0.43262292445E+01  0.94829379991E+01  0.51100000000E-03 0.  1.
        -12    1    3    3    0    0  0.33081801426E+02 -0.24646496327E+02 -0.70648866822E+01  0.41854127522E+02  0.00000000000E+00 0.  1.
</event>
<event>
 7    1  0.4400431E-015  0.9000766E+02  0.7816164E-02  0.1186339E+00
        -11   -1    0    0    0    0  0.00000000000E+00  0.00000000000E+00  0.45593999997E+02  0.45594000000E+02  0.51100000000E-03 0. -1.
         11   -1    0    0    0    0 -0.00000000000E+00 -0.00000000000E+00 -0.45593999997E+02  0.45594000000E+02  0.51100000000E-03 0.  1.
    9900012    2    1    2    0    0  0.45905494303E+00 -0.97987779233E-01 -0.10829934498E+01  0.90007657737E+02  0.89999918019E+02 0.  0.
         12    1    1    2    0    0 -0.45905494303E+00  0.97987779233E-01  0.10829934498E+01  0.11803422630E+01  0.00000000000E+00 0. -1.
         11    1    3    3    0    0  0.20316589492E+02  0.32144052063E+02  0.95811592425E+01  0.39214825058E+02  0.51100000000E-03 0. -1.
        -11    1    3    3    0    0  0.36550451457E+01 -0.35780510372E+01  0.78374765198E+01  0.93588376790E+01  0.51100000000E-03 0.  1.
        -12    1    3    3    0    0 -0.23512579695E+02 -0.28663988805E+02 -0.18501629212E+02  0.41433995000E+02  0.00000000000E+00 0.  1.
</event>
<event>
 7    1  0.4400431E-015  0.9000779E+02  0.7816164E-02  0.1186339E+00
        -11   -1    0    0    0    0  0.00000000000E+00  0.00000000000E+00  0.45593999997E+02  0.45594000000E+02  0.51100000000E-03 0.  1.
         11   -1    0    0    0    0 -0.00000000000E+00 -0.00000000000E+00 -0.45593999997E+02  0.45594000000E+02  0.51100000000E-03 0. -1.
    9900012    2    1    2    0    0  0.35712545980E+00 -0.11225678279E+01  0.72164710023E-01  0.90007786092E+02  0.90000048069E+02 0.  0.
         12    1    1    2    0    0 -0.35712545980E+00  0.11225678279E+01 -0.72164710023E-01  0.11802139076E+01  0.00000000000E+00 0. -1.
         11    1    3    3    0    0 -0.78461999323E+01 -0.27289059122E+01  0.20277537334E+01  0.85511149168E+01  0.51100000000E-03 0. -1.
        -11    1    3    3    0    0 -0.16484434943E+02  0.34099921010E+02  0.95434932369E+01  0.39059179097E+02  0.51100000000E-03 0.  1.
         12    1    3    3    0    0  0.24687760335E+02 -0.32493582926E+02 -0.11499082260E+02  0.42397492079E+02  0.00000000000E+00 0. -1.
</event>
<event>
 7    1  0.4400431E-015  0.9000779E+02  0.7816164E-02  0.1186339E+00
        -11   -1    0    0    0    0  0.00000000000E+00  0.00000000000E+00  0.45593999997E+02  0.45594000000E+02  0.51100000000E-03 0.  1.
         11   -1    0    0    0    0 -0.00000000000E+00 -0.00000000000E+00 -0.45593999997E+02  0.45594000000E+02  0.51100000000E-03 0. -1.
    9900012    2    1    2    0    0 -0.55322795969E+00  0.89231760199E+00  0.53907724442E+00  0.90007789784E+02  0.90000051809E+02 0.  0.
         12    1    1    2    0    0  0.55322795969E+00 -0.89231760199E+00 -0.53907724442E+00  0.11802102159E+01  0.00000000000E+00 0. -1.
         11    1    3    3    0    0  0.12833865737E+01  0.35544480325E+01  0.71703268299E+01  0.81052309666E+01  0.51100000000E-03 0. -1.
        -11    1    3    3    0    0 -0.39243812795E+02  0.10504954974E+02  0.40653133302E+01  0.40828393238E+02  0.51100000000E-03 0.  1.
         12    1    3    3    0    0  0.37407198262E+02 -0.13167085404E+02 -0.10696562916E+02  0.41074165579E+02  0.00000000000E+00 0. -1.
</event>
<event>
 7    1  0.4400431E-015  0.9000771E+02  0.7816164E-02  0.1186339E+00
        -11   -1    0    0    0    0  0.00000000000E+00  0.00000000000E+00  0.45593999997E+02  0.45594000000E+02  0.51100000000E-03 0. -1.
         11   -1    0    0    0    0 -0.00000000000E+00 -0.00000000000E+00 -0.45593999997E+02  0.45594000000E+02  0.51100000000E-03 0.  1.
    9900012    2    1    2    0    0 -0.21048824822E+00 -0.12458443810E+00 -0.11546654951E+01  0.90007712327E+02  0.89999973330E+02 0.  0.
         12    1    1    2    0    0  0.21048824822E+00  0.12458443810E+00  0.11546654951E+01  0.11802876728E+01  0.00000000000E+00 0. -1.
         11    1    3    3    0    0 -0.66896092320E+00 -0.42948753994E+02 -0.43981897776E+01  0.43178548516E+02  0.51100000000E-03 0. -1.
        -11    1    3    3    0    0 -0.31154877005E+01  0.66970970158E+01  0.71948783120E+01  0.10311335812E+02  0.51100000000E-03 0.  1.
        -12    1    3    3    0    0  0.35739603755E+01  0.36127072540E+02 -0.39513540295E+01  0.36517827999E+02  0.00000000000E+00 0.  1.
</event>
<event>
 7    1  0.4400431E-015  0.9000778E+02  0.7816164E-02  0.1186339E+00
        -11   -1    0    0    0    0  0.00000000000E+00  0.00000000000E+00  0.45593999997E+02  0.45594000000E+02  0.51100000000E-03 0. -1.
         11   -1    0    0    0    0 -0.00000000000E+00 -0.00000000000E+00 -0.45593999997E+02  0.45594000000E+02  0.51100000000E-03 0.  1.
    9900012    2    1    2    0    0 -0.55049946873E+00 -0.97593859298E+00  0.37070178253E+00  0.90007777303E+02  0.90000039164E+02 0.  0.
         12    1    1    2    0    0  0.55049946873E+00  0.97593859298E+00 -0.37070178253E+00  0.11802226967E+01  0.00000000000E+00 0. -1.
         11    1    3    3    0    0  0.74338475560E+01  0.63212520913E+01  0.44939450886E+01  0.10743177380E+02  0.51100000000E-03 0. -1.
        -11    1    3    3    0    0 -0.14681176529E+02  0.25443924748E+02  0.22120322840E+02  0.36772801548E+02  0.51100000000E-03 0.  1.
         12    1    3    3    0    0  0.66968295046E+01 -0.32741115432E+02 -0.26243566146E+02  0.42491798376E+02  0.00000000000E+00 0. -1.
</event>
<event>
 7    1  0.4400431E-015  0.9000772E+02  0.7816164E-02  0.1186339E+00
        -11   -1    0    0    0    0  0.00000000000E+00  0.00000000000E+00  0.45593999997E+02  0.45594000000E+02  0.51100000000E-03 0.  1.
         11   -1    0    0    0    0 -0.00000000000E+00 -0.00000000000E+00 -0.45593999997E+02  0.45594000000E+02  0.51100000000E-03 0. -1.
    9900012    2    1    2    0    0 -0.75432000977E+00 -0.17831777649E+00 -0.89009627649E+00  0.90007717285E+02  0.89999978353E+02 0.  0.
         12    1    1    2    0    0  0.75432000977E+00  0.17831777649E+00  0.89009627649E+00  0.11802827153E+01  0.00000000000E+00 0. -1.
         11    1    3    3    0    0  0.19781818860E+02  0.66613803171E+01 -0.53094873325E+01  0.21537989719E+02  0.51100000000E-03 0. -1.
        -11    1    3    3    0    0 -0.96781328396E+01  0.13084215533E+02  0.30089491690E+02  0.34208777554E+02  0.51100000000E-03 0.  1.
         12    1    3    3    0    0 -0.10858006030E+02 -0.19923913627E+02 -0.25670100634E+02  0.34260950011E+02  0.00000000000E+00 0. -1.
</event>
<event>
 7    1  0.4400431E-015  0.9000785E+02  0.7816164E-02  0.1186339E+00
        -11   -1    0    0    0    0  0.00000000000E+00  0.00000000000E+00  0.45593999997E+02  0.45594000000E+02  0.51100000000E-03 0. -1.
         11   -1    0    0    0    0 -0.00000000000E+00 -0.00000000000E+00 -0.45593999997E+02  0.45594000000E+02  0.51100000000E-03 0.  1.
    9900012    2    1    2    0    0 -0.10682383225E+01  0.11704656823E+00 -0.48777266905E+00  0.90007849506E+02  0.90000112319E+02 0.  0.
         12    1    1    2    0    0  0.10682383225E+01 -0.11704656823E+00  0.48777266905E+00  0.11801504944E+01  0.00000000000E+00 0. -1.
         11    1    3    3    0    0 -0.36858364799E+02  0.54109556039E+01 -0.10484499738E+02  0.38700674816E+02  0.51100000000E-03 0. -1.
        -11    1    3    3    0    0 -0.25597958761E+01  0.16871303953E+01 -0.78561943304E+01  0.84331935538E+01  0.51100000000E-03 0.  1.
        -12    1    3    3    0    0  0.38349922352E+02 -0.69810394309E+01  0.17852921400E+02  0.42873981136E+02  0.00000000000E+00 0.  1.
</event>
<event>
 7    1  0.4400431E-015  0.9000766E+02  0.7816164E-02  0.1186339E+00
        -11   -1    0    0    0    0  0.00000000000E+00  0.00000000000E+00  0.45593999997E+02  0.45594000000E+02  0.51100000000E-03 0.  1.
         11   -1    0    0    0    0 -0.00000000000E+00 -0.00000000000E+00 -0.45593999997E+02  0.45594000000E+02  0.51100000000E-03 0. -1.
    9900012    2    1    2    0    0  0.35068566624E+00 -0.97838778169E+00  0.55944517788E+00  0.90007660221E+02  0.89999920535E+02 0.  0.
         12    1    1    2    0    0 -0.35068566624E+00  0.97838778169E+00 -0.55944517788E+00  0.11803397794E+01  0.00000000000E+00 0. -1.
         11    1    3    3    0    0 -0.69194440521E+01  0.22195835561E+02  0.33753220223E+02  0.40985530349E+02  0.51100000000E-03 0. -1.
        -11    1    3    3    0    0  0.10293847712E+02 -0.35321069739E+01 -0.66548613576E+00  0.10903300072E+02  0.51100000000E-03 0.  1.
        -12    1    3    3    0    0 -0.30237179937E+01 -0.19642116369E+02 -0.32528288909E+02  0.38118829800E+02  0.00000000000E+00 0.  1.
</event>
<event>
 7    1  0.4400431E-015  0.9000774E+02  0.7816164E-02  0.1186339E+00
        -11   -1    0    0    0    0  0.00000000000E+00  0.00000000000E+00  0.45593999997E+02  0.45594000000E+02  0.51100000000E-03 0. -1.
         11   -1    0    0    0    0 -0.00000000000E+00 -0.00000000000E+00 -0.45593999997E+02  0.45594000000E+02  0.51100000000E-03 0.  1.
    9900012    2    1    2    0    0  0.13510793004E+00 -0.47640438338E-01 -0.11715364016E+01  0.90007736765E+02  0.89999998090E+02 0.  0.
         12    1    1    2    0    0 -0.13510793004E+00  0.47640438338E-01  0.11715364016E+01  0.11802632353E+01  0.00000000000E+00 0. -1.
         11    1    3    3    0    0 -0.14002823060E+02 -0.18621170090E+02 -0.10907143279E+02  0.25725333894E+02  0.51100000000E-03 0. -1.
        -11    1    3    3    0    0 -0.22503159420E+02  0.14167440827E+02  0.52626660050E+01  0.27107272404E+02  0.51100000000E-03 0.  1.
         12    1    3    3    0    0  0.36641090410E+02  0.44060888255E+01  0.44729408729E+01  0.37175130467E+02  0.00000000000E+00 0. -1.
</event>
<event>
 7    1  0.4400431E-015  0.9000784E+02  0.7816164E-02  0.1186339E+00
        -11   -1    0    0    0    0  0.00000000000E+00  0.00000000000E+00  0.45593999997E+02  0.45594000000E+02  0.51100000000E-03 0. -1.
         11   -1    0    0    0    0 -0.00000000000E+00 -0.00000000000E+00 -0.45593999997E+02  0.45594000000E+02  0.51100000000E-03 0.  1.
    9900012    2    1    2    0    0 -0.94048504623E+00  0.60487558749E+00 -0.37735972201E+00  0.90007836046E+02  0.90000098682E+02 0.  0.
         12    1    1    2    0    0  0.94048504623E+00 -0.60487558749E+00  0.37735972201E+00  0.11801639540E+01  0.00000000000E+00 0. -1.
         11    1    3    3    0    0 -0.34396636101E+01  0.12394476577E+02  0.41989700609E+02  0.43915706676E+02  0.51100000000E-03 0. -1.
        -11    1    3    3    0    0  0.14404065027E+01  0.29014730588E+01 -0.10445641141E+02  0.10936395014E+02  0.51100000000E-03 0.  1.
        -12    1    3    3    0    0  0.10587720611E+01 -0.14691074048E+02 -0.31921419190E+02  0.35155734355E+02  0.00000000000E+00 0.  1.
</event>
<event>
 7    1  0.4400431E-015  0.9000779E+02  0.7816164E-02  0.1186339E+00
        -11   -1    0    0    0    0  0.00000000000E+00  0.00000000000E+00  0.45593999997E+02  0.45594000000E+02  0.51100000000E-03 0. -1.
         11   -1    0    0    0    0 -0.00000000000E+00 -0.00000000000E+00 -0.45593999997E+02  0.45594000000E+02  0.51100000000E-03 0.  1.
    9900012    2    1    2    0    0 -0.89405417219E-02 -0.10914743234E+01 -0.44889479259E+00  0.90007787025E+02  0.90000049014E+02 0.  0.
         12    1    1    2    0    0  0.89405417219E-02  0.10914743234E+01  0.44889479259E+00  0.11802129751E+01  0.00000000000E+00 0. -1.
         11    1    3    3    0    0  0.41664788122E+01 -0.30738484949E+01 -0.78565421654E+01  0.94092159779E+01  0.51100000000E-03 0. -1.
        -11    1    3    3    0    0 -0.22756558047E+02 -0.22337475851E+02 -0.21532392323E+02  0.38476846037E+02  0.51100000000E-03 0.  1.
         12    1    3    3    0    0  0.18581138693E+02  0.24319850023E+02  0.28940039695E+02  0.42121725010E+02  0.00000000000E+00 0. -1.
</event>
<event>
 7    1  0.4400431E-015  0.9000774E+02  0.7816164E-02  0.1186339E+00
        -11   -1    0    0    0    0  0.00000000000E+00  0.00000000000E+00  0.45593999997E+02  0.45594000000E+02  0.51100000000E-03 0.  1.
         11   -1    0    0    0    0 -0.00000000000E+00 -0.00000000000E+00 -0.45593999997E+02  0.45594000000E+02  0.51100000000E-03 0. -1.
    9900012    2    1    2    0    0 -0.92395180451E+00 -0.65439084574E+00 -0.33332592916E+00  0.90007737109E+02  0.89999998439E+02 0.  0.
         12    1    1    2    0    0  0.92395180451E+00  0.65439084574E+00  0.33332592916E+00  0.11802628907E+01  0.00000000000E+00 0. -1.
         11    1    3    3    0    0  0.62361474680E+01  0.54261562623E+01  0.18171556161E+01  0.84637321449E+01  0.51100000000E-03 0. -1.
        -11    1    3    3    0    0 -0.19373504881E+02  0.29145761513E+02  0.17794012787E+02  0.39261113037E+02  0.51100000000E-03 0.  1.
         12    1    3    3    0    0  0.12213405608E+02 -0.35226308621E+02 -0.19944494332E+02  0.42282891928E+02  0.00000000000E+00 0. -1.
</event>
<event>
 7    1  0.4400431E-015  0.9000676E+02  0.7816164E-02  0.1186341E+00
        -11   -1    0    0    0    0  0.00000000000E+00  0.00000000000E+00  0.45593999997E+02  0.45594000000E+02  0.51100000000E-03 0.  1.
         11   -1    0    0    0    0 -0.00000000000E+00 -0.00000000000E+00 -0.45593999997E+02  0.45594000000E+02  0.51100000000E-03 0. -1.
    9900012    2    1    2    0    0 -0.53836407179E+00 -0.85282335676E+00  0.61496075990E+00  0.90006763238E+02  0.89999011707E+02 0.  0.
         12    1    1    2    0    0  0.53836407179E+00  0.85282335676E+00 -0.61496075990E+00  0.11812367620E+01  0.00000000000E+00 0. -1.
         11    1    3    3    0    0 -0.33874519931E+02 -0.16569660790E+01 -0.17865697776E+02  0.38332907461E+02  0.51100000000E-03 0. -1.
        -11    1    3    3    0    0 -0.15314834649E+01 -0.10128415805E+02 -0.95013920838E+00  0.10287517343E+02  0.51100000000E-03 0.  1.
        -12    1    3    3    0    0  0.34867639324E+02  0.10932558527E+02  0.19430797744E+02  0.41386338434E+02  0.00000000000E+00 0.  1.
</event>
<event>
 7    1  0.4400431E-015  0.9000727E+02  0.7816164E-02  0.1186340E+00
        -11   -1    0    0    0    0  0.00000000000E+00  0.00000000000E+00  0.45593999997E+02  0.45594000000E+02  0.51100000000E-03 0.  1.
         11   -1    0    0    0    0 -0.00000000000E+00 -0.00000000000E+00 -0.45593999997E+02  0.45594000000E+02  0.51100000000E-03 0. -1.
    9900012    2    1    2    0    0  0.32322510480E+00  0.16338066482E+00  0.11238171218E+01  0.90007266062E+02  0.89999521172E+02 0.  0.
         12    1    1    2    0    0 -0.32322510480E+00 -0.16338066482E+00 -0.11238171218E+01  0.11807339384E+01  0.00000000000E+00 0. -1.
         11    1    3    3    0    0 -0.51640360002E+01  0.60136187709E+01  0.36998687868E+01  0.87475658234E+01  0.51100000000E-03 0. -1.
        -11    1    3    3    0    0  0.38620931212E+02  0.10084802204E+02  0.12043665946E+02  0.41693278269E+02  0.51100000000E-03 0.  1.
         12    1    3    3    0    0 -0.33133670107E+02 -0.15935040310E+02 -0.14619717611E+02  0.39566421969E+02  0.00000000000E+00 0. -1.
</event>
<event>
 7    1  0.4400431E-015  0.9000777E+02  0.7816164E-02  0.1186339E+00
        -11   -1    0    0    0    0  0.00000000000E+00  0.00000000000E+00  0.45593999997E+02  0.45594000000E+02  0.51100000000E-03 0. -1.
         11   -1    0    0    0    0 -0.00000000000E+00 -0.00000000000E+00 -0.45593999997E+02  0.45594000000E+02  0.51100000000E-03 0.  1.
    9900012    2    1    2    0    0 -0.79273545338E+00  0.81437210878E+00  0.31831276811E+00  0.90007765087E+02  0.90000026787E+02 0.  0.
         12    1    1    2    0    0  0.79273545338E+00 -0.81437210878E+00 -0.31831276811E+00  0.11802349126E+01  0.00000000000E+00 0. -1.
         11    1    3    3    0    0 -0.17457720973E+01  0.38724900286E+02  0.23922444036E+01  0.38837976980E+02  0.51100000000E-03 0. -1.
        -11    1    3    3    0    0 -0.75505908298E+01  0.38231649421E+01  0.67313282681E+00  0.84900600774E+01  0.51100000000E-03 0.  1.
        -12    1    3    3    0    0  0.85036274737E+01 -0.41733693119E+02 -0.27470644623E+01  0.42679728030E+02  0.00000000000E+00 0.  1.
</event>
<event>
 7    1  0.4400431E-015  0.9000786E+02  0.7816164E-02  0.1186339E+00
        -11   -1    0    0    0    0  0.00000000000E+00  0.00000000000E+00  0.45593999997E+02  0.45594000000E+02  0.51100000000E-03 0. -1.
         11   -1    0    0    0    0 -0.00000000000E+00 -0.00000000000E+00 -0.45593999997E+02  0.45594000000E+02  0.51100000000E-03 0.  1.
    9900012    2    1    2    0    0  0.90710725234E+00  0.71544951827E+00 -0.24089035212E+00  0.90007856050E+02  0.90000118950E+02 0.  0.
         12    1    1    2    0    0 -0.90710725234E+00 -0.71544951827E+00  0.24089035212E+00  0.11801439498E+01  0.00000000000E+00 0. -1.
         11    1    3    3    0    0  0.32826044738E+02 -0.66387229625E+01  0.10869062669E+02  0.35210202773E+02  0.51100000000E-03 0. -1.
        -11    1    3    3    0    0  0.94131129293E+01 -0.47791097802E+01 -0.28764701485E+01  0.10941693931E+02  0.51100000000E-03 0.  1.
        -12    1    3    3    0    0 -0.41332050415E+02  0.12133282261E+02 -0.82334828730E+01  0.43855959346E+02  0.00000000000E+00 0.  1.
</event>
<event>
 7    1  0.4400431E-015  0.9000783E+02  0.7816164E-02  0.1186339E+00
        -11   -1    0    0    0    0  0.00000000000E+00  0.00000000000E+00  0.45593999997E+02  0.45594000000E+02  0.51100000000E-03 0.  1.
         11   -1    0    0    0    0 -0.00000000000E+00 -0.00000000000E+00 -0.45593999997E+02  0.45594000000E+02  0.51100000000E-03 0. -1.
    9900012    2    1    2    0    0 -0.10131911576E+00  0.30700910781E+00  0.11350199229E+01  0.90007834596E+02  0.90000097213E+02 0.  0.
         12    1    1    2    0    0  0.10131911576E+00 -0.30700910781E+00 -0.11350199229E+01  0.11801654040E+01  0.00000000000E+00 0. -1.
         11    1    3    3    0    0 -0.32297479936E+02 -0.22816964928E+02 -0.75544312224E+01  0.40259291227E+02  0.51100000000E-03 0. -1.
        -11    1    3    3    0    0 -0.41899086940E+01  0.88563387337E+01  0.46062221068E+00  0.98082742474E+01  0.51100000000E-03 0.  1.
        -12    1    3    3    0    0  0.36386069515E+02  0.14267635302E+02  0.82288289346E+01  0.39940269121E+02  0.00000000000E+00 0.  1.
</event>
<event>
 7    1  0.4400431E-015  0.9000756E+02  0.7816164E-02  0.1186339E+00
        -11   -1    0    0    0    0  0.00000000000E+00  0.00000000000E+00  0.45593999997E+02  0.45594000000E+02  0.51100000000E-03 0.  1.
         11   -1    0    0    0    0 -0.00000000000E+00 -0.00000000000E+00 -0.45593999997E+02  0.45594000000E+02  0.51100000000E-03 0. -1.
    9900012    2    1    2    0    0  0.10163245347E+01 -0.51227341268E+00  0.31320534333E+00  0.90007560592E+02  0.89999819592E+02 0.  0.
         12    1    1    2    0    0 -0.10163245347E+01  0.51227341268E+00 -0.31320534333E+00  0.11804394081E+01  0.00000000000E+00 0. -1.
         11    1    3    3    0    0 -0.24845497423E+02  0.14072906208E+02 -0.27270296098E+02  0.39484357420E+02  0.51100000000E-03 0. -1.
        -11    1    3    3    0    0 -0.50907606967E+01  0.76275323931E+00  0.11116991290E+02  0.12250923744E+02  0.51100000000E-03 0.  1.
        -12    1    3    3    0    0  0.30952582654E+02 -0.15347932860E+02  0.16466510151E+02  0.38272279428E+02  0.00000000000E+00 0.  1.
</event>
<event>
 7    1  0.4400431E-015  0.9000884E+02  0.7816164E-02  0.1186337E+00
        -11   -1    0    0    0    0  0.00000000000E+00  0.00000000000E+00  0.45593999997E+02  0.45594000000E+02  0.51100000000E-03 0. -1.
         11   -1    0    0    0    0 -0.00000000000E+00 -0.00000000000E+00 -0.45593999997E+02  0.45594000000E+02  0.51100000000E-03 0.  1.
    9900012    2    1    2    0    0  0.70893595135E+00 -0.86403819229E+00 -0.37586584008E+00  0.90008836182E+02  0.90001112012E+02 0.  0.
         12    1    1    2    0    0 -0.70893595135E+00  0.86403819229E+00  0.37586584008E+00  0.11791638184E+01  0.00000000000E+00 0. -1.
         11    1    3    3    0    0  0.44991695308E+01  0.35587420042E+02  0.12380335149E+02  0.37947064318E+02  0.51100000000E-03 0. -1.
        -11    1    3    3    0    0 -0.23968444183E+01  0.62233658504E+01 -0.57248092413E+01  0.87891175202E+01  0.51100000000E-03 0.  1.
        -12    1    3    3    0    0 -0.13933891612E+01 -0.42674824084E+02 -0.70313917482E+01  0.43272654343E+02  0.00000000000E+00 0.  1.
</event>
<event>
 7    1  0.4400431E-015  0.9000825E+02  0.7816164E-02  0.1186338E+00
        -11   -1    0    0    0    0  0.00000000000E+00  0.00000000000E+00  0.45593999997E+02  0.45594000000E+02  0.51100000000E-03 0. -1.
         11   -1    0    0    0    0 -0.00000000000E+00 -0.00000000000E+00 -0.45593999997E+02  0.45594000000E+02  0.51100000000E-03 0.  1.
    9900012    2    1    2    0    0 -0.69809391603E+00  0.32628725006E+00 -0.89331412336E+00  0.90008250616E+02  0.90000518723E+02 0.  0.
         12    1    1    2    0    0  0.69809391603E+00 -0.32628725006E+00  0.89331412336E+00  0.11797493836E+01  0.00000000000E+00 0. -1.
         11    1    3    3    0    0 -0.32831500406E+02  0.24410616789E+02  0.44359051418E+01  0.41151705744E+02  0.51100000000E-03 0. -1.
        -11    1    3    3    0    0 -0.40149557343E+01 -0.52020040584E+01 -0.46818610485E+01  0.80684904976E+01  0.51100000000E-03 0.  1.
        -12    1    3    3    0    0  0.36148362224E+02 -0.18882325481E+02 -0.64735821670E+00  0.40788054375E+02  0.00000000000E+00 0.  1.
</event>
<event>
 7    1  0.4400431E-015  0.9000815E+02  0.7816164E-02  0.1186338E+00
        -11   -1    0    0    0    0  0.00000000000E+00  0.00000000000E+00  0.45593999997E+02  0.45594000000E+02  0.51100000000E-03 0.  1.
         11   -1    0    0    0    0 -0.00000000000E+00 -0.00000000000E+00 -0.45593999997E+02  0.45594000000E+02  0.51100000000E-03 0. -1.
    9900012    2    1    2    0    0 -0.65539674496E+00  0.85985451395E+00  0.47239425416E+00  0.90008147886E+02  0.90000414638E+02 0.  0.
         12    1    1    2    0    0  0.65539674496E+00 -0.85985451395E+00 -0.47239425416E+00  0.11798521135E+01  0.00000000000E+00 0. -1.
         11    1    3    3    0    0 -0.28113937805E+01  0.43596191146E+01 -0.20091297252E+02  0.20750191308E+02  0.51100000000E-03 0. -1.
        -11    1    3    3    0    0 -0.29398691387E+02 -0.12887218947E+02  0.16484752028E+02  0.36084768492E+02  0.51100000000E-03 0.  1.
         12    1    3    3    0    0  0.31554688422E+02  0.93874543461E+01  0.40789394781E+01  0.33173188086E+02  0.00000000000E+00 0. -1.
</event>
<event>
 7    1  0.4400431E-015  0.9000773E+02  0.7816164E-02  0.1186339E+00
        -11   -1    0    0    0    0  0.00000000000E+00  0.00000000000E+00  0.45593999997E+02  0.45594000000E+02  0.51100000000E-03 0. -1.
         11   -1    0    0    0    0 -0.00000000000E+00 -0.00000000000E+00 -0.45593999997E+02  0.45594000000E+02  0.51100000000E-03 0.  1.
    9900012    2    1    2    0    0  0.58252392897E+00  0.70575610274E+00 -0.74540032672E+00  0.90007725688E+02  0.89999986867E+02 0.  0.
         12    1    1    2    0    0 -0.58252392897E+00 -0.70575610274E+00  0.74540032672E+00  0.11802743119E+01  0.00000000000E+00 0. -1.
         11    1    3    3    0    0  0.18650860360E+02  0.23193491059E+02 -0.10035061204E+02  0.31408519120E+02  0.51100000000E-03 0. -1.
        -11    1    3    3    0    0  0.48713908011E+01 -0.32446831332E+02  0.63421802938E+01  0.33417818046E+02  0.51100000000E-03 0.  1.
         12    1    3    3    0    0 -0.22939727232E+02  0.99590963759E+01  0.29474805831E+01  0.25181388522E+02  0.00000000000E+00 0. -1.
</event>
<event>
 7    1  0.4400431E-015  0.9000779E+02  0.7816164E-02  0.1186339E+00
        -11   -1    0    0    0    0  0.00000000000E+00  0.00000000000E+00  0.45593999997E+02  0.45594000000E+02  0.51100000000E-03 0.  1.
         11   -1    0    0    0    0 -0.00000000000E+00 -0.00000000000E+00 -0.45593999997E+02  0.45594000000E+02  0.51100000000E-03 0. -1.
    9900012    2    1    2    0    0  0.51138257274E-01  0.68954695133E+00  0.95644856148E+00  0.90007794946E+02  0.90000057039E+02 0.  0.
         12    1    1    2    0    0 -0.51138257274E-01 -0.68954695133E+00 -0.95644856148E+00  0.11802050543E+01  0.00000000000E+00 0. -1.
         11    1    3    3    0    0  0.30286496056E+01 -0.84833772571E+01  0.32049999770E+01  0.95609849510E+01  0.51100000000E-03 0. -1.
        -11    1    3    3    0    0 -0.14424423438E+02 -0.26496881474E+02  0.20633392782E+02  0.36549769046E+02  0.51100000000E-03 0.  1.
         12    1    3    3    0    0  0.11446912089E+02  0.35669805682E+02 -0.22881944197E+02  0.43897040949E+02  0.00000000000E+00 0. -1.
</event>
<event>
 7    1  0.4400431E-015  0.9000776E+02  0.7816164E-02  0.1186339E+00
        -11   -1    0    0    0    0  0.00000000000E+00  0.00000000000E+00  0.45593999997E+02  0.45594000000E+02  0.51100000000E-03 0.  1.
         11   -1    0    0    0    0 -0.00000000000E+00 -0.00000000000E+00 -0.45593999997E+02  0.45594000000E+02  0.51100000000E-03 0. -1.
    9900012    2    1    2    0    0  0.45407746533E+00 -0.89851701365E+00  0.61599533912E+00  0.90007758742E+02  0.90000020358E+02 0.  0.
         12    1    1    2    0    0 -0.45407746533E+00  0.89851701365E+00 -0.61599533912E+00  0.11802412576E+01  0.00000000000E+00 0. -1.
         11    1    3    3    0    0  0.53992172594E+01  0.40427485853E+01  0.78886987396E+01  0.10379158502E+02  0.51100000000E-03 0. -1.
        -11    1    3    3    0    0 -0.11514179037E+02 -0.60364479502E+01  0.34739190860E+02  0.37092133999E+02  0.51100000000E-03 0.  1.
         12    1    3    3    0    0  0.65690392429E+01  0.10951823512E+01 -0.42011894260E+02  0.42536466241E+02  0.00000000000E+00 0. -1.
</event>
<event>
 7    1  0.4400431E-015  0.9000775E+02  0.7816164E-02  0.1186339E+00
        -11   -1    0    0    0    0  0.00000000000E+00  0.00000000000E+00  0.45593999997E+02  0.45594000000E+02  0.51100000000E-03 0.  1.
         11   -1    0    0    0    0 -0.00000000000E+00 -0.00000000000E+00 -0.45593999997E+02  0.45594000000E+02  0.51100000000E-03 0. -1.
    9900012    2    1    2    0    0  0.49775406710E+00  0.10451151730E+01  0.23013135783E+00  0.90007752027E+02  0.90000013554E+02 0.  0.
         12    1    1    2    0    0 -0.49775406710E+00 -0.10451151730E+01 -0.23013135783E+00  0.11802479731E+01  0.00000000000E+00 0. -1.
         11    1    3    3    0    0  0.40271912345E+01 -0.27777188684E+01 -0.10047682473E+02  0.11175415638E+02  0.51100000000E-03 0. -1.
        -11    1    3    3    0    0  0.63057236698E+01 -0.34605763317E+02 -0.64855263097E+01  0.35768464567E+02  0.51100000000E-03 0.  1.
         12    1    3    3    0    0 -0.98351608372E+01  0.38428597358E+02  0.16763340140E+02  0.43063871822E+02  0.00000000000E+00 0. -1.
</event>
<event>
 7    1  0.4400431E-015  0.9000781E+02  0.7816164E-02  0.1186339E+00
        -11   -1    0    0    0    0  0.00000000000E+00  0.00000000000E+00  0.45593999997E+02  0.45594000000E+02  0.51100000000E-03 0.  1.
         11   -1    0    0    0    0 -0.00000000000E+00 -0.00000000000E+00 -0.45593999997E+02  0.45594000000E+02  0.51100000000E-03 0. -1.
    9900012    2    1    2    0    0  0.11210377539E+01 -0.36650572691E+00  0.42365770439E-01  0.90007810629E+02  0.90000072929E+02 0.  0.
         12    1    1    2    0    0 -0.11210377539E+01  0.36650572691E+00 -0.42365770439E-01  0.11801893713E+01  0.00000000000E+00 0. -1.
         11    1    3    3    0    0  0.39084816774E+01 -0.60288488992E+01  0.56693019350E+01  0.91522801947E+01  0.51100000000E-03 0. -1.
        -11    1    3    3    0    0  0.10381520381E+02  0.28897444749E+02  0.25448223803E+02  0.39880451018E+02  0.51100000000E-03 0.  1.
         12    1    3    3    0    0 -0.13168964305E+02 -0.23235101577E+02 -0.31075159967E+02  0.40975079416E+02  0.00000000000E+00 0. -1.
</event>
<event>
 7    1  0.4400431E-015  0.9000779E+02  0.7816164E-02  0.1186339E+00
        -11   -1    0    0    0    0  0.00000000000E+00  0.00000000000E+00  0.45593999997E+02  0.45594000000E+02  0.51100000000E-03 0.  1.
         11   -1    0    0    0    0 -0.00000000000E+00 -0.00000000000E+00 -0.45593999997E+02  0.45594000000E+02  0.51100000000E-03 0. -1.
    9900012    2    1    2    0    0 -0.12502154634E+00  0.27594701155E-01  0.11732412532E+01  0.90007793708E+02  0.90000055784E+02 0.  0.
         12    1    1    2    0    0  0.12502154634E+00 -0.27594701155E-01 -0.11732412532E+01  0.11802062925E+01  0.00000000000E+00 0. -1.
         11    1    3    3    0    0 -0.32685473706E+02  0.99069657619E+01  0.19916143585E+02  0.39536577211E+02  0.51100000000E-03 0. -1.
        -11    1    3    3    0    0 -0.11042775698E+01  0.84302029938E+01 -0.41974138660E+01  0.94818792911E+01  0.51100000000E-03 0.  1.
        -12    1    3    3    0    0  0.33664729729E+02 -0.18309574055E+02 -0.14545488466E+02  0.40989337205E+02  0.00000000000E+00 0.  1.
</event>
<event>
 7    1  0.4400431E-015  0.9000780E+02  0.7816164E-02  0.1186339E+00
        -11   -1    0    0    0    0  0.00000000000E+00  0.00000000000E+00  0.45593999997E+02  0.45594000000E+02  0.51100000000E-03 0.  1.
         11   -1    0    0    0    0 -0.00000000000E+00 -0.00000000000E+00 -0.45593999997E+02  0.45594000000E+02  0.51100000000E-03 0. -1.
    9900012    2    1    2    0    0  0.10991849985E+01 -0.39372369387E+00  0.17218922628E+00  0.90007798688E+02  0.90000060830E+02 0.  0.
         12    1    1    2    0    0 -0.10991849985E+01  0.39372369387E+00 -0.17218922628E+00  0.11802013123E+01  0.00000000000E+00 0. -1.
         11    1    3    3    0    0  0.78904650229E+01 -0.37381177856E+01 -0.61906362547E+01  0.10703127597E+02  0.51100000000E-03 0. -1.
        -11    1    3    3    0    0  0.21371809129E+02 -0.23713501743E+02 -0.14460113082E+02  0.35045388583E+02  0.51100000000E-03 0.  1.
         12    1    3    3    0    0 -0.28163089153E+02  0.27057895835E+02  0.20822938563E+02  0.44259282507E+02  0.00000000000E+00 0. -1.
</event>
<event>
 7    1  0.4400431E-015  0.9000759E+02  0.7816164E-02  0.1186339E+00
        -11   -1    0    0    0    0  0.00000000000E+00  0.00000000000E+00  0.45593999997E+02  0.45594000000E+02  0.51100000000E-03 0. -1.
         11   -1    0    0    0    0 -0.00000000000E+00 -0.00000000000E+00 -0.45593999997E+02  0.45594000000E+02  0.51100000000E-03 0.  1.
    9900012    2    1    2    0    0 -0.13382322396E+00  0.91793262405E-01 -0.11692060214E+01  0.90007585929E+02  0.89999845263E+02 0.  0.
         12    1    1    2    0    0  0.13382322396E+00 -0.91793262405E-01  0.11692060214E+01  0.11804140709E+01  0.00000000000E+00 0. -1.
         11    1    3    3    0    0  0.99401308452E+01  0.40219975998E+02  0.72648730154E+01  0.42062228314E+02  0.51100000000E-03 0. -1.
        -11    1    3    3    0    0 -0.50373573598E+01  0.81044383752E+00 -0.39551323073E+01  0.64556068819E+01  0.51100000000E-03 0.  1.
        -12    1    3    3    0    0 -0.50365967093E+01 -0.40938626573E+02 -0.44789467295E+01  0.41489750734E+02  0.00000000000E+00 0.  1.
</event>
<event>
 7    1  0.4400431E-015  0.9000772E+02  0.7816164E-02  0.1186339E+00
        -11   -1    0    0    0    0  0.00000000000E+00  0.00000000000E+00  0.45593999997E+02  0.45594000000E+02  0.51100000000E-03 0.  1.
         11   -1    0    0    0    0 -0.00000000000E+00 -0.00000000000E+00 -0.45593999997E+02  0.45594000000E+02  0.51100000000E-03 0. -1.
    9900012    2    1    2    0    0 -0.71472968716E+00  0.22992136400E+00  0.91069770015E+00  0.90007715009E+02  0.89999976047E+02 0.  0.
         12    1    1    2    0    0  0.71472968716E+00 -0.22992136400E+00 -0.91069770015E+00  0.11802849912E+01  0.00000000000E+00 0. -1.
         11    1    3    3    0    0  0.24669681051E+02 -0.17862618622E+02 -0.28174501252E+02  0.41490587225E+02  0.51100000000E-03 0. -1.
        -11    1    3    3    0    0 -0.31507051047E+01  0.48497992825E+01 -0.36115259947E+01  0.68184027462E+01  0.51100000000E-03 0.  1.
        -12    1    3    3    0    0 -0.22233705634E+02  0.13242740703E+02  0.32696724947E+02  0.41698725038E+02  0.00000000000E+00 0.  1.
</event>
<event>
 7    1  0.4400431E-015  0.9000779E+02  0.7816164E-02  0.1186339E+00
        -11   -1    0    0    0    0  0.00000000000E+00  0.00000000000E+00  0.45593999997E+02  0.45594000000E+02  0.51100000000E-03 0.  1.
         11   -1    0    0    0    0 -0.00000000000E+00 -0.00000000000E+00 -0.45593999997E+02  0.45594000000E+02  0.51100000000E-03 0. -1.
    9900012    2    1    2    0    0 -0.51943932425E+00 -0.98457466271E+00  0.39202272254E+00  0.90007793962E+02  0.90000056042E+02 0.  0.
         12    1    1    2    0    0  0.51943932425E+00  0.98457466271E+00 -0.39202272254E+00  0.11802060384E+01  0.00000000000E+00 0. -1.
         11    1    3    3    0    0  0.33664361179E+02 -0.23866007738E+01 -0.22894434945E+02  0.40781616306E+02  0.51100000000E-03 0. -1.
        -11    1    3    3    0    0  0.21073340319E+01  0.57979860333E+01  0.66229454245E+01  0.90510168004E+01  0.51100000000E-03 0.  1.
        -12    1    3    3    0    0 -0.36291134535E+02 -0.43959599223E+01  0.16663512243E+02  0.40175160855E+02  0.00000000000E+00 0.  1.
</event>
<event>
 7    1  0.4400431E-015  0.9000774E+02  0.7816164E-02  0.1186339E+00
        -11   -1    0    0    0    0  0.00000000000E+00  0.00000000000E+00  0.45593999997E+02  0.45594000000E+02  0.51100000000E-03 0. -1.
         11   -1    0    0    0    0 -0.00000000000E+00 -0.00000000000E+00 -0.45593999997E+02  0.45594000000E+02  0.51100000000E-03 0.  1.
    9900012    2    1    2    0    0 -0.70594974028E+00 -0.69167774484E+00 -0.64515844814E+00  0.90007740468E+02  0.90000001843E+02 0.  0.
         12    1    1    2    0    0  0.70594974028E+00  0.69167774484E+00  0.64515844814E+00  0.11802595315E+01  0.00000000000E+00 0. -1.
         11    1    3    3    0    0  0.83771279997E+01 -0.57437682722E+01 -0.16603410439E+01  0.10291932769E+02  0.51100000000E-03 0. -1.
        -11    1    3    3    0    0 -0.10287187490E+02  0.37182589718E+01 -0.38569366321E+02  0.40090493822E+02  0.51100000000E-03 0.  1.
         12    1    3    3    0    0  0.12041097498E+01  0.13338315556E+01  0.39584548917E+02  0.39625313877E+02  0.00000000000E+00 0. -1.
</event>
<event>
 7    1  0.4400431E-015  0.9000779E+02  0.7816164E-02  0.1186339E+00
        -11   -1    0    0    0    0  0.00000000000E+00  0.00000000000E+00  0.45593999997E+02  0.45594000000E+02  0.51100000000E-03 0.  1.
         11   -1    0    0    0    0 -0.00000000000E+00 -0.00000000000E+00 -0.45593999997E+02  0.45594000000E+02  0.51100000000E-03 0. -1.
    9900012    2    1    2    0    0 -0.18084651598E+00  0.35984057389E+00  0.11093734865E+01  0.90007788056E+02  0.90000050058E+02 0.  0.
         12    1    1    2    0    0  0.18084651598E+00 -0.35984057389E+00 -0.11093734865E+01  0.11802119443E+01  0.00000000000E+00 0. -1.
         11    1    3    3    0    0 -0.23300365737E+02 -0.22623919390E+02 -0.28804333241E+02  0.43410118472E+02  0.51100000000E-03 0. -1.
        -11    1    3    3    0    0  0.85463410120E+01  0.20260721699E+01  0.24838104624E+01  0.91276627790E+01  0.51100000000E-03 0.  1.
        -12    1    3    3    0    0  0.14573178209E+02  0.20957687794E+02  0.27429896265E+02  0.37470006804E+02  0.00000000000E+00 0.  1.
</event>
<event>
 7    1  0.4400431E-015  0.9000773E+02  0.7816164E-02  0.1186339E+00
        -11   -1    0    0    0    0  0.00000000000E+00  0.00000000000E+00  0.45593999997E+02  0.45594000000E+02  0.51100000000E-03 0. -1.
         11   -1    0    0    0    0 -0.00000000000E+00 -0.00000000000E+00 -0.45593999997E+02  0.45594000000E+02  0.51100000000E-03 0.  1.
    9900012    2    1    2    0    0 -0.44427458566E+00  0.93192433232E+00  0.57198953840E+00  0.90007731005E+02  0.89999992254E+02 0.  0.
         12    1    1    2    0    0  0.44427458566E+00 -0.93192433232E+00 -0.57198953840E+00  0.11802689950E+01  0.00000000000E+00 0. -1.
         11    1    3    3    0    0  0.85108273032E+01  0.35048130079E+01 -0.74236836423E+01  0.11824930219E+02  0.51100000000E-03 0. -1.
        -11    1    3    3    0    0 -0.11704733233E+02 -0.36966090480E+02 -0.88727644938E+01  0.39777111201E+02  0.51100000000E-03 0.  1.
         12    1    3    3    0    0  0.27496313446E+01  0.34393201805E+02  0.16868437675E+02  0.38405689585E+02  0.00000000000E+00 0. -1.
</event>
<event>
 7    1  0.4400431E-015  0.9000777E+02  0.7816164E-02  0.1186339E+00
        -11   -1    0    0    0    0  0.00000000000E+00  0.00000000000E+00  0.45593999997E+02  0.45594000000E+02  0.51100000000E-03 0. -1.
         11   -1    0    0    0    0 -0.00000000000E+00 -0.00000000000E+00 -0.45593999997E+02  0.45594000000E+02  0.51100000000E-03 0.  1.
    9900012    2    1    2    0    0 -0.12812230269E+00  0.47958495620E+00  0.10707541045E+01  0.90007774849E+02  0.90000036677E+02 0.  0.
         12    1    1    2    0    0  0.12812230269E+00 -0.47958495620E+00 -0.10707541045E+01  0.11802251510E+01  0.00000000000E+00 0. -1.
         11    1    3    3    0    0 -0.96476176067E+01  0.41726681933E+02  0.88450936939E+01  0.43731318221E+02  0.51100000000E-03 0. -1.
        -11    1    3    3    0    0 -0.47151015332E+01 -0.67820332744E+01 -0.24042878448E+01  0.86028343065E+01  0.51100000000E-03 0.  1.
        -12    1    3    3    0    0  0.14234596837E+02 -0.34465063702E+02 -0.53700517446E+01  0.37673622322E+02  0.00000000000E+00 0.  1.
</event>
<event>
 7    1  0.4400431E-015  0.9000776E+02  0.7816164E-02  0.1186339E+00
        -11   -1    0    0    0    0  0.00000000000E+00  0.00000000000E+00  0.45593999997E+02  0.45594000000E+02  0.51100000000E-03 0.  1.
         11   -1    0    0    0    0 -0.00000000000E+00 -0.00000000000E+00 -0.45593999997E+02  0.45594000000E+02  0.51100000000E-03 0. -1.
    9900012    2    1    2    0    0  0.99143246795E+00  0.16436078316E-01  0.64012110133E+00  0.90007761250E+02  0.90000022898E+02 0.  0.
         12    1    1    2    0    0 -0.99143246795E+00 -0.16436078316E-01 -0.64012110133E+00  0.11802387502E+01  0.00000000000E+00 0. -1.
         11    1    3    3    0    0 -0.27350317369E+02  0.26618960719E+02 -0.52343402267E+01  0.38522814640E+02  0.51100000000E-03 0. -1.
        -11    1    3    3    0    0 -0.37369921046E+01  0.46543622435E+01 -0.13434416738E+01  0.61182541362E+01  0.51100000000E-03 0.  1.
        -12    1    3    3    0    0  0.32078741942E+02 -0.31256886884E+02  0.72179030018E+01  0.45366692473E+02  0.00000000000E+00 0.  1.
</event>
<event>
 7    1  0.4400431E-015  0.9000759E+02  0.7816164E-02  0.1186339E+00
        -11   -1    0    0    0    0  0.00000000000E+00  0.00000000000E+00  0.45593999997E+02  0.45594000000E+02  0.51100000000E-03 0.  1.
         11   -1    0    0    0    0 -0.00000000000E+00 -0.00000000000E+00 -0.45593999997E+02  0.45594000000E+02  0.51100000000E-03 0. -1.
    9900012    2    1    2    0    0  0.55941128719E+00  0.10182216112E+01 -0.20893022782E+00  0.90007589869E+02  0.89999849255E+02 0.  0.
         12    1    1    2    0    0 -0.55941128719E+00 -0.10182216112E+01  0.20893022782E+00  0.11804101312E+01  0.00000000000E+00 0. -1.
         11    1    3    3    0    0  0.76303528216E+01  0.64579156654E+00  0.28762220289E+01  0.81799745935E+01  0.51100000000E-03 0. -1.
        -11    1    3    3    0    0 -0.16345558772E+02  0.31627717045E+02  0.20963438430E+02  0.41315318323E+02  0.51100000000E-03 0.  1.
         12    1    3    3    0    0  0.92746172380E+01 -0.31255287000E+02 -0.24048590687E+02  0.40512296953E+02  0.00000000000E+00 0. -1.
</event>
<event>
 7    1  0.4400431E-015  0.9000776E+02  0.7816164E-02  0.1186339E+00
        -11   -1    0    0    0    0  0.00000000000E+00  0.00000000000E+00  0.45593999997E+02  0.45594000000E+02  0.51100000000E-03 0.  1.
         11   -1    0    0    0    0 -0.00000000000E+00 -0.00000000000E+00 -0.45593999997E+02  0.45594000000E+02  0.51100000000E-03 0. -1.
    9900012    2    1    2    0    0  0.22422209198E+00  0.91883241677E+00  0.70600542343E+00  0.90007757561E+02  0.90000019161E+02 0.  0.
         12    1    1    2    0    0 -0.22422209198E+00 -0.91883241677E+00 -0.70600542343E+00  0.11802424389E+01  0.00000000000E+00 0. -1.
         11    1    3    3    0    0  0.19246603409E+01  0.14254253170E+02  0.13167918176E+02  0.19500823578E+02  0.51100000000E-03 0. -1.
        -11    1    3    3    0    0 -0.10046650812E+02  0.93776527348E+00  0.26406079498E+02  0.28268279589E+02  0.51100000000E-03 0.  1.
         12    1    3    3    0    0  0.83462125629E+01 -0.14273186027E+02 -0.38867992250E+02  0.42238654394E+02  0.00000000000E+00 0. -1.
</event>
<event>
 7    1  0.4400431E-015  0.9000774E+02  0.7816164E-02  0.1186339E+00
        -11   -1    0    0    0    0  0.00000000000E+00  0.00000000000E+00  0.45593999997E+02  0.45594000000E+02  0.51100000000E-03 0.  1.
         11   -1    0    0    0    0 -0.00000000000E+00 -0.00000000000E+00 -0.45593999997E+02  0.45594000000E+02  0.51100000000E-03 0. -1.
    9900012    2    1    2    0    0 -0.92835135511E-01  0.10965714876E+01  0.42654121445E+00  0.90007735285E+02  0.89999996591E+02 0.  0.
         12    1    1    2    0    0  0.92835135511E-01 -0.10965714876E+01 -0.42654121445E+00  0.11802647150E+01  0.00000000000E+00 0. -1.
         11    1    3    3    0    0  0.35838262035E+01  0.23194404044E+01  0.10067437801E+02  0.10935123144E+02  0.51100000000E-03 0. -1.
        -11    1    3    3    0    0  0.13764791802E+02 -0.36924682338E+01  0.31360756173E+02  0.34447073069E+02  0.51100000000E-03 0.  1.
         12    1    3    3    0    0 -0.17441453141E+02  0.24695993171E+01 -0.41001652759E+02  0.44625539072E+02  0.00000000000E+00 0. -1.
</event>
<event>
 7    1  0.4400431E-015  0.9000774E+02  0.7816164E-02  0.1186339E+00
        -11   -1    0    0    0    0  0.00000000000E+00  0.00000000000E+00  0.45593999997E+02  0.45594000000E+02  0.51100000000E-03 0.  1.
         11   -1    0    0    0    0 -0.00000000000E+00 -0.00000000000E+00 -0.45593999997E+02  0.45594000000E+02  0.51100000000E-03 0. -1.
    9900012    2    1    2    0    0  0.10621252148E+01  0.45607060917E+00 -0.23852377296E+00  0.90007744111E+02  0.90000005534E+02 0.  0.
         12    1    1    2    0    0 -0.10621252148E+01 -0.45607060917E+00  0.23852377296E+00  0.11802558886E+01  0.00000000000E+00 0. -1.
         11    1    3    3    0    0  0.28593340697E+02  0.12850498274E+01 -0.26212371434E+02  0.38811324400E+02  0.51100000000E-03 0. -1.
        -11    1    3    3    0    0 -0.20145015907E+02 -0.13581985499E+02  0.38288964234E+01  0.24595781022E+02  0.51100000000E-03 0.  1.
        -12    1    3    3    0    0 -0.73861995751E+01  0.12753006281E+02  0.22144951238E+02  0.26600638689E+02  0.00000000000E+00 0.  1.
</event>
<event>
 7    1  0.4400431E-015  0.9000763E+02  0.7816164E-02  0.1186339E+00
        -11   -1    0    0    0    0  0.00000000000E+00  0.00000000000E+00  0.45593999997E+02  0.45594000000E+02  0.51100000000E-03 0.  1.
         11   -1    0    0    0    0 -0.00000000000E+00 -0.00000000000E+00 -0.45593999997E+02  0.45594000000E+02  0.51100000000E-03 0. -1.
    9900012    2    1    2    0    0  0.10197344039E+01 -0.52813918077E+00  0.27291679690E+00  0.90007630216E+02  0.89999890135E+02 0.  0.
         12    1    1    2    0    0 -0.10197344039E+01  0.52813918077E+00 -0.27291679690E+00  0.11803697839E+01  0.00000000000E+00 0. -1.
         11    1    3    3    0    0  0.80874110687E+01  0.31603401856E+01 -0.37009191625E+01  0.94387907484E+01  0.51100000000E-03 0. -1.
        -11    1    3    3    0    0  0.17676202882E+02 -0.33658467245E+01  0.35910805149E+02  0.40166690170E+02  0.51100000000E-03 0.  1.
         12    1    3    3    0    0 -0.24743879547E+02 -0.32263264185E+00 -0.31936969190E+02  0.40402149298E+02  0.00000000000E+00 0. -1.
</event>
<event>
 7    1  0.4400431E-015  0.9000776E+02  0.7816164E-02  0.1186339E+00
        -11   -1    0    0    0    0  0.00000000000E+00  0.00000000000E+00  0.45593999997E+02  0.45594000000E+02  0.51100000000E-03 0. -1.
         11   -1    0    0    0    0 -0.00000000000E+00 -0.00000000000E+00 -0.45593999997E+02  0.45594000000E+02  0.51100000000E-03 0.  1.
    9900012    2    1    2    0    0  0.47672434655E-01 -0.70176483499E+00  0.94774286129E+00  0.90007761433E+02  0.90000023084E+02 0.  0.
         12    1    1    2    0    0 -0.47672434655E-01  0.70176483499E+00 -0.94774286129E+00  0.11802385673E+01  0.00000000000E+00 0. -1.
         11    1    3    3    0    0 -0.32117998111E+02  0.34928961230E+01 -0.21461212669E+02  0.38785948170E+02  0.51100000000E-03 0. -1.
        -11    1    3    3    0    0  0.14827652869E+00  0.70091398319E+01 -0.41441063533E+01  0.81439330081E+01  0.51100000000E-03 0.  1.
        -12    1    3    3    0    0  0.32017394017E+02 -0.11203800790E+02  0.26553061883E+02  0.43077880254E+02  0.00000000000E+00 0.  1.
</event>
<event>
 7    1  0.4400431E-015  0.9000814E+02  0.7816164E-02  0.1186338E+00
        -11   -1    0    0    0    0  0.00000000000E+00  0.00000000000E+00  0.45593999997E+02  0.45594000000E+02  0.51100000000E-03 0.  1.
         11   -1    0    0    0    0 -0.00000000000E+00 -0.00000000000E+00 -0.45593999997E+02  0.45594000000E+02  0.51100000000E-03 0. -1.
    9900012    2    1    2    0    0  0.14825501447E+00 -0.70008886506E+00  0.93805915202E+00  0.90008144525E+02  0.90000411232E+02 0.  0.
         12    1    1    2    0    0 -0.14825501447E+00  0.70008886506E+00 -0.93805915202E+00  0.11798554746E+01  0.00000000000E+00 0. -1.
         11    1    3    3    0    0  0.23977324893E+02  0.96522202550E+01 -0.29243476315E+02  0.39028942749E+02  0.51100000000E-03 0. -1.
        -11    1    3    3    0    0  0.15913564846E+01  0.87262744737E+01  0.37061449834E+01  0.96133132972E+01  0.51100000000E-03 0.  1.
        -12    1    3    3    0    0 -0.25420426363E+02 -0.19078583594E+02  0.26475390483E+02  0.41365888479E+02  0.00000000000E+00 0.  1.
</event>
<event>
 7    1  0.4400431E-015  0.9000798E+02  0.7816164E-02  0.1186339E+00
        -11   -1    0    0    0    0  0.00000000000E+00  0.00000000000E+00  0.45593999997E+02  0.45594000000E+02  0.51100000000E-03 0.  1.
         11   -1    0    0    0    0 -0.00000000000E+00 -0.00000000000E+00 -0.45593999997E+02  0.45594000000E+02  0.51100000000E-03 0. -1.
    9900012    2    1    2    0    0  0.18580602981E+00  0.81760471779E+00  0.83033014210E+00  0.90007979026E+02  0.90000243548E+02 0.  0.
         12    1    1    2    0    0 -0.18580602981E+00 -0.81760471779E+00 -0.83033014210E+00  0.11800209744E+01  0.00000000000E+00 0. -1.
         11    1    3    3    0    0 -0.57369974550E+01  0.66205946964E+01 -0.92251785875E+01  0.12722001972E+02  0.51100000000E-03 0. -1.
        -11    1    3    3    0    0 -0.26402143071E+02  0.15098473483E+01  0.28890061095E+02  0.39166164327E+02  0.51100000000E-03 0.  1.
         12    1    3    3    0    0  0.32324946555E+02 -0.73128373270E+01 -0.18834552365E+02  0.38119812727E+02  0.00000000000E+00 0. -1.
</event>
<event>
 7    1  0.4400431E-015  0.9000770E+02  0.7816164E-02  0.1186339E+00
        -11   -1    0    0    0    0  0.00000000000E+00  0.00000000000E+00  0.45593999997E+02  0.45594000000E+02  0.51100000000E-03 0.  1.
         11   -1    0    0    0    0 -0.00000000000E+00 -0.00000000000E+00 -0.45593999997E+02  0.45594000000E+02  0.51100000000E-03 0. -1.
    9900012    2    1    2    0    0 -0.41513093518E+00  0.13678844594E+00 -0.10963904565E+01  0.90007696308E+02  0.89999957099E+02 0.  0.
         12    1    1    2    0    0  0.41513093518E+00 -0.13678844594E+00  0.10963904565E+01  0.11803036920E+01  0.00000000000E+00 0. -1.
         11    1    3    3    0    0 -0.60586659935E+01  0.54807135207E+01  0.29434011035E-01  0.81698544014E+01  0.51100000000E-03 0. -1.
        -11    1    3    3    0    0  0.51658903403E+01 -0.19930609299E+02  0.36263643429E+02  0.41700928588E+02  0.51100000000E-03 0.  1.
         12    1    3    3    0    0  0.47764471808E+00  0.14586684225E+02 -0.37389467897E+02  0.40136913319E+02  0.00000000000E+00 0. -1.
</event>
<event>
 7    1  0.4400431E-015  0.9000776E+02  0.7816164E-02  0.1186339E+00
        -11   -1    0    0    0    0  0.00000000000E+00  0.00000000000E+00  0.45593999997E+02  0.45594000000E+02  0.51100000000E-03 0. -1.
         11   -1    0    0    0    0 -0.00000000000E+00 -0.00000000000E+00 -0.45593999997E+02  0.45594000000E+02  0.51100000000E-03 0.  1.
    9900012    2    1    2    0    0  0.27073715665E+00  0.50722416654E+00 -0.10307257004E+01  0.90007758316E+02  0.90000019926E+02 0.  0.
         12    1    1    2    0    0 -0.27073715665E+00 -0.50722416654E+00  0.10307257004E+01  0.11802416839E+01  0.00000000000E+00 0. -1.
         11    1    3    3    0    0 -0.73947299434E+01 -0.60538291632E+00 -0.46937806404E+01  0.87795271156E+01  0.51100000000E-03 0. -1.
        -11    1    3    3    0    0 -0.18226754419E+02 -0.29547404729E+02 -0.13934600075E+02  0.37409046799E+02  0.51100000000E-03 0.  1.
         12    1    3    3    0    0  0.25892221520E+02  0.30660011812E+02  0.17597655015E+02  0.43819184401E+02  0.00000000000E+00 0. -1.
</event>
<event>
 7    1  0.4400431E-015  0.9000768E+02  0.7816164E-02  0.1186339E+00
        -11   -1    0    0    0    0  0.00000000000E+00  0.00000000000E+00  0.45593999997E+02  0.45594000000E+02  0.51100000000E-03 0. -1.
         11   -1    0    0    0    0 -0.00000000000E+00 -0.00000000000E+00 -0.45593999997E+02  0.45594000000E+02  0.51100000000E-03 0.  1.
    9900012    2    1    2    0    0  0.11132601813E+01  0.34687256298E+00  0.18302168744E+00  0.90007675577E+02  0.89999936094E+02 0.  0.
         12    1    1    2    0    0 -0.11132601813E+01 -0.34687256298E+00 -0.18302168744E+00  0.11803244234E+01  0.00000000000E+00 0. -1.
         11    1    3    3    0    0 -0.53772947485E+01  0.40949054040E+01  0.64170346188E+01  0.93199722446E+01  0.51100000000E-03 0. -1.
        -11    1    3    3    0    0  0.51770667203E+01  0.17908585931E+02  0.31822599559E+02  0.36880852930E+02  0.51100000000E-03 0.  1.
         12    1    3    3    0    0  0.13134882096E+01 -0.21656618772E+02 -0.38056612490E+02  0.43806850402E+02  0.00000000000E+00 0. -1.
</event>
<event>
 7    1  0.4400431E-015  0.9000772E+02  0.7816164E-02  0.1186339E+00
        -11   -1    0    0    0    0  0.00000000000E+00  0.00000000000E+00  0.45593999997E+02  0.45594000000E+02  0.51100000000E-03 0.  1.
         11   -1    0    0    0    0 -0.00000000000E+00 -0.00000000000E+00 -0.45593999997E+02  0.45594000000E+02  0.51100000000E-03 0. -1.
    9900012    2    1    2    0    0 -0.79144228357E+00  0.52356497174E+00  0.70182757261E+00  0.90007719055E+02  0.89999980146E+02 0.  0.
         12    1    1    2    0    0  0.79144228357E+00 -0.52356497174E+00 -0.70182757261E+00  0.11802809452E+01  0.00000000000E+00 0. -1.
         11    1    3    3    0    0  0.45536580878E+01  0.11434950158E+01  0.55717654248E+01  0.72861480249E+01  0.51100000000E-03 0. -1.
        -11    1    3    3    0    0  0.10065161973E+02 -0.14074733395E+02  0.34363937159E+02  0.38474482232E+02  0.51100000000E-03 0.  1.
         12    1    3    3    0    0 -0.15410262345E+02  0.13454803351E+02 -0.39233875011E+02  0.44247088798E+02  0.00000000000E+00 0. -1.
</event>
<event>
 7    1  0.4400431E-015  0.9000751E+02  0.7816164E-02  0.1186340E+00
        -11   -1    0    0    0    0  0.00000000000E+00  0.00000000000E+00  0.45593999997E+02  0.45594000000E+02  0.51100000000E-03 0. -1.
         11   -1    0    0    0    0 -0.00000000000E+00 -0.00000000000E+00 -0.45593999997E+02  0.45594000000E+02  0.51100000000E-03 0.  1.
    9900012    2    1    2    0    0  0.69092636953E+00 -0.54314086449E+00 -0.78814663452E+00  0.90007510117E+02  0.89999768450E+02 0.  0.
         12    1    1    2    0    0 -0.69092636953E+00  0.54314086449E+00  0.78814663452E+00  0.11804898832E+01  0.00000000000E+00 0. -1.
         11    1    3    3    0    0 -0.10862490013E+02 -0.26643563195E+00  0.35521622606E+01  0.11431646172E+02  0.51100000000E-03 0. -1.
        -11    1    3    3    0    0 -0.13591084244E+02  0.30606851287E+02 -0.15949886118E+02  0.37093069218E+02  0.51100000000E-03 0.  1.
         12    1    3    3    0    0  0.25144500626E+02 -0.30883556519E+02  0.11609577223E+02  0.41482794726E+02  0.00000000000E+00 0. -1.
</event>
<event>
 7    1  0.4400431E-015  0.9000782E+02  0.7816164E-02  0.1186339E+00
        -11   -1    0    0    0    0  0.00000000000E+00  0.00000000000E+00  0.45593999997E+02  0.45594000000E+02  0.51100000000E-03 0.  1.
         11   -1    0    0    0    0 -0.00000000000E+00 -0.00000000000E+00 -0.45593999997E+02  0.45594000000E+02  0.51100000000E-03 0. -1.
    9900012    2    1    2    0    0 -0.13210650335E+00  0.33061678974E+00  0.11251991070E+01  0.90007816701E+02  0.90000079081E+02 0.  0.
         12    1    1    2    0    0  0.13210650335E+00 -0.33061678974E+00 -0.11251991070E+01  0.11801832995E+01  0.00000000000E+00 0. -1.
         11    1    3    3    0    0 -0.54613683471E+01  0.67065659580E+01 -0.39200989195E+01  0.94958805264E+01  0.51100000000E-03 0. -1.
        -11    1    3    3    0    0 -0.17862503698E+01  0.36202228505E+02  0.84206041723E+01  0.37211538721E+02  0.51100000000E-03 0.  1.
         12    1    3    3    0    0  0.71155122136E+01 -0.42578177673E+02 -0.33753061458E+01  0.43300397453E+02  0.00000000000E+00 0. -1.
</event>
<event>
 7    1  0.4400431E-015  0.9000779E+02  0.7816164E-02  0.1186339E+00
        -11   -1    0    0    0    0  0.00000000000E+00  0.00000000000E+00  0.45593999997E+02  0.45594000000E+02  0.51100000000E-03 0. -1.
         11   -1    0    0    0    0 -0.00000000000E+00 -0.00000000000E+00 -0.45593999997E+02  0.45594000000E+02  0.51100000000E-03 0.  1.
    9900012    2    1    2    0    0 -0.29374328656E+00 -0.18899209303E+00 -0.11273421882E+01  0.90007786655E+02  0.90000048639E+02 0.  0.
         12    1    1    2    0    0  0.29374328656E+00  0.18899209303E+00  0.11273421882E+01  0.11802133447E+01  0.00000000000E+00 0. -1.
         11    1    3    3    0    0  0.32165354160E+01 -0.46919969635E+01 -0.41899330546E+01  0.70651592234E+01  0.51100000000E-03 0. -1.
        -11    1    3    3    0    0 -0.14328365200E+02 -0.15612790109E+02 -0.33613661811E+02  0.39735872016E+02  0.51100000000E-03 0.  1.
         12    1    3    3    0    0  0.10818086497E+02  0.20115794979E+02  0.36676252677E+02  0.43206755416E+02  0.00000000000E+00 0. -1.
</event>
<event>
 7    1  0.4400431E-015  0.9000766E+02  0.7816164E-02  0.1186339E+00
        -11   -1    0    0    0    0  0.00000000000E+00  0.00000000000E+00  0.45593999997E+02  0.45594000000E+02  0.51100000000E-03 0. -1.
         11   -1    0    0    0    0 -0.00000000000E+00 -0.00000000000E+00 -0.45593999997E+02  0.45594000000E+02  0.51100000000E-03 0.  1.
    9900012    2    1    2    0    0  0.63766698197E+00  0.83968482041E+00 -0.53056806284E+00  0.90007664350E+02  0.89999924719E+02 0.  0.
         12    1    1    2    0    0 -0.63766698197E+00 -0.83968482041E+00  0.53056806284E+00  0.11803356501E+01  0.00000000000E+00 0. -1.
         11    1    3    3    0    0 -0.34125264880E+01 -0.17049164369E+02  0.46128395575E+01  0.17988819632E+02  0.51100000000E-03 0. -1.
        -11    1    3    3    0    0 -0.25954700803E+02 -0.10231406491E+02 -0.11926481649E+02  0.30340882277E+02  0.51100000000E-03 0.  1.
         12    1    3    3    0    0  0.30004894273E+02  0.28120255681E+02  0.67830740289E+01  0.41677962440E+02  0.00000000000E+00 0. -1.
</event>
<event>
 7    1  0.4400431E-015  0.9000775E+02  0.7816164E-02  0.1186339E+00
        -11   -1    0    0    0    0  0.00000000000E+00  0.00000000000E+00  0.45593999997E+02  0.45594000000E+02  0.51100000000E-03 0.  1.
         11   -1    0    0    0    0 -0.00000000000E+00 -0.00000000000E+00 -0.45593999997E+02  0.45594000000E+02  0.51100000000E-03 0. -1.
    9900012    2    1    2    0    0  0.47732916725E+00  0.41579991329E+00  0.99612448688E+00  0.90007747190E+02  0.90000008653E+02 0.  0.
         12    1    1    2    0    0 -0.47732916725E+00 -0.41579991329E+00 -0.99612448688E+00  0.11802528099E+01  0.00000000000E+00 0. -1.
         11    1    3    3    0    0 -0.16051360421E+01 -0.55619139233E+01  0.53101253169E+01  0.78554935775E+01  0.51100000000E-03 0. -1.
        -11    1    3    3    0    0  0.37103213491E+02  0.11154232395E+02  0.15329748722E+02  0.41666131904E+02  0.51100000000E-03 0.  1.
         12    1    3    3    0    0 -0.35020748281E+02 -0.51765185588E+01 -0.19643749552E+02  0.40486121709E+02  0.00000000000E+00 0. -1.
</event>
<event>
 7    1  0.4400431E-015  0.9000770E+02  0.7816164E-02  0.1186339E+00
        -11   -1    0    0    0    0  0.00000000000E+00  0.00000000000E+00  0.45593999997E+02  0.45594000000E+02  0.51100000000E-03 0. -1.
         11   -1    0    0    0    0 -0.00000000000E+00 -0.00000000000E+00 -0.45593999997E+02  0.45594000000E+02  0.51100000000E-03 0.  1.
    9900012    2    1    2    0    0 -0.40327686801E+00  0.10439532894E+01 -0.37500248714E+00  0.90007704457E+02  0.89999965356E+02 0.  0.
         12    1    1    2    0    0  0.40327686801E+00 -0.10439532894E+01  0.37500248714E+00  0.11802955427E+01  0.00000000000E+00 0. -1.
         11    1    3    3    0    0  0.10618954019E+01  0.10088916916E+02 -0.24324503512E+01  0.10432194465E+02  0.51100000000E-03 0. -1.
        -11    1    3    3    0    0 -0.29530858614E+02 -0.29777031235E+02 -0.91560024205E+01  0.42925232442E+02  0.51100000000E-03 0.  1.
         12    1    3    3    0    0  0.28065686344E+02  0.20732067608E+02  0.11213450284E+02  0.36650277551E+02  0.00000000000E+00 0. -1.
</event>
<event>
 7    1  0.4400431E-015  0.9000763E+02  0.7816164E-02  0.1186339E+00
        -11   -1    0    0    0    0  0.00000000000E+00  0.00000000000E+00  0.45593999997E+02  0.45594000000E+02  0.51100000000E-03 0. -1.
         11   -1    0    0    0    0 -0.00000000000E+00 -0.00000000000E+00 -0.45593999997E+02  0.45594000000E+02  0.51100000000E-03 0.  1.
    9900012    2    1    2    0    0 -0.11363195643E+01 -0.81825439714E-01  0.30881489299E+00  0.90007625401E+02  0.89999885257E+02 0.  0.
         12    1    1    2    0    0  0.11363195643E+01  0.81825439714E-01 -0.30881489299E+00  0.11803745985E+01  0.00000000000E+00 0. -1.
         11    1    3    3    0    0 -0.68421454733E+01 -0.75910121910E+01  0.23776741703E+00  0.10222277357E+02  0.51100000000E-03 0. -1.
        -11    1    3    3    0    0  0.80619761982E+01 -0.29947924209E+02 -0.20314731090E+02  0.37075084952E+02  0.51100000000E-03 0.  1.
         12    1    3    3    0    0 -0.23561502892E+01  0.37457110960E+02  0.20385778566E+02  0.42710263092E+02  0.00000000000E+00 0. -1.
</event>
<event>
 7    1  0.4400431E-015  0.9000780E+02  0.7816164E-02  0.1186339E+00
        -11   -1    0    0    0    0  0.00000000000E+00  0.00000000000E+00  0.45593999997E+02  0.45594000000E+02  0.51100000000E-03 0.  1.
         11   -1    0    0    0    0 -0.00000000000E+00 -0.00000000000E+00 -0.45593999997E+02  0.45594000000E+02  0.51100000000E-03 0. -1.
    9900012    2    1    2    0    0 -0.95055968833E+00 -0.10925577411E+00  0.69091919832E+00  0.90007800913E+02  0.90000063086E+02 0.  0.
         12    1    1    2    0    0  0.95055968833E+00  0.10925577411E+00 -0.69091919832E+00  0.11801990865E+01  0.00000000000E+00 0. -1.
         11    1    3    3    0    0  0.47952665284E+01  0.38039843457E+02  0.40082381929E+01  0.38549841050E+02  0.51100000000E-03 0. -1.
        -11    1    3    3    0    0 -0.43288249889E+01  0.35417024663E+01 -0.76962072551E+01  0.95138839871E+01  0.51100000000E-03 0.  1.
        -12    1    3    3    0    0 -0.14170012278E+01 -0.41690801698E+02  0.43788882606E+01  0.41944075876E+02  0.00000000000E+00 0.  1.
</event>
<event>
 7    1  0.4400431E-015  0.9000764E+02  0.7816164E-02  0.1186339E+00
        -11   -1    0    0    0    0  0.00000000000E+00  0.00000000000E+00  0.45593999997E+02  0.45594000000E+02  0.51100000000E-03 0. -1.
         11   -1    0    0    0    0 -0.00000000000E+00 -0.00000000000E+00 -0.45593999997E+02  0.45594000000E+02  0.51100000000E-03 0.  1.
    9900012    2    1    2    0    0 -0.57137848145E-01 -0.72856830508E+00 -0.92691108729E+00  0.90007643837E+02  0.89999903935E+02 0.  0.
         12    1    1    2    0    0  0.57137848145E-01  0.72856830508E+00  0.92691108729E+00  0.11803561635E+01  0.00000000000E+00 0. -1.
         11    1    3    3    0    0  0.22569435395E+01  0.62287371282E+01 -0.69733729659E-01  0.66253923210E+01  0.51100000000E-03 0. -1.
        -11    1    3    3    0    0  0.11229035473E+02  0.26411085335E+02 -0.26587981832E+02  0.39122339454E+02  0.51100000000E-03 0.  1.
         12    1    3    3    0    0 -0.13543116861E+02 -0.33368390768E+02  0.25730804474E+02  0.44259912061E+02  0.00000000000E+00 0. -1.
</event>
<event>
 7    1  0.4400431E-015  0.9000780E+02  0.7816164E-02  0.1186339E+00
        -11   -1    0    0    0    0  0.00000000000E+00  0.00000000000E+00  0.45593999997E+02  0.45594000000E+02  0.51100000000E-03 0. -1.
         11   -1    0    0    0    0 -0.00000000000E+00 -0.00000000000E+00 -0.45593999997E+02  0.45594000000E+02  0.51100000000E-03 0.  1.
    9900012    2    1    2    0    0  0.49430880125E+00  0.74736090764E+00 -0.76810167223E+00  0.90007800993E+02  0.90000063166E+02 0.  0.
         12    1    1    2    0    0 -0.49430880125E+00 -0.74736090764E+00  0.76810167223E+00  0.11801990070E+01  0.00000000000E+00 0. -1.
         11    1    3    3    0    0  0.21759559654E+02  0.25795485100E+02 -0.21736390857E+02  0.40141701205E+02  0.51100000000E-03 0. -1.
        -11    1    3    3    0    0 -0.24764508083E+01  0.73658333469E+01  0.32834556201E+01  0.84361952662E+01  0.51100000000E-03 0.  1.
        -12    1    3    3    0    0 -0.18788800044E+02 -0.32413957540E+02  0.17684833564E+02  0.41429904522E+02  0.00000000000E+00 0.  1.
</event>
<event>
 7    1  0.4400431E-015  0.9000747E+02  0.7816164E-02  0.1186340E+00
        -11   -1    0    0    0    0  0.00000000000E+00  0.00000000000E+00  0.45593999997E+02  0.45594000000E+02  0.51100000000E-03 0.  1.
         11   -1    0    0    0    0 -0.00000000000E+00 -0.00000000000E+00 -0.45593999997E+02  0.45594000000E+02  0.51100000000E-03 0. -1.
    9900012    2    1    2    0    0  0.79490155204E+00  0.60305311482E+00  0.63096423563E+00  0.90007467322E+02  0.89999725090E+02 0.  0.
         12    1    1    2    0    0 -0.79490155204E+00 -0.60305311482E+00 -0.63096423563E+00  0.11805326778E+01  0.00000000000E+00 0. -1.
         11    1    3    3    0    0  0.15703769566E+01  0.37831876445E+01 -0.11378524388E+02  0.12093362231E+02  0.51100000000E-03 0. -1.
        -11    1    3    3    0    0  0.31457959020E+02  0.19011917344E+02  0.12357545087E+02  0.38778410329E+02  0.51100000000E-03 0.  1.
         12    1    3    3    0    0 -0.32233434425E+02 -0.22192051874E+02 -0.34805646292E+00  0.39135694762E+02  0.00000000000E+00 0. -1.
</event>
<event>
 7    1  0.4400431E-015  0.9000773E+02  0.7816164E-02  0.1186339E+00
        -11   -1    0    0    0    0  0.00000000000E+00  0.00000000000E+00  0.45593999997E+02  0.45594000000E+02  0.51100000000E-03 0. -1.
         11   -1    0    0    0    0 -0.00000000000E+00 -0.00000000000E+00 -0.45593999997E+02  0.45594000000E+02  0.51100000000E-03 0.  1.
    9900012    2    1    2    0    0 -0.77631404504E+00 -0.82880556059E+00 -0.32163688511E+00  0.90007732048E+02  0.89999993311E+02 0.  0.
         12    1    1    2    0    0  0.77631404504E+00  0.82880556059E+00  0.32163688511E+00  0.11802679525E+01  0.00000000000E+00 0. -1.
         11    1    3    3    0    0  0.67089239026E+00 -0.85983300465E+01  0.60282684946E+01  0.10522423556E+02  0.51100000000E-03 0. -1.
        -11    1    3    3    0    0  0.83936809150E+01 -0.28379824056E+01 -0.40994193923E+02  0.41940814955E+02  0.51100000000E-03 0.  1.
         12    1    3    3    0    0 -0.98408873503E+01  0.10607506891E+02  0.34644288543E+02  0.37544493537E+02  0.00000000000E+00 0. -1.
</event>
<event>
 7    1  0.4400431E-015  0.9000773E+02  0.7816164E-02  0.1186339E+00
        -11   -1    0    0    0    0  0.00000000000E+00  0.00000000000E+00  0.45593999997E+02  0.45594000000E+02  0.51100000000E-03 0.  1.
         11   -1    0    0    0    0 -0.00000000000E+00 -0.00000000000E+00 -0.45593999997E+02  0.45594000000E+02  0.51100000000E-03 0. -1.
    9900012    2    1    2    0    0  0.42097785972E+00  0.10844984964E+01  0.19920419807E+00  0.90007728142E+02  0.89999989353E+02 0.  0.
         12    1    1    2    0    0 -0.42097785972E+00 -0.10844984964E+01 -0.19920419807E+00  0.11802718584E+01  0.00000000000E+00 0. -1.
         11    1    3    3    0    0  0.53405420349E+01 -0.14554856498E+02 -0.34338389342E+02  0.37676122675E+02  0.51100000000E-03 0. -1.
        -11    1    3    3    0    0  0.31988883381E+01  0.68788851370E+01 -0.62512244163E+01  0.98300434532E+01  0.51100000000E-03 0.  1.
        -12    1    3    3    0    0 -0.81184525132E+01  0.87604698578E+01  0.40788817956E+02  0.42501562014E+02  0.00000000000E+00 0.  1.
</event>
<event>
 7    1  0.4400431E-015  0.9000778E+02  0.7816164E-02  0.1186339E+00
        -11   -1    0    0    0    0  0.00000000000E+00  0.00000000000E+00  0.45593999997E+02  0.45594000000E+02  0.51100000000E-03 0.  1.
         11   -1    0    0    0    0 -0.00000000000E+00 -0.00000000000E+00 -0.45593999997E+02  0.45594000000E+02  0.51100000000E-03 0. -1.
    9900012    2    1    2    0    0 -0.48450938359E+00  0.83178475607E+00  0.68286028680E+00  0.90007782480E+02  0.90000044409E+02 0.  0.
         12    1    1    2    0    0  0.48450938359E+00 -0.83178475607E+00 -0.68286028680E+00  0.11802175200E+01  0.00000000000E+00 0. -1.
         11    1    3    3    0    0  0.41760413228E+01 -0.45376541075E+01 -0.36164662253E+02  0.36686679082E+02  0.51100000000E-03 0. -1.
        -11    1    3    3    0    0  0.19788858244E-01  0.98415912657E+01 -0.49561999845E+01  0.11019130128E+02  0.51100000000E-03 0.  1.
        -12    1    3    3    0    0 -0.46803395646E+01 -0.44721524021E+01  0.41803722525E+02  0.42301973269E+02  0.00000000000E+00 0.  1.
</event>
<event>
 7    1  0.4400431E-015  0.9000760E+02  0.7816164E-02  0.1186339E+00
        -11   -1    0    0    0    0  0.00000000000E+00  0.00000000000E+00  0.45593999997E+02  0.45594000000E+02  0.51100000000E-03 0.  1.
         11   -1    0    0    0    0 -0.00000000000E+00 -0.00000000000E+00 -0.45593999997E+02  0.45594000000E+02  0.51100000000E-03 0. -1.
    9900012    2    1    2    0    0 -0.68418761321E-01 -0.54633305668E+00  0.10441213406E+01  0.90007597395E+02  0.89999856881E+02 0.  0.
         12    1    1    2    0    0  0.68418761321E-01  0.54633305668E+00 -0.10441213406E+01  0.11804026048E+01  0.00000000000E+00 0. -1.
         11    1    3    3    0    0 -0.35424530478E+02  0.12633849817E+02  0.67554765020E+01  0.38211882757E+02  0.51100000000E-03 0. -1.
        -11    1    3    3    0    0 -0.10503469595E+01  0.49358941350E+01  0.74991158501E+01  0.90389722005E+01  0.51100000000E-03 0.  1.
        -12    1    3    3    0    0  0.36406458676E+02 -0.18116077009E+02 -0.13210471012E+02  0.42756742438E+02  0.00000000000E+00 0.  1.
</event>
<event>
 7    1  0.4400431E-015  0.9000778E+02  0.7816164E-02  0.1186339E+00
        -11   -1    0    0    0    0  0.00000000000E+00  0.00000000000E+00  0.45593999997E+02  0.45594000000E+02  0.51100000000E-03 0.  1.
         11   -1    0    0    0    0 -0.00000000000E+00 -0.00000000000E+00 -0.45593999997E+02  0.45594000000E+02  0.51100000000E-03 0. -1.
    9900012    2    1    2    0    0 -0.29001140224E+00  0.10979970106E+01 -0.32128640988E+00  0.90007775866E+02  0.90000037708E+02 0.  0.
         12    1    1    2    0    0  0.29001140224E+00 -0.10979970106E+01  0.32128640988E+00  0.11802241338E+01  0.00000000000E+00 0. -1.
         11    1    3    3    0    0  0.65454725433E+01  0.36239212191E+02 -0.14088878655E+02  0.39428672474E+02  0.51100000000E-03 0. -1.
        -11    1    3    3    0    0 -0.21336327628E+00  0.46722428619E+01  0.87320545443E+01  0.99057636795E+01  0.51100000000E-03 0.  1.
        -12    1    3    3    0    0 -0.66221206693E+01 -0.39813458042E+02  0.50355377008E+01  0.40673339713E+02  0.00000000000E+00 0.  1.
</event>
<event>
 7    1  0.4400431E-015  0.9000786E+02  0.7816164E-02  0.1186339E+00
        -11   -1    0    0    0    0  0.00000000000E+00  0.00000000000E+00  0.45593999997E+02  0.45594000000E+02  0.51100000000E-03 0.  1.
         11   -1    0    0    0    0 -0.00000000000E+00 -0.00000000000E+00 -0.45593999997E+02  0.45594000000E+02  0.51100000000E-03 0. -1.
    9900012    2    1    2    0    0 -0.10982975382E+01 -0.16757900114E-01  0.43149572494E+00  0.90007861504E+02  0.90000124476E+02 0.  0.
         12    1    1    2    0    0  0.10982975382E+01  0.16757900114E-01 -0.43149572494E+00  0.11801384962E+01  0.00000000000E+00 0. -1.
         11    1    3    3    0    0 -0.13809586598E+02  0.15032614205E+02 -0.24675747662E+02  0.32024626380E+02  0.51100000000E-03 0. -1.
        -11    1    3    3    0    0 -0.79898636219E+01  0.11679639918E+02 -0.24567271079E+01  0.14362709272E+02  0.51100000000E-03 0.  1.
        -12    1    3    3    0    0  0.20701152682E+02 -0.26729012022E+02  0.27563970495E+02  0.43620525851E+02  0.00000000000E+00 0.  1.
</event>
<event>
 7    1  0.4400431E-015  0.9000734E+02  0.7816164E-02  0.1186340E+00
        -11   -1    0    0    0    0  0.00000000000E+00  0.00000000000E+00  0.45593999997E+02  0.45594000000E+02  0.51100000000E-03 0.  1.
         11   -1    0    0    0    0 -0.00000000000E+00 -0.00000000000E+00 -0.45593999997E+02  0.45594000000E+02  0.51100000000E-03 0. -1.
    9900012    2    1    2    0    0  0.10670900944E+01 -0.27994356759E+00  0.42061826572E+00  0.90007335189E+02  0.89999591213E+02 0.  0.
         12    1    1    2    0    0 -0.10670900944E+01  0.27994356759E+00 -0.42061826572E+00  0.11806648110E+01  0.00000000000E+00 0. -1.
         11    1    3    3    0    0 -0.29044564013E+01  0.33431712572E+02  0.63089690404E+01  0.34145546753E+02  0.51100000000E-03 0. -1.
        -11    1    3    3    0    0 -0.54380325381E+01  0.94393023546E+01  0.17735641195E+01  0.11037126291E+02  0.51100000000E-03 0.  1.
        -12    1    3    3    0    0  0.94095790337E+01 -0.43150958494E+02 -0.76619148941E+01  0.44824662144E+02  0.00000000000E+00 0.  1.
</event>
<event>
 7    1  0.4400431E-015  0.9000772E+02  0.7816164E-02  0.1186339E+00
        -11   -1    0    0    0    0  0.00000000000E+00  0.00000000000E+00  0.45593999997E+02  0.45594000000E+02  0.51100000000E-03 0. -1.
         11   -1    0    0    0    0 -0.00000000000E+00 -0.00000000000E+00 -0.45593999997E+02  0.45594000000E+02  0.51100000000E-03 0.  1.
    9900012    2    1    2    0    0  0.57986306484E+00 -0.32972998149E+00 -0.97370652665E+00  0.90007717223E+02  0.89999978290E+02 0.  0.
         12    1    1    2    0    0 -0.57986306484E+00  0.32972998149E+00  0.97370652665E+00  0.11802827774E+01  0.00000000000E+00 0. -1.
         11    1    3    3    0    0 -0.63259350616E+01 -0.44855713193E+01  0.44978515488E+01  0.89648465285E+01  0.51100000000E-03 0. -1.
        -11    1    3    3    0    0 -0.17235974189E+02  0.36067627488E+02 -0.86583331935E+01  0.40901336076E+02  0.51100000000E-03 0.  1.
         12    1    3    3    0    0  0.24141772316E+02 -0.31911786150E+02  0.31867751180E+01  0.40141534618E+02  0.00000000000E+00 0. -1.
</event>
<event>
 7    1  0.4400431E-015  0.9000768E+02  0.7816164E-02  0.1186339E+00
        -11   -1    0    0    0    0  0.00000000000E+00  0.00000000000E+00  0.45593999997E+02  0.45594000000E+02  0.51100000000E-03 0.  1.
         11   -1    0    0    0    0 -0.00000000000E+00 -0.00000000000E+00 -0.45593999997E+02  0.45594000000E+02  0.51100000000E-03 0. -1.
    9900012    2    1    2    0    0  0.51891630989E-01  0.11240341744E+01  0.35639551188E+00  0.90007676600E+02  0.89999937132E+02 0.  0.
         12    1    1    2    0    0 -0.51891630989E-01 -0.11240341744E+01 -0.35639551188E+00  0.11803233996E+01  0.00000000000E+00 0. -1.
         11    1    3    3    0    0 -0.14781266021E+02 -0.26933465303E+02 -0.24316201820E+02  0.39181309953E+02  0.51100000000E-03 0. -1.
        -11    1    3    3    0    0 -0.93505110344E+00 -0.58479250564E+01  0.78251954821E+01  0.98135738967E+01  0.51100000000E-03 0.  1.
        -12    1    3    3    0    0  0.15768208755E+02  0.33905424534E+02  0.16847401850E+02  0.41012792751E+02  0.00000000000E+00 0.  1.
</event>
<event>
 7    1  0.4400431E-015  0.9000773E+02  0.7816164E-02  0.1186339E+00
        -11   -1    0    0    0    0  0.00000000000E+00  0.00000000000E+00  0.45593999997E+02  0.45594000000E+02  0.51100000000E-03 0.  1.
         11   -1    0    0    0    0 -0.00000000000E+00 -0.00000000000E+00 -0.45593999997E+02  0.45594000000E+02  0.51100000000E-03 0. -1.
    9900012    2    1    2    0    0  0.89618048463E+00  0.74581558104E+00 -0.18343417490E+00  0.90007733743E+02  0.89999995028E+02 0.  0.
         12    1    1    2    0    0 -0.89618048463E+00 -0.74581558104E+00  0.18343417490E+00  0.11802662575E+01  0.00000000000E+00 0. -1.
         11    1    3    3    0    0 -0.73361051425E+01 -0.70163633958E+01  0.14562803687E+01  0.10255171707E+02  0.51100000000E-03 0. -1.
        -11    1    3    3    0    0  0.17464382639E+02 -0.17421084303E+02  0.29630568674E+02  0.38554758973E+02  0.51100000000E-03 0.  1.
         12    1    3    3    0    0 -0.92320970115E+01  0.25183263280E+02 -0.31270283218E+02  0.41197803063E+02  0.00000000000E+00 0. -1.
</event>
<event>
 7    1  0.4400431E-015  0.9000771E+02  0.7816164E-02  0.1186339E+00
        -11   -1    0    0    0    0  0.00000000000E+00  0.00000000000E+00  0.45593999997E+02  0.45594000000E+02  0.51100000000E-03 0.  1.
         11   -1    0    0    0    0 -0.00000000000E+00 -0.00000000000E+00 -0.45593999997E+02  0.45594000000E+02  0.51100000000E-03 0. -1.
    9900012    2    1    2    0    0  0.59045851479E+00  0.99227702377E+00 -0.24459742394E+00  0.90007710693E+02  0.89999971674E+02 0.  0.
         12    1    1    2    0    0 -0.59045851479E+00 -0.99227702377E+00  0.24459742394E+00  0.11802893075E+01  0.00000000000E+00 0. -1.
         11    1    3    3    0    0  0.21636256020E+02  0.23195530369E+02  0.13730477848E+02  0.34564233332E+02  0.51100000000E-03 0. -1.
        -11    1    3    3    0    0 -0.66311134641E+01 -0.14349002315E+02  0.15224087684E+02  0.21946261169E+02  0.51100000000E-03 0.  1.
        -12    1    3    3    0    0 -0.14414684041E+02 -0.78542510302E+01 -0.29199162957E+02  0.33497216192E+02  0.00000000000E+00 0.  1.
</event>
<event>
 7    1  0.4400431E-015  0.9000774E+02  0.7816164E-02  0.1186339E+00
        -11   -1    0    0    0    0  0.00000000000E+00  0.00000000000E+00  0.45593999997E+02  0.45594000000E+02  0.51100000000E-03 0.  1.
         11   -1    0    0    0    0 -0.00000000000E+00 -0.00000000000E+00 -0.45593999997E+02  0.45594000000E+02  0.51100000000E-03 0. -1.
    9900012    2    1    2    0    0 -0.43338250945E+00 -0.42393439831E+00  0.10126547448E+01  0.90007741382E+02  0.90000002768E+02 0.  0.
         12    1    1    2    0    0  0.43338250945E+00  0.42393439831E+00 -0.10126547448E+01  0.11802586181E+01  0.00000000000E+00 0. -1.
         11    1    3    3    0    0  0.26341468406E+02 -0.10627881814E+02 -0.21558645903E+02  0.35659501442E+02  0.51100000000E-03 0. -1.
        -11    1    3    3    0    0  0.76265858189E+01  0.74564429884E+01 -0.33577270446E+01  0.11182025061E+02  0.51100000000E-03 0.  1.
        -12    1    3    3    0    0 -0.34401436734E+02  0.27475044273E+01  0.25929027692E+02  0.43166214880E+02  0.00000000000E+00 0.  1.
</event>
<event>
 7    1  0.4400431E-015  0.9000788E+02  0.7816164E-02  0.1186339E+00
        -11   -1    0    0    0    0  0.00000000000E+00  0.00000000000E+00  0.45593999997E+02  0.45594000000E+02  0.51100000000E-03 0.  1.
         11   -1    0    0    0    0 -0.00000000000E+00 -0.00000000000E+00 -0.45593999997E+02  0.45594000000E+02  0.51100000000E-03 0. -1.
    9900012    2    1    2    0    0  0.87845524919E+00  0.78216274608E+00  0.96066371303E-01  0.90007876729E+02  0.90000139902E+02 0.  0.
         12    1    1    2    0    0 -0.87845524919E+00 -0.78216274608E+00 -0.96066371303E-01  0.11801232706E+01  0.00000000000E+00 0. -1.
         11    1    3    3    0    0 -0.67380882704E+01 -0.28057617356E+01  0.70905265610E+01  0.10175937285E+02  0.51100000000E-03 0. -1.
        -11    1    3    3    0    0  0.83326434655E+01 -0.14515598195E+02  0.32401800443E+02  0.36469332463E+02  0.51100000000E-03 0.  1.
         12    1    3    3    0    0 -0.71609994598E+00  0.18103522677E+02 -0.39396260632E+02  0.43362606982E+02  0.00000000000E+00 0. -1.
</event>
<event>
 7    1  0.4400431E-015  0.9000774E+02  0.7816164E-02  0.1186339E+00
        -11   -1    0    0    0    0  0.00000000000E+00  0.00000000000E+00  0.45593999997E+02  0.45594000000E+02  0.51100000000E-03 0. -1.
         11   -1    0    0    0    0 -0.00000000000E+00 -0.00000000000E+00 -0.45593999997E+02  0.45594000000E+02  0.51100000000E-03 0.  1.
    9900012    2    1    2    0    0  0.16522156340E+00  0.10941362578E+01  0.41058136108E+00  0.90007741821E+02  0.90000003213E+02 0.  0.
         12    1    1    2    0    0 -0.16522156340E+00 -0.10941362578E+01 -0.41058136108E+00  0.11802581792E+01  0.00000000000E+00 0. -1.
         11    1    3    3    0    0 -0.79175247293E+01  0.19352011958E+01 -0.36251358526E+01  0.89204154454E+01  0.51100000000E-03 0. -1.
        -11    1    3    3    0    0 -0.26024509162E+02 -0.16311819396E+02  0.23692529763E+02  0.38790288681E+02  0.51100000000E-03 0.  1.
         12    1    3    3    0    0  0.34107255455E+02  0.15470754458E+02 -0.19656812549E+02  0.42297037695E+02  0.00000000000E+00 0. -1.
</event>
<event>
 7    1  0.4400431E-015  0.9000774E+02  0.7816164E-02  0.1186339E+00
        -11   -1    0    0    0    0  0.00000000000E+00  0.00000000000E+00  0.45593999997E+02  0.45594000000E+02  0.51100000000E-03 0. -1.
         11   -1    0    0    0    0 -0.00000000000E+00 -0.00000000000E+00 -0.45593999997E+02  0.45594000000E+02  0.51100000000E-03 0.  1.
    9900012    2    1    2    0    0 -0.44802361049E+00  0.62195383944E+00 -0.89748187640E+00  0.90007735008E+02  0.89999996310E+02 0.  0.
         12    1    1    2    0    0  0.44802361049E+00 -0.62195383944E+00  0.89748187640E+00  0.11802649925E+01  0.00000000000E+00 0. -1.
         11    1    3    3    0    0 -0.34343717823E+01  0.79126193743E+01  0.48531130739E+01  0.98973310378E+01  0.51100000000E-03 0. -1.
        -11    1    3    3    0    0 -0.12494359068E+00  0.36117687351E+02 -0.58622006193E+01  0.36590549966E+02  0.51100000000E-03 0.  1.
         12    1    3    3    0    0  0.31112917625E+01 -0.43408352886E+02  0.11160566903E+00  0.43519854004E+02  0.00000000000E+00 0. -1.
</event>
<event>
 7    1  0.4400431E-015  0.9000764E+02  0.7816164E-02  0.1186339E+00
        -11   -1    0    0    0    0  0.00000000000E+00  0.00000000000E+00  0.45593999997E+02  0.45594000000E+02  0.51100000000E-03 0.  1.
         11   -1    0    0    0    0 -0.00000000000E+00 -0.00000000000E+00 -0.45593999997E+02  0.45594000000E+02  0.51100000000E-03 0. -1.
    9900012    2    1    2    0    0 -0.21335179504E+00  0.89456618236E+00  0.73991326603E+00  0.90007644425E+02  0.89999904531E+02 0.  0.
         12    1    1    2    0    0  0.21335179504E+00 -0.89456618236E+00 -0.73991326603E+00  0.11803555754E+01  0.00000000000E+00 0. -1.
         11    1    3    3    0    0  0.15229044068E+01 -0.87735515831E+01  0.12308156755E+01  0.89894022439E+01  0.51100000000E-03 0. -1.
        -11    1    3    3    0    0  0.17713319787E+02  0.40577314796E+02 -0.32541598101E+01  0.44394478601E+02  0.51100000000E-03 0.  1.
         12    1    3    3    0    0 -0.19449575989E+02 -0.30909197031E+02  0.27632574006E+01  0.36623763579E+02  0.00000000000E+00 0. -1.
</event>
<event>
 7    1  0.4400431E-015  0.9000776E+02  0.7816164E-02  0.1186339E+00
        -11   -1    0    0    0    0  0.00000000000E+00  0.00000000000E+00  0.45593999997E+02  0.45594000000E+02  0.51100000000E-03 0. -1.
         11   -1    0    0    0    0 -0.00000000000E+00 -0.00000000000E+00 -0.45593999997E+02  0.45594000000E+02  0.51100000000E-03 0.  1.
    9900012    2    1    2    0    0  0.62143402859E+00  0.48950563089E+00 -0.87587838291E+00  0.90007763178E+02  0.90000024852E+02 0.  0.
         12    1    1    2    0    0 -0.62143402859E+00 -0.48950563089E+00  0.87587838291E+00  0.11802368221E+01  0.00000000000E+00 0. -1.
         11    1    3    3    0    0 -0.13940827973E+02  0.17099316892E+01 -0.78229227032E+00  0.14067072631E+02  0.51100000000E-03 0. -1.
        -11    1    3    3    0    0 -0.13384914766E+02  0.70822283122E+01 -0.30353464137E+02  0.33921183448E+02  0.51100000000E-03 0.  1.
         12    1    3    3    0    0  0.27947176767E+02 -0.83026543705E+01  0.30259878024E+02  0.42019507099E+02  0.00000000000E+00 0. -1.
</event>
<event>
 7    1  0.4400431E-015  0.9000771E+02  0.7816164E-02  0.1186339E+00
        -11   -1    0    0    0    0  0.00000000000E+00  0.00000000000E+00  0.45593999997E+02  0.45594000000E+02  0.51100000000E-03 0. -1.
         11   -1    0    0    0    0 -0.00000000000E+00 -0.00000000000E+00 -0.45593999997E+02  0.45594000000E+02  0.51100000000E-03 0.  1.
    9900012    2    1    2    0    0 -0.74391221113E+00  0.85493772434E+00  0.32978844833E+00  0.90007710073E+02  0.89999971046E+02 0.  0.
         12    1    1    2    0    0  0.74391221113E+00 -0.85493772434E+00 -0.32978844833E+00  0.11802899267E+01  0.00000000000E+00 0. -1.
         11    1    3    3    0    0  0.40247868933E+02 -0.45463799668E+01 -0.81513035678E+01  0.41315908251E+02  0.51100000000E-03 0. -1.
        -11    1    3    3    0    0 -0.60837196263E+01  0.50196356025E+01 -0.69601814169E+01  0.10519149761E+02  0.51100000000E-03 0.  1.
        -12    1    3    3    0    0 -0.34908061518E+02  0.38168208858E+00  0.15441273433E+02  0.38172652062E+02  0.00000000000E+00 0.  1.
</event>
<event>
 7    1  0.4400431E-015  0.9000780E+02  0.7816164E-02  0.1186339E+00
        -11   -1    0    0    0    0  0.00000000000E+00  0.00000000000E+00  0.45593999997E+02  0.45594000000E+02  0.51100000000E-03 0. -1.
         11   -1    0    0    0    0 -0.00000000000E+00 -0.00000000000E+00 -0.45593999997E+02  0.45594000000E+02  0.51100000000E-03 0.  1.
    9900012    2    1    2    0    0  0.90962401886E+00 -0.12616707301E+00 -0.74130429546E+00  0.90007802540E+02  0.90000064734E+02 0.  0.
         12    1    1    2    0    0 -0.90962401886E+00  0.12616707301E+00  0.74130429546E+00  0.11801974600E+01  0.00000000000E+00 0. -1.
         11    1    3    3    0    0  0.22690275292E+02  0.31988954400E+02  0.12767561225E+02  0.41245028989E+02  0.51100000000E-03 0. -1.
        -11    1    3    3    0    0  0.37029265197E+01 -0.81498443133E+01  0.38095100716E+01  0.97285145006E+01  0.51100000000E-03 0.  1.
        -12    1    3    3    0    0 -0.25483577792E+02 -0.23965277160E+02 -0.17318375592E+02  0.39034259050E+02  0.00000000000E+00 0.  1.
</event>
<event>
 7    1  0.4400431E-015  0.9000778E+02  0.7816164E-02  0.1186339E+00
        -11   -1    0    0    0    0  0.00000000000E+00  0.00000000000E+00  0.45593999997E+02  0.45594000000E+02  0.51100000000E-03 0.  1.
         11   -1    0    0    0    0 -0.00000000000E+00 -0.00000000000E+00 -0.45593999997E+02  0.45594000000E+02  0.51100000000E-03 0. -1.
    9900012    2    1    2    0    0 -0.56205617924E+00  0.10361397027E+01 -0.58516201964E-01  0.90007781047E+02  0.90000042956E+02 0.  0.
         12    1    1    2    0    0  0.56205617924E+00 -0.10361397027E+01  0.58516201964E-01  0.11802189534E+01  0.00000000000E+00 0. -1.
         11    1    3    3    0    0 -0.15297653619E+01  0.36065274785E+02 -0.13732570923E+02  0.38621596702E+02  0.51100000000E-03 0. -1.
        -11    1    3    3    0    0 -0.13254479498E+02 -0.41867906761E+01 -0.18870679633E+01  0.14027525395E+02  0.51100000000E-03 0.  1.
        -12    1    3    3    0    0  0.14222188681E+02 -0.30842344406E+02  0.15561122684E+02  0.37358658950E+02  0.00000000000E+00 0.  1.
</event>
<event>
 7    1  0.4400431E-015  0.9000778E+02  0.7816164E-02  0.1186339E+00
        -11   -1    0    0    0    0  0.00000000000E+00  0.00000000000E+00  0.45593999997E+02  0.45594000000E+02  0.51100000000E-03 0.  1.
         11   -1    0    0    0    0 -0.00000000000E+00 -0.00000000000E+00 -0.45593999997E+02  0.45594000000E+02  0.51100000000E-03 0. -1.
    9900012    2    1    2    0    0  0.38885209000E-01 -0.11269728308E+01 -0.34833854510E+00  0.90007779867E+02  0.90000041761E+02 0.  0.
         12    1    1    2    0    0 -0.38885209000E-01  0.11269728308E+01  0.34833854510E+00  0.11802201332E+01  0.00000000000E+00 0. -1.
         11    1    3    3    0    0 -0.18510668025E+02  0.11534027576E+02 -0.32848155062E+02  0.39429429543E+02  0.51100000000E-03 0. -1.
        -11    1    3    3    0    0 -0.86436060075E+01 -0.49047604460E+00  0.48043482598E+01  0.99012248750E+01  0.51100000000E-03 0.  1.
        -12    1    3    3    0    0  0.27193159242E+02 -0.12170524362E+02  0.27695468257E+02  0.40677125449E+02  0.00000000000E+00 0.  1.
</event>
<event>
 7    1  0.4400431E-015  0.9000749E+02  0.7816164E-02  0.1186340E+00
        -11   -1    0    0    0    0  0.00000000000E+00  0.00000000000E+00  0.45593999997E+02  0.45594000000E+02  0.51100000000E-03 0. -1.
         11   -1    0    0    0    0 -0.00000000000E+00 -0.00000000000E+00 -0.45593999997E+02  0.45594000000E+02  0.51100000000E-03 0.  1.
    9900012    2    1    2    0    0 -0.11765888852E+01 -0.91815389802E-01  0.28600661542E-01  0.90007487625E+02  0.89999745661E+02 0.  0.
         12    1    1    2    0    0  0.11765888852E+01  0.91815389802E-01 -0.28600661542E-01  0.11805123754E+01  0.00000000000E+00 0. -1.
         11    1    3    3    0    0  0.10462497072E+02 -0.15911021639E+01  0.54802634943E+00  0.10596970521E+02  0.51100000000E-03 0. -1.
        -11    1    3    3    0    0  0.14272690849E+02 -0.30899997982E+02 -0.12450025569E+02  0.36242553943E+02  0.51100000000E-03 0.  1.
         12    1    3    3    0    0 -0.25911776806E+02  0.32399284756E+02  0.11930599881E+02  0.43167963161E+02  0.00000000000E+00 0. -1.
</event>
<event>
 7    1  0.4400431E-015  0.9000768E+02  0.7816164E-02  0.1186339E+00
        -11   -1    0    0    0    0  0.00000000000E+00  0.00000000000E+00  0.45593999997E+02  0.45594000000E+02  0.51100000000E-03 0.  1.
         11   -1    0    0    0    0 -0.00000000000E+00 -0.00000000000E+00 -0.45593999997E+02  0.45594000000E+02  0.51100000000E-03 0. -1.
    9900012    2    1    2    0    0 -0.10365711083E+00 -0.47206044072E+00  0.10768287101E+01  0.90007683971E+02  0.89999944600E+02 0.  0.
         12    1    1    2    0    0  0.10365711083E+00  0.47206044072E+00 -0.10768287101E+01  0.11803160285E+01  0.00000000000E+00 0. -1.
         11    1    3    3    0    0 -0.72798164450E+01  0.30456355492E+01 -0.47160269974E+01  0.91930699048E+01  0.51100000000E-03 0. -1.
        -11    1    3    3    0    0 -0.23777811828E+02 -0.28551958033E+02  0.14804358641E+02  0.39997095868E+02  0.51100000000E-03 0.  1.
         12    1    3    3    0    0  0.30953971163E+02  0.25034262043E+02 -0.90115029331E+01  0.40817518199E+02  0.00000000000E+00 0. -1.
</event>
<event>
 7    1  0.4400431E-015  0.9000773E+02  0.7816164E-02  0.1186339E+00
        -11   -1    0    0    0    0  0.00000000000E+00  0.00000000000E+00  0.45593999997E+02  0.45594000000E+02  0.51100000000E-03 0. -1.
         11   -1    0    0    0    0 -0.00000000000E+00 -0.00000000000E+00 -0.45593999997E+02  0.45594000000E+02  0.51100000000E-03 0.  1.
    9900012    2    1    2    0    0  0.16106943423E+00 -0.85556396245E+00 -0.79693805699E+00  0.90007727437E+02  0.89999988639E+02 0.  0.
         12    1    1    2    0    0 -0.16106943423E+00  0.85556396245E+00  0.79693805699E+00  0.11802725631E+01  0.00000000000E+00 0. -1.
         11    1    3    3    0    0 -0.33663412600E+02  0.88113571731E+01 -0.14718180605E+02  0.37782141333E+02  0.51100000000E-03 0. -1.
        -11    1    3    3    0    0 -0.17613653774E+01  0.58990327974E+01 -0.59799744012E+01  0.85826039194E+01  0.51100000000E-03 0.  1.
        -12    1    3    3    0    0  0.35585847412E+02 -0.15565953933E+02  0.19901216949E+02  0.43642982184E+02  0.00000000000E+00 0.  1.
</event>
<event>
 7    1  0.4400431E-015  0.9000777E+02  0.7816164E-02  0.1186339E+00
        -11   -1    0    0    0    0  0.00000000000E+00  0.00000000000E+00  0.45593999997E+02  0.45594000000E+02  0.51100000000E-03 0.  1.
         11   -1    0    0    0    0 -0.00000000000E+00 -0.00000000000E+00 -0.45593999997E+02  0.45594000000E+02  0.51100000000E-03 0. -1.
    9900012    2    1    2    0    0 -0.37755650908E+00  0.66842694129E+00  0.89644066553E+00  0.90007767243E+02  0.90000028971E+02 0.  0.
         12    1    1    2    0    0  0.37755650908E+00 -0.66842694129E+00 -0.89644066553E+00  0.11802327568E+01  0.00000000000E+00 0. -1.
         11    1    3    3    0    0 -0.29002006793E+01  0.41780745429E+01  0.10280691843E+02  0.11469964947E+02  0.51100000000E-03 0. -1.
        -11    1    3    3    0    0 -0.14056072477E+02  0.33231580334E+02 -0.12307978940E+02  0.38123450143E+02  0.51100000000E-03 0.  1.
         12    1    3    3    0    0  0.16578716647E+02 -0.36741227936E+02  0.29237277630E+01  0.40414352153E+02  0.00000000000E+00 0. -1.
</event>
<event>
 7    1  0.4400431E-015  0.9000761E+02  0.7816164E-02  0.1186339E+00
        -11   -1    0    0    0    0  0.00000000000E+00  0.00000000000E+00  0.45593999997E+02  0.45594000000E+02  0.51100000000E-03 0.  1.
         11   -1    0    0    0    0 -0.00000000000E+00 -0.00000000000E+00 -0.45593999997E+02  0.45594000000E+02  0.51100000000E-03 0. -1.
    9900012    2    1    2    0    0 -0.37391992199E+00  0.10847264760E+01  0.27724005936E+00  0.90007614603E+02  0.89999874315E+02 0.  0.
         12    1    1    2    0    0  0.37391992199E+00 -0.10847264760E+01 -0.27724005936E+00  0.11803853973E+01  0.00000000000E+00 0. -1.
         11    1    3    3    0    0  0.20999832536E+01 -0.60686171381E+01 -0.10535696378E+02  0.12338514581E+02  0.51100000000E-03 0. -1.
        -11    1    3    3    0    0  0.93432935005E+01 -0.32303010279E+02 -0.40747157833E+01  0.33873070653E+02  0.51100000000E-03 0.  1.
         12    1    3    3    0    0 -0.11817196676E+02  0.39456353893E+02  0.14887652221E+02  0.43796029368E+02  0.00000000000E+00 0. -1.
</event>
<event>
 7    1  0.4400431E-015  0.9000767E+02  0.7816164E-02  0.1186339E+00
        -11   -1    0    0    0    0  0.00000000000E+00  0.00000000000E+00  0.45593999997E+02  0.45594000000E+02  0.51100000000E-03 0. -1.
         11   -1    0    0    0    0 -0.00000000000E+00 -0.00000000000E+00 -0.45593999997E+02  0.45594000000E+02  0.51100000000E-03 0.  1.
    9900012    2    1    2    0    0  0.92889414755E+00 -0.32789238756E+00 -0.65023944499E+00  0.90007674159E+02  0.89999934658E+02 0.  0.
         12    1    1    2    0    0 -0.92889414755E+00  0.32789238756E+00  0.65023944499E+00  0.11803258410E+01  0.00000000000E+00 0. -1.
         11    1    3    3    0    0 -0.13436277898E+02 -0.35202170460E+02 -0.81701181790E+01  0.38554859618E+02  0.51100000000E-03 0. -1.
        -11    1    3    3    0    0 -0.98228035983E+01  0.19083143522E+01  0.11633319734E+01  0.10073851088E+02  0.51100000000E-03 0.  1.
        -12    1    3    3    0    0  0.24187975644E+02  0.32965963720E+02  0.63565467605E+01  0.41378963453E+02  0.00000000000E+00 0.  1.
</event>
<event>
 7    1  0.4400431E-015  0.9000780E+02  0.7816164E-02  0.1186339E+00
        -11   -1    0    0    0    0  0.00000000000E+00  0.00000000000E+00  0.45593999997E+02  0.45594000000E+02  0.51100000000E-03 0. -1.
         11   -1    0    0    0    0 -0.00000000000E+00 -0.00000000000E+00 -0.45593999997E+02  0.45594000000E+02  0.51100000000E-03 0.  1.
    9900012    2    1    2    0    0  0.13873289886E+00  0.78408142354E+00 -0.87111805347E+00  0.90007797831E+02  0.90000059963E+02 0.  0.
         12    1    1    2    0    0 -0.13873289886E+00 -0.78408142354E+00  0.87111805347E+00  0.11802021687E+01  0.00000000000E+00 0. -1.
         11    1    3    3    0    0  0.21738075311E+01  0.87579622708E+01 -0.73024045749E+01  0.11608292517E+02  0.51100000000E-03 0. -1.
        -11    1    3    3    0    0  0.24131435970E+02 -0.29908995153E-01 -0.26336465461E+02  0.35720253495E+02  0.51100000000E-03 0.  1.
         12    1    3    3    0    0 -0.26166510602E+02 -0.79439718521E+01  0.32767751982E+02  0.42679251819E+02  0.00000000000E+00 0. -1.
</event>
<event>
 7    1  0.4400431E-015  0.9000777E+02  0.7816164E-02  0.1186339E+00
        -11   -1    0    0    0    0  0.00000000000E+00  0.00000000000E+00  0.45593999997E+02  0.45594000000E+02  0.51100000000E-03 0.  1.
         11   -1    0    0    0    0 -0.00000000000E+00 -0.00000000000E+00 -0.45593999997E+02  0.45594000000E+02  0.51100000000E-03 0. -1.
    9900012    2    1    2    0    0  0.54132054873E+00  0.72030578854E+00  0.76228358629E+00  0.90007769247E+02  0.90000031001E+02 0.  0.
         12    1    1    2    0    0 -0.54132054873E+00 -0.72030578854E+00 -0.76228358629E+00  0.11802307535E+01  0.00000000000E+00 0. -1.
         11    1    3    3    0    0  0.61150519519E+01 -0.15307520605E+02 -0.87870953948E+01  0.18679590284E+02  0.51100000000E-03 0. -1.
        -11    1    3    3    0    0 -0.19773343256E+02 -0.84745923836E+01  0.29626862521E+02  0.36613587679E+02  0.51100000000E-03 0.  1.
         12    1    3    3    0    0  0.14199611853E+02  0.24502418777E+02 -0.20077483540E+02  0.34714591284E+02  0.00000000000E+00 0. -1.
</event>
<event>
 7    1  0.4400431E-015  0.9000766E+02  0.7816164E-02  0.1186339E+00
        -11   -1    0    0    0    0  0.00000000000E+00  0.00000000000E+00  0.45593999997E+02  0.45594000000E+02  0.51100000000E-03 0.  1.
         11   -1    0    0    0    0 -0.00000000000E+00 -0.00000000000E+00 -0.45593999997E+02  0.45594000000E+02  0.51100000000E-03 0. -1.
    9900012    2    1    2    0    0  0.84504627725E+00 -0.45344363297E+00 -0.68810478474E+00  0.90007659992E+02  0.89999920304E+02 0.  0.
         12    1    1    2    0    0 -0.84504627725E+00  0.45344363297E+00  0.68810478474E+00  0.11803400077E+01  0.00000000000E+00 0. -1.
         11    1    3    3    0    0 -0.80584190897E+01  0.93326981696E+01  0.16807386950E+01  0.12444366443E+02  0.51100000000E-03 0. -1.
        -11    1    3    3    0    0 -0.23715021155E+02 -0.14826178646E+02  0.22777516261E+02  0.36069835720E+02  0.51100000000E-03 0.  1.
         12    1    3    3    0    0  0.32618486522E+02  0.50400368431E+01 -0.25146359741E+02  0.41493457829E+02  0.00000000000E+00 0. -1.
</event>
<event>
 7    1  0.4400431E-015  0.9000782E+02  0.7816164E-02  0.1186339E+00
        -11   -1    0    0    0    0  0.00000000000E+00  0.00000000000E+00  0.45593999997E+02  0.45594000000E+02  0.51100000000E-03 0.  1.
         11   -1    0    0    0    0 -0.00000000000E+00 -0.00000000000E+00 -0.45593999997E+02  0.45594000000E+02  0.51100000000E-03 0. -1.
    9900012    2    1    2    0    0 -0.93937420398E+00  0.99652199615E-01  0.70743724233E+00  0.90007821239E+02  0.90000083679E+02 0.  0.
         12    1    1    2    0    0  0.93937420398E+00 -0.99652199615E-01 -0.70743724233E+00  0.11801787610E+01  0.00000000000E+00 0. -1.
         11    1    3    3    0    0 -0.24868908220E+01 -0.73869410987E+01 -0.60885724750E+01  0.98905126157E+01  0.51100000000E-03 0. -1.
        -11    1    3    3    0    0  0.94222622254E+01  0.24716143518E+02  0.36384928753E+02  0.44983661661E+02  0.51100000000E-03 0.  1.
         12    1    3    3    0    0 -0.78747456074E+01 -0.17229550220E+02 -0.29588919036E+02  0.35133646962E+02  0.00000000000E+00 0. -1.
</event>
<event>
 7    1  0.4400431E-015  0.9000772E+02  0.7816164E-02  0.1186339E+00
        -11   -1    0    0    0    0  0.00000000000E+00  0.00000000000E+00  0.45593999997E+02  0.45594000000E+02  0.51100000000E-03 0.  1.
         11   -1    0    0    0    0 -0.00000000000E+00 -0.00000000000E+00 -0.45593999997E+02  0.45594000000E+02  0.51100000000E-03 0. -1.
    9900012    2    1    2    0    0 -0.60632280333E-01  0.22655368756E+00  0.11567405753E+01  0.90007723928E+02  0.89999985084E+02 0.  0.
         12    1    1    2    0    0  0.60632280333E-01 -0.22655368756E+00 -0.11567405753E+01  0.11802760716E+01  0.00000000000E+00 0. -1.
         11    1    3    3    0    0 -0.65706837517E+01  0.34094063056E+02 -0.87470332780E+01  0.35806278948E+02  0.51100000000E-03 0. -1.
        -11    1    3    3    0    0  0.79346267276E+01  0.72030100273E+01  0.74135935853E+01  0.13030848970E+02  0.51100000000E-03 0.  1.
        -12    1    3    3    0    0 -0.14245752562E+01 -0.41070519396E+02  0.24901802680E+01  0.41170596011E+02  0.00000000000E+00 0.  1.
</event>
<event>
 7    1  0.4400431E-015  0.9000764E+02  0.7816164E-02  0.1186339E+00
        -11   -1    0    0    0    0  0.00000000000E+00  0.00000000000E+00  0.45593999997E+02  0.45594000000E+02  0.51100000000E-03 0. -1.
         11   -1    0    0    0    0 -0.00000000000E+00 -0.00000000000E+00 -0.45593999997E+02  0.45594000000E+02  0.51100000000E-03 0.  1.
    9900012    2    1    2    0    0  0.18775775148E+00 -0.46974375046E+00 -0.10664621916E+01  0.90007638288E+02  0.89999898314E+02 0.  0.
         12    1    1    2    0    0 -0.18775775148E+00  0.46974375046E+00  0.10664621916E+01  0.11803617117E+01  0.00000000000E+00 0. -1.
         11    1    3    3    0    0 -0.53328004012E+01  0.26913151429E+01 -0.14933918115E+01  0.61572848465E+01  0.51100000000E-03 0. -1.
        -11    1    3    3    0    0 -0.28672325609E+02  0.19921543482E+02  0.17677725374E+02  0.39134027715E+02  0.51100000000E-03 0.  1.
         12    1    3    3    0    0  0.34192883762E+02 -0.23082602375E+02 -0.17250795754E+02  0.44716325727E+02  0.00000000000E+00 0. -1.
</event>
<event>
 7    1  0.4400431E-015  0.9000775E+02  0.7816164E-02  0.1186339E+00
        -11   -1    0    0    0    0  0.00000000000E+00  0.00000000000E+00  0.45593999997E+02  0.45594000000E+02  0.51100000000E-03 0.  1.
         11   -1    0    0    0    0 -0.00000000000E+00 -0.00000000000E+00 -0.45593999997E+02  0.45594000000E+02  0.51100000000E-03 0. -1.
    9900012    2    1    2    0    0 -0.86013134276E+00  0.67196190540E+00  0.44903010934E+00  0.90007751396E+02  0.90000012914E+02 0.  0.
         12    1    1    2    0    0  0.86013134276E+00 -0.67196190540E+00 -0.44903010934E+00  0.11802486044E+01  0.00000000000E+00 0. -1.
         11    1    3    3    0    0  0.73988284796E+01  0.21813494960E+00  0.57841752385E+01  0.93939836692E+01  0.51100000000E-03 0. -1.
        -11    1    3    3    0    0 -0.25563124164E+02 -0.27054393761E+02  0.17264236946E+02  0.41030079410E+02  0.51100000000E-03 0.  1.
         12    1    3    3    0    0  0.17304164342E+02  0.27508220717E+02 -0.22599382075E+02  0.39583688316E+02  0.00000000000E+00 0. -1.
</event>
<event>
 7    1  0.4400431E-015  0.9000768E+02  0.7816164E-02  0.1186339E+00
        -11   -1    0    0    0    0  0.00000000000E+00  0.00000000000E+00  0.45593999997E+02  0.45594000000E+02  0.51100000000E-03 0.  1.
         11   -1    0    0    0    0 -0.00000000000E+00 -0.00000000000E+00 -0.45593999997E+02  0.45594000000E+02  0.51100000000E-03 0. -1.
    9900012    2    1    2    0    0  0.10882900032E+01  0.22881587547E+00  0.39551358750E+00  0.90007676810E+02  0.89999937343E+02 0.  0.
         12    1    1    2    0    0 -0.10882900032E+01 -0.22881587547E+00 -0.39551358750E+00  0.11803231904E+01  0.00000000000E+00 0. -1.
         11    1    3    3    0    0 -0.59642056412E+01  0.10053688812E+02  0.57352572299E+00  0.11703731870E+02  0.51100000000E-03 0. -1.
        -11    1    3    3    0    0  0.11392948698E+02  0.71757288107E+01  0.35814832460E+02  0.38262156087E+02  0.51100000000E-03 0.  1.
         12    1    3    3    0    0 -0.43404530541E+01 -0.17000601748E+02 -0.35992844595E+02  0.40041788853E+02  0.00000000000E+00 0. -1.
</event>
<event>
 7    1  0.4400431E-015  0.9000765E+02  0.7816164E-02  0.1186339E+00
        -11   -1    0    0    0    0  0.00000000000E+00  0.00000000000E+00  0.45593999997E+02  0.45594000000E+02  0.51100000000E-03 0. -1.
         11   -1    0    0    0    0 -0.00000000000E+00 -0.00000000000E+00 -0.45593999997E+02  0.45594000000E+02  0.51100000000E-03 0.  1.
    9900012    2    1    2    0    0 -0.80678774462E+00  0.66152676625E+00 -0.55200007753E+00  0.90007649114E+02  0.89999909283E+02 0.  0.
         12    1    1    2    0    0  0.80678774462E+00 -0.66152676625E+00  0.55200007753E+00  0.11803508855E+01  0.00000000000E+00 0. -1.
         11    1    3    3    0    0 -0.64334713595E+01 -0.75526654508E+01 -0.11495818227E+02  0.15185063257E+02  0.51100000000E-03 0. -1.
        -11    1    3    3    0    0  0.41013854427E+01 -0.32109468660E+02 -0.20349087259E+01  0.32434244155E+02  0.51100000000E-03 0.  1.
         12    1    3    3    0    0  0.15252981722E+01  0.40323660877E+02  0.12978726875E+02  0.42388341703E+02  0.00000000000E+00 0. -1.
</event>
<event>
 7    1  0.4400431E-015  0.9000863E+02  0.7816164E-02  0.1186337E+00
        -11   -1    0    0    0    0  0.00000000000E+00  0.00000000000E+00  0.45593999997E+02  0.45594000000E+02  0.51100000000E-03 0. -1.
         11   -1    0    0    0    0 -0.00000000000E+00 -0.00000000000E+00 -0.45593999997E+02  0.45594000000E+02  0.51100000000E-03 0.  1.
    9900012    2    1    2    0    0  0.31051939683E+00 -0.78006720311E+00 -0.82824692471E+00  0.90008627241E+02  0.90000900316E+02 0.  0.
         12    1    1    2    0    0 -0.31051939683E+00  0.78006720311E+00  0.82824692471E+00  0.11793727593E+01  0.00000000000E+00 0. -1.
         11    1    3    3    0    0  0.70051720194E+01  0.68981396724E+00  0.74930611567E+01  0.10280770598E+02  0.51100000000E-03 0. -1.
        -11    1    3    3    0    0  0.25790494497E+02  0.23326015734E+02  0.80661014666E+01  0.35697543467E+02  0.51100000000E-03 0.  1.
         12    1    3    3    0    0 -0.32485147120E+02 -0.24795896904E+02 -0.16387409548E+02  0.44030313176E+02  0.00000000000E+00 0. -1.
</event>
<event>
 7    1  0.4400431E-015  0.9000775E+02  0.7816164E-02  0.1186339E+00
        -11   -1    0    0    0    0  0.00000000000E+00  0.00000000000E+00  0.45593999997E+02  0.45594000000E+02  0.51100000000E-03 0. -1.
         11   -1    0    0    0    0 -0.00000000000E+00 -0.00000000000E+00 -0.45593999997E+02  0.45594000000E+02  0.51100000000E-03 0.  1.
    9900012    2    1    2    0    0  0.84784130955E+00  0.34362689223E+00 -0.74570145418E+00  0.90007752151E+02  0.90000013679E+02 0.  0.
         12    1    1    2    0    0 -0.84784130955E+00 -0.34362689223E+00  0.74570145418E+00  0.11802478494E+01  0.00000000000E+00 0. -1.
         11    1    3    3    0    0  0.29675039339E+02  0.20870073712E+02  0.12715584039E+02  0.38442866884E+02  0.51100000000E-03 0. -1.
        -11    1    3    3    0    0 -0.28808613689E+01  0.64937444136E+01  0.60467372140E+01  0.93290465714E+01  0.51100000000E-03 0.  1.
        -12    1    3    3    0    0 -0.25946336661E+02 -0.27020191233E+02 -0.19508022707E+02  0.42235838696E+02  0.00000000000E+00 0.  1.
</event>
<event>
 7    1  0.4400431E-015  0.9000758E+02  0.7816164E-02  0.1186339E+00
        -11   -1    0    0    0    0  0.00000000000E+00  0.00000000000E+00  0.45593999997E+02  0.45594000000E+02  0.51100000000E-03 0. -1.
         11   -1    0    0    0    0 -0.00000000000E+00 -0.00000000000E+00 -0.45593999997E+02  0.45594000000E+02  0.51100000000E-03 0.  1.
    9900012    2    1    2    0    0 -0.11755756952E+01 -0.10502623270E+00 -0.19649960118E-01  0.90007578530E+02  0.89999837767E+02 0.  0.
         12    1    1    2    0    0  0.11755756952E+01  0.10502623270E+00  0.19649960118E-01  0.11804214695E+01  0.00000000000E+00 0. -1.
         11    1    3    3    0    0  0.30420992182E+02  0.60486723962E+00  0.21706819721E+02  0.37376311380E+02  0.51100000000E-03 0. -1.
        -11    1    3    3    0    0  0.77835235610E+01 -0.11301890459E+00 -0.73464235317E+01  0.10703548536E+02  0.51100000000E-03 0.  1.
        -12    1    3    3    0    0 -0.39380091438E+02 -0.59687456773E+00 -0.14380046149E+02  0.41927718614E+02  0.00000000000E+00 0.  1.
</event>
<event>
 7    1  0.4400431E-015  0.9000772E+02  0.7816164E-02  0.1186339E+00
        -11   -1    0    0    0    0  0.00000000000E+00  0.00000000000E+00  0.45593999997E+02  0.45594000000E+02  0.51100000000E-03 0. -1.
         11   -1    0    0    0    0 -0.00000000000E+00 -0.00000000000E+00 -0.45593999997E+02  0.45594000000E+02  0.51100000000E-03 0.  1.
    9900012    2    1    2    0    0 -0.60383460955E+00  0.99808502215E+00 -0.17966756932E+00  0.90007715974E+02  0.89999977025E+02 0.  0.
         12    1    1    2    0    0  0.60383460955E+00 -0.99808502215E+00  0.17966756932E+00  0.11802840262E+01  0.00000000000E+00 0. -1.
         11    1    3    3    0    0  0.41137920956E+01  0.18292488330E+02  0.51818193088E+01  0.19452240651E+02  0.51100000000E-03 0. -1.
        -11    1    3    3    0    0  0.19021566405E+02  0.17015990767E+02 -0.12180682285E+02  0.28279550058E+02  0.51100000000E-03 0.  1.
         12    1    3    3    0    0 -0.23739193110E+02 -0.34310394075E+02  0.68191954073E+01  0.42275925266E+02  0.00000000000E+00 0. -1.
</event>
<event>
 7    1  0.4400431E-015  0.9000795E+02  0.7816164E-02  0.1186339E+00
        -11   -1    0    0    0    0  0.00000000000E+00  0.00000000000E+00  0.45593999997E+02  0.45594000000E+02  0.51100000000E-03 0.  1.
         11   -1    0    0    0    0 -0.00000000000E+00 -0.00000000000E+00 -0.45593999997E+02  0.45594000000E+02  0.51100000000E-03 0. -1.
    9900012    2    1    2    0    0  0.11799144870E+01  0.53008033594E-02  0.17330318120E-01  0.90007946342E+02  0.90000210434E+02 0.  0.
         12    1    1    2    0    0 -0.11799144870E+01 -0.53008033594E-02 -0.17330318120E-01  0.11800536577E+01  0.00000000000E+00 0. -1.
         11    1    3    3    0    0 -0.92094644647E+01  0.85782973988E+00  0.20646110638E+01  0.94769576709E+01  0.51100000000E-03 0. -1.
        -11    1    3    3    0    0 -0.30473841089E+01  0.36939536128E+02 -0.12439709542E+02  0.39096831751E+02  0.51100000000E-03 0.  1.
         12    1    3    3    0    0  0.13436763061E+02 -0.37792065064E+02  0.10392428796E+02  0.41434156920E+02  0.00000000000E+00 0. -1.
</event>
<event>
 7    1  0.4400431E-015  0.9000772E+02  0.7816164E-02  0.1186339E+00
        -11   -1    0    0    0    0  0.00000000000E+00  0.00000000000E+00  0.45593999997E+02  0.45594000000E+02  0.51100000000E-03 0.  1.
         11   -1    0    0    0    0 -0.00000000000E+00 -0.00000000000E+00 -0.45593999997E+02  0.45594000000E+02  0.51100000000E-03 0. -1.
    9900012    2    1    2    0    0 -0.18252457265E+00 -0.11401937067E+01 -0.24433968965E+00  0.90007720884E+02  0.89999981999E+02 0.  0.
         12    1    1    2    0    0  0.18252457265E+00  0.11401937067E+01  0.24433968965E+00  0.11802791163E+01  0.00000000000E+00 0. -1.
         11    1    3    3    0    0  0.23630462776E+02  0.16070418072E+01 -0.30822212372E+02  0.38871456496E+02  0.51100000000E-03 0. -1.
        -11    1    3    3    0    0  0.84325071541E+01 -0.22668800007E+01  0.68687153455E+01  0.11109688231E+02  0.51100000000E-03 0.  1.
        -12    1    3    3    0    0 -0.32245494503E+02 -0.48035551331E+00  0.23709157337E+02  0.40026576156E+02  0.00000000000E+00 0.  1.
</event>
<event>
 7    1  0.4400431E-015  0.9000784E+02  0.7816164E-02  0.1186339E+00
        -11   -1    0    0    0    0  0.00000000000E+00  0.00000000000E+00  0.45593999997E+02  0.45594000000E+02  0.51100000000E-03 0.  1.
         11   -1    0    0    0    0 -0.00000000000E+00 -0.00000000000E+00 -0.45593999997E+02  0.45594000000E+02  0.51100000000E-03 0. -1.
    9900012    2    1    2    0    0 -0.11706848576E+00 -0.75950511886E+00  0.89567328052E+00  0.90007837434E+02  0.90000100088E+02 0.  0.
         12    1    1    2    0    0  0.11706848576E+00  0.75950511886E+00 -0.89567328052E+00  0.11801625657E+01  0.00000000000E+00 0. -1.
         11    1    3    3    0    0  0.36152898731E+01 -0.10437660089E+02 -0.13043063333E+02  0.17092003112E+02  0.51100000000E-03 0. -1.
        -11    1    3    3    0    0 -0.36055329814E+02  0.12267467597E+02  0.13742605012E+02  0.40488723887E+02  0.51100000000E-03 0.  1.
         12    1    3    3    0    0  0.32322971455E+02 -0.25893126268E+01  0.19613160169E+00  0.32427110435E+02  0.00000000000E+00 0. -1.
</event>
<event>
 7    1  0.4400431E-015  0.9000778E+02  0.7816164E-02  0.1186339E+00
        -11   -1    0    0    0    0  0.00000000000E+00  0.00000000000E+00  0.45593999997E+02  0.45594000000E+02  0.51100000000E-03 0. -1.
         11   -1    0    0    0    0 -0.00000000000E+00 -0.00000000000E+00 -0.45593999997E+02  0.45594000000E+02  0.51100000000E-03 0.  1.
    9900012    2    1    2    0    0  0.10302712798E+01  0.27173352469E+00 -0.50757450895E+00  0.90007775487E+02  0.90000037324E+02 0.  0.
         12    1    1    2    0    0 -0.10302712798E+01 -0.27173352469E+00  0.50757450895E+00  0.11802245127E+01  0.00000000000E+00 0. -1.
         11    1    3    3    0    0  0.11118576161E+02 -0.34800778541E+01  0.35859471255E+02  0.37704580049E+02  0.51100000000E-03 0. -1.
        -11    1    3    3    0    0  0.36453319128E+00 -0.10225289794E+02  0.17499283018E+01  0.10380350916E+02  0.51100000000E-03 0.  1.
        -12    1    3    3    0    0 -0.10452838072E+02  0.13977101173E+02 -0.38116974065E+02  0.41922844523E+02  0.00000000000E+00 0.  1.
</event>
<event>
 7    1  0.4400431E-015  0.9000778E+02  0.7816164E-02  0.1186339E+00
        -11   -1    0    0    0    0  0.00000000000E+00  0.00000000000E+00  0.45593999997E+02  0.45594000000E+02  0.51100000000E-03 0.  1.
         11   -1    0    0    0    0 -0.00000000000E+00 -0.00000000000E+00 -0.45593999997E+02  0.45594000000E+02  0.51100000000E-03 0. -1.
    9900012    2    1    2    0    0  0.97115576084E+00  0.67017914261E+00  0.25055692838E-01  0.90007783332E+02  0.90000045272E+02 0.  0.
         12    1    1    2    0    0 -0.97115576084E+00 -0.67017914261E+00 -0.25055692838E-01  0.11802166677E+01  0.00000000000E+00 0. -1.
         11    1    3    3    0    0 -0.69962258834E+01 -0.72321518818E+01 -0.33705432229E+01  0.10611868795E+02  0.51100000000E-03 0. -1.
        -11    1    3    3    0    0 -0.34173616631E+02 -0.37620352850E+01 -0.53799972481E+01  0.34798467693E+02  0.51100000000E-03 0.  1.
         12    1    3    3    0    0  0.42140998275E+02  0.11664366309E+02  0.87755961639E+01  0.44597446844E+02  0.00000000000E+00 0. -1.
</event>
<event>
 7    1  0.4400431E-015  0.9000768E+02  0.7816164E-02  0.1186339E+00
        -11   -1    0    0    0    0  0.00000000000E+00  0.00000000000E+00  0.45593999997E+02  0.45594000000E+02  0.51100000000E-03 0.  1.
         11   -1    0    0    0    0 -0.00000000000E+00 -0.00000000000E+00 -0.45593999997E+02  0.45594000000E+02  0.51100000000E-03 0. -1.
    9900012    2    1    2    0    0 -0.10599117705E+01 -0.95958084719E-02  0.51928782227E+00  0.90007675941E+02  0.89999936464E+02 0.  0.
         12    1    1    2    0    0  0.10599117705E+01  0.95958084719E-02 -0.51928782227E+00  0.11803240586E+01  0.00000000000E+00 0. -1.
         11    1    3    3    0    0  0.83921083873E+01 -0.45802698825E+01  0.28997099186E+01  0.99907293654E+01  0.51100000000E-03 0. -1.
        -11    1    3    3    0    0  0.18398303168E+02  0.34346661338E+02 -0.43035964884E+01  0.39200913861E+02  0.51100000000E-03 0.  1.
         12    1    3    3    0    0 -0.27850323326E+02 -0.29775987264E+02  0.19231743922E+01  0.40816032715E+02  0.00000000000E+00 0. -1.
</event>
<event>
 7    1  0.4400431E-015  0.9000764E+02  0.7816164E-02  0.1186339E+00
        -11   -1    0    0    0    0  0.00000000000E+00  0.00000000000E+00  0.45593999997E+02  0.45594000000E+02  0.51100000000E-03 0. -1.
         11   -1    0    0    0    0 -0.00000000000E+00 -0.00000000000E+00 -0.45593999997E+02  0.45594000000E+02  0.51100000000E-03 0.  1.
    9900012    2    1    2    0    0 -0.62746316845E+00 -0.50672802742E+00 -0.86184147902E+00  0.90007638167E+02  0.89999898191E+02 0.  0.
         12    1    1    2    0    0  0.62746316845E+00  0.50672802742E+00  0.86184147902E+00  0.11803618329E+01  0.00000000000E+00 0. -1.
         11    1    3    3    0    0 -0.11815800388E+02  0.48233127246E+01 -0.32458748520E+01  0.13168644132E+02  0.51100000000E-03 0. -1.
        -11    1    3    3    0    0  0.67785820152E+01 -0.39427953356E+02 -0.82539437055E+01  0.40848993463E+02  0.51100000000E-03 0.  1.
         12    1    3    3    0    0  0.44097552049E+01  0.34097912604E+02  0.10637977078E+02  0.35990000573E+02  0.00000000000E+00 0. -1.
</event>
<event>
 7    1  0.4400431E-015  0.9000772E+02  0.7816164E-02  0.1186339E+00
        -11   -1    0    0    0    0  0.00000000000E+00  0.00000000000E+00  0.45593999997E+02  0.45594000000E+02  0.51100000000E-03 0. -1.
         11   -1    0    0    0    0 -0.00000000000E+00 -0.00000000000E+00 -0.45593999997E+02  0.45594000000E+02  0.51100000000E-03 0.  1.
    9900012    2    1    2    0    0  0.79468397604E-01  0.89089582212E+00 -0.77009146080E+00  0.90007723994E+02  0.89999985151E+02 0.  0.
         12    1    1    2    0    0 -0.79468397604E-01 -0.89089582212E+00  0.77009146080E+00  0.11802760059E+01  0.00000000000E+00 0. -1.
         11    1    3    3    0    0 -0.98937147389E+01 -0.34061294832E+02  0.68002444273E+01  0.36115103787E+02  0.51100000000E-03 0. -1.
        -11    1    3    3    0    0 -0.34110884370E+01 -0.68428710929E+01 -0.64327818150E+01  0.99920514039E+01  0.51100000000E-03 0.  1.
        -12    1    3    3    0    0  0.13384271573E+02  0.41795061747E+02 -0.11375540731E+01  0.43900568804E+02  0.00000000000E+00 0.  1.
</event>
<event>
 7    1  0.4400431E-015  0.9000773E+02  0.7816164E-02  0.1186339E+00
        -11   -1    0    0    0    0  0.00000000000E+00  0.00000000000E+00  0.45593999997E+02  0.45594000000E+02  0.51100000000E-03 0. -1.
         11   -1    0    0    0    0 -0.00000000000E+00 -0.00000000000E+00 -0.45593999997E+02  0.45594000000E+02  0.51100000000E-03 0.  1.
    9900012    2    1    2    0    0 -0.22499419710E+00 -0.10395746196E+01  0.51155747947E+00  0.90007733575E+02  0.89999994859E+02 0.  0.
         12    1    1    2    0    0  0.22499419710E+00  0.10395746196E+01 -0.51155747947E+00  0.11802664247E+01  0.00000000000E+00 0. -1.
         11    1    3    3    0    0 -0.16344934954E+02 -0.92037772297E+01  0.11660313666E+02  0.22086858740E+02  0.51100000000E-03 0. -1.
        -11    1    3    3    0    0 -0.11225165168E+02 -0.17443807711E+01  0.21425936529E+02  0.24251143349E+02  0.51100000000E-03 0.  1.
         12    1    3    3    0    0  0.27345105925E+02  0.99085833812E+01 -0.32574692715E+02  0.43669731487E+02  0.00000000000E+00 0. -1.
</event>
<event>
 7    1  0.5573577E-015  0.9000772E+02  0.7816164E-02  0.1186339E+00
        -11   -1    0    0    0    0  0.00000000000E+00  0.00000000000E+00  0.45593999997E+02  0.45594000000E+02  0.51100000000E-03 0.  1.
         11   -1    0    0    0    0 -0.00000000000E+00 -0.00000000000E+00 -0.45593999997E+02  0.45594000000E+02  0.51100000000E-03 0. -1.
    9900012    2    1    2    0    0  0.73862222701E+00  0.53970065570E+00  0.74580022006E+00  0.90007721406E+02  0.89999982528E+02 0.  0.
         12    1    1    2    0    0 -0.73862222701E+00 -0.53970065570E+00 -0.74580022006E+00  0.11802785943E+01  0.00000000000E+00 0. -1.
         11    1    3    3    0    0  0.24155307615E+02 -0.48998493733E+00 -0.27815932547E+02  0.36843521479E+02  0.51100000000E-03 0. -1.
        -11    1    3    3    0    0  0.20732826852E+01 -0.74799771597E+01 -0.56933343971E+01  0.96261423333E+01  0.51100000000E-03 0.  1.
        -12    1    3    3    0    0 -0.25489968073E+02  0.85096627527E+01  0.34255067165E+02  0.43538057593E+02  0.00000000000E+00 0.  1.
</event>
<event>
 7    1  0.4400431E-015  0.9000772E+02  0.7816164E-02  0.1186339E+00
        -11   -1    0    0    0    0  0.00000000000E+00  0.00000000000E+00  0.45593999997E+02  0.45594000000E+02  0.51100000000E-03 0.  1.
         11   -1    0    0    0    0 -0.00000000000E+00 -0.00000000000E+00 -0.45593999997E+02  0.45594000000E+02  0.51100000000E-03 0. -1.
    9900012    2    1    2    0    0 -0.21386638015E+00 -0.10825028896E+01  0.41892945846E+00  0.90007723242E+02  0.89999984389E+02 0.  0.
         12    1    1    2    0    0  0.21386638015E+00  0.10825028896E+01 -0.41892945846E+00  0.11802767581E+01  0.00000000000E+00 0. -1.
         11    1    3    3    0    0  0.79889369275E+01 -0.30000332907E+02 -0.21232446230E+02  0.37611964332E+02  0.51100000000E-03 0. -1.
        -11    1    3    3    0    0 -0.78074159625E+01 -0.48488485166E+01 -0.39656945166E+01  0.10009685770E+02  0.51100000000E-03 0.  1.
        -12    1    3    3    0    0 -0.39538734512E+00  0.33766678534E+02  0.25617070205E+02  0.42386073140E+02  0.00000000000E+00 0.  1.
</event>
<event>
 7    1  0.4400431E-015  0.9000775E+02  0.7816164E-02  0.1186339E+00
        -11   -1    0    0    0    0  0.00000000000E+00  0.00000000000E+00  0.45593999997E+02  0.45594000000E+02  0.51100000000E-03 0.  1.
         11   -1    0    0    0    0 -0.00000000000E+00 -0.00000000000E+00 -0.45593999997E+02  0.45594000000E+02  0.51100000000E-03 0. -1.
    9900012    2    1    2    0    0 -0.45159731734E+00 -0.93871244039E+00 -0.55485686999E+00  0.90007751158E+02  0.90000012673E+02 0.  0.
         12    1    1    2    0    0  0.45159731734E+00  0.93871244039E+00  0.55485686999E+00  0.11802488420E+01  0.00000000000E+00 0. -1.
         11    1    3    3    0    0  0.21803815239E+01 -0.14926839479E+02  0.31596274487E+02  0.35012700012E+02  0.51100000000E-03 0. -1.
        -11    1    3    3    0    0 -0.36603601491E+01  0.32983067381E+01  0.10187071227E+02  0.11316071943E+02  0.51100000000E-03 0.  1.
        -12    1    3    3    0    0  0.10283813078E+01  0.10689820300E+02 -0.42338202584E+02  0.43678979203E+02  0.00000000000E+00 0.  1.
</event>
<event>
 7    1  0.4400431E-015  0.9000774E+02  0.7816164E-02  0.1186339E+00
        -11   -1    0    0    0    0  0.00000000000E+00  0.00000000000E+00  0.45593999997E+02  0.45594000000E+02  0.51100000000E-03 0.  1.
         11   -1    0    0    0    0 -0.00000000000E+00 -0.00000000000E+00 -0.45593999997E+02  0.45594000000E+02  0.51100000000E-03 0. -1.
    9900012    2    1    2    0    0  0.19714203056E+00  0.87432765208E+00  0.76792130516E+00  0.90007738608E+02  0.89999999957E+02 0.  0.
         12    1    1    2    0    0 -0.19714203056E+00 -0.87432765208E+00 -0.76792130516E+00  0.11802613924E+01  0.00000000000E+00 0. -1.
         11    1    3    3    0    0  0.14085749116E+02  0.16151792158E+02 -0.33736469726E+02  0.39967963519E+02  0.51100000000E-03 0. -1.
        -11    1    3    3    0    0 -0.66984756457E+01  0.79851267187E+01  0.43795866227E+01  0.11305423651E+02  0.51100000000E-03 0.  1.
        -12    1    3    3    0    0 -0.71901314394E+01 -0.23262591224E+02  0.30124804408E+02  0.38734351437E+02  0.00000000000E+00 0.  1.
</event>
<event>
 7    1  0.4400431E-015  0.9000752E+02  0.7816164E-02  0.1186339E+00
        -11   -1    0    0    0    0  0.00000000000E+00  0.00000000000E+00  0.45593999997E+02  0.45594000000E+02  0.51100000000E-03 0. -1.
         11   -1    0    0    0    0 -0.00000000000E+00 -0.00000000000E+00 -0.45593999997E+02  0.45594000000E+02  0.51100000000E-03 0.  1.
    9900012    2    1    2    0    0  0.82735856650E+00 -0.71808993890E+00  0.43972065472E+00  0.90007521448E+02  0.89999779931E+02 0.  0.
         12    1    1    2    0    0 -0.82735856650E+00  0.71808993890E+00 -0.43972065472E+00  0.11804785522E+01  0.00000000000E+00 0. -1.
         11    1    3    3    0    0 -0.86830391361E+01 -0.67172959521E+01  0.29339584234E+01  0.11363333395E+02  0.51100000000E-03 0. -1.
        -11    1    3    3    0    0 -0.33770047526E+02  0.46907664091E+01 -0.79293236332E+01  0.35004193648E+02  0.51100000000E-03 0.  1.
         12    1    3    3    0    0  0.43280445228E+02  0.13084396040E+01  0.54350858645E+01  0.43639994405E+02  0.00000000000E+00 0. -1.
</event>
<event>
 7    1  0.4400431E-015  0.9000768E+02  0.7816164E-02  0.1186339E+00
        -11   -1    0    0    0    0  0.00000000000E+00  0.00000000000E+00  0.45593999997E+02  0.45594000000E+02  0.51100000000E-03 0. -1.
         11   -1    0    0    0    0 -0.00000000000E+00 -0.00000000000E+00 -0.45593999997E+02  0.45594000000E+02  0.51100000000E-03 0.  1.
    9900012    2    1    2    0    0  0.87445571619E+00 -0.28155087295E+00 -0.74108674307E+00  0.90007680868E+02  0.89999941455E+02 0.  0.
         12    1    1    2    0    0 -0.87445571619E+00  0.28155087295E+00  0.74108674307E+00  0.11803191324E+01  0.00000000000E+00 0. -1.
         11    1    3    3    0    0 -0.43749208162E+01  0.10111650068E+02 -0.85141153632E+01  0.13923920423E+02  0.51100000000E-03 0. -1.
        -11    1    3    3    0    0  0.35887363447E+01  0.10238790912E+02 -0.30609697706E+02  0.32475613340E+02  0.51100000000E-03 0.  1.
         12    1    3    3    0    0  0.16606401876E+01 -0.20631991853E+02  0.38382726327E+02  0.43608147105E+02  0.00000000000E+00 0. -1.
</event>
<event>
 7    1  0.4400431E-015  0.9000769E+02  0.7816164E-02  0.1186339E+00
        -11   -1    0    0    0    0  0.00000000000E+00  0.00000000000E+00  0.45593999997E+02  0.45594000000E+02  0.51100000000E-03 0. -1.
         11   -1    0    0    0    0 -0.00000000000E+00 -0.00000000000E+00 -0.45593999997E+02  0.45594000000E+02  0.51100000000E-03 0.  1.
    9900012    2    1    2    0    0 -0.48839274129E+00  0.14688173778E+00  0.10644393031E+01  0.90007689556E+02  0.89999950258E+02 0.  0.
         12    1    1    2    0    0  0.48839274129E+00 -0.14688173778E+00 -0.10644393031E+01  0.11803104442E+01  0.00000000000E+00 0. -1.
         11    1    3    3    0    0 -0.24420035114E+02 -0.24018942498E+02  0.81819464828E+01  0.35216359298E+02  0.51100000000E-03 0. -1.
        -11    1    3    3    0    0 -0.66918509875E+01 -0.39619732635E+01  0.74138021654E+01  0.10744420161E+02  0.51100000000E-03 0.  1.
        -12    1    3    3    0    0  0.30623493361E+02  0.28127797500E+02 -0.14531309345E+02  0.44046910097E+02  0.00000000000E+00 0.  1.
</event>
<event>
 7    1  0.4400431E-015  0.9000776E+02  0.7816164E-02  0.1186339E+00
        -11   -1    0    0    0    0  0.00000000000E+00  0.00000000000E+00  0.45593999997E+02  0.45594000000E+02  0.51100000000E-03 0.  1.
         11   -1    0    0    0    0 -0.00000000000E+00 -0.00000000000E+00 -0.45593999997E+02  0.45594000000E+02  0.51100000000E-03 0. -1.
    9900012    2    1    2    0    0  0.38571276295E+00 -0.14784607460E+00  0.11055907182E+01  0.90007761196E+02  0.90000022844E+02 0.  0.
         12    1    1    2    0    0 -0.38571276295E+00  0.14784607460E+00 -0.11055907182E+01  0.11802388036E+01  0.00000000000E+00 0. -1.
         11    1    3    3    0    0  0.18089723286E+02 -0.21839696996E+02 -0.20450572477E+02  0.34963357509E+02  0.51100000000E-03 0. -1.
        -11    1    3    3    0    0 -0.16845450154E+01 -0.71626020916E+01 -0.79086139011E+01  0.10802163428E+02  0.51100000000E-03 0.  1.
        -12    1    3    3    0    0 -0.16019465508E+02  0.28854453013E+02  0.29464777096E+02  0.44242240259E+02  0.00000000000E+00 0.  1.
</event>
<event>
 7    1  0.4400431E-015  0.9000776E+02  0.7816164E-02  0.1186339E+00
        -11   -1    0    0    0    0  0.00000000000E+00  0.00000000000E+00  0.45593999997E+02  0.45594000000E+02  0.51100000000E-03 0.  1.
         11   -1    0    0    0    0 -0.00000000000E+00 -0.00000000000E+00 -0.45593999997E+02  0.45594000000E+02  0.51100000000E-03 0. -1.
    9900012    2    1    2    0    0 -0.91562595432E+00 -0.16487783531E+00  0.72622394160E+00  0.90007764090E+02  0.90000025776E+02 0.  0.
         12    1    1    2    0    0  0.91562595432E+00  0.16487783531E+00 -0.72622394160E+00  0.11802359095E+01  0.00000000000E+00 0. -1.
         11    1    3    3    0    0  0.24130300564E+02 -0.29206934786E+02 -0.45595009257E+01  0.38158950376E+02  0.51100000000E-03 0. -1.
        -11    1    3    3    0    0  0.29841119865E+01  0.95920667189E+01  0.13431591662E+02  0.16772606331E+02  0.51100000000E-03 0.  1.
        -12    1    3    3    0    0 -0.28030038504E+02  0.19449990232E+02 -0.81458667946E+01  0.35076207383E+02  0.00000000000E+00 0.  1.
</event>
<event>
 7    1  0.4400431E-015  0.9000775E+02  0.7816164E-02  0.1186339E+00
        -11   -1    0    0    0    0  0.00000000000E+00  0.00000000000E+00  0.45593999997E+02  0.45594000000E+02  0.51100000000E-03 0.  1.
         11   -1    0    0    0    0 -0.00000000000E+00 -0.00000000000E+00 -0.45593999997E+02  0.45594000000E+02  0.51100000000E-03 0. -1.
    9900012    2    1    2    0    0 -0.96411742784E+00 -0.51305726755E+00  0.44749358666E+00  0.90007745500E+02  0.90000006941E+02 0.  0.
         12    1    1    2    0    0  0.96411742784E+00  0.51305726755E+00 -0.44749358666E+00  0.11802544999E+01  0.00000000000E+00 0. -1.
         11    1    3    3    0    0  0.10075280447E+02 -0.30023524499E+02 -0.25014591557E+02  0.40356574315E+02  0.51100000000E-03 0. -1.
        -11    1    3    3    0    0 -0.85369846291E+01 -0.30689504276E+01  0.16521679194E+01  0.92210749037E+01  0.51100000000E-03 0.  1.
        -12    1    3    3    0    0 -0.25024132455E+01  0.32579417659E+02  0.23809917224E+02  0.40430096281E+02  0.00000000000E+00 0.  1.
</event>
<event>
 7    1  0.4400431E-015  0.9000774E+02  0.7816164E-02  0.1186339E+00
        -11   -1    0    0    0    0  0.00000000000E+00  0.00000000000E+00  0.45593999997E+02  0.45594000000E+02  0.51100000000E-03 0.  1.
         11   -1    0    0    0    0 -0.00000000000E+00 -0.00000000000E+00 -0.45593999997E+02  0.45594000000E+02  0.51100000000E-03 0. -1.
    9900012    2    1    2    0    0  0.28747252578E+00  0.74007926057E+00  0.87329932414E+00  0.90007741776E+02  0.90000003168E+02 0.  0.
         12    1    1    2    0    0 -0.28747252578E+00 -0.74007926057E+00 -0.87329932414E+00  0.11802582237E+01  0.00000000000E+00 0. -1.
         11    1    3    3    0    0 -0.31963521706E+02  0.12211827883E+02  0.34333688428E+01  0.34388711548E+02  0.51100000000E-03 0. -1.
        -11    1    3    3    0    0 -0.84624348673E+01  0.25606816161E+01 -0.83580790243E+01  0.12166650297E+02  0.51100000000E-03 0.  1.
        -12    1    3    3    0    0  0.40713429099E+02 -0.14032430239E+02  0.57980095056E+01  0.43452379930E+02  0.00000000000E+00 0.  1.
</event>
<event>
 7    1  0.4400431E-015  0.9000772E+02  0.7816164E-02  0.1186339E+00
        -11   -1    0    0    0    0  0.00000000000E+00  0.00000000000E+00  0.45593999997E+02  0.45594000000E+02  0.51100000000E-03 0.  1.
         11   -1    0    0    0    0 -0.00000000000E+00 -0.00000000000E+00 -0.45593999997E+02  0.45594000000E+02  0.51100000000E-03 0. -1.
    9900012    2    1    2    0    0 -0.11738850301E-01  0.41749884796E+00  0.11039127628E+01  0.90007717628E+02  0.89999978701E+02 0.  0.
         12    1    1    2    0    0  0.11738850301E-01 -0.41749884796E+00 -0.11039127628E+01  0.11802823715E+01  0.00000000000E+00 0. -1.
         11    1    3    3    0    0 -0.43762247152E+01 -0.23443708715E+02 -0.25667677417E+02  0.35036958848E+02  0.51100000000E-03 0. -1.
        -11    1    3    3    0    0 -0.29879882250E+01 -0.83638374002E+01 -0.40641698383E+01  0.97672578765E+01  0.51100000000E-03 0.  1.
        -12    1    3    3    0    0  0.73524740899E+01  0.32225044963E+02  0.30835760018E+02  0.45203500904E+02  0.00000000000E+00 0.  1.
</event>
<event>
 7    1  0.4400431E-015  0.9000779E+02  0.7816164E-02  0.1186339E+00
        -11   -1    0    0    0    0  0.00000000000E+00  0.00000000000E+00  0.45593999997E+02  0.45594000000E+02  0.51100000000E-03 0.  1.
         11   -1    0    0    0    0 -0.00000000000E+00 -0.00000000000E+00 -0.45593999997E+02  0.45594000000E+02  0.51100000000E-03 0. -1.
    9900012    2    1    2    0    0  0.91993295013E+00 -0.73930227075E+00 -0.63915197520E-02  0.90007794369E+02  0.90000056454E+02 0.  0.
         12    1    1    2    0    0 -0.91993295013E+00  0.73930227075E+00  0.63915197520E-02  0.11802056312E+01  0.00000000000E+00 0. -1.
         11    1    3    3    0    0 -0.23429702063E+02  0.73626973851E+01 -0.24666513503E+02  0.34808003967E+02  0.51100000000E-03 0. -1.
        -11    1    3    3    0    0 -0.68816479977E+01  0.84687559045E+01 -0.17735969776E+01  0.11055430893E+02  0.51100000000E-03 0.  1.
        -12    1    3    3    0    0  0.31231283011E+02 -0.16570755560E+02  0.26433718961E+02  0.44144359509E+02  0.00000000000E+00 0.  1.
</event>
<event>
 7    1  0.4400431E-015  0.9000762E+02  0.7816164E-02  0.1186339E+00
        -11   -1    0    0    0    0  0.00000000000E+00  0.00000000000E+00  0.45593999997E+02  0.45594000000E+02  0.51100000000E-03 0.  1.
         11   -1    0    0    0    0 -0.00000000000E+00 -0.00000000000E+00 -0.45593999997E+02  0.45594000000E+02  0.51100000000E-03 0. -1.
    9900012    2    1    2    0    0  0.43711303493E+00 -0.45450162082E+00  0.99782235910E+00  0.90007623370E+02  0.89999883198E+02 0.  0.
         12    1    1    2    0    0 -0.43711303493E+00  0.45450162082E+00 -0.99782235910E+00  0.11803766301E+01  0.00000000000E+00 0. -1.
         11    1    3    3    0    0 -0.14880905858E+02 -0.25762593196E+02 -0.20871770187E+02  0.36342583264E+02  0.51100000000E-03 0. -1.
        -11    1    3    3    0    0  0.39342596116E+01 -0.72942745481E+01 -0.52028447142E+01  0.97854194216E+01  0.51100000000E-03 0.  1.
        -12    1    3    3    0    0  0.11383759281E+02  0.32602366123E+02  0.27072437260E+02  0.43879620684E+02  0.00000000000E+00 0.  1.
</event>
<event>
 7    1  0.4400431E-015  0.9000776E+02  0.7816164E-02  0.1186339E+00
        -11   -1    0    0    0    0  0.00000000000E+00  0.00000000000E+00  0.45593999997E+02  0.45594000000E+02  0.51100000000E-03 0.  1.
         11   -1    0    0    0    0 -0.00000000000E+00 -0.00000000000E+00 -0.45593999997E+02  0.45594000000E+02  0.51100000000E-03 0. -1.
    9900012    2    1    2    0    0 -0.92720207652E+00 -0.47952850367E+00 -0.55074332310E+00  0.90007758718E+02  0.90000020333E+02 0.  0.
         12    1    1    2    0    0  0.92720207652E+00  0.47952850367E+00  0.55074332310E+00  0.11802412823E+01  0.00000000000E+00 0. -1.
         11    1    3    3    0    0  0.45549412103E+01  0.74019806485E+00 -0.64066948380E+01  0.78956394049E+01  0.51100000000E-03 0. -1.
        -11    1    3    3    0    0  0.29981832382E+02  0.42500381561E+01  0.26907830375E+02  0.40509312918E+02  0.51100000000E-03 0.  1.
         12    1    3    3    0    0 -0.35463975669E+02 -0.54697647246E+01 -0.21051878860E+02  0.41602806395E+02  0.00000000000E+00 0. -1.
</event>
<event>
 7    1  0.4400431E-015  0.9000775E+02  0.7816164E-02  0.1186339E+00
        -11   -1    0    0    0    0  0.00000000000E+00  0.00000000000E+00  0.45593999997E+02  0.45594000000E+02  0.51100000000E-03 0.  1.
         11   -1    0    0    0    0 -0.00000000000E+00 -0.00000000000E+00 -0.45593999997E+02  0.45594000000E+02  0.51100000000E-03 0. -1.
    9900012    2    1    2    0    0  0.95913061725E+00  0.58369399690E+00 -0.36381406896E+00  0.90007749645E+02  0.90000011141E+02 0.  0.
         12    1    1    2    0    0 -0.95913061725E+00 -0.58369399690E+00  0.36381406896E+00  0.11802503547E+01  0.00000000000E+00 0. -1.
         11    1    3    3    0    0  0.56761714655E+01 -0.34685432718E+01 -0.49865193408E+01  0.83135486004E+01  0.51100000000E-03 0. -1.
        -11    1    3    3    0    0  0.20474722695E+02 -0.30706497227E+02  0.10487032689E+02  0.38367709031E+02  0.51100000000E-03 0.  1.
         12    1    3    3    0    0 -0.25191763543E+02  0.34758734496E+02 -0.58643274173E+01  0.43326492014E+02  0.00000000000E+00 0. -1.
</event>
<event>
 7    1  0.4400431E-015  0.9000773E+02  0.7816164E-02  0.1186339E+00
        -11   -1    0    0    0    0  0.00000000000E+00  0.00000000000E+00  0.45593999997E+02  0.45594000000E+02  0.51100000000E-03 0.  1.
         11   -1    0    0    0    0 -0.00000000000E+00 -0.00000000000E+00 -0.45593999997E+02  0.45594000000E+02  0.51100000000E-03 0. -1.
    9900012    2    1    2    0    0  0.44893293419E+00  0.10298362463E+01  0.36185704044E+00  0.90007727154E+02  0.89999988352E+02 0.  0.
         12    1    1    2    0    0 -0.44893293419E+00 -0.10298362463E+01 -0.36185704044E+00  0.11802728461E+01  0.00000000000E+00 0. -1.
         11    1    3    3    0    0 -0.24243627879E+02  0.93904587548E+01 -0.22977976474E+02  0.34697573567E+02  0.51100000000E-03 0. -1.
        -11    1    3    3    0    0 -0.11092927180E+02 -0.57618969295E+01 -0.12803076895E-01  0.12500106152E+02  0.51100000000E-03 0.  1.
        -12    1    3    3    0    0  0.35785487993E+02 -0.25987255790E+01  0.23352636592E+02  0.42810047434E+02  0.00000000000E+00 0.  1.
</event>
<event>
 7    1  0.4400431E-015  0.9000774E+02  0.7816164E-02  0.1186339E+00
        -11   -1    0    0    0    0  0.00000000000E+00  0.00000000000E+00  0.45593999997E+02  0.45594000000E+02  0.51100000000E-03 0.  1.
         11   -1    0    0    0    0 -0.00000000000E+00 -0.00000000000E+00 -0.45593999997E+02  0.45594000000E+02  0.51100000000E-03 0. -1.
    9900012    2    1    2    0    0 -0.67212646948E+00  0.95077465945E+00  0.19312918123E+00  0.90007735062E+02  0.89999996364E+02 0.  0.
         12    1    1    2    0    0  0.67212646948E+00 -0.95077465945E+00 -0.19312918123E+00  0.11802649383E+01  0.00000000000E+00 0. -1.
         11    1    3    3    0    0 -0.10816784069E+02 -0.47395180961E+01  0.23270481023E+01  0.12036652463E+02  0.51100000000E-03 0. -1.
        -11    1    3    3    0    0  0.13066646928E+02 -0.22644256345E+01  0.36283004438E+02  0.38630574637E+02  0.51100000000E-03 0.  1.
         12    1    3    3    0    0 -0.29219893287E+01  0.79547183900E+01 -0.38416923360E+02  0.39340507962E+02  0.00000000000E+00 0. -1.
</event>
<event>
 7    1  0.4400431E-015  0.9000763E+02  0.7816164E-02  0.1186339E+00
        -11   -1    0    0    0    0  0.00000000000E+00  0.00000000000E+00  0.45593999997E+02  0.45594000000E+02  0.51100000000E-03 0. -1.
         11   -1    0    0    0    0 -0.00000000000E+00 -0.00000000000E+00 -0.45593999997E+02  0.45594000000E+02  0.51100000000E-03 0.  1.
    9900012    2    1    2    0    0  0.77541527567E+00  0.67582141652E+00  0.57903164975E+00  0.90007626717E+02  0.89999886589E+02 0.  0.
         12    1    1    2    0    0 -0.77541527567E+00 -0.67582141652E+00 -0.57903164975E+00  0.11803732834E+01  0.00000000000E+00 0. -1.
         11    1    3    3    0    0 -0.12916904276E+02  0.35283735449E+02  0.67539514231E+01  0.38175964472E+02  0.51100000000E-03 0. -1.
        -11    1    3    3    0    0 -0.90653714974E+01 -0.21834155965E+01  0.51215896649E+01  0.10638559348E+02  0.51100000000E-03 0.  1.
        -12    1    3    3    0    0  0.22757691049E+02 -0.32424498436E+02 -0.11296509438E+02  0.41193102896E+02  0.00000000000E+00 0.  1.
</event>
<event>
 7    1  0.4400431E-015  0.9000732E+02  0.7816164E-02  0.1186340E+00
        -11   -1    0    0    0    0  0.00000000000E+00  0.00000000000E+00  0.45593999997E+02  0.45594000000E+02  0.51100000000E-03 0. -1.
         11   -1    0    0    0    0 -0.00000000000E+00 -0.00000000000E+00 -0.45593999997E+02  0.45594000000E+02  0.51100000000E-03 0.  1.
    9900012    2    1    2    0    0 -0.10935146047E+01  0.43780813942E+00 -0.81026377948E-01  0.90007315694E+02  0.89999571460E+02 0.  0.
         12    1    1    2    0    0  0.10935146047E+01 -0.43780813942E+00  0.81026377948E-01  0.11806843065E+01  0.00000000000E+00 0. -1.
         11    1    3    3    0    0  0.74302455848E+01  0.30216065549E+02 -0.23024074227E+02  0.38708231179E+02  0.51100000000E-03 0. -1.
        -11    1    3    3    0    0  0.46351625929E+01  0.60047383219E+01  0.22126258668E+01  0.79017294350E+01  0.51100000000E-03 0.  1.
        -12    1    3    3    0    0 -0.13158922782E+02 -0.35782995732E+02  0.20730421982E+02  0.43397355080E+02  0.00000000000E+00 0.  1.
</event>
<event>
 7    1  0.4400431E-015  0.9000758E+02  0.7816164E-02  0.1186339E+00
        -11   -1    0    0    0    0  0.00000000000E+00  0.00000000000E+00  0.45593999997E+02  0.45594000000E+02  0.51100000000E-03 0.  1.
         11   -1    0    0    0    0 -0.00000000000E+00 -0.00000000000E+00 -0.45593999997E+02  0.45594000000E+02  0.51100000000E-03 0. -1.
    9900012    2    1    2    0    0  0.56669496849E+00 -0.83918897328E+00  0.60664451394E+00  0.90007576819E+02  0.89999836033E+02 0.  0.
         12    1    1    2    0    0 -0.56669496849E+00  0.83918897328E+00 -0.60664451394E+00  0.11804231811E+01  0.00000000000E+00 0. -1.
         11    1    3    3    0    0 -0.53195981621E+00 -0.10827529326E+02  0.15456663585E+01  0.10950226359E+02  0.51100000000E-03 0. -1.
        -11    1    3    3    0    0  0.16799823005E+02  0.11245163087E+02  0.34662478584E+02  0.40126988021E+02  0.51100000000E-03 0.  1.
         12    1    3    3    0    0 -0.15701168221E+02 -0.12568227338E+01 -0.35601500428E+02  0.38930362439E+02  0.00000000000E+00 0. -1.
</event>
<event>
 7    1  0.4400431E-015  0.9000772E+02  0.7816164E-02  0.1186339E+00
        -11   -1    0    0    0    0  0.00000000000E+00  0.00000000000E+00  0.45593999997E+02  0.45594000000E+02  0.51100000000E-03 0.  1.
         11   -1    0    0    0    0 -0.00000000000E+00 -0.00000000000E+00 -0.45593999997E+02  0.45594000000E+02  0.51100000000E-03 0. -1.
    9900012    2    1    2    0    0  0.77297079362E+00  0.57856597323E+00  0.67885054970E+00  0.90007720159E+02  0.89999981266E+02 0.  0.
         12    1    1    2    0    0 -0.77297079362E+00 -0.57856597323E+00 -0.67885054970E+00  0.11802798405E+01  0.00000000000E+00 0. -1.
         11    1    3    3    0    0  0.35190037361E+02  0.12967556548E+02 -0.14163555971E+02  0.40088683819E+02  0.51100000000E-03 0. -1.
        -11    1    3    3    0    0  0.19970102903E+01  0.27993878680E+01  0.95013676035E+01  0.10104484605E+02  0.51100000000E-03 0.  1.
        -12    1    3    3    0    0 -0.36414076858E+02 -0.15188378443E+02  0.53410389176E+01  0.39814551735E+02  0.00000000000E+00 0.  1.
</event>
<event>
 7    1  0.4400431E-015  0.9000771E+02  0.7816164E-02  0.1186339E+00
        -11   -1    0    0    0    0  0.00000000000E+00  0.00000000000E+00  0.45593999997E+02  0.45594000000E+02  0.51100000000E-03 0.  1.
         11   -1    0    0    0    0 -0.00000000000E+00 -0.00000000000E+00 -0.45593999997E+02  0.45594000000E+02  0.51100000000E-03 0. -1.
    9900012    2    1    2    0    0 -0.37302194512E+00  0.10336535900E+01  0.43070200399E+00  0.90007707946E+02  0.89999968891E+02 0.  0.
         12    1    1    2    0    0  0.37302194512E+00 -0.10336535900E+01 -0.43070200399E+00  0.11802920537E+01  0.00000000000E+00 0. -1.
         11    1    3    3    0    0  0.17909022723E+01  0.11313381452E+01 -0.40358406111E+02  0.40413960472E+02  0.51100000000E-03 0. -1.
        -11    1    3    3    0    0  0.70209483580E+01 -0.11293776084E+02  0.15243019068E+02  0.20228512665E+02  0.51100000000E-03 0.  1.
        -12    1    3    3    0    0 -0.91848725753E+01  0.11196091529E+02  0.25546089048E+02  0.29365234809E+02  0.00000000000E+00 0.  1.
</event>
<event>
 7    1  0.4400431E-015  0.9000786E+02  0.7816164E-02  0.1186339E+00
        -11   -1    0    0    0    0  0.00000000000E+00  0.00000000000E+00  0.45593999997E+02  0.45594000000E+02  0.51100000000E-03 0. -1.
         11   -1    0    0    0    0 -0.00000000000E+00 -0.00000000000E+00 -0.45593999997E+02  0.45594000000E+02  0.51100000000E-03 0.  1.
    9900012    2    1    2    0    0  0.75516456913E+00  0.82223092575E+00  0.38261195739E+00  0.90007860546E+02  0.90000123505E+02 0.  0.
         12    1    1    2    0    0 -0.75516456913E+00 -0.82223092575E+00 -0.38261195739E+00  0.11801394543E+01  0.00000000000E+00 0. -1.
         11    1    3    3    0    0 -0.82163842685E+01  0.97953421641E+00 -0.10341357249E+00  0.82752131306E+01  0.51100000000E-03 0. -1.
        -11    1    3    3    0    0  0.16799923636E+02 -0.31608390617E+01 -0.38357549592E+02  0.41994403778E+02  0.51100000000E-03 0.  1.
         12    1    3    3    0    0 -0.78283747988E+01  0.30035357710E+01  0.38843575121E+02  0.39738243637E+02  0.00000000000E+00 0. -1.
</event>
<event>
 7    1  0.4400431E-015  0.9000761E+02  0.7816164E-02  0.1186339E+00
        -11   -1    0    0    0    0  0.00000000000E+00  0.00000000000E+00  0.45593999997E+02  0.45594000000E+02  0.51100000000E-03 0. -1.
         11   -1    0    0    0    0 -0.00000000000E+00 -0.00000000000E+00 -0.45593999997E+02  0.45594000000E+02  0.51100000000E-03 0.  1.
    9900012    2    1    2    0    0  0.35469160559E+00 -0.10989720477E+01  0.24448080204E+00  0.90007611691E+02  0.89999871366E+02 0.  0.
         12    1    1    2    0    0 -0.35469160559E+00  0.10989720477E+01 -0.24448080204E+00  0.11803883086E+01  0.00000000000E+00 0. -1.
         11    1    3    3    0    0  0.18484289676E+02  0.28486211831E+02 -0.75558090231E+01  0.34788266406E+02  0.51100000000E-03 0. -1.
        -11    1    3    3    0    0  0.96826640299E+01  0.38911807411E+01 -0.19558032704E+01  0.10616988131E+02  0.51100000000E-03 0.  1.
        -12    1    3    3    0    0 -0.27812262100E+02 -0.33476364619E+02  0.97560930954E+01  0.44602357155E+02  0.00000000000E+00 0.  1.
</event>
<event>
 7    1  0.4400431E-015  0.9000771E+02  0.7816164E-02  0.1186339E+00
        -11   -1    0    0    0    0  0.00000000000E+00  0.00000000000E+00  0.45593999997E+02  0.45594000000E+02  0.51100000000E-03 0. -1.
         11   -1    0    0    0    0 -0.00000000000E+00 -0.00000000000E+00 -0.45593999997E+02  0.45594000000E+02  0.51100000000E-03 0.  1.
    9900012    2    1    2    0    0 -0.74718690157E-01 -0.92923397710E+00  0.72390143414E+00  0.90007706836E+02  0.89999967766E+02 0.  0.
         12    1    1    2    0    0  0.74718690157E-01  0.92923397710E+00 -0.72390143414E+00  0.11802931641E+01  0.00000000000E+00 0. -1.
         11    1    3    3    0    0  0.49418493233E+01  0.36195868951E+02 -0.95695163069E+01  0.37764248258E+02  0.51100000000E-03 0. -1.
        -11    1    3    3    0    0 -0.87209292065E+01  0.40707770201E+01  0.39256802025E+01  0.10394075095E+02  0.51100000000E-03 0.  1.
        -12    1    3    3    0    0  0.37043611930E+01 -0.41195879948E+02  0.63677375385E+01  0.41849383483E+02  0.00000000000E+00 0.  1.
</event>
<event>
 7    1  0.4400431E-015  0.9000786E+02  0.7816164E-02  0.1186339E+00
        -11   -1    0    0    0    0  0.00000000000E+00  0.00000000000E+00  0.45593999997E+02  0.45594000000E+02  0.51100000000E-03 0. -1.
         11   -1    0    0    0    0 -0.00000000000E+00 -0.00000000000E+00 -0.45593999997E+02  0.45594000000E+02  0.51100000000E-03 0.  1.
    9900012    2    1    2    0    0 -0.68111560826E+00  0.57225420089E+00 -0.77545712189E+00  0.90007861411E+02  0.90000124381E+02 0.  0.
         12    1    1    2    0    0  0.68111560826E+00 -0.57225420089E+00  0.77545712189E+00  0.11801385894E+01  0.00000000000E+00 0. -1.
         11    1    3    3    0    0 -0.25687152076E+02 -0.20530624595E+02 -0.10459167627E+02  0.34506963293E+02  0.51100000000E-03 0. -1.
        -11    1    3    3    0    0 -0.10860235851E+02  0.34302517518E+00 -0.44133604645E+01  0.11727750844E+02  0.51100000000E-03 0.  1.
        -12    1    3    3    0    0  0.35866272318E+02  0.20759853620E+02  0.14097070969E+02  0.43773147274E+02  0.00000000000E+00 0.  1.
</event>
<event>
 7    1  0.4400431E-015  0.9000774E+02  0.7816164E-02  0.1186339E+00
        -11   -1    0    0    0    0  0.00000000000E+00  0.00000000000E+00  0.45593999997E+02  0.45594000000E+02  0.51100000000E-03 0.  1.
         11   -1    0    0    0    0 -0.00000000000E+00 -0.00000000000E+00 -0.45593999997E+02  0.45594000000E+02  0.51100000000E-03 0. -1.
    9900012    2    1    2    0    0  0.83472768021E+00  0.41204927335E+00  0.72557864889E+00  0.90007737623E+02  0.89999998959E+02 0.  0.
         12    1    1    2    0    0 -0.83472768021E+00 -0.41204927335E+00 -0.72557864889E+00  0.11802623774E+01  0.00000000000E+00 0. -1.
         11    1    3    3    0    0  0.62097093038E+01 -0.56696370704E+01  0.31407276381E+01  0.89760483792E+01  0.51100000000E-03 0. -1.
        -11    1    3    3    0    0 -0.26181901214E+02 -0.14915997320E+02  0.26170099266E+02  0.39910562801E+02  0.51100000000E-03 0.  1.
         12    1    3    3    0    0  0.20806919591E+02  0.20997683663E+02 -0.28585248255E+02  0.41121126442E+02  0.00000000000E+00 0. -1.
</event>
<event>
 7    1  0.4400431E-015  0.9000723E+02  0.7816164E-02  0.1186340E+00
        -11   -1    0    0    0    0  0.00000000000E+00  0.00000000000E+00  0.45593999997E+02  0.45594000000E+02  0.51100000000E-03 0. -1.
         11   -1    0    0    0    0 -0.00000000000E+00 -0.00000000000E+00 -0.45593999997E+02  0.45594000000E+02  0.51100000000E-03 0.  1.
    9900012    2    1    2    0    0  0.59425410656E+00 -0.10162993274E+01  0.90586964142E-01  0.90007234035E+02  0.89999488723E+02 0.  0.
         12    1    1    2    0    0 -0.59425410656E+00  0.10162993274E+01 -0.90586964142E-01  0.11807659650E+01  0.00000000000E+00 0. -1.
         11    1    3    3    0    0 -0.94265159258E+01 -0.50749277367E+01  0.17143032757E+01  0.10842182899E+02  0.51100000000E-03 0. -1.
        -11    1    3    3    0    0 -0.92979570404E+01 -0.34421381293E+02  0.33949845029E+01  0.35816328891E+02  0.51100000000E-03 0.  1.
         12    1    3    3    0    0  0.19318727073E+02  0.38480009702E+02 -0.50187008144E+01  0.43348722245E+02  0.00000000000E+00 0. -1.
</event>
<event>
 7    1  0.4400431E-015  0.9000771E+02  0.7816164E-02  0.1186339E+00
        -11   -1    0    0    0    0  0.00000000000E+00  0.00000000000E+00  0.45593999997E+02  0.45594000000E+02  0.51100000000E-03 0.  1.
         11   -1    0    0    0    0 -0.00000000000E+00 -0.00000000000E+00 -0.45593999997E+02  0.45594000000E+02  0.51100000000E-03 0. -1.
    9900012    2    1    2    0    0  0.77838158353E+00  0.78635243886E+00  0.41091620299E+00  0.90007711826E+02  0.89999972822E+02 0.  0.
         12    1    1    2    0    0 -0.77838158353E+00 -0.78635243886E+00 -0.41091620299E+00  0.11802881739E+01  0.00000000000E+00 0. -1.
         11    1    3    3    0    0  0.95850643256E-02  0.51795062734E+01  0.69457242628E+01  0.86643212605E+01  0.51100000000E-03 0. -1.
        -11    1    3    3    0    0 -0.27434620784E+02 -0.32371146900E+01  0.26231686149E+02  0.38095126822E+02  0.51100000000E-03 0.  1.
         12    1    3    3    0    0  0.28203417303E+02 -0.11560391445E+01 -0.32766494209E+02  0.43248263744E+02  0.00000000000E+00 0. -1.
</event>
<event>
 7    1  0.4400431E-015  0.9000777E+02  0.7816164E-02  0.1186339E+00
        -11   -1    0    0    0    0  0.00000000000E+00  0.00000000000E+00  0.45593999997E+02  0.45594000000E+02  0.51100000000E-03 0.  1.
         11   -1    0    0    0    0 -0.00000000000E+00 -0.00000000000E+00 -0.45593999997E+02  0.45594000000E+02  0.51100000000E-03 0. -1.
    9900012    2    1    2    0    0  0.22126524764E+00  0.29292510882E+00  0.11216832653E+01  0.90007772574E+02  0.90000034372E+02 0.  0.
         12    1    1    2    0    0 -0.22126524764E+00 -0.29292510882E+00 -0.11216832653E+01  0.11802274259E+01  0.00000000000E+00 0. -1.
         11    1    3    3    0    0 -0.23574298311E+02 -0.11400644560E+01 -0.28556187376E+02  0.37047309289E+02  0.51100000000E-03 0. -1.
        -11    1    3    3    0    0 -0.37254046515E+01  0.10255485087E+02 -0.82291508303E+00  0.10942157177E+02  0.51100000000E-03 0.  1.
        -12    1    3    3    0    0  0.27520968210E+02 -0.88224955221E+01  0.30500785724E+02  0.42018306109E+02  0.00000000000E+00 0.  1.
</event>
<event>
 7    1  0.4400431E-015  0.9000772E+02  0.7816164E-02  0.1186339E+00
        -11   -1    0    0    0    0  0.00000000000E+00  0.00000000000E+00  0.45593999997E+02  0.45594000000E+02  0.51100000000E-03 0. -1.
         11   -1    0    0    0    0 -0.00000000000E+00 -0.00000000000E+00 -0.45593999997E+02  0.45594000000E+02  0.51100000000E-03 0.  1.
    9900012    2    1    2    0    0  0.16697407172E-01 -0.35342546157E+00 -0.11259999976E+01  0.90007718527E+02  0.89999979612E+02 0.  0.
         12    1    1    2    0    0 -0.16697407172E-01  0.35342546157E+00  0.11259999976E+01  0.11802814727E+01  0.00000000000E+00 0. -1.
         11    1    3    3    0    0  0.72641108795E+01  0.22776037826E+01  0.79170939700E+00  0.76538611099E+01  0.51100000000E-03 0. -1.
        -11    1    3    3    0    0  0.34552105090E+02 -0.13260388206E+02 -0.10302593181E+02  0.38416523633E+02  0.51100000000E-03 0.  1.
         12    1    3    3    0    0 -0.41799518562E+02  0.10629358962E+02  0.83848837866E+01  0.43937333784E+02  0.00000000000E+00 0. -1.
</event>
<event>
 7    1  0.4400431E-015  0.9000765E+02  0.7816164E-02  0.1186339E+00
        -11   -1    0    0    0    0  0.00000000000E+00  0.00000000000E+00  0.45593999997E+02  0.45594000000E+02  0.51100000000E-03 0.  1.
         11   -1    0    0    0    0 -0.00000000000E+00 -0.00000000000E+00 -0.45593999997E+02  0.45594000000E+02  0.51100000000E-03 0. -1.
    9900012    2    1    2    0    0  0.11695294501E+00  0.10762076942E+01  0.47046399596E+00  0.90007645238E+02  0.89999905355E+02 0.  0.
         12    1    1    2    0    0 -0.11695294501E+00 -0.10762076942E+01 -0.47046399596E+00  0.11803547619E+01  0.00000000000E+00 0. -1.
         11    1    3    3    0    0  0.31409665040E+02  0.19427067301E+02 -0.10317573158E+02  0.38346190397E+02  0.51100000000E-03 0. -1.
        -11    1    3    3    0    0  0.61132270786E+01 -0.65207660847E+01 -0.39239149794E+01  0.97616107621E+01  0.51100000000E-03 0.  1.
        -12    1    3    3    0    0 -0.37405939174E+02 -0.11830093522E+02  0.14711952134E+02  0.41899844078E+02  0.00000000000E+00 0.  1.
</event>
<event>
 7    1  0.4400431E-015  0.9000774E+02  0.7816164E-02  0.1186339E+00
        -11   -1    0    0    0    0  0.00000000000E+00  0.00000000000E+00  0.45593999997E+02  0.45594000000E+02  0.51100000000E-03 0. -1.
         11   -1    0    0    0    0 -0.00000000000E+00 -0.00000000000E+00 -0.45593999997E+02  0.45594000000E+02  0.51100000000E-03 0.  1.
    9900012    2    1    2    0    0  0.17532556070E+00 -0.92001857229E+00 -0.71822700447E+00  0.90007735938E+02  0.89999997253E+02 0.  0.
         12    1    1    2    0    0 -0.17532556070E+00  0.92001857229E+00  0.71822700447E+00  0.11802640618E+01  0.00000000000E+00 0. -1.
         11    1    3    3    0    0 -0.36452299563E+02 -0.67656316521E+01 -0.25655007394E+01  0.37163499692E+02  0.51100000000E-03 0. -1.
        -11    1    3    3    0    0 -0.70897869658E+01  0.27747474012E+01  0.46643901918E+01  0.89286526690E+01  0.51100000000E-03 0.  1.
        -12    1    3    3    0    0  0.43717412089E+02  0.30708656786E+01 -0.28171164569E+01  0.43915583577E+02  0.00000000000E+00 0.  1.
</event>
<event>
 7    1  0.4400431E-015  0.9000757E+02  0.7816164E-02  0.1186339E+00
        -11   -1    0    0    0    0  0.00000000000E+00  0.00000000000E+00  0.45593999997E+02  0.45594000000E+02  0.51100000000E-03 0.  1.
         11   -1    0    0    0    0 -0.00000000000E+00 -0.00000000000E+00 -0.45593999997E+02  0.45594000000E+02  0.51100000000E-03 0. -1.
    9900012    2    1    2    0    0 -0.41132973356E+00  0.11059671547E+01 -0.32431489175E-01  0.90007573256E+02  0.89999832423E+02 0.  0.
         12    1    1    2    0    0  0.41132973356E+00 -0.11059671547E+01  0.32431489175E-01  0.11804267442E+01  0.00000000000E+00 0. -1.
         11    1    3    3    0    0 -0.30167617484E+02 -0.24520887955E+02 -0.28778677650E+01  0.38982575773E+02  0.51100000000E-03 0. -1.
        -11    1    3    3    0    0  0.13066859529E+01 -0.50732619919E+01  0.72431569360E+01  0.89391687577E+01  0.51100000000E-03 0.  1.
        -12    1    3    3    0    0  0.28449601798E+02  0.30700117101E+02 -0.43977206602E+01  0.42085828725E+02  0.00000000000E+00 0.  1.
</event>
<event>
 7    1  0.4400431E-015  0.9000769E+02  0.7816164E-02  0.1186339E+00
        -11   -1    0    0    0    0  0.00000000000E+00  0.00000000000E+00  0.45593999997E+02  0.45594000000E+02  0.51100000000E-03 0.  1.
         11   -1    0    0    0    0 -0.00000000000E+00 -0.00000000000E+00 -0.45593999997E+02  0.45594000000E+02  0.51100000000E-03 0. -1.
    9900012    2    1    2    0    0 -0.20040653314E+00 -0.62374845600E+00  0.98178231770E+00  0.90007694347E+02  0.89999955112E+02 0.  0.
         12    1    1    2    0    0  0.20040653314E+00  0.62374845600E+00 -0.98178231770E+00  0.11803056529E+01  0.00000000000E+00 0. -1.
         11    1    3    3    0    0  0.21033031505E+02  0.38403247178E+02 -0.69030367985E+01  0.44326625468E+02  0.51100000000E-03 0. -1.
        -11    1    3    3    0    0 -0.31904326791E+01 -0.93672288143E+01  0.42667265256E+01  0.10776306967E+02  0.51100000000E-03 0.  1.
        -12    1    3    3    0    0 -0.18043005359E+02 -0.29659766819E+02  0.36180925906E+01  0.34904761912E+02  0.00000000000E+00 0.  1.
</event>
<event>
 7    1  0.4400431E-015  0.9000786E+02  0.7816164E-02  0.1186339E+00
        -11   -1    0    0    0    0  0.00000000000E+00  0.00000000000E+00  0.45593999997E+02  0.45594000000E+02  0.51100000000E-03 0. -1.
         11   -1    0    0    0    0 -0.00000000000E+00 -0.00000000000E+00 -0.45593999997E+02  0.45594000000E+02  0.51100000000E-03 0.  1.
    9900012    2    1    2    0    0  0.80512221456E+00 -0.83956550948E+00 -0.19911061649E+00  0.90007857185E+02  0.90000120100E+02 0.  0.
         12    1    1    2    0    0 -0.80512221456E+00  0.83956550948E+00  0.19911061649E+00  0.11801428145E+01  0.00000000000E+00 0. -1.
         11    1    3    3    0    0  0.35359079201E+02  0.61629762412E+01  0.19028151658E+02  0.40624097700E+02  0.51100000000E-03 0. -1.
        -11    1    3    3    0    0 -0.19894880499E+01 -0.88784413937E+01  0.33698550963E+01  0.97026134579E+01  0.51100000000E-03 0.  1.
        -12    1    3    3    0    0 -0.32564468937E+02  0.18758996430E+01 -0.22597117371E+02  0.39681146028E+02  0.00000000000E+00 0.  1.
</event>
<event>
 7    1  0.4400431E-015  0.9000784E+02  0.7816164E-02  0.1186339E+00
        -11   -1    0    0    0    0  0.00000000000E+00  0.00000000000E+00  0.45593999997E+02  0.45594000000E+02  0.51100000000E-03 0.  1.
         11   -1    0    0    0    0 -0.00000000000E+00 -0.00000000000E+00 -0.45593999997E+02  0.45594000000E+02  0.51100000000E-03 0. -1.
    9900012    2    1    2    0    0  0.44040718267E+00 -0.10948833653E+01  0.77644833311E-02  0.90007835453E+02  0.90000098081E+02 0.  0.
         12    1    1    2    0    0 -0.44040718267E+00  0.10948833653E+01 -0.77644833311E-02  0.11801645467E+01  0.00000000000E+00 0. -1.
         11    1    3    3    0    0 -0.14646598030E+02 -0.28742940953E+02 -0.14879724989E+02  0.35525845585E+02  0.51100000000E-03 0. -1.
        -11    1    3    3    0    0 -0.91170079621E+01  0.13286691711E+02 -0.81996244876E+01  0.18080095487E+02  0.51100000000E-03 0.  1.
        -12    1    3    3    0    0  0.24204013175E+02  0.14361365877E+02  0.23087113960E+02  0.36401894382E+02  0.00000000000E+00 0.  1.
</event>
<event>
 7    1  0.4400431E-015  0.9000795E+02  0.7816164E-02  0.1186339E+00
        -11   -1    0    0    0    0  0.00000000000E+00  0.00000000000E+00  0.45593999997E+02  0.45594000000E+02  0.51100000000E-03 0.  1.
         11   -1    0    0    0    0 -0.00000000000E+00 -0.00000000000E+00 -0.45593999997E+02  0.45594000000E+02  0.51100000000E-03 0. -1.
    9900012    2    1    2    0    0  0.24163807954E+00 -0.73724321456E+00  0.88916031058E+00  0.90007948062E+02  0.90000212176E+02 0.  0.
         12    1    1    2    0    0 -0.24163807954E+00  0.73724321456E+00 -0.88916031058E+00  0.11800519382E+01  0.00000000000E+00 0. -1.
         11    1    3    3    0    0  0.29978781577E+02 -0.72190563839E+01 -0.19166029132E+02  0.36306732060E+02  0.51100000000E-03 0. -1.
        -11    1    3    3    0    0 -0.27452304788E+01 -0.13314502691E+02 -0.18171980049E+01  0.13715483263E+02  0.51100000000E-03 0.  1.
        -12    1    3    3    0    0 -0.26991913018E+02  0.19796315860E+02  0.21872387447E+02  0.39985732739E+02  0.00000000000E+00 0.  1.
</event>
<event>
 7    1  0.4400431E-015  0.9000774E+02  0.7816164E-02  0.1186339E+00
        -11   -1    0    0    0    0  0.00000000000E+00  0.00000000000E+00  0.45593999997E+02  0.45594000000E+02  0.51100000000E-03 0.  1.
         11   -1    0    0    0    0 -0.00000000000E+00 -0.00000000000E+00 -0.45593999997E+02  0.45594000000E+02  0.51100000000E-03 0. -1.
    9900012    2    1    2    0    0 -0.11726762262E+01 -0.22563102880E-01  0.13163648661E+00  0.90007742914E+02  0.90000004320E+02 0.  0.
         12    1    1    2    0    0  0.11726762262E+01  0.22563102880E-01 -0.13163648661E+00  0.11802570863E+01  0.00000000000E+00 0. -1.
         11    1    3    3    0    0 -0.67503862822E+01 -0.35146489287E+01  0.55939630267E+01  0.94452577866E+01  0.51100000000E-03 0. -1.
        -11    1    3    3    0    0 -0.34588151181E+02  0.13210480919E+02 -0.11565447122E+02  0.38789387410E+02  0.51100000000E-03 0.  1.
         12    1    3    3    0    0  0.40165861237E+02 -0.97183950931E+01  0.61031205822E+01  0.41773097717E+02  0.00000000000E+00 0. -1.
</event>
<event>
 7    1  0.4400431E-015  0.9000772E+02  0.7816164E-02  0.1186339E+00
        -11   -1    0    0    0    0  0.00000000000E+00  0.00000000000E+00  0.45593999997E+02  0.45594000000E+02  0.51100000000E-03 0.  1.
         11   -1    0    0    0    0 -0.00000000000E+00 -0.00000000000E+00 -0.45593999997E+02  0.45594000000E+02  0.51100000000E-03 0. -1.
    9900012    2    1    2    0    0  0.48106789900E+00 -0.69721837494E+00  0.82190479293E+00  0.90007717290E+02  0.89999978359E+02 0.  0.
         12    1    1    2    0    0 -0.48106789900E+00  0.69721837494E+00 -0.82190479293E+00  0.11802827095E+01  0.00000000000E+00 0. -1.
         11    1    3    3    0    0 -0.28182199774E+02  0.26426109708E+02 -0.85260866983E+01  0.39563490911E+02  0.51100000000E-03 0. -1.
        -11    1    3    3    0    0  0.11015036542E+01  0.31626346499E+01  0.88812771144E+01  0.94917148963E+01  0.51100000000E-03 0.  1.
        -12    1    3    3    0    0  0.27561764019E+02 -0.30285962732E+02  0.46671437679E+00  0.40952511483E+02  0.00000000000E+00 0.  1.
</event>
<event>
 7    1  0.4400431E-015  0.9000772E+02  0.7816164E-02  0.1186339E+00
        -11   -1    0    0    0    0  0.00000000000E+00  0.00000000000E+00  0.45593999997E+02  0.45594000000E+02  0.51100000000E-03 0. -1.
         11   -1    0    0    0    0 -0.00000000000E+00 -0.00000000000E+00 -0.45593999997E+02  0.45594000000E+02  0.51100000000E-03 0.  1.
    9900012    2    1    2    0    0 -0.34264908930E+00 -0.29327199415E+00 -0.10907068326E+01  0.90007721111E+02  0.89999982230E+02 0.  0.
         12    1    1    2    0    0  0.34264908930E+00  0.29327199415E+00  0.10907068326E+01  0.11802788889E+01  0.00000000000E+00 0. -1.
         11    1    3    3    0    0 -0.52954660136E+01 -0.39462592772E+02  0.15821214068E+02  0.42844474596E+02  0.51100000000E-03 0. -1.
        -11    1    3    3    0    0  0.44807312164E+01  0.14186366833E+01 -0.64613384866E+01  0.79898922128E+01  0.51100000000E-03 0.  1.
        -12    1    3    3    0    0  0.47208570787E+00  0.37750684094E+02 -0.10450582414E+02  0.39173354302E+02  0.00000000000E+00 0.  1.
</event>
<event>
 7    1  0.4400431E-015  0.9000790E+02  0.7816164E-02  0.1186339E+00
        -11   -1    0    0    0    0  0.00000000000E+00  0.00000000000E+00  0.45593999997E+02  0.45594000000E+02  0.51100000000E-03 0.  1.
         11   -1    0    0    0    0 -0.00000000000E+00 -0.00000000000E+00 -0.45593999997E+02  0.45594000000E+02  0.51100000000E-03 0. -1.
    9900012    2    1    2    0    0  0.97334567444E+00 -0.38157753498E+00  0.54739797010E+00  0.90007895024E+02  0.90000158438E+02 0.  0.
         12    1    1    2    0    0 -0.97334567444E+00  0.38157753498E+00 -0.54739797010E+00  0.11801049762E+01  0.00000000000E+00 0. -1.
         11    1    3    3    0    0 -0.50918876399E+01 -0.77965402668E+01  0.29130813810E+01  0.97570181542E+01  0.51100000000E-03 0. -1.
        -11    1    3    3    0    0 -0.36781268988E+02  0.54548064748E+01  0.12743113269E+01  0.37205383101E+02  0.51100000000E-03 0.  1.
         12    1    3    3    0    0  0.42846502302E+02  0.19601562570E+01 -0.36399947378E+01  0.43045493769E+02  0.00000000000E+00 0. -1.
</event>
<event>
 7    1  0.4400431E-015  0.9000774E+02  0.7816164E-02  0.1186339E+00
        -11   -1    0    0    0    0  0.00000000000E+00  0.00000000000E+00  0.45593999997E+02  0.45594000000E+02  0.51100000000E-03 0.  1.
         11   -1    0    0    0    0 -0.00000000000E+00 -0.00000000000E+00 -0.45593999997E+02  0.45594000000E+02  0.51100000000E-03 0. -1.
    9900012    2    1    2    0    0  0.22577993490E+00 -0.31163572711E+00  0.11157636892E+01  0.90007736464E+02  0.89999997785E+02 0.  0.
         12    1    1    2    0    0 -0.22577993490E+00  0.31163572711E+00 -0.11157636892E+01  0.11802635365E+01  0.00000000000E+00 0. -1.
         11    1    3    3    0    0 -0.14943832738E+01 -0.14999754253E+01 -0.21926715089E+02  0.22028707237E+02  0.51100000000E-03 0. -1.
        -11    1    3    3    0    0 -0.28345640156E+02  0.20232185916E+01 -0.24888694751E+01  0.28526535030E+02  0.51100000000E-03 0.  1.
        -12    1    3    3    0    0  0.30065803364E+02 -0.83487889338E+00  0.25531348254E+02  0.39452494197E+02  0.00000000000E+00 0.  1.
</event>
<event>
 7    1  0.4400431E-015  0.9000781E+02  0.7816164E-02  0.1186339E+00
        -11   -1    0    0    0    0  0.00000000000E+00  0.00000000000E+00  0.45593999997E+02  0.45594000000E+02  0.51100000000E-03 0.  1.
         11   -1    0    0    0    0 -0.00000000000E+00 -0.00000000000E+00 -0.45593999997E+02  0.45594000000E+02  0.51100000000E-03 0. -1.
    9900012    2    1    2    0    0  0.78352351550E+00 -0.38418030935E-01  0.88174018908E+00  0.90007808996E+02  0.90000071275E+02 0.  0.
         12    1    1    2    0    0 -0.78352351550E+00  0.38418030935E-01 -0.88174018908E+00  0.11801910038E+01  0.00000000000E+00 0. -1.
         11    1    3    3    0    0 -0.35997759052E+02  0.67275925685E+01 -0.14969863424E+02  0.39562557674E+02  0.51100000000E-03 0. -1.
        -11    1    3    3    0    0  0.57459938177E+01  0.25088865001E+01 -0.80400339300E+01  0.10195739418E+02  0.51100000000E-03 0.  1.
        -12    1    3    3    0    0  0.31035288750E+02 -0.92748970996E+01  0.23891637544E+02  0.40249511904E+02  0.00000000000E+00 0.  1.
</event>
<event>
 7    1  0.4400431E-015  0.9000791E+02  0.7816164E-02  0.1186339E+00
        -11   -1    0    0    0    0  0.00000000000E+00  0.00000000000E+00  0.45593999997E+02  0.45594000000E+02  0.51100000000E-03 0.  1.
         11   -1    0    0    0    0 -0.00000000000E+00 -0.00000000000E+00 -0.45593999997E+02  0.45594000000E+02  0.51100000000E-03 0. -1.
    9900012    2    1    2    0    0  0.85373261827E+00 -0.61000524302E+00 -0.54003232993E+00  0.90007914962E+02  0.90000178639E+02 0.  0.
         12    1    1    2    0    0 -0.85373261827E+00  0.61000524302E+00  0.54003232993E+00  0.11800850382E+01  0.00000000000E+00 0. -1.
         11    1    3    3    0    0  0.21884520096E+02  0.26228454519E+02 -0.18909554693E+02  0.39044017534E+02  0.51100000000E-03 0. -1.
        -11    1    3    3    0    0 -0.78548061092E+01  0.45049620381E+01 -0.43760470992E+01  0.10056960299E+02  0.51100000000E-03 0.  1.
        -12    1    3    3    0    0 -0.13175981368E+02 -0.31343421800E+02  0.22745569462E+02  0.40906937129E+02  0.00000000000E+00 0.  1.
</event>
<event>
 7    1  0.4400431E-015  0.9000776E+02  0.7816164E-02  0.1186339E+00
        -11   -1    0    0    0    0  0.00000000000E+00  0.00000000000E+00  0.45593999997E+02  0.45594000000E+02  0.51100000000E-03 0. -1.
         11   -1    0    0    0    0 -0.00000000000E+00 -0.00000000000E+00 -0.45593999997E+02  0.45594000000E+02  0.51100000000E-03 0.  1.
    9900012    2    1    2    0    0 -0.38531794745E+00  0.32474500896E+00 -0.10672558187E+01  0.90007760946E+02  0.90000022591E+02 0.  0.
         12    1    1    2    0    0  0.38531794745E+00 -0.32474500896E+00  0.10672558187E+01  0.11802390538E+01  0.00000000000E+00 0. -1.
         11    1    3    3    0    0 -0.13162514206E+02 -0.13017400883E+02  0.34348432480E+02  0.39019473600E+02  0.51100000000E-03 0. -1.
        -11    1    3    3    0    0 -0.82082505599E+01  0.78031684622E+01 -0.25601083572E+01  0.11611157150E+02  0.51100000000E-03 0.  1.
        -12    1    3    3    0    0  0.20985446819E+02  0.55389774293E+01 -0.32855579941E+02  0.39377130196E+02  0.00000000000E+00 0.  1.
</event>
<event>
 7    1  0.4400431E-015  0.9000772E+02  0.7816164E-02  0.1186339E+00
        -11   -1    0    0    0    0  0.00000000000E+00  0.00000000000E+00  0.45593999997E+02  0.45594000000E+02  0.51100000000E-03 0.  1.
         11   -1    0    0    0    0 -0.00000000000E+00 -0.00000000000E+00 -0.45593999997E+02  0.45594000000E+02  0.51100000000E-03 0. -1.
    9900012    2    1    2    0    0  0.31845251374E+00 -0.37574463733E+00  0.10725924948E+01  0.90007724314E+02  0.89999985475E+02 0.  0.
         12    1    1    2    0    0 -0.31845251374E+00  0.37574463733E+00 -0.10725924948E+01  0.11802756864E+01  0.00000000000E+00 0. -1.
         11    1    3    3    0    0  0.42787693989E+01  0.16550786517E+02  0.32782236554E+01  0.17406411247E+02  0.51100000000E-03 0. -1.
        -11    1    3    3    0    0  0.74726388914E+01  0.78182995800E+01  0.29127658631E+02  0.31070671668E+02  0.51100000000E-03 0.  1.
         12    1    3    3    0    0 -0.11432955777E+02 -0.24744830734E+02 -0.31333289792E+02  0.41530641399E+02  0.00000000000E+00 0. -1.
</event>
<event>
 7    1  0.4400431E-015  0.9000798E+02  0.7816164E-02  0.1186339E+00
        -11   -1    0    0    0    0  0.00000000000E+00  0.00000000000E+00  0.45593999997E+02  0.45594000000E+02  0.51100000000E-03 0.  1.
         11   -1    0    0    0    0 -0.00000000000E+00 -0.00000000000E+00 -0.45593999997E+02  0.45594000000E+02  0.51100000000E-03 0. -1.
    9900012    2    1    2    0    0 -0.69520167739E+00  0.39309196639E+00  0.86869374540E+00  0.90007976488E+02  0.90000240977E+02 0.  0.
         12    1    1    2    0    0  0.69520167739E+00 -0.39309196639E+00 -0.86869374540E+00  0.11800235123E+01  0.00000000000E+00 0. -1.
         11    1    3    3    0    0 -0.26965199502E+02 -0.10846613109E+02  0.34360436855E+02  0.45004562226E+02  0.51100000000E-03 0.  1.
        -11    1    3    3    0    0  0.43707972091E+01 -0.12947982373E+01 -0.75116355575E+01  0.87866398428E+01  0.51100000000E-03 0. -1.
        -12    1    3    3    0    0  0.21899200615E+02  0.12534503312E+02 -0.25980107552E+02  0.36216774418E+02  0.00000000000E+00 0.  1.
</event>
<event>
 7    1  0.4400431E-015  0.9000787E+02  0.7816164E-02  0.1186339E+00
        -11   -1    0    0    0    0  0.00000000000E+00  0.00000000000E+00  0.45593999997E+02  0.45594000000E+02  0.51100000000E-03 0. -1.
         11   -1    0    0    0    0 -0.00000000000E+00 -0.00000000000E+00 -0.45593999997E+02  0.45594000000E+02  0.51100000000E-03 0.  1.
    9900012    2    1    2    0    0  0.10406869851E+01  0.52150797347E+00 -0.19421112107E+00  0.90007865293E+02  0.90000128315E+02 0.  0.
         12    1    1    2    0    0 -0.10406869851E+01 -0.52150797347E+00  0.19421112107E+00  0.11801347071E+01  0.00000000000E+00 0. -1.
         11    1    3    3    0    0 -0.12209680054E+02  0.35796166305E+02 -0.74938101964E+01  0.38556439160E+02  0.51100000000E-03 0. -1.
        -11    1    3    3    0    0 -0.85645345403E+01  0.45313774231E-01  0.49025304562E+01  0.98685414508E+01  0.51100000000E-03 0.  1.
        -12    1    3    3    0    0  0.21814901580E+02 -0.35319972106E+02  0.23970686191E+01  0.41582884682E+02  0.00000000000E+00 0.  1.
</event>
<event>
 7    1  0.4400431E-015  0.9000779E+02  0.7816164E-02  0.1186339E+00
        -11   -1    0    0    0    0  0.00000000000E+00  0.00000000000E+00  0.45593999997E+02  0.45594000000E+02  0.51100000000E-03 0. -1.
         11   -1    0    0    0    0 -0.00000000000E+00 -0.00000000000E+00 -0.45593999997E+02  0.45594000000E+02  0.51100000000E-03 0.  1.
    9900012    2    1    2    0    0  0.52920018590E+00  0.28990321521E+00 -0.10142996576E+01  0.90007787940E+02  0.90000049941E+02 0.  0.
         12    1    1    2    0    0 -0.52920018590E+00 -0.28990321521E+00  0.10142996576E+01  0.11802120599E+01  0.00000000000E+00 0. -1.
         11    1    3    3    0    0 -0.30533607572E+02 -0.22825240102E+02  0.39986178200E+01  0.38331210805E+02  0.51100000000E-03 0. -1.
        -11    1    3    3    0    0 -0.11715296348E+01  0.11403771404E+01  0.98085491446E+01  0.99438713936E+01  0.51100000000E-03 0.  1.
        -12    1    3    3    0    0  0.32234337393E+02  0.21974766176E+02 -0.14821466622E+02  0.41732705741E+02  0.00000000000E+00 0.  1.
</event>
<event>
 7    1  0.4400431E-015  0.9000775E+02  0.7816164E-02  0.1186339E+00
        -11   -1    0    0    0    0  0.00000000000E+00  0.00000000000E+00  0.45593999997E+02  0.45594000000E+02  0.51100000000E-03 0. -1.
         11   -1    0    0    0    0 -0.00000000000E+00 -0.00000000000E+00 -0.45593999997E+02  0.45594000000E+02  0.51100000000E-03 0.  1.
    9900012    2    1    2    0    0  0.59429461644E+00  0.11743914696E+00 -0.10129250909E+01  0.90007747788E+02  0.90000009259E+02 0.  0.
         12    1    1    2    0    0 -0.59429461644E+00 -0.11743914696E+00  0.10129250909E+01  0.11802522121E+01  0.00000000000E+00 0. -1.
         11    1    3    3    0    0  0.99901066594E+01  0.29212336521E+02  0.22801773588E+02  0.38380772726E+02  0.51100000000E-03 0. -1.
        -11    1    3    3    0    0  0.92413299160E+01  0.16292616521E+01 -0.20184130931E+01  0.95984719525E+01  0.51100000000E-03 0.  1.
        -12    1    3    3    0    0 -0.18637141959E+02 -0.30724159026E+02 -0.21796285586E+02  0.42028503109E+02  0.00000000000E+00 0.  1.
</event>
<event>
 7    1  0.4400431E-015  0.9000775E+02  0.7816164E-02  0.1186339E+00
        -11   -1    0    0    0    0  0.00000000000E+00  0.00000000000E+00  0.45593999997E+02  0.45594000000E+02  0.51100000000E-03 0.  1.
         11   -1    0    0    0    0 -0.00000000000E+00 -0.00000000000E+00 -0.45593999997E+02  0.45594000000E+02  0.51100000000E-03 0. -1.
    9900012    2    1    2    0    0 -0.26445933460E+00 -0.98481086623E+00  0.59431498821E+00  0.90007745160E+02  0.90000006596E+02 0.  0.
         12    1    1    2    0    0  0.26445933460E+00  0.98481086623E+00 -0.59431498821E+00  0.11802548399E+01  0.00000000000E+00 0. -1.
         11    1    3    3    0    0  0.15097280357E+02  0.32842529037E+02  0.47409242039E+01  0.36455945335E+02  0.51100000000E-03 0. -1.
        -11    1    3    3    0    0 -0.56001484166E+01  0.23136533616E+01  0.11483328696E+02  0.12983893575E+02  0.51100000000E-03 0.  1.
        -12    1    3    3    0    0 -0.97615912751E+01 -0.36140993265E+02 -0.15629937911E+02  0.40567906250E+02  0.00000000000E+00 0.  1.
</event>
<event>
 7    1  0.4400431E-015  0.9000757E+02  0.7816164E-02  0.1186339E+00
        -11   -1    0    0    0    0  0.00000000000E+00  0.00000000000E+00  0.45593999997E+02  0.45594000000E+02  0.51100000000E-03 0.  1.
         11   -1    0    0    0    0 -0.00000000000E+00 -0.00000000000E+00 -0.45593999997E+02  0.45594000000E+02  0.51100000000E-03 0. -1.
    9900012    2    1    2    0    0 -0.67658755412E+00 -0.87514260111E+00 -0.41202844282E+00  0.90007570956E+02  0.89999830092E+02 0.  0.
         12    1    1    2    0    0  0.67658755412E+00  0.87514260111E+00  0.41202844282E+00  0.11804290442E+01  0.00000000000E+00 0. -1.
         11    1    3    3    0    0 -0.87115154292E+01 -0.29849718861E+00 -0.84415169052E+01  0.12134199997E+02  0.51100000000E-03 0. -1.
        -11    1    3    3    0    0 -0.30853019998E+02 -0.10938520658E+02  0.16634785884E+02  0.36718880413E+02  0.51100000000E-03 0.  1.
         12    1    3    3    0    0  0.38887947873E+02  0.10361875246E+02 -0.86052974212E+01  0.41154490545E+02  0.00000000000E+00 0. -1.
</event>
<event>
 7    1  0.4400431E-015  0.9000778E+02  0.7816164E-02  0.1186339E+00
        -11   -1    0    0    0    0  0.00000000000E+00  0.00000000000E+00  0.45593999997E+02  0.45594000000E+02  0.51100000000E-03 0. -1.
         11   -1    0    0    0    0 -0.00000000000E+00 -0.00000000000E+00 -0.45593999997E+02  0.45594000000E+02  0.51100000000E-03 0.  1.
    9900012    2    1    2    0    0 -0.75651396123E+00  0.37943642838E-01  0.90507260613E+00  0.90007784123E+02  0.90000046074E+02 0.  0.
         12    1    1    2    0    0  0.75651396123E+00 -0.37943642838E-01 -0.90507260613E+00  0.11802158768E+01  0.00000000000E+00 0. -1.
         11    1    3    3    0    0  0.61642962554E+01 -0.25542909789E+02 -0.14248392526E+01  0.26314804882E+02  0.51100000000E-03 0. -1.
        -11    1    3    3    0    0 -0.49742366484E+01 -0.18377984259E+02 -0.33308933313E+01  0.19328429484E+02  0.51100000000E-03 0.  1.
         12    1    3    3    0    0 -0.19465735682E+01  0.43958837691E+02  0.56608051900E+01  0.44364549758E+02  0.00000000000E+00 0. -1.
</event>
<event>
 7    1  0.5441930E-015  0.9000771E+02  0.7816164E-02  0.1186339E+00
        -11   -1    0    0    0    0  0.00000000000E+00  0.00000000000E+00  0.45593999997E+02  0.45594000000E+02  0.51100000000E-03 0. -1.
         11   -1    0    0    0    0 -0.00000000000E+00 -0.00000000000E+00 -0.45593999997E+02  0.45594000000E+02  0.51100000000E-03 0.  1.
    9900012    2    1    2    0    0 -0.76670140234E-01 -0.89944646949E+00 -0.76039250332E+00  0.90007712314E+02  0.89999973317E+02 0.  0.
         12    1    1    2    0    0  0.76670140234E-01  0.89944646949E+00  0.76039250332E+00  0.11802876857E+01  0.00000000000E+00 0. -1.
         11    1    3    3    0    0  0.72813936365E+01  0.32382173223E+02  0.15588328031E+02  0.36669057896E+02  0.51100000000E-03 0. -1.
        -11    1    3    3    0    0  0.66963297481E+01  0.60335572226E+01 -0.32181086223E+01  0.95708342489E+01  0.51100000000E-03 0.  1.
        -12    1    3    3    0    0 -0.14054393525E+02 -0.39315176915E+02 -0.13130611912E+02  0.43767820169E+02  0.00000000000E+00 0.  1.
</event>
<event>
 7    1  0.4400431E-015  0.9000774E+02  0.7816164E-02  0.1186339E+00
        -11   -1    0    0    0    0  0.00000000000E+00  0.00000000000E+00  0.45593999997E+02  0.45594000000E+02  0.51100000000E-03 0.  1.
         11   -1    0    0    0    0 -0.00000000000E+00 -0.00000000000E+00 -0.45593999997E+02  0.45594000000E+02  0.51100000000E-03 0. -1.
    9900012    2    1    2    0    0 -0.35669904855E+00 -0.10033504209E+01  0.50897943843E+00  0.90007743101E+02  0.90000004510E+02 0.  0.
         12    1    1    2    0    0  0.35669904855E+00  0.10033504209E+01 -0.50897943843E+00  0.11802568988E+01  0.00000000000E+00 0. -1.
         11    1    3    3    0    0 -0.10455440386E+02 -0.64311555314E+00  0.12983231216E+01  0.10555352882E+02  0.51100000000E-03 0. -1.
        -11    1    3    3    0    0 -0.16967025440E+02 -0.29115878579E+02  0.15046895580E+02  0.36905601263E+02  0.51100000000E-03 0.  1.
         12    1    3    3    0    0  0.27065766778E+02  0.28755643711E+02 -0.15836239264E+02  0.42546788956E+02  0.00000000000E+00 0. -1.
</event>
<event>
 7    1  0.4400431E-015  0.9000783E+02  0.7816164E-02  0.1186339E+00
        -11   -1    0    0    0    0  0.00000000000E+00  0.00000000000E+00  0.45593999997E+02  0.45594000000E+02  0.51100000000E-03 0.  1.
         11   -1    0    0    0    0 -0.00000000000E+00 -0.00000000000E+00 -0.45593999997E+02  0.45594000000E+02  0.51100000000E-03 0. -1.
    9900012    2    1    2    0    0  0.36529159261E+00  0.10983409877E+01  0.23026138760E+00  0.90007825784E+02  0.90000088285E+02 0.  0.
         12    1    1    2    0    0 -0.36529159261E+00 -0.10983409877E+01 -0.23026138760E+00  0.11801742157E+01  0.00000000000E+00 0. -1.
         11    1    3    3    0    0  0.18603377337E+01 -0.69853970360E+01 -0.79571605391E+01  0.10750489865E+02  0.51100000000E-03 0. -1.
        -11    1    3    3    0    0  0.20065135200E+02 -0.55680309270E+01  0.35951836398E+02  0.41546927199E+02  0.51100000000E-03 0.  1.
         12    1    3    3    0    0 -0.21560181342E+02  0.13651768951E+02 -0.27764414471E+02  0.37710408721E+02  0.00000000000E+00 0. -1.
</event>
<event>
 7    1  0.4400431E-015  0.9000779E+02  0.7816164E-02  0.1186339E+00
        -11   -1    0    0    0    0  0.00000000000E+00  0.00000000000E+00  0.45593999997E+02  0.45594000000E+02  0.51100000000E-03 0.  1.
         11   -1    0    0    0    0 -0.00000000000E+00 -0.00000000000E+00 -0.45593999997E+02  0.45594000000E+02  0.51100000000E-03 0. -1.
    9900012    2    1    2    0    0 -0.80867417377E+00 -0.84249102712E+00  0.17072417446E+00  0.90007791631E+02  0.90000053681E+02 0.  0.
         12    1    1    2    0    0  0.80867417377E+00  0.84249102712E+00 -0.17072417446E+00  0.11802083688E+01  0.00000000000E+00 0. -1.
         11    1    3    3    0    0  0.15214678941E+01  0.19298888106E+01  0.83295406877E+01  0.86845025018E+01  0.51100000000E-03 0. -1.
        -11    1    3    3    0    0  0.23567578577E+02  0.30009069669E+02  0.23999915346E+01  0.38232642885E+02  0.51100000000E-03 0.  1.
         12    1    3    3    0    0 -0.25897720645E+02 -0.32781449507E+02 -0.10558808048E+02  0.43090646244E+02  0.00000000000E+00 0. -1.
</event>
<event>
 7    1  0.4400431E-015  0.9000772E+02  0.7816164E-02  0.1186339E+00
        -11   -1    0    0    0    0  0.00000000000E+00  0.00000000000E+00  0.45593999997E+02  0.45594000000E+02  0.51100000000E-03 0.  1.
         11   -1    0    0    0    0 -0.00000000000E+00 -0.00000000000E+00 -0.45593999997E+02  0.45594000000E+02  0.51100000000E-03 0. -1.
    9900012    2    1    2    0    0  0.51162059450E+00 -0.71922041475E+00  0.78359790926E+00  0.90007720660E+02  0.89999981772E+02 0.  0.
         12    1    1    2    0    0 -0.51162059450E+00  0.71922041475E+00 -0.78359790926E+00  0.11802793403E+01  0.00000000000E+00 0. -1.
         11    1    3    3    0    0  0.35305703250E+01  0.61786605851E+00  0.12173395242E+02  0.12690084211E+02  0.51100000000E-03 0. -1.
        -11    1    3    3    0    0  0.26695410607E+02 -0.82910520078E+01  0.19353835912E+02  0.33999374342E+02  0.51100000000E-03 0.  1.
         12    1    3    3    0    0 -0.29714360337E+02  0.69539655346E+01 -0.30743633245E+02  0.43318262107E+02  0.00000000000E+00 0. -1.
</event>
<event>
 7    1  0.4400431E-015  0.9000778E+02  0.7816164E-02  0.1186339E+00
        -11   -1    0    0    0    0  0.00000000000E+00  0.00000000000E+00  0.45593999997E+02  0.45594000000E+02  0.51100000000E-03 0.  1.
         11   -1    0    0    0    0 -0.00000000000E+00 -0.00000000000E+00 -0.45593999997E+02  0.45594000000E+02  0.51100000000E-03 0. -1.
    9900012    2    1    2    0    0  0.36585741336E+00 -0.10832921270E+01 -0.29250124910E+00  0.90007775250E+02  0.90000037083E+02 0.  0.
         12    1    1    2    0    0 -0.36585741336E+00  0.10832921270E+01  0.29250124910E+00  0.11802247498E+01  0.00000000000E+00 0. -1.
         11    1    3    3    0    0  0.26436134120E+02 -0.25570721359E+02  0.38421106545E+01  0.36979626723E+02  0.51100000000E-03 0. -1.
        -11    1    3    3    0    0 -0.18212719562E+01 -0.99685280830E+01  0.23398155188E+01  0.10400159643E+02  0.51100000000E-03 0.  1.
        -12    1    3    3    0    0 -0.24249004751E+02  0.34455957315E+02 -0.64744274224E+01  0.42627988884E+02  0.00000000000E+00 0.  1.
</event>
<event>
 7    1  0.4400431E-015  0.9000771E+02  0.7816164E-02  0.1186339E+00
        -11   -1    0    0    0    0  0.00000000000E+00  0.00000000000E+00  0.45593999997E+02  0.45594000000E+02  0.51100000000E-03 0.  1.
         11   -1    0    0    0    0 -0.00000000000E+00 -0.00000000000E+00 -0.45593999997E+02  0.45594000000E+02  0.51100000000E-03 0. -1.
    9900012    2    1    2    0    0  0.18311528719E+00  0.89297323637E+00  0.74977259157E+00  0.90007707092E+02  0.89999968026E+02 0.  0.
         12    1    1    2    0    0 -0.18311528719E+00 -0.89297323637E+00 -0.74977259157E+00  0.11802929079E+01  0.00000000000E+00 0. -1.
         11    1    3    3    0    0 -0.14038917336E+02 -0.15632571362E+02 -0.21446936066E+02  0.30023982984E+02  0.51100000000E-03 0. -1.
        -11    1    3    3    0    0 -0.12865880474E+02 -0.10987272198E+02  0.91147794186E+01  0.19217966459E+02  0.51100000000E-03 0.  1.
        -12    1    3    3    0    0  0.27087913098E+02  0.27512816796E+02  0.13081929239E+02  0.40765757648E+02  0.00000000000E+00 0.  1.
</event>
<event>
 7    1  0.4400431E-015  0.9000768E+02  0.7816164E-02  0.1186339E+00
        -11   -1    0    0    0    0  0.00000000000E+00  0.00000000000E+00  0.45593999997E+02  0.45594000000E+02  0.51100000000E-03 0.  1.
         11   -1    0    0    0    0 -0.00000000000E+00 -0.00000000000E+00 -0.45593999997E+02  0.45594000000E+02  0.51100000000E-03 0. -1.
    9900012    2    1    2    0    0 -0.11646616971E+01 -0.19099380507E+00  0.15787830417E-01  0.90007675995E+02  0.89999936518E+02 0.  0.
         12    1    1    2    0    0  0.11646616971E+01  0.19099380507E+00 -0.15787830417E-01  0.11803240055E+01  0.00000000000E+00 0. -1.
         11    1    3    3    0    0  0.34198483932E+02 -0.91034203568E+01 -0.22896496535E+02  0.42150422528E+02  0.51100000000E-03 0. -1.
        -11    1    3    3    0    0 -0.91200785926E+01 -0.66107644261E+01  0.38762736337E+01  0.11912327118E+02  0.51100000000E-03 0.  1.
        -12    1    3    3    0    0 -0.26243067036E+02  0.15523190978E+02  0.19036010732E+02  0.35944926348E+02  0.00000000000E+00 0.  1.
</event>
<event>
 7    1  0.4400431E-015  0.9000776E+02  0.7816164E-02  0.1186339E+00
        -11   -1    0    0    0    0  0.00000000000E+00  0.00000000000E+00  0.45593999997E+02  0.45594000000E+02  0.51100000000E-03 0.  1.
         11   -1    0    0    0    0 -0.00000000000E+00 -0.00000000000E+00 -0.45593999997E+02  0.45594000000E+02  0.51100000000E-03 0. -1.
    9900012    2    1    2    0    0 -0.75530225018E+00 -0.90658268233E+00  0.24191010149E-01  0.90007763221E+02  0.90000024896E+02 0.  0.
         12    1    1    2    0    0  0.75530225018E+00  0.90658268233E+00 -0.24191010149E-01  0.11802367788E+01  0.00000000000E+00 0. -1.
         11    1    3    3    0    0 -0.56316045707E+01 -0.31845053374E+02 -0.16908458893E+02  0.36492716764E+02  0.51100000000E-03 0. -1.
        -11    1    3    3    0    0 -0.43854467236E+01 -0.67682769292E+01 -0.44271132877E+01  0.92000569498E+01  0.51100000000E-03 0.  1.
        -12    1    3    3    0    0  0.92617490442E+01  0.37706747621E+02  0.21359763191E+02  0.44314989507E+02  0.00000000000E+00 0.  1.
</event>
<event>
 7    1  0.4400431E-015  0.9000737E+02  0.7816164E-02  0.1186340E+00
        -11   -1    0    0    0    0  0.00000000000E+00  0.00000000000E+00  0.45593999997E+02  0.45594000000E+02  0.51100000000E-03 0.  1.
         11   -1    0    0    0    0 -0.00000000000E+00 -0.00000000000E+00 -0.45593999997E+02  0.45594000000E+02  0.51100000000E-03 0. -1.
    9900012    2    1    2    0    0 -0.89541924561E+00  0.43318350309E+00  0.63597519520E+00  0.90007369651E+02  0.89999626129E+02 0.  0.
         12    1    1    2    0    0  0.89541924561E+00 -0.43318350309E+00 -0.63597519520E+00  0.11806303493E+01  0.00000000000E+00 0. -1.
         11    1    3    3    0    0  0.23958906997E+02  0.25028460517E+02 -0.41636441089E+01  0.34896833565E+02  0.51100000000E-03 0. -1.
        -11    1    3    3    0    0  0.11877445367E+02 -0.50342695224E+01 -0.16240133461E+01  0.13002115123E+02  0.51100000000E-03 0.  1.
        -12    1    3    3    0    0 -0.36731771609E+02 -0.19561007491E+02  0.64236326502E+01  0.42108420963E+02  0.00000000000E+00 0.  1.
</event>
<event>
 7    1  0.4400431E-015  0.9000766E+02  0.7816164E-02  0.1186339E+00
        -11   -1    0    0    0    0  0.00000000000E+00  0.00000000000E+00  0.45593999997E+02  0.45594000000E+02  0.51100000000E-03 0. -1.
         11   -1    0    0    0    0 -0.00000000000E+00 -0.00000000000E+00 -0.45593999997E+02  0.45594000000E+02  0.51100000000E-03 0.  1.
    9900012    2    1    2    0    0 -0.19280225836E+00 -0.57116349868E+00 -0.10147870158E+01  0.90007663971E+02  0.89999924336E+02 0.  0.
         12    1    1    2    0    0  0.19280225836E+00  0.57116349868E+00  0.10147870158E+01  0.11803360286E+01  0.00000000000E+00 0. -1.
         11    1    3    3    0    0  0.15632551644E+02  0.66114707745E+01  0.28209533836E+02  0.32922120470E+02  0.51100000000E-03 0. -1.
        -11    1    3    3    0    0  0.58619488786E+01 -0.48379929064E+01  0.97857949847E+01  0.12390738629E+02  0.51100000000E-03 0.  1.
        -12    1    3    3    0    0 -0.21687302781E+02 -0.23446413668E+01 -0.39010115837E+02  0.44694804873E+02  0.00000000000E+00 0.  1.
</event>
<event>
 7    1  0.4400431E-015  0.9000776E+02  0.7816164E-02  0.1186339E+00
        -11   -1    0    0    0    0  0.00000000000E+00  0.00000000000E+00  0.45593999997E+02  0.45594000000E+02  0.51100000000E-03 0.  1.
         11   -1    0    0    0    0 -0.00000000000E+00 -0.00000000000E+00 -0.45593999997E+02  0.45594000000E+02  0.51100000000E-03 0. -1.
    9900012    2    1    2    0    0 -0.52355559023E+00  0.43896996967E+00  0.96236984199E+00  0.90007762395E+02  0.90000024059E+02 0.  0.
         12    1    1    2    0    0  0.52355559023E+00 -0.43896996967E+00 -0.96236984199E+00  0.11802376045E+01  0.00000000000E+00 0. -1.
         11    1    3    3    0    0 -0.14199498935E+02 -0.95765042557E+00 -0.88389380258E+01  0.16753199397E+02  0.51100000000E-03 0. -1.
        -11    1    3    3    0    0 -0.54993474640E+01 -0.23364226329E+02  0.28121327162E+02  0.36972137294E+02  0.51100000000E-03 0.  1.
         12    1    3    3    0    0  0.19175290809E+02  0.24760846724E+02 -0.18320019294E+02  0.36282425705E+02  0.00000000000E+00 0. -1.
</event>
<event>
 7    1  0.4400431E-015  0.9000784E+02  0.7816164E-02  0.1186339E+00
        -11   -1    0    0    0    0  0.00000000000E+00  0.00000000000E+00  0.45593999997E+02  0.45594000000E+02  0.51100000000E-03 0. -1.
         11   -1    0    0    0    0 -0.00000000000E+00 -0.00000000000E+00 -0.45593999997E+02  0.45594000000E+02  0.51100000000E-03 0.  1.
    9900012    2    1    2    0    0  0.79831755571E+00  0.81586470173E+00  0.29970005808E+00  0.90007844817E+02  0.90000107568E+02 0.  0.
         12    1    1    2    0    0 -0.79831755571E+00 -0.81586470173E+00 -0.29970005808E+00  0.11801551831E+01  0.00000000000E+00 0. -1.
         11    1    3    3    0    0 -0.39851757039E+02  0.30010658109E+01 -0.60895033181E+01  0.40425870257E+02  0.51100000000E-03 0. -1.
        -11    1    3    3    0    0 -0.23757245720E+01 -0.24920446679E+00  0.60573654141E+01  0.65113628473E+01  0.51100000000E-03 0.  1.
        -12    1    3    3    0    0  0.43025799166E+02 -0.19359966424E+01  0.33183796210E+00  0.43070611713E+02  0.00000000000E+00 0.  1.
</event>
<event>
 7    1  0.4400431E-015  0.9000774E+02  0.7816164E-02  0.1186339E+00
        -11   -1    0    0    0    0  0.00000000000E+00  0.00000000000E+00  0.45593999997E+02  0.45594000000E+02  0.51100000000E-03 0.  1.
         11   -1    0    0    0    0 -0.00000000000E+00 -0.00000000000E+00 -0.45593999997E+02  0.45594000000E+02  0.51100000000E-03 0. -1.
    9900012    2    1    2    0    0  0.22057633145E+00 -0.56783262325E+00  0.10109069207E+01  0.90007737060E+02  0.89999998389E+02 0.  0.
         12    1    1    2    0    0 -0.22057633145E+00  0.56783262325E+00 -0.10109069207E+01  0.11802629403E+01  0.00000000000E+00 0. -1.
         11    1    3    3    0    0 -0.71723436216E+00  0.97037865186E+01  0.21450400284E+01  0.99638895474E+01  0.51100000000E-03 0. -1.
        -11    1    3    3    0    0 -0.11698954021E+02 -0.16208743691E+01  0.37058647439E+02  0.38895193908E+02  0.51100000000E-03 0.  1.
         12    1    3    3    0    0  0.12636764714E+02 -0.86507447728E+01 -0.38192780546E+02  0.41148653604E+02  0.00000000000E+00 0. -1.
</event>
<event>
 7    1  0.4400431E-015  0.9000771E+02  0.7816164E-02  0.1186339E+00
        -11   -1    0    0    0    0  0.00000000000E+00  0.00000000000E+00  0.45593999997E+02  0.45594000000E+02  0.51100000000E-03 0. -1.
         11   -1    0    0    0    0 -0.00000000000E+00 -0.00000000000E+00 -0.45593999997E+02  0.45594000000E+02  0.51100000000E-03 0.  1.
    9900012    2    1    2    0    0 -0.65449229499E+00  0.96827233841E+00  0.16481366025E+00  0.90007714006E+02  0.89999975031E+02 0.  0.
         12    1    1    2    0    0  0.65449229499E+00 -0.96827233841E+00 -0.16481366025E+00  0.11802859942E+01  0.00000000000E+00 0. -1.
         11    1    3    3    0    0  0.35716081474E-01  0.10981253408E+02 -0.59886681409E+01  0.12508131292E+02  0.51100000000E-03 0. -1.
        -11    1    3    3    0    0 -0.88711298225E+01  0.31978576747E+02  0.96917002812E+01  0.34572465485E+02  0.51100000000E-03 0.  1.
         12    1    3    3    0    0  0.81809214460E+01 -0.41991557817E+02 -0.35382184800E+01  0.42927117229E+02  0.00000000000E+00 0. -1.
</event>
<event>
 7    1  0.4400431E-015  0.9000773E+02  0.7816164E-02  0.1186339E+00
        -11   -1    0    0    0    0  0.00000000000E+00  0.00000000000E+00  0.45593999997E+02  0.45594000000E+02  0.51100000000E-03 0.  1.
         11   -1    0    0    0    0 -0.00000000000E+00 -0.00000000000E+00 -0.45593999997E+02  0.45594000000E+02  0.51100000000E-03 0. -1.
    9900012    2    1    2    0    0 -0.10139364354E+01  0.86240564114E-01  0.59793490094E+00  0.90007732795E+02  0.89999994068E+02 0.  0.
         12    1    1    2    0    0  0.10139364354E+01 -0.86240564114E-01 -0.59793490094E+00  0.11802672052E+01  0.00000000000E+00 0. -1.
         11    1    3    3    0    0 -0.21631833044E+00 -0.42038410380E+02 -0.87291333804E+01  0.42935678761E+02  0.51100000000E-03 0. -1.
        -11    1    3    3    0    0 -0.36396936051E+01  0.69461308053E+01 -0.46443966635E+01  0.91140837901E+01  0.51100000000E-03 0.  1.
        -12    1    3    3    0    0  0.28420755002E+01  0.35178520138E+02  0.13971464945E+02  0.37957970243E+02  0.00000000000E+00 0.  1.
</event>
<event>
 7    1  0.4400431E-015  0.9000775E+02  0.7816164E-02  0.1186339E+00
        -11   -1    0    0    0    0  0.00000000000E+00  0.00000000000E+00  0.45593999997E+02  0.45594000000E+02  0.51100000000E-03 0.  1.
         11   -1    0    0    0    0 -0.00000000000E+00 -0.00000000000E+00 -0.45593999997E+02  0.45594000000E+02  0.51100000000E-03 0. -1.
    9900012    2    1    2    0    0 -0.26156030171E+00  0.10881186915E+01  0.37494449089E+00  0.90007746023E+02  0.90000007471E+02 0.  0.
         12    1    1    2    0    0  0.26156030171E+00 -0.10881186915E+01 -0.37494449089E+00  0.11802539767E+01  0.00000000000E+00 0. -1.
         11    1    3    3    0    0 -0.28053223960E+01 -0.73477597431E+00  0.47044522497E+01  0.55264455764E+01  0.51100000000E-03 0. -1.
        -11    1    3    3    0    0 -0.71337735738E+01  0.20694250844E+02  0.34139084662E+02  0.40553912823E+02  0.51100000000E-03 0.  1.
         12    1    3    3    0    0  0.96775356681E+01 -0.18871356178E+02 -0.38468592421E+02  0.43927387624E+02  0.00000000000E+00 0. -1.
</event>
<event>
 7    1  0.4400431E-015  0.9000728E+02  0.7816164E-02  0.1186340E+00
        -11   -1    0    0    0    0  0.00000000000E+00  0.00000000000E+00  0.45593999997E+02  0.45594000000E+02  0.51100000000E-03 0. -1.
         11   -1    0    0    0    0 -0.00000000000E+00 -0.00000000000E+00 -0.45593999997E+02  0.45594000000E+02  0.51100000000E-03 0.  1.
    9900012    2    1    2    0    0 -0.85275429356E+00  0.80989724885E+00 -0.10477835409E+00  0.90007279058E+02  0.89999534341E+02 0.  0.
         12    1    1    2    0    0  0.85275429356E+00 -0.80989724885E+00  0.10477835409E+00  0.11807209418E+01  0.00000000000E+00 0. -1.
         11    1    3    3    0    0 -0.13393090926E+02  0.34564972918E+02 -0.23707262758E+01  0.37144751725E+02  0.51100000000E-03 0. -1.
        -11    1    3    3    0    0  0.36264345528E+01  0.86682396367E+01  0.14326280446E+01  0.95048318943E+01  0.51100000000E-03 0.  1.
        -12    1    3    3    0    0  0.89139020794E+01 -0.42423315306E+02  0.83331987717E+00  0.43357695439E+02  0.00000000000E+00 0.  1.
</event>
<event>
 7    1  0.4400431E-015  0.9000778E+02  0.7816164E-02  0.1186339E+00
        -11   -1    0    0    0    0  0.00000000000E+00  0.00000000000E+00  0.45593999997E+02  0.45594000000E+02  0.51100000000E-03 0.  1.
         11   -1    0    0    0    0 -0.00000000000E+00 -0.00000000000E+00 -0.45593999997E+02  0.45594000000E+02  0.51100000000E-03 0. -1.
    9900012    2    1    2    0    0  0.31906086892E+00  0.95432449401E+00 -0.61675814802E+00  0.90007777271E+02  0.90000039131E+02 0.  0.
         12    1    1    2    0    0 -0.31906086892E+00 -0.95432449401E+00  0.61675814802E+00  0.11802227294E+01  0.00000000000E+00 0. -1.
         11    1    3    3    0    0 -0.27301333996E+02 -0.98615314862E+01  0.28931801118E+02  0.40983676719E+02  0.51100000000E-03 0. -1.
        -11    1    3    3    0    0  0.99210409023E+01 -0.41896024062E+01  0.82538277204E+00  0.10800975784E+02  0.51100000000E-03 0.  1.
        -12    1    3    3    0    0  0.17699353963E+02  0.15005458386E+02 -0.30373942038E+02  0.38223124768E+02  0.00000000000E+00 0.  1.
</event>
<event>
 7    1  0.4400431E-015  0.9000789E+02  0.7816164E-02  0.1186339E+00
        -11   -1    0    0    0    0  0.00000000000E+00  0.00000000000E+00  0.45593999997E+02  0.45594000000E+02  0.51100000000E-03 0. -1.
         11   -1    0    0    0    0 -0.00000000000E+00 -0.00000000000E+00 -0.45593999997E+02  0.45594000000E+02  0.51100000000E-03 0.  1.
    9900012    2    1    2    0    0 -0.10344130216E+01  0.46082302801E+00  0.33210754729E+00  0.90007888317E+02  0.90000151642E+02 0.  0.
         12    1    1    2    0    0  0.10344130216E+01 -0.46082302801E+00 -0.33210754729E+00  0.11801116834E+01  0.00000000000E+00 0. -1.
         11    1    3    3    0    0  0.51210383026E+01  0.26220211513E+01 -0.64168222166E+01  0.86183313834E+01  0.51100000000E-03 0. -1.
        -11    1    3    3    0    0 -0.27626981251E+01 -0.34261098369E+02 -0.19736461271E+02  0.39635631270E+02  0.51100000000E-03 0.  1.
         12    1    3    3    0    0 -0.33927531991E+01  0.32099900246E+02  0.26485391034E+02  0.41753925664E+02  0.00000000000E+00 0. -1.
</event>
<event>
 7    1  0.4400431E-015  0.9000759E+02  0.7816164E-02  0.1186339E+00
        -11   -1    0    0    0    0  0.00000000000E+00  0.00000000000E+00  0.45593999997E+02  0.45594000000E+02  0.51100000000E-03 0. -1.
         11   -1    0    0    0    0 -0.00000000000E+00 -0.00000000000E+00 -0.45593999997E+02  0.45594000000E+02  0.51100000000E-03 0.  1.
    9900012    2    1    2    0    0  0.79633456348E+00  0.85529738940E+00 -0.16637433197E+00  0.90007592113E+02  0.89999851529E+02 0.  0.
         12    1    1    2    0    0 -0.79633456348E+00 -0.85529738940E+00  0.16637433197E+00  0.11804078870E+01  0.00000000000E+00 0. -1.
         11    1    3    3    0    0  0.17373206598E+02  0.61549747466E+01 -0.96540507137E+01  0.20806554666E+02  0.51100000000E-03 0. -1.
        -11    1    3    3    0    0  0.14021793229E+02  0.22940599447E+02  0.28619179257E+01  0.27038349854E+02  0.51100000000E-03 0.  1.
         12    1    3    3    0    0 -0.30598665264E+02 -0.28240276804E+02  0.66257584560E+01  0.42162687593E+02  0.00000000000E+00 0. -1.
</event>
<event>
 7    1  0.4400431E-015  0.9000768E+02  0.7816164E-02  0.1186339E+00
        -11   -1    0    0    0    0  0.00000000000E+00  0.00000000000E+00  0.45593999997E+02  0.45594000000E+02  0.51100000000E-03 0.  1.
         11   -1    0    0    0    0 -0.00000000000E+00 -0.00000000000E+00 -0.45593999997E+02  0.45594000000E+02  0.51100000000E-03 0. -1.
    9900012    2    1    2    0    0  0.92198883537E-01 -0.43577847499E+00  0.10930455766E+01  0.90007681337E+02  0.89999941931E+02 0.  0.
         12    1    1    2    0    0 -0.92198883537E-01  0.43577847499E+00 -0.10930455766E+01  0.11803186628E+01  0.00000000000E+00 0. -1.
         11    1    3    3    0    0  0.84650524664E+01 -0.50571871434E+01 -0.40307004850E+01  0.10652642945E+02  0.51100000000E-03 0. -1.
        -11    1    3    3    0    0  0.19795311701E+02 -0.27022020957E+02  0.13597156827E+02  0.36151440580E+02  0.51100000000E-03 0.  1.
         12    1    3    3    0    0 -0.28168165283E+02  0.31643429626E+02 -0.84734107653E+01  0.43203597812E+02  0.00000000000E+00 0. -1.
</event>
<event>
 7    1  0.4400431E-015  0.9000777E+02  0.7816164E-02  0.1186339E+00
        -11   -1    0    0    0    0  0.00000000000E+00  0.00000000000E+00  0.45593999997E+02  0.45594000000E+02  0.51100000000E-03 0. -1.
         11   -1    0    0    0    0 -0.00000000000E+00 -0.00000000000E+00 -0.45593999997E+02  0.45594000000E+02  0.51100000000E-03 0.  1.
    9900012    2    1    2    0    0 -0.91389818913E+00  0.66261062637E+00 -0.34450366659E+00  0.90007768871E+02  0.90000030620E+02 0.  0.
         12    1    1    2    0    0  0.91389818913E+00 -0.66261062637E+00  0.34450366659E+00  0.11802311293E+01  0.00000000000E+00 0. -1.
         11    1    3    3    0    0  0.14410956160E+02  0.17473859062E+02  0.28186150442E+02  0.36158961336E+02  0.51100000000E-03 0. -1.
        -11    1    3    3    0    0  0.86164781408E+00  0.85898081287E+01  0.40006225135E+01  0.95148421637E+01  0.51100000000E-03 0.  1.
        -12    1    3    3    0    0 -0.16186502163E+02 -0.25401056564E+02 -0.32531276622E+02  0.44333965371E+02  0.00000000000E+00 0.  1.
</event>
<event>
 7    1  0.4400431E-015  0.9000768E+02  0.7816164E-02  0.1186339E+00
        -11   -1    0    0    0    0  0.00000000000E+00  0.00000000000E+00  0.45593999997E+02  0.45594000000E+02  0.51100000000E-03 0. -1.
         11   -1    0    0    0    0 -0.00000000000E+00 -0.00000000000E+00 -0.45593999997E+02  0.45594000000E+02  0.51100000000E-03 0.  1.
    9900012    2    1    2    0    0 -0.64185678189E-01 -0.11182959251E+01 -0.37207561402E+00  0.90007684008E+02  0.89999944637E+02 0.  0.
         12    1    1    2    0    0  0.64185678189E-01  0.11182959251E+01  0.37207561402E+00  0.11803159916E+01  0.00000000000E+00 0. -1.
         11    1    3    3    0    0  0.35808521742E+02 -0.23280534749E+01  0.22357107203E+02  0.42278958184E+02  0.51100000000E-03 0. -1.
        -11    1    3    3    0    0 -0.65760295440E+01  0.85632373518E+01 -0.17145200779E+01  0.10932189985E+02  0.51100000000E-03 0.  1.
        -12    1    3    3    0    0 -0.29296677876E+02 -0.73534798021E+01 -0.21014662739E+02  0.36796535840E+02  0.00000000000E+00 0.  1.
</event>
<event>
 7    1  0.4400431E-015  0.9000757E+02  0.7816164E-02  0.1186339E+00
        -11   -1    0    0    0    0  0.00000000000E+00  0.00000000000E+00  0.45593999997E+02  0.45594000000E+02  0.51100000000E-03 0.  1.
         11   -1    0    0    0    0 -0.00000000000E+00 -0.00000000000E+00 -0.45593999997E+02  0.45594000000E+02  0.51100000000E-03 0. -1.
    9900012    2    1    2    0    0  0.55426466127E+00 -0.35233719277E+00  0.98084578136E+00  0.90007572425E+02  0.89999831581E+02 0.  0.
         12    1    1    2    0    0 -0.55426466127E+00  0.35233719277E+00 -0.98084578136E+00  0.11804275746E+01  0.00000000000E+00 0. -1.
         11    1    3    3    0    0 -0.85324022294E+01 -0.13563062124E+02 -0.29415455524E+02  0.33496679924E+02  0.51100000000E-03 0. -1.
        -11    1    3    3    0    0 -0.85680088157E+00  0.24804621725E+02  0.28093847752E+01  0.24977910436E+02  0.51100000000E-03 0.  1.
         12    1    3    3    0    0  0.99434677723E+01 -0.11593896794E+02  0.27586916531E+02  0.31532982065E+02  0.00000000000E+00 0. -1.
</event>
<event>
 7    1  0.4400431E-015  0.9000775E+02  0.7816164E-02  0.1186339E+00
        -11   -1    0    0    0    0  0.00000000000E+00  0.00000000000E+00  0.45593999997E+02  0.45594000000E+02  0.51100000000E-03 0. -1.
         11   -1    0    0    0    0 -0.00000000000E+00 -0.00000000000E+00 -0.45593999997E+02  0.45594000000E+02  0.51100000000E-03 0.  1.
    9900012    2    1    2    0    0 -0.62973444535E+00 -0.70541978198E+00 -0.70627004586E+00  0.90007745825E+02  0.90000007270E+02 0.  0.
         12    1    1    2    0    0  0.62973444535E+00  0.70541978198E+00  0.70627004586E+00  0.11802541752E+01  0.00000000000E+00 0. -1.
         11    1    3    3    0    0  0.14250803175E+02  0.34400812787E+02  0.63500119943E+01  0.37773323446E+02  0.51100000000E-03 0. -1.
        -11    1    3    3    0    0 -0.16877219034E+02 -0.98000229567E+00  0.15695179120E+01  0.16978348375E+02  0.51100000000E-03 0.  1.
        -12    1    3    3    0    0  0.19966814138E+01 -0.34126230273E+02 -0.86257999522E+01  0.35256074004E+02  0.00000000000E+00 0.  1.
</event>
<event>
 7    1  0.4400431E-015  0.9000765E+02  0.7816164E-02  0.1186339E+00
        -11   -1    0    0    0    0  0.00000000000E+00  0.00000000000E+00  0.45593999997E+02  0.45594000000E+02  0.51100000000E-03 0.  1.
         11   -1    0    0    0    0 -0.00000000000E+00 -0.00000000000E+00 -0.45593999997E+02  0.45594000000E+02  0.51100000000E-03 0. -1.
    9900012    2    1    2    0    0 -0.19170575106E+00 -0.11533039014E+01  0.16234087043E+00  0.90007654482E+02  0.89999914721E+02 0.  0.
         12    1    1    2    0    0  0.19170575106E+00  0.11533039014E+01 -0.16234087043E+00  0.11803455182E+01  0.00000000000E+00 0. -1.
         11    1    3    3    0    0  0.21826455772E+01  0.13510144612E+02  0.36529721610E+02  0.39009082409E+02  0.51100000000E-03 0. -1.
        -11    1    3    3    0    0 -0.51148209806E+01 -0.82632340731E+01  0.36493036463E+01  0.10380744115E+02  0.51100000000E-03 0.  1.
        -12    1    3    3    0    0  0.27404696523E+01 -0.64002144406E+01 -0.40016684386E+02  0.40617827959E+02  0.00000000000E+00 0.  1.
</event>
<event>
 7    1  0.4400431E-015  0.9000771E+02  0.7816164E-02  0.1186339E+00
        -11   -1    0    0    0    0  0.00000000000E+00  0.00000000000E+00  0.45593999997E+02  0.45594000000E+02  0.51100000000E-03 0. -1.
         11   -1    0    0    0    0 -0.00000000000E+00 -0.00000000000E+00 -0.45593999997E+02  0.45594000000E+02  0.51100000000E-03 0.  1.
    9900012    2    1    2    0    0  0.11308841470E+01  0.33685841177E+00  0.26734945909E-01  0.90007708807E+02  0.89999969763E+02 0.  0.
         12    1    1    2    0    0 -0.11308841470E+01 -0.33685841177E+00 -0.26734945909E-01  0.11802911932E+01  0.00000000000E+00 0. -1.
         11    1    3    3    0    0  0.94901393953E+01  0.34858795661E+01  0.16332280104E+01  0.10241168688E+02  0.51100000000E-03 0. -1.
        -11    1    3    3    0    0  0.13506983148E+02 -0.27953095992E+02 -0.24500246787E+02  0.39548404041E+02  0.51100000000E-03 0.  1.
         12    1    3    3    0    0 -0.21866238396E+02  0.24804074837E+02  0.22893753723E+02  0.40218136079E+02  0.00000000000E+00 0. -1.
</event>
<event>
 7    1  0.4400431E-015  0.9000766E+02  0.7816164E-02  0.1186339E+00
        -11   -1    0    0    0    0  0.00000000000E+00  0.00000000000E+00  0.45593999997E+02  0.45594000000E+02  0.51100000000E-03 0. -1.
         11   -1    0    0    0    0 -0.00000000000E+00 -0.00000000000E+00 -0.45593999997E+02  0.45594000000E+02  0.51100000000E-03 0.  1.
    9900012    2    1    2    0    0  0.31005001562E+00  0.11388178443E+01  0.12623041576E-01  0.90007662575E+02  0.89999922921E+02 0.  0.
         12    1    1    2    0    0 -0.31005001562E+00 -0.11388178443E+01 -0.12623041576E-01  0.11803374246E+01  0.00000000000E+00 0. -1.
         11    1    3    3    0    0  0.28024823828E+02  0.49335517260E+01  0.80028597193E+01  0.29559709862E+02  0.51100000000E-03 0. -1.
        -11    1    3    3    0    0  0.81960186734E+01  0.14366943953E+02 -0.11358804602E+02  0.20065050284E+02  0.51100000000E-03 0.  1.
        -12    1    3    3    0    0 -0.35910792485E+02 -0.18161677835E+02  0.33685679242E+01  0.40382902429E+02  0.00000000000E+00 0.  1.
</event>
<event>
 7    1  0.4400431E-015  0.9000774E+02  0.7816164E-02  0.1186339E+00
        -11   -1    0    0    0    0  0.00000000000E+00  0.00000000000E+00  0.45593999997E+02  0.45594000000E+02  0.51100000000E-03 0.  1.
         11   -1    0    0    0    0 -0.00000000000E+00 -0.00000000000E+00 -0.45593999997E+02  0.45594000000E+02  0.51100000000E-03 0. -1.
    9900012    2    1    2    0    0  0.75380752323E+00 -0.20988179571E+00  0.88359538998E+00  0.90007738604E+02  0.89999999953E+02 0.  0.
         12    1    1    2    0    0 -0.75380752323E+00  0.20988179571E+00 -0.88359538998E+00  0.11802613962E+01  0.00000000000E+00 0. -1.
         11    1    3    3    0    0  0.98844570971E+01  0.10111694685E+02 -0.81274078585E+00  0.14163665110E+02  0.51100000000E-03 0. -1.
        -11    1    3    3    0    0 -0.56754868101E+01  0.29771719528E+02  0.14522505800E+02  0.33607582614E+02  0.51100000000E-03 0.  1.
         12    1    3    3    0    0 -0.34551627638E+01 -0.40093296009E+02 -0.12826169624E+02  0.42236490879E+02  0.00000000000E+00 0. -1.
</event>
<event>
 7    1  0.4400431E-015  0.9000777E+02  0.7816164E-02  0.1186339E+00
        -11   -1    0    0    0    0  0.00000000000E+00  0.00000000000E+00  0.45593999997E+02  0.45594000000E+02  0.51100000000E-03 0. -1.
         11   -1    0    0    0    0 -0.00000000000E+00 -0.00000000000E+00 -0.45593999997E+02  0.45594000000E+02  0.51100000000E-03 0.  1.
    9900012    2    1    2    0    0 -0.11267876044E+01  0.16893961998E-01 -0.35070841839E+00  0.90007774553E+02  0.90000036377E+02 0.  0.
         12    1    1    2    0    0  0.11267876044E+01 -0.16893961998E-01  0.35070841839E+00  0.11802254472E+01  0.00000000000E+00 0. -1.
         11    1    3    3    0    0  0.14130910312E+02 -0.33740742973E+02  0.12452654836E+02  0.38641803469E+02  0.51100000000E-03 0. -1.
        -11    1    3    3    0    0 -0.20458360498E+01 -0.52837866251E+01 -0.80959137467E+01  0.98816833534E+01  0.51100000000E-03 0.  1.
        -12    1    3    3    0    0 -0.13211861866E+02  0.39041423561E+02 -0.47074495077E+01  0.41484287730E+02  0.00000000000E+00 0.  1.
</event>
<event>
 7    1  0.4493909E-015  0.9000736E+02  0.7816164E-02  0.1186340E+00
        -11   -1    0    0    0    0  0.00000000000E+00  0.00000000000E+00  0.45593999997E+02  0.45594000000E+02  0.51100000000E-03 0. -1.
         11   -1    0    0    0    0 -0.00000000000E+00 -0.00000000000E+00 -0.45593999997E+02  0.45594000000E+02  0.51100000000E-03 0.  1.
    9900012    2    1    2    0    0 -0.24389694678E+00  0.88218476037E+00 -0.74576560329E+00  0.90007363728E+02  0.89999620128E+02 0.  0.
         12    1    1    2    0    0  0.24389694678E+00 -0.88218476037E+00  0.74576560329E+00  0.11806362722E+01  0.00000000000E+00 0. -1.
         11    1    3    3    0    0  0.47637425160E+01  0.59395752226E+01  0.57270755724E+01  0.95273916397E+01  0.51100000000E-03 0. -1.
        -11    1    3    3    0    0 -0.98654628055E+01  0.19888495991E+01 -0.42384311625E+02  0.43562744992E+02  0.51100000000E-03 0.  1.
         12    1    3    3    0    0  0.48578233427E+01 -0.70462400613E+01  0.35911470449E+02  0.36917227096E+02  0.00000000000E+00 0. -1.
</event>
<event>
 7    1  0.4400431E-015  0.9000773E+02  0.7816164E-02  0.1186339E+00
        -11   -1    0    0    0    0  0.00000000000E+00  0.00000000000E+00  0.45593999997E+02  0.45594000000E+02  0.51100000000E-03 0. -1.
         11   -1    0    0    0    0 -0.00000000000E+00 -0.00000000000E+00 -0.45593999997E+02  0.45594000000E+02  0.51100000000E-03 0.  1.
    9900012    2    1    2    0    0  0.58970483444E+00 -0.99981432289E+00  0.21370136165E+00  0.90007725140E+02  0.89999986312E+02 0.  0.
         12    1    1    2    0    0 -0.58970483444E+00  0.99981432289E+00 -0.21370136165E+00  0.11802748595E+01  0.00000000000E+00 0. -1.
         11    1    3    3    0    0 -0.63433203796E+00  0.39450002904E+02  0.11691227035E+02  0.41150818899E+02  0.51100000000E-03 0. -1.
        -11    1    3    3    0    0  0.10434336354E+02 -0.66651494298E+01 -0.16828403939E+01  0.12495260866E+02  0.51100000000E-03 0.  1.
        -12    1    3    3    0    0 -0.92102994814E+01 -0.33784667797E+02 -0.97946852794E+01  0.36361645375E+02  0.00000000000E+00 0.  1.
</event>
<event>
 7    1  0.4400431E-015  0.9000779E+02  0.7816164E-02  0.1186339E+00
        -11   -1    0    0    0    0  0.00000000000E+00  0.00000000000E+00  0.45593999997E+02  0.45594000000E+02  0.51100000000E-03 0.  1.
         11   -1    0    0    0    0 -0.00000000000E+00 -0.00000000000E+00 -0.45593999997E+02  0.45594000000E+02  0.51100000000E-03 0. -1.
    9900012    2    1    2    0    0  0.63215565438E+00  0.39751165972E+00 -0.91392695977E+00  0.90007788672E+02  0.90000050682E+02 0.  0.
         12    1    1    2    0    0 -0.63215565438E+00 -0.39751165972E+00  0.91392695977E+00  0.11802113280E+01  0.00000000000E+00 0. -1.
         11    1    3    3    0    0  0.60543547409E+00 -0.97534453270E+01 -0.43441938430E+00  0.97818693675E+01  0.51100000000E-03 0. -1.
        -11    1    3    3    0    0 -0.13895454183E+02 -0.91153885952E+00  0.36569165821E+02  0.39130786335E+02  0.51100000000E-03 0.  1.
         12    1    3    3    0    0  0.13922174363E+02  0.11062495846E+02 -0.37048673397E+02  0.41095132970E+02  0.00000000000E+00 0. -1.
</event>
<event>
 7    1  0.4400431E-015  0.9000778E+02  0.7816164E-02  0.1186339E+00
        -11   -1    0    0    0    0  0.00000000000E+00  0.00000000000E+00  0.45593999997E+02  0.45594000000E+02  0.51100000000E-03 0.  1.
         11   -1    0    0    0    0 -0.00000000000E+00 -0.00000000000E+00 -0.45593999997E+02  0.45594000000E+02  0.51100000000E-03 0. -1.
    9900012    2    1    2    0    0  0.69039637186E+00  0.95707976641E+00 -0.16163998590E-01  0.90007783874E+02  0.90000045821E+02 0.  0.
         12    1    1    2    0    0 -0.69039637186E+00 -0.95707976641E+00  0.16163998590E-01  0.11802161261E+01  0.00000000000E+00 0. -1.
         11    1    3    3    0    0 -0.28992481193E+02  0.25697871083E+02  0.11929287161E+02  0.40537050168E+02  0.51100000000E-03 0. -1.
        -11    1    3    3    0    0 -0.51726571317E+01 -0.29868063122E+00  0.24889367373E+00  0.51872478486E+01  0.51100000000E-03 0.  1.
        -12    1    3    3    0    0  0.34855534696E+02 -0.24442110686E+02 -0.12194344833E+02  0.44283485857E+02  0.00000000000E+00 0.  1.
</event>
