<event>
 7    1  0.2455451E-009  0.4778727E+02  0.7816164E-02  0.1312668E+00
        -11   -1    0    0    0    0  0.00000000000E+00  0.00000000000E+00  0.45593999997E+02  0.45594000000E+02  0.51100000000E-03 0.  1.
         11   -1    0    0    0    0 -0.00000000000E+00 -0.00000000000E+00 -0.45593999997E+02  0.45594000000E+02  0.51100000000E-03 0. -1.
    9900012    2    1    2    0    0 -0.22050706609E+02  0.37379204292E+02 -0.42974315220E+00  0.47787271266E+02  0.20000001012E+02 0.  0.
         12    1    1    2    0    0  0.22050706609E+02 -0.37379204292E+02  0.42974315220E+00  0.43400728734E+02  0.00000000000E+00 0. -1.
         11    1    3    3    0    0 -0.37908582446E+00  0.10461225615E+02 -0.37435698473E+01  0.11117340640E+02  0.51100000000E-03 0. -1.
        -11    1    3    3    0    0 -0.17483528913E+02  0.26088134961E+02  0.54847287007E+01  0.31880194764E+02  0.51100000000E-03 0.  1.
         12    1    3    3    0    0 -0.41880918711E+01  0.82984371502E+00 -0.21709020056E+01  0.47897358623E+01  0.00000000000E+00 0. -1.
</event>
<event>
 7    1  0.2455451E-009  0.4778728E+02  0.7816164E-02  0.1312668E+00
        -11   -1    0    0    0    0  0.00000000000E+00  0.00000000000E+00  0.45593999997E+02  0.45594000000E+02  0.51100000000E-03 0.  1.
         11   -1    0    0    0    0 -0.00000000000E+00 -0.00000000000E+00 -0.45593999997E+02  0.45594000000E+02  0.51100000000E-03 0. -1.
    9900012    2    1    2    0    0  0.20562833246E+02  0.37995300380E+02  0.41411843526E+01  0.47787281458E+02  0.20000047481E+02 0.  0.
         12    1    1    2    0    0 -0.20562833246E+02 -0.37995300380E+02 -0.41411843526E+01  0.43400718542E+02  0.00000000000E+00 0. -1.
         11    1    3    3    0    0  0.11297197286E+00  0.46753222209E+00 -0.65920069386E+00  0.81602381170E+00  0.51100000000E-03 0. -1.
        -11    1    3    3    0    0  0.32711237202E+01  0.32136376788E+01 -0.55756784353E+01  0.72191348373E+01  0.51100000000E-03 0.  1.
        -12    1    3    3    0    0  0.17178737553E+02  0.34314130479E+02  0.10376063482E+02  0.39752122809E+02  0.00000000000E+00 0.  1.
</event>
<event>
 7    1  0.2455451E-009  0.4778723E+02  0.7816164E-02  0.1312668E+00
        -11   -1    0    0    0    0  0.00000000000E+00  0.00000000000E+00  0.45593999997E+02  0.45594000000E+02  0.51100000000E-03 0.  1.
         11   -1    0    0    0    0 -0.00000000000E+00 -0.00000000000E+00 -0.45593999997E+02  0.45594000000E+02  0.51100000000E-03 0. -1.
    9900012    2    1    2    0    0  0.62609941787E+01 -0.38019137276E+02  0.19974277749E+02  0.47787232508E+02  0.19999824297E+02 0.  0.
         12    1    1    2    0    0 -0.62609941787E+01  0.38019137276E+02 -0.19974277749E+02  0.43400767492E+02  0.00000000000E+00 0. -1.
         11    1    3    3    0    0 -0.12953680701E+01 -0.12084993649E+02  0.25572575180E+00  0.12156909387E+02  0.51100000000E-03 0.  1.
        -11    1    3    3    0    0  0.10115016364E+02 -0.16620958470E+02  0.16308510768E+02  0.25387739959E+02  0.51100000000E-03 0. -1.
         12    1    3    3    0    0 -0.25586541149E+01 -0.93131851566E+01  0.34100412288E+01  0.10242583162E+02  0.00000000000E+00 0. -1.
</event>
<event>
 7    1  0.2455451E-009  0.4778727E+02  0.7816164E-02  0.1312668E+00
        -11   -1    0    0    0    0  0.00000000000E+00  0.00000000000E+00  0.45593999997E+02  0.45594000000E+02  0.51100000000E-03 0. -1.
         11   -1    0    0    0    0 -0.00000000000E+00 -0.00000000000E+00 -0.45593999997E+02  0.45594000000E+02  0.51100000000E-03 0.  1.
    9900012    2    1    2    0    0  0.39449420395E+02  0.16035764303E+02 -0.83797970685E+01  0.47787268379E+02  0.19999987848E+02 0.  0.
         12    1    1    2    0    0 -0.39449420395E+02 -0.16035764303E+02  0.83797970685E+01  0.43400731621E+02  0.00000000000E+00 0. -1.
         11    1    3    3    0    0  0.23347367595E+01  0.71155039367E+01  0.72968552096E+00  0.75242164529E+01  0.51100000000E-03 0. -1.
        -11    1    3    3    0    0  0.27505041068E+02  0.98628273516E+01 -0.91106415061E+01  0.30607293844E+02  0.51100000000E-03 0.  1.
         12    1    3    3    0    0  0.96096425679E+01 -0.94256698522E+00  0.11589166387E-02  0.96557580825E+01  0.00000000000E+00 0. -1.
</event>
<event>
 7    1  0.2455451E-009  0.4778727E+02  0.7816164E-02  0.1312668E+00
        -11   -1    0    0    0    0  0.00000000000E+00  0.00000000000E+00  0.45593999997E+02  0.45594000000E+02  0.51100000000E-03 0.  1.
         11   -1    0    0    0    0 -0.00000000000E+00 -0.00000000000E+00 -0.45593999997E+02  0.45594000000E+02  0.51100000000E-03 0. -1.
    9900012    2    1    2    0    0  0.21303958618E+02  0.16989430333E+02  0.33780526403E+02  0.47787270054E+02  0.19999995483E+02 0.  0.
         12    1    1    2    0    0 -0.21303958618E+02 -0.16989430333E+02 -0.33780526403E+02  0.43400729946E+02  0.00000000000E+00 0. -1.
         11    1    3    3    0    0  0.38820568450E+01  0.28769268754E+01 -0.11743600334E+01  0.49725441519E+01  0.51100000000E-03 0. -1.
        -11    1    3    3    0    0  0.14728139168E+02  0.15746448535E+02  0.30934539788E+02  0.37706955286E+02  0.51100000000E-03 0.  1.
         12    1    3    3    0    0  0.26937626049E+01 -0.16339450779E+01  0.40203466482E+01  0.51077706155E+01  0.00000000000E+00 0. -1.
</event>
<event>
 7    1  0.2455451E-009  0.4778727E+02  0.7816164E-02  0.1312668E+00
        -11   -1    0    0    0    0  0.00000000000E+00  0.00000000000E+00  0.45593999997E+02  0.45594000000E+02  0.51100000000E-03 0.  1.
         11   -1    0    0    0    0 -0.00000000000E+00 -0.00000000000E+00 -0.45593999997E+02  0.45594000000E+02  0.51100000000E-03 0. -1.
    9900012    2    1    2    0    0 -0.15547310524E+02  0.36463888193E+01  0.40356020681E+02  0.47787269348E+02  0.19999992264E+02 0.  0.
         12    1    1    2    0    0  0.15547310524E+02 -0.36463888193E+01 -0.40356020681E+02  0.43400730652E+02  0.00000000000E+00 0. -1.
         11    1    3    3    0    0 -0.46858276117E+01 -0.50013585767E+01  0.42329381568E+01  0.80553295227E+01  0.51100000000E-03 0. -1.
        -11    1    3    3    0    0 -0.28886232390E+01  0.62549351706E+01  0.24400170945E+02  0.25354224512E+02  0.51100000000E-03 0.  1.
        -12    1    3    3    0    0 -0.79728596738E+01  0.23928122253E+01  0.11722911579E+02  0.14377715313E+02  0.00000000000E+00 0.  1.
</event>
<event>
 7    1  0.2455451E-009  0.4778727E+02  0.7816164E-02  0.1312668E+00
        -11   -1    0    0    0    0  0.00000000000E+00  0.00000000000E+00  0.45593999997E+02  0.45594000000E+02  0.51100000000E-03 0. -1.
         11   -1    0    0    0    0 -0.00000000000E+00 -0.00000000000E+00 -0.45593999997E+02  0.45594000000E+02  0.51100000000E-03 0.  1.
    9900012    2    1    2    0    0  0.16762585123E+02  0.40032951264E+02 -0.43691493397E-01  0.47787270100E+02  0.19999995696E+02 0.  0.
         12    1    1    2    0    0 -0.16762585123E+02 -0.40032951264E+02  0.43691493397E-01  0.43400729900E+02  0.00000000000E+00 0. -1.
         11    1    3    3    0    0  0.12448253088E+02  0.15700059165E+02  0.82111910277E+01  0.21653510594E+02  0.51100000000E-03 0. -1.
        -11    1    3    3    0    0  0.33635134144E+01  0.21654495202E+02 -0.68261921460E+01  0.22952718453E+02  0.51100000000E-03 0.  1.
         12    1    3    3    0    0  0.95081862025E+00  0.26783968974E+01 -0.14286903751E+01  0.31810410524E+01  0.00000000000E+00 0. -1.
</event>
<event>
 7    1  0.2455451E-009  0.4778727E+02  0.7816164E-02  0.1312668E+00
        -11   -1    0    0    0    0  0.00000000000E+00  0.00000000000E+00  0.45593999997E+02  0.45594000000E+02  0.51100000000E-03 0. -1.
         11   -1    0    0    0    0 -0.00000000000E+00 -0.00000000000E+00 -0.45593999997E+02  0.45594000000E+02  0.51100000000E-03 0.  1.
    9900012    2    1    2    0    0  0.27570726778E+02  0.33119637721E+02  0.51544159478E+01  0.47787269804E+02  0.19999994343E+02 0.  0.
         12    1    1    2    0    0 -0.27570726778E+02 -0.33119637721E+02 -0.51544159478E+01  0.43400730196E+02  0.00000000000E+00 0. -1.
         11    1    3    3    0    0  0.19396264196E+02  0.16925550464E+02 -0.24055265552E+01  0.25854900532E+02  0.51100000000E-03 0. -1.
        -11    1    3    3    0    0  0.61051482625E+01  0.16577843884E+02  0.85266635894E+01  0.19616363969E+02  0.51100000000E-03 0.  1.
        -12    1    3    3    0    0  0.20693143191E+01 -0.38375662686E+00 -0.96672108637E+00  0.23160053020E+01  0.00000000000E+00 0.  1.
</event>
<event>
 7    1  0.2455451E-009  0.4778727E+02  0.7816164E-02  0.1312668E+00
        -11   -1    0    0    0    0  0.00000000000E+00  0.00000000000E+00  0.45593999997E+02  0.45594000000E+02  0.51100000000E-03 0.  1.
         11   -1    0    0    0    0 -0.00000000000E+00 -0.00000000000E+00 -0.45593999997E+02  0.45594000000E+02  0.51100000000E-03 0. -1.
    9900012    2    1    2    0    0  0.10000563268E+01  0.25984046861E+02  0.34748416201E+02  0.47787271522E+02  0.20000002179E+02 0.  0.
         12    1    1    2    0    0 -0.10000563268E+01 -0.25984046861E+02 -0.34748416201E+02  0.43400728478E+02  0.00000000000E+00 0. -1.
         11    1    3    3    0    0  0.21568230352E+01  0.58302838792E+01  0.92667529989E+01  0.11158709922E+02  0.51100000000E-03 0. -1.
        -11    1    3    3    0    0 -0.29567858954E+01  0.21509024347E+02  0.26412523194E+02  0.34190672602E+02  0.51100000000E-03 0.  1.
        -12    1    3    3    0    0  0.18000191871E+01 -0.13552613660E+01 -0.93085999234E+00  0.24378889986E+01  0.00000000000E+00 0.  1.
</event>
<event>
 7    1  0.2455451E-009  0.4778727E+02  0.7816164E-02  0.1312668E+00
        -11   -1    0    0    0    0  0.00000000000E+00  0.00000000000E+00  0.45593999997E+02  0.45594000000E+02  0.51100000000E-03 0.  1.
         11   -1    0    0    0    0 -0.00000000000E+00 -0.00000000000E+00 -0.45593999997E+02  0.45594000000E+02  0.51100000000E-03 0. -1.
    9900012    2    1    2    0    0 -0.32000841425E+02 -0.12600784724E+02  0.26472431297E+02  0.47787271361E+02  0.20000001444E+02 0.  0.
         12    1    1    2    0    0  0.32000841425E+02  0.12600784724E+02 -0.26472431297E+02  0.43400728639E+02  0.00000000000E+00 0. -1.
         11    1    3    3    0    0 -0.72811413493E+01 -0.48766170271E+01 -0.84914354609E+00  0.88043999227E+01  0.51100000000E-03 0. -1.
        -11    1    3    3    0    0 -0.70227913210E+01 -0.28862268241E+01  0.15208537339E+02  0.16998514979E+02  0.51100000000E-03 0.  1.
        -12    1    3    3    0    0 -0.17696908755E+02 -0.48379408724E+01  0.12113037504E+02  0.21984356460E+02  0.00000000000E+00 0.  1.
</event>
<event>
 7    1  0.2455451E-009  0.4778726E+02  0.7816164E-02  0.1312668E+00
        -11   -1    0    0    0    0  0.00000000000E+00  0.00000000000E+00  0.45593999997E+02  0.45594000000E+02  0.51100000000E-03 0.  1.
         11   -1    0    0    0    0 -0.00000000000E+00 -0.00000000000E+00 -0.45593999997E+02  0.45594000000E+02  0.51100000000E-03 0. -1.
    9900012    2    1    2    0    0  0.33417711157E+01  0.41718945743E+02  0.11488543495E+02  0.47787256921E+02  0.19999935608E+02 0.  0.
         12    1    1    2    0    0 -0.33417711157E+01 -0.41718945743E+02 -0.11488543495E+02  0.43400743079E+02  0.00000000000E+00 0. -1.
         11    1    3    3    0    0 -0.70321902580E+00  0.62203444380E-02  0.31781220964E+01  0.32549986193E+01  0.51100000000E-03 0. -1.
        -11    1    3    3    0    0  0.31517531910E+01  0.41276568356E+02  0.99858833341E+01  0.42584111000E+02  0.51100000000E-03 0.  1.
        -12    1    3    3    0    0  0.89323695055E+00  0.43615704289E+00 -0.16754619351E+01  0.19481473024E+01  0.00000000000E+00 0.  1.
</event>
<event>
 7    1  0.2455451E-009  0.4778727E+02  0.7816164E-02  0.1312668E+00
        -11   -1    0    0    0    0  0.00000000000E+00  0.00000000000E+00  0.45593999997E+02  0.45594000000E+02  0.51100000000E-03 0. -1.
         11   -1    0    0    0    0 -0.00000000000E+00 -0.00000000000E+00 -0.45593999997E+02  0.45594000000E+02  0.51100000000E-03 0.  1.
    9900012    2    1    2    0    0 -0.31992426502E+02  0.62922409811E+01 -0.28644649837E+02  0.47787267122E+02  0.19999982114E+02 0.  0.
         12    1    1    2    0    0  0.31992426502E+02 -0.62922409811E+01  0.28644649837E+02  0.43400732878E+02  0.00000000000E+00 0. -1.
         11    1    3    3    0    0 -0.69885163583E+00  0.17841547386E+01 -0.51061316886E-01  0.19168226990E+01  0.51100000000E-03 0. -1.
        -11    1    3    3    0    0 -0.90350375771E+01 -0.52678578468E+01 -0.14140269540E+02  0.17587764304E+02  0.51100000000E-03 0.  1.
        -12    1    3    3    0    0 -0.22258537290E+02  0.97759440892E+01 -0.14453318981E+02  0.28282680118E+02  0.00000000000E+00 0.  1.
</event>
<event>
 7    1  0.2455451E-009  0.4778728E+02  0.7816164E-02  0.1312668E+00
        -11   -1    0    0    0    0  0.00000000000E+00  0.00000000000E+00  0.45593999997E+02  0.45594000000E+02  0.51100000000E-03 0.  1.
         11   -1    0    0    0    0 -0.00000000000E+00 -0.00000000000E+00 -0.45593999997E+02  0.45594000000E+02  0.51100000000E-03 0. -1.
    9900012    2    1    2    0    0 -0.19707720402E+02 -0.58200687359E+01  0.38227679460E+02  0.47787275117E+02  0.20000018567E+02 0.  0.
         12    1    1    2    0    0  0.19707720402E+02  0.58200687359E+01 -0.38227679460E+02  0.43400724883E+02  0.00000000000E+00 0. -1.
         11    1    3    3    0    0  0.20444863000E+01  0.24302436607E+01  0.50762094233E+01  0.59878135285E+01  0.51100000000E-03 0. -1.
        -11    1    3    3    0    0 -0.18586083606E+02 -0.39820416054E+01  0.30299677463E+02  0.35768276640E+02  0.51100000000E-03 0.  1.
         12    1    3    3    0    0 -0.31661230952E+01 -0.42682707912E+01  0.28517925737E+01  0.60311849486E+01  0.00000000000E+00 0. -1.
</event>
<event>
 7    1  0.2455451E-009  0.4778727E+02  0.7816164E-02  0.1312668E+00
        -11   -1    0    0    0    0  0.00000000000E+00  0.00000000000E+00  0.45593999997E+02  0.45594000000E+02  0.51100000000E-03 0.  1.
         11   -1    0    0    0    0 -0.00000000000E+00 -0.00000000000E+00 -0.45593999997E+02  0.45594000000E+02  0.51100000000E-03 0. -1.
    9900012    2    1    2    0    0  0.67899945259E+01 -0.14785811052E+02  0.40235549053E+02  0.47787266807E+02  0.19999980679E+02 0.  0.
         12    1    1    2    0    0 -0.67899945259E+01  0.14785811052E+02 -0.40235549053E+02  0.43400733193E+02  0.00000000000E+00 0. -1.
         11    1    3    3    0    0 -0.35745598021E+01  0.92465605421E+00  0.22668026220E+01  0.43325351684E+01  0.51100000000E-03 0. -1.
        -11    1    3    3    0    0  0.99558334916E+01 -0.11607085478E+02  0.35487710430E+02  0.38642213260E+02  0.51100000000E-03 0.  1.
         12    1    3    3    0    0  0.40872083636E+00 -0.41033816273E+01  0.24810360008E+01  0.48125183780E+01  0.00000000000E+00 0. -1.
</event>
<event>
 7    1  0.2455451E-009  0.4778726E+02  0.7816164E-02  0.1312668E+00
        -11   -1    0    0    0    0  0.00000000000E+00  0.00000000000E+00  0.45593999997E+02  0.45594000000E+02  0.51100000000E-03 0.  1.
         11   -1    0    0    0    0 -0.00000000000E+00 -0.00000000000E+00 -0.45593999997E+02  0.45594000000E+02  0.51100000000E-03 0. -1.
    9900012    2    1    2    0    0 -0.39390532513E+02  0.18119125514E+02 -0.19254817133E+01  0.47787259904E+02  0.19999949205E+02 0.  0.
         12    1    1    2    0    0  0.39390532513E+02 -0.18119125514E+02  0.19254817133E+01  0.43400740096E+02  0.00000000000E+00 0. -1.
         11    1    3    3    0    0 -0.64330653633E+01  0.80209888128E+01  0.49001207413E+01  0.11389985735E+02  0.51100000000E-03 0. -1.
        -11    1    3    3    0    0 -0.24498871114E+02  0.44763762237E+01 -0.80363545546E+01  0.26168982111E+02  0.51100000000E-03 0.  1.
        -12    1    3    3    0    0 -0.84585960363E+01  0.56217604776E+01  0.12107521000E+01  0.10228292058E+02  0.00000000000E+00 0.  1.
</event>
<event>
 7    1  0.2455451E-009  0.4778728E+02  0.7816164E-02  0.1312668E+00
        -11   -1    0    0    0    0  0.00000000000E+00  0.00000000000E+00  0.45593999997E+02  0.45594000000E+02  0.51100000000E-03 0.  1.
         11   -1    0    0    0    0 -0.00000000000E+00 -0.00000000000E+00 -0.45593999997E+02  0.45594000000E+02  0.51100000000E-03 0. -1.
    9900012    2    1    2    0    0 -0.12890972785E+02 -0.31342068647E+02  0.27113100570E+02  0.47787278014E+02  0.20000031777E+02 0.  0.
         12    1    1    2    0    0  0.12890972785E+02  0.31342068647E+02 -0.27113100570E+02  0.43400721986E+02  0.00000000000E+00 0. -1.
         11    1    3    3    0    0 -0.82588716331E+01 -0.12256040324E+01  0.46263023558E+01  0.95453517298E+01  0.51100000000E-03 0. -1.
        -11    1    3    3    0    0 -0.15326070935E+01 -0.23457097726E+02  0.15934390012E+02  0.28398751795E+02  0.51100000000E-03 0.  1.
         12    1    3    3    0    0 -0.30994940585E+01 -0.66593668884E+01  0.65524082020E+01  0.98431744889E+01  0.00000000000E+00 0. -1.
</event>
<event>
 7    1  0.2455451E-009  0.4778727E+02  0.7816164E-02  0.1312668E+00
        -11   -1    0    0    0    0  0.00000000000E+00  0.00000000000E+00  0.45593999997E+02  0.45594000000E+02  0.51100000000E-03 0.  1.
         11   -1    0    0    0    0 -0.00000000000E+00 -0.00000000000E+00 -0.45593999997E+02  0.45594000000E+02  0.51100000000E-03 0. -1.
    9900012    2    1    2    0    0 -0.26607896013E+02 -0.66522150154E+01  0.33636157274E+02  0.47787272229E+02  0.20000005402E+02 0.  0.
         12    1    1    2    0    0  0.26607896013E+02  0.66522150154E+01 -0.33636157274E+02  0.43400727771E+02  0.00000000000E+00 0. -1.
         11    1    3    3    0    0 -0.26204772162E+01 -0.55935567889E+01  0.14129710897E+02  0.15420878985E+02  0.51100000000E-03 0. -1.
        -11    1    3    3    0    0 -0.16869109537E+02 -0.44497582630E+01  0.16229376778E+02  0.23827712354E+02  0.51100000000E-03 0.  1.
         12    1    3    3    0    0 -0.71183092599E+01  0.33911000366E+01  0.32770695996E+01  0.85386808898E+01  0.00000000000E+00 0. -1.
</event>
<event>
 7    1  0.2455451E-009  0.4778727E+02  0.7816164E-02  0.1312668E+00
        -11   -1    0    0    0    0  0.00000000000E+00  0.00000000000E+00  0.45593999997E+02  0.45594000000E+02  0.51100000000E-03 0.  1.
         11   -1    0    0    0    0 -0.00000000000E+00 -0.00000000000E+00 -0.45593999997E+02  0.45594000000E+02  0.51100000000E-03 0. -1.
    9900012    2    1    2    0    0 -0.30353898888E+02  0.24766744106E+02 -0.18678124003E+02  0.47787272960E+02  0.20000008733E+02 0.  0.
         12    1    1    2    0    0  0.30353898888E+02 -0.24766744106E+02  0.18678124003E+02  0.43400727040E+02  0.00000000000E+00 0. -1.
         11    1    3    3    0    0  0.15707627342E+00  0.56896297323E+01 -0.21850424281E+01  0.60967999902E+01  0.51100000000E-03 0. -1.
        -11    1    3    3    0    0 -0.28838568032E+02  0.18631475747E+02 -0.11188423228E+02  0.36110603833E+02  0.51100000000E-03 0.  1.
        -12    1    3    3    0    0 -0.16724071301E+01  0.44563862677E+00 -0.53046583476E+01  0.55798691364E+01  0.00000000000E+00 0.  1.
</event>
<event>
 7    1  0.2455451E-009  0.4778727E+02  0.7816164E-02  0.1312668E+00
        -11   -1    0    0    0    0  0.00000000000E+00  0.00000000000E+00  0.45593999997E+02  0.45594000000E+02  0.51100000000E-03 0.  1.
         11   -1    0    0    0    0 -0.00000000000E+00 -0.00000000000E+00 -0.45593999997E+02  0.45594000000E+02  0.51100000000E-03 0. -1.
    9900012    2    1    2    0    0 -0.31207084122E+02  0.23512443226E+02  0.18891967386E+02  0.47787268237E+02  0.19999987199E+02 0.  0.
         12    1    1    2    0    0  0.31207084122E+02 -0.23512443226E+02 -0.18891967386E+02  0.43400731763E+02  0.00000000000E+00 0. -1.
         11    1    3    3    0    0 -0.62818042575E+01  0.31892902711E+01  0.16071910369E+01  0.72260432086E+01  0.51100000000E-03 0. -1.
        -11    1    3    3    0    0 -0.19069313122E+01 -0.10672495412E+01 -0.25837203892E+01  0.33839355672E+01  0.51100000000E-03 0.  1.
        -12    1    3    3    0    0 -0.23018348552E+02  0.21390402496E+02  0.19868496739E+02  0.37177289461E+02  0.00000000000E+00 0.  1.
</event>
<event>
 7    1  0.2455451E-009  0.4778727E+02  0.7816164E-02  0.1312668E+00
        -11   -1    0    0    0    0  0.00000000000E+00  0.00000000000E+00  0.45593999997E+02  0.45594000000E+02  0.51100000000E-03 0. -1.
         11   -1    0    0    0    0 -0.00000000000E+00 -0.00000000000E+00 -0.45593999997E+02  0.45594000000E+02  0.51100000000E-03 0.  1.
    9900012    2    1    2    0    0 -0.76714205809E+01 -0.42611889952E+02 -0.29998890842E+01  0.47787271970E+02  0.20000004220E+02 0.  0.
         12    1    1    2    0    0  0.76714205809E+01  0.42611889952E+02  0.29998890842E+01  0.43400728030E+02  0.00000000000E+00 0. -1.
         11    1    3    3    0    0  0.35028199221E+00 -0.80939160925E+01 -0.61570518473E+01  0.10175630835E+02  0.51100000000E-03 0. -1.
        -11    1    3    3    0    0 -0.82552422630E+01 -0.31805812465E+02  0.62953583271E+01  0.33457290209E+02  0.51100000000E-03 0.  1.
        -12    1    3    3    0    0  0.23353968994E+00 -0.27121613948E+01 -0.31381955640E+01  0.41543509260E+01  0.00000000000E+00 0.  1.
</event>
<event>
 7    1  0.2455451E-009  0.4778726E+02  0.7816164E-02  0.1312668E+00
        -11   -1    0    0    0    0  0.00000000000E+00  0.00000000000E+00  0.45593999997E+02  0.45594000000E+02  0.51100000000E-03 0.  1.
         11   -1    0    0    0    0 -0.00000000000E+00 -0.00000000000E+00 -0.45593999997E+02  0.45594000000E+02  0.51100000000E-03 0. -1.
    9900012    2    1    2    0    0  0.33035173592E+01 -0.43247996242E+02 -0.15236848526E+01  0.47787262432E+02  0.19999960733E+02 0.  0.
         12    1    1    2    0    0 -0.33035173592E+01  0.43247996242E+02  0.15236848526E+01  0.43400737568E+02  0.00000000000E+00 0. -1.
         11    1    3    3    0    0  0.12318859401E+01 -0.99142906723E+00 -0.29400635064E+01  0.33383301586E+01  0.51100000000E-03 0. -1.
        -11    1    3    3    0    0  0.56526086737E+01 -0.39453539994E+02  0.84268855169E+00  0.39865322364E+02  0.51100000000E-03 0.  1.
        -12    1    3    3    0    0 -0.35809772546E+01 -0.28030271804E+01  0.57369010220E+00  0.45836099099E+01  0.00000000000E+00 0.  1.
</event>
<event>
 7    1  0.2455451E-009  0.4778727E+02  0.7816164E-02  0.1312668E+00
        -11   -1    0    0    0    0  0.00000000000E+00  0.00000000000E+00  0.45593999997E+02  0.45594000000E+02  0.51100000000E-03 0. -1.
         11   -1    0    0    0    0 -0.00000000000E+00 -0.00000000000E+00 -0.45593999997E+02  0.45594000000E+02  0.51100000000E-03 0.  1.
    9900012    2    1    2    0    0 -0.12624440265E+02  0.21501828494E+02 -0.35523488146E+02  0.47787270391E+02  0.19999997019E+02 0.  0.
         12    1    1    2    0    0  0.12624440265E+02 -0.21501828494E+02  0.35523488146E+02  0.43400729609E+02  0.00000000000E+00 0. -1.
         11    1    3    3    0    0  0.46026921366E+00  0.16967458600E+01 -0.14046391532E+02  0.14155984939E+02  0.51100000000E-03 0.  1.
        -11    1    3    3    0    0 -0.20286557988E+01  0.93158911454E+01 -0.13216203182E+02  0.16296297095E+02  0.51100000000E-03 0. -1.
         12    1    3    3    0    0 -0.11056053680E+02  0.10489191489E+02 -0.82608934315E+01  0.17334988357E+02  0.00000000000E+00 0. -1.
</event>
<event>
 7    1  0.2455451E-009  0.4778728E+02  0.7816164E-02  0.1312668E+00
        -11   -1    0    0    0    0  0.00000000000E+00  0.00000000000E+00  0.45593999997E+02  0.45594000000E+02  0.51100000000E-03 0.  1.
         11   -1    0    0    0    0 -0.00000000000E+00 -0.00000000000E+00 -0.45593999997E+02  0.45594000000E+02  0.51100000000E-03 0. -1.
    9900012    2    1    2    0    0 -0.63955096954E+01 -0.21154078162E+02  0.37352713985E+02  0.47787276398E+02  0.20000024408E+02 0.  0.
         12    1    1    2    0    0  0.63955096954E+01  0.21154078162E+02 -0.37352713985E+02  0.43400723602E+02  0.00000000000E+00 0. -1.
         11    1    3    3    0    0 -0.10498225315E+01 -0.10012868277E+02  0.45469235126E+01  0.11046907810E+02  0.51100000000E-03 0. -1.
        -11    1    3    3    0    0 -0.76699273882E+01 -0.10757929210E+02  0.31220329891E+02  0.33900882375E+02  0.51100000000E-03 0.  1.
        -12    1    3    3    0    0  0.23242402242E+01 -0.38328067475E+00  0.15854605812E+01  0.28394862123E+01  0.00000000000E+00 0.  1.
</event>
<event>
 7    1  0.2455451E-009  0.4778727E+02  0.7816164E-02  0.1312668E+00
        -11   -1    0    0    0    0  0.00000000000E+00  0.00000000000E+00  0.45593999997E+02  0.45594000000E+02  0.51100000000E-03 0. -1.
         11   -1    0    0    0    0 -0.00000000000E+00 -0.00000000000E+00 -0.45593999997E+02  0.45594000000E+02  0.51100000000E-03 0.  1.
    9900012    2    1    2    0    0 -0.10826809853E+02  0.26253294734E+02 -0.32820234249E+02  0.47787273368E+02  0.20000010595E+02 0.  0.
         12    1    1    2    0    0  0.10826809853E+02 -0.26253294734E+02  0.32820234249E+02  0.43400726632E+02  0.00000000000E+00 0. -1.
         11    1    3    3    0    0 -0.23061394608E+01 -0.16520077075E+01 -0.12552675480E+01  0.31021130793E+01  0.51100000000E-03 0. -1.
        -11    1    3    3    0    0 -0.17297508562E+01  0.19817683600E+02 -0.26032511591E+02  0.32763154324E+02  0.51100000000E-03 0.  1.
         12    1    3    3    0    0 -0.67909195360E+01  0.80876188416E+01 -0.55324551104E+01  0.11922005965E+02  0.00000000000E+00 0. -1.
</event>
<event>
 7    1  0.2455451E-009  0.4778727E+02  0.7816164E-02  0.1312668E+00
        -11   -1    0    0    0    0  0.00000000000E+00  0.00000000000E+00  0.45593999997E+02  0.45594000000E+02  0.51100000000E-03 0.  1.
         11   -1    0    0    0    0 -0.00000000000E+00 -0.00000000000E+00 -0.45593999997E+02  0.45594000000E+02  0.51100000000E-03 0. -1.
    9900012    2    1    2    0    0  0.74241430812E+01  0.39542968524E+02  0.16274483705E+02  0.47787273278E+02  0.20000010182E+02 0.  0.
         12    1    1    2    0    0 -0.74241430812E+01 -0.39542968524E+02 -0.16274483705E+02  0.43400726722E+02  0.00000000000E+00 0. -1.
         11    1    3    3    0    0  0.40149346666E+01  0.18565845537E+01  0.57945878158E+01  0.72899831823E+01  0.51100000000E-03 0. -1.
        -11    1    3    3    0    0  0.33778812160E+01  0.19397205640E+02  0.57347037624E+00  0.19697475389E+02  0.51100000000E-03 0.  1.
         12    1    3    3    0    0  0.31327198573E-01  0.18289178330E+02  0.99064255128E+01  0.20799814707E+02  0.00000000000E+00 0. -1.
</event>
<event>
 7    1  0.2455451E-009  0.4778727E+02  0.7816164E-02  0.1312668E+00
        -11   -1    0    0    0    0  0.00000000000E+00  0.00000000000E+00  0.45593999997E+02  0.45594000000E+02  0.51100000000E-03 0.  1.
         11   -1    0    0    0    0 -0.00000000000E+00 -0.00000000000E+00 -0.45593999997E+02  0.45594000000E+02  0.51100000000E-03 0. -1.
    9900012    2    1    2    0    0 -0.26446369736E+02 -0.32067542334E+02  0.12485407865E+02  0.47787272436E+02  0.20000006343E+02 0.  0.
         12    1    1    2    0    0  0.26446369736E+02  0.32067542334E+02 -0.12485407865E+02  0.43400727564E+02  0.00000000000E+00 0. -1.
         11    1    3    3    0    0 -0.17237935082E+02 -0.26982144579E+02  0.96231231482E+01  0.33433322171E+02  0.51100000000E-03 0. -1.
        -11    1    3    3    0    0 -0.95801855743E+01 -0.71543361728E+01  0.22737993176E+01  0.12171057691E+02  0.51100000000E-03 0.  1.
         12    1    3    3    0    0  0.37175092089E+00  0.20689384180E+01  0.58848539894E+00  0.21828925739E+01  0.00000000000E+00 0. -1.
</event>
<event>
 7    1  0.2455451E-009  0.4778728E+02  0.7816164E-02  0.1312668E+00
        -11   -1    0    0    0    0  0.00000000000E+00  0.00000000000E+00  0.45593999997E+02  0.45594000000E+02  0.51100000000E-03 0.  1.
         11   -1    0    0    0    0 -0.00000000000E+00 -0.00000000000E+00 -0.45593999997E+02  0.45594000000E+02  0.51100000000E-03 0. -1.
    9900012    2    1    2    0    0  0.10838195486E+02  0.16969006709E+02  0.38447484558E+02  0.47787277208E+02  0.20000028101E+02 0.  0.
         12    1    1    2    0    0 -0.10838195486E+02 -0.16969006709E+02 -0.38447484558E+02  0.43400722792E+02  0.00000000000E+00 0. -1.
         11    1    3    3    0    0 -0.11268885483E+01  0.74189814484E+01  0.26408676303E+01  0.79552087109E+01  0.51100000000E-03 0. -1.
        -11    1    3    3    0    0  0.44882589318E+01  0.10892146429E+01  0.19219630483E+02  0.19766766376E+02  0.51100000000E-03 0.  1.
         12    1    3    3    0    0  0.74768251026E+01  0.84608106176E+01  0.16586986444E+02  0.20065302121E+02  0.00000000000E+00 0. -1.
</event>
<event>
 7    1  0.2455451E-009  0.4778727E+02  0.7816164E-02  0.1312668E+00
        -11   -1    0    0    0    0  0.00000000000E+00  0.00000000000E+00  0.45593999997E+02  0.45594000000E+02  0.51100000000E-03 0.  1.
         11   -1    0    0    0    0 -0.00000000000E+00 -0.00000000000E+00 -0.45593999997E+02  0.45594000000E+02  0.51100000000E-03 0. -1.
    9900012    2    1    2    0    0 -0.13356684594E+02 -0.22986943265E+02  0.34304855535E+02  0.47787266167E+02  0.19999977760E+02 0.  0.
         12    1    1    2    0    0  0.13356684594E+02  0.22986943265E+02 -0.34304855535E+02  0.43400733833E+02  0.00000000000E+00 0. -1.
         11    1    3    3    0    0 -0.44659829177E+00 -0.36410034696E+01  0.15456983280E+02  0.15886305066E+02  0.51100000000E-03 0. -1.
        -11    1    3    3    0    0 -0.70299216110E+01 -0.18359153689E+02  0.13134264832E+02  0.23642910882E+02  0.51100000000E-03 0.  1.
        -12    1    3    3    0    0 -0.58801646912E+01 -0.98678610584E+00  0.57136074232E+01  0.82580502178E+01  0.00000000000E+00 0.  1.
</event>
<event>
 7    1  0.2455451E-009  0.4778727E+02  0.7816164E-02  0.1312668E+00
        -11   -1    0    0    0    0  0.00000000000E+00  0.00000000000E+00  0.45593999997E+02  0.45594000000E+02  0.51100000000E-03 0.  1.
         11   -1    0    0    0    0 -0.00000000000E+00 -0.00000000000E+00 -0.45593999997E+02  0.45594000000E+02  0.51100000000E-03 0. -1.
    9900012    2    1    2    0    0 -0.42819971579E+02 -0.11402175712E+01  0.69837755858E+01  0.47787272084E+02  0.20000004742E+02 0.  0.
         12    1    1    2    0    0  0.42819971579E+02  0.11402175712E+01 -0.69837755858E+01  0.43400727916E+02  0.00000000000E+00 0. -1.
         11    1    3    3    0    0 -0.11072619823E+02 -0.35514971890E+01 -0.30800352763E+01  0.12029241854E+02  0.51100000000E-03 0. -1.
        -11    1    3    3    0    0 -0.16441134216E+02  0.53192389912E+01  0.10411117180E+02  0.20174155719E+02  0.51100000000E-03 0.  1.
        -12    1    3    3    0    0 -0.15306217540E+02 -0.29079593734E+01 -0.34730631805E+00  0.15583874511E+02  0.00000000000E+00 0.  1.
</event>
<event>
 7    1  0.2455451E-009  0.4778728E+02  0.7816164E-02  0.1312668E+00
        -11   -1    0    0    0    0  0.00000000000E+00  0.00000000000E+00  0.45593999997E+02  0.45594000000E+02  0.51100000000E-03 0. -1.
         11   -1    0    0    0    0 -0.00000000000E+00 -0.00000000000E+00 -0.45593999997E+02  0.45594000000E+02  0.51100000000E-03 0.  1.
    9900012    2    1    2    0    0 -0.30589173949E+02 -0.27081351020E+02 -0.14646690281E+02  0.47787277977E+02  0.20000031608E+02 0.  0.
         12    1    1    2    0    0  0.30589173949E+02  0.27081351020E+02  0.14646690281E+02  0.43400722023E+02  0.00000000000E+00 0. -1.
         11    1    3    3    0    0 -0.16398861202E+01  0.18564026409E+01 -0.83335204564E-01  0.24783870299E+01  0.51100000000E-03 0. -1.
        -11    1    3    3    0    0 -0.10028501310E+02 -0.19071821723E+02 -0.79792024705E+01  0.22977660775E+02  0.51100000000E-03 0.  1.
        -12    1    3    3    0    0 -0.18920786518E+02 -0.98659319386E+01 -0.65841526057E+01  0.22331230173E+02  0.00000000000E+00 0.  1.
</event>
<event>
 7    1  0.2455451E-009  0.4778726E+02  0.7816164E-02  0.1312668E+00
        -11   -1    0    0    0    0  0.00000000000E+00  0.00000000000E+00  0.45593999997E+02  0.45594000000E+02  0.51100000000E-03 0.  1.
         11   -1    0    0    0    0 -0.00000000000E+00 -0.00000000000E+00 -0.45593999997E+02  0.45594000000E+02  0.51100000000E-03 0. -1.
    9900012    2    1    2    0    0  0.16725486258E+02  0.98684094188E+01  0.38813611927E+02  0.47787264224E+02  0.19999968904E+02 0.  0.
         12    1    1    2    0    0 -0.16725486258E+02 -0.98684094188E+01 -0.38813611927E+02  0.43400735776E+02  0.00000000000E+00 0. -1.
         11    1    3    3    0    0 -0.10627995415E+01 -0.45340366996E+01  0.50058353395E+01  0.68370621882E+01  0.51100000000E-03 0. -1.
        -11    1    3    3    0    0  0.92399129712E+01  0.82855026723E+01  0.20860602479E+02  0.24273242105E+02  0.51100000000E-03 0.  1.
         12    1    3    3    0    0  0.85483728281E+01  0.61169434460E+01  0.12947174109E+02  0.16676959931E+02  0.00000000000E+00 0. -1.
</event>
<event>
 7    1  0.2455451E-009  0.4778727E+02  0.7816164E-02  0.1312668E+00
        -11   -1    0    0    0    0  0.00000000000E+00  0.00000000000E+00  0.45593999997E+02  0.45594000000E+02  0.51100000000E-03 0. -1.
         11   -1    0    0    0    0 -0.00000000000E+00 -0.00000000000E+00 -0.45593999997E+02  0.45594000000E+02  0.51100000000E-03 0.  1.
    9900012    2    1    2    0    0 -0.42285859907E+02 -0.68028277846E+01 -0.70179068851E+01  0.47787269234E+02  0.19999991746E+02 0.  0.
         12    1    1    2    0    0  0.42285859907E+02  0.68028277846E+01  0.70179068851E+01  0.43400730766E+02  0.00000000000E+00 0. -1.
         11    1    3    3    0    0 -0.21573950411E+02 -0.28503632634E+01  0.36801883488E+01  0.22070425769E+02  0.51100000000E-03 0. -1.
        -11    1    3    3    0    0 -0.70669756849E+01 -0.70550627625E-02  0.12245694178E+01  0.71722915184E+01  0.51100000000E-03 0.  1.
         12    1    3    3    0    0 -0.13644933812E+02 -0.39454094584E+01 -0.11922664652E+02  0.18544551947E+02  0.00000000000E+00 0. -1.
</event>
<event>
 7    1  0.2455451E-009  0.4778727E+02  0.7816164E-02  0.1312668E+00
        -11   -1    0    0    0    0  0.00000000000E+00  0.00000000000E+00  0.45593999997E+02  0.45594000000E+02  0.51100000000E-03 0.  1.
         11   -1    0    0    0    0 -0.00000000000E+00 -0.00000000000E+00 -0.45593999997E+02  0.45594000000E+02  0.51100000000E-03 0. -1.
    9900012    2    1    2    0    0  0.10403509037E+02  0.42131723173E+02 -0.55524036244E+00  0.47787269710E+02  0.19999993915E+02 0.  0.
         12    1    1    2    0    0 -0.10403509037E+02 -0.42131723173E+02  0.55524036244E+00  0.43400730290E+02  0.00000000000E+00 0. -1.
         11    1    3    3    0    0 -0.27847154689E+01  0.20889683361E+02 -0.14190313424E+01  0.21122195941E+02  0.51100000000E-03 0. -1.
        -11    1    3    3    0    0  0.12303628944E+02  0.22178597785E+02  0.83281003923E+00  0.25376427206E+02  0.51100000000E-03 0.  1.
         12    1    3    3    0    0  0.88459556172E+00 -0.93655797288E+00  0.30980940772E-01  0.12886465625E+01  0.00000000000E+00 0. -1.
</event>
<event>
 7    1  0.2455451E-009  0.4778727E+02  0.7816164E-02  0.1312668E+00
        -11   -1    0    0    0    0  0.00000000000E+00  0.00000000000E+00  0.45593999997E+02  0.45594000000E+02  0.51100000000E-03 0.  1.
         11   -1    0    0    0    0 -0.00000000000E+00 -0.00000000000E+00 -0.45593999997E+02  0.45594000000E+02  0.51100000000E-03 0. -1.
    9900012    2    1    2    0    0 -0.65661271594E+01  0.28833012691E+02  0.31767383543E+02  0.47787270699E+02  0.19999998426E+02 0.  0.
         12    1    1    2    0    0  0.65661271594E+01 -0.28833012691E+02 -0.31767383543E+02  0.43400729301E+02  0.00000000000E+00 0. -1.
         11    1    3    3    0    0 -0.99357284420E+01  0.61333144033E+01  0.13297311301E+02  0.17696178496E+02  0.51100000000E-03 0. -1.
        -11    1    3    3    0    0  0.35842950165E+01  0.71443605366E+01  0.81931790438E+01  0.11446276309E+02  0.51100000000E-03 0.  1.
         12    1    3    3    0    0 -0.21469373395E+00  0.15555337751E+02  0.10276893197E+02  0.18644815894E+02  0.00000000000E+00 0. -1.
</event>
<event>
 7    1  0.2455451E-009  0.4778727E+02  0.7816164E-02  0.1312668E+00
        -11   -1    0    0    0    0  0.00000000000E+00  0.00000000000E+00  0.45593999997E+02  0.45594000000E+02  0.51100000000E-03 0.  1.
         11   -1    0    0    0    0 -0.00000000000E+00 -0.00000000000E+00 -0.45593999997E+02  0.45594000000E+02  0.51100000000E-03 0. -1.
    9900012    2    1    2    0    0  0.23829076507E+02 -0.25671391766E+02  0.25627685093E+02  0.47787268605E+02  0.19999988877E+02 0.  0.
         12    1    1    2    0    0 -0.23829076507E+02  0.25671391766E+02 -0.25627685093E+02  0.43400731395E+02  0.00000000000E+00 0. -1.
         11    1    3    3    0    0  0.92821449112E+01 -0.16332675075E+02  0.51918034107E+01  0.19490236329E+02  0.51100000000E-03 0. -1.
        -11    1    3    3    0    0  0.12405339946E+01 -0.31523691043E+01  0.92342894390E+01  0.98360793646E+01  0.51100000000E-03 0.  1.
         12    1    3    3    0    0  0.13306397602E+02 -0.61863475866E+01  0.11201592244E+02  0.18460952911E+02  0.00000000000E+00 0. -1.
</event>
<event>
 7    1  0.2455451E-009  0.4778727E+02  0.7816164E-02  0.1312668E+00
        -11   -1    0    0    0    0  0.00000000000E+00  0.00000000000E+00  0.45593999997E+02  0.45594000000E+02  0.51100000000E-03 0.  1.
         11   -1    0    0    0    0 -0.00000000000E+00 -0.00000000000E+00 -0.45593999997E+02  0.45594000000E+02  0.51100000000E-03 0. -1.
    9900012    2    1    2    0    0 -0.23763108956E+02  0.35952541545E+02  0.51334913268E+01  0.47787270467E+02  0.19999997368E+02 0.  0.
         12    1    1    2    0    0  0.23763108956E+02 -0.35952541545E+02 -0.51334913268E+01  0.43400729533E+02  0.00000000000E+00 0. -1.
         11    1    3    3    0    0 -0.55226161136E+01  0.37177164346E+01 -0.37501126242E+01  0.76409455685E+01  0.51100000000E-03 0. -1.
        -11    1    3    3    0    0 -0.99771593135E+01  0.27736610358E+02  0.46962895204E+01  0.29848256191E+02  0.51100000000E-03 0.  1.
        -12    1    3    3    0    0 -0.82633335291E+01  0.44982147516E+01  0.41873144306E+01  0.10298068708E+02  0.00000000000E+00 0.  1.
</event>
<event>
 7    1  0.2455451E-009  0.4778727E+02  0.7816164E-02  0.1312668E+00
        -11   -1    0    0    0    0  0.00000000000E+00  0.00000000000E+00  0.45593999997E+02  0.45594000000E+02  0.51100000000E-03 0. -1.
         11   -1    0    0    0    0 -0.00000000000E+00 -0.00000000000E+00 -0.45593999997E+02  0.45594000000E+02  0.51100000000E-03 0.  1.
    9900012    2    1    2    0    0  0.37595037101E+02  0.13394525970E+02  0.17053534073E+02  0.47787272299E+02  0.20000005721E+02 0.  0.
         12    1    1    2    0    0 -0.37595037101E+02 -0.13394525970E+02 -0.17053534073E+02  0.43400727701E+02  0.00000000000E+00 0. -1.
         11    1    3    3    0    0  0.15430405239E+02 -0.11560888708E+01  0.76154431489E+01  0.17246127737E+02  0.51100000000E-03 0. -1.
        -11    1    3    3    0    0  0.14288855650E+02  0.23935785473E+01  0.58020351128E+01  0.15606544325E+02  0.51100000000E-03 0.  1.
         12    1    3    3    0    0  0.78757762117E+01  0.12157036293E+02  0.36360558114E+01  0.14934600237E+02  0.00000000000E+00 0. -1.
</event>
<event>
 7    1  0.2455451E-009  0.4778727E+02  0.7816164E-02  0.1312668E+00
        -11   -1    0    0    0    0  0.00000000000E+00  0.00000000000E+00  0.45593999997E+02  0.45594000000E+02  0.51100000000E-03 0.  1.
         11   -1    0    0    0    0 -0.00000000000E+00 -0.00000000000E+00 -0.45593999997E+02  0.45594000000E+02  0.51100000000E-03 0. -1.
    9900012    2    1    2    0    0 -0.34111539931E+02  0.12780173142E+02  0.23594346400E+02  0.47787272309E+02  0.20000005768E+02 0.  0.
         12    1    1    2    0    0  0.34111539931E+02 -0.12780173142E+02 -0.23594346400E+02  0.43400727691E+02  0.00000000000E+00 0. -1.
         11    1    3    3    0    0 -0.37567642115E+01 -0.58471768772E+00  0.35989344397E+01  0.52352174241E+01  0.51100000000E-03 0. -1.
        -11    1    3    3    0    0 -0.32372505770E+02  0.12335710476E+02  0.16463324415E+02  0.38356093830E+02  0.51100000000E-03 0.  1.
        -12    1    3    3    0    0  0.20177300504E+01  0.10291803535E+01  0.35320875449E+01  0.41959610557E+01  0.00000000000E+00 0.  1.
</event>
<event>
 7    1  0.2455451E-009  0.4778727E+02  0.7816164E-02  0.1312668E+00
        -11   -1    0    0    0    0  0.00000000000E+00  0.00000000000E+00  0.45593999997E+02  0.45594000000E+02  0.51100000000E-03 0.  1.
         11   -1    0    0    0    0 -0.00000000000E+00 -0.00000000000E+00 -0.45593999997E+02  0.45594000000E+02  0.51100000000E-03 0. -1.
    9900012    2    1    2    0    0  0.99832825944E+01  0.18804298793E+02  0.37820048186E+02  0.47787266951E+02  0.19999981335E+02 0.  0.
         12    1    1    2    0    0 -0.99832825944E+01 -0.18804298793E+02 -0.37820048186E+02  0.43400733049E+02  0.00000000000E+00 0. -1.
         11    1    3    3    0    0 -0.76428720457E+00  0.40707731895E+01  0.80546025560E+00  0.42194899900E+01  0.51100000000E-03 0. -1.
        -11    1    3    3    0    0  0.11799466999E+02  0.14859118464E+02  0.37769010537E+02  0.42267232937E+02  0.51100000000E-03 0.  1.
        -12    1    3    3    0    0 -0.10518972003E+01 -0.12559286062E+00 -0.75442260673E+00  0.13005440232E+01  0.00000000000E+00 0.  1.
</event>
<event>
 7    1  0.2455451E-009  0.4778727E+02  0.7816164E-02  0.1312668E+00
        -11   -1    0    0    0    0  0.00000000000E+00  0.00000000000E+00  0.45593999997E+02  0.45594000000E+02  0.51100000000E-03 0. -1.
         11   -1    0    0    0    0 -0.00000000000E+00 -0.00000000000E+00 -0.45593999997E+02  0.45594000000E+02  0.51100000000E-03 0.  1.
    9900012    2    1    2    0    0  0.23130263362E+02 -0.20148596364E+02 -0.30702578278E+02  0.47787270380E+02  0.19999996972E+02 0.  0.
         12    1    1    2    0    0 -0.23130263362E+02  0.20148596364E+02  0.30702578278E+02  0.43400729620E+02  0.00000000000E+00 0. -1.
         11    1    3    3    0    0  0.26233286037E+01 -0.31154432563E+01  0.18107095224E+01  0.44571862068E+01  0.51100000000E-03 0. -1.
        -11    1    3    3    0    0  0.13132387937E+02 -0.49973009015E+01 -0.20153246312E+02  0.24567986617E+02  0.51100000000E-03 0.  1.
         12    1    3    3    0    0  0.73745468211E+01 -0.12035852206E+02 -0.12360041488E+02  0.18762097557E+02  0.00000000000E+00 0. -1.
</event>
<event>
 7    1  0.2455451E-009  0.4778727E+02  0.7816164E-02  0.1312668E+00
        -11   -1    0    0    0    0  0.00000000000E+00  0.00000000000E+00  0.45593999997E+02  0.45594000000E+02  0.51100000000E-03 0. -1.
         11   -1    0    0    0    0 -0.00000000000E+00 -0.00000000000E+00 -0.45593999997E+02  0.45594000000E+02  0.51100000000E-03 0.  1.
    9900012    2    1    2    0    0  0.42103261009E+02  0.10439486220E+02  0.13986587104E+01  0.47787266062E+02  0.19999977284E+02 0.  0.
         12    1    1    2    0    0 -0.42103261009E+02 -0.10439486220E+02 -0.13986587104E+01  0.43400733938E+02  0.00000000000E+00 0. -1.
         11    1    3    3    0    0  0.42955781015E+01  0.28244536013E+01 -0.58533069533E+01  0.77904256573E+01  0.51100000000E-03 0. -1.
        -11    1    3    3    0    0  0.29953628933E+02  0.65242440907E+01  0.25119333736E+01  0.30758664743E+02  0.51100000000E-03 0.  1.
        -12    1    3    3    0    0  0.78540539745E+01  0.10907885277E+01  0.47400322901E+01  0.92381756618E+01  0.00000000000E+00 0.  1.
</event>
<event>
 7    1  0.2455451E-009  0.4778727E+02  0.7816164E-02  0.1312668E+00
        -11   -1    0    0    0    0  0.00000000000E+00  0.00000000000E+00  0.45593999997E+02  0.45594000000E+02  0.51100000000E-03 0.  1.
         11   -1    0    0    0    0 -0.00000000000E+00 -0.00000000000E+00 -0.45593999997E+02  0.45594000000E+02  0.51100000000E-03 0. -1.
    9900012    2    1    2    0    0  0.29482531383E+02  0.68632232168E+01  0.31101445847E+02  0.47787269322E+02  0.19999992146E+02 0.  0.
         12    1    1    2    0    0 -0.29482531383E+02 -0.68632232168E+01 -0.31101445847E+02  0.43400730678E+02  0.00000000000E+00 0. -1.
         11    1    3    3    0    0  0.62001517233E+01  0.53829019274E+01  0.19676057253E+02  0.21320524005E+02  0.51100000000E-03 0. -1.
        -11    1    3    3    0    0  0.15844522737E+02 -0.82569077122E+00  0.93164146571E+01  0.18399082812E+02  0.51100000000E-03 0.  1.
         12    1    3    3    0    0  0.74378569226E+01  0.23060120606E+01  0.21089739359E+01  0.80676625045E+01  0.00000000000E+00 0. -1.
</event>
<event>
 7    1  0.2455451E-009  0.4778732E+02  0.7816164E-02  0.1312668E+00
        -11   -1    0    0    0    0  0.00000000000E+00  0.00000000000E+00  0.45593999997E+02  0.45594000000E+02  0.51100000000E-03 0. -1.
         11   -1    0    0    0    0 -0.00000000000E+00 -0.00000000000E+00 -0.45593999997E+02  0.45594000000E+02  0.51100000000E-03 0.  1.
    9900012    2    1    2    0    0 -0.33242530312E+02  0.15623030374E+02  0.23118696718E+02  0.47787319849E+02  0.20000222519E+02 0.  0.
         12    1    1    2    0    0  0.33242530312E+02 -0.15623030374E+02 -0.23118696718E+02  0.43400680151E+02  0.00000000000E+00 0. -1.
         11    1    3    3    0    0 -0.30304858319E+02  0.77853910861E+01  0.16100488823E+02  0.35188385764E+02  0.51100000000E-03 0. -1.
        -11    1    3    3    0    0 -0.42798395222E+01  0.35020895601E+01  0.55349764447E+01  0.78241691014E+01  0.51100000000E-03 0.  1.
         12    1    3    3    0    0  0.13421675286E+01  0.43355497276E+01  0.14832314505E+01  0.47747649839E+01  0.00000000000E+00 0. -1.
</event>
<event>
 7    1  0.2455451E-009  0.4778729E+02  0.7816164E-02  0.1312668E+00
        -11   -1    0    0    0    0  0.00000000000E+00  0.00000000000E+00  0.45593999997E+02  0.45594000000E+02  0.51100000000E-03 0.  1.
         11   -1    0    0    0    0 -0.00000000000E+00 -0.00000000000E+00 -0.45593999997E+02  0.45594000000E+02  0.51100000000E-03 0. -1.
    9900012    2    1    2    0    0  0.39312782077E+02 -0.14156265669E+02  0.11735713816E+02  0.47787289509E+02  0.20000084187E+02 0.  0.
         12    1    1    2    0    0 -0.39312782077E+02  0.14156265669E+02 -0.11735713816E+02  0.43400710491E+02  0.00000000000E+00 0. -1.
         11    1    3    3    0    0 -0.13642958285E+00  0.12991991648E+01  0.27247932239E+01  0.30217594006E+01  0.51100000000E-03 0. -1.
        -11    1    3    3    0    0  0.29809334224E+02 -0.11276699967E+02  0.16055834096E+01  0.31911412808E+02  0.51100000000E-03 0.  1.
        -12    1    3    3    0    0  0.96398774357E+01 -0.41787648670E+01  0.74053371827E+01  0.12854117301E+02  0.00000000000E+00 0.  1.
</event>
<event>
 7    1  0.2455451E-009  0.4778727E+02  0.7816164E-02  0.1312668E+00
        -11   -1    0    0    0    0  0.00000000000E+00  0.00000000000E+00  0.45593999997E+02  0.45594000000E+02  0.51100000000E-03 0.  1.
         11   -1    0    0    0    0 -0.00000000000E+00 -0.00000000000E+00 -0.45593999997E+02  0.45594000000E+02  0.51100000000E-03 0. -1.
    9900012    2    1    2    0    0  0.28856653279E+02 -0.66502705710E+01  0.31728388409E+02  0.47787272262E+02  0.20000005550E+02 0.  0.
         12    1    1    2    0    0 -0.28856653279E+02  0.66502705710E+01 -0.31728388409E+02  0.43400727738E+02  0.00000000000E+00 0. -1.
         11    1    3    3    0    0  0.27719016494E+02 -0.47002979149E+01  0.19127396264E+02  0.34004322725E+02  0.51100000000E-03 0. -1.
        -11    1    3    3    0    0  0.16395958913E+01  0.23303245388E+00  0.10750968678E+02  0.10877771214E+02  0.51100000000E-03 0.  1.
         12    1    3    3    0    0 -0.50195910641E+00 -0.21830051100E+01  0.18500234672E+01  0.29051783222E+01  0.00000000000E+00 0. -1.
</event>
<event>
 7    1  0.2455451E-009  0.4778726E+02  0.7816164E-02  0.1312668E+00
        -11   -1    0    0    0    0  0.00000000000E+00  0.00000000000E+00  0.45593999997E+02  0.45594000000E+02  0.51100000000E-03 0.  1.
         11   -1    0    0    0    0 -0.00000000000E+00 -0.00000000000E+00 -0.45593999997E+02  0.45594000000E+02  0.51100000000E-03 0. -1.
    9900012    2    1    2    0    0 -0.98006634817E+01  0.16978253338E+01  0.42245577506E+02  0.47787257675E+02  0.19999939045E+02 0.  0.
         12    1    1    2    0    0  0.98006634817E+01 -0.16978253338E+01 -0.42245577506E+02  0.43400742325E+02  0.00000000000E+00 0. -1.
         11    1    3    3    0    0 -0.58125320284E+01  0.18248329347E+01  0.59555641119E+01  0.85196413054E+01  0.51100000000E-03 0. -1.
        -11    1    3    3    0    0  0.21679126034E+01  0.43823752581E+01  0.47467893585E+01  0.68144748465E+01  0.51100000000E-03 0.  1.
        -12    1    3    3    0    0 -0.61560440567E+01 -0.45093828591E+01  0.31543224035E+02  0.32453141523E+02  0.00000000000E+00 0.  1.
</event>
<event>
 7    1  0.2455451E-009  0.4778728E+02  0.7816164E-02  0.1312668E+00
        -11   -1    0    0    0    0  0.00000000000E+00  0.00000000000E+00  0.45593999997E+02  0.45594000000E+02  0.51100000000E-03 0. -1.
         11   -1    0    0    0    0 -0.00000000000E+00 -0.00000000000E+00 -0.45593999997E+02  0.45594000000E+02  0.51100000000E-03 0.  1.
    9900012    2    1    2    0    0 -0.40859765025E+01 -0.27093257121E+02 -0.33658328785E+02  0.47787275559E+02  0.20000020586E+02 0.  0.
         12    1    1    2    0    0  0.40859765025E+01  0.27093257121E+02  0.33658328785E+02  0.43400724441E+02  0.00000000000E+00 0. -1.
         11    1    3    3    0    0 -0.13023874988E+00  0.55419075215E-02  0.50073148700E+00  0.51742161523E+00  0.51100000000E-03 0. -1.
        -11    1    3    3    0    0 -0.84034622220E+01 -0.88626041067E+01 -0.21179393586E+02  0.24448530463E+02  0.51100000000E-03 0.  1.
        -12    1    3    3    0    0  0.44477244694E+01 -0.18236194921E+02 -0.12979666686E+02  0.22821323481E+02  0.00000000000E+00 0.  1.
</event>
<event>
 7    1  0.2455451E-009  0.4778728E+02  0.7816164E-02  0.1312668E+00
        -11   -1    0    0    0    0  0.00000000000E+00  0.00000000000E+00  0.45593999997E+02  0.45594000000E+02  0.51100000000E-03 0. -1.
         11   -1    0    0    0    0 -0.00000000000E+00 -0.00000000000E+00 -0.45593999997E+02  0.45594000000E+02  0.51100000000E-03 0.  1.
    9900012    2    1    2    0    0 -0.42306943628E+02  0.28549716391E+01  0.92517035274E+01  0.47787281568E+02  0.20000047982E+02 0.  0.
         12    1    1    2    0    0  0.42306943628E+02 -0.28549716391E+01 -0.92517035274E+01  0.43400718432E+02  0.00000000000E+00 0. -1.
         11    1    3    3    0    0 -0.22617235373E+01 -0.60891290311E+00  0.24132083742E+01  0.33629961643E+01  0.51100000000E-03 0. -1.
        -11    1    3    3    0    0 -0.11392169774E+02  0.56818590718E+00  0.10362380792E+02  0.15410493286E+02  0.51100000000E-03 0.  1.
        -12    1    3    3    0    0 -0.28653050317E+02  0.28956986350E+01 -0.35238856387E+01  0.29013792118E+02  0.00000000000E+00 0.  1.
</event>
<event>
 7    1  0.2455451E-009  0.4778727E+02  0.7816164E-02  0.1312668E+00
        -11   -1    0    0    0    0  0.00000000000E+00  0.00000000000E+00  0.45593999997E+02  0.45594000000E+02  0.51100000000E-03 0.  1.
         11   -1    0    0    0    0 -0.00000000000E+00 -0.00000000000E+00 -0.45593999997E+02  0.45594000000E+02  0.51100000000E-03 0. -1.
    9900012    2    1    2    0    0  0.25095674479E+02 -0.31351398454E+02  0.16459654907E+02  0.47787270718E+02  0.19999998511E+02 0.  0.
         12    1    1    2    0    0 -0.25095674479E+02  0.31351398454E+02 -0.16459654907E+02  0.43400729282E+02  0.00000000000E+00 0. -1.
         11    1    3    3    0    0  0.14878886062E+02 -0.49895380355E+01  0.98341669614E+01  0.18519923875E+02  0.51100000000E-03 0. -1.
        -11    1    3    3    0    0  0.61226953983E+00 -0.37542685445E+01  0.19067931657E+01  0.42550284055E+01  0.51100000000E-03 0.  1.
         12    1    3    3    0    0  0.96045188772E+01 -0.22607591873E+02  0.47186947802E+01  0.25012318437E+02  0.00000000000E+00 0. -1.
</event>
<event>
 7    1  0.2455451E-009  0.4778726E+02  0.7816164E-02  0.1312668E+00
        -11   -1    0    0    0    0  0.00000000000E+00  0.00000000000E+00  0.45593999997E+02  0.45594000000E+02  0.51100000000E-03 0. -1.
         11   -1    0    0    0    0 -0.00000000000E+00 -0.00000000000E+00 -0.45593999997E+02  0.45594000000E+02  0.51100000000E-03 0.  1.
    9900012    2    1    2    0    0  0.13102839734E+02  0.29966587626E+02 -0.28529693218E+02  0.47787260627E+02  0.19999952502E+02 0.  0.
         12    1    1    2    0    0 -0.13102839734E+02 -0.29966587626E+02  0.28529693218E+02  0.43400739373E+02  0.00000000000E+00 0. -1.
         11    1    3    3    0    0  0.13490044285E+02  0.86098480941E+01 -0.15070165159E+02  0.21982280528E+02  0.51100000000E-03 0. -1.
        -11    1    3    3    0    0  0.13883756717E+01  0.15304449038E+02 -0.11520996583E+02  0.19206434075E+02  0.51100000000E-03 0.  1.
        -12    1    3    3    0    0 -0.17755802229E+01  0.60522904937E+01 -0.19385314764E+01  0.65985460242E+01  0.00000000000E+00 0.  1.
</event>
<event>
 7    1  0.2455451E-009  0.4778727E+02  0.7816164E-02  0.1312668E+00
        -11   -1    0    0    0    0  0.00000000000E+00  0.00000000000E+00  0.45593999997E+02  0.45594000000E+02  0.51100000000E-03 0. -1.
         11   -1    0    0    0    0 -0.00000000000E+00 -0.00000000000E+00 -0.45593999997E+02  0.45594000000E+02  0.51100000000E-03 0.  1.
    9900012    2    1    2    0    0 -0.35690460044E+01 -0.24505884466E+02 -0.35641926613E+02  0.47787269643E+02  0.19999993610E+02 0.  0.
         12    1    1    2    0    0  0.35690460044E+01  0.24505884466E+02  0.35641926613E+02  0.43400730357E+02  0.00000000000E+00 0. -1.
         11    1    3    3    0    0 -0.12611114790E+01 -0.19233392615E+01  0.23181133541E+01  0.32654687047E+01  0.51100000000E-03 0. -1.
        -11    1    3    3    0    0 -0.74503596204E+00 -0.18447186388E+02 -0.27048011564E+02  0.32748262458E+02  0.51100000000E-03 0.  1.
         12    1    3    3    0    0 -0.15628985633E+01 -0.41353588164E+01 -0.10912028404E+02  0.11773538480E+02  0.00000000000E+00 0. -1.
</event>
<event>
 7    1  0.2455451E-009  0.4778727E+02  0.7816164E-02  0.1312668E+00
        -11   -1    0    0    0    0  0.00000000000E+00  0.00000000000E+00  0.45593999997E+02  0.45594000000E+02  0.51100000000E-03 0. -1.
         11   -1    0    0    0    0 -0.00000000000E+00 -0.00000000000E+00 -0.45593999997E+02  0.45594000000E+02  0.51100000000E-03 0.  1.
    9900012    2    1    2    0    0 -0.42064934043E+02 -0.15281192742E+00  0.10683686057E+02  0.47787272180E+02  0.20000005178E+02 0.  0.
         12    1    1    2    0    0  0.42064934043E+02  0.15281192742E+00 -0.10683686057E+02  0.43400727820E+02  0.00000000000E+00 0. -1.
         11    1    3    3    0    0 -0.56571936314E+00  0.88715413797E+00  0.77020820102E+00  0.13039562095E+01  0.51100000000E-03 0. -1.
        -11    1    3    3    0    0 -0.15833880339E+02  0.35599202895E+01 -0.42966430358E+01  0.16788267948E+02  0.51100000000E-03 0.  1.
        -12    1    3    3    0    0 -0.25665334341E+02 -0.45998863549E+01  0.14210120892E+02  0.29695048023E+02  0.00000000000E+00 0.  1.
</event>
<event>
 7    1  0.2455451E-009  0.4778727E+02  0.7816164E-02  0.1312668E+00
        -11   -1    0    0    0    0  0.00000000000E+00  0.00000000000E+00  0.45593999997E+02  0.45594000000E+02  0.51100000000E-03 0.  1.
         11   -1    0    0    0    0 -0.00000000000E+00 -0.00000000000E+00 -0.45593999997E+02  0.45594000000E+02  0.51100000000E-03 0. -1.
    9900012    2    1    2    0    0 -0.15650731967E+02 -0.10404332004E+02  0.39120683898E+02  0.47787269082E+02  0.19999991054E+02 0.  0.
         12    1    1    2    0    0  0.15650731967E+02  0.10404332004E+02 -0.39120683898E+02  0.43400730918E+02  0.00000000000E+00 0. -1.
         11    1    3    3    0    0 -0.11463950482E+02 -0.64510232574E+01  0.12566528301E+02  0.18192182264E+02  0.51100000000E-03 0. -1.
        -11    1    3    3    0    0 -0.44015645043E+01  0.28085254709E+01  0.17688618688E+02  0.18443123834E+02  0.51100000000E-03 0.  1.
        -12    1    3    3    0    0  0.21478301897E+00 -0.67618342176E+01  0.88655369088E+01  0.11151962985E+02  0.00000000000E+00 0.  1.
</event>
<event>
 7    1  0.2455451E-009  0.4778727E+02  0.7816164E-02  0.1312668E+00
        -11   -1    0    0    0    0  0.00000000000E+00  0.00000000000E+00  0.45593999997E+02  0.45594000000E+02  0.51100000000E-03 0. -1.
         11   -1    0    0    0    0 -0.00000000000E+00 -0.00000000000E+00 -0.45593999997E+02  0.45594000000E+02  0.51100000000E-03 0.  1.
    9900012    2    1    2    0    0  0.19740343158E+02  0.16750960961E+02 -0.34833138810E+02  0.47787269586E+02  0.19999993352E+02 0.  0.
         12    1    1    2    0    0 -0.19740343158E+02 -0.16750960961E+02  0.34833138810E+02  0.43400730414E+02  0.00000000000E+00 0. -1.
         11    1    3    3    0    0  0.20138186670E+01  0.85950255159E+01 -0.44803436217E+01  0.98996670889E+01  0.51100000000E-03 0. -1.
        -11    1    3    3    0    0  0.19213840479E+02  0.83370287932E+01 -0.26666198453E+02  0.33908167973E+02  0.51100000000E-03 0.  1.
        -12    1    3    3    0    0 -0.14873159887E+01 -0.18109334808E+00 -0.36865967350E+01  0.39794345248E+01  0.00000000000E+00 0.  1.
</event>
<event>
 7    1  0.2455451E-009  0.4778727E+02  0.7816164E-02  0.1312668E+00
        -11   -1    0    0    0    0  0.00000000000E+00  0.00000000000E+00  0.45593999997E+02  0.45594000000E+02  0.51100000000E-03 0.  1.
         11   -1    0    0    0    0 -0.00000000000E+00 -0.00000000000E+00 -0.45593999997E+02  0.45594000000E+02  0.51100000000E-03 0. -1.
    9900012    2    1    2    0    0 -0.25171718068E+01  0.41597206490E+02 -0.12122682377E+02  0.47787272244E+02  0.20000005471E+02 0.  0.
         12    1    1    2    0    0  0.25171718068E+01 -0.41597206490E+02  0.12122682377E+02  0.43400727756E+02  0.00000000000E+00 0. -1.
         11    1    3    3    0    0 -0.56944111821E+01  0.68940982508E+01 -0.63286717775E+01  0.10954770474E+02  0.51100000000E-03 0. -1.
        -11    1    3    3    0    0 -0.18795853047E+01  0.25431168479E+02 -0.18816216519E+01  0.25569858651E+02  0.51100000000E-03 0.  1.
        -12    1    3    3    0    0  0.50568246800E+01  0.92719397601E+01 -0.39123889473E+01  0.11262643119E+02  0.00000000000E+00 0.  1.
</event>
<event>
 7    1  0.2455451E-009  0.4778727E+02  0.7816164E-02  0.1312668E+00
        -11   -1    0    0    0    0  0.00000000000E+00  0.00000000000E+00  0.45593999997E+02  0.45594000000E+02  0.51100000000E-03 0.  1.
         11   -1    0    0    0    0 -0.00000000000E+00 -0.00000000000E+00 -0.45593999997E+02  0.45594000000E+02  0.51100000000E-03 0. -1.
    9900012    2    1    2    0    0 -0.97377407344E+00 -0.21904445825E+02  0.37454910750E+02  0.47787270488E+02  0.19999997463E+02 0.  0.
         12    1    1    2    0    0  0.97377407344E+00  0.21904445825E+02 -0.37454910750E+02  0.43400729512E+02  0.00000000000E+00 0. -1.
         11    1    3    3    0    0 -0.68648794894E+01 -0.14381328824E+02  0.21057517791E+02  0.26407730779E+02  0.51100000000E-03 0. -1.
        -11    1    3    3    0    0  0.36864585748E+01  0.10406059201E+01  0.92415584737E+01  0.10003961255E+02  0.51100000000E-03 0.  1.
        -12    1    3    3    0    0  0.22046468412E+01 -0.85637229212E+01  0.71558344861E+01  0.11375578454E+02  0.00000000000E+00 0.  1.
</event>
<event>
 7    1  0.2455451E-009  0.4778727E+02  0.7816164E-02  0.1312668E+00
        -11   -1    0    0    0    0  0.00000000000E+00  0.00000000000E+00  0.45593999997E+02  0.45594000000E+02  0.51100000000E-03 0.  1.
         11   -1    0    0    0    0 -0.00000000000E+00 -0.00000000000E+00 -0.45593999997E+02  0.45594000000E+02  0.51100000000E-03 0. -1.
    9900012    2    1    2    0    0  0.12924321242E+02  0.16770688670E+02  0.37885742744E+02  0.47787267503E+02  0.19999983854E+02 0.  0.
         12    1    1    2    0    0 -0.12924321242E+02 -0.16770688670E+02 -0.37885742744E+02  0.43400732497E+02  0.00000000000E+00 0. -1.
         11    1    3    3    0    0 -0.45516180972E+01  0.30884237480E+01  0.72474306165E+01  0.90983976255E+01  0.51100000000E-03 0.  1.
        -11    1    3    3    0    0 -0.75473749778E+00  0.45269507370E+00  0.35996764707E+00  0.95086197125E+00  0.51100000000E-03 0. -1.
         12    1    3    3    0    0  0.18230676837E+02  0.13229569848E+02  0.30278344480E+02  0.37738007906E+02  0.00000000000E+00 0. -1.
</event>
<event>
 7    1  0.2640644E-009  0.4778727E+02  0.7816164E-02  0.1312668E+00
        -11   -1    0    0    0    0  0.00000000000E+00  0.00000000000E+00  0.45593999997E+02  0.45594000000E+02  0.51100000000E-03 0. -1.
         11   -1    0    0    0    0 -0.00000000000E+00 -0.00000000000E+00 -0.45593999997E+02  0.45594000000E+02  0.51100000000E-03 0.  1.
    9900012    2    1    2    0    0  0.13751739868E+01  0.45619027060E+01 -0.43138393285E+02  0.47787273797E+02  0.20000012548E+02 0.  0.
         12    1    1    2    0    0 -0.13751739868E+01 -0.45619027060E+01  0.43138393285E+02  0.43400726203E+02  0.00000000000E+00 0. -1.
         11    1    3    3    0    0  0.36649069864E+01 -0.12494932963E+01 -0.95085781600E+00  0.39870926205E+01  0.51100000000E-03 0. -1.
        -11    1    3    3    0    0 -0.32447370589E+01  0.81309663068E+01 -0.26376093865E+02  0.27790992416E+02  0.51100000000E-03 0.  1.
         12    1    3    3    0    0  0.95500405923E+00 -0.23195703044E+01 -0.15811441604E+02  0.16009188760E+02  0.00000000000E+00 0. -1.
</event>
<event>
 7    1  0.2455451E-009  0.4778727E+02  0.7816164E-02  0.1312668E+00
        -11   -1    0    0    0    0  0.00000000000E+00  0.00000000000E+00  0.45593999997E+02  0.45594000000E+02  0.51100000000E-03 0.  1.
         11   -1    0    0    0    0 -0.00000000000E+00 -0.00000000000E+00 -0.45593999997E+02  0.45594000000E+02  0.51100000000E-03 0. -1.
    9900012    2    1    2    0    0 -0.41626944791E+02  0.83822209097E+01  0.89754856089E+01  0.47787268417E+02  0.19999988021E+02 0.  0.
         12    1    1    2    0    0  0.41626944791E+02 -0.83822209097E+01 -0.89754856089E+01  0.43400731583E+02  0.00000000000E+00 0. -1.
         11    1    3    3    0    0 -0.13373079215E+02 -0.13474924746E+00 -0.54544318712E+01  0.14443276371E+02  0.51100000000E-03 0. -1.
        -11    1    3    3    0    0 -0.16932487023E+02  0.79965881001E+01  0.88695541254E+01  0.20720123761E+02  0.51100000000E-03 0.  1.
         12    1    3    3    0    0 -0.11321378553E+02  0.52038205701E+00  0.55603633547E+01  0.12623868285E+02  0.00000000000E+00 0. -1.
</event>
<event>
 7    1  0.2455451E-009  0.4778727E+02  0.7816164E-02  0.1312668E+00
        -11   -1    0    0    0    0  0.00000000000E+00  0.00000000000E+00  0.45593999997E+02  0.45594000000E+02  0.51100000000E-03 0.  1.
         11   -1    0    0    0    0 -0.00000000000E+00 -0.00000000000E+00 -0.45593999997E+02  0.45594000000E+02  0.51100000000E-03 0. -1.
    9900012    2    1    2    0    0 -0.10513593373E+02  0.16449524632E+02  0.38762104142E+02  0.47787271622E+02  0.20000002635E+02 0.  0.
         12    1    1    2    0    0  0.10513593373E+02 -0.16449524632E+02 -0.38762104142E+02  0.43400728378E+02  0.00000000000E+00 0. -1.
         11    1    3    3    0    0 -0.11165962503E+02  0.31708629270E+01  0.18688080542E+02  0.21999487379E+02  0.51100000000E-03 0. -1.
        -11    1    3    3    0    0 -0.65397648286E-01  0.56400575556E+01  0.16278545712E+02  0.17228046228E+02  0.51100000000E-03 0.  1.
         12    1    3    3    0    0  0.71776677847E+00  0.76386041493E+01  0.37954778879E+01  0.85597380156E+01  0.00000000000E+00 0. -1.
</event>
<event>
 7    1  0.2455451E-009  0.4778727E+02  0.7816164E-02  0.1312668E+00
        -11   -1    0    0    0    0  0.00000000000E+00  0.00000000000E+00  0.45593999997E+02  0.45594000000E+02  0.51100000000E-03 0.  1.
         11   -1    0    0    0    0 -0.00000000000E+00 -0.00000000000E+00 -0.45593999997E+02  0.45594000000E+02  0.51100000000E-03 0. -1.
    9900012    2    1    2    0    0  0.31971363258E+02 -0.25101893597E+02  0.15210204454E+02  0.47787269012E+02  0.19999990733E+02 0.  0.
         12    1    1    2    0    0 -0.31971363258E+02  0.25101893597E+02 -0.15210204454E+02  0.43400730988E+02  0.00000000000E+00 0. -1.
         11    1    3    3    0    0  0.24567110221E+01 -0.81325286388E+01  0.60462301518E+01  0.10427384639E+02  0.51100000000E-03 0. -1.
        -11    1    3    3    0    0  0.14876994651E+02 -0.76158545703E+01 -0.18133516877E+01  0.16811140809E+02  0.51100000000E-03 0.  1.
        -12    1    3    3    0    0  0.14637657585E+02 -0.93535103879E+01  0.10977325990E+02  0.20548743564E+02  0.00000000000E+00 0.  1.
</event>
<event>
 7    1  0.2455451E-009  0.4778727E+02  0.7816164E-02  0.1312668E+00
        -11   -1    0    0    0    0  0.00000000000E+00  0.00000000000E+00  0.45593999997E+02  0.45594000000E+02  0.51100000000E-03 0.  1.
         11   -1    0    0    0    0 -0.00000000000E+00 -0.00000000000E+00 -0.45593999997E+02  0.45594000000E+02  0.51100000000E-03 0. -1.
    9900012    2    1    2    0    0  0.20948587416E+02  0.36685020192E+02  0.99493291971E+01  0.47787272210E+02  0.20000005313E+02 0.  0.
         12    1    1    2    0    0 -0.20948587416E+02 -0.36685020192E+02 -0.99493291971E+01  0.43400727790E+02  0.00000000000E+00 0. -1.
         11    1    3    3    0    0  0.17440642147E+01  0.15110833752E+02  0.39160405843E+01  0.15707145851E+02  0.51100000000E-03 0. -1.
        -11    1    3    3    0    0  0.17207660402E+02  0.20775734098E+02  0.14478058985E+01  0.27015381656E+02  0.51100000000E-03 0.  1.
        -12    1    3    3    0    0  0.19968627993E+01  0.79845234223E+00  0.45854827143E+01  0.50647447029E+01  0.00000000000E+00 0.  1.
</event>
<event>
 7    1  0.2455451E-009  0.4778728E+02  0.7816164E-02  0.1312668E+00
        -11   -1    0    0    0    0  0.00000000000E+00  0.00000000000E+00  0.45593999997E+02  0.45594000000E+02  0.51100000000E-03 0.  1.
         11   -1    0    0    0    0 -0.00000000000E+00 -0.00000000000E+00 -0.45593999997E+02  0.45594000000E+02  0.51100000000E-03 0. -1.
    9900012    2    1    2    0    0 -0.54702292935E+01 -0.42364826712E+02 -0.76759607384E+01  0.47787281986E+02  0.20000049886E+02 0.  0.
         12    1    1    2    0    0  0.54702292935E+01  0.42364826712E+02  0.76759607384E+01  0.43400718014E+02  0.00000000000E+00 0. -1.
         11    1    3    3    0    0  0.39238857642E+01 -0.10796002986E+02  0.20224233780E+01  0.11663651082E+02  0.51100000000E-03 0. -1.
        -11    1    3    3    0    0 -0.86721031152E+01 -0.13063612743E+02 -0.77834964757E+01  0.17505603902E+02  0.51100000000E-03 0.  1.
        -12    1    3    3    0    0 -0.72201194249E+00 -0.18505210983E+02 -0.19148876407E+01  0.18618027002E+02  0.00000000000E+00 0.  1.
</event>
<event>
 7    1  0.2455451E-009  0.4778728E+02  0.7816164E-02  0.1312668E+00
        -11   -1    0    0    0    0  0.00000000000E+00  0.00000000000E+00  0.45593999997E+02  0.45594000000E+02  0.51100000000E-03 0.  1.
         11   -1    0    0    0    0 -0.00000000000E+00 -0.00000000000E+00 -0.45593999997E+02  0.45594000000E+02  0.51100000000E-03 0. -1.
    9900012    2    1    2    0    0  0.54419021293E+01  0.13173965194E+02  0.40993348319E+02  0.47787282678E+02  0.20000053041E+02 0.  0.
         12    1    1    2    0    0 -0.54419021293E+01 -0.13173965194E+02 -0.40993348319E+02  0.43400717322E+02  0.00000000000E+00 0. -1.
         11    1    3    3    0    0  0.14031254594E+01  0.33382954557E+01  0.23813486765E+01  0.43340280785E+01  0.51100000000E-03 0. -1.
        -11    1    3    3    0    0  0.41337637412E+01  0.11699827428E+02  0.13749839485E+02  0.18521124443E+02  0.51100000000E-03 0.  1.
        -12    1    3    3    0    0 -0.94987071215E-01 -0.18641576899E+01  0.24862160157E+02  0.24932130156E+02  0.00000000000E+00 0.  1.
</event>
<event>
 7    1  0.2455451E-009  0.4778728E+02  0.7816164E-02  0.1312668E+00
        -11   -1    0    0    0    0  0.00000000000E+00  0.00000000000E+00  0.45593999997E+02  0.45594000000E+02  0.51100000000E-03 0.  1.
         11   -1    0    0    0    0 -0.00000000000E+00 -0.00000000000E+00 -0.45593999997E+02  0.45594000000E+02  0.51100000000E-03 0. -1.
    9900012    2    1    2    0    0 -0.21649768849E+02 -0.16240639560E+02  0.33928621978E+02  0.47787282796E+02  0.20000053579E+02 0.  0.
         12    1    1    2    0    0  0.21649768849E+02  0.16240639560E+02 -0.33928621978E+02  0.43400717204E+02  0.00000000000E+00 0. -1.
         11    1    3    3    0    0  0.10890286358E+00  0.26848555631E+01  0.32328764695E+00  0.27064412782E+01  0.51100000000E-03 0. -1.
        -11    1    3    3    0    0 -0.15944093046E+02 -0.15127737879E+02  0.19602226985E+02  0.29450124948E+02  0.51100000000E-03 0.  1.
         12    1    3    3    0    0 -0.58145786673E+01 -0.37977572442E+01  0.14003107345E+02  0.15630716570E+02  0.00000000000E+00 0. -1.
</event>
<event>
 7    1  0.2455451E-009  0.4778724E+02  0.7816164E-02  0.1312668E+00
        -11   -1    0    0    0    0  0.00000000000E+00  0.00000000000E+00  0.45593999997E+02  0.45594000000E+02  0.51100000000E-03 0.  1.
         11   -1    0    0    0    0 -0.00000000000E+00 -0.00000000000E+00 -0.45593999997E+02  0.45594000000E+02  0.51100000000E-03 0. -1.
    9900012    2    1    2    0    0 -0.33266495374E+02  0.22303355180E+02  0.16719061537E+02  0.47787235197E+02  0.19999836557E+02 0.  0.
         12    1    1    2    0    0  0.33266495374E+02 -0.22303355180E+02 -0.16719061537E+02  0.43400764803E+02  0.00000000000E+00 0. -1.
         11    1    3    3    0    0 -0.75041353593E+01 -0.58903044843E+00 -0.60534334675E+00  0.75515193961E+01  0.51100000000E-03 0. -1.
        -11    1    3    3    0    0 -0.85267969274E+01  0.15100776822E+02  0.94252513421E+01  0.19737656639E+02  0.51100000000E-03 0.  1.
        -12    1    3    3    0    0 -0.17235563087E+02  0.77916088068E+01  0.78991535420E+01  0.20498059162E+02  0.00000000000E+00 0.  1.
</event>
<event>
 7    1  0.2455451E-009  0.4778727E+02  0.7816164E-02  0.1312668E+00
        -11   -1    0    0    0    0  0.00000000000E+00  0.00000000000E+00  0.45593999997E+02  0.45594000000E+02  0.51100000000E-03 0.  1.
         11   -1    0    0    0    0 -0.00000000000E+00 -0.00000000000E+00 -0.45593999997E+02  0.45594000000E+02  0.51100000000E-03 0. -1.
    9900012    2    1    2    0    0  0.36491274991E+02 -0.16050559469E+02  0.17157782541E+02  0.47787272915E+02  0.20000008531E+02 0.  0.
         12    1    1    2    0    0 -0.36491274991E+02  0.16050559469E+02 -0.17157782541E+02  0.43400727085E+02  0.00000000000E+00 0. -1.
         11    1    3    3    0    0  0.18404268311E+01  0.91384612250E+00  0.54774075718E+00  0.21265713847E+01  0.51100000000E-03 0. -1.
        -11    1    3    3    0    0  0.18158543359E+02 -0.12271519352E+02  0.18624325793E+00  0.21917061184E+02  0.51100000000E-03 0.  1.
        -12    1    3    3    0    0  0.16492304801E+02 -0.46928862400E+01  0.16423798526E+02  0.23743640347E+02  0.00000000000E+00 0.  1.
</event>
<event>
 7    1  0.2455451E-009  0.4778727E+02  0.7816164E-02  0.1312668E+00
        -11   -1    0    0    0    0  0.00000000000E+00  0.00000000000E+00  0.45593999997E+02  0.45594000000E+02  0.51100000000E-03 0. -1.
         11   -1    0    0    0    0 -0.00000000000E+00 -0.00000000000E+00 -0.45593999997E+02  0.45594000000E+02  0.51100000000E-03 0.  1.
    9900012    2    1    2    0    0  0.30834621990E+02 -0.26707857432E+02 -0.14816875687E+02  0.47787269972E+02  0.19999995109E+02 0.  0.
         12    1    1    2    0    0 -0.30834621990E+02  0.26707857432E+02  0.14816875687E+02  0.43400730028E+02  0.00000000000E+00 0. -1.
         11    1    3    3    0    0  0.35866172358E+01 -0.47475284016E+01  0.41046695426E+01  0.72284964851E+01  0.51100000000E-03 0. -1.
        -11    1    3    3    0    0  0.83824335485E+01 -0.10826943328E+02 -0.97566455252E+01  0.16813090917E+02  0.51100000000E-03 0.  1.
         12    1    3    3    0    0  0.18865571205E+02 -0.11133385703E+02 -0.91648997048E+01  0.23745682570E+02  0.00000000000E+00 0. -1.
</event>
<event>
 7    1  0.2455451E-009  0.4778727E+02  0.7816164E-02  0.1312668E+00
        -11   -1    0    0    0    0  0.00000000000E+00  0.00000000000E+00  0.45593999997E+02  0.45594000000E+02  0.51100000000E-03 0. -1.
         11   -1    0    0    0    0 -0.00000000000E+00 -0.00000000000E+00 -0.45593999997E+02  0.45594000000E+02  0.51100000000E-03 0.  1.
    9900012    2    1    2    0    0 -0.35981682626E+02  0.14039054288E+02  0.19795122257E+02  0.47787269648E+02  0.19999993635E+02 0.  0.
         12    1    1    2    0    0  0.35981682626E+02 -0.14039054288E+02 -0.19795122257E+02  0.43400730352E+02  0.00000000000E+00 0. -1.
         11    1    3    3    0    0 -0.21586419924E+01  0.42774295465E+01  0.76696258469E+01  0.90431907903E+01  0.51100000000E-03 0. -1.
        -11    1    3    3    0    0 -0.15042171562E+02  0.52857227141E+01 -0.28376488273E-02  0.15943832607E+02  0.51100000000E-03 0.  1.
         12    1    3    3    0    0 -0.18780869072E+02  0.44759020275E+01  0.12128334059E+02  0.22800246251E+02  0.00000000000E+00 0. -1.
</event>
<event>
 7    1  0.2455451E-009  0.4778727E+02  0.7816164E-02  0.1312668E+00
        -11   -1    0    0    0    0  0.00000000000E+00  0.00000000000E+00  0.45593999997E+02  0.45594000000E+02  0.51100000000E-03 0.  1.
         11   -1    0    0    0    0 -0.00000000000E+00 -0.00000000000E+00 -0.45593999997E+02  0.45594000000E+02  0.51100000000E-03 0. -1.
    9900012    2    1    2    0    0  0.11130658078E+02 -0.30448547939E+02  0.28855112006E+02  0.47787272936E+02  0.20000008622E+02 0.  0.
         12    1    1    2    0    0 -0.11130658078E+02  0.30448547939E+02 -0.28855112006E+02  0.43400727064E+02  0.00000000000E+00 0. -1.
         11    1    3    3    0    0  0.78621362658E-01  0.60987061255E+00 -0.21769199794E-01  0.61530288631E+00  0.51100000000E-03 0. -1.
        -11    1    3    3    0    0  0.42117317834E+01 -0.14355984265E+01 -0.98460047295E+00  0.45573090536E+01  0.51100000000E-03 0.  1.
        -12    1    3    3    0    0  0.68403049319E+01 -0.29622820125E+02  0.29861481679E+02  0.42614660996E+02  0.00000000000E+00 0.  1.
</event>
<event>
 7    1  0.2455451E-009  0.4778727E+02  0.7816164E-02  0.1312668E+00
        -11   -1    0    0    0    0  0.00000000000E+00  0.00000000000E+00  0.45593999997E+02  0.45594000000E+02  0.51100000000E-03 0.  1.
         11   -1    0    0    0    0 -0.00000000000E+00 -0.00000000000E+00 -0.45593999997E+02  0.45594000000E+02  0.51100000000E-03 0. -1.
    9900012    2    1    2    0    0 -0.14932029320E+02 -0.35016984139E+02  0.20843904759E+02  0.47787273700E+02  0.20000012106E+02 0.  0.
         12    1    1    2    0    0  0.14932029320E+02  0.35016984139E+02 -0.20843904759E+02  0.43400726300E+02  0.00000000000E+00 0. -1.
         11    1    3    3    0    0  0.35385999809E+01 -0.74859779658E+01  0.25472499596E+01  0.86631425330E+01  0.51100000000E-03 0. -1.
        -11    1    3    3    0    0 -0.14355093235E+02 -0.13563732289E+02  0.12929802763E+02  0.23605578475E+02  0.51100000000E-03 0.  1.
        -12    1    3    3    0    0 -0.41155360662E+01 -0.13967273884E+02  0.53668520372E+01  0.15518552692E+02  0.00000000000E+00 0.  1.
</event>
<event>
 7    1  0.2699867E-009  0.4778727E+02  0.7816164E-02  0.1312668E+00
        -11   -1    0    0    0    0  0.00000000000E+00  0.00000000000E+00  0.45593999997E+02  0.45594000000E+02  0.51100000000E-03 0.  1.
         11   -1    0    0    0    0 -0.00000000000E+00 -0.00000000000E+00 -0.45593999997E+02  0.45594000000E+02  0.51100000000E-03 0. -1.
    9900012    2    1    2    0    0  0.32307548259E+02  0.24937432235E+02  0.14763799757E+02  0.47787274380E+02  0.20000015210E+02 0.  0.
         12    1    1    2    0    0 -0.32307548259E+02 -0.24937432235E+02 -0.14763799757E+02  0.43400725620E+02  0.00000000000E+00 0. -1.
         11    1    3    3    0    0  0.15061735039E+01  0.13749491359E+00 -0.32349939523E+01  0.35710852142E+01  0.51100000000E-03 0. -1.
        -11    1    3    3    0    0  0.18043546551E+02  0.10292211847E+02  0.66545337385E+01  0.21812428026E+02  0.51100000000E-03 0.  1.
         12    1    3    3    0    0  0.12757828205E+02  0.14507725474E+02  0.11344259971E+02  0.22403761141E+02  0.00000000000E+00 0. -1.
</event>
<event>
 7    1  0.2455451E-009  0.4778728E+02  0.7816164E-02  0.1312668E+00
        -11   -1    0    0    0    0  0.00000000000E+00  0.00000000000E+00  0.45593999997E+02  0.45594000000E+02  0.51100000000E-03 0. -1.
         11   -1    0    0    0    0 -0.00000000000E+00 -0.00000000000E+00 -0.45593999997E+02  0.45594000000E+02  0.51100000000E-03 0.  1.
    9900012    2    1    2    0    0 -0.26940585333E+02 -0.10380855091E+02 -0.32404706091E+02  0.47787282640E+02  0.20000052870E+02 0.  0.
         12    1    1    2    0    0  0.26940585333E+02  0.10380855091E+02  0.32404706091E+02  0.43400717360E+02  0.00000000000E+00 0. -1.
         11    1    3    3    0    0 -0.12038374058E+02 -0.79170587965E+01 -0.66651948350E+01  0.15875361173E+02  0.51100000000E-03 0. -1.
        -11    1    3    3    0    0 -0.85522821803E+01 -0.39533827907E+01 -0.22967635750E+02  0.24825049007E+02  0.51100000000E-03 0.  1.
        -12    1    3    3    0    0 -0.63499290954E+01  0.14895864964E+01 -0.27718755060E+01  0.70868724602E+01  0.00000000000E+00 0.  1.
</event>
<event>
 7    1  0.2455451E-009  0.4778728E+02  0.7816164E-02  0.1312668E+00
        -11   -1    0    0    0    0  0.00000000000E+00  0.00000000000E+00  0.45593999997E+02  0.45594000000E+02  0.51100000000E-03 0. -1.
         11   -1    0    0    0    0 -0.00000000000E+00 -0.00000000000E+00 -0.45593999997E+02  0.45594000000E+02  0.51100000000E-03 0.  1.
    9900012    2    1    2    0    0 -0.28620764946E+02  0.17971411229E+02 -0.27230551198E+02  0.47787277354E+02  0.20000028767E+02 0.  0.
         12    1    1    2    0    0  0.28620764946E+02 -0.17971411229E+02  0.27230551198E+02  0.43400722646E+02  0.00000000000E+00 0. -1.
         11    1    3    3    0    0 -0.11817507017E+02  0.69541635979E+01 -0.19006714901E+02  0.23436490246E+02  0.51100000000E-03 0.  1.
        -11    1    3    3    0    0 -0.16373128592E+02  0.12649121917E+02 -0.59681265707E+01  0.21533651808E+02  0.51100000000E-03 0. -1.
        -12    1    3    3    0    0 -0.43012933648E+00 -0.16318742856E+01 -0.22557097265E+01  0.28171353003E+01  0.00000000000E+00 0.  1.
</event>
<event>
 7    1  0.2455451E-009  0.4778730E+02  0.7816164E-02  0.1312668E+00
        -11   -1    0    0    0    0  0.00000000000E+00  0.00000000000E+00  0.45593999997E+02  0.45594000000E+02  0.51100000000E-03 0. -1.
         11   -1    0    0    0    0 -0.00000000000E+00 -0.00000000000E+00 -0.45593999997E+02  0.45594000000E+02  0.51100000000E-03 0.  1.
    9900012    2    1    2    0    0 -0.34931842312E+02  0.86226786057E+01 -0.24270080604E+02  0.47787297169E+02  0.20000119112E+02 0.  0.
         12    1    1    2    0    0  0.34931842312E+02 -0.86226786057E+01  0.24270080604E+02  0.43400702831E+02  0.00000000000E+00 0. -1.
         11    1    3    3    0    0 -0.23250164592E+01  0.61116407092E+01 -0.10711408010E+01  0.66260996499E+01  0.51100000000E-03 0. -1.
        -11    1    3    3    0    0 -0.18410909073E+02  0.25792996284E+01 -0.18449829244E+02  0.26191803277E+02  0.51100000000E-03 0.  1.
        -12    1    3    3    0    0 -0.14195916780E+02 -0.68261731850E-01 -0.47491105591E+01  0.14969394243E+02  0.00000000000E+00 0.  1.
</event>
<event>
 7    1  0.2455451E-009  0.4778726E+02  0.7816164E-02  0.1312668E+00
        -11   -1    0    0    0    0  0.00000000000E+00  0.00000000000E+00  0.45593999997E+02  0.45594000000E+02  0.51100000000E-03 0. -1.
         11   -1    0    0    0    0 -0.00000000000E+00 -0.00000000000E+00 -0.45593999997E+02  0.45594000000E+02  0.51100000000E-03 0.  1.
    9900012    2    1    2    0    0  0.70461614672E+01 -0.42669605711E+02 -0.36442360613E+01  0.47787261533E+02  0.19999956635E+02 0.  0.
         12    1    1    2    0    0 -0.70461614672E+01  0.42669605711E+02  0.36442360613E+01  0.43400738467E+02  0.00000000000E+00 0. -1.
         11    1    3    3    0    0 -0.84925673313E+00 -0.43500510627E+01 -0.33181551388E+01  0.55366357143E+01  0.51100000000E-03 0. -1.
        -11    1    3    3    0    0  0.84177163901E+01 -0.71392192680E+01  0.58033841055E+00  0.11052745990E+02  0.51100000000E-03 0.  1.
        -12    1    3    3    0    0 -0.52229818980E+00 -0.31180335381E+02 -0.90641933300E+00  0.31197879829E+02  0.00000000000E+00 0.  1.
</event>
<event>
 7    1  0.2455451E-009  0.4778727E+02  0.7816164E-02  0.1312668E+00
        -11   -1    0    0    0    0  0.00000000000E+00  0.00000000000E+00  0.45593999997E+02  0.45594000000E+02  0.51100000000E-03 0. -1.
         11   -1    0    0    0    0 -0.00000000000E+00 -0.00000000000E+00 -0.45593999997E+02  0.45594000000E+02  0.51100000000E-03 0.  1.
    9900012    2    1    2    0    0  0.35991145035E+02 -0.23861517027E+02 -0.43461607376E+01  0.47787266954E+02  0.19999981348E+02 0.  0.
         12    1    1    2    0    0 -0.35991145035E+02  0.23861517027E+02  0.43461607376E+01  0.43400733046E+02  0.00000000000E+00 0. -1.
         11    1    3    3    0    0  0.19202751067E+01 -0.19374240114E+00  0.28012376009E+01  0.34017532188E+01  0.51100000000E-03 0. -1.
        -11    1    3    3    0    0  0.31518825332E+02 -0.20390451528E+02 -0.10574626615E+02  0.39000379384E+02  0.51100000000E-03 0.  1.
        -12    1    3    3    0    0  0.25520445969E+01 -0.32773230985E+01  0.34272282762E+01  0.53851343506E+01  0.00000000000E+00 0.  1.
</event>
<event>
 7    1  0.2455451E-009  0.4778727E+02  0.7816164E-02  0.1312668E+00
        -11   -1    0    0    0    0  0.00000000000E+00  0.00000000000E+00  0.45593999997E+02  0.45594000000E+02  0.51100000000E-03 0.  1.
         11   -1    0    0    0    0 -0.00000000000E+00 -0.00000000000E+00 -0.45593999997E+02  0.45594000000E+02  0.51100000000E-03 0. -1.
    9900012    2    1    2    0    0  0.29699307186E+02 -0.20590507114E+02  0.24033425380E+02  0.47787269983E+02  0.19999995160E+02 0.  0.
         12    1    1    2    0    0 -0.29699307186E+02  0.20590507114E+02 -0.24033425380E+02  0.43400730017E+02  0.00000000000E+00 0. -1.
         11    1    3    3    0    0  0.11355297506E+02 -0.59059311629E+01  0.46710135604E+01  0.13625020085E+02  0.51100000000E-03 0. -1.
        -11    1    3    3    0    0  0.12458560828E+02 -0.24913920507E+01  0.15581662486E+02  0.20104998840E+02  0.51100000000E-03 0.  1.
        -12    1    3    3    0    0  0.58854488522E+01 -0.12193183900E+02  0.37807493333E+01  0.14057251059E+02  0.00000000000E+00 0.  1.
</event>
<event>
 7    1  0.2455451E-009  0.4778728E+02  0.7816164E-02  0.1312668E+00
        -11   -1    0    0    0    0  0.00000000000E+00  0.00000000000E+00  0.45593999997E+02  0.45594000000E+02  0.51100000000E-03 0. -1.
         11   -1    0    0    0    0 -0.00000000000E+00 -0.00000000000E+00 -0.45593999997E+02  0.45594000000E+02  0.51100000000E-03 0.  1.
    9900012    2    1    2    0    0 -0.12807374080E+02 -0.29033356478E+02 -0.29608410188E+02  0.47787279118E+02  0.20000036813E+02 0.  0.
         12    1    1    2    0    0  0.12807374080E+02  0.29033356478E+02  0.29608410188E+02  0.43400720882E+02  0.00000000000E+00 0. -1.
         11    1    3    3    0    0 -0.90607296382E+00 -0.38979100982E+01  0.17500441951E+01  0.43677598715E+01  0.51100000000E-03 0. -1.
        -11    1    3    3    0    0 -0.80183798351E+01 -0.88732355067E+01 -0.19667263303E+02  0.23018035747E+02  0.51100000000E-03 0.  1.
        -12    1    3    3    0    0 -0.38829212812E+01 -0.16262210873E+02 -0.11691191079E+02  0.20401483500E+02  0.00000000000E+00 0.  1.
</event>
<event>
 7    1  0.2455451E-009  0.4778728E+02  0.7816164E-02  0.1312668E+00
        -11   -1    0    0    0    0  0.00000000000E+00  0.00000000000E+00  0.45593999997E+02  0.45594000000E+02  0.51100000000E-03 0.  1.
         11   -1    0    0    0    0 -0.00000000000E+00 -0.00000000000E+00 -0.45593999997E+02  0.45594000000E+02  0.51100000000E-03 0. -1.
    9900012    2    1    2    0    0 -0.31649784178E+01 -0.69783465626E+01  0.42718942539E+02  0.47787280411E+02  0.20000042707E+02 0.  0.
         12    1    1    2    0    0  0.31649784178E+01  0.69783465626E+01 -0.42718942539E+02  0.43400719589E+02  0.00000000000E+00 0. -1.
         11    1    3    3    0    0  0.32922703452E+01  0.37578179464E+01  0.84110739313E+01  0.97829650252E+01  0.51100000000E-03 0. -1.
        -11    1    3    3    0    0 -0.40712387253E+01 -0.10180111816E+02  0.15209021099E+02  0.18748972889E+02  0.51100000000E-03 0.  1.
        -12    1    3    3    0    0 -0.23860100377E+01 -0.55605269257E+00  0.19098847509E+02  0.19255342497E+02  0.00000000000E+00 0.  1.
</event>
<event>
 7    1  0.2455451E-009  0.4778727E+02  0.7816164E-02  0.1312668E+00
        -11   -1    0    0    0    0  0.00000000000E+00  0.00000000000E+00  0.45593999997E+02  0.45594000000E+02  0.51100000000E-03 0.  1.
         11   -1    0    0    0    0 -0.00000000000E+00 -0.00000000000E+00 -0.45593999997E+02  0.45594000000E+02  0.51100000000E-03 0. -1.
    9900012    2    1    2    0    0 -0.28949467937E+02 -0.13425305042E+02  0.29416200090E+02  0.47787270317E+02  0.19999996682E+02 0.  0.
         12    1    1    2    0    0  0.28949467937E+02  0.13425305042E+02 -0.29416200090E+02  0.43400729683E+02  0.00000000000E+00 0. -1.
         11    1    3    3    0    0  0.97977089686E+00 -0.49753121067E+01  0.11677085500E+01  0.52035781043E+01  0.51100000000E-03 0. -1.
        -11    1    3    3    0    0 -0.99402570473E+01 -0.60803666669E+01  0.11864865791E+02  0.16629931133E+02  0.51100000000E-03 0.  1.
         12    1    3    3    0    0 -0.19988981787E+02 -0.23696262683E+01  0.16383625749E+02  0.25953761080E+02  0.00000000000E+00 0. -1.
</event>
<event>
 7    1  0.2455451E-009  0.4778727E+02  0.7816164E-02  0.1312668E+00
        -11   -1    0    0    0    0  0.00000000000E+00  0.00000000000E+00  0.45593999997E+02  0.45594000000E+02  0.51100000000E-03 0.  1.
         11   -1    0    0    0    0 -0.00000000000E+00 -0.00000000000E+00 -0.45593999997E+02  0.45594000000E+02  0.51100000000E-03 0. -1.
    9900012    2    1    2    0    0 -0.31493894999E+02  0.14455471635E+02  0.26130390816E+02  0.47787269516E+02  0.19999993030E+02 0.  0.
         12    1    1    2    0    0  0.31493894999E+02 -0.14455471635E+02 -0.26130390816E+02  0.43400730484E+02  0.00000000000E+00 0. -1.
         11    1    3    3    0    0 -0.25755180526E+01  0.16650756166E+01 -0.28487475404E+01  0.41858252302E+01  0.51100000000E-03 0. -1.
        -11    1    3    3    0    0 -0.26261043899E+02  0.86585270920E+01  0.24153232024E+02  0.36714998782E+02  0.51100000000E-03 0.  1.
        -12    1    3    3    0    0 -0.26573330471E+01  0.41318689262E+01  0.48259063324E+01  0.68864455037E+01  0.00000000000E+00 0.  1.
</event>
<event>
 7    1  0.2455451E-009  0.4778727E+02  0.7816164E-02  0.1312668E+00
        -11   -1    0    0    0    0  0.00000000000E+00  0.00000000000E+00  0.45593999997E+02  0.45594000000E+02  0.51100000000E-03 0.  1.
         11   -1    0    0    0    0 -0.00000000000E+00 -0.00000000000E+00 -0.45593999997E+02  0.45594000000E+02  0.51100000000E-03 0. -1.
    9900012    2    1    2    0    0 -0.98085001977E+01 -0.39204658919E+02  0.15824395199E+02  0.47787269125E+02  0.19999991246E+02 0.  0.
         12    1    1    2    0    0  0.98085001977E+01  0.39204658919E+02 -0.15824395199E+02  0.43400730875E+02  0.00000000000E+00 0. -1.
         11    1    3    3    0    0 -0.92438320723E+01 -0.32931381940E+02  0.12343532082E+02  0.36363266250E+02  0.51100000000E-03 0. -1.
        -11    1    3    3    0    0  0.20234102752E+01  0.21776687838E+00  0.39257378775E+01  0.44218807875E+01  0.51100000000E-03 0.  1.
         12    1    3    3    0    0 -0.25880784005E+01 -0.64910438581E+01 -0.44487475996E+00  0.70021220874E+01  0.00000000000E+00 0. -1.
</event>
<event>
 7    1  0.2455451E-009  0.4778727E+02  0.7816164E-02  0.1312668E+00
        -11   -1    0    0    0    0  0.00000000000E+00  0.00000000000E+00  0.45593999997E+02  0.45594000000E+02  0.51100000000E-03 0.  1.
         11   -1    0    0    0    0 -0.00000000000E+00 -0.00000000000E+00 -0.45593999997E+02  0.45594000000E+02  0.51100000000E-03 0. -1.
    9900012    2    1    2    0    0 -0.41925108210E+02 -0.23711562888E+01  0.10967501918E+02  0.47787272139E+02  0.20000004989E+02 0.  0.
         12    1    1    2    0    0  0.41925108210E+02  0.23711562888E+01 -0.10967501918E+02  0.43400727861E+02  0.00000000000E+00 0. -1.
         11    1    3    3    0    0  0.78285333839E-01  0.32626290666E+01 -0.80574819129E+00  0.33615632418E+01  0.51100000000E-03 0. -1.
        -11    1    3    3    0    0 -0.19604369135E+02 -0.24564013803E+01  0.87235582471E+01  0.21597816225E+02  0.51100000000E-03 0.  1.
        -12    1    3    3    0    0 -0.22399024408E+02 -0.31773839751E+01  0.30496918626E+01  0.22827892672E+02  0.00000000000E+00 0.  1.
</event>
<event>
 7    1  0.2455451E-009  0.4778727E+02  0.7816164E-02  0.1312668E+00
        -11   -1    0    0    0    0  0.00000000000E+00  0.00000000000E+00  0.45593999997E+02  0.45594000000E+02  0.51100000000E-03 0. -1.
         11   -1    0    0    0    0 -0.00000000000E+00 -0.00000000000E+00 -0.45593999997E+02  0.45594000000E+02  0.51100000000E-03 0.  1.
    9900012    2    1    2    0    0  0.37183894595E+02 -0.21035124111E+02  0.76488500009E+01  0.47787269937E+02  0.19999994953E+02 0.  0.
         12    1    1    2    0    0 -0.37183894595E+02  0.21035124111E+02 -0.76488500009E+01  0.43400730063E+02  0.00000000000E+00 0. -1.
         11    1    3    3    0    0  0.31014389967E+02 -0.18397693476E+02  0.76414080055E+01  0.36861343259E+02  0.51100000000E-03 0. -1.
        -11    1    3    3    0    0  0.83790457840E+01 -0.19451892406E+01  0.18323259809E+00  0.86038214694E+01  0.51100000000E-03 0.  1.
         12    1    3    3    0    0 -0.22095411558E+01 -0.69224139404E+00 -0.17579060266E+00  0.23221052092E+01  0.00000000000E+00 0. -1.
</event>
<event>
 7    1  0.2455451E-009  0.4778727E+02  0.7816164E-02  0.1312668E+00
        -11   -1    0    0    0    0  0.00000000000E+00  0.00000000000E+00  0.45593999997E+02  0.45594000000E+02  0.51100000000E-03 0.  1.
         11   -1    0    0    0    0 -0.00000000000E+00 -0.00000000000E+00 -0.45593999997E+02  0.45594000000E+02  0.51100000000E-03 0. -1.
    9900012    2    1    2    0    0 -0.22612655881E+02 -0.90623699723E+01  0.35918861504E+02  0.47787269968E+02  0.19999995093E+02 0.  0.
         12    1    1    2    0    0  0.22612655881E+02  0.90623699723E+01 -0.35918861504E+02  0.43400730032E+02  0.00000000000E+00 0. -1.
         11    1    3    3    0    0 -0.18504393787E+02 -0.10729672620E+02  0.27504559345E+02  0.34843066010E+02  0.51100000000E-03 0.  1.
        -11    1    3    3    0    0  0.27093865240E+01  0.13093654391E+01  0.25595305316E+01  0.39504949049E+01  0.51100000000E-03 0. -1.
         12    1    3    3    0    0 -0.68176486179E+01  0.35793720816E+00  0.58547716276E+01  0.89937090532E+01  0.00000000000E+00 0. -1.
</event>
<event>
 7    1  0.2455451E-009  0.4778724E+02  0.7816164E-02  0.1312668E+00
        -11   -1    0    0    0    0  0.00000000000E+00  0.00000000000E+00  0.45593999997E+02  0.45594000000E+02  0.51100000000E-03 0.  1.
         11   -1    0    0    0    0 -0.00000000000E+00 -0.00000000000E+00 -0.45593999997E+02  0.45594000000E+02  0.51100000000E-03 0. -1.
    9900012    2    1    2    0    0 -0.12135171354E+02  0.41244929169E+02  0.59345736488E+01  0.47787242744E+02  0.19999870969E+02 0.  0.
         12    1    1    2    0    0  0.12135171354E+02 -0.41244929169E+02 -0.59345736488E+01  0.43400757256E+02  0.00000000000E+00 0. -1.
         11    1    3    3    0    0 -0.16147959314E+01  0.15541727732E+02 -0.20101727851E+01  0.15754163313E+02  0.51100000000E-03 0. -1.
        -11    1    3    3    0    0 -0.57645091173E+01  0.15954209394E+02  0.11640646355E+02  0.20573551239E+02  0.51100000000E-03 0.  1.
        -12    1    3    3    0    0 -0.47558663048E+01  0.97489920425E+01 -0.36958999216E+01  0.11459528192E+02  0.00000000000E+00 0.  1.
</event>
<event>
 7    1  0.2455451E-009  0.4778727E+02  0.7816164E-02  0.1312668E+00
        -11   -1    0    0    0    0  0.00000000000E+00  0.00000000000E+00  0.45593999997E+02  0.45594000000E+02  0.51100000000E-03 0.  1.
         11   -1    0    0    0    0 -0.00000000000E+00 -0.00000000000E+00 -0.45593999997E+02  0.45594000000E+02  0.51100000000E-03 0. -1.
    9900012    2    1    2    0    0 -0.12812364991E+02 -0.39095400767E+02  0.13820860435E+02  0.47787271424E+02  0.20000001728E+02 0.  0.
         12    1    1    2    0    0  0.12812364991E+02  0.39095400767E+02 -0.13820860435E+02  0.43400728576E+02  0.00000000000E+00 0. -1.
         11    1    3    3    0    0  0.30979689853E+01 -0.28119191934E+01 -0.15594084841E+01  0.44649811271E+01  0.51100000000E-03 0. -1.
        -11    1    3    3    0    0 -0.11773247702E+02 -0.23744078387E+02  0.14195555571E+02  0.30065003212E+02  0.51100000000E-03 0.  1.
         12    1    3    3    0    0 -0.41370862748E+01 -0.12539403186E+02  0.11847133476E+01  0.13257287084E+02  0.00000000000E+00 0. -1.
</event>
<event>
 7    1  0.2455451E-009  0.4778727E+02  0.7816164E-02  0.1312668E+00
        -11   -1    0    0    0    0  0.00000000000E+00  0.00000000000E+00  0.45593999997E+02  0.45594000000E+02  0.51100000000E-03 0.  1.
         11   -1    0    0    0    0 -0.00000000000E+00 -0.00000000000E+00 -0.45593999997E+02  0.45594000000E+02  0.51100000000E-03 0. -1.
    9900012    2    1    2    0    0  0.15810202638E+02  0.40232139226E+02  0.38776057819E+01  0.47787270044E+02  0.19999995437E+02 0.  0.
         12    1    1    2    0    0 -0.15810202638E+02 -0.40232139226E+02 -0.38776057819E+01  0.43400729956E+02  0.00000000000E+00 0. -1.
         11    1    3    3    0    0 -0.15826683385E+01  0.18212692748E+02  0.15235371809E+01  0.18344704467E+02  0.51100000000E-03 0. -1.
        -11    1    3    3    0    0  0.16501065754E+02  0.22287318682E+02  0.35165755285E+01  0.27953104457E+02  0.51100000000E-03 0.  1.
         12    1    3    3    0    0  0.89180522184E+00 -0.26787220340E+00 -0.11625069275E+01  0.14894611199E+01  0.00000000000E+00 0. -1.
</event>
<event>
 7    1  0.2455451E-009  0.4778727E+02  0.7816164E-02  0.1312668E+00
        -11   -1    0    0    0    0  0.00000000000E+00  0.00000000000E+00  0.45593999997E+02  0.45594000000E+02  0.51100000000E-03 0.  1.
         11   -1    0    0    0    0 -0.00000000000E+00 -0.00000000000E+00 -0.45593999997E+02  0.45594000000E+02  0.51100000000E-03 0. -1.
    9900012    2    1    2    0    0  0.13528112488E+02  0.20420975814E+01  0.41187901154E+02  0.47787271993E+02  0.20000004327E+02 0.  0.
         12    1    1    2    0    0 -0.13528112488E+02 -0.20420975814E+01 -0.41187901154E+02  0.43400728007E+02  0.00000000000E+00 0. -1.
         11    1    3    3    0    0  0.64057623998E+01 -0.55835152705E+01  0.11811253433E+02  0.14550434448E+02  0.51100000000E-03 0. -1.
        -11    1    3    3    0    0  0.65398939664E+01  0.10514749265E+02  0.25676426538E+02  0.28506298343E+02  0.51100000000E-03 0.  1.
        -12    1    3    3    0    0  0.58245612131E+00 -0.28891364127E+01  0.37002211825E+01  0.47305392022E+01  0.00000000000E+00 0.  1.
</event>
<event>
 7    1  0.2455451E-009  0.4778727E+02  0.7816164E-02  0.1312668E+00
        -11   -1    0    0    0    0  0.00000000000E+00  0.00000000000E+00  0.45593999997E+02  0.45594000000E+02  0.51100000000E-03 0. -1.
         11   -1    0    0    0    0 -0.00000000000E+00 -0.00000000000E+00 -0.45593999997E+02  0.45594000000E+02  0.51100000000E-03 0.  1.
    9900012    2    1    2    0    0 -0.29225209944E+02 -0.16929708552E+02 -0.27256109937E+02  0.47787268937E+02  0.19999990392E+02 0.  0.
         12    1    1    2    0    0  0.29225209944E+02  0.16929708552E+02  0.27256109937E+02  0.43400731063E+02  0.00000000000E+00 0. -1.
         11    1    3    3    0    0 -0.65767482046E+01 -0.86987436236E+01 -0.34322808243E+00  0.10910525347E+02  0.51100000000E-03 0. -1.
        -11    1    3    3    0    0 -0.10645459425E+02 -0.17775317434E+00 -0.97345735504E+01  0.14426341360E+02  0.51100000000E-03 0.  1.
         12    1    3    3    0    0 -0.12003002314E+02 -0.80532117537E+01 -0.17178308304E+02  0.22450402230E+02  0.00000000000E+00 0. -1.
</event>
<event>
 7    1  0.2455451E-009  0.4778728E+02  0.7816164E-02  0.1312668E+00
        -11   -1    0    0    0    0  0.00000000000E+00  0.00000000000E+00  0.45593999997E+02  0.45594000000E+02  0.51100000000E-03 0.  1.
         11   -1    0    0    0    0 -0.00000000000E+00 -0.00000000000E+00 -0.45593999997E+02  0.45594000000E+02  0.51100000000E-03 0. -1.
    9900012    2    1    2    0    0 -0.10665373421E+02  0.41872627237E+02  0.40688021116E+01  0.47787282811E+02  0.20000053646E+02 0.  0.
         12    1    1    2    0    0  0.10665373421E+02 -0.41872627237E+02 -0.40688021116E+01  0.43400717189E+02  0.00000000000E+00 0. -1.
         11    1    3    3    0    0 -0.10601690111E+01  0.22943141403E+02 -0.59368633752E+01  0.23722521847E+02  0.51100000000E-03 0. -1.
        -11    1    3    3    0    0 -0.93320796086E+01  0.15247628444E+02  0.66435130335E+01  0.19071291217E+02  0.51100000000E-03 0.  1.
        -12    1    3    3    0    0 -0.27312480184E+00  0.36818573899E+01  0.33621524532E+01  0.49934697471E+01  0.00000000000E+00 0.  1.
</event>
<event>
 7    1  0.2455451E-009  0.4778727E+02  0.7816164E-02  0.1312668E+00
        -11   -1    0    0    0    0  0.00000000000E+00  0.00000000000E+00  0.45593999997E+02  0.45594000000E+02  0.51100000000E-03 0.  1.
         11   -1    0    0    0    0 -0.00000000000E+00 -0.00000000000E+00 -0.45593999997E+02  0.45594000000E+02  0.51100000000E-03 0. -1.
    9900012    2    1    2    0    0 -0.47334769781E+01  0.34024432301E+02  0.26524625131E+02  0.47787268024E+02  0.19999986228E+02 0.  0.
         12    1    1    2    0    0  0.47334769781E+01 -0.34024432301E+02 -0.26524625131E+02  0.43400731976E+02  0.00000000000E+00 0. -1.
         11    1    3    3    0    0 -0.21690716259E+01  0.41054561765E+01  0.13885993863E+02  0.14641737191E+02  0.51100000000E-03 0. -1.
        -11    1    3    3    0    0  0.18000845248E+01  0.12863430277E+02  0.62800367832E+01  0.14427300685E+02  0.51100000000E-03 0.  1.
        -12    1    3    3    0    0 -0.43644898770E+01  0.17055545848E+02  0.63585944843E+01  0.18718230148E+02  0.00000000000E+00 0.  1.
</event>
<event>
 7    1  0.2455451E-009  0.4778727E+02  0.7816164E-02  0.1312668E+00
        -11   -1    0    0    0    0  0.00000000000E+00  0.00000000000E+00  0.45593999997E+02  0.45594000000E+02  0.51100000000E-03 0.  1.
         11   -1    0    0    0    0 -0.00000000000E+00 -0.00000000000E+00 -0.45593999997E+02  0.45594000000E+02  0.51100000000E-03 0. -1.
    9900012    2    1    2    0    0  0.36888522737E+01  0.41736043928E+02 -0.11318937307E+02  0.47787270333E+02  0.19999996754E+02 0.  0.
         12    1    1    2    0    0 -0.36888522737E+01 -0.41736043928E+02  0.11318937307E+02  0.43400729667E+02  0.00000000000E+00 0. -1.
         11    1    3    3    0    0 -0.40188691326E+00  0.14101865139E+01 -0.41280173115E+01  0.43807152704E+01  0.51100000000E-03 0. -1.
        -11    1    3    3    0    0  0.13743725289E+01  0.38587901608E+02 -0.90848817708E+01  0.39666738300E+02  0.51100000000E-03 0.  1.
        -12    1    3    3    0    0  0.27163666580E+01  0.17379558068E+01  0.18939617749E+01  0.37398167619E+01  0.00000000000E+00 0.  1.
</event>
<event>
 7    1  0.2455451E-009  0.4778728E+02  0.7816164E-02  0.1312668E+00
        -11   -1    0    0    0    0  0.00000000000E+00  0.00000000000E+00  0.45593999997E+02  0.45594000000E+02  0.51100000000E-03 0. -1.
         11   -1    0    0    0    0 -0.00000000000E+00 -0.00000000000E+00 -0.45593999997E+02  0.45594000000E+02  0.51100000000E-03 0.  1.
    9900012    2    1    2    0    0  0.42590833168E+02  0.15669023963E+01 -0.81968648793E+01  0.47787275963E+02  0.20000022426E+02 0.  0.
         12    1    1    2    0    0 -0.42590833168E+02 -0.15669023963E+01  0.81968648793E+01  0.43400724037E+02  0.00000000000E+00 0. -1.
         11    1    3    3    0    0  0.15918258973E+02 -0.57274764690E+01 -0.37652405707E+01  0.17331243240E+02  0.51100000000E-03 0.  1.
        -11    1    3    3    0    0  0.26071762883E+02  0.71146419613E+01 -0.10804329196E+01  0.27046668660E+02  0.51100000000E-03 0. -1.
        -12    1    3    3    0    0  0.60081131241E+00  0.17973690396E+00 -0.33511913890E+01  0.34093640629E+01  0.00000000000E+00 0.  1.
</event>
<event>
 7    1  0.2455451E-009  0.4778725E+02  0.7816164E-02  0.1312668E+00
        -11   -1    0    0    0    0  0.00000000000E+00  0.00000000000E+00  0.45593999997E+02  0.45594000000E+02  0.51100000000E-03 0.  1.
         11   -1    0    0    0    0 -0.00000000000E+00 -0.00000000000E+00 -0.45593999997E+02  0.45594000000E+02  0.51100000000E-03 0. -1.
    9900012    2    1    2    0    0  0.56366582786E+01  0.24548726766E+01  0.42963090552E+02  0.47787245788E+02  0.19999884845E+02 0.  0.
         12    1    1    2    0    0 -0.56366582786E+01 -0.24548726766E+01 -0.42963090552E+02  0.43400754212E+02  0.00000000000E+00 0. -1.
         11    1    3    3    0    0  0.78480317267E+01  0.16299051122E+00  0.99570837546E+01  0.12679183138E+02  0.51100000000E-03 0. -1.
        -11    1    3    3    0    0 -0.21956623651E+01 -0.51766393156E+00  0.32066207005E+02  0.32145459106E+02  0.51100000000E-03 0.  1.
        -12    1    3    3    0    0 -0.15711083100E-01  0.28095460969E+01  0.93979979200E+00  0.29626035438E+01  0.00000000000E+00 0.  1.
</event>
<event>
 7    1  0.2455451E-009  0.4778728E+02  0.7816164E-02  0.1312668E+00
        -11   -1    0    0    0    0  0.00000000000E+00  0.00000000000E+00  0.45593999997E+02  0.45594000000E+02  0.51100000000E-03 0. -1.
         11   -1    0    0    0    0 -0.00000000000E+00 -0.00000000000E+00 -0.45593999997E+02  0.45594000000E+02  0.51100000000E-03 0.  1.
    9900012    2    1    2    0    0 -0.17936684273E+02 -0.20436667850E+02 -0.33826624537E+02  0.47787279234E+02  0.20000037338E+02 0.  0.
         12    1    1    2    0    0  0.17936684273E+02  0.20436667850E+02  0.33826624537E+02  0.43400720766E+02  0.00000000000E+00 0. -1.
         11    1    3    3    0    0 -0.19007030572E+02 -0.12459801993E+02 -0.29049559704E+02  0.36883475923E+02  0.51100000000E-03 0. -1.
        -11    1    3    3    0    0  0.30591222682E+01 -0.29772819563E+01 -0.30728674257E+01  0.52597482237E+01  0.51100000000E-03 0.  1.
         12    1    3    3    0    0 -0.19887759688E+01 -0.49995839002E+01 -0.17041974070E+01  0.56440550875E+01  0.00000000000E+00 0. -1.
</event>
<event>
 7    1  0.2455451E-009  0.4778726E+02  0.7816164E-02  0.1312668E+00
        -11   -1    0    0    0    0  0.00000000000E+00  0.00000000000E+00  0.45593999997E+02  0.45594000000E+02  0.51100000000E-03 0. -1.
         11   -1    0    0    0    0 -0.00000000000E+00 -0.00000000000E+00 -0.45593999997E+02  0.45594000000E+02  0.51100000000E-03 0.  1.
    9900012    2    1    2    0    0 -0.35903467158E+02  0.17677127716E+02 -0.16795372652E+02  0.47787258753E+02  0.19999943959E+02 0.  0.
         12    1    1    2    0    0  0.35903467158E+02 -0.17677127716E+02  0.16795372652E+02  0.43400741247E+02  0.00000000000E+00 0. -1.
         11    1    3    3    0    0 -0.18273009423E+02  0.76162631346E+01  0.10306190051E+01  0.19823534330E+02  0.51100000000E-03 0. -1.
        -11    1    3    3    0    0 -0.13432796180E+02  0.86184310046E+01 -0.17228921553E+02  0.23485167752E+02  0.51100000000E-03 0.  1.
        -12    1    3    3    0    0 -0.41976615547E+01  0.14424335765E+01 -0.59707010380E+00  0.44785566714E+01  0.00000000000E+00 0.  1.
</event>
<event>
 7    1  0.2455451E-009  0.4778727E+02  0.7816164E-02  0.1312668E+00
        -11   -1    0    0    0    0  0.00000000000E+00  0.00000000000E+00  0.45593999997E+02  0.45594000000E+02  0.51100000000E-03 0.  1.
         11   -1    0    0    0    0 -0.00000000000E+00 -0.00000000000E+00 -0.45593999997E+02  0.45594000000E+02  0.51100000000E-03 0. -1.
    9900012    2    1    2    0    0  0.20215107468E+02 -0.24274162140E+02  0.29761347130E+02  0.47787270737E+02  0.19999998599E+02 0.  0.
         12    1    1    2    0    0 -0.20215107468E+02  0.24274162140E+02 -0.29761347130E+02  0.43400729263E+02  0.00000000000E+00 0. -1.
         11    1    3    3    0    0  0.17637795192E+02 -0.13484415028E+02  0.23405001833E+02  0.32260120566E+02  0.51100000000E-03 0. -1.
        -11    1    3    3    0    0  0.32755241399E+01 -0.11887042579E+02  0.42317015177E+01  0.13036032282E+02  0.51100000000E-03 0.  1.
         12    1    3    3    0    0 -0.69821186371E+00  0.10972954666E+01  0.21246437801E+01  0.24911178897E+01  0.00000000000E+00 0. -1.
</event>
<event>
 7    1  0.2455451E-009  0.4778727E+02  0.7816164E-02  0.1312668E+00
        -11   -1    0    0    0    0  0.00000000000E+00  0.00000000000E+00  0.45593999997E+02  0.45594000000E+02  0.51100000000E-03 0.  1.
         11   -1    0    0    0    0 -0.00000000000E+00 -0.00000000000E+00 -0.45593999997E+02  0.45594000000E+02  0.51100000000E-03 0. -1.
    9900012    2    1    2    0    0 -0.35205803296E+02  0.13662120977E+02 -0.21389741858E+02  0.47787271987E+02  0.20000004297E+02 0.  0.
         12    1    1    2    0    0  0.35205803296E+02 -0.13662120977E+02  0.21389741858E+02  0.43400728013E+02  0.00000000000E+00 0. -1.
         11    1    3    3    0    0 -0.45765768567E+01 -0.51979832324E+00 -0.67872119945E+00  0.46557393344E+01  0.51100000000E-03 0. -1.
        -11    1    3    3    0    0 -0.24156506097E+02  0.81707186823E+01 -0.63637939582E+01  0.26282985074E+02  0.51100000000E-03 0.  1.
        -12    1    3    3    0    0 -0.64727203418E+01  0.60112006183E+01 -0.14347226701E+02  0.16848547578E+02  0.00000000000E+00 0.  1.
</event>
<event>
 7    1  0.2455451E-009  0.4778726E+02  0.7816164E-02  0.1312668E+00
        -11   -1    0    0    0    0  0.00000000000E+00  0.00000000000E+00  0.45593999997E+02  0.45594000000E+02  0.51100000000E-03 0. -1.
         11   -1    0    0    0    0 -0.00000000000E+00 -0.00000000000E+00 -0.45593999997E+02  0.45594000000E+02  0.51100000000E-03 0.  1.
    9900012    2    1    2    0    0 -0.43819092780E+01 -0.36287883881E+02  0.23401123877E+02  0.47787259866E+02  0.19999949032E+02 0.  0.
         12    1    1    2    0    0  0.43819092780E+01  0.36287883881E+02 -0.23401123877E+02  0.43400740134E+02  0.00000000000E+00 0. -1.
         11    1    3    3    0    0 -0.55639275579E+01 -0.34565706960E+01  0.13040113342E+01  0.66787436444E+01  0.51100000000E-03 0. -1.
        -11    1    3    3    0    0  0.39201583033E+01 -0.28916159866E+02  0.15736442060E+02  0.33153394268E+02  0.51100000000E-03 0.  1.
        -12    1    3    3    0    0 -0.27381400234E+01 -0.39151533193E+01  0.63606704829E+01  0.79551219534E+01  0.00000000000E+00 0.  1.
</event>
<event>
 7    1  0.2455451E-009  0.4778727E+02  0.7816164E-02  0.1312668E+00
        -11   -1    0    0    0    0  0.00000000000E+00  0.00000000000E+00  0.45593999997E+02  0.45594000000E+02  0.51100000000E-03 0.  1.
         11   -1    0    0    0    0 -0.00000000000E+00 -0.00000000000E+00 -0.45593999997E+02  0.45594000000E+02  0.51100000000E-03 0. -1.
    9900012    2    1    2    0    0 -0.26906617603E+02 -0.31384142929E+02 -0.13217143263E+02  0.47787269888E+02  0.19999994726E+02 0.  0.
         12    1    1    2    0    0  0.26906617603E+02  0.31384142929E+02  0.13217143263E+02  0.43400730112E+02  0.00000000000E+00 0. -1.
         11    1    3    3    0    0 -0.21118868904E+02 -0.32241584086E+02 -0.13933219347E+02  0.40983667111E+02  0.51100000000E-03 0. -1.
        -11    1    3    3    0    0 -0.50776840734E+01 -0.62924787105E+00  0.60770040505E+00  0.51524876007E+01  0.51100000000E-03 0.  1.
         12    1    3    3    0    0 -0.71006462510E+00  0.14866890280E+01  0.10837567903E+00  0.16511151764E+01  0.00000000000E+00 0. -1.
</event>
<event>
 7    1  0.2455451E-009  0.4778728E+02  0.7816164E-02  0.1312668E+00
        -11   -1    0    0    0    0  0.00000000000E+00  0.00000000000E+00  0.45593999997E+02  0.45594000000E+02  0.51100000000E-03 0.  1.
         11   -1    0    0    0    0 -0.00000000000E+00 -0.00000000000E+00 -0.45593999997E+02  0.45594000000E+02  0.51100000000E-03 0. -1.
    9900012    2    1    2    0    0  0.31680947136E+02 -0.29637669554E+02  0.12445987413E+01  0.47787275420E+02  0.20000019949E+02 0.  0.
         12    1    1    2    0    0 -0.31680947136E+02  0.29637669554E+02 -0.12445987413E+01  0.43400724580E+02  0.00000000000E+00 0. -1.
         11    1    3    3    0    0  0.86758716132E+01 -0.11873364860E+01  0.12110868392E+00  0.87575786468E+01  0.51100000000E-03 0. -1.
        -11    1    3    3    0    0  0.17103551869E+01 -0.13164589148E+00  0.30998173309E+01  0.35428114898E+01  0.51100000000E-03 0.  1.
        -12    1    3    3    0    0  0.21294720336E+02 -0.28318687177E+02 -0.19763272735E+01  0.35486885283E+02  0.00000000000E+00 0.  1.
</event>
<event>
 7    1  0.2455451E-009  0.4778727E+02  0.7816164E-02  0.1312668E+00
        -11   -1    0    0    0    0  0.00000000000E+00  0.00000000000E+00  0.45593999997E+02  0.45594000000E+02  0.51100000000E-03 0.  1.
         11   -1    0    0    0    0 -0.00000000000E+00 -0.00000000000E+00 -0.45593999997E+02  0.45594000000E+02  0.51100000000E-03 0. -1.
    9900012    2    1    2    0    0 -0.31280424309E+02 -0.16773026578E+02  0.24976465201E+02  0.47787272132E+02  0.20000004960E+02 0.  0.
         12    1    1    2    0    0  0.31280424309E+02  0.16773026578E+02 -0.24976465201E+02  0.43400727868E+02  0.00000000000E+00 0. -1.
         11    1    3    3    0    0 -0.19059308239E+02 -0.41946748408E+01  0.72665089163E+01  0.20824377053E+02  0.51100000000E-03 0. -1.
        -11    1    3    3    0    0 -0.11241223116E+02 -0.14383396849E+02  0.15522903032E+02  0.23962631760E+02  0.51100000000E-03 0.  1.
         12    1    3    3    0    0 -0.97989295369E+00  0.18050451117E+01  0.21870532523E+01  0.30002633192E+01  0.00000000000E+00 0. -1.
</event>
<event>
 7    1  0.2455451E-009  0.4778727E+02  0.7816164E-02  0.1312668E+00
        -11   -1    0    0    0    0  0.00000000000E+00  0.00000000000E+00  0.45593999997E+02  0.45594000000E+02  0.51100000000E-03 0.  1.
         11   -1    0    0    0    0 -0.00000000000E+00 -0.00000000000E+00 -0.45593999997E+02  0.45594000000E+02  0.51100000000E-03 0. -1.
    9900012    2    1    2    0    0  0.19722631747E+02 -0.27456624949E+02  0.27217180500E+02  0.47787269926E+02  0.19999994899E+02 0.  0.
         12    1    1    2    0    0 -0.19722631747E+02  0.27456624949E+02 -0.27217180500E+02  0.43400730074E+02  0.00000000000E+00 0. -1.
         11    1    3    3    0    0 -0.27624462420E-01 -0.33164476323E+01  0.42097001974E+00  0.33431727486E+01  0.51100000000E-03 0. -1.
        -11    1    3    3    0    0  0.74934939288E+01 -0.14592868810E+02  0.23339484344E+02  0.28527807506E+02  0.51100000000E-03 0.  1.
        -12    1    3    3    0    0  0.12256762280E+02 -0.95473085070E+01  0.34567261363E+01  0.15916289671E+02  0.00000000000E+00 0.  1.
</event>
<event>
 7    1  0.2455451E-009  0.4778729E+02  0.7816164E-02  0.1312668E+00
        -11   -1    0    0    0    0  0.00000000000E+00  0.00000000000E+00  0.45593999997E+02  0.45594000000E+02  0.51100000000E-03 0. -1.
         11   -1    0    0    0    0 -0.00000000000E+00 -0.00000000000E+00 -0.45593999997E+02  0.45594000000E+02  0.51100000000E-03 0.  1.
    9900012    2    1    2    0    0 -0.22170186706E+02  0.28378399892E+02 -0.24223356280E+02  0.47787288617E+02  0.20000080121E+02 0.  0.
         12    1    1    2    0    0  0.22170186706E+02 -0.28378399892E+02  0.24223356280E+02  0.43400711383E+02  0.00000000000E+00 0. -1.
         11    1    3    3    0    0  0.26124179270E+00  0.13330722428E+01 -0.23954293945E+00  0.13793875306E+01  0.51100000000E-03 0. -1.
        -11    1    3    3    0    0 -0.14200923342E+02  0.42132499453E+01 -0.51332335207E+01  0.15676982666E+02  0.51100000000E-03 0.  1.
        -12    1    3    3    0    0 -0.82305051575E+01  0.22832077704E+02 -0.18850579820E+02  0.30730918421E+02  0.00000000000E+00 0.  1.
</event>
<event>
 7    1  0.2455451E-009  0.4778727E+02  0.7816164E-02  0.1312668E+00
        -11   -1    0    0    0    0  0.00000000000E+00  0.00000000000E+00  0.45593999997E+02  0.45594000000E+02  0.51100000000E-03 0. -1.
         11   -1    0    0    0    0 -0.00000000000E+00 -0.00000000000E+00 -0.45593999997E+02  0.45594000000E+02  0.51100000000E-03 0.  1.
    9900012    2    1    2    0    0  0.99868403960E+01 -0.28781846439E+01 -0.42137898515E+02  0.47787269370E+02  0.19999992368E+02 0.  0.
         12    1    1    2    0    0 -0.99868403960E+01  0.28781846439E+01  0.42137898515E+02  0.43400730630E+02  0.00000000000E+00 0. -1.
         11    1    3    3    0    0 -0.19017851242E+01 -0.29709728205E+01  0.37683479672E+00  0.35476007222E+01  0.51100000000E-03 0. -1.
        -11    1    3    3    0    0  0.95582658686E+01  0.24657087310E+00 -0.37624162520E+02  0.38820083065E+02  0.51100000000E-03 0.  1.
         12    1    3    3    0    0  0.23303596516E+01 -0.15378269654E+00 -0.48905707915E+01  0.54195855829E+01  0.00000000000E+00 0. -1.
</event>
<event>
 7    1  0.2455451E-009  0.4778727E+02  0.7816164E-02  0.1312668E+00
        -11   -1    0    0    0    0  0.00000000000E+00  0.00000000000E+00  0.45593999997E+02  0.45594000000E+02  0.51100000000E-03 0.  1.
         11   -1    0    0    0    0 -0.00000000000E+00 -0.00000000000E+00 -0.45593999997E+02  0.45594000000E+02  0.51100000000E-03 0. -1.
    9900012    2    1    2    0    0  0.11821750215E+02 -0.26915212045E+02  0.31928681056E+02  0.47787273145E+02  0.20000009578E+02 0.  0.
         12    1    1    2    0    0 -0.11821750215E+02  0.26915212045E+02 -0.31928681056E+02  0.43400726855E+02  0.00000000000E+00 0. -1.
         11    1    3    3    0    0  0.85621520503E+01 -0.88229061840E+01  0.24160810289E+01  0.12529627651E+02  0.51100000000E-03 0. -1.
        -11    1    3    3    0    0  0.38423690074E+01 -0.16740535499E+02  0.23749528400E+02  0.29309544996E+02  0.51100000000E-03 0.  1.
         12    1    3    3    0    0 -0.58277084226E+00 -0.13517703619E+01  0.57630716267E+01  0.59481004985E+01  0.00000000000E+00 0. -1.
</event>
<event>
 7    1  0.2455451E-009  0.4778727E+02  0.7816164E-02  0.1312668E+00
        -11   -1    0    0    0    0  0.00000000000E+00  0.00000000000E+00  0.45593999997E+02  0.45594000000E+02  0.51100000000E-03 0. -1.
         11   -1    0    0    0    0 -0.00000000000E+00 -0.00000000000E+00 -0.45593999997E+02  0.45594000000E+02  0.51100000000E-03 0.  1.
    9900012    2    1    2    0    0  0.36397451801E+02 -0.16218231848E+02  0.17199357392E+02  0.47787269170E+02  0.19999991452E+02 0.  0.
         12    1    1    2    0    0 -0.36397451801E+02  0.16218231848E+02 -0.17199357392E+02  0.43400730830E+02  0.00000000000E+00 0. -1.
         11    1    3    3    0    0  0.19736951490E+01 -0.80447489751E+01  0.46500580202E+01  0.94992893663E+01  0.51100000000E-03 0. -1.
        -11    1    3    3    0    0  0.29822904873E+02 -0.96013952979E+01  0.10383802512E+02  0.33006299423E+02  0.51100000000E-03 0.  1.
         12    1    3    3    0    0  0.46008517790E+01  0.14279124251E+01  0.21654968604E+01  0.52816803802E+01  0.00000000000E+00 0. -1.
</event>
<event>
 7    1  0.2455451E-009  0.4778728E+02  0.7816164E-02  0.1312668E+00
        -11   -1    0    0    0    0  0.00000000000E+00  0.00000000000E+00  0.45593999997E+02  0.45594000000E+02  0.51100000000E-03 0.  1.
         11   -1    0    0    0    0 -0.00000000000E+00 -0.00000000000E+00 -0.45593999997E+02  0.45594000000E+02  0.51100000000E-03 0. -1.
    9900012    2    1    2    0    0  0.89413478731E+00  0.13637690691E+02  0.41192679222E+02  0.47787275284E+02  0.20000019329E+02 0.  0.
         12    1    1    2    0    0 -0.89413478731E+00 -0.13637690691E+02 -0.41192679222E+02  0.43400724716E+02  0.00000000000E+00 0. -1.
         11    1    3    3    0    0  0.30790156159E+00 -0.27158247277E+01  0.16486896257E+01  0.31919719714E+01  0.51100000000E-03 0. -1.
        -11    1    3    3    0    0  0.63705580359E+01  0.94249167295E+01  0.25187239736E+02  0.27637114734E+02  0.51100000000E-03 0.  1.
        -12    1    3    3    0    0 -0.57843248102E+01  0.69285986889E+01  0.14356749860E+02  0.16958188578E+02  0.00000000000E+00 0.  1.
</event>
<event>
 7    1  0.2455451E-009  0.4778727E+02  0.7816164E-02  0.1312668E+00
        -11   -1    0    0    0    0  0.00000000000E+00  0.00000000000E+00  0.45593999997E+02  0.45594000000E+02  0.51100000000E-03 0.  1.
         11   -1    0    0    0    0 -0.00000000000E+00 -0.00000000000E+00 -0.45593999997E+02  0.45594000000E+02  0.51100000000E-03 0. -1.
    9900012    2    1    2    0    0  0.19893518764E+02  0.27331456257E+02  0.27218795678E+02  0.47787269268E+02  0.19999991900E+02 0.  0.
         12    1    1    2    0    0 -0.19893518764E+02 -0.27331456257E+02 -0.27218795678E+02  0.43400730732E+02  0.00000000000E+00 0. -1.
         11    1    3    3    0    0  0.39646934168E+01  0.57822907304E+01 -0.15769119639E+01  0.71861207604E+01  0.51100000000E-03 0. -1.
        -11    1    3    3    0    0  0.12857986520E+02  0.21978793197E+02  0.26432741748E+02  0.36702656638E+02  0.51100000000E-03 0.  1.
         12    1    3    3    0    0  0.30708388277E+01 -0.42962767063E+00  0.23629658935E+01  0.38984918693E+01  0.00000000000E+00 0. -1.
</event>
<event>
 7    1  0.2455451E-009  0.4778727E+02  0.7816164E-02  0.1312668E+00
        -11   -1    0    0    0    0  0.00000000000E+00  0.00000000000E+00  0.45593999997E+02  0.45594000000E+02  0.51100000000E-03 0. -1.
         11   -1    0    0    0    0 -0.00000000000E+00 -0.00000000000E+00 -0.45593999997E+02  0.45594000000E+02  0.51100000000E-03 0.  1.
    9900012    2    1    2    0    0  0.24020448779E+02  0.17189929078E+02 -0.31798547332E+02  0.47787271507E+02  0.20000002111E+02 0.  0.
         12    1    1    2    0    0 -0.24020448779E+02 -0.17189929078E+02  0.31798547332E+02  0.43400728493E+02  0.00000000000E+00 0. -1.
         11    1    3    3    0    0 -0.47133710792E+00 -0.23176071403E+00  0.45559508206E+00  0.69529766129E+00  0.51100000000E-03 0. -1.
        -11    1    3    3    0    0  0.10883520095E+02  0.16247058962E+02 -0.12989458432E+02  0.23476455550E+02  0.51100000000E-03 0.  1.
        -12    1    3    3    0    0  0.13608265793E+02  0.11746308294E+01 -0.19264683982E+02  0.23615518296E+02  0.00000000000E+00 0.  1.
</event>
<event>
 7    1  0.2455451E-009  0.4778727E+02  0.7816164E-02  0.1312668E+00
        -11   -1    0    0    0    0  0.00000000000E+00  0.00000000000E+00  0.45593999997E+02  0.45594000000E+02  0.51100000000E-03 0. -1.
         11   -1    0    0    0    0 -0.00000000000E+00 -0.00000000000E+00 -0.45593999997E+02  0.45594000000E+02  0.51100000000E-03 0.  1.
    9900012    2    1    2    0    0 -0.21448194580E+02  0.37319576579E+02  0.55540436889E+01  0.47787271342E+02  0.20000001355E+02 0.  0.
         12    1    1    2    0    0  0.21448194580E+02 -0.37319576579E+02 -0.55540436889E+01  0.43400728658E+02  0.00000000000E+00 0. -1.
         11    1    3    3    0    0 -0.38221334414E+01  0.20238497780E+02  0.74169437947E+01  0.21891015325E+02  0.51100000000E-03 0. -1.
        -11    1    3    3    0    0 -0.70437751391E+01  0.12242979868E+02 -0.19604710524E+01  0.14260041068E+02  0.51100000000E-03 0.  1.
         12    1    3    3    0    0 -0.10582285999E+02  0.48380989309E+01  0.97570946492E-01  0.11636214948E+02  0.00000000000E+00 0. -1.
</event>
<event>
 7    1  0.2455451E-009  0.4778727E+02  0.7816164E-02  0.1312668E+00
        -11   -1    0    0    0    0  0.00000000000E+00  0.00000000000E+00  0.45593999997E+02  0.45594000000E+02  0.51100000000E-03 0. -1.
         11   -1    0    0    0    0 -0.00000000000E+00 -0.00000000000E+00 -0.45593999997E+02  0.45594000000E+02  0.51100000000E-03 0.  1.
    9900012    2    1    2    0    0 -0.11989683309E+02 -0.19080238561E+02 -0.37091984295E+02  0.47787270647E+02  0.19999998188E+02 0.  0.
         12    1    1    2    0    0  0.11989683309E+02  0.19080238561E+02  0.37091984295E+02  0.43400729353E+02  0.00000000000E+00 0. -1.
         11    1    3    3    0    0 -0.93040200848E+01 -0.13309439020E+02 -0.31703146630E+02  0.35620155295E+02  0.51100000000E-03 0.  1.
        -11    1    3    3    0    0  0.13937140793E+01 -0.51093916543E+01  0.99307509275E-01  0.52969976642E+01  0.51100000000E-03 0. -1.
        -12    1    3    3    0    0 -0.40793773039E+01 -0.66140788684E+00 -0.54881451748E+01  0.68701176875E+01  0.00000000000E+00 0.  1.
</event>
<event>
 7    1  0.2455451E-009  0.4778727E+02  0.7816164E-02  0.1312668E+00
        -11   -1    0    0    0    0  0.00000000000E+00  0.00000000000E+00  0.45593999997E+02  0.45594000000E+02  0.51100000000E-03 0.  1.
         11   -1    0    0    0    0 -0.00000000000E+00 -0.00000000000E+00 -0.45593999997E+02  0.45594000000E+02  0.51100000000E-03 0. -1.
    9900012    2    1    2    0    0 -0.44593984412E+01 -0.28056943878E+02  0.32810741220E+02  0.47787273351E+02  0.20000010518E+02 0.  0.
         12    1    1    2    0    0  0.44593984412E+01  0.28056943878E+02 -0.32810741220E+02  0.43400726649E+02  0.00000000000E+00 0. -1.
         11    1    3    3    0    0 -0.22348846327E+00  0.89570495220E+00 -0.83365870247E+00  0.12438736061E+01  0.51100000000E-03 0. -1.
        -11    1    3    3    0    0  0.30817659947E+01 -0.16193216074E+02  0.23381892374E+02  0.28608222939E+02  0.51100000000E-03 0.  1.
        -12    1    3    3    0    0 -0.73176759726E+01 -0.12759432756E+02  0.10262507548E+02  0.17935176806E+02  0.00000000000E+00 0.  1.
</event>
<event>
 7    1  0.2455451E-009  0.4778727E+02  0.7816164E-02  0.1312668E+00
        -11   -1    0    0    0    0  0.00000000000E+00  0.00000000000E+00  0.45593999997E+02  0.45594000000E+02  0.51100000000E-03 0.  1.
         11   -1    0    0    0    0 -0.00000000000E+00 -0.00000000000E+00 -0.45593999997E+02  0.45594000000E+02  0.51100000000E-03 0. -1.
    9900012    2    1    2    0    0  0.27532973672E+02 -0.33538608645E+02  0.84873746409E+00  0.47787271154E+02  0.20000000500E+02 0.  0.
         12    1    1    2    0    0 -0.27532973672E+02  0.33538608645E+02 -0.84873746409E+00  0.43400728846E+02  0.00000000000E+00 0. -1.
         11    1    3    3    0    0 -0.11605988868E+01 -0.29399221601E+01  0.28918503599E+01  0.42840320784E+01  0.51100000000E-03 0. -1.
        -11    1    3    3    0    0  0.24994293228E+02 -0.30529256922E+02 -0.40717558019E+00  0.39457775082E+02  0.51100000000E-03 0.  1.
         12    1    3    3    0    0  0.36992793301E+01 -0.69429563532E-01 -0.16359373156E+01  0.40454639940E+01  0.00000000000E+00 0. -1.
</event>
<event>
 7    1  0.2455451E-009  0.4778727E+02  0.7816164E-02  0.1312668E+00
        -11   -1    0    0    0    0  0.00000000000E+00  0.00000000000E+00  0.45593999997E+02  0.45594000000E+02  0.51100000000E-03 0. -1.
         11   -1    0    0    0    0 -0.00000000000E+00 -0.00000000000E+00 -0.45593999997E+02  0.45594000000E+02  0.51100000000E-03 0.  1.
    9900012    2    1    2    0    0 -0.37795337868E+01  0.23732937156E+01 -0.43170656722E+02  0.47787274193E+02  0.20000014356E+02 0.  0.
         12    1    1    2    0    0  0.37795337868E+01 -0.23732937156E+01  0.43170656722E+02  0.43400725807E+02  0.00000000000E+00 0. -1.
         11    1    3    3    0    0  0.30548002312E+01 -0.26878412021E+01 -0.14782007106E+01  0.43291306728E+01  0.51100000000E-03 0. -1.
        -11    1    3    3    0    0 -0.80610817744E+01  0.11829941285E+01 -0.25968625462E+02  0.27216723226E+02  0.51100000000E-03 0.  1.
         12    1    3    3    0    0  0.12267477563E+01  0.38781407891E+01 -0.15723830550E+02  0.16241420295E+02  0.00000000000E+00 0. -1.
</event>
<event>
 7    1  0.2455451E-009  0.4778727E+02  0.7816164E-02  0.1312668E+00
        -11   -1    0    0    0    0  0.00000000000E+00  0.00000000000E+00  0.45593999997E+02  0.45594000000E+02  0.51100000000E-03 0.  1.
         11   -1    0    0    0    0 -0.00000000000E+00 -0.00000000000E+00 -0.45593999997E+02  0.45594000000E+02  0.51100000000E-03 0. -1.
    9900012    2    1    2    0    0 -0.75533790844E+01 -0.14767041323E+02  0.40106159989E+02  0.47787272885E+02  0.20000008391E+02 0.  0.
         12    1    1    2    0    0  0.75533790844E+01  0.14767041323E+02 -0.40106159989E+02  0.43400727115E+02  0.00000000000E+00 0. -1.
         11    1    3    3    0    0  0.20534743513E+01  0.38635620437E+00  0.28265021418E+01  0.35149882855E+01  0.51100000000E-03 0. -1.
        -11    1    3    3    0    0 -0.24326745502E+01 -0.11581040012E+02  0.33267777563E+02  0.35309820412E+02  0.51100000000E-03 0.  1.
        -12    1    3    3    0    0 -0.71741788855E+01 -0.35723575161E+01  0.40118802841E+01  0.89624641878E+01  0.00000000000E+00 0.  1.
</event>
<event>
 7    1  0.2455451E-009  0.4778727E+02  0.7816164E-02  0.1312668E+00
        -11   -1    0    0    0    0  0.00000000000E+00  0.00000000000E+00  0.45593999997E+02  0.45594000000E+02  0.51100000000E-03 0. -1.
         11   -1    0    0    0    0 -0.00000000000E+00 -0.00000000000E+00 -0.45593999997E+02  0.45594000000E+02  0.51100000000E-03 0.  1.
    9900012    2    1    2    0    0  0.39896432722E+02 -0.16953070723E+02 -0.21192114430E+01  0.47787274108E+02  0.20000013967E+02 0.  0.
         12    1    1    2    0    0 -0.39896432722E+02  0.16953070723E+02  0.21192114430E+01  0.43400725892E+02  0.00000000000E+00 0. -1.
         11    1    3    3    0    0  0.26572274616E+01 -0.55316002790E+01  0.21090250250E+01  0.64890250614E+01  0.51100000000E-03 0. -1.
        -11    1    3    3    0    0  0.26474992054E+02 -0.19708608291E+01 -0.47250405669E+01  0.26965450215E+02  0.51100000000E-03 0.  1.
        -12    1    3    3    0    0  0.10764213205E+02 -0.94506096145E+01  0.49680409886E+00  0.14332798831E+02  0.00000000000E+00 0.  1.
</event>
<event>
 7    1  0.2455451E-009  0.4778722E+02  0.7816164E-02  0.1312668E+00
        -11   -1    0    0    0    0  0.00000000000E+00  0.00000000000E+00  0.45593999997E+02  0.45594000000E+02  0.51100000000E-03 0. -1.
         11   -1    0    0    0    0 -0.00000000000E+00 -0.00000000000E+00 -0.45593999997E+02  0.45594000000E+02  0.51100000000E-03 0.  1.
    9900012    2    1    2    0    0  0.24270389171E+02 -0.34569737447E+02 -0.99754075302E+01  0.47787224742E+02  0.19999788886E+02 0.  0.
         12    1    1    2    0    0 -0.24270389171E+02  0.34569737447E+02  0.99754075302E+01  0.43400775258E+02  0.00000000000E+00 0. -1.
         11    1    3    3    0    0  0.15972562043E+02 -0.19466334390E+02 -0.58038870274E+01  0.25840782065E+02  0.51100000000E-03 0.  1.
        -11    1    3    3    0    0 -0.38359409037E-01 -0.12655371787E+02 -0.99019682260E+00  0.12694108733E+02  0.51100000000E-03 0. -1.
         12    1    3    3    0    0  0.83361865362E+01 -0.24480312697E+01 -0.31813236803E+01  0.92523339446E+01  0.00000000000E+00 0. -1.
</event>
<event>
 7    1  0.2455451E-009  0.4778727E+02  0.7816164E-02  0.1312668E+00
        -11   -1    0    0    0    0  0.00000000000E+00  0.00000000000E+00  0.45593999997E+02  0.45594000000E+02  0.51100000000E-03 0.  1.
         11   -1    0    0    0    0 -0.00000000000E+00 -0.00000000000E+00 -0.45593999997E+02  0.45594000000E+02  0.51100000000E-03 0. -1.
    9900012    2    1    2    0    0  0.34013487430E+02  0.18730403348E+02  0.19387565564E+02  0.47787273793E+02  0.20000012534E+02 0.  0.
         12    1    1    2    0    0 -0.34013487430E+02 -0.18730403348E+02 -0.19387565564E+02  0.43400726207E+02  0.00000000000E+00 0. -1.
         11    1    3    3    0    0 -0.38500384033E+00  0.33654272370E+01  0.16283406865E+01  0.37584334631E+01  0.51100000000E-03 0. -1.
        -11    1    3    3    0    0  0.33387234246E+02  0.11483264229E+02  0.18635293057E+02  0.39923012356E+02  0.51100000000E-03 0.  1.
        -12    1    3    3    0    0  0.10112570240E+01  0.38817118820E+01 -0.87606817891E+00  0.41058279746E+01  0.00000000000E+00 0.  1.
</event>
<event>
 7    1  0.2455451E-009  0.4778726E+02  0.7816164E-02  0.1312668E+00
        -11   -1    0    0    0    0  0.00000000000E+00  0.00000000000E+00  0.45593999997E+02  0.45594000000E+02  0.51100000000E-03 0. -1.
         11   -1    0    0    0    0 -0.00000000000E+00 -0.00000000000E+00 -0.45593999997E+02  0.45594000000E+02  0.51100000000E-03 0.  1.
    9900012    2    1    2    0    0 -0.29494742734E+02  0.30642060497E+02 -0.86457190390E+01  0.47787260627E+02  0.19999952503E+02 0.  0.
         12    1    1    2    0    0  0.29494742734E+02 -0.30642060497E+02  0.86457190390E+01  0.43400739373E+02  0.00000000000E+00 0. -1.
         11    1    3    3    0    0 -0.20929419865E+02  0.10648215997E+02 -0.56400938773E+01  0.24150274926E+02  0.51100000000E-03 0. -1.
        -11    1    3    3    0    0 -0.95789287987E+01  0.19925948194E+02 -0.19862593771E+01  0.22197849331E+02  0.51100000000E-03 0.  1.
         12    1    3    3    0    0  0.10136059297E+01  0.67896305662E-01 -0.10193657845E+01  0.14391363701E+01  0.00000000000E+00 0. -1.
</event>
<event>
 7    1  0.2455451E-009  0.4778726E+02  0.7816164E-02  0.1312668E+00
        -11   -1    0    0    0    0  0.00000000000E+00  0.00000000000E+00  0.45593999997E+02  0.45594000000E+02  0.51100000000E-03 0.  1.
         11   -1    0    0    0    0 -0.00000000000E+00 -0.00000000000E+00 -0.45593999997E+02  0.45594000000E+02  0.51100000000E-03 0. -1.
    9900012    2    1    2    0    0 -0.15729536690E+02 -0.37239478678E+02  0.15793262748E+02  0.47787259857E+02  0.19999948994E+02 0.  0.
         12    1    1    2    0    0  0.15729536690E+02  0.37239478678E+02 -0.15793262748E+02  0.43400740143E+02  0.00000000000E+00 0. -1.
         11    1    3    3    0    0 -0.15042504571E+02 -0.20712137976E+02  0.71665820316E+01  0.26582503674E+02  0.51100000000E-03 0. -1.
        -11    1    3    3    0    0 -0.45928083927E+01 -0.13949181955E+02  0.63373852356E+01  0.15994874743E+02  0.51100000000E-03 0.  1.
         12    1    3    3    0    0  0.39057762738E+01 -0.25781587467E+01  0.22892954812E+01  0.52098814406E+01  0.00000000000E+00 0. -1.
</event>
<event>
 7    1  0.2455451E-009  0.4778727E+02  0.7816164E-02  0.1312668E+00
        -11   -1    0    0    0    0  0.00000000000E+00  0.00000000000E+00  0.45593999997E+02  0.45594000000E+02  0.51100000000E-03 0.  1.
         11   -1    0    0    0    0 -0.00000000000E+00 -0.00000000000E+00 -0.45593999997E+02  0.45594000000E+02  0.51100000000E-03 0. -1.
    9900012    2    1    2    0    0  0.26832236446E+02  0.32004469512E+02  0.11805434328E+02  0.47787271192E+02  0.20000000671E+02 0.  0.
         12    1    1    2    0    0 -0.26832236446E+02 -0.32004469512E+02 -0.11805434328E+02  0.43400728808E+02  0.00000000000E+00 0. -1.
         11    1    3    3    0    0  0.40835724702E-01  0.77832347172E+01 -0.19010173963E+00  0.77856630515E+01  0.51100000000E-03 0. -1.
        -11    1    3    3    0    0  0.22680757455E+02  0.13483158349E+02  0.10534964830E+02  0.28411226690E+02  0.51100000000E-03 0.  1.
        -12    1    3    3    0    0  0.41106432657E+01  0.10738076446E+02  0.14605712379E+01  0.11590381450E+02  0.00000000000E+00 0.  1.
</event>
<event>
 7    1  0.2455451E-009  0.4778728E+02  0.7816164E-02  0.1312668E+00
        -11   -1    0    0    0    0  0.00000000000E+00  0.00000000000E+00  0.45593999997E+02  0.45594000000E+02  0.51100000000E-03 0. -1.
         11   -1    0    0    0    0 -0.00000000000E+00 -0.00000000000E+00 -0.45593999997E+02  0.45594000000E+02  0.51100000000E-03 0.  1.
    9900012    2    1    2    0    0  0.10843171197E+02  0.13737271718E+02 -0.39715687724E+02  0.47787275960E+02  0.20000022412E+02 0.  0.
         12    1    1    2    0    0 -0.10843171197E+02 -0.13737271718E+02  0.39715687724E+02  0.43400724040E+02  0.00000000000E+00 0. -1.
         11    1    3    3    0    0 -0.29550018033E+01 -0.85525069670E+00 -0.34468035129E+01  0.46199506631E+01  0.51100000000E-03 0. -1.
        -11    1    3    3    0    0  0.11282895134E+02  0.10595235935E+02 -0.35011313430E+02  0.38279953180E+02  0.51100000000E-03 0.  1.
         12    1    3    3    0    0  0.25152778659E+01  0.39972864794E+01 -0.12575707812E+01  0.48873721171E+01  0.00000000000E+00 0. -1.
</event>
<event>
 7    1  0.2455451E-009  0.4778727E+02  0.7816164E-02  0.1312668E+00
        -11   -1    0    0    0    0  0.00000000000E+00  0.00000000000E+00  0.45593999997E+02  0.45594000000E+02  0.51100000000E-03 0. -1.
         11   -1    0    0    0    0 -0.00000000000E+00 -0.00000000000E+00 -0.45593999997E+02  0.45594000000E+02  0.51100000000E-03 0.  1.
    9900012    2    1    2    0    0 -0.20481282069E+02 -0.36420419374E+02 -0.11734269468E+02  0.47787274862E+02  0.20000017406E+02 0.  0.
         12    1    1    2    0    0  0.20481282069E+02  0.36420419374E+02  0.11734269468E+02  0.43400725138E+02  0.00000000000E+00 0. -1.
         11    1    3    3    0    0 -0.44466643318E+01 -0.22610080212E+02 -0.29793907766E+01  0.23235002056E+02  0.51100000000E-03 0. -1.
        -11    1    3    3    0    0  0.83063206567E-01 -0.28940518596E+01 -0.31857156804E+01  0.43047903921E+01  0.51100000000E-03 0.  1.
         12    1    3    3    0    0 -0.16117680943E+02 -0.10916287302E+02 -0.55691630109E+01  0.20247482414E+02  0.00000000000E+00 0. -1.
</event>
<event>
 7    1  0.2455451E-009  0.4778727E+02  0.7816164E-02  0.1312668E+00
        -11   -1    0    0    0    0  0.00000000000E+00  0.00000000000E+00  0.45593999997E+02  0.45594000000E+02  0.51100000000E-03 0.  1.
         11   -1    0    0    0    0 -0.00000000000E+00 -0.00000000000E+00 -0.45593999997E+02  0.45594000000E+02  0.51100000000E-03 0. -1.
    9900012    2    1    2    0    0  0.99458640010E+01 -0.18213372306E+02  0.38117919809E+02  0.47787274752E+02  0.20000016904E+02 0.  0.
         12    1    1    2    0    0 -0.99458640010E+01  0.18213372306E+02 -0.38117919809E+02  0.43400725248E+02  0.00000000000E+00 0. -1.
         11    1    3    3    0    0 -0.40740365953E+01 -0.58905921841E+01  0.18287496224E+02  0.19639994115E+02  0.51100000000E-03 0.  1.
        -11    1    3    3    0    0  0.14199507433E+02 -0.10239205004E+02  0.19155048494E+02  0.25949628388E+02  0.51100000000E-03 0. -1.
        -12    1    3    3    0    0 -0.17960683660E+00 -0.20835751184E+01  0.67537509184E+00  0.21976522483E+01  0.00000000000E+00 0.  1.
</event>
<event>
 7    1  0.2455451E-009  0.4778727E+02  0.7816164E-02  0.1312668E+00
        -11   -1    0    0    0    0  0.00000000000E+00  0.00000000000E+00  0.45593999997E+02  0.45594000000E+02  0.51100000000E-03 0. -1.
         11   -1    0    0    0    0 -0.00000000000E+00 -0.00000000000E+00 -0.45593999997E+02  0.45594000000E+02  0.51100000000E-03 0.  1.
    9900012    2    1    2    0    0  0.17708935712E+02  0.39078044041E+02 -0.65516053256E+01  0.47787268872E+02  0.19999990096E+02 0.  0.
         12    1    1    2    0    0 -0.17708935712E+02 -0.39078044041E+02  0.65516053256E+01  0.43400731128E+02  0.00000000000E+00 0. -1.
         11    1    3    3    0    0  0.15746539317E+02  0.20015305827E+02 -0.74838475923E+01  0.26543811762E+02  0.51100000000E-03 0. -1.
        -11    1    3    3    0    0  0.54806691648E+01  0.14150778524E+02  0.43959173399E+00  0.15181419844E+02  0.51100000000E-03 0.  1.
         12    1    3    3    0    0 -0.35182727694E+01  0.49119596901E+01  0.49265053272E+00  0.60620372668E+01  0.00000000000E+00 0. -1.
</event>
<event>
 7    1  0.2455451E-009  0.4778727E+02  0.7816164E-02  0.1312668E+00
        -11   -1    0    0    0    0  0.00000000000E+00  0.00000000000E+00  0.45593999997E+02  0.45594000000E+02  0.51100000000E-03 0.  1.
         11   -1    0    0    0    0 -0.00000000000E+00 -0.00000000000E+00 -0.45593999997E+02  0.45594000000E+02  0.51100000000E-03 0. -1.
    9900012    2    1    2    0    0  0.18045411760E+02 -0.22481010852E+02  0.32443651423E+02  0.47787271294E+02  0.20000001138E+02 0.  0.
         12    1    1    2    0    0 -0.18045411760E+02  0.22481010852E+02 -0.32443651423E+02  0.43400728706E+02  0.00000000000E+00 0. -1.
         11    1    3    3    0    0  0.12028186628E+02 -0.88646774146E+01  0.47506760991E+01  0.15678925437E+02  0.51100000000E-03 0. -1.
        -11    1    3    3    0    0 -0.66810123112E+00 -0.49843539670E+01  0.11795026161E+02  0.12822354937E+02  0.51100000000E-03 0.  1.
        -12    1    3    3    0    0  0.66853263639E+01 -0.86319794704E+01  0.15897949163E+02  0.19285990920E+02  0.00000000000E+00 0.  1.
</event>
<event>
 7    1  0.2455451E-009  0.4778727E+02  0.7816164E-02  0.1312668E+00
        -11   -1    0    0    0    0  0.00000000000E+00  0.00000000000E+00  0.45593999997E+02  0.45594000000E+02  0.51100000000E-03 0. -1.
         11   -1    0    0    0    0 -0.00000000000E+00 -0.00000000000E+00 -0.45593999997E+02  0.45594000000E+02  0.51100000000E-03 0.  1.
    9900012    2    1    2    0    0 -0.27047713332E+02  0.78343333946E+01 -0.33025259681E+02  0.47787270130E+02  0.19999995833E+02 0.  0.
         12    1    1    2    0    0  0.27047713332E+02 -0.78343333946E+01  0.33025259681E+02  0.43400729870E+02  0.00000000000E+00 0. -1.
         11    1    3    3    0    0 -0.63140701854E+01  0.16406216609E+00  0.26838977565E+00  0.63219009826E+01  0.51100000000E-03 0. -1.
        -11    1    3    3    0    0 -0.15084417169E+02  0.73249259587E+01 -0.15653957367E+02  0.22939933809E+02  0.51100000000E-03 0.  1.
         12    1    3    3    0    0 -0.56492259775E+01  0.34534526979E+00 -0.17639692090E+02  0.18525435339E+02  0.00000000000E+00 0. -1.
</event>
<event>
 7    1  0.2455451E-009  0.4778727E+02  0.7816164E-02  0.1312668E+00
        -11   -1    0    0    0    0  0.00000000000E+00  0.00000000000E+00  0.45593999997E+02  0.45594000000E+02  0.51100000000E-03 0. -1.
         11   -1    0    0    0    0 -0.00000000000E+00 -0.00000000000E+00 -0.45593999997E+02  0.45594000000E+02  0.51100000000E-03 0.  1.
    9900012    2    1    2    0    0 -0.41433773035E+02  0.91476724943E+01 -0.91206278679E+01  0.47787270598E+02  0.19999997963E+02 0.  0.
         12    1    1    2    0    0  0.41433773035E+02 -0.91476724943E+01  0.91206278679E+01  0.43400729402E+02  0.00000000000E+00 0. -1.
         11    1    3    3    0    0 -0.28468995704E+02  0.22107095144E+01 -0.56756276279E+01  0.29113290817E+02  0.51100000000E-03 0. -1.
        -11    1    3    3    0    0 -0.10614865766E+02  0.96487031499E+01 -0.43188787579E+01  0.14980839820E+02  0.51100000000E-03 0.  1.
        -12    1    3    3    0    0 -0.23499115640E+01 -0.27117401700E+01  0.87387851792E+00  0.36931399611E+01  0.00000000000E+00 0.  1.
</event>
<event>
 7    1  0.2455451E-009  0.4778727E+02  0.7816164E-02  0.1312668E+00
        -11   -1    0    0    0    0  0.00000000000E+00  0.00000000000E+00  0.45593999997E+02  0.45594000000E+02  0.51100000000E-03 0.  1.
         11   -1    0    0    0    0 -0.00000000000E+00 -0.00000000000E+00 -0.45593999997E+02  0.45594000000E+02  0.51100000000E-03 0. -1.
    9900012    2    1    2    0    0 -0.31605851171E+02  0.86112252014E+01  0.28469988914E+02  0.47787270784E+02  0.19999998812E+02 0.  0.
         12    1    1    2    0    0  0.31605851171E+02 -0.86112252014E+01 -0.28469988914E+02  0.43400729216E+02  0.00000000000E+00 0. -1.
         11    1    3    3    0    0 -0.18227305500E+02 -0.23740701292E+01  0.19818081016E+02  0.27030116725E+02  0.51100000000E-03 0. -1.
        -11    1    3    3    0    0 -0.10423913506E+02  0.97617686214E+01  0.35169276996E+01  0.14707782977E+02  0.51100000000E-03 0.  1.
        -12    1    3    3    0    0 -0.29546321654E+01  0.12235267091E+01  0.51349801993E+01  0.60493710820E+01  0.00000000000E+00 0.  1.
</event>
<event>
 7    1  0.2455451E-009  0.4778727E+02  0.7816164E-02  0.1312668E+00
        -11   -1    0    0    0    0  0.00000000000E+00  0.00000000000E+00  0.45593999997E+02  0.45594000000E+02  0.51100000000E-03 0.  1.
         11   -1    0    0    0    0 -0.00000000000E+00 -0.00000000000E+00 -0.45593999997E+02  0.45594000000E+02  0.51100000000E-03 0. -1.
    9900012    2    1    2    0    0 -0.17073717041E+02  0.13131094768E+02  0.37678718078E+02  0.47787271211E+02  0.20000000760E+02 0.  0.
         12    1    1    2    0    0  0.17073717041E+02 -0.13131094768E+02 -0.37678718078E+02  0.43400728789E+02  0.00000000000E+00 0. -1.
         11    1    3    3    0    0 -0.86905901494E+01  0.22016921616E+01  0.28196135712E+01  0.93980863197E+01  0.51100000000E-03 0. -1.
        -11    1    3    3    0    0 -0.90429085369E+01  0.95423047717E+01  0.23505137786E+02  0.26931789353E+02  0.51100000000E-03 0.  1.
         12    1    3    3    0    0  0.65978164526E+00  0.13870978344E+01  0.11353966721E+02  0.11457395538E+02  0.00000000000E+00 0. -1.
</event>
<event>
 7    1  0.2455451E-009  0.4778727E+02  0.7816164E-02  0.1312668E+00
        -11   -1    0    0    0    0  0.00000000000E+00  0.00000000000E+00  0.45593999997E+02  0.45594000000E+02  0.51100000000E-03 0. -1.
         11   -1    0    0    0    0 -0.00000000000E+00 -0.00000000000E+00 -0.45593999997E+02  0.45594000000E+02  0.51100000000E-03 0.  1.
    9900012    2    1    2    0    0  0.36056596141E+02 -0.22959882664E+02 -0.75092853050E+01  0.47787266101E+02  0.19999977460E+02 0.  0.
         12    1    1    2    0    0 -0.36056596141E+02  0.22959882664E+02  0.75092853050E+01  0.43400733899E+02  0.00000000000E+00 0. -1.
         11    1    3    3    0    0  0.22128525298E+01 -0.10641808809E+02 -0.15225566230E+00  0.10870510250E+02  0.51100000000E-03 0. -1.
        -11    1    3    3    0    0  0.13478829404E+02 -0.40789180426E+01 -0.43774547491E+01  0.14747153110E+02  0.51100000000E-03 0.  1.
         12    1    3    3    0    0  0.20364914207E+02 -0.82391558120E+01 -0.29795748936E+01  0.22169602741E+02  0.00000000000E+00 0. -1.
</event>
<event>
 7    1  0.2455451E-009  0.4778723E+02  0.7816164E-02  0.1312668E+00
        -11   -1    0    0    0    0  0.00000000000E+00  0.00000000000E+00  0.45593999997E+02  0.45594000000E+02  0.51100000000E-03 0.  1.
         11   -1    0    0    0    0 -0.00000000000E+00 -0.00000000000E+00 -0.45593999997E+02  0.45594000000E+02  0.51100000000E-03 0. -1.
    9900012    2    1    2    0    0 -0.24757571492E+02 -0.33515051207E+02  0.12142106785E+02  0.47787230874E+02  0.19999816844E+02 0.  0.
         12    1    1    2    0    0  0.24757571492E+02  0.33515051207E+02 -0.12142106785E+02  0.43400769126E+02  0.00000000000E+00 0. -1.
         11    1    3    3    0    0 -0.99126222909E+01 -0.69582398957E+01  0.10939040377E+02  0.16319919968E+02  0.51100000000E-03 0. -1.
        -11    1    3    3    0    0 -0.14737382486E+02 -0.25406798944E+02 -0.53957610838E+00  0.29376640682E+02  0.51100000000E-03 0.  1.
        -12    1    3    3    0    0 -0.10756671529E+00 -0.11500123669E+01  0.17426425166E+01  0.20906702234E+01  0.00000000000E+00 0.  1.
</event>
<event>
 7    1  0.2455451E-009  0.4778728E+02  0.7816164E-02  0.1312668E+00
        -11   -1    0    0    0    0  0.00000000000E+00  0.00000000000E+00  0.45593999997E+02  0.45594000000E+02  0.51100000000E-03 0.  1.
         11   -1    0    0    0    0 -0.00000000000E+00 -0.00000000000E+00 -0.45593999997E+02  0.45594000000E+02  0.51100000000E-03 0. -1.
    9900012    2    1    2    0    0  0.11747876308E+02  0.24240262957E+02  0.34029689152E+02  0.47787277774E+02  0.20000030682E+02 0.  0.
         12    1    1    2    0    0 -0.11747876308E+02 -0.24240262957E+02 -0.34029689152E+02  0.43400722226E+02  0.00000000000E+00 0. -1.
         11    1    3    3    0    0  0.16527628127E+01  0.50444081923E+01  0.19822340791E+01  0.56662978329E+01  0.51100000000E-03 0. -1.
        -11    1    3    3    0    0  0.37300133311E+01 -0.20151317705E+01  0.17350726566E+01  0.45808550389E+01  0.51100000000E-03 0.  1.
        -12    1    3    3    0    0  0.63651001646E+01  0.21210986536E+02  0.30312382416E+02  0.37540124902E+02  0.00000000000E+00 0.  1.
</event>
<event>
 7    1  0.2455451E-009  0.4778727E+02  0.7816164E-02  0.1312668E+00
        -11   -1    0    0    0    0  0.00000000000E+00  0.00000000000E+00  0.45593999997E+02  0.45594000000E+02  0.51100000000E-03 0.  1.
         11   -1    0    0    0    0 -0.00000000000E+00 -0.00000000000E+00 -0.45593999997E+02  0.45594000000E+02  0.51100000000E-03 0. -1.
    9900012    2    1    2    0    0  0.29433420559E+02 -0.22791119829E+02  0.22312818998E+02  0.47787270969E+02  0.19999999654E+02 0.  0.
         12    1    1    2    0    0 -0.29433420559E+02  0.22791119829E+02 -0.22312818998E+02  0.43400729031E+02  0.00000000000E+00 0. -1.
         11    1    3    3    0    0  0.14090302426E+02 -0.17396441038E+02  0.18640626469E+02  0.29131524825E+02  0.51100000000E-03 0. -1.
        -11    1    3    3    0    0  0.12577580259E+02 -0.56809491372E+01 -0.30343904147E+00  0.13804375530E+02  0.51100000000E-03 0.  1.
        -12    1    3    3    0    0  0.27655378741E+01  0.28627034590E+00  0.39756315705E+01  0.48513706134E+01  0.00000000000E+00 0.  1.
</event>
<event>
 7    1  0.2455451E-009  0.4778727E+02  0.7816164E-02  0.1312668E+00
        -11   -1    0    0    0    0  0.00000000000E+00  0.00000000000E+00  0.45593999997E+02  0.45594000000E+02  0.51100000000E-03 0. -1.
         11   -1    0    0    0    0 -0.00000000000E+00 -0.00000000000E+00 -0.45593999997E+02  0.45594000000E+02  0.51100000000E-03 0.  1.
    9900012    2    1    2    0    0 -0.32921953521E+02  0.27800132747E+02 -0.51885600464E+01  0.47787267751E+02  0.19999984985E+02 0.  0.
         12    1    1    2    0    0  0.32921953521E+02 -0.27800132747E+02  0.51885600464E+01  0.43400732249E+02  0.00000000000E+00 0. -1.
         11    1    3    3    0    0 -0.15130216643E+02  0.38091631477E+01 -0.57510323149E+01  0.16628516245E+02  0.51100000000E-03 0. -1.
        -11    1    3    3    0    0 -0.88689388298E+00  0.73377526988E+01 -0.47388840139E+00  0.74063328244E+01  0.51100000000E-03 0.  1.
         12    1    3    3    0    0 -0.16904842995E+02  0.16653216900E+02  0.10363606699E+01  0.23752418682E+02  0.00000000000E+00 0. -1.
</event>
<event>
 7    1  0.2455451E-009  0.4778727E+02  0.7816164E-02  0.1312668E+00
        -11   -1    0    0    0    0  0.00000000000E+00  0.00000000000E+00  0.45593999997E+02  0.45594000000E+02  0.51100000000E-03 0. -1.
         11   -1    0    0    0    0 -0.00000000000E+00 -0.00000000000E+00 -0.45593999997E+02  0.45594000000E+02  0.51100000000E-03 0.  1.
    9900012    2    1    2    0    0  0.27153885881E+02  0.16876157888E+02 -0.29351063091E+02  0.47787272724E+02  0.20000007659E+02 0.  0.
         12    1    1    2    0    0 -0.27153885881E+02 -0.16876157888E+02  0.29351063091E+02  0.43400727276E+02  0.00000000000E+00 0. -1.
         11    1    3    3    0    0  0.81175945752E+00 -0.60394786847E+00 -0.15695719973E+01  0.18674214737E+01  0.51100000000E-03 0. -1.
        -11    1    3    3    0    0  0.79054891387E+01 -0.33005392885E+01 -0.87517854332E+01  0.12246798220E+02  0.51100000000E-03 0.  1.
        -12    1    3    3    0    0  0.18436637284E+02  0.20780645045E+02 -0.19029705661E+02  0.33673053030E+02  0.00000000000E+00 0.  1.
</event>
<event>
 7    1  0.2455451E-009  0.4778728E+02  0.7816164E-02  0.1312668E+00
        -11   -1    0    0    0    0  0.00000000000E+00  0.00000000000E+00  0.45593999997E+02  0.45594000000E+02  0.51100000000E-03 0.  1.
         11   -1    0    0    0    0 -0.00000000000E+00 -0.00000000000E+00 -0.45593999997E+02  0.45594000000E+02  0.51100000000E-03 0. -1.
    9900012    2    1    2    0    0  0.19311272719E+02  0.84536189572E+00  0.38858497137E+02  0.47787277765E+02  0.20000030644E+02 0.  0.
         12    1    1    2    0    0 -0.19311272719E+02 -0.84536189572E+00 -0.38858497137E+02  0.43400722235E+02  0.00000000000E+00 0. -1.
         11    1    3    3    0    0  0.44026287903E+01  0.82498083345E+01  0.17805801623E+02  0.20111913124E+02  0.51100000000E-03 0. -1.
        -11    1    3    3    0    0  0.48761591354E+01 -0.60855587370E+01  0.10163957219E+02  0.12810814949E+02  0.51100000000E-03 0.  1.
         12    1    3    3    0    0  0.10032484793E+02 -0.13188877018E+01  0.10888738295E+02  0.14864549692E+02  0.00000000000E+00 0. -1.
</event>
<event>
 7    1  0.2455451E-009  0.4778726E+02  0.7816164E-02  0.1312668E+00
        -11   -1    0    0    0    0  0.00000000000E+00  0.00000000000E+00  0.45593999997E+02  0.45594000000E+02  0.51100000000E-03 0.  1.
         11   -1    0    0    0    0 -0.00000000000E+00 -0.00000000000E+00 -0.45593999997E+02  0.45594000000E+02  0.51100000000E-03 0. -1.
    9900012    2    1    2    0    0 -0.41034974062E+02 -0.13468444410E+02 -0.42844365949E+01  0.47787257057E+02  0.19999936225E+02 0.  0.
         12    1    1    2    0    0  0.41034974062E+02  0.13468444410E+02  0.42844365949E+01  0.43400742943E+02  0.00000000000E+00 0. -1.
         11    1    3    3    0    0 -0.19395245425E+01  0.13027823164E+01  0.47311105857E+00  0.23838690295E+01  0.51100000000E-03 0. -1.
        -11    1    3    3    0    0 -0.97071405467E+01 -0.92108712323E+01  0.44603926668E+01  0.14105453890E+02  0.51100000000E-03 0.  1.
        -12    1    3    3    0    0 -0.29388308973E+02 -0.55603554943E+01 -0.92179403203E+01  0.31297934137E+02  0.00000000000E+00 0.  1.
</event>
<event>
 7    1  0.2455451E-009  0.4778727E+02  0.7816164E-02  0.1312668E+00
        -11   -1    0    0    0    0  0.00000000000E+00  0.00000000000E+00  0.45593999997E+02  0.45594000000E+02  0.51100000000E-03 0. -1.
         11   -1    0    0    0    0 -0.00000000000E+00 -0.00000000000E+00 -0.45593999997E+02  0.45594000000E+02  0.51100000000E-03 0.  1.
    9900012    2    1    2    0    0  0.42392243109E+01 -0.15068113083E+02 -0.40479678246E+02  0.47787269527E+02  0.19999993083E+02 0.  0.
         12    1    1    2    0    0 -0.42392243109E+01  0.15068113083E+02  0.40479678246E+02  0.43400730473E+02  0.00000000000E+00 0. -1.
         11    1    3    3    0    0 -0.23428154983E+01 -0.68823768784E+01 -0.29745846195E+01  0.78551925422E+01  0.51100000000E-03 0. -1.
        -11    1    3    3    0    0  0.16136464206E-01 -0.51421384912E+01 -0.24642762137E+02  0.25173549108E+02  0.51100000000E-03 0.  1.
         12    1    3    3    0    0  0.65659033449E+01 -0.30435977135E+01 -0.12862331489E+02  0.14758527878E+02  0.00000000000E+00 0. -1.
</event>
<event>
 7    1  0.2455451E-009  0.4778727E+02  0.7816164E-02  0.1312668E+00
        -11   -1    0    0    0    0  0.00000000000E+00  0.00000000000E+00  0.45593999997E+02  0.45594000000E+02  0.51100000000E-03 0.  1.
         11   -1    0    0    0    0 -0.00000000000E+00 -0.00000000000E+00 -0.45593999997E+02  0.45594000000E+02  0.51100000000E-03 0. -1.
    9900012    2    1    2    0    0 -0.14428337051E+02  0.70359950958E+01  0.40322958728E+02  0.47787272615E+02  0.20000007159E+02 0.  0.
         12    1    1    2    0    0  0.14428337051E+02 -0.70359950958E+01 -0.40322958728E+02  0.43400727385E+02  0.00000000000E+00 0. -1.
         11    1    3    3    0    0  0.16735446765E+01 -0.24888438536E+01  0.55965414811E+00  0.30509520709E+01  0.51100000000E-03 0. -1.
        -11    1    3    3    0    0 -0.36953584851E+01  0.75903329332E-02  0.15007637566E+02  0.15455902352E+02  0.51100000000E-03 0.  1.
         12    1    3    3    0    0 -0.12406523242E+02  0.95172486164E+01  0.24755667014E+02  0.29280418191E+02  0.00000000000E+00 0. -1.
</event>
<event>
 7    1  0.2455451E-009  0.4778727E+02  0.7816164E-02  0.1312668E+00
        -11   -1    0    0    0    0  0.00000000000E+00  0.00000000000E+00  0.45593999997E+02  0.45594000000E+02  0.51100000000E-03 0.  1.
         11   -1    0    0    0    0 -0.00000000000E+00 -0.00000000000E+00 -0.45593999997E+02  0.45594000000E+02  0.51100000000E-03 0. -1.
    9900012    2    1    2    0    0  0.21754429915E+02 -0.27880518342E+02  0.25160388298E+02  0.47787266558E+02  0.19999979546E+02 0.  0.
         12    1    1    2    0    0 -0.21754429915E+02  0.27880518342E+02 -0.25160388298E+02  0.43400733442E+02  0.00000000000E+00 0. -1.
         11    1    3    3    0    0  0.20938310368E+01 -0.34260077112E+01  0.75463392756E+00  0.40854779248E+01  0.51100000000E-03 0.  1.
        -11    1    3    3    0    0  0.10500288015E+02 -0.24763796545E+02  0.16200046245E+02  0.31399731946E+02  0.51100000000E-03 0. -1.
         12    1    3    3    0    0  0.91603108633E+01  0.30928591380E+00  0.82057081264E+01  0.12302056688E+02  0.00000000000E+00 0. -1.
</event>
<event>
 7    1  0.2455451E-009  0.4778727E+02  0.7816164E-02  0.1312668E+00
        -11   -1    0    0    0    0  0.00000000000E+00  0.00000000000E+00  0.45593999997E+02  0.45594000000E+02  0.51100000000E-03 0. -1.
         11   -1    0    0    0    0 -0.00000000000E+00 -0.00000000000E+00 -0.45593999997E+02  0.45594000000E+02  0.51100000000E-03 0.  1.
    9900012    2    1    2    0    0 -0.86371808931E+01  0.19736706290E+02 -0.37676049259E+02  0.47787272394E+02  0.20000006154E+02 0.  0.
         12    1    1    2    0    0  0.86371808931E+01 -0.19736706290E+02  0.37676049259E+02  0.43400727606E+02  0.00000000000E+00 0. -1.
         11    1    3    3    0    0 -0.14626605359E+00 -0.12627026897E+01  0.12688565302E+01  0.17960537287E+01  0.51100000000E-03 0. -1.
        -11    1    3    3    0    0 -0.48357063684E+01  0.11902061328E+02 -0.30334657293E+02  0.32942898374E+02  0.51100000000E-03 0.  1.
        -12    1    3    3    0    0 -0.36552084711E+01  0.90973476518E+01 -0.86102484959E+01  0.13048320291E+02  0.00000000000E+00 0.  1.
</event>
<event>
 7    1  0.2455451E-009  0.4778727E+02  0.7816164E-02  0.1312668E+00
        -11   -1    0    0    0    0  0.00000000000E+00  0.00000000000E+00  0.45593999997E+02  0.45594000000E+02  0.51100000000E-03 0.  1.
         11   -1    0    0    0    0 -0.00000000000E+00 -0.00000000000E+00 -0.45593999997E+02  0.45594000000E+02  0.51100000000E-03 0. -1.
    9900012    2    1    2    0    0  0.42422771311E+02 -0.25635446936E+01  0.87954433612E+01  0.47787272921E+02  0.20000008555E+02 0.  0.
         12    1    1    2    0    0 -0.42422771311E+02  0.25635446936E+01 -0.87954433612E+01  0.43400727079E+02  0.00000000000E+00 0. -1.
         11    1    3    3    0    0  0.35955742261E+01 -0.64289570491E+00 -0.17856715111E+01  0.40657215731E+01  0.51100000000E-03 0. -1.
        -11    1    3    3    0    0  0.15365668388E+02 -0.83048787558E+01  0.71365640481E+00  0.17480963414E+02  0.51100000000E-03 0.  1.
        -12    1    3    3    0    0  0.23461528696E+02  0.63842297672E+01  0.98674584675E+01  0.26240587934E+02  0.00000000000E+00 0.  1.
</event>
<event>
 7    1  0.2455451E-009  0.4778728E+02  0.7816164E-02  0.1312668E+00
        -11   -1    0    0    0    0  0.00000000000E+00  0.00000000000E+00  0.45593999997E+02  0.45594000000E+02  0.51100000000E-03 0.  1.
         11   -1    0    0    0    0 -0.00000000000E+00 -0.00000000000E+00 -0.45593999997E+02  0.45594000000E+02  0.51100000000E-03 0. -1.
    9900012    2    1    2    0    0  0.32219528227E+02 -0.13727226111E+02  0.25633730503E+02  0.47787275635E+02  0.20000020930E+02 0.  0.
         12    1    1    2    0    0 -0.32219528227E+02  0.13727226111E+02 -0.25633730503E+02  0.43400724365E+02  0.00000000000E+00 0. -1.
         11    1    3    3    0    0 -0.32141843063E+00 -0.45746833096E+01  0.12451318873E+01  0.47519880964E+01  0.51100000000E-03 0. -1.
        -11    1    3    3    0    0  0.10510036170E+02 -0.79683580983E+01  0.11400154658E+02  0.17433276157E+02  0.51100000000E-03 0.  1.
        -12    1    3    3    0    0  0.22030910488E+02 -0.11841847033E+01  0.12988443958E+02  0.25602011382E+02  0.00000000000E+00 0.  1.
</event>
<event>
 7    1  0.2455451E-009  0.4778727E+02  0.7816164E-02  0.1312668E+00
        -11   -1    0    0    0    0  0.00000000000E+00  0.00000000000E+00  0.45593999997E+02  0.45594000000E+02  0.51100000000E-03 0. -1.
         11   -1    0    0    0    0 -0.00000000000E+00 -0.00000000000E+00 -0.45593999997E+02  0.45594000000E+02  0.51100000000E-03 0.  1.
    9900012    2    1    2    0    0 -0.28600900760E+02  0.32368735987E+02  0.42281290532E+01  0.47787266493E+02  0.19999979247E+02 0.  0.
         12    1    1    2    0    0  0.28600900760E+02 -0.32368735987E+02 -0.42281290532E+01  0.43400733507E+02  0.00000000000E+00 0. -1.
         11    1    3    3    0    0 -0.65456964777E-01 -0.20975949956E+01  0.87569963434E+00  0.22739919724E+01  0.51100000000E-03 0. -1.
        -11    1    3    3    0    0 -0.15879065630E+02  0.18532594701E+02  0.56049836222E+01  0.25040320152E+02  0.51100000000E-03 0.  1.
         12    1    3    3    0    0 -0.12656378165E+02  0.15933736281E+02 -0.22525542034E+01  0.20472954368E+02  0.00000000000E+00 0. -1.
</event>
<event>
 7    1  0.2455451E-009  0.4778727E+02  0.7816164E-02  0.1312668E+00
        -11   -1    0    0    0    0  0.00000000000E+00  0.00000000000E+00  0.45593999997E+02  0.45594000000E+02  0.51100000000E-03 0. -1.
         11   -1    0    0    0    0 -0.00000000000E+00 -0.00000000000E+00 -0.45593999997E+02  0.45594000000E+02  0.51100000000E-03 0.  1.
    9900012    2    1    2    0    0 -0.28717789176E+02  0.13501518968E+02 -0.29607786424E+02  0.47787269055E+02  0.19999990932E+02 0.  0.
         12    1    1    2    0    0  0.28717789176E+02 -0.13501518968E+02  0.29607786424E+02  0.43400730945E+02  0.00000000000E+00 0. -1.
         11    1    3    3    0    0 -0.12676318527E+01 -0.31610715528E+00 -0.18227020089E+00  0.13191045959E+01  0.51100000000E-03 0. -1.
        -11    1    3    3    0    0 -0.68428585869E+01  0.10687215053E+02 -0.19780081600E+02  0.23500912910E+02  0.51100000000E-03 0.  1.
        -12    1    3    3    0    0 -0.20607298736E+02  0.31304110701E+01 -0.96454346227E+01  0.22967251549E+02  0.00000000000E+00 0.  1.
</event>
<event>
 7    1  0.2455451E-009  0.4778727E+02  0.7816164E-02  0.1312668E+00
        -11   -1    0    0    0    0  0.00000000000E+00  0.00000000000E+00  0.45593999997E+02  0.45594000000E+02  0.51100000000E-03 0.  1.
         11   -1    0    0    0    0 -0.00000000000E+00 -0.00000000000E+00 -0.45593999997E+02  0.45594000000E+02  0.51100000000E-03 0. -1.
    9900012    2    1    2    0    0  0.50162647032E+01 -0.18836397573E+02  0.38776935342E+02  0.47787268443E+02  0.19999988140E+02 0.  0.
         12    1    1    2    0    0 -0.50162647032E+01  0.18836397573E+02 -0.38776935342E+02  0.43400731557E+02  0.00000000000E+00 0. -1.
         11    1    3    3    0    0  0.33498260413E+01 -0.36605519207E+01  0.75289460749E+00  0.50187473958E+01  0.51100000000E-03 0. -1.
        -11    1    3    3    0    0 -0.34943550270E+01 -0.13167778407E+02  0.30695994049E+02  0.33583402986E+02  0.51100000000E-03 0.  1.
        -12    1    3    3    0    0  0.51607936889E+01 -0.20080672455E+01  0.73280466860E+01  0.91851180610E+01  0.00000000000E+00 0.  1.
</event>
<event>
 7    1  0.2455451E-009  0.4778727E+02  0.7816164E-02  0.1312668E+00
        -11   -1    0    0    0    0  0.00000000000E+00  0.00000000000E+00  0.45593999997E+02  0.45594000000E+02  0.51100000000E-03 0.  1.
         11   -1    0    0    0    0 -0.00000000000E+00 -0.00000000000E+00 -0.45593999997E+02  0.45594000000E+02  0.51100000000E-03 0. -1.
    9900012    2    1    2    0    0 -0.35634762183E+02 -0.18798984311E+02  0.16136460407E+02  0.47787269114E+02  0.19999991197E+02 0.  0.
         12    1    1    2    0    0  0.35634762183E+02  0.18798984311E+02 -0.16136460407E+02  0.43400730886E+02  0.00000000000E+00 0. -1.
         11    1    3    3    0    0 -0.77210668005E+01 -0.13554061946E+01  0.71423374364E+01  0.10604950863E+02  0.51100000000E-03 0. -1.
        -11    1    3    3    0    0 -0.21742362570E+02 -0.54864136503E+01  0.37228440242E+01  0.22730830006E+02  0.51100000000E-03 0.  1.
        -12    1    3    3    0    0 -0.61713328126E+01 -0.11957164466E+02  0.52712789468E+01  0.14451488245E+02  0.00000000000E+00 0.  1.
</event>
<event>
 7    1  0.2455451E-009  0.4778727E+02  0.7816164E-02  0.1312668E+00
        -11   -1    0    0    0    0  0.00000000000E+00  0.00000000000E+00  0.45593999997E+02  0.45594000000E+02  0.51100000000E-03 0.  1.
         11   -1    0    0    0    0 -0.00000000000E+00 -0.00000000000E+00 -0.45593999997E+02  0.45594000000E+02  0.51100000000E-03 0. -1.
    9900012    2    1    2    0    0  0.39915122854E+00 -0.41143676022E+02  0.13808040585E+02  0.47787269787E+02  0.19999994265E+02 0.  0.
         12    1    1    2    0    0 -0.39915122854E+00  0.41143676022E+02 -0.13808040585E+02  0.43400730213E+02  0.00000000000E+00 0. -1.
         11    1    3    3    0    0 -0.45687495303E+01 -0.49695855065E+01 -0.14485627938E+01  0.69042441154E+01  0.51100000000E-03 0. -1.
        -11    1    3    3    0    0  0.21250173708E+01 -0.17366058026E+02  0.12854619460E+02  0.21710295067E+02  0.51100000000E-03 0.  1.
         12    1    3    3    0    0  0.28428833880E+01 -0.18808032489E+02  0.24019839186E+01  0.19172730604E+02  0.00000000000E+00 0. -1.
</event>
<event>
 7    1  0.2455451E-009  0.4778728E+02  0.7816164E-02  0.1312668E+00
        -11   -1    0    0    0    0  0.00000000000E+00  0.00000000000E+00  0.45593999997E+02  0.45594000000E+02  0.51100000000E-03 0.  1.
         11   -1    0    0    0    0 -0.00000000000E+00 -0.00000000000E+00 -0.45593999997E+02  0.45594000000E+02  0.51100000000E-03 0. -1.
    9900012    2    1    2    0    0 -0.64040959260E+00 -0.31833925291E+02  0.29492608314E+02  0.47787275708E+02  0.20000021263E+02 0.  0.
         12    1    1    2    0    0  0.64040959260E+00  0.31833925291E+02 -0.29492608314E+02  0.43400724292E+02  0.00000000000E+00 0. -1.
         11    1    3    3    0    0  0.58438780551E+01 -0.97512704310E+01  0.19727580107E+01  0.11538195707E+02  0.51100000000E-03 0. -1.
        -11    1    3    3    0    0 -0.36122971364E+01 -0.15426380879E+02  0.15207903192E+02  0.21961380590E+02  0.51100000000E-03 0.  1.
         12    1    3    3    0    0 -0.28719905114E+01 -0.66562739811E+01  0.12311947111E+02  0.14287699411E+02  0.00000000000E+00 0. -1.
</event>
<event>
 7    1  0.2455451E-009  0.4778727E+02  0.7816164E-02  0.1312668E+00
        -11   -1    0    0    0    0  0.00000000000E+00  0.00000000000E+00  0.45593999997E+02  0.45594000000E+02  0.51100000000E-03 0.  1.
         11   -1    0    0    0    0 -0.00000000000E+00 -0.00000000000E+00 -0.45593999997E+02  0.45594000000E+02  0.51100000000E-03 0. -1.
    9900012    2    1    2    0    0  0.10463413161E+02  0.14634866646E+02  0.39496347273E+02  0.47787265161E+02  0.19999973173E+02 0.  0.
         12    1    1    2    0    0 -0.10463413161E+02 -0.14634866646E+02 -0.39496347273E+02  0.43400734839E+02  0.00000000000E+00 0. -1.
         11    1    3    3    0    0 -0.22405532876E+01 -0.13431505801E+01 -0.46982394057E-01  0.26127265685E+01  0.51100000000E-03 0. -1.
        -11    1    3    3    0    0  0.95291958213E+01  0.87617080503E+01  0.30754607657E+02  0.33367933609E+02  0.51100000000E-03 0.  1.
         12    1    3    3    0    0  0.31747706272E+01  0.72163091758E+01  0.87887220095E+01  0.11806604983E+02  0.00000000000E+00 0. -1.
</event>
<event>
 7    1  0.2455451E-009  0.4778727E+02  0.7816164E-02  0.1312668E+00
        -11   -1    0    0    0    0  0.00000000000E+00  0.00000000000E+00  0.45593999997E+02  0.45594000000E+02  0.51100000000E-03 0.  1.
         11   -1    0    0    0    0 -0.00000000000E+00 -0.00000000000E+00 -0.45593999997E+02  0.45594000000E+02  0.51100000000E-03 0. -1.
    9900012    2    1    2    0    0 -0.19782420761E+02 -0.25697422554E+02  0.28843052383E+02  0.47787269961E+02  0.19999995062E+02 0.  0.
         12    1    1    2    0    0  0.19782420761E+02  0.25697422554E+02 -0.28843052383E+02  0.43400730039E+02  0.00000000000E+00 0. -1.
         11    1    3    3    0    0 -0.93950732804E+01 -0.11416067176E+02  0.31591492227E+01  0.15118671098E+02  0.51100000000E-03 0. -1.
        -11    1    3    3    0    0 -0.39867110407E+01 -0.12824613577E+02  0.15041929541E+02  0.20164925561E+02  0.51100000000E-03 0.  1.
         12    1    3    3    0    0 -0.64006364399E+01 -0.14567418017E+01  0.10641973620E+02  0.12503673302E+02  0.00000000000E+00 0. -1.
</event>
<event>
 7    1  0.2455451E-009  0.4778727E+02  0.7816164E-02  0.1312668E+00
        -11   -1    0    0    0    0  0.00000000000E+00  0.00000000000E+00  0.45593999997E+02  0.45594000000E+02  0.51100000000E-03 0. -1.
         11   -1    0    0    0    0 -0.00000000000E+00 -0.00000000000E+00 -0.45593999997E+02  0.45594000000E+02  0.51100000000E-03 0.  1.
    9900012    2    1    2    0    0  0.75905142736E+01  0.40342706047E+02 -0.14088069534E+02  0.47787267963E+02  0.19999985952E+02 0.  0.
         12    1    1    2    0    0 -0.75905142736E+01 -0.40342706047E+02  0.14088069534E+02  0.43400732037E+02  0.00000000000E+00 0. -1.
         11    1    3    3    0    0 -0.37979753541E+00  0.90152617517E+01 -0.96836865881E+01  0.13236048384E+02  0.51100000000E-03 0. -1.
        -11    1    3    3    0    0  0.68821661096E+01  0.31519957805E+02 -0.57909760418E+01  0.32778153611E+02  0.51100000000E-03 0.  1.
         12    1    3    3    0    0  0.10881456994E+01 -0.19251350998E+00  0.13865930956E+01  0.17730659682E+01  0.00000000000E+00 0. -1.
</event>
<event>
 7    1  0.2455451E-009  0.4778728E+02  0.7816164E-02  0.1312668E+00
        -11   -1    0    0    0    0  0.00000000000E+00  0.00000000000E+00  0.45593999997E+02  0.45594000000E+02  0.51100000000E-03 0.  1.
         11   -1    0    0    0    0 -0.00000000000E+00 -0.00000000000E+00 -0.45593999997E+02  0.45594000000E+02  0.51100000000E-03 0. -1.
    9900012    2    1    2    0    0  0.21980189792E+02 -0.34267060840E+02  0.15042018628E+02  0.47787279657E+02  0.20000039269E+02 0.  0.
         12    1    1    2    0    0 -0.21980189792E+02  0.34267060840E+02 -0.15042018628E+02  0.43400720343E+02  0.00000000000E+00 0. -1.
         11    1    3    3    0    0  0.13977370855E+02 -0.56319215218E+01  0.51383406005E+01  0.15921305864E+02  0.51100000000E-03 0. -1.
        -11    1    3    3    0    0  0.20919942554E+01 -0.22838661844E+01 -0.11721010964E-01  0.30971958860E+01  0.51100000000E-03 0.  1.
         12    1    3    3    0    0  0.59108246818E+01 -0.26351273133E+02  0.99153990382E+01  0.28768777907E+02  0.00000000000E+00 0. -1.
</event>
<event>
 7    1  0.2455451E-009  0.4778730E+02  0.7816164E-02  0.1312668E+00
        -11   -1    0    0    0    0  0.00000000000E+00  0.00000000000E+00  0.45593999997E+02  0.45594000000E+02  0.51100000000E-03 0.  1.
         11   -1    0    0    0    0 -0.00000000000E+00 -0.00000000000E+00 -0.45593999997E+02  0.45594000000E+02  0.51100000000E-03 0. -1.
    9900012    2    1    2    0    0 -0.26854125659E+02  0.31198311531E+02  0.13752907682E+02  0.47787295202E+02  0.20000110144E+02 0.  0.
         12    1    1    2    0    0  0.26854125659E+02 -0.31198311531E+02 -0.13752907682E+02  0.43400704798E+02  0.00000000000E+00 0. -1.
         11    1    3    3    0    0  0.22121069254E+01  0.55764622509E+01  0.42257867812E+00  0.60140602995E+01  0.51100000000E-03 0. -1.
        -11    1    3    3    0    0 -0.60947289060E+01  0.68126426532E+01  0.67499387479E+01  0.11363075892E+02  0.51100000000E-03 0.  1.
         12    1    3    3    0    0 -0.22971503678E+02  0.18809206627E+02  0.65803902556E+01  0.30410159011E+02  0.00000000000E+00 0. -1.
</event>
<event>
 7    1  0.2455451E-009  0.4778727E+02  0.7816164E-02  0.1312668E+00
        -11   -1    0    0    0    0  0.00000000000E+00  0.00000000000E+00  0.45593999997E+02  0.45594000000E+02  0.51100000000E-03 0.  1.
         11   -1    0    0    0    0 -0.00000000000E+00 -0.00000000000E+00 -0.45593999997E+02  0.45594000000E+02  0.51100000000E-03 0. -1.
    9900012    2    1    2    0    0 -0.38970925899E+02 -0.75755675893E+01  0.17535707414E+02  0.47787270465E+02  0.19999997357E+02 0.  0.
         12    1    1    2    0    0  0.38970925899E+02  0.75755675893E+01 -0.17535707414E+02  0.43400729535E+02  0.00000000000E+00 0. -1.
         11    1    3    3    0    0 -0.18688687823E+02 -0.94411096799E+01  0.33457500736E+01  0.21203670634E+02  0.51100000000E-03 0. -1.
        -11    1    3    3    0    0 -0.14616234568E+02 -0.10084545760E+01  0.51404445956E+01  0.15526605054E+02  0.51100000000E-03 0.  1.
         12    1    3    3    0    0 -0.56660035068E+01  0.28739966666E+01  0.90495127447E+01  0.11056994777E+02  0.00000000000E+00 0. -1.
</event>
<event>
 7    1  0.2455451E-009  0.4778727E+02  0.7816164E-02  0.1312668E+00
        -11   -1    0    0    0    0  0.00000000000E+00  0.00000000000E+00  0.45593999997E+02  0.45594000000E+02  0.51100000000E-03 0. -1.
         11   -1    0    0    0    0 -0.00000000000E+00 -0.00000000000E+00 -0.45593999997E+02  0.45594000000E+02  0.51100000000E-03 0.  1.
    9900012    2    1    2    0    0 -0.16171671867E+02 -0.26414831370E+02 -0.30403239666E+02  0.47787271095E+02  0.20000000229E+02 0.  0.
         12    1    1    2    0    0  0.16171671867E+02  0.26414831370E+02  0.30403239666E+02  0.43400728905E+02  0.00000000000E+00 0. -1.
         11    1    3    3    0    0  0.76822658663E+00 -0.12487946240E+02 -0.14081966515E+02  0.18837217273E+02  0.51100000000E-03 0.  1.
        -11    1    3    3    0    0 -0.13291548632E+02 -0.48855414414E+01 -0.96855028609E+01  0.17156419969E+02  0.51100000000E-03 0. -1.
         12    1    3    3    0    0 -0.36483498219E+01 -0.90413436887E+01 -0.66357702900E+01  0.11793633853E+02  0.00000000000E+00 0. -1.
</event>
<event>
 7    1  0.2455451E-009  0.4778727E+02  0.7816164E-02  0.1312668E+00
        -11   -1    0    0    0    0  0.00000000000E+00  0.00000000000E+00  0.45593999997E+02  0.45594000000E+02  0.51100000000E-03 0.  1.
         11   -1    0    0    0    0 -0.00000000000E+00 -0.00000000000E+00 -0.45593999997E+02  0.45594000000E+02  0.51100000000E-03 0. -1.
    9900012    2    1    2    0    0  0.13059651202E+02 -0.36519031215E+02  0.19478935312E+02  0.47787273609E+02  0.20000011691E+02 0.  0.
         12    1    1    2    0    0 -0.13059651202E+02  0.36519031215E+02 -0.19478935312E+02  0.43400726391E+02  0.00000000000E+00 0. -1.
         11    1    3    3    0    0  0.75213001082E+01 -0.11053724999E+02  0.82356488487E+00  0.13395262261E+02  0.51100000000E-03 0. -1.
        -11    1    3    3    0    0  0.63824619562E+01 -0.24084230336E+02  0.20259759756E+02  0.32112985491E+02  0.51100000000E-03 0.  1.
         12    1    3    3    0    0 -0.84411086270E+00 -0.13810758797E+01 -0.16043893289E+01  0.22790258561E+01  0.00000000000E+00 0. -1.
</event>
<event>
 7    1  0.2455451E-009  0.4778727E+02  0.7816164E-02  0.1312668E+00
        -11   -1    0    0    0    0  0.00000000000E+00  0.00000000000E+00  0.45593999997E+02  0.45594000000E+02  0.51100000000E-03 0.  1.
         11   -1    0    0    0    0 -0.00000000000E+00 -0.00000000000E+00 -0.45593999997E+02  0.45594000000E+02  0.51100000000E-03 0. -1.
    9900012    2    1    2    0    0 -0.22611456740E+02  0.27619011055E+02  0.24688773160E+02  0.47787271115E+02  0.20000000321E+02 0.  0.
         12    1    1    2    0    0  0.22611456740E+02 -0.27619011055E+02 -0.24688773160E+02  0.43400728885E+02  0.00000000000E+00 0. -1.
         11    1    3    3    0    0 -0.41905217180E+01  0.18703281386E+02  0.16346598813E+02  0.25190960679E+02  0.51100000000E-03 0. -1.
        -11    1    3    3    0    0 -0.16019865578E+02  0.92669963887E+01  0.79318671415E+01  0.20135238559E+02  0.51100000000E-03 0.  1.
         12    1    3    3    0    0 -0.24010694439E+01 -0.35126671971E+00  0.41030720579E+00  0.24610718775E+01  0.00000000000E+00 0. -1.
</event>
<event>
 7    1  0.2455451E-009  0.4778727E+02  0.7816164E-02  0.1312668E+00
        -11   -1    0    0    0    0  0.00000000000E+00  0.00000000000E+00  0.45593999997E+02  0.45594000000E+02  0.51100000000E-03 0.  1.
         11   -1    0    0    0    0 -0.00000000000E+00 -0.00000000000E+00 -0.45593999997E+02  0.45594000000E+02  0.51100000000E-03 0. -1.
    9900012    2    1    2    0    0 -0.15201386737E+02  0.20049553437E+02  0.35363207975E+02  0.47787271549E+02  0.20000002302E+02 0.  0.
         12    1    1    2    0    0  0.15201386737E+02 -0.20049553437E+02 -0.35363207975E+02  0.43400728451E+02  0.00000000000E+00 0. -1.
         11    1    3    3    0    0  0.89536745789E+00  0.10058814473E+02  0.10461670401E+02  0.14540563240E+02  0.51100000000E-03 0. -1.
        -11    1    3    3    0    0 -0.13535729704E+02  0.65578553402E+01  0.10819860765E+02  0.18528109254E+02  0.51100000000E-03 0.  1.
        -12    1    3    3    0    0 -0.25610244910E+01  0.34328836244E+01  0.14081676809E+02  0.14718599056E+02  0.00000000000E+00 0.  1.
</event>
<event>
 7    1  0.2455451E-009  0.4778727E+02  0.7816164E-02  0.1312668E+00
        -11   -1    0    0    0    0  0.00000000000E+00  0.00000000000E+00  0.45593999997E+02  0.45594000000E+02  0.51100000000E-03 0. -1.
         11   -1    0    0    0    0 -0.00000000000E+00 -0.00000000000E+00 -0.45593999997E+02  0.45594000000E+02  0.51100000000E-03 0.  1.
    9900012    2    1    2    0    0 -0.10367906306E+02  0.38537695608E+02 -0.17058015150E+02  0.47787270227E+02  0.19999996275E+02 0.  0.
         12    1    1    2    0    0  0.10367906306E+02 -0.38537695608E+02  0.17058015150E+02  0.43400729773E+02  0.00000000000E+00 0. -1.
         11    1    3    3    0    0  0.42662661961E+01  0.14145240093E+02 -0.10384767378E+02  0.18059131715E+02  0.51100000000E-03 0. -1.
        -11    1    3    3    0    0 -0.10234687466E+02  0.18998753176E+02 -0.71955929466E+01  0.22748142955E+02  0.51100000000E-03 0.  1.
         12    1    3    3    0    0 -0.43994850361E+01  0.53937023391E+01  0.52234517506E+00  0.69799955579E+01  0.00000000000E+00 0. -1.
</event>
<event>
 7    1  0.2455451E-009  0.4778726E+02  0.7816164E-02  0.1312668E+00
        -11   -1    0    0    0    0  0.00000000000E+00  0.00000000000E+00  0.45593999997E+02  0.45594000000E+02  0.51100000000E-03 0.  1.
         11   -1    0    0    0    0 -0.00000000000E+00 -0.00000000000E+00 -0.45593999997E+02  0.45594000000E+02  0.51100000000E-03 0. -1.
    9900012    2    1    2    0    0 -0.20011812117E+02  0.31529983336E+02  0.22113605866E+02  0.47787262244E+02  0.19999959875E+02 0.  0.
         12    1    1    2    0    0  0.20011812117E+02 -0.31529983336E+02 -0.22113605866E+02  0.43400737756E+02  0.00000000000E+00 0. -1.
         11    1    3    3    0    0 -0.10585822839E+02  0.26853986318E+02  0.15115518985E+02  0.32583356807E+02  0.51100000000E-03 0. -1.
        -11    1    3    3    0    0 -0.97382126763E+01  0.24223714677E+01  0.78847852235E+01  0.12762073027E+02  0.51100000000E-03 0.  1.
         12    1    3    3    0    0  0.31222339798E+00  0.22536255504E+01 -0.88669834235E+00  0.24418324107E+01  0.00000000000E+00 0. -1.
</event>
<event>
 7    1  0.2455451E-009  0.4778727E+02  0.7816164E-02  0.1312668E+00
        -11   -1    0    0    0    0  0.00000000000E+00  0.00000000000E+00  0.45593999997E+02  0.45594000000E+02  0.51100000000E-03 0.  1.
         11   -1    0    0    0    0 -0.00000000000E+00 -0.00000000000E+00 -0.45593999997E+02  0.45594000000E+02  0.51100000000E-03 0. -1.
    9900012    2    1    2    0    0 -0.25333493071E+02  0.96150850135E+01  0.33902617864E+02  0.47787271561E+02  0.20000002356E+02 0.  0.
         12    1    1    2    0    0  0.25333493071E+02 -0.96150850135E+01 -0.33902617864E+02  0.43400728439E+02  0.00000000000E+00 0. -1.
         11    1    3    3    0    0 -0.17003804596E+02 -0.12628633154E+01  0.20262752574E+02  0.26482132403E+02  0.51100000000E-03 0. -1.
        -11    1    3    3    0    0 -0.48282875776E+01  0.15192802783E+01  0.89159420437E+01  0.10252540967E+02  0.51100000000E-03 0.  1.
         12    1    3    3    0    0 -0.35014008970E+01  0.93586680507E+01  0.47239232468E+01  0.11052598191E+02  0.00000000000E+00 0. -1.
</event>
<event>
 7    1  0.2455451E-009  0.4778727E+02  0.7816164E-02  0.1312668E+00
        -11   -1    0    0    0    0  0.00000000000E+00  0.00000000000E+00  0.45593999997E+02  0.45594000000E+02  0.51100000000E-03 0.  1.
         11   -1    0    0    0    0 -0.00000000000E+00 -0.00000000000E+00 -0.45593999997E+02  0.45594000000E+02  0.51100000000E-03 0. -1.
    9900012    2    1    2    0    0 -0.30151225758E+02  0.94309407344E+00  0.31203158835E+02  0.47787274633E+02  0.20000016360E+02 0.  0.
         12    1    1    2    0    0  0.30151225758E+02 -0.94309407344E+00 -0.31203158835E+02  0.43400725367E+02  0.00000000000E+00 0. -1.
         11    1    3    3    0    0 -0.60055550666E+00 -0.26893917987E+01  0.48342528183E+01  0.55644852175E+01  0.51100000000E-03 0. -1.
        -11    1    3    3    0    0 -0.25172544463E+02  0.34194499288E+01  0.13796871902E+02  0.28908533465E+02  0.51100000000E-03 0.  1.
        -12    1    3    3    0    0 -0.43781257887E+01  0.21303594327E+00  0.12572034114E+02  0.13314255950E+02  0.00000000000E+00 0.  1.
</event>
<event>
 7    1  0.2455451E-009  0.4778727E+02  0.7816164E-02  0.1312668E+00
        -11   -1    0    0    0    0  0.00000000000E+00  0.00000000000E+00  0.45593999997E+02  0.45594000000E+02  0.51100000000E-03 0.  1.
         11   -1    0    0    0    0 -0.00000000000E+00 -0.00000000000E+00 -0.45593999997E+02  0.45594000000E+02  0.51100000000E-03 0. -1.
    9900012    2    1    2    0    0  0.41009398199E+02 -0.57997386207E+01 -0.12969789000E+02  0.47787272639E+02  0.20000007272E+02 0.  0.
         12    1    1    2    0    0 -0.41009398199E+02  0.57997386207E+01  0.12969789000E+02  0.43400727361E+02  0.00000000000E+00 0. -1.
         11    1    3    3    0    0  0.37292592786E+01  0.40263452517E+01 -0.36690709506E+01  0.66015841095E+01  0.51100000000E-03 0. -1.
        -11    1    3    3    0    0  0.25066345633E+02 -0.89228042480E+01 -0.11057268025E+02  0.28813213904E+02  0.51100000000E-03 0.  1.
         12    1    3    3    0    0  0.12213793288E+02 -0.90327962438E+00  0.17565499756E+01  0.12372474626E+02  0.00000000000E+00 0. -1.
</event>
<event>
 7    1  0.2455451E-009  0.4778726E+02  0.7816164E-02  0.1312668E+00
        -11   -1    0    0    0    0  0.00000000000E+00  0.00000000000E+00  0.45593999997E+02  0.45594000000E+02  0.51100000000E-03 0. -1.
         11   -1    0    0    0    0 -0.00000000000E+00 -0.00000000000E+00 -0.45593999997E+02  0.45594000000E+02  0.51100000000E-03 0.  1.
    9900012    2    1    2    0    0  0.92367712113E+01 -0.41702598221E+02 -0.76941080476E+01  0.47787263377E+02  0.19999965040E+02 0.  0.
         12    1    1    2    0    0 -0.92367712113E+01  0.41702598221E+02  0.76941080476E+01  0.43400736623E+02  0.00000000000E+00 0. -1.
         11    1    3    3    0    0  0.22925098516E+01  0.15892353782E+01 -0.22472588899E+01  0.35821004015E+01  0.51100000000E-03 0. -1.
        -11    1    3    3    0    0  0.58132896091E+01 -0.36632524440E+02 -0.51195973605E+01  0.37442575504E+02  0.51100000000E-03 0.  1.
         12    1    3    3    0    0  0.11309717506E+01 -0.66593091588E+01 -0.32725179715E+00  0.67625874716E+01  0.00000000000E+00 0. -1.
</event>
<event>
 7    1  0.2455451E-009  0.4778727E+02  0.7816164E-02  0.1312668E+00
        -11   -1    0    0    0    0  0.00000000000E+00  0.00000000000E+00  0.45593999997E+02  0.45594000000E+02  0.51100000000E-03 0. -1.
         11   -1    0    0    0    0 -0.00000000000E+00 -0.00000000000E+00 -0.45593999997E+02  0.45594000000E+02  0.51100000000E-03 0.  1.
    9900012    2    1    2    0    0  0.33084178242E+02 -0.48510417869E+01 -0.27668168537E+02  0.47787274124E+02  0.20000014040E+02 0.  0.
         12    1    1    2    0    0 -0.33084178242E+02  0.48510417869E+01  0.27668168537E+02  0.43400725876E+02  0.00000000000E+00 0. -1.
         11    1    3    3    0    0  0.24747239918E+00 -0.50125155301E+00 -0.65575279761E+00  0.86168886521E+00  0.51100000000E-03 0. -1.
        -11    1    3    3    0    0  0.17502128697E+02 -0.10510945984E+02 -0.85129669164E+01  0.22119563748E+02  0.51100000000E-03 0.  1.
        -12    1    3    3    0    0  0.15334577146E+02  0.61611557505E+01 -0.18499448823E+02  0.24806021511E+02  0.00000000000E+00 0.  1.
</event>
<event>
 7    1  0.2455451E-009  0.4778728E+02  0.7816164E-02  0.1312668E+00
        -11   -1    0    0    0    0  0.00000000000E+00  0.00000000000E+00  0.45593999997E+02  0.45594000000E+02  0.51100000000E-03 0.  1.
         11   -1    0    0    0    0 -0.00000000000E+00 -0.00000000000E+00 -0.45593999997E+02  0.45594000000E+02  0.51100000000E-03 0. -1.
    9900012    2    1    2    0    0  0.35348706780E+02  0.16953591661E+02  0.18619009834E+02  0.47787275716E+02  0.20000021297E+02 0.  0.
         12    1    1    2    0    0 -0.35348706780E+02 -0.16953591661E+02 -0.18619009834E+02  0.43400724284E+02  0.00000000000E+00 0. -1.
         11    1    3    3    0    0  0.66145827291E+01  0.55496912398E+01 -0.26821838823E+01  0.90413432729E+01  0.51100000000E-03 0. -1.
        -11    1    3    3    0    0  0.58183293727E+01 -0.77420750320E+00  0.13775559634E+01  0.60290973322E+01  0.51100000000E-03 0.  1.
         12    1    3    3    0    0  0.22915794678E+02  0.12178107924E+02  0.19923637753E+02  0.32716835110E+02  0.00000000000E+00 0. -1.
</event>
<event>
 7    1  0.2455451E-009  0.4778727E+02  0.7816164E-02  0.1312668E+00
        -11   -1    0    0    0    0  0.00000000000E+00  0.00000000000E+00  0.45593999997E+02  0.45594000000E+02  0.51100000000E-03 0. -1.
         11   -1    0    0    0    0 -0.00000000000E+00 -0.00000000000E+00 -0.45593999997E+02  0.45594000000E+02  0.51100000000E-03 0.  1.
    9900012    2    1    2    0    0 -0.27319908687E-01 -0.14891407150E+02 -0.40766021504E+02  0.47787271175E+02  0.20000000595E+02 0.  0.
         12    1    1    2    0    0  0.27319908687E-01  0.14891407150E+02  0.40766021504E+02  0.43400728825E+02  0.00000000000E+00 0. -1.
         11    1    3    3    0    0 -0.89613080100E+01 -0.95542684616E+01 -0.29004483764E+02  0.31825291292E+02  0.51100000000E-03 0. -1.
        -11    1    3    3    0    0  0.75778763524E+01 -0.43062296793E+01 -0.11149263785E+02  0.14151816395E+02  0.51100000000E-03 0.  1.
         12    1    3    3    0    0  0.13561117489E+01 -0.10309090087E+01 -0.61227395438E+00  0.18101634884E+01  0.00000000000E+00 0. -1.
</event>
<event>
 7    1  0.2455451E-009  0.4778727E+02  0.7816164E-02  0.1312668E+00
        -11   -1    0    0    0    0  0.00000000000E+00  0.00000000000E+00  0.45593999997E+02  0.45594000000E+02  0.51100000000E-03 0.  1.
         11   -1    0    0    0    0 -0.00000000000E+00 -0.00000000000E+00 -0.45593999997E+02  0.45594000000E+02  0.51100000000E-03 0. -1.
    9900012    2    1    2    0    0 -0.12708720585E+02 -0.18075794514E+02  0.37354756064E+02  0.47787265826E+02  0.19999976209E+02 0.  0.
         12    1    1    2    0    0  0.12708720585E+02  0.18075794514E+02 -0.37354756064E+02  0.43400734174E+02  0.00000000000E+00 0. -1.
         11    1    3    3    0    0 -0.11259129276E+02 -0.96996705683E+01  0.10814829210E+02  0.18379666272E+02  0.51100000000E-03 0. -1.
        -11    1    3    3    0    0 -0.25712830496E+01 -0.90966384318E+01  0.14597645653E+02  0.17391135275E+02  0.51100000000E-03 0.  1.
         12    1    3    3    0    0  0.11216917403E+01  0.72051448649E+00  0.11942281201E+02  0.12016464279E+02  0.00000000000E+00 0. -1.
</event>
<event>
 7    1  0.2455451E-009  0.4778727E+02  0.7816164E-02  0.1312668E+00
        -11   -1    0    0    0    0  0.00000000000E+00  0.00000000000E+00  0.45593999997E+02  0.45594000000E+02  0.51100000000E-03 0. -1.
         11   -1    0    0    0    0 -0.00000000000E+00 -0.00000000000E+00 -0.45593999997E+02  0.45594000000E+02  0.51100000000E-03 0.  1.
    9900012    2    1    2    0    0  0.19111110187E-01 -0.24208017115E+02 -0.36022148056E+02  0.47787267189E+02  0.19999982423E+02 0.  0.
         12    1    1    2    0    0 -0.19111110187E-01  0.24208017115E+02  0.36022148056E+02  0.43400732811E+02  0.00000000000E+00 0. -1.
         11    1    3    3    0    0 -0.25939978706E+01 -0.22035715995E+02 -0.17150036070E+02  0.28043276232E+02  0.51100000000E-03 0. -1.
        -11    1    3    3    0    0  0.16125402774E+01 -0.36643846048E+01 -0.12758131460E+02  0.13371533917E+02  0.51100000000E-03 0.  1.
         12    1    3    3    0    0  0.10005687034E+01  0.14920834843E+01 -0.61139805267E+01  0.63724570407E+01  0.00000000000E+00 0. -1.
</event>
<event>
 7    1  0.2455451E-009  0.4778727E+02  0.7816164E-02  0.1312668E+00
        -11   -1    0    0    0    0  0.00000000000E+00  0.00000000000E+00  0.45593999997E+02  0.45594000000E+02  0.51100000000E-03 0.  1.
         11   -1    0    0    0    0 -0.00000000000E+00 -0.00000000000E+00 -0.45593999997E+02  0.45594000000E+02  0.51100000000E-03 0. -1.
    9900012    2    1    2    0    0 -0.33898604040E+02 -0.17320237108E+02  0.20845078878E+02  0.47787270942E+02  0.19999999532E+02 0.  0.
         12    1    1    2    0    0  0.33898604040E+02  0.17320237108E+02 -0.20845078878E+02  0.43400729058E+02  0.00000000000E+00 0. -1.
         11    1    3    3    0    0 -0.18622307362E+02 -0.34366497822E+01  0.93697705295E+00  0.18959926674E+02  0.51100000000E-03 0. -1.
        -11    1    3    3    0    0 -0.94734164313E+01 -0.67260379333E+01  0.11668882880E+02  0.16466573204E+02  0.51100000000E-03 0.  1.
         12    1    3    3    0    0 -0.58028802466E+01 -0.71575493930E+01  0.82392189449E+01  0.12360771064E+02  0.00000000000E+00 0. -1.
</event>
<event>
 7    1  0.2455451E-009  0.4778728E+02  0.7816164E-02  0.1312668E+00
        -11   -1    0    0    0    0  0.00000000000E+00  0.00000000000E+00  0.45593999997E+02  0.45594000000E+02  0.51100000000E-03 0.  1.
         11   -1    0    0    0    0 -0.00000000000E+00 -0.00000000000E+00 -0.45593999997E+02  0.45594000000E+02  0.51100000000E-03 0. -1.
    9900012    2    1    2    0    0 -0.25061170222E+02  0.30430301306E+02  0.18153714265E+02  0.47787276134E+02  0.20000023206E+02 0.  0.
         12    1    1    2    0    0  0.25061170222E+02 -0.30430301306E+02 -0.18153714265E+02  0.43400723866E+02  0.00000000000E+00 0. -1.
         11    1    3    3    0    0 -0.13218278663E+02  0.14340170848E+02  0.15992492240E+01  0.19568367053E+02  0.51100000000E-03 0. -1.
        -11    1    3    3    0    0 -0.10683233342E+02  0.12406567060E+02  0.17777538615E+02  0.24168062817E+02  0.51100000000E-03 0.  1.
         12    1    3    3    0    0 -0.11596582166E+01  0.36835633977E+01 -0.12230735747E+01  0.40508462638E+01  0.00000000000E+00 0. -1.
</event>
<event>
 7    1  0.2455451E-009  0.4778727E+02  0.7816164E-02  0.1312668E+00
        -11   -1    0    0    0    0  0.00000000000E+00  0.00000000000E+00  0.45593999997E+02  0.45594000000E+02  0.51100000000E-03 0.  1.
         11   -1    0    0    0    0 -0.00000000000E+00 -0.00000000000E+00 -0.45593999997E+02  0.45594000000E+02  0.51100000000E-03 0. -1.
    9900012    2    1    2    0    0 -0.71927543017E+01 -0.39628103816E+02  0.16170999846E+02  0.47787267719E+02  0.19999984836E+02 0.  0.
         12    1    1    2    0    0  0.71927543017E+01  0.39628103816E+02 -0.16170999846E+02  0.43400732281E+02  0.00000000000E+00 0. -1.
         11    1    3    3    0    0 -0.11966501866E+01 -0.23306178174E+02  0.83552204350E+01  0.24787489214E+02  0.51100000000E-03 0. -1.
        -11    1    3    3    0    0 -0.59590897802E+01 -0.20027865212E+01  0.57737954496E+01  0.85357260390E+01  0.51100000000E-03 0.  1.
        -12    1    3    3    0    0 -0.37014334864E-01 -0.14319139121E+02  0.20419839617E+01  0.14464052466E+02  0.00000000000E+00 0.  1.
</event>
<event>
 7    1  0.2455451E-009  0.4778727E+02  0.7816164E-02  0.1312668E+00
        -11   -1    0    0    0    0  0.00000000000E+00  0.00000000000E+00  0.45593999997E+02  0.45594000000E+02  0.51100000000E-03 0.  1.
         11   -1    0    0    0    0 -0.00000000000E+00 -0.00000000000E+00 -0.45593999997E+02  0.45594000000E+02  0.51100000000E-03 0. -1.
    9900012    2    1    2    0    0 -0.30351793542E+02  0.65494393213E+01  0.30323207078E+02  0.47787269429E+02  0.19999992633E+02 0.  0.
         12    1    1    2    0    0  0.30351793542E+02 -0.65494393213E+01 -0.30323207078E+02  0.43400730571E+02  0.00000000000E+00 0. -1.
         11    1    3    3    0    0 -0.15325288537E+02  0.11862808286E+02  0.21674907420E+02  0.29075630709E+02  0.51100000000E-03 0. -1.
        -11    1    3    3    0    0 -0.76850305653E+01 -0.41751868789E+01  0.25785036865E+01  0.91181446460E+01  0.51100000000E-03 0.  1.
         12    1    3    3    0    0 -0.73414744396E+01 -0.11381820863E+01  0.60697959715E+01  0.95934940739E+01  0.00000000000E+00 0. -1.
</event>
<event>
 7    1  0.2455451E-009  0.4778724E+02  0.7816164E-02  0.1312668E+00
        -11   -1    0    0    0    0  0.00000000000E+00  0.00000000000E+00  0.45593999997E+02  0.45594000000E+02  0.51100000000E-03 0. -1.
         11   -1    0    0    0    0 -0.00000000000E+00 -0.00000000000E+00 -0.45593999997E+02  0.45594000000E+02  0.51100000000E-03 0.  1.
    9900012    2    1    2    0    0  0.28496138295E+02  0.22422923639E+02 -0.23849716267E+02  0.47787235395E+02  0.19999837461E+02 0.  0.
         12    1    1    2    0    0 -0.28496138295E+02 -0.22422923639E+02  0.23849716267E+02  0.43400764605E+02  0.00000000000E+00 0. -1.
         11    1    3    3    0    0 -0.16431797837E+00  0.58163735837E+01 -0.26895107898E+00  0.58249066093E+01  0.51100000000E-03 0. -1.
        -11    1    3    3    0    0  0.20763967021E+02  0.15677107215E+02 -0.14113126290E+02  0.29598891043E+02  0.51100000000E-03 0.  1.
        -12    1    3    3    0    0  0.78964892524E+01  0.92944284049E+00 -0.94676388982E+01  0.12363437743E+02  0.00000000000E+00 0.  1.
</event>
<event>
 7    1  0.2455451E-009  0.4778727E+02  0.7816164E-02  0.1312668E+00
        -11   -1    0    0    0    0  0.00000000000E+00  0.00000000000E+00  0.45593999997E+02  0.45594000000E+02  0.51100000000E-03 0. -1.
         11   -1    0    0    0    0 -0.00000000000E+00 -0.00000000000E+00 -0.45593999997E+02  0.45594000000E+02  0.51100000000E-03 0.  1.
    9900012    2    1    2    0    0 -0.39738564877E+02  0.14225484441E+02  0.10104706610E+02  0.47787273719E+02  0.20000012194E+02 0.  0.
         12    1    1    2    0    0  0.39738564877E+02 -0.14225484441E+02 -0.10104706610E+02  0.43400726281E+02  0.00000000000E+00 0. -1.
         11    1    3    3    0    0 -0.79801383265E+01  0.91200787850E+01 -0.24164041912E+01  0.12357081137E+02  0.51100000000E-03 0. -1.
        -11    1    3    3    0    0 -0.25548788894E+02  0.63230754451E+01  0.75438846148E+01  0.27379410008E+02  0.51100000000E-03 0.  1.
         12    1    3    3    0    0 -0.62096376562E+01 -0.12176697889E+01  0.49772261866E+01  0.80507825737E+01  0.00000000000E+00 0. -1.
</event>
<event>
 7    1  0.2455451E-009  0.4778726E+02  0.7816164E-02  0.1312668E+00
        -11   -1    0    0    0    0  0.00000000000E+00  0.00000000000E+00  0.45593999997E+02  0.45594000000E+02  0.51100000000E-03 0.  1.
         11   -1    0    0    0    0 -0.00000000000E+00 -0.00000000000E+00 -0.45593999997E+02  0.45594000000E+02  0.51100000000E-03 0. -1.
    9900012    2    1    2    0    0  0.21035115503E+02 -0.23303164523E+02  0.29968489773E+02  0.47787263367E+02  0.19999964996E+02 0.  0.
         12    1    1    2    0    0 -0.21035115503E+02  0.23303164523E+02 -0.29968489773E+02  0.43400736633E+02  0.00000000000E+00 0. -1.
         11    1    3    3    0    0 -0.33611349421E+01 -0.30000055559E+01  0.78044937755E+01  0.90115140120E+01  0.51100000000E-03 0. -1.
        -11    1    3    3    0    0  0.10602482003E+02 -0.81973429084E+01  0.81615553800E+01  0.15691400252E+02  0.51100000000E-03 0.  1.
         12    1    3    3    0    0  0.13793768442E+02 -0.12105816059E+02  0.14002440618E+02  0.23084349103E+02  0.00000000000E+00 0. -1.
</event>
<event>
 7    1  0.2455451E-009  0.4778726E+02  0.7816164E-02  0.1312668E+00
        -11   -1    0    0    0    0  0.00000000000E+00  0.00000000000E+00  0.45593999997E+02  0.45594000000E+02  0.51100000000E-03 0.  1.
         11   -1    0    0    0    0 -0.00000000000E+00 -0.00000000000E+00 -0.45593999997E+02  0.45594000000E+02  0.51100000000E-03 0. -1.
    9900012    2    1    2    0    0 -0.43249659395E+02  0.29715189188E+01  0.20642648185E+01  0.47787260931E+02  0.19999953891E+02 0.  0.
         12    1    1    2    0    0  0.43249659395E+02 -0.29715189188E+01 -0.20642648185E+01  0.43400739069E+02  0.00000000000E+00 0. -1.
         11    1    3    3    0    0 -0.27170610105E+01 -0.41086500613E+01 -0.25071856720E+01  0.55271517182E+01  0.51100000000E-03 0. -1.
        -11    1    3    3    0    0 -0.29797469375E+02  0.24328611678E+01  0.59446264119E+01  0.30481905749E+02  0.51100000000E-03 0.  1.
        -12    1    3    3    0    0 -0.10735129009E+02  0.46473078123E+01 -0.13731759213E+01  0.11778203464E+02  0.00000000000E+00 0.  1.
</event>
<event>
 7    1  0.2455451E-009  0.4778729E+02  0.7816164E-02  0.1312668E+00
        -11   -1    0    0    0    0  0.00000000000E+00  0.00000000000E+00  0.45593999997E+02  0.45594000000E+02  0.51100000000E-03 0.  1.
         11   -1    0    0    0    0 -0.00000000000E+00 -0.00000000000E+00 -0.45593999997E+02  0.45594000000E+02  0.51100000000E-03 0. -1.
    9900012    2    1    2    0    0  0.53442941168E+01 -0.14331146097E+02  0.40616232618E+02  0.47787290557E+02  0.20000088965E+02 0.  0.
         12    1    1    2    0    0 -0.53442941168E+01  0.14331146097E+02 -0.40616232618E+02  0.43400709443E+02  0.00000000000E+00 0. -1.
         11    1    3    3    0    0 -0.14071313780E+01  0.71023001983E+00  0.21826522312E+02  0.21883361759E+02  0.51100000000E-03 0. -1.
        -11    1    3    3    0    0  0.67860908028E+01 -0.14046567981E+02  0.19274747025E+02  0.24796632302E+02  0.51100000000E-03 0.  1.
         12    1    3    3    0    0 -0.34665307983E-01 -0.99480813590E+00 -0.48503671803E+00  0.11072964954E+01  0.00000000000E+00 0. -1.
</event>
<event>
 7    1  0.2455451E-009  0.4778727E+02  0.7816164E-02  0.1312668E+00
        -11   -1    0    0    0    0  0.00000000000E+00  0.00000000000E+00  0.45593999997E+02  0.45594000000E+02  0.51100000000E-03 0.  1.
         11   -1    0    0    0    0 -0.00000000000E+00 -0.00000000000E+00 -0.45593999997E+02  0.45594000000E+02  0.51100000000E-03 0. -1.
    9900012    2    1    2    0    0  0.20873846360E+02 -0.37592381678E+02  0.58922682810E+01  0.47787269043E+02  0.19999990876E+02 0.  0.
         12    1    1    2    0    0 -0.20873846360E+02  0.37592381678E+02 -0.58922682810E+01  0.43400730957E+02  0.00000000000E+00 0. -1.
         11    1    3    3    0    0  0.12004393752E+02 -0.75179946678E+01 -0.17422960619E+01  0.14270995376E+02  0.51100000000E-03 0. -1.
        -11    1    3    3    0    0  0.72414971593E+01 -0.20173305708E+02  0.94053491326E+00  0.21454280470E+02  0.51100000000E-03 0.  1.
         12    1    3    3    0    0  0.16279554482E+01 -0.99010813021E+01  0.66940294297E+01  0.12061993198E+02  0.00000000000E+00 0. -1.
</event>
<event>
 7    1  0.2455451E-009  0.4778728E+02  0.7816164E-02  0.1312668E+00
        -11   -1    0    0    0    0  0.00000000000E+00  0.00000000000E+00  0.45593999997E+02  0.45594000000E+02  0.51100000000E-03 0.  1.
         11   -1    0    0    0    0 -0.00000000000E+00 -0.00000000000E+00 -0.45593999997E+02  0.45594000000E+02  0.51100000000E-03 0. -1.
    9900012    2    1    2    0    0 -0.21873975997E+02  0.37057363036E+01  0.37301735686E+02  0.47787276589E+02  0.20000025278E+02 0.  0.
         12    1    1    2    0    0  0.21873975997E+02 -0.37057363036E+01 -0.37301735686E+02  0.43400723411E+02  0.00000000000E+00 0. -1.
         11    1    3    3    0    0 -0.38892409869E+01  0.38144270456E+01 -0.49717542619E+00  0.54702132322E+01  0.51100000000E-03 0. -1.
        -11    1    3    3    0    0 -0.16443621109E+02 -0.20208407292E+01  0.32687308544E+02  0.36646099554E+02  0.51100000000E-03 0.  1.
         12    1    3    3    0    0 -0.15411139003E+01  0.19121499873E+01  0.51116025686E+01  0.56709638023E+01  0.00000000000E+00 0. -1.
</event>
<event>
 7    1  0.2455451E-009  0.4778727E+02  0.7816164E-02  0.1312668E+00
        -11   -1    0    0    0    0  0.00000000000E+00  0.00000000000E+00  0.45593999997E+02  0.45594000000E+02  0.51100000000E-03 0. -1.
         11   -1    0    0    0    0 -0.00000000000E+00 -0.00000000000E+00 -0.45593999997E+02  0.45594000000E+02  0.51100000000E-03 0.  1.
    9900012    2    1    2    0    0  0.14561940102E+02  0.34324061541E+02 -0.22213335421E+02  0.47787267624E+02  0.19999984407E+02 0.  0.
         12    1    1    2    0    0 -0.14561940102E+02 -0.34324061541E+02  0.22213335421E+02  0.43400732376E+02  0.00000000000E+00 0. -1.
         11    1    3    3    0    0  0.58750191581E+01  0.26408854612E+01 -0.40982605132E+00  0.64543073820E+01  0.51100000000E-03 0. -1.
        -11    1    3    3    0    0 -0.20056368366E+01  0.14192563906E+02 -0.64349547939E+01  0.15711781974E+02  0.51100000000E-03 0.  1.
        -12    1    3    3    0    0  0.10692557780E+02  0.17490612174E+02 -0.15368554576E+02  0.25621178268E+02  0.00000000000E+00 0.  1.
</event>
<event>
 7    1  0.2455451E-009  0.4778727E+02  0.7816164E-02  0.1312668E+00
        -11   -1    0    0    0    0  0.00000000000E+00  0.00000000000E+00  0.45593999997E+02  0.45594000000E+02  0.51100000000E-03 0. -1.
         11   -1    0    0    0    0 -0.00000000000E+00 -0.00000000000E+00 -0.45593999997E+02  0.45594000000E+02  0.51100000000E-03 0.  1.
    9900012    2    1    2    0    0  0.39200270568E+02  0.11952159268E+02 -0.14286632992E+02  0.47787271826E+02  0.20000003563E+02 0.  0.
         12    1    1    2    0    0 -0.39200270568E+02 -0.11952159268E+02  0.14286632992E+02  0.43400728174E+02  0.00000000000E+00 0. -1.
         11    1    3    3    0    0  0.19586151461E+02  0.14694723648E+02 -0.63462755693E+01  0.25294810654E+02  0.51100000000E-03 0. -1.
        -11    1    3    3    0    0  0.19204139146E+02 -0.14012154681E+01 -0.61404407883E+01  0.20210575907E+02  0.51100000000E-03 0.  1.
         12    1    3    3    0    0  0.40997996062E+00 -0.13413489121E+01 -0.17999166346E+01  0.22818852652E+01  0.00000000000E+00 0. -1.
</event>
<event>
 7    1  0.2455451E-009  0.4778727E+02  0.7816164E-02  0.1312668E+00
        -11   -1    0    0    0    0  0.00000000000E+00  0.00000000000E+00  0.45593999997E+02  0.45594000000E+02  0.51100000000E-03 0. -1.
         11   -1    0    0    0    0 -0.00000000000E+00 -0.00000000000E+00 -0.45593999997E+02  0.45594000000E+02  0.51100000000E-03 0.  1.
    9900012    2    1    2    0    0 -0.31285758110E+01 -0.34257445942E+02 -0.26462478042E+02  0.47787270361E+02  0.19999996885E+02 0.  0.
         12    1    1    2    0    0  0.31285758110E+01  0.34257445942E+02  0.26462478042E+02  0.43400729639E+02  0.00000000000E+00 0. -1.
         11    1    3    3    0    0 -0.46517506516E+01 -0.24929256106E+02 -0.16295437564E+02  0.30143786753E+02  0.51100000000E-03 0. -1.
        -11    1    3    3    0    0 -0.23289601976E+01  0.14081951442E+01 -0.34922660246E+01  0.44275265571E+01  0.51100000000E-03 0.  1.
         12    1    3    3    0    0  0.38521350382E+01 -0.10736384980E+02 -0.66747744532E+01  0.13215957051E+02  0.00000000000E+00 0. -1.
</event>
<event>
 7    1  0.2455451E-009  0.4778727E+02  0.7816164E-02  0.1312668E+00
        -11   -1    0    0    0    0  0.00000000000E+00  0.00000000000E+00  0.45593999997E+02  0.45594000000E+02  0.51100000000E-03 0.  1.
         11   -1    0    0    0    0 -0.00000000000E+00 -0.00000000000E+00 -0.45593999997E+02  0.45594000000E+02  0.51100000000E-03 0. -1.
    9900012    2    1    2    0    0  0.51859403788E+01  0.42207102236E+02  0.86769728772E+01  0.47787270570E+02  0.19999997837E+02 0.  0.
         12    1    1    2    0    0 -0.51859403788E+01 -0.42207102236E+02 -0.86769728772E+01  0.43400729430E+02  0.00000000000E+00 0. -1.
         11    1    3    3    0    0  0.20187353394E+01  0.11332975604E+01  0.29621798228E+00  0.23339668132E+01  0.51100000000E-03 0. -1.
        -11    1    3    3    0    0  0.31283688991E+01  0.54019170800E+01 -0.43160173734E+01  0.75891637442E+01  0.51100000000E-03 0.  1.
        -12    1    3    3    0    0  0.38836140227E-01  0.35671887595E+02  0.12696772268E+02  0.37864140013E+02  0.00000000000E+00 0.  1.
</event>
<event>
 7    1  0.2455451E-009  0.4778727E+02  0.7816164E-02  0.1312668E+00
        -11   -1    0    0    0    0  0.00000000000E+00  0.00000000000E+00  0.45593999997E+02  0.45594000000E+02  0.51100000000E-03 0. -1.
         11   -1    0    0    0    0 -0.00000000000E+00 -0.00000000000E+00 -0.45593999997E+02  0.45594000000E+02  0.51100000000E-03 0.  1.
    9900012    2    1    2    0    0  0.12845927383E+02  0.53980478347E+01 -0.41103122758E+02  0.47787268771E+02  0.19999989636E+02 0.  0.
         12    1    1    2    0    0 -0.12845927383E+02 -0.53980478347E+01  0.41103122758E+02  0.43400731229E+02  0.00000000000E+00 0. -1.
         11    1    3    3    0    0  0.10039212698E+02 -0.54676496937E+01 -0.21620023305E+02  0.24456213786E+02  0.51100000000E-03 0. -1.
        -11    1    3    3    0    0  0.32819455613E+01  0.11479666410E+02 -0.17351744814E+02  0.21062691088E+02  0.51100000000E-03 0.  1.
        -12    1    3    3    0    0 -0.47523087642E+00 -0.61396888131E+00 -0.21313546388E+01  0.22683638970E+01  0.00000000000E+00 0.  1.
</event>
<event>
 7    1  0.2455451E-009  0.4778728E+02  0.7816164E-02  0.1312668E+00
        -11   -1    0    0    0    0  0.00000000000E+00  0.00000000000E+00  0.45593999997E+02  0.45594000000E+02  0.51100000000E-03 0.  1.
         11   -1    0    0    0    0 -0.00000000000E+00 -0.00000000000E+00 -0.45593999997E+02  0.45594000000E+02  0.51100000000E-03 0. -1.
    9900012    2    1    2    0    0  0.25759971296E+02  0.32694344707E+02 -0.12293356458E+02  0.47787275236E+02  0.20000019113E+02 0.  0.
         12    1    1    2    0    0 -0.25759971296E+02 -0.32694344707E+02  0.12293356458E+02  0.43400724764E+02  0.00000000000E+00 0. -1.
         11    1    3    3    0    0  0.17281349153E+02  0.88813200892E+01 -0.83567058336E+01  0.21150825226E+02  0.51100000000E-03 0. -1.
        -11    1    3    3    0    0 -0.20390257693E-01  0.74969680287E+01 -0.33993513347E+01  0.82316787561E+01  0.51100000000E-03 0.  1.
         12    1    3    3    0    0  0.84990124012E+01  0.16316056589E+02 -0.53729928957E+00  0.18404771255E+02  0.00000000000E+00 0. -1.
</event>
<event>
 7    1  0.2455451E-009  0.4778727E+02  0.7816164E-02  0.1312668E+00
        -11   -1    0    0    0    0  0.00000000000E+00  0.00000000000E+00  0.45593999997E+02  0.45594000000E+02  0.51100000000E-03 0.  1.
         11   -1    0    0    0    0 -0.00000000000E+00 -0.00000000000E+00 -0.45593999997E+02  0.45594000000E+02  0.51100000000E-03 0. -1.
    9900012    2    1    2    0    0  0.14836317742E+02 -0.33465631352E+02  0.23314334829E+02  0.47787274033E+02  0.20000013628E+02 0.  0.
         12    1    1    2    0    0 -0.14836317742E+02  0.33465631352E+02 -0.23314334829E+02  0.43400725967E+02  0.00000000000E+00 0. -1.
         11    1    3    3    0    0 -0.27279941888E+01 -0.19734721425E+01  0.51539031522E+01  0.61562376948E+01  0.51100000000E-03 0. -1.
        -11    1    3    3    0    0  0.14036834312E+02 -0.25209983997E+02  0.18735387091E+02  0.34403353620E+02  0.51100000000E-03 0.  1.
        -12    1    3    3    0    0  0.35274776182E+01 -0.62821752124E+01 -0.57495541367E+00  0.72276827181E+01  0.00000000000E+00 0.  1.
</event>
<event>
 7    1  0.2455451E-009  0.4778727E+02  0.7816164E-02  0.1312668E+00
        -11   -1    0    0    0    0  0.00000000000E+00  0.00000000000E+00  0.45593999997E+02  0.45594000000E+02  0.51100000000E-03 0.  1.
         11   -1    0    0    0    0 -0.00000000000E+00 -0.00000000000E+00 -0.45593999997E+02  0.45594000000E+02  0.51100000000E-03 0. -1.
    9900012    2    1    2    0    0  0.60322111949E+01  0.25244509433E+02  0.34784340285E+02  0.47787272385E+02  0.20000006114E+02 0.  0.
         12    1    1    2    0    0 -0.60322111949E+01 -0.25244509433E+02 -0.34784340285E+02  0.43400727615E+02  0.00000000000E+00 0. -1.
         11    1    3    3    0    0 -0.28685787286E+01 -0.13658980057E+01  0.32046850042E+01  0.45126962584E+01  0.51100000000E-03 0. -1.
        -11    1    3    3    0    0  0.72639692968E+01  0.26706846678E+02  0.30944858870E+02  0.41516324503E+02  0.51100000000E-03 0.  1.
         12    1    3    3    0    0  0.16368206267E+01 -0.96439240015E-01  0.63479641089E+00  0.17582516243E+01  0.00000000000E+00 0. -1.
</event>
<event>
 7    1  0.2455451E-009  0.4778727E+02  0.7816164E-02  0.1312668E+00
        -11   -1    0    0    0    0  0.00000000000E+00  0.00000000000E+00  0.45593999997E+02  0.45594000000E+02  0.51100000000E-03 0. -1.
         11   -1    0    0    0    0 -0.00000000000E+00 -0.00000000000E+00 -0.45593999997E+02  0.45594000000E+02  0.51100000000E-03 0.  1.
    9900012    2    1    2    0    0 -0.11205637262E+02  0.32468232190E+01 -0.41803290521E+02  0.47787271137E+02  0.20000000423E+02 0.  0.
         12    1    1    2    0    0  0.11205637262E+02 -0.32468232190E+01  0.41803290521E+02  0.43400728863E+02  0.00000000000E+00 0. -1.
         11    1    3    3    0    0 -0.15537606089E+02  0.14753128108E+01 -0.30122037742E+02  0.33925372642E+02  0.51100000000E-03 0. -1.
        -11    1    3    3    0    0  0.37103950205E+01  0.86765618046E+00 -0.23724685142E+01  0.44887042192E+01  0.51100000000E-03 0.  1.
        -12    1    3    3    0    0  0.62157380735E+00  0.90385422773E+00 -0.93087842640E+01  0.93731942760E+01  0.00000000000E+00 0.  1.
</event>
<event>
 7    1  0.2455451E-009  0.4778728E+02  0.7816164E-02  0.1312668E+00
        -11   -1    0    0    0    0  0.00000000000E+00  0.00000000000E+00  0.45593999997E+02  0.45594000000E+02  0.51100000000E-03 0. -1.
         11   -1    0    0    0    0 -0.00000000000E+00 -0.00000000000E+00 -0.45593999997E+02  0.45594000000E+02  0.51100000000E-03 0.  1.
    9900012    2    1    2    0    0  0.26234469086E+01  0.14703145591E+02 -0.40749943503E+02  0.47787275819E+02  0.20000021769E+02 0.  0.
         12    1    1    2    0    0 -0.26234469086E+01 -0.14703145591E+02  0.40749943503E+02  0.43400724181E+02  0.00000000000E+00 0. -1.
         11    1    3    3    0    0  0.18696902947E+01 -0.22452270182E+01 -0.97218437963E+00  0.30792740850E+01  0.51100000000E-03 0. -1.
        -11    1    3    3    0    0  0.14277357729E+01  0.15897316540E+02 -0.40306722649E+02  0.43351989499E+02  0.51100000000E-03 0.  1.
        -12    1    3    3    0    0 -0.67397915898E+00  0.10510560700E+01  0.52896352564E+00  0.13560122347E+01  0.00000000000E+00 0.  1.
</event>
<event>
 7    1  0.2455451E-009  0.4778727E+02  0.7816164E-02  0.1312668E+00
        -11   -1    0    0    0    0  0.00000000000E+00  0.00000000000E+00  0.45593999997E+02  0.45594000000E+02  0.51100000000E-03 0. -1.
         11   -1    0    0    0    0 -0.00000000000E+00 -0.00000000000E+00 -0.45593999997E+02  0.45594000000E+02  0.51100000000E-03 0.  1.
    9900012    2    1    2    0    0  0.35397503751E+02 -0.16186251133E+02 -0.19200137717E+02  0.47787270906E+02  0.19999999369E+02 0.  0.
         12    1    1    2    0    0 -0.35397503751E+02  0.16186251133E+02  0.19200137717E+02  0.43400729094E+02  0.00000000000E+00 0. -1.
         11    1    3    3    0    0  0.29049326073E+02 -0.11149420563E+02 -0.21262215690E+02  0.37686267267E+02  0.51100000000E-03 0. -1.
        -11    1    3    3    0    0  0.51650038073E+01 -0.16526871036E+01 -0.84120534946E+00  0.54878288688E+01  0.51100000000E-03 0.  1.
         12    1    3    3    0    0  0.11831738710E+01 -0.33841434663E+01  0.29032833230E+01  0.46131747705E+01  0.00000000000E+00 0. -1.
</event>
<event>
 7    1  0.2455451E-009  0.4778727E+02  0.7816164E-02  0.1312668E+00
        -11   -1    0    0    0    0  0.00000000000E+00  0.00000000000E+00  0.45593999997E+02  0.45594000000E+02  0.51100000000E-03 0. -1.
         11   -1    0    0    0    0 -0.00000000000E+00 -0.00000000000E+00 -0.45593999997E+02  0.45594000000E+02  0.51100000000E-03 0.  1.
    9900012    2    1    2    0    0 -0.28086954198E+02  0.19982273213E+02 -0.26371480047E+02  0.47787271910E+02  0.20000003946E+02 0.  0.
         12    1    1    2    0    0  0.28086954198E+02 -0.19982273213E+02  0.26371480047E+02  0.43400728090E+02  0.00000000000E+00 0. -1.
         11    1    3    3    0    0 -0.29549775550E+01  0.49838119937E+01 -0.13033024533E+01  0.59387601303E+01  0.51100000000E-03 0. -1.
        -11    1    3    3    0    0  0.22181025961E+01  0.19989308753E+01 -0.38514323984E+01  0.48733187410E+01  0.51100000000E-03 0.  1.
        -12    1    3    3    0    0 -0.27350079240E+02  0.12999530344E+02 -0.21216745195E+02  0.36975193039E+02  0.00000000000E+00 0.  1.
</event>
<event>
 7    1  0.2455451E-009  0.4778727E+02  0.7816164E-02  0.1312668E+00
        -11   -1    0    0    0    0  0.00000000000E+00  0.00000000000E+00  0.45593999997E+02  0.45594000000E+02  0.51100000000E-03 0.  1.
         11   -1    0    0    0    0 -0.00000000000E+00 -0.00000000000E+00 -0.45593999997E+02  0.45594000000E+02  0.51100000000E-03 0. -1.
    9900012    2    1    2    0    0  0.33814337214E+02  0.27092577679E+02  0.24912140114E+01  0.47787270584E+02  0.19999997902E+02 0.  0.
         12    1    1    2    0    0 -0.33814337214E+02 -0.27092577679E+02 -0.24912140114E+01  0.43400729416E+02  0.00000000000E+00 0. -1.
         11    1    3    3    0    0 -0.20167457317E+01 -0.56019089815E+00 -0.69764194520E+00  0.22063049956E+01  0.51100000000E-03 0. -1.
        -11    1    3    3    0    0  0.28013162810E+02  0.23248047010E+02  0.37130687539E+01  0.36592292361E+02  0.51100000000E-03 0.  1.
         12    1    3    3    0    0  0.78179201361E+01  0.44047215679E+01 -0.52421279734E+00  0.89886732281E+01  0.00000000000E+00 0. -1.
</event>
<event>
 7    1  0.2455451E-009  0.4778723E+02  0.7816164E-02  0.1312668E+00
        -11   -1    0    0    0    0  0.00000000000E+00  0.00000000000E+00  0.45593999997E+02  0.45594000000E+02  0.51100000000E-03 0.  1.
         11   -1    0    0    0    0 -0.00000000000E+00 -0.00000000000E+00 -0.45593999997E+02  0.45594000000E+02  0.51100000000E-03 0. -1.
    9900012    2    1    2    0    0  0.80117910703E+01 -0.15775302305E+02  0.39630514651E+02  0.47787232144E+02  0.19999822637E+02 0.  0.
         12    1    1    2    0    0 -0.80117910703E+01  0.15775302305E+02 -0.39630514651E+02  0.43400767856E+02  0.00000000000E+00 0. -1.
         11    1    3    3    0    0 -0.19182774111E+01 -0.47304599599E+01  0.22313368246E+01  0.55709876991E+01  0.51100000000E-03 0. -1.
        -11    1    3    3    0    0  0.19356625874E+01 -0.32739480198E+01  0.25980576770E+02  0.26257492166E+02  0.51100000000E-03 0.  1.
        -12    1    3    3    0    0  0.79944058939E+01 -0.77708943252E+01  0.11418601057E+02  0.15958752279E+02  0.00000000000E+00 0.  1.
</event>
<event>
 7    1  0.2455451E-009  0.4778727E+02  0.7816164E-02  0.1312668E+00
        -11   -1    0    0    0    0  0.00000000000E+00  0.00000000000E+00  0.45593999997E+02  0.45594000000E+02  0.51100000000E-03 0. -1.
         11   -1    0    0    0    0 -0.00000000000E+00 -0.00000000000E+00 -0.45593999997E+02  0.45594000000E+02  0.51100000000E-03 0.  1.
    9900012    2    1    2    0    0  0.23199897880E+02  0.36155344211E+02 -0.61789128276E+01  0.47787272582E+02  0.20000007012E+02 0.  0.
         12    1    1    2    0    0 -0.23199897880E+02 -0.36155344211E+02  0.61789128276E+01  0.43400727418E+02  0.00000000000E+00 0. -1.
         11    1    3    3    0    0  0.13725031962E+02  0.11102896276E+02  0.49715938611E+01  0.18340325893E+02  0.51100000000E-03 0. -1.
        -11    1    3    3    0    0  0.93317430565E+01  0.19730927619E+02 -0.79139948597E+01  0.23216852674E+02  0.51100000000E-03 0.  1.
         12    1    3    3    0    0  0.14312286155E+00  0.53215203159E+01 -0.32365118290E+01  0.62300940158E+01  0.00000000000E+00 0. -1.
</event>
<event>
 7    1  0.2455451E-009  0.4778727E+02  0.7816164E-02  0.1312668E+00
        -11   -1    0    0    0    0  0.00000000000E+00  0.00000000000E+00  0.45593999997E+02  0.45594000000E+02  0.51100000000E-03 0.  1.
         11   -1    0    0    0    0 -0.00000000000E+00 -0.00000000000E+00 -0.45593999997E+02  0.45594000000E+02  0.51100000000E-03 0. -1.
    9900012    2    1    2    0    0 -0.12433400045E+02 -0.98747114983E+01  0.40392128975E+02  0.47787269050E+02  0.19999990907E+02 0.  0.
         12    1    1    2    0    0  0.12433400045E+02  0.98747114983E+01 -0.40392128975E+02  0.43400730950E+02  0.00000000000E+00 0. -1.
         11    1    3    3    0    0 -0.22495336649E+01 -0.28041930383E+01  0.28740679948E+01  0.46026261422E+01  0.51100000000E-03 0. -1.
        -11    1    3    3    0    0 -0.85463443118E+01 -0.16206213223E+01  0.47202660043E+01  0.98968341392E+01  0.51100000000E-03 0.  1.
        -12    1    3    3    0    0 -0.16375220686E+01 -0.54498971377E+01  0.32797794976E+02  0.33287808769E+02  0.00000000000E+00 0.  1.
</event>
<event>
 7    1  0.2455451E-009  0.4778728E+02  0.7816164E-02  0.1312668E+00
        -11   -1    0    0    0    0  0.00000000000E+00  0.00000000000E+00  0.45593999997E+02  0.45594000000E+02  0.51100000000E-03 0. -1.
         11   -1    0    0    0    0 -0.00000000000E+00 -0.00000000000E+00 -0.45593999997E+02  0.45594000000E+02  0.51100000000E-03 0.  1.
    9900012    2    1    2    0    0  0.99921272444E+01 -0.14090161458E+02 -0.39815163333E+02  0.47787280098E+02  0.20000041280E+02 0.  0.
         12    1    1    2    0    0 -0.99921272444E+01  0.14090161458E+02  0.39815163333E+02  0.43400719902E+02  0.00000000000E+00 0. -1.
         11    1    3    3    0    0  0.42185678607E+01 -0.15799387928E+02 -0.17202365805E+02  0.23734750119E+02  0.51100000000E-03 0. -1.
        -11    1    3    3    0    0  0.36264976340E+01 -0.12190003772E+01 -0.16542326145E+02  0.16978987059E+02  0.51100000000E-03 0.  1.
         12    1    3    3    0    0  0.21470617498E+01  0.29282268471E+01 -0.60704713828E+01  0.70735429195E+01  0.00000000000E+00 0. -1.
</event>
<event>
 7    1  0.2455451E-009  0.4778727E+02  0.7816164E-02  0.1312668E+00
        -11   -1    0    0    0    0  0.00000000000E+00  0.00000000000E+00  0.45593999997E+02  0.45594000000E+02  0.51100000000E-03 0. -1.
         11   -1    0    0    0    0 -0.00000000000E+00 -0.00000000000E+00 -0.45593999997E+02  0.45594000000E+02  0.51100000000E-03 0.  1.
    9900012    2    1    2    0    0  0.37480292724E+02 -0.15775372329E+02  0.15165373171E+02  0.47787271225E+02  0.20000000823E+02 0.  0.
         12    1    1    2    0    0 -0.37480292724E+02  0.15775372329E+02 -0.15165373171E+02  0.43400728775E+02  0.00000000000E+00 0. -1.
         11    1    3    3    0    0  0.20692020462E+02 -0.76304671204E+01  0.24526921654E+01  0.22190075223E+02  0.51100000000E-03 0. -1.
        -11    1    3    3    0    0  0.82315398151E+01 -0.82758644725E+01  0.19296183016E+01  0.11830959705E+02  0.51100000000E-03 0.  1.
         12    1    3    3    0    0  0.85567324471E+01  0.13095926429E+00  0.10783062704E+02  0.13766236297E+02  0.00000000000E+00 0. -1.
</event>
<event>
 7    1  0.2455451E-009  0.4778727E+02  0.7816164E-02  0.1312668E+00
        -11   -1    0    0    0    0  0.00000000000E+00  0.00000000000E+00  0.45593999997E+02  0.45594000000E+02  0.51100000000E-03 0.  1.
         11   -1    0    0    0    0 -0.00000000000E+00 -0.00000000000E+00 -0.45593999997E+02  0.45594000000E+02  0.51100000000E-03 0. -1.
    9900012    2    1    2    0    0 -0.21367399921E+02  0.37605284369E+02  0.35916762881E+01  0.47787270393E+02  0.19999997031E+02 0.  0.
         12    1    1    2    0    0  0.21367399921E+02 -0.37605284369E+02 -0.35916762881E+01  0.43400729607E+02  0.00000000000E+00 0. -1.
         11    1    3    3    0    0  0.16133568146E+01 -0.25117596523E-01  0.15483085086E+01  0.22362492267E+01  0.51100000000E-03 0. -1.
        -11    1    3    3    0    0 -0.17645844169E+02  0.31778749251E+02  0.57615513228E+01  0.36802991649E+02  0.51100000000E-03 0.  1.
        -12    1    3    3    0    0 -0.53349125663E+01  0.58516527148E+01 -0.37181835432E+01  0.87480295179E+01  0.00000000000E+00 0.  1.
</event>
<event>
 7    1  0.2455451E-009  0.4778728E+02  0.7816164E-02  0.1312668E+00
        -11   -1    0    0    0    0  0.00000000000E+00  0.00000000000E+00  0.45593999997E+02  0.45594000000E+02  0.51100000000E-03 0.  1.
         11   -1    0    0    0    0 -0.00000000000E+00 -0.00000000000E+00 -0.45593999997E+02  0.45594000000E+02  0.51100000000E-03 0. -1.
    9900012    2    1    2    0    0  0.18275012891E+01  0.62222376774E+01  0.42913480143E+02  0.47787276726E+02  0.20000025906E+02 0.  0.
         12    1    1    2    0    0 -0.18275012891E+01 -0.62222376774E+01 -0.42913480143E+02  0.43400723274E+02  0.00000000000E+00 0. -1.
         11    1    3    3    0    0 -0.30994106485E+01  0.41897543557E+01  0.29800907209E+02  0.30253172704E+02  0.51100000000E-03 0. -1.
        -11    1    3    3    0    0 -0.20538793613E+01  0.32971707427E+01  0.76519270907E+01  0.85814767843E+01  0.51100000000E-03 0.  1.
         12    1    3    3    0    0  0.69807912989E+01 -0.12646874211E+01  0.54606458436E+01  0.89526272379E+01  0.00000000000E+00 0. -1.
</event>
<event>
 7    1  0.2455451E-009  0.4778727E+02  0.7816164E-02  0.1312668E+00
        -11   -1    0    0    0    0  0.00000000000E+00  0.00000000000E+00  0.45593999997E+02  0.45594000000E+02  0.51100000000E-03 0. -1.
         11   -1    0    0    0    0 -0.00000000000E+00 -0.00000000000E+00 -0.45593999997E+02  0.45594000000E+02  0.51100000000E-03 0.  1.
    9900012    2    1    2    0    0  0.19057937543E+02  0.38992162643E+02  0.17214637845E+00  0.47787269990E+02  0.19999995194E+02 0.  0.
         12    1    1    2    0    0 -0.19057937543E+02 -0.38992162643E+02 -0.17214637845E+00  0.43400730010E+02  0.00000000000E+00 0. -1.
         11    1    3    3    0    0  0.95624359128E+01  0.96977176138E+01 -0.64030448130E+01  0.15049414960E+02  0.51100000000E-03 0. -1.
        -11    1    3    3    0    0  0.69834110968E+01  0.80236485683E+01  0.26557034123E+01  0.10963563644E+02  0.51100000000E-03 0.  1.
         12    1    3    3    0    0  0.25120905335E+01  0.21270796461E+02  0.39194877792E+01  0.21774291387E+02  0.00000000000E+00 0. -1.
</event>
<event>
 7    1  0.2455451E-009  0.4778728E+02  0.7816164E-02  0.1312668E+00
        -11   -1    0    0    0    0  0.00000000000E+00  0.00000000000E+00  0.45593999997E+02  0.45594000000E+02  0.51100000000E-03 0.  1.
         11   -1    0    0    0    0 -0.00000000000E+00 -0.00000000000E+00 -0.45593999997E+02  0.45594000000E+02  0.51100000000E-03 0. -1.
    9900012    2    1    2    0    0 -0.19572555211E+02  0.34685462644E+02  0.17246932188E+02  0.47787275280E+02  0.20000019313E+02 0.  0.
         12    1    1    2    0    0  0.19572555211E+02 -0.34685462644E+02 -0.17246932188E+02  0.43400724720E+02  0.00000000000E+00 0. -1.
         11    1    3    3    0    0 -0.46201368685E+01 -0.78728016350E+00  0.26616110467E+01  0.53897725708E+01  0.51100000000E-03 0. -1.
        -11    1    3    3    0    0 -0.14165740997E+02  0.36071282041E+02  0.14591073494E+02  0.41408996993E+02  0.51100000000E-03 0.  1.
        -12    1    3    3    0    0 -0.78667734623E+00 -0.59853923343E+00 -0.57523526234E-02  0.98850571601E+00  0.00000000000E+00 0.  1.
</event>
<event>
 7    1  0.2455451E-009  0.4778728E+02  0.7816164E-02  0.1312668E+00
        -11   -1    0    0    0    0  0.00000000000E+00  0.00000000000E+00  0.45593999997E+02  0.45594000000E+02  0.51100000000E-03 0. -1.
         11   -1    0    0    0    0 -0.00000000000E+00 -0.00000000000E+00 -0.45593999997E+02  0.45594000000E+02  0.51100000000E-03 0.  1.
    9900012    2    1    2    0    0 -0.16746837717E+02  0.36524322146E+02 -0.16405493244E+02  0.47787275463E+02  0.20000020145E+02 0.  0.
         12    1    1    2    0    0  0.16746837717E+02 -0.36524322146E+02  0.16405493244E+02  0.43400724537E+02  0.00000000000E+00 0. -1.
         11    1    3    3    0    0  0.70020275779E-01 -0.14504472914E+01 -0.52554878964E-01  0.14530872171E+01  0.51100000000E-03 0. -1.
        -11    1    3    3    0    0 -0.16661408069E+02  0.34606226550E+02 -0.10903747120E+02  0.39925995747E+02  0.51100000000E-03 0.  1.
        -12    1    3    3    0    0 -0.15544992311E+00  0.33685428880E+01 -0.54491912459E+01  0.64081924988E+01  0.00000000000E+00 0.  1.
</event>
<event>
 7    1  0.2455451E-009  0.4778727E+02  0.7816164E-02  0.1312668E+00
        -11   -1    0    0    0    0  0.00000000000E+00  0.00000000000E+00  0.45593999997E+02  0.45594000000E+02  0.51100000000E-03 0. -1.
         11   -1    0    0    0    0 -0.00000000000E+00 -0.00000000000E+00 -0.45593999997E+02  0.45594000000E+02  0.51100000000E-03 0.  1.
    9900012    2    1    2    0    0 -0.45184982722E+01  0.18415711496E+02 -0.39039312123E+02  0.47787272500E+02  0.20000006636E+02 0.  0.
         12    1    1    2    0    0  0.45184982722E+01 -0.18415711496E+02  0.39039312123E+02  0.43400727500E+02  0.00000000000E+00 0. -1.
         11    1    3    3    0    0 -0.25379148689E+01  0.39516572177E+01  0.10533944666E+01  0.48131327440E+01  0.51100000000E-03 0. -1.
        -11    1    3    3    0    0 -0.12457417193E+01  0.90016772714E+01 -0.31337687578E+02  0.32628710198E+02  0.51100000000E-03 0.  1.
         12    1    3    3    0    0 -0.73484168408E+00  0.54623770067E+01 -0.87550190108E+01  0.10345429558E+02  0.00000000000E+00 0. -1.
</event>
<event>
 7    1  0.2455451E-009  0.4778727E+02  0.7816164E-02  0.1312668E+00
        -11   -1    0    0    0    0  0.00000000000E+00  0.00000000000E+00  0.45593999997E+02  0.45594000000E+02  0.51100000000E-03 0. -1.
         11   -1    0    0    0    0 -0.00000000000E+00 -0.00000000000E+00 -0.45593999997E+02  0.45594000000E+02  0.51100000000E-03 0.  1.
    9900012    2    1    2    0    0  0.32786806221E+02  0.22998620427E+02  0.16724591246E+02  0.47787272402E+02  0.20000006189E+02 0.  0.
         12    1    1    2    0    0 -0.32786806221E+02 -0.22998620427E+02 -0.16724591246E+02  0.43400727598E+02  0.00000000000E+00 0. -1.
         11    1    3    3    0    0  0.10817090849E+02  0.17348745585E+02  0.10248190643E+02  0.22869495830E+02  0.51100000000E-03 0. -1.
        -11    1    3    3    0    0  0.98678271128E+01  0.27984476349E+00  0.62346388440E+01  0.11675746092E+02  0.51100000000E-03 0.  1.
         12    1    3    3    0    0  0.12101888260E+02  0.53700300779E+01  0.24176175907E+00  0.13242030480E+02  0.00000000000E+00 0. -1.
</event>
<event>
 7    1  0.2455451E-009  0.4778728E+02  0.7816164E-02  0.1312668E+00
        -11   -1    0    0    0    0  0.00000000000E+00  0.00000000000E+00  0.45593999997E+02  0.45594000000E+02  0.51100000000E-03 0.  1.
         11   -1    0    0    0    0 -0.00000000000E+00 -0.00000000000E+00 -0.45593999997E+02  0.45594000000E+02  0.51100000000E-03 0. -1.
    9900012    2    1    2    0    0  0.16659064551E+02  0.38306283105E+02  0.11778243613E+02  0.47787276738E+02  0.20000025961E+02 0.  0.
         12    1    1    2    0    0 -0.16659064551E+02 -0.38306283105E+02 -0.11778243613E+02  0.43400723262E+02  0.00000000000E+00 0. -1.
         11    1    3    3    0    0  0.98557412646E+01  0.19013951382E+02  0.13324181563E+02  0.25223001360E+02  0.51100000000E-03 0. -1.
        -11    1    3    3    0    0  0.79961698149E+01  0.91809743944E+01 -0.21567744141E+01  0.12364493466E+02  0.51100000000E-03 0.  1.
        -12    1    3    3    0    0 -0.11928465284E+01  0.10111357329E+02  0.61083646429E+00  0.10199781912E+02  0.00000000000E+00 0.  1.
</event>
<event>
 7    1  0.2455451E-009  0.4778727E+02  0.7816164E-02  0.1312668E+00
        -11   -1    0    0    0    0  0.00000000000E+00  0.00000000000E+00  0.45593999997E+02  0.45594000000E+02  0.51100000000E-03 0.  1.
         11   -1    0    0    0    0 -0.00000000000E+00 -0.00000000000E+00 -0.45593999997E+02  0.45594000000E+02  0.51100000000E-03 0. -1.
    9900012    2    1    2    0    0  0.22048367884E+02  0.93352694165E+01  0.36198696951E+02  0.47787269103E+02  0.19999991148E+02 0.  0.
         12    1    1    2    0    0 -0.22048367884E+02 -0.93352694165E+01 -0.36198696951E+02  0.43400730897E+02  0.00000000000E+00 0. -1.
         11    1    3    3    0    0  0.43014494381E+01 -0.34243354385E+01  0.10216337928E+02  0.11601814573E+02  0.51100000000E-03 0. -1.
        -11    1    3    3    0    0  0.14168084415E+02  0.15077972693E+02  0.19532309783E+02  0.28453312676E+02  0.51100000000E-03 0.  1.
        -12    1    3    3    0    0  0.35788340314E+01 -0.23183678376E+01  0.64500492395E+01  0.77321418537E+01  0.00000000000E+00 0.  1.
</event>
<event>
 7    1  0.2455451E-009  0.4778727E+02  0.7816164E-02  0.1312668E+00
        -11   -1    0    0    0    0  0.00000000000E+00  0.00000000000E+00  0.45593999997E+02  0.45594000000E+02  0.51100000000E-03 0.  1.
         11   -1    0    0    0    0 -0.00000000000E+00 -0.00000000000E+00 -0.45593999997E+02  0.45594000000E+02  0.51100000000E-03 0. -1.
    9900012    2    1    2    0    0 -0.36230817226E+02 -0.18743811635E+02  0.14819603755E+02  0.47787271355E+02  0.20000001415E+02 0.  0.
         12    1    1    2    0    0  0.36230817226E+02  0.18743811635E+02 -0.14819603755E+02  0.43400728645E+02  0.00000000000E+00 0. -1.
         11    1    3    3    0    0 -0.21061748689E+01  0.26838776736E+01  0.11497034698E+01  0.36001375355E+01  0.51100000000E-03 0. -1.
        -11    1    3    3    0    0 -0.34426634632E+02 -0.22018764257E+02  0.12319497364E+02  0.42682422226E+02  0.51100000000E-03 0.  1.
        -12    1    3    3    0    0  0.30199227472E+00  0.59107494889E+00  0.13504029213E+01  0.15047115933E+01  0.00000000000E+00 0.  1.
</event>
<event>
 7    1  0.2455451E-009  0.4778727E+02  0.7816164E-02  0.1312668E+00
        -11   -1    0    0    0    0  0.00000000000E+00  0.00000000000E+00  0.45593999997E+02  0.45594000000E+02  0.51100000000E-03 0.  1.
         11   -1    0    0    0    0 -0.00000000000E+00 -0.00000000000E+00 -0.45593999997E+02  0.45594000000E+02  0.51100000000E-03 0. -1.
    9900012    2    1    2    0    0 -0.36287817954E+02  0.23988903806E+01  0.23686763343E+02  0.47787272304E+02  0.20000005741E+02 0.  0.
         12    1    1    2    0    0  0.36287817954E+02 -0.23988903806E+01 -0.23686763343E+02  0.43400727696E+02  0.00000000000E+00 0. -1.
         11    1    3    3    0    0 -0.14910441390E+01 -0.31908280919E+01  0.76453583320E+01  0.84176065970E+01  0.51100000000E-03 0. -1.
        -11    1    3    3    0    0 -0.30499989632E+02  0.70292056614E+01  0.12888704448E+02  0.33849339763E+02  0.51100000000E-03 0.  1.
        -12    1    3    3    0    0 -0.42967841826E+01 -0.14394871889E+01  0.31527005633E+01  0.55203259434E+01  0.00000000000E+00 0.  1.
</event>
<event>
 7    1  0.2455451E-009  0.4778726E+02  0.7816164E-02  0.1312668E+00
        -11   -1    0    0    0    0  0.00000000000E+00  0.00000000000E+00  0.45593999997E+02  0.45594000000E+02  0.51100000000E-03 0. -1.
         11   -1    0    0    0    0 -0.00000000000E+00 -0.00000000000E+00 -0.45593999997E+02  0.45594000000E+02  0.51100000000E-03 0.  1.
    9900012    2    1    2    0    0  0.35426854185E+02 -0.18377438821E+02  0.17053803448E+02  0.47787257298E+02  0.19999937325E+02 0.  0.
         12    1    1    2    0    0 -0.35426854185E+02  0.18377438821E+02 -0.17053803448E+02  0.43400742702E+02  0.00000000000E+00 0. -1.
         11    1    3    3    0    0  0.23698236823E+02 -0.18004065598E+02  0.87216406694E+01  0.31013220130E+02  0.51100000000E-03 0.  1.
        -11    1    3    3    0    0  0.11135937600E+02  0.10536442721E+01  0.96270337874E+01  0.14758016543E+02  0.51100000000E-03 0. -1.
         12    1    3    3    0    0  0.59267976137E+00 -0.14270174952E+01 -0.12948710089E+01  0.20160206251E+01  0.00000000000E+00 0. -1.
</event>
<event>
 7    1  0.2455451E-009  0.4778727E+02  0.7816164E-02  0.1312668E+00
        -11   -1    0    0    0    0  0.00000000000E+00  0.00000000000E+00  0.45593999997E+02  0.45594000000E+02  0.51100000000E-03 0. -1.
         11   -1    0    0    0    0 -0.00000000000E+00 -0.00000000000E+00 -0.45593999997E+02  0.45594000000E+02  0.51100000000E-03 0.  1.
    9900012    2    1    2    0    0 -0.11663406580E+02 -0.13312720414E+02 -0.39627763757E+02  0.47787271454E+02  0.20000001868E+02 0.  0.
         12    1    1    2    0    0  0.11663406580E+02  0.13312720414E+02  0.39627763757E+02  0.43400728546E+02  0.00000000000E+00 0. -1.
         11    1    3    3    0    0 -0.10905097227E+02 -0.69690411887E+01 -0.20434823829E+02  0.24188234863E+02  0.51100000000E-03 0. -1.
        -11    1    3    3    0    0  0.14914105437E+01 -0.93855646852E+01 -0.16171714338E+02  0.18757331227E+02  0.51100000000E-03 0.  1.
        -12    1    3    3    0    0 -0.22497198968E+01  0.30418854594E+01 -0.30212255911E+01  0.48417053643E+01  0.00000000000E+00 0.  1.
</event>
<event>
 7    1  0.2455451E-009  0.4778727E+02  0.7816164E-02  0.1312668E+00
        -11   -1    0    0    0    0  0.00000000000E+00  0.00000000000E+00  0.45593999997E+02  0.45594000000E+02  0.51100000000E-03 0.  1.
         11   -1    0    0    0    0 -0.00000000000E+00 -0.00000000000E+00 -0.45593999997E+02  0.45594000000E+02  0.51100000000E-03 0. -1.
    9900012    2    1    2    0    0  0.42224857548E+02  0.99862198876E+01  0.97985583840E+00  0.47787270743E+02  0.19999998624E+02 0.  0.
         12    1    1    2    0    0 -0.42224857548E+02 -0.99862198876E+01 -0.97985583840E+00  0.43400729257E+02  0.00000000000E+00 0. -1.
         11    1    3    3    0    0 -0.14120549293E+01 -0.34613030544E+00  0.35062486798E+00  0.14955411632E+01  0.51100000000E-03 0. -1.
        -11    1    3    3    0    0  0.28780324252E+02  0.12160665915E+02  0.16561126151E+01  0.31287882140E+02  0.51100000000E-03 0.  1.
        -12    1    3    3    0    0  0.14856588225E+02 -0.18283157216E+01 -0.10268816446E+01  0.15003847439E+02  0.00000000000E+00 0.  1.
</event>
<event>
 7    1  0.2455451E-009  0.4778727E+02  0.7816164E-02  0.1312668E+00
        -11   -1    0    0    0    0  0.00000000000E+00  0.00000000000E+00  0.45593999997E+02  0.45594000000E+02  0.51100000000E-03 0.  1.
         11   -1    0    0    0    0 -0.00000000000E+00 -0.00000000000E+00 -0.45593999997E+02  0.45594000000E+02  0.51100000000E-03 0. -1.
    9900012    2    1    2    0    0  0.94808705310E+01 -0.42072213688E+02  0.48646962829E+01  0.47787270276E+02  0.19999996497E+02 0.  0.
         12    1    1    2    0    0 -0.94808705310E+01  0.42072213688E+02 -0.48646962829E+01  0.43400729724E+02  0.00000000000E+00 0. -1.
         11    1    3    3    0    0 -0.28885269371E+01 -0.14518197378E+02 -0.54216145186E+01  0.15764375891E+02  0.51100000000E-03 0. -1.
        -11    1    3    3    0    0  0.11967066198E+02 -0.26133744596E+02  0.91651699066E+01  0.30169249571E+02  0.51100000000E-03 0.  1.
         12    1    3    3    0    0  0.40233127041E+00 -0.14202717140E+01  0.11211408949E+01  0.18536448147E+01  0.00000000000E+00 0. -1.
</event>
<event>
 7    1  0.2455451E-009  0.4778727E+02  0.7816164E-02  0.1312668E+00
        -11   -1    0    0    0    0  0.00000000000E+00  0.00000000000E+00  0.45593999997E+02  0.45594000000E+02  0.51100000000E-03 0.  1.
         11   -1    0    0    0    0 -0.00000000000E+00 -0.00000000000E+00 -0.45593999997E+02  0.45594000000E+02  0.51100000000E-03 0. -1.
    9900012    2    1    2    0    0 -0.32965546026E+02 -0.22430142235E+02  0.17140150435E+02  0.47787271177E+02  0.20000000602E+02 0.  0.
         12    1    1    2    0    0  0.32965546026E+02  0.22430142235E+02 -0.17140150435E+02  0.43400728823E+02  0.00000000000E+00 0. -1.
         11    1    3    3    0    0 -0.30972230095E+01 -0.42607423864E+01  0.10889810464E+02  0.12096887544E+02  0.51100000000E-03 0. -1.
        -11    1    3    3    0    0 -0.21188850463E+02 -0.11742795667E+02  0.29887646688E+01  0.24408878477E+02  0.51100000000E-03 0.  1.
        -12    1    3    3    0    0 -0.86794725542E+01 -0.64266041810E+01  0.32615753025E+01  0.11281505155E+02  0.00000000000E+00 0.  1.
</event>
<event>
 7    1  0.2455451E-009  0.4778727E+02  0.7816164E-02  0.1312668E+00
        -11   -1    0    0    0    0  0.00000000000E+00  0.00000000000E+00  0.45593999997E+02  0.45594000000E+02  0.51100000000E-03 0. -1.
         11   -1    0    0    0    0 -0.00000000000E+00 -0.00000000000E+00 -0.45593999997E+02  0.45594000000E+02  0.51100000000E-03 0.  1.
    9900012    2    1    2    0    0 -0.71464450358E+01 -0.29180590336E+02 -0.31321633459E+02  0.47787271301E+02  0.20000001171E+02 0.  0.
         12    1    1    2    0    0  0.71464450358E+01  0.29180590336E+02  0.31321633459E+02  0.43400728699E+02  0.00000000000E+00 0. -1.
         11    1    3    3    0    0 -0.39227882202E+01  0.60583524315E+00 -0.92278677877E+01  0.10045339612E+02  0.51100000000E-03 0.  1.
        -11    1    3    3    0    0 -0.30541048831E+01 -0.19048812929E+02 -0.10601645670E+02  0.22013171553E+02  0.51100000000E-03 0. -1.
        -12    1    3    3    0    0 -0.16955193257E+00 -0.10737612651E+02 -0.11492120002E+02  0.15728760136E+02  0.00000000000E+00 0.  1.
</event>
<event>
 7    1  0.2455451E-009  0.4778727E+02  0.7816164E-02  0.1312668E+00
        -11   -1    0    0    0    0  0.00000000000E+00  0.00000000000E+00  0.45593999997E+02  0.45594000000E+02  0.51100000000E-03 0. -1.
         11   -1    0    0    0    0 -0.00000000000E+00 -0.00000000000E+00 -0.45593999997E+02  0.45594000000E+02  0.51100000000E-03 0.  1.
    9900012    2    1    2    0    0 -0.14354172826E+02 -0.11592909068E+02 -0.39283398357E+02  0.47787271842E+02  0.20000003636E+02 0.  0.
         12    1    1    2    0    0  0.14354172826E+02  0.11592909068E+02  0.39283398357E+02  0.43400728158E+02  0.00000000000E+00 0. -1.
         11    1    3    3    0    0  0.13713605933E+01 -0.75828678287E+01 -0.14268464190E+02  0.16216336978E+02  0.51100000000E-03 0.  1.
        -11    1    3    3    0    0 -0.14334513837E+02 -0.60314129512E+01 -0.16348808945E+02  0.22564126026E+02  0.51100000000E-03 0. -1.
         12    1    3    3    0    0 -0.13910195826E+01  0.20213717123E+01 -0.86661252214E+01  0.90068088372E+01  0.00000000000E+00 0. -1.
</event>
<event>
 7    1  0.2912931E-009  0.4778727E+02  0.7816164E-02  0.1312668E+00
        -11   -1    0    0    0    0  0.00000000000E+00  0.00000000000E+00  0.45593999997E+02  0.45594000000E+02  0.51100000000E-03 0.  1.
         11   -1    0    0    0    0 -0.00000000000E+00 -0.00000000000E+00 -0.45593999997E+02  0.45594000000E+02  0.51100000000E-03 0. -1.
    9900012    2    1    2    0    0 -0.28267997366E+02 -0.22909554207E+02  0.23657892871E+02  0.47787271387E+02  0.20000001562E+02 0.  0.
         12    1    1    2    0    0  0.28267997366E+02  0.22909554207E+02 -0.23657892871E+02  0.43400728613E+02  0.00000000000E+00 0. -1.
         11    1    3    3    0    0 -0.50600209617E+01 -0.46474215086E+01 -0.19461014609E+01  0.71407037446E+01  0.51100000000E-03 0. -1.
        -11    1    3    3    0    0 -0.23239825934E+02 -0.17807308656E+02  0.21025114295E+02  0.36045043798E+02  0.51100000000E-03 0.  1.
         12    1    3    3    0    0  0.31849530202E-01 -0.45482404318E+00  0.45788800365E+01  0.46015238445E+01  0.00000000000E+00 0. -1.
</event>
<event>
 7    1  0.2455451E-009  0.4778727E+02  0.7816164E-02  0.1312668E+00
        -11   -1    0    0    0    0  0.00000000000E+00  0.00000000000E+00  0.45593999997E+02  0.45594000000E+02  0.51100000000E-03 0. -1.
         11   -1    0    0    0    0 -0.00000000000E+00 -0.00000000000E+00 -0.45593999997E+02  0.45594000000E+02  0.51100000000E-03 0.  1.
    9900012    2    1    2    0    0 -0.34622410262E+02 -0.10090030967E+01 -0.26151368001E+02  0.47787269270E+02  0.19999991909E+02 0.  0.
         12    1    1    2    0    0  0.34622410262E+02  0.10090030967E+01  0.26151368001E+02  0.43400730730E+02  0.00000000000E+00 0. -1.
         11    1    3    3    0    0 -0.10118851263E+02 -0.61368822816E+01 -0.48655065318E+01  0.12795531606E+02  0.51100000000E-03 0. -1.
        -11    1    3    3    0    0 -0.20836371942E+02  0.73512892266E+01 -0.21318563248E+02  0.30703045260E+02  0.51100000000E-03 0.  1.
        -12    1    3    3    0    0 -0.36671870575E+01 -0.22234100416E+01  0.32701779221E-01  0.42886924038E+01  0.00000000000E+00 0.  1.
</event>
<event>
 7    1  0.2455451E-009  0.4778727E+02  0.7816164E-02  0.1312668E+00
        -11   -1    0    0    0    0  0.00000000000E+00  0.00000000000E+00  0.45593999997E+02  0.45594000000E+02  0.51100000000E-03 0. -1.
         11   -1    0    0    0    0 -0.00000000000E+00 -0.00000000000E+00 -0.45593999997E+02  0.45594000000E+02  0.51100000000E-03 0.  1.
    9900012    2    1    2    0    0  0.50292795911E+01 -0.42972948501E+02  0.34139995586E+01  0.47787270179E+02  0.19999996053E+02 0.  0.
         12    1    1    2    0    0 -0.50292795911E+01  0.42972948501E+02 -0.34139995586E+01  0.43400729821E+02  0.00000000000E+00 0. -1.
         11    1    3    3    0    0  0.46549910917E+01 -0.11046555059E+01  0.85796917492E+00  0.48605881554E+01  0.51100000000E-03 0. -1.
        -11    1    3    3    0    0  0.38294171619E+01 -0.30403810302E+02  0.38423413667E+01  0.30883971638E+02  0.51100000000E-03 0.  1.
         12    1    3    3    0    0 -0.34551286625E+01 -0.11464482692E+02 -0.12863109830E+01  0.12042710385E+02  0.00000000000E+00 0. -1.
</event>
<event>
 7    1  0.2455451E-009  0.4778726E+02  0.7816164E-02  0.1312668E+00
        -11   -1    0    0    0    0  0.00000000000E+00  0.00000000000E+00  0.45593999997E+02  0.45594000000E+02  0.51100000000E-03 0.  1.
         11   -1    0    0    0    0 -0.00000000000E+00 -0.00000000000E+00 -0.45593999997E+02  0.45594000000E+02  0.51100000000E-03 0. -1.
    9900012    2    1    2    0    0 -0.20911872249E+01 -0.18138808474E+02  0.39373020141E+02  0.47787260929E+02  0.19999953881E+02 0.  0.
         12    1    1    2    0    0  0.20911872249E+01  0.18138808474E+02 -0.39373020141E+02  0.43400739071E+02  0.00000000000E+00 0. -1.
         11    1    3    3    0    0  0.35090888362E+01 -0.34740742133E+01  0.30420261123E+01  0.57997257891E+01  0.51100000000E-03 0. -1.
        -11    1    3    3    0    0 -0.10744859273E+01 -0.14169963338E+02  0.34047739724E+02  0.36894321536E+02  0.51100000000E-03 0.  1.
        -12    1    3    3    0    0 -0.45257901338E+01 -0.49477092274E+00  0.22832543045E+01  0.50932136044E+01  0.00000000000E+00 0.  1.
</event>
<event>
 7    1  0.2455451E-009  0.4778727E+02  0.7816164E-02  0.1312668E+00
        -11   -1    0    0    0    0  0.00000000000E+00  0.00000000000E+00  0.45593999997E+02  0.45594000000E+02  0.51100000000E-03 0.  1.
         11   -1    0    0    0    0 -0.00000000000E+00 -0.00000000000E+00 -0.45593999997E+02  0.45594000000E+02  0.51100000000E-03 0. -1.
    9900012    2    1    2    0    0 -0.39197838816E+02 -0.91598784203E+01 -0.16224964190E+02  0.47787269551E+02  0.19999993190E+02 0.  0.
         12    1    1    2    0    0  0.39197838816E+02  0.91598784203E+01  0.16224964190E+02  0.43400730449E+02  0.00000000000E+00 0. -1.
         11    1    3    3    0    0 -0.75623244653E+01 -0.61205627330E+01 -0.10062089250E+02  0.13996273783E+02  0.51100000000E-03 0. -1.
        -11    1    3    3    0    0 -0.94924010231E+01  0.34801021739E+01 -0.12064169176E+01  0.10181956117E+02  0.51100000000E-03 0.  1.
         12    1    3    3    0    0 -0.22143113328E+02 -0.65194178612E+01 -0.49564580231E+01  0.23609039651E+02  0.00000000000E+00 0. -1.
</event>
<event>
 7    1  0.2455451E-009  0.4778726E+02  0.7816164E-02  0.1312668E+00
        -11   -1    0    0    0    0  0.00000000000E+00  0.00000000000E+00  0.45593999997E+02  0.45594000000E+02  0.51100000000E-03 0.  1.
         11   -1    0    0    0    0 -0.00000000000E+00 -0.00000000000E+00 -0.45593999997E+02  0.45594000000E+02  0.51100000000E-03 0. -1.
    9900012    2    1    2    0    0 -0.41027716614E+01  0.43189112248E+02  0.12216198979E+01  0.47787256835E+02  0.19999935215E+02 0.  0.
         12    1    1    2    0    0  0.41027716614E+01 -0.43189112248E+02 -0.12216198979E+01  0.43400743165E+02  0.00000000000E+00 0. -1.
         11    1    3    3    0    0 -0.63073119641E+01  0.58160569172E+01  0.88752198667E+00  0.86253346494E+01  0.51100000000E-03 0. -1.
        -11    1    3    3    0    0  0.40488232190E+01  0.35769566262E+02 -0.16176666626E+01  0.36034312616E+02  0.51100000000E-03 0.  1.
        -12    1    3    3    0    0 -0.18442829163E+01  0.16034890684E+01  0.19517645738E+01  0.31276095695E+01  0.00000000000E+00 0.  1.
</event>
<event>
 7    1  0.2455451E-009  0.4778729E+02  0.7816164E-02  0.1312668E+00
        -11   -1    0    0    0    0  0.00000000000E+00  0.00000000000E+00  0.45593999997E+02  0.45594000000E+02  0.51100000000E-03 0.  1.
         11   -1    0    0    0    0 -0.00000000000E+00 -0.00000000000E+00 -0.45593999997E+02  0.45594000000E+02  0.51100000000E-03 0. -1.
    9900012    2    1    2    0    0  0.28605820670E+02 -0.21562728258E+02  0.24502601585E+02  0.47787289055E+02  0.20000082115E+02 0.  0.
         12    1    1    2    0    0 -0.28605820670E+02  0.21562728258E+02 -0.24502601585E+02  0.43400710945E+02  0.00000000000E+00 0. -1.
         11    1    3    3    0    0  0.13616746091E+01 -0.88639171122E+01  0.81531632169E+01  0.12120117781E+02  0.51100000000E-03 0. -1.
        -11    1    3    3    0    0  0.12995025220E+02 -0.14626746082E+01  0.99259605469E+01  0.16417514749E+02  0.51100000000E-03 0.  1.
         12    1    3    3    0    0  0.14249120840E+02 -0.11236136538E+02  0.64234778216E+01  0.19249656525E+02  0.00000000000E+00 0. -1.
</event>
<event>
 7    1  0.2455451E-009  0.4778727E+02  0.7816164E-02  0.1312668E+00
        -11   -1    0    0    0    0  0.00000000000E+00  0.00000000000E+00  0.45593999997E+02  0.45594000000E+02  0.51100000000E-03 0. -1.
         11   -1    0    0    0    0 -0.00000000000E+00 -0.00000000000E+00 -0.45593999997E+02  0.45594000000E+02  0.51100000000E-03 0.  1.
    9900012    2    1    2    0    0 -0.58811852424E+01  0.42166424687E+02  0.84277813641E+01  0.47787271787E+02  0.20000003384E+02 0.  0.
         12    1    1    2    0    0  0.58811852424E+01 -0.42166424687E+02 -0.84277813641E+01  0.43400728213E+02  0.00000000000E+00 0. -1.
         11    1    3    3    0    0  0.48623161281E+01  0.18348322254E+02  0.22757656375E+01  0.19117587640E+02  0.51100000000E-03 0. -1.
        -11    1    3    3    0    0  0.21910853511E+00  0.11324478609E+02  0.33684126700E+01  0.11816853578E+02  0.51100000000E-03 0.  1.
         12    1    3    3    0    0 -0.10962609906E+02  0.12493623824E+02  0.27836030566E+01  0.16852830568E+02  0.00000000000E+00 0. -1.
</event>
<event>
 7    1  0.2455451E-009  0.4778727E+02  0.7816164E-02  0.1312668E+00
        -11   -1    0    0    0    0  0.00000000000E+00  0.00000000000E+00  0.45593999997E+02  0.45594000000E+02  0.51100000000E-03 0.  1.
         11   -1    0    0    0    0 -0.00000000000E+00 -0.00000000000E+00 -0.45593999997E+02  0.45594000000E+02  0.51100000000E-03 0. -1.
    9900012    2    1    2    0    0  0.20009317238E+02  0.12106179518E+02  0.36560783718E+02  0.47787271148E+02  0.20000000471E+02 0.  0.
         12    1    1    2    0    0 -0.20009317238E+02 -0.12106179518E+02 -0.36560783718E+02  0.43400728852E+02  0.00000000000E+00 0. -1.
         11    1    3    3    0    0 -0.21722732553E+01  0.47918858648E+01  0.13705660864E+02  0.14680806559E+02  0.51100000000E-03 0. -1.
        -11    1    3    3    0    0  0.20987602857E+02  0.80900667115E+01  0.21040197702E+02  0.30799652152E+02  0.51100000000E-03 0.  1.
         12    1    3    3    0    0  0.11939876367E+01 -0.77577305852E+00  0.18149251517E+01  0.23068124373E+01  0.00000000000E+00 0. -1.
</event>
<event>
 7    1  0.2455451E-009  0.4778727E+02  0.7816164E-02  0.1312668E+00
        -11   -1    0    0    0    0  0.00000000000E+00  0.00000000000E+00  0.45593999997E+02  0.45594000000E+02  0.51100000000E-03 0.  1.
         11   -1    0    0    0    0 -0.00000000000E+00 -0.00000000000E+00 -0.45593999997E+02  0.45594000000E+02  0.51100000000E-03 0. -1.
    9900012    2    1    2    0    0  0.78892715615E+01  0.42351922425E+02  0.52628417439E+01  0.47787269107E+02  0.19999991165E+02 0.  0.
         12    1    1    2    0    0 -0.78892715615E+01 -0.42351922425E+02 -0.52628417439E+01  0.43400730893E+02  0.00000000000E+00 0. -1.
         11    1    3    3    0    0 -0.35572801284E+01  0.29198321167E+01 -0.21263792514E+01  0.50696302117E+01  0.51100000000E-03 0. -1.
        -11    1    3    3    0    0 -0.10560275909E+01  0.10398182365E+02  0.14225618263E+01  0.10548036460E+02  0.51100000000E-03 0.  1.
         12    1    3    3    0    0  0.12502579281E+02  0.29033907944E+02  0.59666591690E+01  0.32169602434E+02  0.00000000000E+00 0. -1.
</event>
<event>
 7    1  0.2455451E-009  0.4778727E+02  0.7816164E-02  0.1312668E+00
        -11   -1    0    0    0    0  0.00000000000E+00  0.00000000000E+00  0.45593999997E+02  0.45594000000E+02  0.51100000000E-03 0.  1.
         11   -1    0    0    0    0 -0.00000000000E+00 -0.00000000000E+00 -0.45593999997E+02  0.45594000000E+02  0.51100000000E-03 0. -1.
    9900012    2    1    2    0    0  0.31519726537E+02  0.25572450451E+02 -0.15368156931E+02  0.47787266936E+02  0.19999981267E+02 0.  0.
         12    1    1    2    0    0 -0.31519726537E+02 -0.25572450451E+02  0.15368156931E+02  0.43400733064E+02  0.00000000000E+00 0. -1.
         11    1    3    3    0    0 -0.10690571876E+01  0.15183999908E+01  0.22337699852E+01  0.29048494644E+01  0.51100000000E-03 0. -1.
        -11    1    3    3    0    0  0.30055988807E+02  0.19254203072E+02 -0.13862346980E+02  0.38291663102E+02  0.51100000000E-03 0.  1.
        -12    1    3    3    0    0  0.25327949178E+01  0.47998473881E+01 -0.37395799372E+01  0.65907543689E+01  0.00000000000E+00 0.  1.
</event>
<event>
 7    1  0.2455451E-009  0.4778727E+02  0.7816164E-02  0.1312668E+00
        -11   -1    0    0    0    0  0.00000000000E+00  0.00000000000E+00  0.45593999997E+02  0.45594000000E+02  0.51100000000E-03 0.  1.
         11   -1    0    0    0    0 -0.00000000000E+00 -0.00000000000E+00 -0.45593999997E+02  0.45594000000E+02  0.51100000000E-03 0. -1.
    9900012    2    1    2    0    0 -0.38668549894E+02  0.19258221353E+02  0.41818198644E+01  0.47787268924E+02  0.19999990331E+02 0.  0.
         12    1    1    2    0    0  0.38668549894E+02 -0.19258221353E+02 -0.41818198644E+01  0.43400731076E+02  0.00000000000E+00 0. -1.
         11    1    3    3    0    0 -0.11426982335E+02  0.32533843788E+00  0.60274312946E+01  0.12923300610E+02  0.51100000000E-03 0. -1.
        -11    1    3    3    0    0 -0.15572321858E+02  0.13776050925E+02 -0.56602503255E+01  0.21547974873E+02  0.51100000000E-03 0.  1.
        -12    1    3    3    0    0 -0.11669245701E+02  0.51568319901E+01  0.38146388953E+01  0.13315993441E+02  0.00000000000E+00 0.  1.
</event>
<event>
 7    1  0.2455451E-009  0.4778727E+02  0.7816164E-02  0.1312668E+00
        -11   -1    0    0    0    0  0.00000000000E+00  0.00000000000E+00  0.45593999997E+02  0.45594000000E+02  0.51100000000E-03 0.  1.
         11   -1    0    0    0    0 -0.00000000000E+00 -0.00000000000E+00 -0.45593999997E+02  0.45594000000E+02  0.51100000000E-03 0. -1.
    9900012    2    1    2    0    0  0.18879239281E+02 -0.14386077849E+02  0.36335084425E+02  0.47787271067E+02  0.20000000103E+02 0.  0.
         12    1    1    2    0    0 -0.18879239281E+02  0.14386077849E+02 -0.36335084425E+02  0.43400728933E+02  0.00000000000E+00 0. -1.
         11    1    3    3    0    0  0.27850145807E+01  0.35005011436E+01  0.86509784762E+01  0.97390576202E+01  0.51100000000E-03 0. -1.
        -11    1    3    3    0    0  0.10391301415E+02 -0.16800520145E+02  0.17829200685E+02  0.26610468233E+02  0.51100000000E-03 0.  1.
        -12    1    3    3    0    0  0.57029232862E+01 -0.10860588481E+01  0.98549052635E+01  0.11437745214E+02  0.00000000000E+00 0.  1.
</event>
<event>
 7    1  0.2455451E-009  0.4778731E+02  0.7816164E-02  0.1312668E+00
        -11   -1    0    0    0    0  0.00000000000E+00  0.00000000000E+00  0.45593999997E+02  0.45594000000E+02  0.51100000000E-03 0. -1.
         11   -1    0    0    0    0 -0.00000000000E+00 -0.00000000000E+00 -0.45593999997E+02  0.45594000000E+02  0.51100000000E-03 0.  1.
    9900012    2    1    2    0    0 -0.18314416971E+02 -0.15815438423E+02 -0.36028792433E+02  0.47787310540E+02  0.20000180073E+02 0.  0.
         12    1    1    2    0    0  0.18314416971E+02  0.15815438423E+02  0.36028792433E+02  0.43400689460E+02  0.00000000000E+00 0. -1.
         11    1    3    3    0    0  0.30987254362E+01 -0.15079323380E+00 -0.94707542747E+01  0.99659432429E+01  0.51100000000E-03 0. -1.
        -11    1    3    3    0    0 -0.17700286308E+02 -0.10543024584E+02 -0.20333076607E+02  0.28946321137E+02  0.51100000000E-03 0.  1.
        -12    1    3    3    0    0 -0.37128560985E+01 -0.51216206050E+01 -0.62249615510E+01  0.88750461600E+01  0.00000000000E+00 0.  1.
</event>
<event>
 7    1  0.2455451E-009  0.4778727E+02  0.7816164E-02  0.1312668E+00
        -11   -1    0    0    0    0  0.00000000000E+00  0.00000000000E+00  0.45593999997E+02  0.45594000000E+02  0.51100000000E-03 0. -1.
         11   -1    0    0    0    0 -0.00000000000E+00 -0.00000000000E+00 -0.45593999997E+02  0.45594000000E+02  0.51100000000E-03 0.  1.
    9900012    2    1    2    0    0  0.17675845842E+02  0.38563970814E+02 -0.91655677264E+01  0.47787274166E+02  0.20000014234E+02 0.  0.
         12    1    1    2    0    0 -0.17675845842E+02 -0.38563970814E+02  0.91655677264E+01  0.43400725834E+02  0.00000000000E+00 0. -1.
         11    1    3    3    0    0 -0.66828946567E+00  0.22647824632E+01  0.19541201052E+01  0.30650344309E+01  0.51100000000E-03 0. -1.
        -11    1    3    3    0    0  0.13704407115E+02  0.32271187895E+02 -0.14226787494E+02  0.37837043029E+02  0.51100000000E-03 0.  1.
        -12    1    3    3    0    0  0.46397281928E+01  0.40280004558E+01  0.31070996626E+01  0.68851967065E+01  0.00000000000E+00 0.  1.
</event>
<event>
 7    1  0.2455451E-009  0.4778727E+02  0.7816164E-02  0.1312668E+00
        -11   -1    0    0    0    0  0.00000000000E+00  0.00000000000E+00  0.45593999997E+02  0.45594000000E+02  0.51100000000E-03 0.  1.
         11   -1    0    0    0    0 -0.00000000000E+00 -0.00000000000E+00 -0.45593999997E+02  0.45594000000E+02  0.51100000000E-03 0. -1.
    9900012    2    1    2    0    0  0.36909433115E+02  0.21775862362E+02 -0.68650368830E+01  0.47787272288E+02  0.20000005670E+02 0.  0.
         12    1    1    2    0    0 -0.36909433115E+02 -0.21775862362E+02  0.68650368830E+01  0.43400727712E+02  0.00000000000E+00 0. -1.
         11    1    3    3    0    0  0.27263599831E+02  0.24451988410E+02 -0.85257269305E+01  0.37601750397E+02  0.51100000000E-03 0. -1.
        -11    1    3    3    0    0  0.61170691974E+01 -0.19239945821E+01  0.69215583536E+00  0.64497574125E+01  0.51100000000E-03 0.  1.
         12    1    3    3    0    0  0.35287640870E+01 -0.75213146543E+00  0.96853421214E+00  0.37357644791E+01  0.00000000000E+00 0. -1.
</event>
<event>
 7    1  0.2455451E-009  0.4778728E+02  0.7816164E-02  0.1312668E+00
        -11   -1    0    0    0    0  0.00000000000E+00  0.00000000000E+00  0.45593999997E+02  0.45594000000E+02  0.51100000000E-03 0.  1.
         11   -1    0    0    0    0 -0.00000000000E+00 -0.00000000000E+00 -0.45593999997E+02  0.45594000000E+02  0.51100000000E-03 0. -1.
    9900012    2    1    2    0    0 -0.21317770631E+02  0.28238920025E+02  0.25134418217E+02  0.47787275029E+02  0.20000018169E+02 0.  0.
         12    1    1    2    0    0  0.21317770631E+02 -0.28238920025E+02 -0.25134418217E+02  0.43400724971E+02  0.00000000000E+00 0. -1.
         11    1    3    3    0    0 -0.23266966743E+02  0.20972884595E+02  0.16583639674E+02  0.35443345422E+02  0.51100000000E-03 0. -1.
        -11    1    3    3    0    0 -0.14896993300E+01  0.15745884987E+01  0.28800330164E+01  0.36045975463E+01  0.51100000000E-03 0.  1.
         12    1    3    3    0    0  0.34388954420E+01  0.56914469315E+01  0.56707455272E+01  0.87393320608E+01  0.00000000000E+00 0. -1.
</event>
<event>
 7    1  0.2455451E-009  0.4778728E+02  0.7816164E-02  0.1312668E+00
        -11   -1    0    0    0    0  0.00000000000E+00  0.00000000000E+00  0.45593999997E+02  0.45594000000E+02  0.51100000000E-03 0.  1.
         11   -1    0    0    0    0 -0.00000000000E+00 -0.00000000000E+00 -0.45593999997E+02  0.45594000000E+02  0.51100000000E-03 0. -1.
    9900012    2    1    2    0    0  0.37043152645E+02  0.20305074258E+02  0.99564882942E+01  0.47787275840E+02  0.20000021863E+02 0.  0.
         12    1    1    2    0    0 -0.37043152645E+02 -0.20305074258E+02 -0.99564882942E+01  0.43400724160E+02  0.00000000000E+00 0. -1.
         11    1    3    3    0    0  0.11992605219E+02  0.63977012950E+01  0.11260981294E+02  0.17651143356E+02  0.51100000000E-03 0. -1.
        -11    1    3    3    0    0  0.85910356494E+01  0.31315301180E+01  0.36550618662E+01  0.98474286956E+01  0.51100000000E-03 0.  1.
         12    1    3    3    0    0  0.16459511776E+02  0.10775842845E+02 -0.49595548659E+01  0.20288703788E+02  0.00000000000E+00 0. -1.
</event>
<event>
 7    1  0.2455451E-009  0.4778727E+02  0.7816164E-02  0.1312668E+00
        -11   -1    0    0    0    0  0.00000000000E+00  0.00000000000E+00  0.45593999997E+02  0.45594000000E+02  0.51100000000E-03 0.  1.
         11   -1    0    0    0    0 -0.00000000000E+00 -0.00000000000E+00 -0.45593999997E+02  0.45594000000E+02  0.51100000000E-03 0. -1.
    9900012    2    1    2    0    0 -0.31052817826E+02 -0.15569570003E+02  0.26017959499E+02  0.47787271648E+02  0.20000002750E+02 0.  0.
         12    1    1    2    0    0  0.31052817826E+02  0.15569570003E+02 -0.26017959499E+02  0.43400728352E+02  0.00000000000E+00 0. -1.
         11    1    3    3    0    0 -0.43148053872E+01 -0.37895337656E+01 -0.22838315798E+01  0.61801293381E+01  0.51100000000E-03 0. -1.
        -11    1    3    3    0    0 -0.14233488774E+02 -0.48894019405E+01  0.20203757265E+02  0.25193059796E+02  0.51100000000E-03 0.  1.
         12    1    3    3    0    0 -0.12504523665E+02 -0.68906342972E+01  0.80980338139E+01  0.16414082513E+02  0.00000000000E+00 0. -1.
</event>
<event>
 7    1  0.2455451E-009  0.4778727E+02  0.7816164E-02  0.1312668E+00
        -11   -1    0    0    0    0  0.00000000000E+00  0.00000000000E+00  0.45593999997E+02  0.45594000000E+02  0.51100000000E-03 0.  1.
         11   -1    0    0    0    0 -0.00000000000E+00 -0.00000000000E+00 -0.45593999997E+02  0.45594000000E+02  0.51100000000E-03 0. -1.
    9900012    2    1    2    0    0 -0.24000379211E+02 -0.34480971346E+02 -0.10893476812E+02  0.47787269312E+02  0.19999992102E+02 0.  0.
         12    1    1    2    0    0  0.24000379211E+02  0.34480971346E+02  0.10893476812E+02  0.43400730688E+02  0.00000000000E+00 0. -1.
         11    1    3    3    0    0 -0.10954809075E+01  0.14508655052E+01 -0.75583487315E+00  0.19688513782E+01  0.51100000000E-03 0. -1.
        -11    1    3    3    0    0 -0.18818956953E+02 -0.31571804128E+02 -0.35524367413E+01  0.36926301788E+02  0.51100000000E-03 0.  1.
        -12    1    3    3    0    0 -0.40859413507E+01 -0.43600327233E+01 -0.65852051971E+01  0.88921161462E+01  0.00000000000E+00 0.  1.
</event>
<event>
 7    1  0.2455451E-009  0.4778727E+02  0.7816164E-02  0.1312668E+00
        -11   -1    0    0    0    0  0.00000000000E+00  0.00000000000E+00  0.45593999997E+02  0.45594000000E+02  0.51100000000E-03 0. -1.
         11   -1    0    0    0    0 -0.00000000000E+00 -0.00000000000E+00 -0.45593999997E+02  0.45594000000E+02  0.51100000000E-03 0.  1.
    9900012    2    1    2    0    0 -0.17525744811E+02  0.26744456632E+02 -0.29346305357E+02  0.47787270400E+02  0.19999997063E+02 0.  0.
         12    1    1    2    0    0  0.17525744811E+02 -0.26744456632E+02  0.29346305357E+02  0.43400729600E+02  0.00000000000E+00 0. -1.
         11    1    3    3    0    0 -0.97332325485E+00  0.31991109557E+01  0.87651964226E+00  0.34568708407E+01  0.51100000000E-03 0. -1.
        -11    1    3    3    0    0 -0.13609442121E+02  0.15846548166E+02 -0.29375113965E+02  0.36044796078E+02  0.51100000000E-03 0.  1.
        -12    1    3    3    0    0 -0.29429794352E+01  0.76987975099E+01 -0.84771103443E+00  0.82856034814E+01  0.00000000000E+00 0.  1.
</event>
<event>
 7    1  0.2455451E-009  0.4778727E+02  0.7816164E-02  0.1312668E+00
        -11   -1    0    0    0    0  0.00000000000E+00  0.00000000000E+00  0.45593999997E+02  0.45594000000E+02  0.51100000000E-03 0.  1.
         11   -1    0    0    0    0 -0.00000000000E+00 -0.00000000000E+00 -0.45593999997E+02  0.45594000000E+02  0.51100000000E-03 0. -1.
    9900012    2    1    2    0    0 -0.14977250832E+01  0.23750131879E+02  0.36294780912E+02  0.47787273438E+02  0.20000010913E+02 0.  0.
         12    1    1    2    0    0  0.14977250832E+01 -0.23750131879E+02 -0.36294780912E+02  0.43400726562E+02  0.00000000000E+00 0. -1.
         11    1    3    3    0    0  0.24181106946E+01  0.45178136442E+01 -0.81905479602E+00  0.51892919050E+01  0.51100000000E-03 0. -1.
        -11    1    3    3    0    0 -0.25533217689E+00  0.13318615552E+02  0.28987329422E+02  0.31901661117E+02  0.51100000000E-03 0.  1.
         12    1    3    3    0    0 -0.36605036009E+01  0.59137026831E+01  0.81265062859E+01  0.10696320416E+02  0.00000000000E+00 0. -1.
</event>
<event>
 7    1  0.2455451E-009  0.4778727E+02  0.7816164E-02  0.1312668E+00
        -11   -1    0    0    0    0  0.00000000000E+00  0.00000000000E+00  0.45593999997E+02  0.45594000000E+02  0.51100000000E-03 0.  1.
         11   -1    0    0    0    0 -0.00000000000E+00 -0.00000000000E+00 -0.45593999997E+02  0.45594000000E+02  0.51100000000E-03 0. -1.
    9900012    2    1    2    0    0  0.12292020959E+01  0.71283514378E+01  0.42793679139E+02  0.47787270672E+02  0.19999998301E+02 0.  0.
         12    1    1    2    0    0 -0.12292020959E+01 -0.71283514378E+01 -0.42793679139E+02  0.43400729328E+02  0.00000000000E+00 0. -1.
         11    1    3    3    0    0 -0.73959635853E+01  0.62126467428E+01  0.24147889412E+02  0.26008033763E+02  0.51100000000E-03 0. -1.
        -11    1    3    3    0    0  0.72661947148E+01  0.10649951673E+00  0.18833137736E+02  0.20186530286E+02  0.51100000000E-03 0.  1.
         12    1    3    3    0    0  0.13589709664E+01  0.80920517827E+00 -0.18734800896E+00  0.15927066222E+01  0.00000000000E+00 0. -1.
</event>
<event>
 7    1  0.2455451E-009  0.4778727E+02  0.7816164E-02  0.1312668E+00
        -11   -1    0    0    0    0  0.00000000000E+00  0.00000000000E+00  0.45593999997E+02  0.45594000000E+02  0.51100000000E-03 0. -1.
         11   -1    0    0    0    0 -0.00000000000E+00 -0.00000000000E+00 -0.45593999997E+02  0.45594000000E+02  0.51100000000E-03 0.  1.
    9900012    2    1    2    0    0 -0.24630983632E+02  0.34761364797E+02 -0.82816401046E+01  0.47787269591E+02  0.19999993372E+02 0.  0.
         12    1    1    2    0    0  0.24630983632E+02 -0.34761364797E+02  0.82816401046E+01  0.43400730409E+02  0.00000000000E+00 0. -1.
         11    1    3    3    0    0 -0.43559292853E+01  0.42658689742E+01 -0.87565223107E+01  0.10669978504E+02  0.51100000000E-03 0. -1.
        -11    1    3    3    0    0 -0.12962521898E+02  0.24222654045E+02  0.66500388945E+00  0.27481014781E+02  0.51100000000E-03 0.  1.
         12    1    3    3    0    0 -0.73125324490E+01  0.62728417775E+01 -0.19012168333E+00  0.96362763055E+01  0.00000000000E+00 0. -1.
</event>
<event>
 7    1  0.2455451E-009  0.4778726E+02  0.7816164E-02  0.1312668E+00
        -11   -1    0    0    0    0  0.00000000000E+00  0.00000000000E+00  0.45593999997E+02  0.45594000000E+02  0.51100000000E-03 0.  1.
         11   -1    0    0    0    0 -0.00000000000E+00 -0.00000000000E+00 -0.45593999997E+02  0.45594000000E+02  0.51100000000E-03 0. -1.
    9900012    2    1    2    0    0  0.59024914189E+01 -0.35162195798E+02  0.24746805688E+02  0.47787264867E+02  0.19999971835E+02 0.  0.
         12    1    1    2    0    0 -0.59024914189E+01  0.35162195798E+02 -0.24746805688E+02  0.43400735133E+02  0.00000000000E+00 0. -1.
         11    1    3    3    0    0 -0.62804690822E+00  0.59713354348E+00 -0.10234334742E+01  0.13410547062E+01  0.51100000000E-03 0. -1.
        -11    1    3    3    0    0  0.87663038166E+01 -0.20373546062E+02  0.19991900599E+02  0.29859764761E+02  0.51100000000E-03 0.  1.
        -12    1    3    3    0    0 -0.22357654896E+01 -0.15385783279E+02  0.57783385628E+01  0.16586445400E+02  0.00000000000E+00 0.  1.
</event>
<event>
 7    1  0.2455451E-009  0.4778726E+02  0.7816164E-02  0.1312668E+00
        -11   -1    0    0    0    0  0.00000000000E+00  0.00000000000E+00  0.45593999997E+02  0.45594000000E+02  0.51100000000E-03 0.  1.
         11   -1    0    0    0    0 -0.00000000000E+00 -0.00000000000E+00 -0.45593999997E+02  0.45594000000E+02  0.51100000000E-03 0. -1.
    9900012    2    1    2    0    0 -0.36438823551E+02  0.23369348733E+02 -0.31160347505E+01  0.47787262742E+02  0.19999962144E+02 0.  0.
         12    1    1    2    0    0  0.36438823551E+02 -0.23369348733E+02  0.31160347505E+01  0.43400737258E+02  0.00000000000E+00 0. -1.
         11    1    3    3    0    0 -0.55550553843E+01 -0.43684122004E+00  0.34645427825E+01  0.65614424883E+01  0.51100000000E-03 0. -1.
        -11    1    3    3    0    0 -0.14375795699E+02  0.18346457977E+02 -0.39695327836E+01  0.23643460260E+02  0.51100000000E-03 0.  1.
        -12    1    3    3    0    0 -0.16507972468E+02  0.54597319762E+01 -0.26110447494E+01  0.17582359993E+02  0.00000000000E+00 0.  1.
</event>
<event>
 7    1  0.2455451E-009  0.4778727E+02  0.7816164E-02  0.1312668E+00
        -11   -1    0    0    0    0  0.00000000000E+00  0.00000000000E+00  0.45593999997E+02  0.45594000000E+02  0.51100000000E-03 0.  1.
         11   -1    0    0    0    0 -0.00000000000E+00 -0.00000000000E+00 -0.45593999997E+02  0.45594000000E+02  0.51100000000E-03 0. -1.
    9900012    2    1    2    0    0  0.28232928533E+02 -0.22584537374E+01  0.32885016416E+02  0.47787272224E+02  0.20000005376E+02 0.  0.
         12    1    1    2    0    0 -0.28232928533E+02  0.22584537374E+01 -0.32885016416E+02  0.43400727776E+02  0.00000000000E+00 0. -1.
         11    1    3    3    0    0  0.20626506178E+01 -0.61345664035E+01  0.92557277759E+01  0.11294066117E+02  0.51100000000E-03 0. -1.
        -11    1    3    3    0    0  0.17004867981E+02  0.46606791183E+01  0.19844695466E+02  0.26546174927E+02  0.51100000000E-03 0.  1.
        -12    1    3    3    0    0  0.91654099345E+01 -0.78456645212E+00  0.37845931743E+01  0.99470311793E+01  0.00000000000E+00 0.  1.
</event>
<event>
 7    1  0.2455451E-009  0.4778726E+02  0.7816164E-02  0.1312668E+00
        -11   -1    0    0    0    0  0.00000000000E+00  0.00000000000E+00  0.45593999997E+02  0.45594000000E+02  0.51100000000E-03 0.  1.
         11   -1    0    0    0    0 -0.00000000000E+00 -0.00000000000E+00 -0.45593999997E+02  0.45594000000E+02  0.51100000000E-03 0. -1.
    9900012    2    1    2    0    0  0.39213249085E+02  0.18321022660E+02 -0.32070486499E+01  0.47787263415E+02  0.19999965213E+02 0.  0.
         12    1    1    2    0    0 -0.39213249085E+02 -0.18321022660E+02  0.32070486499E+01  0.43400736585E+02  0.00000000000E+00 0. -1.
         11    1    3    3    0    0  0.10267034111E+01 -0.80521970953E+00 -0.45844515743E+01  0.47665181394E+01  0.51100000000E-03 0. -1.
        -11    1    3    3    0    0  0.21343871430E+02  0.13375885702E+02  0.13209021545E+01  0.25223400816E+02  0.51100000000E-03 0.  1.
         12    1    3    3    0    0  0.16842674244E+02  0.57503566666E+01  0.56500769863E-01  0.17797344460E+02  0.00000000000E+00 0. -1.
</event>
<event>
 7    1  0.2455451E-009  0.4778727E+02  0.7816164E-02  0.1312668E+00
        -11   -1    0    0    0    0  0.00000000000E+00  0.00000000000E+00  0.45593999997E+02  0.45594000000E+02  0.51100000000E-03 0.  1.
         11   -1    0    0    0    0 -0.00000000000E+00 -0.00000000000E+00 -0.45593999997E+02  0.45594000000E+02  0.51100000000E-03 0. -1.
    9900012    2    1    2    0    0  0.31469776091E+01  0.14532212745E+02  0.40774191677E+02  0.47787269796E+02  0.19999994309E+02 0.  0.
         12    1    1    2    0    0 -0.31469776091E+01 -0.14532212745E+02 -0.40774191677E+02  0.43400730204E+02  0.00000000000E+00 0. -1.
         11    1    3    3    0    0 -0.33237955772E+01  0.41252186741E+00  0.81832184232E+01  0.88421069521E+01  0.51100000000E-03 0. -1.
        -11    1    3    3    0    0  0.84832670878E+01  0.16267829053E+02  0.27340235305E+02  0.32925621473E+02  0.51100000000E-03 0.  1.
        -12    1    3    3    0    0 -0.20124939014E+01 -0.21481381747E+01  0.52507379480E+01  0.60195413712E+01  0.00000000000E+00 0.  1.
</event>
<event>
 7    1  0.2455451E-009  0.4778725E+02  0.7816164E-02  0.1312668E+00
        -11   -1    0    0    0    0  0.00000000000E+00  0.00000000000E+00  0.45593999997E+02  0.45594000000E+02  0.51100000000E-03 0.  1.
         11   -1    0    0    0    0 -0.00000000000E+00 -0.00000000000E+00 -0.45593999997E+02  0.45594000000E+02  0.51100000000E-03 0. -1.
    9900012    2    1    2    0    0  0.23338880192E+02 -0.31035748425E+02  0.19383090168E+02  0.47787248930E+02  0.19999899173E+02 0.  0.
         12    1    1    2    0    0 -0.23338880192E+02  0.31035748425E+02 -0.19383090168E+02  0.43400751070E+02  0.00000000000E+00 0. -1.
         11    1    3    3    0    0  0.26417608301E+01 -0.12704351883E+02  0.10614843446E+02  0.16764675920E+02  0.51100000000E-03 0. -1.
        -11    1    3    3    0    0  0.11286397250E+02 -0.49666569002E+01  0.79194519462E+01  0.14654970591E+02  0.51100000000E-03 0.  1.
         12    1    3    3    0    0  0.94107221123E+01 -0.13364739642E+02  0.84879477525E+00  0.16367602419E+02  0.00000000000E+00 0. -1.
</event>
<event>
 7    1  0.2455451E-009  0.4778727E+02  0.7816164E-02  0.1312668E+00
        -11   -1    0    0    0    0  0.00000000000E+00  0.00000000000E+00  0.45593999997E+02  0.45594000000E+02  0.51100000000E-03 0.  1.
         11   -1    0    0    0    0 -0.00000000000E+00 -0.00000000000E+00 -0.45593999997E+02  0.45594000000E+02  0.51100000000E-03 0. -1.
    9900012    2    1    2    0    0 -0.57592837951E+01  0.32762661746E+02  0.27875833261E+02  0.47787269194E+02  0.19999991563E+02 0.  0.
         12    1    1    2    0    0  0.57592837951E+01 -0.32762661746E+02 -0.27875833261E+02  0.43400730806E+02  0.00000000000E+00 0. -1.
         11    1    3    3    0    0  0.84953083389E+00  0.54777099629E+01  0.85972730767E+01  0.10229375039E+02  0.51100000000E-03 0. -1.
        -11    1    3    3    0    0  0.24638049098E+00  0.13357164576E+02  0.74234145837E+00  0.13380045589E+02  0.51100000000E-03 0.  1.
        -12    1    3    3    0    0 -0.68551951200E+01  0.13927787206E+02  0.18536218726E+02  0.24177848566E+02  0.00000000000E+00 0.  1.
</event>
<event>
 7    1  0.2455451E-009  0.4778726E+02  0.7816164E-02  0.1312668E+00
        -11   -1    0    0    0    0  0.00000000000E+00  0.00000000000E+00  0.45593999997E+02  0.45594000000E+02  0.51100000000E-03 0.  1.
         11   -1    0    0    0    0 -0.00000000000E+00 -0.00000000000E+00 -0.45593999997E+02  0.45594000000E+02  0.51100000000E-03 0. -1.
    9900012    2    1    2    0    0 -0.84197720506E+01  0.42554007357E+02 -0.13741785255E+01  0.47787257263E+02  0.19999937164E+02 0.  0.
         12    1    1    2    0    0  0.84197720506E+01 -0.42554007357E+02  0.13741785255E+01  0.43400742737E+02  0.00000000000E+00 0. -1.
         11    1    3    3    0    0  0.14885842087E+01  0.13817782617E+02 -0.71837874624E+01  0.15644609358E+02  0.51100000000E-03 0. -1.
        -11    1    3    3    0    0 -0.74164612296E+01  0.28066229859E+02  0.52081350873E+01  0.29493081002E+02  0.51100000000E-03 0.  1.
         12    1    3    3    0    0 -0.24918950297E+01  0.66999488131E+00  0.60147384960E+00  0.26495669027E+01  0.00000000000E+00 0. -1.
</event>
<event>
 7    1  0.2455451E-009  0.4778727E+02  0.7816164E-02  0.1312668E+00
        -11   -1    0    0    0    0  0.00000000000E+00  0.00000000000E+00  0.45593999997E+02  0.45594000000E+02  0.51100000000E-03 0. -1.
         11   -1    0    0    0    0 -0.00000000000E+00 -0.00000000000E+00 -0.45593999997E+02  0.45594000000E+02  0.51100000000E-03 0.  1.
    9900012    2    1    2    0    0 -0.18418199413E+02 -0.14489940506E+02 -0.36529912947E+02  0.47787274367E+02  0.20000015151E+02 0.  0.
         12    1    1    2    0    0  0.18418199413E+02  0.14489940506E+02  0.36529912947E+02  0.43400725633E+02  0.00000000000E+00 0. -1.
         11    1    3    3    0    0 -0.34038026352E+01 -0.24255798836E+01  0.13395721972E+01  0.43890504764E+01  0.51100000000E-03 0.  1.
        -11    1    3    3    0    0 -0.10543123366E+02 -0.31240447576E+01 -0.16815430191E+02  0.20091684816E+02  0.51100000000E-03 0. -1.
         12    1    3    3    0    0 -0.44712734121E+01 -0.89403158652E+01 -0.21054054953E+02  0.23306539075E+02  0.00000000000E+00 0. -1.
</event>
<event>
 7    1  0.2455451E-009  0.4778727E+02  0.7816164E-02  0.1312668E+00
        -11   -1    0    0    0    0  0.00000000000E+00  0.00000000000E+00  0.45593999997E+02  0.45594000000E+02  0.51100000000E-03 0.  1.
         11   -1    0    0    0    0 -0.00000000000E+00 -0.00000000000E+00 -0.45593999997E+02  0.45594000000E+02  0.51100000000E-03 0. -1.
    9900012    2    1    2    0    0 -0.58936220879E+01  0.35580038063E+02  0.24144339108E+02  0.47787274190E+02  0.20000014344E+02 0.  0.
         12    1    1    2    0    0  0.58936220879E+01 -0.35580038063E+02 -0.24144339108E+02  0.43400725810E+02  0.00000000000E+00 0. -1.
         11    1    3    3    0    0 -0.99544274196E+01  0.26539601707E+02  0.11269602700E+02  0.30503197034E+02  0.51100000000E-03 0. -1.
        -11    1    3    3    0    0  0.53274763206E+01  0.75053126158E+01  0.11965823754E+02  0.15096114062E+02  0.51100000000E-03 0.  1.
        -12    1    3    3    0    0 -0.12666709889E+01  0.15351237402E+01  0.90891265361E+00  0.21879630947E+01  0.00000000000E+00 0.  1.
</event>
<event>
 7    1  0.2455451E-009  0.4778727E+02  0.7816164E-02  0.1312668E+00
        -11   -1    0    0    0    0  0.00000000000E+00  0.00000000000E+00  0.45593999997E+02  0.45594000000E+02  0.51100000000E-03 0.  1.
         11   -1    0    0    0    0 -0.00000000000E+00 -0.00000000000E+00 -0.45593999997E+02  0.45594000000E+02  0.51100000000E-03 0. -1.
    9900012    2    1    2    0    0  0.26253850475E+02 -0.34013673562E+02 -0.61179016255E+01  0.47787269888E+02  0.19999994727E+02 0.  0.
         12    1    1    2    0    0 -0.26253850475E+02  0.34013673562E+02  0.61179016255E+01  0.43400730112E+02  0.00000000000E+00 0. -1.
         11    1    3    3    0    0  0.20500545589E+02 -0.16534022383E+02 -0.63195923451E+01  0.27084746875E+02  0.51100000000E-03 0. -1.
        -11    1    3    3    0    0  0.83439847155E+01 -0.11841745879E+02  0.44658279582E+00  0.14493048777E+02  0.51100000000E-03 0.  1.
         12    1    3    3    0    0 -0.25906798298E+01 -0.56379053005E+01 -0.24489207616E+00  0.62094742359E+01  0.00000000000E+00 0. -1.
</event>
<event>
 7    1  0.2455451E-009  0.4778727E+02  0.7816164E-02  0.1312668E+00
        -11   -1    0    0    0    0  0.00000000000E+00  0.00000000000E+00  0.45593999997E+02  0.45594000000E+02  0.51100000000E-03 0.  1.
         11   -1    0    0    0    0 -0.00000000000E+00 -0.00000000000E+00 -0.45593999997E+02  0.45594000000E+02  0.51100000000E-03 0. -1.
    9900012    2    1    2    0    0  0.21895413244E+02  0.36489733088E+02  0.85272262889E+01  0.47787270397E+02  0.19999997046E+02 0.  0.
         12    1    1    2    0    0 -0.21895413244E+02 -0.36489733088E+02 -0.85272262889E+01  0.43400729603E+02  0.00000000000E+00 0. -1.
         11    1    3    3    0    0 -0.26458679520E+01  0.11269211883E+02  0.31299613198E+01  0.11991347373E+02  0.51100000000E-03 0. -1.
        -11    1    3    3    0    0  0.18260761199E+02  0.16308978666E+02  0.38549902460E+01  0.24785058700E+02  0.51100000000E-03 0.  1.
         12    1    3    3    0    0  0.62805199971E+01  0.89115425380E+01  0.15422747232E+01  0.11010864324E+02  0.00000000000E+00 0. -1.
</event>
<event>
 7    1  0.2455451E-009  0.4778727E+02  0.7816164E-02  0.1312668E+00
        -11   -1    0    0    0    0  0.00000000000E+00  0.00000000000E+00  0.45593999997E+02  0.45594000000E+02  0.51100000000E-03 0.  1.
         11   -1    0    0    0    0 -0.00000000000E+00 -0.00000000000E+00 -0.45593999997E+02  0.45594000000E+02  0.51100000000E-03 0. -1.
    9900012    2    1    2    0    0  0.24601894926E+02  0.12579806823E+02  0.33468174130E+02  0.47787268978E+02  0.19999990578E+02 0.  0.
         12    1    1    2    0    0 -0.24601894926E+02 -0.12579806823E+02 -0.33468174130E+02  0.43400731022E+02  0.00000000000E+00 0. -1.
         11    1    3    3    0    0  0.39485110318E+01  0.78943715847E+01  0.11827041825E+02  0.14757735622E+02  0.51100000000E-03 0. -1.
        -11    1    3    3    0    0  0.22153921832E+02  0.49055108038E+01  0.17609315583E+02  0.28721912965E+02  0.51100000000E-03 0.  1.
        -12    1    3    3    0    0 -0.15005379381E+01 -0.22007556516E+00  0.40318167222E+01  0.43076203917E+01  0.00000000000E+00 0.  1.
</event>
<event>
 7    1  0.2455451E-009  0.4778727E+02  0.7816164E-02  0.1312668E+00
        -11   -1    0    0    0    0  0.00000000000E+00  0.00000000000E+00  0.45593999997E+02  0.45594000000E+02  0.51100000000E-03 0.  1.
         11   -1    0    0    0    0 -0.00000000000E+00 -0.00000000000E+00 -0.45593999997E+02  0.45594000000E+02  0.51100000000E-03 0. -1.
    9900012    2    1    2    0    0  0.51763159623E+01  0.34080883125E+02  0.26368968529E+02  0.47787270250E+02  0.19999996380E+02 0.  0.
         12    1    1    2    0    0 -0.51763159623E+01 -0.34080883125E+02 -0.26368968529E+02  0.43400729750E+02  0.00000000000E+00 0. -1.
         11    1    3    3    0    0  0.78671344792E+01  0.63162146825E+01  0.10331056173E+02  0.14440121009E+02  0.51100000000E-03 0. -1.
        -11    1    3    3    0    0 -0.56262119575E+01  0.17368489875E+02  0.82766713243E+01  0.20045497998E+02  0.51100000000E-03 0.  1.
        -12    1    3    3    0    0  0.29353934406E+01  0.10396178567E+02  0.77612410317E+01  0.13301651244E+02  0.00000000000E+00 0.  1.
</event>
<event>
 7    1  0.2464554E-009  0.4778723E+02  0.7816164E-02  0.1312668E+00
        -11   -1    0    0    0    0  0.00000000000E+00  0.00000000000E+00  0.45593999997E+02  0.45594000000E+02  0.51100000000E-03 0.  1.
         11   -1    0    0    0    0 -0.00000000000E+00 -0.00000000000E+00 -0.45593999997E+02  0.45594000000E+02  0.51100000000E-03 0. -1.
    9900012    2    1    2    0    0 -0.30382603577E+02 -0.52645183549E+01  0.30541920865E+02  0.47787231761E+02  0.19999820888E+02 0.  0.
         12    1    1    2    0    0  0.30382603577E+02  0.52645183549E+01 -0.30541920865E+02  0.43400768239E+02  0.00000000000E+00 0. -1.
         11    1    3    3    0    0 -0.10587379425E+02 -0.52180498044E+01  0.77177547593E+00  0.11828621412E+02  0.51100000000E-03 0. -1.
        -11    1    3    3    0    0 -0.15486093649E+02 -0.15899971514E+01  0.22258511828E+02  0.27162263096E+02  0.51100000000E-03 0.  1.
         12    1    3    3    0    0 -0.43091305033E+01  0.15435286009E+01  0.75116335612E+01  0.87963472529E+01  0.00000000000E+00 0. -1.
</event>
<event>
 7    1  0.2455451E-009  0.4778727E+02  0.7816164E-02  0.1312668E+00
        -11   -1    0    0    0    0  0.00000000000E+00  0.00000000000E+00  0.45593999997E+02  0.45594000000E+02  0.51100000000E-03 0.  1.
         11   -1    0    0    0    0 -0.00000000000E+00 -0.00000000000E+00 -0.45593999997E+02  0.45594000000E+02  0.51100000000E-03 0. -1.
    9900012    2    1    2    0    0  0.41480897607E+02  0.66304974453E+01 -0.10908480557E+02  0.47787270620E+02  0.19999998066E+02 0.  0.
         12    1    1    2    0    0 -0.41480897607E+02 -0.66304974453E+01  0.10908480557E+02  0.43400729380E+02  0.00000000000E+00 0. -1.
         11    1    3    3    0    0  0.57515796466E+01 -0.16739871602E+01 -0.74773799053E+01  0.95809243789E+01  0.51100000000E-03 0. -1.
        -11    1    3    3    0    0  0.28385446649E+02  0.68569788331E+01 -0.68231600470E+01  0.29988452002E+02  0.51100000000E-03 0.  1.
         12    1    3    3    0    0  0.73438713113E+01  0.14475057724E+01  0.33920593950E+01  0.82178942398E+01  0.00000000000E+00 0. -1.
</event>
<event>
 7    1  0.2455451E-009  0.4778727E+02  0.7816164E-02  0.1312668E+00
        -11   -1    0    0    0    0  0.00000000000E+00  0.00000000000E+00  0.45593999997E+02  0.45594000000E+02  0.51100000000E-03 0.  1.
         11   -1    0    0    0    0 -0.00000000000E+00 -0.00000000000E+00 -0.45593999997E+02  0.45594000000E+02  0.51100000000E-03 0. -1.
    9900012    2    1    2    0    0  0.26676651027E+02  0.86811440892E+00  0.34223174636E+02  0.47787274029E+02  0.20000013606E+02 0.  0.
         12    1    1    2    0    0 -0.26676651027E+02 -0.86811440892E+00 -0.34223174636E+02  0.43400725971E+02  0.00000000000E+00 0. -1.
         11    1    3    3    0    0  0.58053653443E+01 -0.53251083207E+01  0.41702658217E+01  0.89134820745E+01  0.51100000000E-03 0. -1.
        -11    1    3    3    0    0  0.39471796447E+01  0.58850352919E+01  0.13234122172E+02  0.15011857229E+02  0.51100000000E-03 0.  1.
        -12    1    3    3    0    0  0.16924106038E+02  0.30818743775E+00  0.16818786642E+02  0.23861934725E+02  0.00000000000E+00 0.  1.
</event>
<event>
 7    1  0.2455451E-009  0.4778728E+02  0.7816164E-02  0.1312668E+00
        -11   -1    0    0    0    0  0.00000000000E+00  0.00000000000E+00  0.45593999997E+02  0.45594000000E+02  0.51100000000E-03 0. -1.
         11   -1    0    0    0    0 -0.00000000000E+00 -0.00000000000E+00 -0.45593999997E+02  0.45594000000E+02  0.51100000000E-03 0.  1.
    9900012    2    1    2    0    0 -0.54312857348E+01 -0.16390502713E+02 -0.39818026563E+02  0.47787277849E+02  0.20000031024E+02 0.  0.
         12    1    1    2    0    0  0.54312857348E+01  0.16390502713E+02  0.39818026563E+02  0.43400722151E+02  0.00000000000E+00 0. -1.
         11    1    3    3    0    0  0.42524071868E+01 -0.15039528520E+02 -0.23925384570E+02  0.28577865772E+02  0.51100000000E-03 0. -1.
        -11    1    3    3    0    0 -0.74965335353E+01 -0.12047604254E+01 -0.80483546944E+01  0.11064604660E+02  0.51100000000E-03 0.  1.
         12    1    3    3    0    0 -0.21871593863E+01 -0.14621376730E+00 -0.78442872982E+01  0.81448074172E+01  0.00000000000E+00 0. -1.
</event>
<event>
 7    1  0.2455451E-009  0.4778727E+02  0.7816164E-02  0.1312668E+00
        -11   -1    0    0    0    0  0.00000000000E+00  0.00000000000E+00  0.45593999997E+02  0.45594000000E+02  0.51100000000E-03 0.  1.
         11   -1    0    0    0    0 -0.00000000000E+00 -0.00000000000E+00 -0.45593999997E+02  0.45594000000E+02  0.51100000000E-03 0. -1.
    9900012    2    1    2    0    0  0.15034238757E+02 -0.40623723560E+02 -0.27033975071E+01  0.47787267184E+02  0.19999982398E+02 0.  0.
         12    1    1    2    0    0 -0.15034238757E+02  0.40623723560E+02  0.27033975071E+01  0.43400732816E+02  0.00000000000E+00 0. -1.
         11    1    3    3    0    0  0.40408752688E+01 -0.56689566698E+01  0.45070018671E+01  0.82932990271E+01  0.51100000000E-03 0. -1.
        -11    1    3    3    0    0  0.81006215812E+01 -0.23282159250E+02 -0.10844624076E+02  0.26931113623E+02  0.51100000000E-03 0.  1.
        -12    1    3    3    0    0  0.28927419073E+01 -0.11672607640E+02  0.36342247016E+01  0.12562854534E+02  0.00000000000E+00 0.  1.
</event>
<event>
 7    1  0.2455451E-009  0.4778727E+02  0.7816164E-02  0.1312668E+00
        -11   -1    0    0    0    0  0.00000000000E+00  0.00000000000E+00  0.45593999997E+02  0.45594000000E+02  0.51100000000E-03 0.  1.
         11   -1    0    0    0    0 -0.00000000000E+00 -0.00000000000E+00 -0.45593999997E+02  0.45594000000E+02  0.51100000000E-03 0. -1.
    9900012    2    1    2    0    0  0.46749724873E+01  0.43090904265E+02 -0.22230581618E+01  0.47787269756E+02  0.19999994124E+02 0.  0.
         12    1    1    2    0    0 -0.46749724873E+01 -0.43090904265E+02  0.22230581618E+01  0.43400730244E+02  0.00000000000E+00 0. -1.
         11    1    3    3    0    0  0.67171626142E+01  0.59399166212E+01 -0.34043693187E+01  0.95912780052E+01  0.51100000000E-03 0. -1.
        -11    1    3    3    0    0 -0.48069367701E+01  0.27256782276E+02 -0.99291836896E+00  0.27695210927E+02  0.51100000000E-03 0.  1.
         12    1    3    3    0    0  0.27647466432E+01  0.98942053678E+01  0.21742295259E+01  0.10500780823E+02  0.00000000000E+00 0. -1.
</event>
<event>
 7    1  0.2455451E-009  0.4778727E+02  0.7816164E-02  0.1312668E+00
        -11   -1    0    0    0    0  0.00000000000E+00  0.00000000000E+00  0.45593999997E+02  0.45594000000E+02  0.51100000000E-03 0.  1.
         11   -1    0    0    0    0 -0.00000000000E+00 -0.00000000000E+00 -0.45593999997E+02  0.45594000000E+02  0.51100000000E-03 0. -1.
    9900012    2    1    2    0    0  0.22171736517E+02 -0.16624692276E+02  0.33401449350E+02  0.47787272908E+02  0.20000008496E+02 0.  0.
         12    1    1    2    0    0 -0.22171736517E+02  0.16624692276E+02 -0.33401449350E+02  0.43400727092E+02  0.00000000000E+00 0. -1.
         11    1    3    3    0    0  0.79785753089E+01 -0.12528106737E+02  0.49986083805E+01  0.15671541353E+02  0.51100000000E-03 0. -1.
        -11    1    3    3    0    0  0.11973083164E+02 -0.26994674561E+01  0.21919148155E+02  0.25121522667E+02  0.51100000000E-03 0.  1.
         12    1    3    3    0    0  0.22200780449E+01 -0.13971180823E+01  0.64836928138E+01  0.69942088877E+01  0.00000000000E+00 0. -1.
</event>
<event>
 7    1  0.2455451E-009  0.4778727E+02  0.7816164E-02  0.1312668E+00
        -11   -1    0    0    0    0  0.00000000000E+00  0.00000000000E+00  0.45593999997E+02  0.45594000000E+02  0.51100000000E-03 0. -1.
         11   -1    0    0    0    0 -0.00000000000E+00 -0.00000000000E+00 -0.45593999997E+02  0.45594000000E+02  0.51100000000E-03 0.  1.
    9900012    2    1    2    0    0  0.29709383440E+02 -0.31551867952E+02  0.23356984785E+01  0.47787270478E+02  0.19999997416E+02 0.  0.
         12    1    1    2    0    0 -0.29709383440E+02  0.31551867952E+02 -0.23356984785E+01  0.43400729522E+02  0.00000000000E+00 0. -1.
         11    1    3    3    0    0  0.21351318792E+01  0.15879979187E+00  0.16551670419E+01  0.27062120599E+01  0.51100000000E-03 0. -1.
        -11    1    3    3    0    0  0.99771593520E+01 -0.93137989944E+01  0.78019553709E+01  0.15721357076E+02  0.51100000000E-03 0.  1.
        -12    1    3    3    0    0  0.17597092209E+02 -0.22396868750E+02 -0.71214239343E+01  0.29359701342E+02  0.00000000000E+00 0.  1.
</event>
<event>
 7    1  0.2455451E-009  0.4778727E+02  0.7816164E-02  0.1312668E+00
        -11   -1    0    0    0    0  0.00000000000E+00  0.00000000000E+00  0.45593999997E+02  0.45594000000E+02  0.51100000000E-03 0.  1.
         11   -1    0    0    0    0 -0.00000000000E+00 -0.00000000000E+00 -0.45593999997E+02  0.45594000000E+02  0.51100000000E-03 0. -1.
    9900012    2    1    2    0    0 -0.41832726141E+02  0.11379901191E+02 -0.20357093697E+01  0.47787271433E+02  0.20000001772E+02 0.  0.
         12    1    1    2    0    0  0.41832726141E+02 -0.11379901191E+02  0.20357093697E+01  0.43400728567E+02  0.00000000000E+00 0. -1.
         11    1    3    3    0    0 -0.67885866490E+01 -0.29364428514E+01 -0.32207172989E+01  0.80672563794E+01  0.51100000000E-03 0. -1.
        -11    1    3    3    0    0 -0.24198623463E+02  0.12889568491E+02 -0.38347433355E+01  0.27684284533E+02  0.51100000000E-03 0.  1.
        -12    1    3    3    0    0 -0.10845516029E+02  0.14267755511E+01  0.50197512647E+01  0.12035730521E+02  0.00000000000E+00 0.  1.
</event>
<event>
 7    1  0.2455451E-009  0.4778727E+02  0.7816164E-02  0.1312668E+00
        -11   -1    0    0    0    0  0.00000000000E+00  0.00000000000E+00  0.45593999997E+02  0.45594000000E+02  0.51100000000E-03 0. -1.
         11   -1    0    0    0    0 -0.00000000000E+00 -0.00000000000E+00 -0.45593999997E+02  0.45594000000E+02  0.51100000000E-03 0.  1.
    9900012    2    1    2    0    0  0.19793257649E+02  0.11504379730E+02  0.36871386402E+02  0.47787274931E+02  0.20000017720E+02 0.  0.
         12    1    1    2    0    0 -0.19793257649E+02 -0.11504379730E+02 -0.36871386402E+02  0.43400725069E+02  0.00000000000E+00 0. -1.
         11    1    3    3    0    0  0.21484122017E+02  0.62601794537E+01  0.31153328510E+02  0.38357362046E+02  0.51100000000E-03 0. -1.
        -11    1    3    3    0    0 -0.37366373794E+00  0.59042669690E+01  0.51737815496E+01  0.78592626127E+01  0.51100000000E-03 0.  1.
         12    1    3    3    0    0 -0.13172006306E+01 -0.66006669250E+00  0.54427634228E+00  0.15706502719E+01  0.00000000000E+00 0. -1.
</event>
<event>
 7    1  0.2455451E-009  0.4778728E+02  0.7816164E-02  0.1312668E+00
        -11   -1    0    0    0    0  0.00000000000E+00  0.00000000000E+00  0.45593999997E+02  0.45594000000E+02  0.51100000000E-03 0. -1.
         11   -1    0    0    0    0 -0.00000000000E+00 -0.00000000000E+00 -0.45593999997E+02  0.45594000000E+02  0.51100000000E-03 0.  1.
    9900012    2    1    2    0    0  0.96037838583E+01  0.25256299659E+02 -0.33963356135E+02  0.47787275389E+02  0.20000019807E+02 0.  0.
         12    1    1    2    0    0 -0.96037838583E+01 -0.25256299659E+02  0.33963356135E+02  0.43400724611E+02  0.00000000000E+00 0. -1.
         11    1    3    3    0    0  0.28840820089E+01  0.14718663196E+02 -0.77935264984E+01  0.16902545100E+02  0.51100000000E-03 0. -1.
        -11    1    3    3    0    0 -0.22599882996E+01  0.69567006200E+00 -0.80760220343E+01  0.84150838444E+01  0.51100000000E-03 0.  1.
         12    1    3    3    0    0  0.89796901490E+01  0.98419664009E+01 -0.18093807602E+02  0.22469646445E+02  0.00000000000E+00 0. -1.
</event>
<event>
 7    1  0.2455451E-009  0.4778727E+02  0.7816164E-02  0.1312668E+00
        -11   -1    0    0    0    0  0.00000000000E+00  0.00000000000E+00  0.45593999997E+02  0.45594000000E+02  0.51100000000E-03 0. -1.
         11   -1    0    0    0    0 -0.00000000000E+00 -0.00000000000E+00 -0.45593999997E+02  0.45594000000E+02  0.51100000000E-03 0.  1.
    9900012    2    1    2    0    0 -0.15932904120E+02  0.33231584792E+02 -0.22922203353E+02  0.47787273416E+02  0.20000010812E+02 0.  0.
         12    1    1    2    0    0  0.15932904120E+02 -0.33231584792E+02  0.22922203353E+02  0.43400726584E+02  0.00000000000E+00 0. -1.
         11    1    3    3    0    0 -0.25974990750E+01  0.18476934777E+02 -0.57130739731E+01  0.19513670457E+02  0.51100000000E-03 0. -1.
        -11    1    3    3    0    0 -0.48597589872E+01  0.12390924301E+02 -0.79641855245E+01  0.15510658070E+02  0.51100000000E-03 0.  1.
         12    1    3    3    0    0 -0.84756460578E+01  0.23637257140E+01 -0.92449438551E+01  0.12762944889E+02  0.00000000000E+00 0. -1.
</event>
<event>
 7    1  0.2455451E-009  0.4778722E+02  0.7816164E-02  0.1312668E+00
        -11   -1    0    0    0    0  0.00000000000E+00  0.00000000000E+00  0.45593999997E+02  0.45594000000E+02  0.51100000000E-03 0.  1.
         11   -1    0    0    0    0 -0.00000000000E+00 -0.00000000000E+00 -0.45593999997E+02  0.45594000000E+02  0.51100000000E-03 0. -1.
    9900012    2    1    2    0    0  0.21766386015E+02 -0.30187162221E+02  0.22329078233E+02  0.47787215930E+02  0.19999748711E+02 0.  0.
         12    1    1    2    0    0 -0.21766386015E+02  0.30187162221E+02 -0.22329078233E+02  0.43400784070E+02  0.00000000000E+00 0. -1.
         11    1    3    3    0    0  0.70823779386E+01 -0.52880383605E+01  0.59697227724E+01  0.10665880986E+02  0.51100000000E-03 0. -1.
        -11    1    3    3    0    0  0.16713208187E+02 -0.25724663112E+02  0.13492383610E+02  0.33513191968E+02  0.51100000000E-03 0.  1.
        -12    1    3    3    0    0 -0.20292001106E+01  0.82553925171E+00  0.28669718508E+01  0.36081429764E+01  0.00000000000E+00 0.  1.
</event>
<event>
 7    1  0.6399777E-009  0.4778727E+02  0.7816164E-02  0.1312668E+00
        -11   -1    0    0    0    0  0.00000000000E+00  0.00000000000E+00  0.45593999997E+02  0.45594000000E+02  0.51100000000E-03 0.  1.
         11   -1    0    0    0    0 -0.00000000000E+00 -0.00000000000E+00 -0.45593999997E+02  0.45594000000E+02  0.51100000000E-03 0. -1.
    9900012    2    1    2    0    0  0.34726963728E+02 -0.97507577837E+01 -0.24136775607E+02  0.47787271621E+02  0.20000002630E+02 0.  0.
         12    1    1    2    0    0 -0.34726963728E+02  0.97507577837E+01  0.24136775607E+02  0.43400728379E+02  0.00000000000E+00 0. -1.
         11    1    3    3    0    0  0.13430243986E+02  0.39461008331E+01 -0.52767714012E+01  0.14959528134E+02  0.51100000000E-03 0. -1.
        -11    1    3    3    0    0  0.14904147970E+02 -0.43783965210E+01 -0.11740735035E+02  0.19471744714E+02  0.51100000000E-03 0.  1.
         12    1    3    3    0    0  0.63925717716E+01 -0.93184620959E+01 -0.71192691712E+01  0.13355998773E+02  0.00000000000E+00 0. -1.
</event>
<event>
 7    1  0.2455451E-009  0.4778727E+02  0.7816164E-02  0.1312668E+00
        -11   -1    0    0    0    0  0.00000000000E+00  0.00000000000E+00  0.45593999997E+02  0.45594000000E+02  0.51100000000E-03 0.  1.
         11   -1    0    0    0    0 -0.00000000000E+00 -0.00000000000E+00 -0.45593999997E+02  0.45594000000E+02  0.51100000000E-03 0. -1.
    9900012    2    1    2    0    0 -0.12497903718E+02 -0.37255545119E+02  0.18424172342E+02  0.47787269984E+02  0.19999995164E+02 0.  0.
         12    1    1    2    0    0  0.12497903718E+02  0.37255545119E+02 -0.18424172342E+02  0.43400730016E+02  0.00000000000E+00 0. -1.
         11    1    3    3    0    0  0.11363382343E+01 -0.20792660249E+02  0.26224301652E+01  0.20988166310E+02  0.51100000000E-03 0. -1.
        -11    1    3    3    0    0 -0.86965996466E+01 -0.12020526594E+02  0.93346548825E+01  0.17528824463E+02  0.51100000000E-03 0.  1.
         12    1    3    3    0    0 -0.49376423054E+01 -0.44423582764E+01  0.64670872941E+01  0.92702792116E+01  0.00000000000E+00 0. -1.
</event>
<event>
 7    1  0.2455451E-009  0.4778727E+02  0.7816164E-02  0.1312668E+00
        -11   -1    0    0    0    0  0.00000000000E+00  0.00000000000E+00  0.45593999997E+02  0.45594000000E+02  0.51100000000E-03 0.  1.
         11   -1    0    0    0    0 -0.00000000000E+00 -0.00000000000E+00 -0.45593999997E+02  0.45594000000E+02  0.51100000000E-03 0. -1.
    9900012    2    1    2    0    0  0.23444597985E+01 -0.26207016934E+01  0.43258048050E+02  0.47787270857E+02  0.19999999143E+02 0.  0.
         12    1    1    2    0    0 -0.23444597985E+01  0.26207016934E+01 -0.43258048050E+02  0.43400729143E+02  0.00000000000E+00 0. -1.
         11    1    3    3    0    0  0.72587998007E+01 -0.29830521722E+00  0.10381090511E+02  0.12670682736E+02  0.51100000000E-03 0. -1.
        -11    1    3    3    0    0 -0.43897918042E+01 -0.65738250228E+01  0.18578545190E+02  0.20190289477E+02  0.51100000000E-03 0.  1.
        -12    1    3    3    0    0 -0.52454819796E+00  0.42514285466E+01  0.14298412349E+02  0.14926298643E+02  0.00000000000E+00 0.  1.
</event>
<event>
 7    1  0.2455451E-009  0.4778727E+02  0.7816164E-02  0.1312668E+00
        -11   -1    0    0    0    0  0.00000000000E+00  0.00000000000E+00  0.45593999997E+02  0.45594000000E+02  0.51100000000E-03 0. -1.
         11   -1    0    0    0    0 -0.00000000000E+00 -0.00000000000E+00 -0.45593999997E+02  0.45594000000E+02  0.51100000000E-03 0.  1.
    9900012    2    1    2    0    0 -0.79712586199E+01  0.34937685715E+02 -0.24483473984E+02  0.47787270220E+02  0.19999996239E+02 0.  0.
         12    1    1    2    0    0  0.79712586199E+01 -0.34937685715E+02  0.24483473984E+02  0.43400729780E+02  0.00000000000E+00 0. -1.
         11    1    3    3    0    0 -0.19786132349E+01  0.23132110548E+02 -0.77690141857E+01  0.24481973581E+02  0.51100000000E-03 0.  1.
        -11    1    3    3    0    0 -0.42707347568E+01  0.49870213003E+01 -0.14524499800E+02  0.15939593831E+02  0.51100000000E-03 0. -1.
         12    1    3    3    0    0 -0.17219106282E+01  0.68185538676E+01 -0.21899599987E+01  0.73657028078E+01  0.00000000000E+00 0. -1.
</event>
<event>
 7    1  0.2455451E-009  0.4778724E+02  0.7816164E-02  0.1312668E+00
        -11   -1    0    0    0    0  0.00000000000E+00  0.00000000000E+00  0.45593999997E+02  0.45594000000E+02  0.51100000000E-03 0. -1.
         11   -1    0    0    0    0 -0.00000000000E+00 -0.00000000000E+00 -0.45593999997E+02  0.45594000000E+02  0.51100000000E-03 0.  1.
    9900012    2    1    2    0    0  0.32580556054E+02  0.27853057868E+02 -0.68073992614E+01  0.47787237909E+02  0.19999848921E+02 0.  0.
         12    1    1    2    0    0 -0.32580556054E+02 -0.27853057868E+02  0.68073992614E+01  0.43400762091E+02  0.00000000000E+00 0. -1.
         11    1    3    3    0    0  0.32789424577E+00  0.13980806311E+01 -0.53458481273E+01  0.55353623684E+01  0.51100000000E-03 0. -1.
        -11    1    3    3    0    0  0.32453360436E+02  0.25689888058E+02 -0.11648960709E+01  0.41407100057E+02  0.51100000000E-03 0.  1.
        -12    1    3    3    0    0 -0.20069862767E+00  0.76508917854E+00 -0.29665506320E+00  0.84477548306E+00  0.00000000000E+00 0.  1.
</event>
<event>
 7    1  0.2455451E-009  0.4778723E+02  0.7816164E-02  0.1312668E+00
        -11   -1    0    0    0    0  0.00000000000E+00  0.00000000000E+00  0.45593999997E+02  0.45594000000E+02  0.51100000000E-03 0.  1.
         11   -1    0    0    0    0 -0.00000000000E+00 -0.00000000000E+00 -0.45593999997E+02  0.45594000000E+02  0.51100000000E-03 0. -1.
    9900012    2    1    2    0    0 -0.56812527651E+01 -0.39256010941E+02  0.17615775293E+02  0.47787233104E+02  0.19999827014E+02 0.  0.
         12    1    1    2    0    0  0.56812527651E+01  0.39256010941E+02 -0.17615775293E+02  0.43400766896E+02  0.00000000000E+00 0. -1.
         11    1    3    3    0    0  0.51106627402E+01 -0.51318468610E+01  0.31668640248E+01  0.79046665876E+01  0.51100000000E-03 0. -1.
        -11    1    3    3    0    0 -0.76852957908E+01 -0.15818332609E+02  0.11674895474E+02  0.21108922344E+02  0.51100000000E-03 0.  1.
        -12    1    3    3    0    0 -0.31066197144E+01 -0.18305831471E+02  0.27740157934E+01  0.18773644172E+02  0.00000000000E+00 0.  1.
</event>
<event>
 7    1  0.2455451E-009  0.4778727E+02  0.7816164E-02  0.1312668E+00
        -11   -1    0    0    0    0  0.00000000000E+00  0.00000000000E+00  0.45593999997E+02  0.45594000000E+02  0.51100000000E-03 0.  1.
         11   -1    0    0    0    0 -0.00000000000E+00 -0.00000000000E+00 -0.45593999997E+02  0.45594000000E+02  0.51100000000E-03 0. -1.
    9900012    2    1    2    0    0  0.42097712292E+02  0.10247315071E+02 -0.25295639313E+01  0.47787267978E+02  0.19999986019E+02 0.  0.
         12    1    1    2    0    0 -0.42097712292E+02 -0.10247315071E+02  0.25295639313E+01  0.43400732022E+02  0.00000000000E+00 0. -1.
         11    1    3    3    0    0  0.31420367609E+01 -0.32757190006E+01  0.23809326799E+01  0.51255800321E+01  0.51100000000E-03 0.  1.
        -11    1    3    3    0    0  0.27476081488E+01 -0.15213732865E+01  0.42146059011E-01  0.31409717871E+01  0.51100000000E-03 0. -1.
         12    1    3    3    0    0  0.36208067382E+02  0.15044407358E+02 -0.49526426702E+01  0.39520716159E+02  0.00000000000E+00 0. -1.
</event>
<event>
 7    1  0.2455451E-009  0.4778727E+02  0.7816164E-02  0.1312668E+00
        -11   -1    0    0    0    0  0.00000000000E+00  0.00000000000E+00  0.45593999997E+02  0.45594000000E+02  0.51100000000E-03 0.  1.
         11   -1    0    0    0    0 -0.00000000000E+00 -0.00000000000E+00 -0.45593999997E+02  0.45594000000E+02  0.51100000000E-03 0. -1.
    9900012    2    1    2    0    0 -0.30162623415E+02  0.24641057962E+02  0.19148310498E+02  0.47787269779E+02  0.19999994231E+02 0.  0.
         12    1    1    2    0    0  0.30162623415E+02 -0.24641057962E+02 -0.19148310498E+02  0.43400730221E+02  0.00000000000E+00 0. -1.
         11    1    3    3    0    0 -0.75978912694E+01  0.12339880364E+02  0.13924203180E+02  0.20096866263E+02  0.51100000000E-03 0. -1.
        -11    1    3    3    0    0 -0.90680957147E+01  0.71710978474E+00  0.37638080085E+01  0.98443312276E+01  0.51100000000E-03 0.  1.
         12    1    3    3    0    0 -0.13496636431E+02  0.11584067813E+02  0.14602993097E+01  0.17846072288E+02  0.00000000000E+00 0. -1.
</event>
<event>
 7    1  0.2455451E-009  0.4778727E+02  0.7816164E-02  0.1312668E+00
        -11   -1    0    0    0    0  0.00000000000E+00  0.00000000000E+00  0.45593999997E+02  0.45594000000E+02  0.51100000000E-03 0. -1.
         11   -1    0    0    0    0 -0.00000000000E+00 -0.00000000000E+00 -0.45593999997E+02  0.45594000000E+02  0.51100000000E-03 0.  1.
    9900012    2    1    2    0    0 -0.11912186596E+02  0.39395362088E+02 -0.13774199957E+02  0.47787270421E+02  0.19999997158E+02 0.  0.
         12    1    1    2    0    0  0.11912186596E+02 -0.39395362088E+02  0.13774199957E+02  0.43400729579E+02  0.00000000000E+00 0. -1.
         11    1    3    3    0    0  0.13679250230E+01 -0.18928931796E+00  0.16998949944E+01  0.21901352852E+01  0.51100000000E-03 0. -1.
        -11    1    3    3    0    0 -0.13744371749E+02  0.30272368497E+02 -0.97097069728E+01  0.34635277665E+02  0.51100000000E-03 0.  1.
        -12    1    3    3    0    0  0.46426012972E+00  0.93122829083E+01 -0.57643879789E+01  0.10961857470E+02  0.00000000000E+00 0.  1.
</event>
<event>
 7    1  0.2455451E-009  0.4778727E+02  0.7816164E-02  0.1312668E+00
        -11   -1    0    0    0    0  0.00000000000E+00  0.00000000000E+00  0.45593999997E+02  0.45594000000E+02  0.51100000000E-03 0.  1.
         11   -1    0    0    0    0 -0.00000000000E+00 -0.00000000000E+00 -0.45593999997E+02  0.45594000000E+02  0.51100000000E-03 0. -1.
    9900012    2    1    2    0    0 -0.43001911565E+02 -0.31076224391E+01  0.49801112325E+01  0.47787271627E+02  0.20000002656E+02 0.  0.
         12    1    1    2    0    0  0.43001911565E+02  0.31076224391E+01 -0.49801112325E+01  0.43400728373E+02  0.00000000000E+00 0. -1.
         11    1    3    3    0    0  0.15788147684E+01 -0.65405110853E+00 -0.75001746043E+00  0.18662704460E+01  0.51100000000E-03 0. -1.
        -11    1    3    3    0    0 -0.18284611706E+02  0.33788009480E+01  0.31968525550E+01  0.18866986713E+02  0.51100000000E-03 0.  1.
         12    1    3    3    0    0 -0.26296114627E+02 -0.58323722785E+01  0.25332761379E+01  0.27054014468E+02  0.00000000000E+00 0. -1.
</event>
<event>
 7    1  0.2455451E-009  0.4778727E+02  0.7816164E-02  0.1312668E+00
        -11   -1    0    0    0    0  0.00000000000E+00  0.00000000000E+00  0.45593999997E+02  0.45594000000E+02  0.51100000000E-03 0. -1.
         11   -1    0    0    0    0 -0.00000000000E+00 -0.00000000000E+00 -0.45593999997E+02  0.45594000000E+02  0.51100000000E-03 0.  1.
    9900012    2    1    2    0    0 -0.35870813628E+02  0.92851177818E+01 -0.22598553932E+02  0.47787270486E+02  0.19999997453E+02 0.  0.
         12    1    1    2    0    0  0.35870813628E+02 -0.92851177818E+01  0.22598553932E+02  0.43400729514E+02  0.00000000000E+00 0. -1.
         11    1    3    3    0    0 -0.80278892443E+01  0.11810816211E+00 -0.13793662873E+02  0.15960140694E+02  0.51100000000E-03 0. -1.
        -11    1    3    3    0    0 -0.19564690187E+02  0.20572098952E+01 -0.57042247390E+01  0.20482856119E+02  0.51100000000E-03 0.  1.
         12    1    3    3    0    0 -0.82782341971E+01  0.71097997245E+01 -0.31006663201E+01  0.11344273673E+02  0.00000000000E+00 0. -1.
</event>
<event>
 7    1  0.2455451E-009  0.4778727E+02  0.7816164E-02  0.1312668E+00
        -11   -1    0    0    0    0  0.00000000000E+00  0.00000000000E+00  0.45593999997E+02  0.45594000000E+02  0.51100000000E-03 0.  1.
         11   -1    0    0    0    0 -0.00000000000E+00 -0.00000000000E+00 -0.45593999997E+02  0.45594000000E+02  0.51100000000E-03 0. -1.
    9900012    2    1    2    0    0  0.57596725947E+01  0.92329413659E+00  0.43006939283E+02  0.47787272737E+02  0.20000007719E+02 0.  0.
         12    1    1    2    0    0 -0.57596725947E+01 -0.92329413659E+00 -0.43006939283E+02  0.43400727263E+02  0.00000000000E+00 0. -1.
         11    1    3    3    0    0  0.48176342975E+01 -0.76489693637E+01  0.22025158674E+02  0.23808064756E+02  0.51100000000E-03 0. -1.
        -11    1    3    3    0    0  0.30227521704E+01  0.72198867584E+01  0.98864463983E+01  0.12609742984E+02  0.51100000000E-03 0.  1.
        -12    1    3    3    0    0 -0.20807138732E+01  0.13523767418E+01  0.11095334210E+02  0.11369464997E+02  0.00000000000E+00 0.  1.
</event>
<event>
 7    1  0.2455451E-009  0.4778727E+02  0.7816164E-02  0.1312668E+00
        -11   -1    0    0    0    0  0.00000000000E+00  0.00000000000E+00  0.45593999997E+02  0.45594000000E+02  0.51100000000E-03 0.  1.
         11   -1    0    0    0    0 -0.00000000000E+00 -0.00000000000E+00 -0.45593999997E+02  0.45594000000E+02  0.51100000000E-03 0. -1.
    9900012    2    1    2    0    0  0.17480977076E+02  0.33188868277E+02  0.21829744323E+02  0.47787271040E+02  0.19999999981E+02 0.  0.
         12    1    1    2    0    0 -0.17480977076E+02 -0.33188868277E+02 -0.21829744323E+02  0.43400728960E+02  0.00000000000E+00 0. -1.
         11    1    3    3    0    0 -0.14290198045E+01  0.91191089812E+01  0.11210501811E+01  0.92982256362E+01  0.51100000000E-03 0. -1.
        -11    1    3    3    0    0  0.99792355777E+01  0.13019552861E+02  0.17374920308E+02  0.23895224531E+02  0.51100000000E-03 0.  1.
        -12    1    3    3    0    0  0.89307613029E+01  0.11050206434E+02  0.33337738340E+01  0.14593820873E+02  0.00000000000E+00 0.  1.
</event>
<event>
 7    1  0.2455451E-009  0.4778727E+02  0.7816164E-02  0.1312668E+00
        -11   -1    0    0    0    0  0.00000000000E+00  0.00000000000E+00  0.45593999997E+02  0.45594000000E+02  0.51100000000E-03 0.  1.
         11   -1    0    0    0    0 -0.00000000000E+00 -0.00000000000E+00 -0.45593999997E+02  0.45594000000E+02  0.51100000000E-03 0. -1.
    9900012    2    1    2    0    0 -0.74857037660E+01 -0.35414841241E+02  0.23945288509E+02  0.47787267486E+02  0.19999983774E+02 0.  0.
         12    1    1    2    0    0  0.74857037660E+01  0.35414841241E+02 -0.23945288509E+02  0.43400732514E+02  0.00000000000E+00 0. -1.
         11    1    3    3    0    0 -0.12600384410E+01 -0.25924496688E+01 -0.88203969468E+00  0.30143799432E+01  0.51100000000E-03 0. -1.
        -11    1    3    3    0    0  0.56296440289E+01 -0.88989971478E+01  0.78234433418E+01  0.13118357676E+02  0.51100000000E-03 0.  1.
        -12    1    3    3    0    0 -0.11855309354E+02 -0.23923394425E+02  0.17003884862E+02  0.31654529866E+02  0.00000000000E+00 0.  1.
</event>
<event>
 7    1  0.2455451E-009  0.4778727E+02  0.7816164E-02  0.1312668E+00
        -11   -1    0    0    0    0  0.00000000000E+00  0.00000000000E+00  0.45593999997E+02  0.45594000000E+02  0.51100000000E-03 0.  1.
         11   -1    0    0    0    0 -0.00000000000E+00 -0.00000000000E+00 -0.45593999997E+02  0.45594000000E+02  0.51100000000E-03 0. -1.
    9900012    2    1    2    0    0  0.68489406322E+01  0.41508903463E+02  0.10664235645E+02  0.47787274472E+02  0.20000015628E+02 0.  0.
         12    1    1    2    0    0 -0.68489406322E+01 -0.41508903463E+02 -0.10664235645E+02  0.43400725528E+02  0.00000000000E+00 0. -1.
         11    1    3    3    0    0  0.53781262968E+01  0.11584893805E+02  0.93801174330E+01  0.15846785487E+02  0.51100000000E-03 0. -1.
        -11    1    3    3    0    0 -0.34960051096E+01  0.18782280945E+02 -0.22583119157E+01  0.19237881957E+02  0.51100000000E-03 0.  1.
         12    1    3    3    0    0  0.49668194451E+01  0.11141728713E+02  0.35424301277E+01  0.12702607028E+02  0.00000000000E+00 0. -1.
</event>
<event>
 7    1  0.2455451E-009  0.4778727E+02  0.7816164E-02  0.1312668E+00
        -11   -1    0    0    0    0  0.00000000000E+00  0.00000000000E+00  0.45593999997E+02  0.45594000000E+02  0.51100000000E-03 0.  1.
         11   -1    0    0    0    0 -0.00000000000E+00 -0.00000000000E+00 -0.45593999997E+02  0.45594000000E+02  0.51100000000E-03 0. -1.
    9900012    2    1    2    0    0  0.10306437658E+02 -0.38291086098E+02  0.17640684103E+02  0.47787266510E+02  0.19999979328E+02 0.  0.
         12    1    1    2    0    0 -0.10306437658E+02  0.38291086098E+02 -0.17640684103E+02  0.43400733490E+02  0.00000000000E+00 0. -1.
         11    1    3    3    0    0  0.13264987833E+02 -0.22388679823E+02  0.10682463675E+02  0.28130551307E+02  0.51100000000E-03 0. -1.
        -11    1    3    3    0    0 -0.29776877430E+01 -0.17013628760E+02  0.65653230145E+01  0.18477923434E+02  0.51100000000E-03 0.  1.
         12    1    3    3    0    0  0.19137568761E-01  0.11112224850E+01  0.39289741426E+00  0.11787917695E+01  0.00000000000E+00 0. -1.
</event>
<event>
 7    1  0.2455451E-009  0.4778727E+02  0.7816164E-02  0.1312668E+00
        -11   -1    0    0    0    0  0.00000000000E+00  0.00000000000E+00  0.45593999997E+02  0.45594000000E+02  0.51100000000E-03 0.  1.
         11   -1    0    0    0    0 -0.00000000000E+00 -0.00000000000E+00 -0.45593999997E+02  0.45594000000E+02  0.51100000000E-03 0. -1.
    9900012    2    1    2    0    0 -0.20713489504E+02  0.19138881235E+02  0.32989059215E+02  0.47787269012E+02  0.19999990733E+02 0.  0.
         12    1    1    2    0    0  0.20713489504E+02 -0.19138881235E+02 -0.32989059215E+02  0.43400730988E+02  0.00000000000E+00 0. -1.
         11    1    3    3    0    0 -0.99226063844E+01  0.68826358956E+01  0.61966163525E+01  0.13573019149E+02  0.51100000000E-03 0. -1.
        -11    1    3    3    0    0 -0.60142977680E+01  0.74186120183E+00  0.17910416459E+02  0.18907806686E+02  0.51100000000E-03 0.  1.
        -12    1    3    3    0    0 -0.47765853520E+01  0.11514384138E+02  0.88820264040E+01  0.15306443177E+02  0.00000000000E+00 0.  1.
</event>
<event>
 7    1  0.2455451E-009  0.4778727E+02  0.7816164E-02  0.1312668E+00
        -11   -1    0    0    0    0  0.00000000000E+00  0.00000000000E+00  0.45593999997E+02  0.45594000000E+02  0.51100000000E-03 0.  1.
         11   -1    0    0    0    0 -0.00000000000E+00 -0.00000000000E+00 -0.45593999997E+02  0.45594000000E+02  0.51100000000E-03 0. -1.
    9900012    2    1    2    0    0  0.10477863739E+01  0.43135280625E+02 -0.46768811382E+01  0.47787268347E+02  0.19999987701E+02 0.  0.
         12    1    1    2    0    0 -0.10477863739E+01 -0.43135280625E+02  0.46768811382E+01  0.43400731653E+02  0.00000000000E+00 0. -1.
         11    1    3    3    0    0  0.51015794330E+01  0.15299117784E+02 -0.25198080457E+01  0.16322945523E+02  0.51100000000E-03 0. -1.
        -11    1    3    3    0    0 -0.90895971100E+01  0.14805934255E+02 -0.33635284555E+00  0.17376696990E+02  0.51100000000E-03 0.  1.
        -12    1    3    3    0    0  0.50358040509E+01  0.13030228585E+02 -0.18207202470E+01  0.14087625834E+02  0.00000000000E+00 0.  1.
</event>
<event>
 7    1  0.2455451E-009  0.4778727E+02  0.7816164E-02  0.1312668E+00
        -11   -1    0    0    0    0  0.00000000000E+00  0.00000000000E+00  0.45593999997E+02  0.45594000000E+02  0.51100000000E-03 0.  1.
         11   -1    0    0    0    0 -0.00000000000E+00 -0.00000000000E+00 -0.45593999997E+02  0.45594000000E+02  0.51100000000E-03 0. -1.
    9900012    2    1    2    0    0 -0.17492778504E+00 -0.22161990665E+02  0.37315402828E+02  0.47787265926E+02  0.19999976663E+02 0.  0.
         12    1    1    2    0    0  0.17492778504E+00  0.22161990665E+02 -0.37315402828E+02  0.43400734074E+02  0.00000000000E+00 0. -1.
         11    1    3    3    0    0  0.40952815164E+01 -0.11920745490E+02  0.10221164173E+02  0.16227991282E+02  0.51100000000E-03 0. -1.
        -11    1    3    3    0    0 -0.57018742774E+01 -0.93777135129E+01  0.27688935371E+02  0.29784728020E+02  0.51100000000E-03 0.  1.
        -12    1    3    3    0    0  0.14316649760E+01 -0.86353166260E+00 -0.59469671653E+00  0.17745466239E+01  0.00000000000E+00 0.  1.
</event>
<event>
 7    1  0.2455451E-009  0.4778727E+02  0.7816164E-02  0.1312668E+00
        -11   -1    0    0    0    0  0.00000000000E+00  0.00000000000E+00  0.45593999997E+02  0.45594000000E+02  0.51100000000E-03 0. -1.
         11   -1    0    0    0    0 -0.00000000000E+00 -0.00000000000E+00 -0.45593999997E+02  0.45594000000E+02  0.51100000000E-03 0.  1.
    9900012    2    1    2    0    0 -0.94988446654E+01  0.21675123339E+02 -0.36381094672E+02  0.47787273379E+02  0.20000010644E+02 0.  0.
         12    1    1    2    0    0  0.94988446654E+01 -0.21675123339E+02  0.36381094672E+02  0.43400726621E+02  0.00000000000E+00 0. -1.
         11    1    3    3    0    0 -0.12271100253E+02  0.88021510376E+01 -0.12384266236E+02  0.19530177029E+02  0.51100000000E-03 0. -1.
        -11    1    3    3    0    0  0.33419092049E+01  0.13485745361E+02 -0.21277079170E+02  0.25411567904E+02  0.51100000000E-03 0.  1.
        -12    1    3    3    0    0 -0.56965361728E+00 -0.61277306040E+00 -0.27197492658E+01  0.28455284459E+01  0.00000000000E+00 0.  1.
</event>
<event>
 7    1  0.2455451E-009  0.4778729E+02  0.7816164E-02  0.1312668E+00
        -11   -1    0    0    0    0  0.00000000000E+00  0.00000000000E+00  0.45593999997E+02  0.45594000000E+02  0.51100000000E-03 0.  1.
         11   -1    0    0    0    0 -0.00000000000E+00 -0.00000000000E+00 -0.45593999997E+02  0.45594000000E+02  0.51100000000E-03 0. -1.
    9900012    2    1    2    0    0  0.10280675244E+02 -0.45363006155E+01  0.41920775992E+02  0.47787288410E+02  0.20000079176E+02 0.  0.
         12    1    1    2    0    0 -0.10280675244E+02  0.45363006155E+01 -0.41920775992E+02  0.43400711590E+02  0.00000000000E+00 0. -1.
         11    1    3    3    0    0  0.12155030062E+02 -0.84775123617E+01  0.26787147072E+02  0.30613138032E+02  0.51100000000E-03 0. -1.
        -11    1    3    3    0    0  0.24248470147E+01  0.14131894436E+01  0.79341757224E+01  0.84159451105E+01  0.51100000000E-03 0.  1.
         12    1    3    3    0    0 -0.42992018328E+01  0.25280223026E+01  0.71994531982E+01  0.87582052679E+01  0.00000000000E+00 0. -1.
</event>
<event>
 7    1  0.2455451E-009  0.4778727E+02  0.7816164E-02  0.1312668E+00
        -11   -1    0    0    0    0  0.00000000000E+00  0.00000000000E+00  0.45593999997E+02  0.45594000000E+02  0.51100000000E-03 0.  1.
         11   -1    0    0    0    0 -0.00000000000E+00 -0.00000000000E+00 -0.45593999997E+02  0.45594000000E+02  0.51100000000E-03 0. -1.
    9900012    2    1    2    0    0 -0.29265732335E+02 -0.21896604235E+01  0.31974136047E+02  0.47787273303E+02  0.20000010299E+02 0.  0.
         12    1    1    2    0    0  0.29265732335E+02  0.21896604235E+01 -0.31974136047E+02  0.43400726697E+02  0.00000000000E+00 0. -1.
         11    1    3    3    0    0 -0.89039636433E+01 -0.40765353157E+01  0.15648227532E+02  0.18459841113E+02  0.51100000000E-03 0. -1.
        -11    1    3    3    0    0 -0.13737557838E+02  0.74935310242E+01  0.97280150387E+01  0.18425736876E+02  0.51100000000E-03 0.  1.
        -12    1    3    3    0    0 -0.66242108540E+01 -0.56066561320E+01  0.65978934754E+01  0.10901695315E+02  0.00000000000E+00 0.  1.
</event>
<event>
 7    1  0.2455451E-009  0.4778730E+02  0.7816164E-02  0.1312668E+00
        -11   -1    0    0    0    0  0.00000000000E+00  0.00000000000E+00  0.45593999997E+02  0.45594000000E+02  0.51100000000E-03 0.  1.
         11   -1    0    0    0    0 -0.00000000000E+00 -0.00000000000E+00 -0.45593999997E+02  0.45594000000E+02  0.51100000000E-03 0. -1.
    9900012    2    1    2    0    0 -0.19048962242E+02 -0.12515104488E+02  0.36934134646E+02  0.47787296032E+02  0.20000113929E+02 0.  0.
         12    1    1    2    0    0  0.19048962242E+02  0.12515104488E+02 -0.36934134646E+02  0.43400703968E+02  0.00000000000E+00 0. -1.
         11    1    3    3    0    0 -0.29344397125E+01 -0.88568080464E+01  0.26984120998E+01  0.97126419330E+01  0.51100000000E-03 0. -1.
        -11    1    3    3    0    0 -0.12701685030E+02 -0.32269233759E+01  0.28805451654E+02  0.31646482938E+02  0.51100000000E-03 0.  1.
         12    1    3    3    0    0 -0.34128374986E+01 -0.43137306583E+00  0.54302708925E+01  0.64281711614E+01  0.00000000000E+00 0. -1.
</event>
<event>
 7    1  0.2455451E-009  0.4778726E+02  0.7816164E-02  0.1312668E+00
        -11   -1    0    0    0    0  0.00000000000E+00  0.00000000000E+00  0.45593999997E+02  0.45594000000E+02  0.51100000000E-03 0.  1.
         11   -1    0    0    0    0 -0.00000000000E+00 -0.00000000000E+00 -0.45593999997E+02  0.45594000000E+02  0.51100000000E-03 0. -1.
    9900012    2    1    2    0    0 -0.29095695432E+02  0.32056175248E+02 -0.30767830491E+01  0.47787257401E+02  0.19999937794E+02 0.  0.
         12    1    1    2    0    0  0.29095695432E+02 -0.32056175248E+02  0.30767830491E+01  0.43400742599E+02  0.00000000000E+00 0. -1.
         11    1    3    3    0    0 -0.24858691606E+02  0.19329666267E+02 -0.51025223713E+00  0.31493664505E+02  0.51100000000E-03 0. -1.
        -11    1    3    3    0    0  0.15992334412E+00  0.48732233574E+01  0.29867031414E+01  0.57178909821E+01  0.51100000000E-03 0.  1.
         12    1    3    3    0    0 -0.43969271700E+01  0.78532856234E+01 -0.55532339533E+01  0.10575701913E+02  0.00000000000E+00 0. -1.
</event>
<event>
 7    1  0.2455451E-009  0.4778731E+02  0.7816164E-02  0.1312668E+00
        -11   -1    0    0    0    0  0.00000000000E+00  0.00000000000E+00  0.45593999997E+02  0.45594000000E+02  0.51100000000E-03 0. -1.
         11   -1    0    0    0    0 -0.00000000000E+00 -0.00000000000E+00 -0.45593999997E+02  0.45594000000E+02  0.51100000000E-03 0.  1.
    9900012    2    1    2    0    0  0.15489160763E+02  0.25119287737E+02 -0.31823379657E+02  0.47787306338E+02  0.20000160916E+02 0.  0.
         12    1    1    2    0    0 -0.15489160763E+02 -0.25119287737E+02  0.31823379657E+02  0.43400693662E+02  0.00000000000E+00 0. -1.
         11    1    3    3    0    0  0.67064767218E+01  0.20616566531E+01 -0.73009763936E+00  0.70540981705E+01  0.51100000000E-03 0. -1.
        -11    1    3    3    0    0  0.83735151200E+01  0.23885854515E+02 -0.30503224887E+02  0.39637060059E+02  0.51100000000E-03 0.  1.
        -12    1    3    3    0    0  0.40916892097E+00 -0.82822343085E+00 -0.59005713121E+00  0.10961481083E+01  0.00000000000E+00 0.  1.
</event>
<event>
 7    1  0.2455451E-009  0.4778727E+02  0.7816164E-02  0.1312668E+00
        -11   -1    0    0    0    0  0.00000000000E+00  0.00000000000E+00  0.45593999997E+02  0.45594000000E+02  0.51100000000E-03 0. -1.
         11   -1    0    0    0    0 -0.00000000000E+00 -0.00000000000E+00 -0.45593999997E+02  0.45594000000E+02  0.51100000000E-03 0.  1.
    9900012    2    1    2    0    0 -0.31635846940E+02 -0.64002801020E+01 -0.29014353406E+02  0.47787273041E+02  0.20000009103E+02 0.  0.
         12    1    1    2    0    0  0.31635846940E+02  0.64002801020E+01  0.29014353406E+02  0.43400726959E+02  0.00000000000E+00 0. -1.
         11    1    3    3    0    0 -0.94363315224E+01 -0.65273651719E+01 -0.17488801361E+02  0.20916716329E+02  0.51100000000E-03 0. -1.
        -11    1    3    3    0    0 -0.20595718842E+02 -0.29138012436E+01 -0.93787757942E+01  0.22817434298E+02  0.51100000000E-03 0.  1.
        -12    1    3    3    0    0 -0.16037965756E+01  0.30408863135E+01 -0.21467762512E+01  0.40531224137E+01  0.00000000000E+00 0.  1.
</event>
<event>
 7    1  0.2455451E-009  0.4778728E+02  0.7816164E-02  0.1312668E+00
        -11   -1    0    0    0    0  0.00000000000E+00  0.00000000000E+00  0.45593999997E+02  0.45594000000E+02  0.51100000000E-03 0. -1.
         11   -1    0    0    0    0 -0.00000000000E+00 -0.00000000000E+00 -0.45593999997E+02  0.45594000000E+02  0.51100000000E-03 0.  1.
    9900012    2    1    2    0    0  0.12015019983E+00 -0.88158056271E+01 -0.42495764523E+02  0.47787275728E+02  0.20000021356E+02 0.  0.
         12    1    1    2    0    0 -0.12015019983E+00  0.88158056271E+01  0.42495764523E+02  0.43400724272E+02  0.00000000000E+00 0. -1.
         11    1    3    3    0    0  0.85308808312E+01 -0.24168570864E+00 -0.16342420374E+02  0.18436622350E+02  0.51100000000E-03 0. -1.
        -11    1    3    3    0    0 -0.57721486285E+01 -0.77490363777E+01 -0.14870599585E+02  0.17734147762E+02  0.51100000000E-03 0.  1.
         12    1    3    3    0    0 -0.26385820029E+01 -0.82508354075E+00 -0.11282744564E+02  0.11616505616E+02  0.00000000000E+00 0. -1.
</event>
<event>
 7    1  0.2455451E-009  0.4778727E+02  0.7816164E-02  0.1312668E+00
        -11   -1    0    0    0    0  0.00000000000E+00  0.00000000000E+00  0.45593999997E+02  0.45594000000E+02  0.51100000000E-03 0. -1.
         11   -1    0    0    0    0 -0.00000000000E+00 -0.00000000000E+00 -0.45593999997E+02  0.45594000000E+02  0.51100000000E-03 0.  1.
    9900012    2    1    2    0    0  0.15617438578E+02 -0.34611283257E+02 -0.21018510774E+02  0.47787272914E+02  0.20000008524E+02 0.  0.
         12    1    1    2    0    0 -0.15617438578E+02  0.34611283257E+02  0.21018510774E+02  0.43400727086E+02  0.00000000000E+00 0. -1.
         11    1    3    3    0    0  0.75983717990E+00  0.58882119311E+00 -0.48209867975E+01  0.49158902449E+01  0.51100000000E-03 0. -1.
        -11    1    3    3    0    0  0.66670529692E+01 -0.24978238012E+02 -0.67443844231E+01  0.26717946983E+02  0.51100000000E-03 0.  1.
        -12    1    3    3    0    0  0.81905484286E+01 -0.10221866438E+02 -0.94531395538E+01  0.16153435686E+02  0.00000000000E+00 0.  1.
</event>
<event>
 7    1  0.2455451E-009  0.4778727E+02  0.7816164E-02  0.1312668E+00
        -11   -1    0    0    0    0  0.00000000000E+00  0.00000000000E+00  0.45593999997E+02  0.45594000000E+02  0.51100000000E-03 0.  1.
         11   -1    0    0    0    0 -0.00000000000E+00 -0.00000000000E+00 -0.45593999997E+02  0.45594000000E+02  0.51100000000E-03 0. -1.
    9900012    2    1    2    0    0  0.36709435799E+02 -0.13997023110E+01  0.23110206849E+02  0.47787268396E+02  0.19999987923E+02 0.  0.
         12    1    1    2    0    0 -0.36709435799E+02  0.13997023110E+01 -0.23110206849E+02  0.43400731604E+02  0.00000000000E+00 0. -1.
         11    1    3    3    0    0  0.20057046928E+01  0.26245028185E+01  0.84533191761E+01  0.90757628722E+01  0.51100000000E-03 0. -1.
        -11    1    3    3    0    0  0.17999186985E+01  0.16341189829E+01  0.12479831489E+01  0.27326753142E+01  0.51100000000E-03 0.  1.
         12    1    3    3    0    0  0.32903812407E+02 -0.56583241124E+01  0.13408904524E+02  0.35978830209E+02  0.00000000000E+00 0. -1.
</event>
<event>
 7    1  0.2455451E-009  0.4778727E+02  0.7816164E-02  0.1312668E+00
        -11   -1    0    0    0    0  0.00000000000E+00  0.00000000000E+00  0.45593999997E+02  0.45594000000E+02  0.51100000000E-03 0.  1.
         11   -1    0    0    0    0 -0.00000000000E+00 -0.00000000000E+00 -0.45593999997E+02  0.45594000000E+02  0.51100000000E-03 0. -1.
    9900012    2    1    2    0    0 -0.53241043695E+01 -0.15250184011E+02  0.40282866367E+02  0.47787268180E+02  0.19999986942E+02 0.  0.
         12    1    1    2    0    0  0.53241043695E+01  0.15250184011E+02 -0.40282866367E+02  0.43400731820E+02  0.00000000000E+00 0. -1.
         11    1    3    3    0    0  0.44263547661E+00 -0.87146272870E+01  0.87163644126E+01  0.12333517898E+02  0.51100000000E-03 0. -1.
        -11    1    3    3    0    0 -0.93783515676E+01 -0.27696082334E+01  0.13638894521E+02  0.16782242160E+02  0.51100000000E-03 0.  1.
        -12    1    3    3    0    0  0.36116117215E+01 -0.37659484909E+01  0.17927607434E+02  0.18671508122E+02  0.00000000000E+00 0.  1.
</event>
<event>
 7    1  0.2455451E-009  0.4778727E+02  0.7816164E-02  0.1312668E+00
        -11   -1    0    0    0    0  0.00000000000E+00  0.00000000000E+00  0.45593999997E+02  0.45594000000E+02  0.51100000000E-03 0. -1.
         11   -1    0    0    0    0 -0.00000000000E+00 -0.00000000000E+00 -0.45593999997E+02  0.45594000000E+02  0.51100000000E-03 0.  1.
    9900012    2    1    2    0    0 -0.36804783496E+02  0.84954828397E+01 -0.21374232761E+02  0.47787272552E+02  0.20000006875E+02 0.  0.
         12    1    1    2    0    0  0.36804783496E+02 -0.84954828397E+01  0.21374232761E+02  0.43400727448E+02  0.00000000000E+00 0. -1.
         11    1    3    3    0    0 -0.18046848319E+02  0.11921704666E+02 -0.96945506166E+01  0.23702322425E+02  0.51100000000E-03 0. -1.
        -11    1    3    3    0    0 -0.68011395949E+01 -0.56220059040E+01 -0.59724817196E+01  0.10655185983E+02  0.51100000000E-03 0.  1.
        -12    1    3    3    0    0 -0.11956795581E+02  0.21957840776E+01 -0.57072004249E+01  0.13429764145E+02  0.00000000000E+00 0.  1.
</event>
<event>
 7    1  0.2455451E-009  0.4778727E+02  0.7816164E-02  0.1312668E+00
        -11   -1    0    0    0    0  0.00000000000E+00  0.00000000000E+00  0.45593999997E+02  0.45594000000E+02  0.51100000000E-03 0.  1.
         11   -1    0    0    0    0 -0.00000000000E+00 -0.00000000000E+00 -0.45593999997E+02  0.45594000000E+02  0.51100000000E-03 0. -1.
    9900012    2    1    2    0    0 -0.42486051798E+02 -0.20239441258E+01  0.86291663176E+01  0.47787268917E+02  0.19999990298E+02 0.  0.
         12    1    1    2    0    0  0.42486051798E+02  0.20239441258E+01 -0.86291663176E+01  0.43400731083E+02  0.00000000000E+00 0. -1.
         11    1    3    3    0    0 -0.38043523373E+01 -0.46949380608E+01  0.51927681717E+01  0.79674576653E+01  0.51100000000E-03 0. -1.
        -11    1    3    3    0    0 -0.24732237641E+02  0.26572087153E+01 -0.17531924761E+01  0.24936279214E+02  0.51100000000E-03 0.  1.
         12    1    3    3    0    0 -0.13949461820E+02  0.13785219754E-01  0.51895906220E+01  0.14883532038E+02  0.00000000000E+00 0. -1.
</event>
<event>
 7    1  0.2455451E-009  0.4778732E+02  0.7816164E-02  0.1312668E+00
        -11   -1    0    0    0    0  0.00000000000E+00  0.00000000000E+00  0.45593999997E+02  0.45594000000E+02  0.51100000000E-03 0.  1.
         11   -1    0    0    0    0 -0.00000000000E+00 -0.00000000000E+00 -0.45593999997E+02  0.45594000000E+02  0.51100000000E-03 0. -1.
    9900012    2    1    2    0    0 -0.11087782668E+02 -0.41214707048E+02  0.78757967747E+01  0.47787318250E+02  0.20000215227E+02 0.  0.
         12    1    1    2    0    0  0.11087782668E+02  0.41214707048E+02 -0.78757967747E+01  0.43400681750E+02  0.00000000000E+00 0. -1.
         11    1    3    3    0    0 -0.11074776239E+02 -0.13222854359E+02  0.90736768643E+01  0.19489129233E+02  0.51100000000E-03 0. -1.
        -11    1    3    3    0    0  0.33522478144E+00 -0.21839786893E+02 -0.25468605636E+01  0.21990342566E+02  0.51100000000E-03 0.  1.
         12    1    3    3    0    0 -0.34823121112E+00 -0.61520657961E+01  0.13489804740E+01  0.63078464514E+01  0.00000000000E+00 0. -1.
</event>
<event>
 7    1  0.2455451E-009  0.4778727E+02  0.7816164E-02  0.1312668E+00
        -11   -1    0    0    0    0  0.00000000000E+00  0.00000000000E+00  0.45593999997E+02  0.45594000000E+02  0.51100000000E-03 0.  1.
         11   -1    0    0    0    0 -0.00000000000E+00 -0.00000000000E+00 -0.45593999997E+02  0.45594000000E+02  0.51100000000E-03 0. -1.
    9900012    2    1    2    0    0  0.10469834879E+02  0.32232385848E+02  0.27112341271E+02  0.47787272022E+02  0.20000004456E+02 0.  0.
         12    1    1    2    0    0 -0.10469834879E+02 -0.32232385848E+02 -0.27112341271E+02  0.43400727978E+02  0.00000000000E+00 0. -1.
         11    1    3    3    0    0 -0.55686507565E+00  0.18037322739E+01 -0.31063930003E+00  0.19131246337E+01  0.51100000000E-03 0. -1.
        -11    1    3    3    0    0  0.85566319834E+01  0.28501571568E+01  0.55664072534E+01  0.10598312917E+02  0.51100000000E-03 0.  1.
        -12    1    3    3    0    0  0.24700679709E+01  0.27578496417E+02  0.21856573318E+02  0.35275834471E+02  0.00000000000E+00 0.  1.
</event>
<event>
 7    1  0.2455451E-009  0.4778728E+02  0.7816164E-02  0.1312668E+00
        -11   -1    0    0    0    0  0.00000000000E+00  0.00000000000E+00  0.45593999997E+02  0.45594000000E+02  0.51100000000E-03 0.  1.
         11   -1    0    0    0    0 -0.00000000000E+00 -0.00000000000E+00 -0.45593999997E+02  0.45594000000E+02  0.51100000000E-03 0. -1.
    9900012    2    1    2    0    0  0.11595392081E+02  0.36448134201E+02  0.20511053182E+02  0.47787275272E+02  0.20000019275E+02 0.  0.
         12    1    1    2    0    0 -0.11595392081E+02 -0.36448134201E+02 -0.20511053182E+02  0.43400724728E+02  0.00000000000E+00 0. -1.
         11    1    3    3    0    0 -0.10917586056E+01  0.13033747026E+02  0.13839726330E+02  0.19042282519E+02  0.51100000000E-03 0. -1.
        -11    1    3    3    0    0  0.96535873100E+01  0.20486161109E+02  0.84460278015E+01  0.24170435057E+02  0.51100000000E-03 0.  1.
         12    1    3    3    0    0  0.30335633768E+01  0.29282260663E+01 -0.17747009493E+01  0.45745576962E+01  0.00000000000E+00 0. -1.
</event>
<event>
 7    1  0.2455451E-009  0.4778728E+02  0.7816164E-02  0.1312668E+00
        -11   -1    0    0    0    0  0.00000000000E+00  0.00000000000E+00  0.45593999997E+02  0.45594000000E+02  0.51100000000E-03 0. -1.
         11   -1    0    0    0    0 -0.00000000000E+00 -0.00000000000E+00 -0.45593999997E+02  0.45594000000E+02  0.51100000000E-03 0.  1.
    9900012    2    1    2    0    0  0.17726536260E+02 -0.39578116982E+02  0.17220166831E+01  0.47787276814E+02  0.20000026306E+02 0.  0.
         12    1    1    2    0    0 -0.17726536260E+02  0.39578116982E+02 -0.17220166831E+01  0.43400723186E+02  0.00000000000E+00 0. -1.
         11    1    3    3    0    0  0.15634304091E+02 -0.22277933097E+02 -0.32568796564E+01  0.27410673703E+02  0.51100000000E-03 0. -1.
        -11    1    3    3    0    0 -0.33818409307E+01 -0.36695888066E+01  0.47464275030E+00  0.50127852628E+01  0.51100000000E-03 0.  1.
        -12    1    3    3    0    0  0.54740730995E+01 -0.13630595078E+02  0.45042535892E+01  0.15363817849E+02  0.00000000000E+00 0.  1.
</event>
<event>
 7    1  0.2455451E-009  0.4778727E+02  0.7816164E-02  0.1312668E+00
        -11   -1    0    0    0    0  0.00000000000E+00  0.00000000000E+00  0.45593999997E+02  0.45594000000E+02  0.51100000000E-03 0.  1.
         11   -1    0    0    0    0 -0.00000000000E+00 -0.00000000000E+00 -0.45593999997E+02  0.45594000000E+02  0.51100000000E-03 0. -1.
    9900012    2    1    2    0    0  0.51131968675E+00 -0.38181502717E+02  0.20628487196E+02  0.47787273260E+02  0.20000010102E+02 0.  0.
         12    1    1    2    0    0 -0.51131968675E+00  0.38181502717E+02 -0.20628487196E+02  0.43400726740E+02  0.00000000000E+00 0. -1.
         11    1    3    3    0    0  0.25823053602E+01 -0.18691886517E+02  0.12526912295E+02  0.22649027671E+02  0.51100000000E-03 0. -1.
        -11    1    3    3    0    0  0.49716828780E+00 -0.74813699319E+01 -0.34731167789E+01  0.82632083832E+01  0.51100000000E-03 0.  1.
        -12    1    3    3    0    0 -0.25681539612E+01 -0.12008246269E+02  0.11574691680E+02  0.16875037206E+02  0.00000000000E+00 0.  1.
</event>
<event>
 7    1  0.2455451E-009  0.4778727E+02  0.7816164E-02  0.1312668E+00
        -11   -1    0    0    0    0  0.00000000000E+00  0.00000000000E+00  0.45593999997E+02  0.45594000000E+02  0.51100000000E-03 0.  1.
         11   -1    0    0    0    0 -0.00000000000E+00 -0.00000000000E+00 -0.45593999997E+02  0.45594000000E+02  0.51100000000E-03 0. -1.
    9900012    2    1    2    0    0  0.55165307230E+01  0.35941826229E+02  0.23693384988E+02  0.47787268715E+02  0.19999989378E+02 0.  0.
         12    1    1    2    0    0 -0.55165307230E+01 -0.35941826229E+02 -0.23693384988E+02  0.43400731285E+02  0.00000000000E+00 0. -1.
         11    1    3    3    0    0  0.16114149555E+00  0.22557684652E+02  0.22559714138E+02  0.31903225631E+02  0.51100000000E-03 0.  1.
        -11    1    3    3    0    0  0.64309400514E+01  0.12837136556E+02  0.20157864099E+00  0.14359307056E+02  0.51100000000E-03 0. -1.
         12    1    3    3    0    0 -0.10755508240E+01  0.54700502043E+00  0.93209220952E+00  0.15247360278E+01  0.00000000000E+00 0. -1.
</event>
<event>
 7    1  0.2455451E-009  0.4778727E+02  0.7816164E-02  0.1312668E+00
        -11   -1    0    0    0    0  0.00000000000E+00  0.00000000000E+00  0.45593999997E+02  0.45594000000E+02  0.51100000000E-03 0.  1.
         11   -1    0    0    0    0 -0.00000000000E+00 -0.00000000000E+00 -0.45593999997E+02  0.45594000000E+02  0.51100000000E-03 0. -1.
    9900012    2    1    2    0    0 -0.13380348942E+02  0.33780262647E+02  0.23737807609E+02  0.47787269679E+02  0.19999993776E+02 0.  0.
         12    1    1    2    0    0  0.13380348942E+02 -0.33780262647E+02 -0.23737807609E+02  0.43400730321E+02  0.00000000000E+00 0. -1.
         11    1    3    3    0    0 -0.94123795738E+01  0.22249065311E+02  0.10077528498E+02  0.26175759346E+02  0.51100000000E-03 0.  1.
        -11    1    3    3    0    0  0.27933902137E+01  0.72773842603E+01  0.31437760577E+01  0.84051578641E+01  0.51100000000E-03 0. -1.
         12    1    3    3    0    0 -0.67613595815E+01  0.42538130752E+01  0.10516503053E+02  0.13206352469E+02  0.00000000000E+00 0. -1.
</event>
<event>
 7    1  0.2455451E-009  0.4778727E+02  0.7816164E-02  0.1312668E+00
        -11   -1    0    0    0    0  0.00000000000E+00  0.00000000000E+00  0.45593999997E+02  0.45594000000E+02  0.51100000000E-03 0.  1.
         11   -1    0    0    0    0 -0.00000000000E+00 -0.00000000000E+00 -0.45593999997E+02  0.45594000000E+02  0.51100000000E-03 0. -1.
    9900012    2    1    2    0    0  0.35712545590E+02 -0.24600707887E+02  0.17442487275E+01  0.47787272533E+02  0.20000006786E+02 0.  0.
         12    1    1    2    0    0 -0.35712545590E+02  0.24600707887E+02 -0.17442487275E+01  0.43400727467E+02  0.00000000000E+00 0. -1.
         11    1    3    3    0    0  0.21057202377E+02 -0.80566325027E+01 -0.46300496307E+01  0.23016351993E+02  0.51100000000E-03 0. -1.
        -11    1    3    3    0    0  0.10478262029E+02 -0.51066337688E+01  0.19652474461E+01  0.11820908653E+02  0.51100000000E-03 0.  1.
         12    1    3    3    0    0  0.41770811841E+01 -0.11437441615E+02  0.44090509121E+01  0.12950011887E+02  0.00000000000E+00 0. -1.
</event>
<event>
 7    1  0.2455451E-009  0.4778722E+02  0.7816164E-02  0.1312668E+00
        -11   -1    0    0    0    0  0.00000000000E+00  0.00000000000E+00  0.45593999997E+02  0.45594000000E+02  0.51100000000E-03 0.  1.
         11   -1    0    0    0    0 -0.00000000000E+00 -0.00000000000E+00 -0.45593999997E+02  0.45594000000E+02  0.51100000000E-03 0. -1.
    9900012    2    1    2    0    0  0.33855561681E+02 -0.10297388193E+02  0.25127525453E+02  0.47787218950E+02  0.19999762481E+02 0.  0.
         12    1    1    2    0    0 -0.33855561681E+02  0.10297388193E+02 -0.25127525453E+02  0.43400781050E+02  0.00000000000E+00 0. -1.
         11    1    3    3    0    0  0.96095640150E+01 -0.61926771527E+01 -0.32132390973E+00  0.11436617515E+02  0.51100000000E-03 0. -1.
        -11    1    3    3    0    0  0.14649200343E+02 -0.48518108457E+01  0.20092890051E+02  0.25335022598E+02  0.51100000000E-03 0.  1.
         12    1    3    3    0    0  0.95967973228E+01  0.74709980538E+00  0.53559593116E+01  0.11015578837E+02  0.00000000000E+00 0. -1.
</event>
<event>
 7    1  0.2455451E-009  0.4778726E+02  0.7816164E-02  0.1312668E+00
        -11   -1    0    0    0    0  0.00000000000E+00  0.00000000000E+00  0.45593999997E+02  0.45594000000E+02  0.51100000000E-03 0. -1.
         11   -1    0    0    0    0 -0.00000000000E+00 -0.00000000000E+00 -0.45593999997E+02  0.45594000000E+02  0.51100000000E-03 0.  1.
    9900012    2    1    2    0    0 -0.39154254248E+02  0.13264779187E+02 -0.13214159209E+02  0.47787262723E+02  0.19999962057E+02 0.  0.
         12    1    1    2    0    0  0.39154254248E+02 -0.13264779187E+02  0.13214159209E+02  0.43400737277E+02  0.00000000000E+00 0. -1.
         11    1    3    3    0    0 -0.18589368207E+02  0.85052352579E+01  0.10733100310E+01  0.20470848341E+02  0.51100000000E-03 0. -1.
        -11    1    3    3    0    0 -0.71383243812E+01  0.42482838181E+01 -0.10437151437E+02  0.13339329846E+02  0.51100000000E-03 0.  1.
        -12    1    3    3    0    0 -0.13426561660E+02  0.51126011088E+00 -0.38503178037E+01  0.13977084535E+02  0.00000000000E+00 0.  1.
</event>
<event>
 7    1  0.2455451E-009  0.4778727E+02  0.7816164E-02  0.1312668E+00
        -11   -1    0    0    0    0  0.00000000000E+00  0.00000000000E+00  0.45593999997E+02  0.45594000000E+02  0.51100000000E-03 0.  1.
         11   -1    0    0    0    0 -0.00000000000E+00 -0.00000000000E+00 -0.45593999997E+02  0.45594000000E+02  0.51100000000E-03 0. -1.
    9900012    2    1    2    0    0  0.17799802452E+02  0.28958694691E+01  0.39476629680E+02  0.47787270534E+02  0.19999997674E+02 0.  0.
         12    1    1    2    0    0 -0.17799802452E+02 -0.28958694691E+01 -0.39476629680E+02  0.43400729466E+02  0.00000000000E+00 0. -1.
         11    1    3    3    0    0 -0.16977391877E+01 -0.15697785135E+01 -0.31068847345E+00  0.23330346160E+01  0.51100000000E-03 0. -1.
        -11    1    3    3    0    0  0.11620480413E+02  0.48741248586E+01  0.31904149208E+02  0.34302585837E+02  0.51100000000E-03 0.  1.
        -12    1    3    3    0    0  0.78770612260E+01 -0.40847687595E+00  0.78831689452E+01  0.11151650081E+02  0.00000000000E+00 0.  1.
</event>
<event>
 7    1  0.2455451E-009  0.4778727E+02  0.7816164E-02  0.1312668E+00
        -11   -1    0    0    0    0  0.00000000000E+00  0.00000000000E+00  0.45593999997E+02  0.45594000000E+02  0.51100000000E-03 0.  1.
         11   -1    0    0    0    0 -0.00000000000E+00 -0.00000000000E+00 -0.45593999997E+02  0.45594000000E+02  0.51100000000E-03 0. -1.
    9900012    2    1    2    0    0  0.10143626558E+02  0.22086942519E+01  0.42140852399E+02  0.47787274995E+02  0.20000018013E+02 0.  0.
         12    1    1    2    0    0 -0.10143626558E+02 -0.22086942519E+01 -0.42140852399E+02  0.43400725005E+02  0.00000000000E+00 0. -1.
         11    1    3    3    0    0  0.54966403843E+01  0.17594882244E+00  0.30981757746E+01  0.63121079597E+01  0.51100000000E-03 0. -1.
        -11    1    3    3    0    0  0.17305737836E+01  0.45893757768E+01  0.36521427906E+02  0.36849314135E+02  0.51100000000E-03 0.  1.
        -12    1    3    3    0    0  0.29164123896E+01 -0.25566303474E+01  0.25212487183E+01  0.46258529007E+01  0.00000000000E+00 0.  1.
</event>
<event>
 7    1  0.2455451E-009  0.4778727E+02  0.7816164E-02  0.1312668E+00
        -11   -1    0    0    0    0  0.00000000000E+00  0.00000000000E+00  0.45593999997E+02  0.45594000000E+02  0.51100000000E-03 0.  1.
         11   -1    0    0    0    0 -0.00000000000E+00 -0.00000000000E+00 -0.45593999997E+02  0.45594000000E+02  0.51100000000E-03 0. -1.
    9900012    2    1    2    0    0  0.99072385724E+00 -0.17501141727E+01  0.43354106405E+02  0.47787274481E+02  0.20000015669E+02 0.  0.
         12    1    1    2    0    0 -0.99072385724E+00  0.17501141727E+01 -0.43354106405E+02  0.43400725519E+02  0.00000000000E+00 0. -1.
         11    1    3    3    0    0  0.33122271990E+01  0.21045821701E+01  0.67472478628E+00  0.39818800744E+01  0.51100000000E-03 0. -1.
        -11    1    3    3    0    0 -0.33578805050E+01 -0.63335627121E+01  0.32014317027E+02  0.32807100955E+02  0.51100000000E-03 0.  1.
         12    1    3    3    0    0  0.10363771633E+01  0.24788663694E+01  0.10665064592E+02  0.10998293452E+02  0.00000000000E+00 0. -1.
</event>
<event>
 7    1  0.2455451E-009  0.4778727E+02  0.7816164E-02  0.1312668E+00
        -11   -1    0    0    0    0  0.00000000000E+00  0.00000000000E+00  0.45593999997E+02  0.45594000000E+02  0.51100000000E-03 0.  1.
         11   -1    0    0    0    0 -0.00000000000E+00 -0.00000000000E+00 -0.45593999997E+02  0.45594000000E+02  0.51100000000E-03 0. -1.
    9900012    2    1    2    0    0 -0.72116610689E+01  0.25594359566E+02  0.34300786863E+02  0.47787271016E+02  0.19999999869E+02 0.  0.
         12    1    1    2    0    0  0.72116610689E+01 -0.25594359566E+02 -0.34300786863E+02  0.43400728984E+02  0.00000000000E+00 0. -1.
         11    1    3    3    0    0 -0.35435566480E+01  0.60529705081E+01 -0.97042877034E+00  0.70807469909E+01  0.51100000000E-03 0. -1.
        -11    1    3    3    0    0 -0.15573758757E+01  0.16738905410E+02  0.29386628166E+02  0.33855432196E+02  0.51100000000E-03 0.  1.
         12    1    3    3    0    0 -0.21107285452E+01  0.28024836479E+01  0.58845874676E+01  0.68510918292E+01  0.00000000000E+00 0. -1.
</event>
<event>
 7    1  0.2455451E-009  0.4778726E+02  0.7816164E-02  0.1312668E+00
        -11   -1    0    0    0    0  0.00000000000E+00  0.00000000000E+00  0.45593999997E+02  0.45594000000E+02  0.51100000000E-03 0.  1.
         11   -1    0    0    0    0 -0.00000000000E+00 -0.00000000000E+00 -0.45593999997E+02  0.45594000000E+02  0.51100000000E-03 0. -1.
    9900012    2    1    2    0    0  0.27961235609E+02  0.71710414441E+01  0.32409413793E+02  0.47787255369E+02  0.19999928528E+02 0.  0.
         12    1    1    2    0    0 -0.27961235609E+02 -0.71710414441E+01 -0.32409413793E+02  0.43400744631E+02  0.00000000000E+00 0. -1.
         11    1    3    3    0    0  0.16657303256E+02 -0.53077637838E+01  0.11527779734E+02  0.20941055705E+02  0.51100000000E-03 0. -1.
        -11    1    3    3    0    0  0.99182062633E+01  0.10396340162E+02  0.17621459712E+02  0.22736986319E+02  0.51100000000E-03 0.  1.
         12    1    3    3    0    0  0.13857260893E+01  0.20824650663E+01  0.32601743466E+01  0.41092133453E+01  0.00000000000E+00 0. -1.
</event>
<event>
 7    1  0.2455451E-009  0.4778728E+02  0.7816164E-02  0.1312668E+00
        -11   -1    0    0    0    0  0.00000000000E+00  0.00000000000E+00  0.45593999997E+02  0.45594000000E+02  0.51100000000E-03 0.  1.
         11   -1    0    0    0    0 -0.00000000000E+00 -0.00000000000E+00 -0.45593999997E+02  0.45594000000E+02  0.51100000000E-03 0. -1.
    9900012    2    1    2    0    0  0.42017314264E+02  0.10783969323E+02  0.13689771106E+01  0.47787276612E+02  0.20000025384E+02 0.  0.
         12    1    1    2    0    0 -0.42017314264E+02 -0.10783969323E+02 -0.13689771106E+01  0.43400723388E+02  0.00000000000E+00 0. -1.
         11    1    3    3    0    0  0.16216473392E+02  0.50018299202E-01 -0.30939620456E+01  0.16509061527E+02  0.51100000000E-03 0.  1.
        -11    1    3    3    0    0  0.19455987334E+02  0.13553453481E+02  0.52650312550E+01  0.24288929552E+02  0.51100000000E-03 0. -1.
         12    1    3    3    0    0  0.63448535378E+01 -0.28195024574E+01 -0.80209209881E+00  0.69892855328E+01  0.00000000000E+00 0. -1.
</event>
<event>
 7    1  0.2455451E-009  0.4778730E+02  0.7816164E-02  0.1312668E+00
        -11   -1    0    0    0    0  0.00000000000E+00  0.00000000000E+00  0.45593999997E+02  0.45594000000E+02  0.51100000000E-03 0. -1.
         11   -1    0    0    0    0 -0.00000000000E+00 -0.00000000000E+00 -0.45593999997E+02  0.45594000000E+02  0.51100000000E-03 0.  1.
    9900012    2    1    2    0    0  0.15031110560E+02 -0.28666442119E+02 -0.28912315758E+02  0.47787295041E+02  0.20000109411E+02 0.  0.
         12    1    1    2    0    0 -0.15031110560E+02  0.28666442119E+02  0.28912315758E+02  0.43400704959E+02  0.00000000000E+00 0. -1.
         11    1    3    3    0    0  0.15700140902E+02 -0.11519112282E+02 -0.91419950608E+01  0.21511867563E+02  0.51100000000E-03 0. -1.
        -11    1    3    3    0    0  0.63526696151E+00 -0.10936914403E+02 -0.12843681739E+02  0.16881345375E+02  0.51100000000E-03 0.  1.
         12    1    3    3    0    0 -0.13042973030E+01 -0.62104154339E+01 -0.69266389582E+01  0.93940821038E+01  0.00000000000E+00 0. -1.
</event>
<event>
 7    1  0.2455451E-009  0.4778727E+02  0.7816164E-02  0.1312668E+00
        -11   -1    0    0    0    0  0.00000000000E+00  0.00000000000E+00  0.45593999997E+02  0.45594000000E+02  0.51100000000E-03 0.  1.
         11   -1    0    0    0    0 -0.00000000000E+00 -0.00000000000E+00 -0.45593999997E+02  0.45594000000E+02  0.51100000000E-03 0. -1.
    9900012    2    1    2    0    0  0.19004267896E+02  0.29413381027E+02  0.25638145642E+02  0.47787266209E+02  0.19999977953E+02 0.  0.
         12    1    1    2    0    0 -0.19004267896E+02 -0.29413381027E+02 -0.25638145642E+02  0.43400733791E+02  0.00000000000E+00 0. -1.
         11    1    3    3    0    0  0.14296360100E+02  0.49386553897E+01  0.10752505657E+02  0.18557817957E+02  0.51100000000E-03 0. -1.
        -11    1    3    3    0    0  0.49268081765E+01  0.20205401344E+02  0.13208534179E+02  0.24637310277E+02  0.51100000000E-03 0.  1.
         12    1    3    3    0    0 -0.21890038066E+00  0.42693242927E+01  0.16771058054E+01  0.45921379743E+01  0.00000000000E+00 0. -1.
</event>
<event>
 7    1  0.2455451E-009  0.4778727E+02  0.7816164E-02  0.1312668E+00
        -11   -1    0    0    0    0  0.00000000000E+00  0.00000000000E+00  0.45593999997E+02  0.45594000000E+02  0.51100000000E-03 0.  1.
         11   -1    0    0    0    0 -0.00000000000E+00 -0.00000000000E+00 -0.45593999997E+02  0.45594000000E+02  0.51100000000E-03 0. -1.
    9900012    2    1    2    0    0  0.39887831587E+02 -0.10023497815E+02 -0.13860511872E+02  0.47787269517E+02  0.19999993034E+02 0.  0.
         12    1    1    2    0    0 -0.39887831587E+02  0.10023497815E+02  0.13860511872E+02  0.43400730483E+02  0.00000000000E+00 0. -1.
         11    1    3    3    0    0  0.12308256803E+02  0.26171932662E+01 -0.11644866795E+02  0.17144847886E+02  0.51100000000E-03 0. -1.
        -11    1    3    3    0    0  0.15253271274E+02 -0.61997576303E+01 -0.28972565333E+01  0.16718055357E+02  0.51100000000E-03 0.  1.
         12    1    3    3    0    0  0.12326303511E+02 -0.64409334511E+01  0.68161145593E+00  0.13924366274E+02  0.00000000000E+00 0. -1.
</event>
<event>
 7    1  0.2455451E-009  0.4778728E+02  0.7816164E-02  0.1312668E+00
        -11   -1    0    0    0    0  0.00000000000E+00  0.00000000000E+00  0.45593999997E+02  0.45594000000E+02  0.51100000000E-03 0.  1.
         11   -1    0    0    0    0 -0.00000000000E+00 -0.00000000000E+00 -0.45593999997E+02  0.45594000000E+02  0.51100000000E-03 0. -1.
    9900012    2    1    2    0    0  0.19688035712E+02 -0.14366305384E+02  0.35911183290E+02  0.47787279201E+02  0.20000037188E+02 0.  0.
         12    1    1    2    0    0 -0.19688035712E+02  0.14366305384E+02 -0.35911183290E+02  0.43400720799E+02  0.00000000000E+00 0. -1.
         11    1    3    3    0    0  0.74810443699E+01 -0.12443612980E+02  0.92582206197E+01  0.17219877414E+02  0.51100000000E-03 0. -1.
        -11    1    3    3    0    0  0.13106458992E+02 -0.29516092315E+01  0.22616302965E+02  0.26305672857E+02  0.51100000000E-03 0.  1.
         12    1    3    3    0    0 -0.89946764994E+00  0.10289168278E+01  0.40366597055E+01  0.42617289296E+01  0.00000000000E+00 0. -1.
</event>
<event>
 7    1  0.2455451E-009  0.4778727E+02  0.7816164E-02  0.1312668E+00
        -11   -1    0    0    0    0  0.00000000000E+00  0.00000000000E+00  0.45593999997E+02  0.45594000000E+02  0.51100000000E-03 0.  1.
         11   -1    0    0    0    0 -0.00000000000E+00 -0.00000000000E+00 -0.45593999997E+02  0.45594000000E+02  0.51100000000E-03 0. -1.
    9900012    2    1    2    0    0  0.87284987456E+00  0.39058834734E+02  0.18901561649E+02  0.47787268780E+02  0.19999989675E+02 0.  0.
         12    1    1    2    0    0 -0.87284987456E+00 -0.39058834734E+02 -0.18901561649E+02  0.43400731220E+02  0.00000000000E+00 0. -1.
         11    1    3    3    0    0  0.81252231927E+01  0.21927030670E+02  0.59895694533E+01  0.24138949199E+02  0.51100000000E-03 0. -1.
        -11    1    3    3    0    0 -0.75055917372E+01  0.10661241553E+02  0.66331562925E+01  0.14628559103E+02  0.51100000000E-03 0.  1.
        -12    1    3    3    0    0  0.25321841904E+00  0.64705625107E+01  0.62788359036E+01  0.90197604779E+01  0.00000000000E+00 0.  1.
</event>
<event>
 7    1  0.2455451E-009  0.4778727E+02  0.7816164E-02  0.1312668E+00
        -11   -1    0    0    0    0  0.00000000000E+00  0.00000000000E+00  0.45593999997E+02  0.45594000000E+02  0.51100000000E-03 0.  1.
         11   -1    0    0    0    0 -0.00000000000E+00 -0.00000000000E+00 -0.45593999997E+02  0.45594000000E+02  0.51100000000E-03 0. -1.
    9900012    2    1    2    0    0  0.32220757129E+02  0.15480194099E+02  0.24613197943E+02  0.47787272906E+02  0.20000008487E+02 0.  0.
         12    1    1    2    0    0 -0.32220757129E+02 -0.15480194099E+02 -0.24613197943E+02  0.43400727094E+02  0.00000000000E+00 0. -1.
         11    1    3    3    0    0  0.15878525697E+02  0.74964956576E+01  0.73495518601E+01  0.19035255140E+02  0.51100000000E-03 0. -1.
        -11    1    3    3    0    0  0.11234354448E+00  0.49532644074E+01  0.90359278293E+01  0.10305117241E+02  0.51100000000E-03 0.  1.
        -12    1    3    3    0    0  0.16229887888E+02  0.30304340342E+01  0.82277182540E+01  0.18446900524E+02  0.00000000000E+00 0.  1.
</event>
<event>
 7    1  0.2455451E-009  0.4778727E+02  0.7816164E-02  0.1312668E+00
        -11   -1    0    0    0    0  0.00000000000E+00  0.00000000000E+00  0.45593999997E+02  0.45594000000E+02  0.51100000000E-03 0.  1.
         11   -1    0    0    0    0 -0.00000000000E+00 -0.00000000000E+00 -0.45593999997E+02  0.45594000000E+02  0.51100000000E-03 0. -1.
    9900012    2    1    2    0    0 -0.18943397905E+02  0.11618459123E+02  0.37279787895E+02  0.47787268416E+02  0.19999988015E+02 0.  0.
         12    1    1    2    0    0  0.18943397905E+02 -0.11618459123E+02 -0.37279787895E+02  0.43400731584E+02  0.00000000000E+00 0. -1.
         11    1    3    3    0    0 -0.14281868155E+01 -0.34759689291E+01  0.14869759898E+02  0.15337269550E+02  0.51100000000E-03 0. -1.
        -11    1    3    3    0    0 -0.15212248074E+01  0.13988129991E+01  0.64136569895E+00  0.21638283070E+01  0.51100000000E-03 0.  1.
         12    1    3    3    0    0 -0.15993986282E+02  0.13695615053E+02  0.21768662298E+02  0.30286170559E+02  0.00000000000E+00 0. -1.
</event>
<event>
 7    1  0.2455451E-009  0.4778727E+02  0.7816164E-02  0.1312668E+00
        -11   -1    0    0    0    0  0.00000000000E+00  0.00000000000E+00  0.45593999997E+02  0.45594000000E+02  0.51100000000E-03 0.  1.
         11   -1    0    0    0    0 -0.00000000000E+00 -0.00000000000E+00 -0.45593999997E+02  0.45594000000E+02  0.51100000000E-03 0. -1.
    9900012    2    1    2    0    0 -0.10793605383E+02 -0.17237996827E+02  0.38340222784E+02  0.47787272645E+02  0.20000007299E+02 0.  0.
         12    1    1    2    0    0  0.10793605383E+02  0.17237996827E+02 -0.38340222784E+02  0.43400727355E+02  0.00000000000E+00 0. -1.
         11    1    3    3    0    0 -0.19510565830E+01  0.17236132523E+01  0.10887719610E+02  0.11194637243E+02  0.51100000000E-03 0. -1.
        -11    1    3    3    0    0 -0.21719796434E+01 -0.11766886714E+02  0.68855555394E+01  0.13805361055E+02  0.51100000000E-03 0.  1.
        -12    1    3    3    0    0 -0.66705691567E+01 -0.71947233654E+01  0.20566947635E+02  0.22787274348E+02  0.00000000000E+00 0.  1.
</event>
<event>
 7    1  0.2455451E-009  0.4778726E+02  0.7816164E-02  0.1312668E+00
        -11   -1    0    0    0    0  0.00000000000E+00  0.00000000000E+00  0.45593999997E+02  0.45594000000E+02  0.51100000000E-03 0.  1.
         11   -1    0    0    0    0 -0.00000000000E+00 -0.00000000000E+00 -0.45593999997E+02  0.45594000000E+02  0.51100000000E-03 0. -1.
    9900012    2    1    2    0    0 -0.41130972897E+02  0.92126023075E+00  0.13820936638E+02  0.47787263354E+02  0.19999964935E+02 0.  0.
         12    1    1    2    0    0  0.41130972897E+02 -0.92126023075E+00 -0.13820936638E+02  0.43400736646E+02  0.00000000000E+00 0. -1.
         11    1    3    3    0    0 -0.32513476881E+02  0.47687206332E+01  0.16860209644E+02  0.36934178546E+02  0.51100000000E-03 0. -1.
        -11    1    3    3    0    0 -0.86501928398E+01 -0.44715454607E+01 -0.25684175737E+01  0.10070616866E+02  0.51100000000E-03 0.  1.
         12    1    3    3    0    0  0.32696823384E-01  0.62408505827E+00 -0.47085543194E+00  0.78246794184E+00  0.00000000000E+00 0. -1.
</event>
<event>
 7    1  0.2455451E-009  0.4778727E+02  0.7816164E-02  0.1312668E+00
        -11   -1    0    0    0    0  0.00000000000E+00  0.00000000000E+00  0.45593999997E+02  0.45594000000E+02  0.51100000000E-03 0.  1.
         11   -1    0    0    0    0 -0.00000000000E+00 -0.00000000000E+00 -0.45593999997E+02  0.45594000000E+02  0.51100000000E-03 0. -1.
    9900012    2    1    2    0    0 -0.97879739940E+00 -0.41341981466E+02  0.13172148269E+02  0.47787274592E+02  0.20000016177E+02 0.  0.
         12    1    1    2    0    0  0.97879739940E+00  0.41341981466E+02 -0.13172148269E+02  0.43400725408E+02  0.00000000000E+00 0. -1.
         11    1    3    3    0    0 -0.63633152055E+01 -0.22272988430E+02  0.65582149556E+01  0.24074633489E+02  0.51100000000E-03 0. -1.
        -11    1    3    3    0    0  0.41570283234E+01 -0.68725648719E+00  0.22647858297E+01  0.47835615473E+01  0.51100000000E-03 0.  1.
        -12    1    3    3    0    0  0.12274894826E+01 -0.18381736549E+02  0.43491474838E+01  0.18929079556E+02  0.00000000000E+00 0.  1.
</event>
<event>
 7    1  0.2455451E-009  0.4778727E+02  0.7816164E-02  0.1312668E+00
        -11   -1    0    0    0    0  0.00000000000E+00  0.00000000000E+00  0.45593999997E+02  0.45594000000E+02  0.51100000000E-03 0.  1.
         11   -1    0    0    0    0 -0.00000000000E+00 -0.00000000000E+00 -0.45593999997E+02  0.45594000000E+02  0.51100000000E-03 0. -1.
    9900012    2    1    2    0    0  0.29315779038E+01  0.30416018463E+02 -0.30820363820E+02  0.47787272423E+02  0.20000006287E+02 0.  0.
         12    1    1    2    0    0 -0.29315779038E+01 -0.30416018463E+02  0.30820363820E+02  0.43400727577E+02  0.00000000000E+00 0. -1.
         11    1    3    3    0    0  0.63006826938E+01  0.14233038779E+02 -0.16763361055E+02  0.22875494954E+02  0.51100000000E-03 0. -1.
        -11    1    3    3    0    0 -0.40445367034E+01  0.49416740026E+00 -0.60251837837E+01  0.72736042272E+01  0.51100000000E-03 0.  1.
        -12    1    3    3    0    0  0.67543191345E+00  0.15688812284E+02 -0.80318189817E+01  0.17638173242E+02  0.00000000000E+00 0.  1.
</event>
<event>
 7    1  0.2455451E-009  0.4778728E+02  0.7816164E-02  0.1312668E+00
        -11   -1    0    0    0    0  0.00000000000E+00  0.00000000000E+00  0.45593999997E+02  0.45594000000E+02  0.51100000000E-03 0. -1.
         11   -1    0    0    0    0 -0.00000000000E+00 -0.00000000000E+00 -0.45593999997E+02  0.45594000000E+02  0.51100000000E-03 0.  1.
    9900012    2    1    2    0    0  0.36137790213E+02  0.15245245959E+02 -0.18581314372E+02  0.47787278237E+02  0.20000032792E+02 0.  0.
         12    1    1    2    0    0 -0.36137790213E+02 -0.15245245959E+02  0.18581314372E+02  0.43400721763E+02  0.00000000000E+00 0. -1.
         11    1    3    3    0    0  0.23688729947E+01  0.27121685370E+01 -0.78817020259E+01  0.86653704205E+01  0.51100000000E-03 0. -1.
        -11    1    3    3    0    0  0.28112091469E+02  0.58783318665E+01 -0.97793408351E+01  0.30339412976E+02  0.51100000000E-03 0.  1.
        -12    1    3    3    0    0  0.56568257486E+01  0.66547455557E+01 -0.92027151050E+00  0.87824948400E+01  0.00000000000E+00 0.  1.
</event>
<event>
 7    1  0.2455451E-009  0.4778727E+02  0.7816164E-02  0.1312668E+00
        -11   -1    0    0    0    0  0.00000000000E+00  0.00000000000E+00  0.45593999997E+02  0.45594000000E+02  0.51100000000E-03 0.  1.
         11   -1    0    0    0    0 -0.00000000000E+00 -0.00000000000E+00 -0.45593999997E+02  0.45594000000E+02  0.51100000000E-03 0. -1.
    9900012    2    1    2    0    0  0.19081700156E+02 -0.82207017043E+01  0.38104227778E+02  0.47787269684E+02  0.19999993799E+02 0.  0.
         12    1    1    2    0    0 -0.19081700156E+02  0.82207017043E+01 -0.38104227778E+02  0.43400730316E+02  0.00000000000E+00 0. -1.
         11    1    3    3    0    0 -0.94157741871E+00 -0.36349666852E+01  0.27365847871E+01  0.46463369869E+01  0.51100000000E-03 0. -1.
        -11    1    3    3    0    0  0.22119457572E+02 -0.44691878920E+01  0.32980346454E+02  0.39961822984E+02  0.51100000000E-03 0.  1.
        -12    1    3    3    0    0 -0.20961799977E+01 -0.11654712710E+00  0.23872965375E+01  0.31791097140E+01  0.00000000000E+00 0.  1.
</event>
<event>
 7    1  0.2455451E-009  0.4778727E+02  0.7816164E-02  0.1312668E+00
        -11   -1    0    0    0    0  0.00000000000E+00  0.00000000000E+00  0.45593999997E+02  0.45594000000E+02  0.51100000000E-03 0. -1.
         11   -1    0    0    0    0 -0.00000000000E+00 -0.00000000000E+00 -0.45593999997E+02  0.45594000000E+02  0.51100000000E-03 0.  1.
    9900012    2    1    2    0    0 -0.56765395289E+01 -0.42315012721E+02 -0.77999933535E+01  0.47787270756E+02  0.19999998686E+02 0.  0.
         12    1    1    2    0    0  0.56765395289E+01  0.42315012721E+02  0.77999933535E+01  0.43400729244E+02  0.00000000000E+00 0. -1.
         11    1    3    3    0    0  0.35849796944E+01 -0.19616707986E+02 -0.78674478320E+01  0.21437444980E+02  0.51100000000E-03 0. -1.
        -11    1    3    3    0    0 -0.10797076705E+01 -0.37262214936E+01 -0.36850396777E+01  0.53507020997E+01  0.51100000000E-03 0.  1.
         12    1    3    3    0    0 -0.81818115529E+01 -0.18972083241E+02  0.37524941562E+01  0.20999123676E+02  0.00000000000E+00 0. -1.
</event>
<event>
 7    1  0.2455451E-009  0.4778727E+02  0.7816164E-02  0.1312668E+00
        -11   -1    0    0    0    0  0.00000000000E+00  0.00000000000E+00  0.45593999997E+02  0.45594000000E+02  0.51100000000E-03 0.  1.
         11   -1    0    0    0    0 -0.00000000000E+00 -0.00000000000E+00 -0.45593999997E+02  0.45594000000E+02  0.51100000000E-03 0. -1.
    9900012    2    1    2    0    0 -0.25056688832E+02  0.66064932474E+01  0.34815801825E+02  0.47787268843E+02  0.19999989963E+02 0.  0.
         12    1    1    2    0    0  0.25056688832E+02 -0.66064932474E+01 -0.34815801825E+02  0.43400731157E+02  0.00000000000E+00 0. -1.
         11    1    3    3    0    0  0.48653607052E+00  0.17396113541E+00  0.23335746451E+01  0.23900942889E+01  0.51100000000E-03 0. -1.
        -11    1    3    3    0    0 -0.11939559836E+02 -0.16847988223E-01  0.30266978672E+01  0.12317234802E+02  0.51100000000E-03 0.  1.
        -12    1    3    3    0    0 -0.13603665067E+02  0.64493801003E+01  0.29455529312E+02  0.33079939752E+02  0.00000000000E+00 0.  1.
</event>
<event>
 7    1  0.2455451E-009  0.4778727E+02  0.7816164E-02  0.1312668E+00
        -11   -1    0    0    0    0  0.00000000000E+00  0.00000000000E+00  0.45593999997E+02  0.45594000000E+02  0.51100000000E-03 0.  1.
         11   -1    0    0    0    0 -0.00000000000E+00 -0.00000000000E+00 -0.45593999997E+02  0.45594000000E+02  0.51100000000E-03 0. -1.
    9900012    2    1    2    0    0  0.52377837048E+01  0.49832210035E+01  0.42794352368E+02  0.47787268850E+02  0.19999989995E+02 0.  0.
         12    1    1    2    0    0 -0.52377837048E+01 -0.49832210035E+01 -0.42794352368E+02  0.43400731150E+02  0.00000000000E+00 0. -1.
         11    1    3    3    0    0 -0.31169624890E+01 -0.30819864318E+01  0.27106767305E+01  0.51538203425E+01  0.51100000000E-03 0. -1.
        -11    1    3    3    0    0  0.37702170479E+01  0.26953001504E+01  0.29805661656E+02  0.30163830103E+02  0.51100000000E-03 0.  1.
         12    1    3    3    0    0  0.45845291459E+01  0.53699072850E+01  0.10278013982E+02  0.12469618405E+02  0.00000000000E+00 0. -1.
</event>
<event>
 7    1  0.2455451E-009  0.4778727E+02  0.7816164E-02  0.1312668E+00
        -11   -1    0    0    0    0  0.00000000000E+00  0.00000000000E+00  0.45593999997E+02  0.45594000000E+02  0.51100000000E-03 0.  1.
         11   -1    0    0    0    0 -0.00000000000E+00 -0.00000000000E+00 -0.45593999997E+02  0.45594000000E+02  0.51100000000E-03 0. -1.
    9900012    2    1    2    0    0 -0.30157481624E+02  0.22052300226E+02  0.22087227956E+02  0.47787270952E+02  0.19999999576E+02 0.  0.
         12    1    1    2    0    0  0.30157481624E+02 -0.22052300226E+02 -0.22087227956E+02  0.43400729048E+02  0.00000000000E+00 0. -1.
         11    1    3    3    0    0 -0.13484832546E+02  0.79953103343E+01 -0.84860245448E+00  0.15699866959E+02  0.51100000000E-03 0. -1.
        -11    1    3    3    0    0 -0.70249842987E+01  0.47749571925E+01  0.55593953152E+01  0.10151723850E+02  0.51100000000E-03 0.  1.
         12    1    3    3    0    0 -0.96476647792E+01  0.92820326990E+01  0.17376435095E+02  0.21935680143E+02  0.00000000000E+00 0. -1.
</event>
<event>
 7    1  0.2455451E-009  0.4778732E+02  0.7816164E-02  0.1312668E+00
        -11   -1    0    0    0    0  0.00000000000E+00  0.00000000000E+00  0.45593999997E+02  0.45594000000E+02  0.51100000000E-03 0.  1.
         11   -1    0    0    0    0 -0.00000000000E+00 -0.00000000000E+00 -0.45593999997E+02  0.45594000000E+02  0.51100000000E-03 0. -1.
    9900012    2    1    2    0    0  0.10870443989E+02 -0.70087129023E-01  0.42017231308E+02  0.47787318076E+02  0.20000214433E+02 0.  0.
         12    1    1    2    0    0 -0.10870443989E+02  0.70087129023E-01 -0.42017231308E+02  0.43400681924E+02  0.00000000000E+00 0. -1.
         11    1    3    3    0    0  0.97314240919E+01 -0.62915650083E+01  0.29070438292E+02  0.31294964257E+02  0.51100000000E-03 0. -1.
        -11    1    3    3    0    0 -0.31706812780E+01  0.22289762742E+01  0.76789364814E+01  0.86016057073E+01  0.51100000000E-03 0.  1.
         12    1    3    3    0    0  0.43097011747E+01  0.39925016051E+01  0.52678565344E+01  0.78907481109E+01  0.00000000000E+00 0. -1.
</event>
<event>
 7    1  0.2455451E-009  0.4778727E+02  0.7816164E-02  0.1312668E+00
        -11   -1    0    0    0    0  0.00000000000E+00  0.00000000000E+00  0.45593999997E+02  0.45594000000E+02  0.51100000000E-03 0. -1.
         11   -1    0    0    0    0 -0.00000000000E+00 -0.00000000000E+00 -0.45593999997E+02  0.45594000000E+02  0.51100000000E-03 0.  1.
    9900012    2    1    2    0    0 -0.15071976017E+02 -0.80523441381E+01 -0.39895091664E+02  0.47787273669E+02  0.20000011966E+02 0.  0.
         12    1    1    2    0    0  0.15071976017E+02  0.80523441381E+01  0.39895091664E+02  0.43400726331E+02  0.00000000000E+00 0. -1.
         11    1    3    3    0    0 -0.71262453509E+00 -0.63441165322E+01 -0.46291402542E+01  0.78857205160E+01  0.51100000000E-03 0. -1.
        -11    1    3    3    0    0 -0.14457970193E+02  0.72892198094E+00 -0.34385208757E+02  0.37308267326E+02  0.51100000000E-03 0.  1.
        -12    1    3    3    0    0  0.98618710759E-01 -0.24371495869E+01 -0.88074265301E+00  0.25932858268E+01  0.00000000000E+00 0.  1.
</event>
<event>
 7    1  0.2455451E-009  0.4778728E+02  0.7816164E-02  0.1312668E+00
        -11   -1    0    0    0    0  0.00000000000E+00  0.00000000000E+00  0.45593999997E+02  0.45594000000E+02  0.51100000000E-03 0.  1.
         11   -1    0    0    0    0 -0.00000000000E+00 -0.00000000000E+00 -0.45593999997E+02  0.45594000000E+02  0.51100000000E-03 0. -1.
    9900012    2    1    2    0    0 -0.28410359167E+02 -0.24655322724E+02  0.21646919941E+02  0.47787278928E+02  0.20000035945E+02 0.  0.
         12    1    1    2    0    0  0.28410359167E+02  0.24655322724E+02 -0.21646919941E+02  0.43400721072E+02  0.00000000000E+00 0. -1.
         11    1    3    3    0    0  0.80931969190E-01  0.26272325657E+01  0.24447627421E+01  0.35896749246E+01  0.51100000000E-03 0. -1.
        -11    1    3    3    0    0 -0.43784802847E+01 -0.21360694940E+01  0.34078920082E+01  0.59453856635E+01  0.51100000000E-03 0.  1.
         12    1    3    3    0    0 -0.24112810852E+02 -0.25146485796E+02  0.15794265191E+02  0.38252218340E+02  0.00000000000E+00 0. -1.
</event>
<event>
 7    1  0.2455451E-009  0.4778727E+02  0.7816164E-02  0.1312668E+00
        -11   -1    0    0    0    0  0.00000000000E+00  0.00000000000E+00  0.45593999997E+02  0.45594000000E+02  0.51100000000E-03 0.  1.
         11   -1    0    0    0    0 -0.00000000000E+00 -0.00000000000E+00 -0.45593999997E+02  0.45594000000E+02  0.51100000000E-03 0. -1.
    9900012    2    1    2    0    0 -0.29210080902E+02 -0.31858625620E+02  0.39271716316E+01  0.47787268098E+02  0.19999986564E+02 0.  0.
         12    1    1    2    0    0  0.29210080902E+02  0.31858625620E+02 -0.39271716316E+01  0.43400731902E+02  0.00000000000E+00 0. -1.
         11    1    3    3    0    0  0.26741968742E+01 -0.28192981416E+01 -0.27901483186E+00  0.38958465666E+01  0.51100000000E-03 0. -1.
        -11    1    3    3    0    0 -0.22261928199E+02 -0.16542039828E+02  0.75263922996E+00  0.27745251754E+02  0.51100000000E-03 0.  1.
        -12    1    3    3    0    0 -0.96223495771E+01 -0.12497287650E+02  0.34535472335E+01  0.16146169777E+02  0.00000000000E+00 0.  1.
</event>
<event>
 7    1  0.2455451E-009  0.4778727E+02  0.7816164E-02  0.1312668E+00
        -11   -1    0    0    0    0  0.00000000000E+00  0.00000000000E+00  0.45593999997E+02  0.45594000000E+02  0.51100000000E-03 0. -1.
         11   -1    0    0    0    0 -0.00000000000E+00 -0.00000000000E+00 -0.45593999997E+02  0.45594000000E+02  0.51100000000E-03 0.  1.
    9900012    2    1    2    0    0 -0.19317786202E+02  0.12178943275E+02 -0.36906907754E+02  0.47787270018E+02  0.19999995318E+02 0.  0.
         12    1    1    2    0    0  0.19317786202E+02 -0.12178943275E+02  0.36906907754E+02  0.43400729982E+02  0.00000000000E+00 0. -1.
         11    1    3    3    0    0 -0.12563865852E+02  0.55553858524E+01 -0.85749720294E+01  0.16193924252E+02  0.51100000000E-03 0. -1.
        -11    1    3    3    0    0 -0.44068056233E+01  0.93617132939E+01 -0.21835234702E+02  0.24162762391E+02  0.51100000000E-03 0.  1.
         12    1    3    3    0    0 -0.23471147271E+01 -0.27381558711E+01 -0.64967010223E+01  0.74305833748E+01  0.00000000000E+00 0. -1.
</event>
<event>
 7    1  0.2455451E-009  0.4778727E+02  0.7816164E-02  0.1312668E+00
        -11   -1    0    0    0    0  0.00000000000E+00  0.00000000000E+00  0.45593999997E+02  0.45594000000E+02  0.51100000000E-03 0. -1.
         11   -1    0    0    0    0 -0.00000000000E+00 -0.00000000000E+00 -0.45593999997E+02  0.45594000000E+02  0.51100000000E-03 0.  1.
    9900012    2    1    2    0    0  0.22361838866E+02 -0.61821769502E+01 -0.36679041420E+02  0.47787271563E+02  0.20000002366E+02 0.  0.
         12    1    1    2    0    0 -0.22361838866E+02  0.61821769502E+01  0.36679041420E+02  0.43400728437E+02  0.00000000000E+00 0. -1.
         11    1    3    3    0    0  0.67353101417E+01  0.35643552467E+01 -0.12190112826E+02  0.14375948038E+02  0.51100000000E-03 0. -1.
        -11    1    3    3    0    0  0.11029425547E+02  0.96132960803E+00 -0.12275173205E+02  0.16530343614E+02  0.51100000000E-03 0.  1.
         12    1    3    3    0    0  0.45971031771E+01 -0.10707861805E+02 -0.12213755390E+02  0.16880979912E+02  0.00000000000E+00 0. -1.
</event>
<event>
 7    1  0.2455451E-009  0.4778727E+02  0.7816164E-02  0.1312668E+00
        -11   -1    0    0    0    0  0.00000000000E+00  0.00000000000E+00  0.45593999997E+02  0.45594000000E+02  0.51100000000E-03 0.  1.
         11   -1    0    0    0    0 -0.00000000000E+00 -0.00000000000E+00 -0.45593999997E+02  0.45594000000E+02  0.51100000000E-03 0. -1.
    9900012    2    1    2    0    0 -0.22756046348E+01  0.31205181096E+02  0.30077931331E+02  0.47787266632E+02  0.19999979883E+02 0.  0.
         12    1    1    2    0    0  0.22756046348E+01 -0.31205181096E+02 -0.30077931331E+02  0.43400733368E+02  0.00000000000E+00 0. -1.
         11    1    3    3    0    0  0.35919404003E+01  0.17090597235E+02  0.52667441954E+01  0.18240864683E+02  0.51100000000E-03 0. -1.
        -11    1    3    3    0    0 -0.65125883910E+01  0.10384618574E+02  0.18870182961E+02  0.22501953598E+02  0.51100000000E-03 0.  1.
        -12    1    3    3    0    0  0.64504335593E+00  0.37299652867E+01  0.59410041746E+01  0.70444483512E+01  0.00000000000E+00 0.  1.
</event>
<event>
 7    1  0.2455451E-009  0.4778727E+02  0.7816164E-02  0.1312668E+00
        -11   -1    0    0    0    0  0.00000000000E+00  0.00000000000E+00  0.45593999997E+02  0.45594000000E+02  0.51100000000E-03 0.  1.
         11   -1    0    0    0    0 -0.00000000000E+00 -0.00000000000E+00 -0.45593999997E+02  0.45594000000E+02  0.51100000000E-03 0. -1.
    9900012    2    1    2    0    0 -0.32836014410E+01 -0.32528585445E+02  0.28543516499E+02  0.47787271393E+02  0.20000001589E+02 0.  0.
         12    1    1    2    0    0  0.32836014410E+01  0.32528585445E+02 -0.28543516499E+02  0.43400728607E+02  0.00000000000E+00 0. -1.
         11    1    3    3    0    0  0.17154896123E+01 -0.12496024954E+01 -0.17559737423E+01  0.27546061518E+01  0.51100000000E-03 0. -1.
        -11    1    3    3    0    0 -0.23779256396E+00 -0.26685407788E+02  0.23781719425E+02  0.35745457239E+02  0.51100000000E-03 0.  1.
         12    1    3    3    0    0 -0.47612984893E+01 -0.45935751618E+01  0.65177708162E+01  0.92872080027E+01  0.00000000000E+00 0. -1.
</event>
<event>
 7    1  0.2455451E-009  0.4778726E+02  0.7816164E-02  0.1312668E+00
        -11   -1    0    0    0    0  0.00000000000E+00  0.00000000000E+00  0.45593999997E+02  0.45594000000E+02  0.51100000000E-03 0.  1.
         11   -1    0    0    0    0 -0.00000000000E+00 -0.00000000000E+00 -0.45593999997E+02  0.45594000000E+02  0.51100000000E-03 0. -1.
    9900012    2    1    2    0    0  0.53434157655E+01 -0.35242689822E+02 -0.24759332863E+02  0.47787264502E+02  0.19999970169E+02 0.  0.
         12    1    1    2    0    0 -0.53434157655E+01  0.35242689822E+02  0.24759332863E+02  0.43400735498E+02  0.00000000000E+00 0. -1.
         11    1    3    3    0    0  0.34139978225E+01 -0.10895474105E+02 -0.63903809224E+01  0.13084483394E+02  0.51100000000E-03 0. -1.
        -11    1    3    3    0    0  0.87288531833E+01 -0.15256806538E+02 -0.14245287672E+02  0.22625013696E+02  0.51100000000E-03 0.  1.
        -12    1    3    3    0    0 -0.67994352403E+01 -0.90904091803E+01 -0.41236642686E+01  0.12077767412E+02  0.00000000000E+00 0.  1.
</event>
<event>
 7    1  0.2455451E-009  0.4778726E+02  0.7816164E-02  0.1312668E+00
        -11   -1    0    0    0    0  0.00000000000E+00  0.00000000000E+00  0.45593999997E+02  0.45594000000E+02  0.51100000000E-03 0.  1.
         11   -1    0    0    0    0 -0.00000000000E+00 -0.00000000000E+00 -0.45593999997E+02  0.45594000000E+02  0.51100000000E-03 0. -1.
    9900012    2    1    2    0    0  0.42738270989E+02  0.18996911911E+01  0.73113177622E+01  0.47787262666E+02  0.19999961800E+02 0.  0.
         12    1    1    2    0    0 -0.42738270989E+02 -0.18996911911E+01 -0.73113177622E+01  0.43400737334E+02  0.00000000000E+00 0. -1.
         11    1    3    3    0    0  0.13083158096E+02  0.79542358864E+01  0.13887959215E+01  0.15374252785E+02  0.51100000000E-03 0. -1.
        -11    1    3    3    0    0  0.16521954028E+02 -0.71081932447E+01  0.67515891160E+01  0.19211593686E+02  0.51100000000E-03 0.  1.
        -12    1    3    3    0    0  0.13133158864E+02  0.10536485494E+01 -0.82906727532E+00  0.13201416195E+02  0.00000000000E+00 0.  1.
</event>
<event>
 7    1  0.2455451E-009  0.4778732E+02  0.7816164E-02  0.1312668E+00
        -11   -1    0    0    0    0  0.00000000000E+00  0.00000000000E+00  0.45593999997E+02  0.45594000000E+02  0.51100000000E-03 0.  1.
         11   -1    0    0    0    0 -0.00000000000E+00 -0.00000000000E+00 -0.45593999997E+02  0.45594000000E+02  0.51100000000E-03 0. -1.
    9900012    2    1    2    0    0 -0.34892320308E+02  0.25732192650E+02  0.19997927349E+01  0.47787321134E+02  0.20000228375E+02 0.  0.
         12    1    1    2    0    0  0.34892320308E+02 -0.25732192650E+02 -0.19997927349E+01  0.43400678866E+02  0.00000000000E+00 0. -1.
         11    1    3    3    0    0 -0.13980548580E+01 -0.19992299506E+01  0.24292738435E+01  0.34427967482E+01  0.51100000000E-03 0. -1.
        -11    1    3    3    0    0 -0.50891344020E+01  0.89300056940E+01 -0.34220593623E-01  0.10278397831E+02  0.51100000000E-03 0.  1.
         12    1    3    3    0    0 -0.28405131048E+02  0.18801416906E+02 -0.39526051506E+00  0.34066126555E+02  0.00000000000E+00 0. -1.
</event>
<event>
 7    1  0.2455451E-009  0.4778727E+02  0.7816164E-02  0.1312668E+00
        -11   -1    0    0    0    0  0.00000000000E+00  0.00000000000E+00  0.45593999997E+02  0.45594000000E+02  0.51100000000E-03 0. -1.
         11   -1    0    0    0    0 -0.00000000000E+00 -0.00000000000E+00 -0.45593999997E+02  0.45594000000E+02  0.51100000000E-03 0.  1.
    9900012    2    1    2    0    0  0.30747117764E+02 -0.14622415541E+02 -0.26915104083E+02  0.47787272876E+02  0.20000008352E+02 0.  0.
         12    1    1    2    0    0 -0.30747117764E+02  0.14622415541E+02  0.26915104083E+02  0.43400727124E+02  0.00000000000E+00 0. -1.
         11    1    3    3    0    0  0.10160951590E+02 -0.36344289250E+01 -0.93483187267E+00  0.10831801407E+02  0.51100000000E-03 0. -1.
        -11    1    3    3    0    0  0.19470102241E+02 -0.11484155849E+02 -0.27105912928E+02  0.35294492952E+02  0.51100000000E-03 0.  1.
        -12    1    3    3    0    0  0.11160639336E+01  0.49616923262E+00  0.11256407175E+01  0.16609785177E+01  0.00000000000E+00 0.  1.
</event>
<event>
 7    1  0.2455451E-009  0.4778727E+02  0.7816164E-02  0.1312668E+00
        -11   -1    0    0    0    0  0.00000000000E+00  0.00000000000E+00  0.45593999997E+02  0.45594000000E+02  0.51100000000E-03 0. -1.
         11   -1    0    0    0    0 -0.00000000000E+00 -0.00000000000E+00 -0.45593999997E+02  0.45594000000E+02  0.51100000000E-03 0.  1.
    9900012    2    1    2    0    0 -0.24525321337E+02  0.31434759057E+02 -0.17146078657E+02  0.47787268705E+02  0.19999989335E+02 0.  0.
         12    1    1    2    0    0  0.24525321337E+02 -0.31434759057E+02  0.17146078657E+02  0.43400731295E+02  0.00000000000E+00 0. -1.
         11    1    3    3    0    0 -0.12993638874E+02  0.83201133283E+01 -0.40793300158E+01  0.15959319240E+02  0.51100000000E-03 0. -1.
        -11    1    3    3    0    0 -0.71487946062E+01  0.22737936189E+02 -0.13524840929E+02  0.27405115013E+02  0.51100000000E-03 0.  1.
        -12    1    3    3    0    0 -0.43828878567E+01  0.37670953921E+00  0.45809228842E+00  0.44228344515E+01  0.00000000000E+00 0.  1.
</event>
<event>
 7    1  0.2455451E-009  0.4778727E+02  0.7816164E-02  0.1312668E+00
        -11   -1    0    0    0    0  0.00000000000E+00  0.00000000000E+00  0.45593999997E+02  0.45594000000E+02  0.51100000000E-03 0.  1.
         11   -1    0    0    0    0 -0.00000000000E+00 -0.00000000000E+00 -0.45593999997E+02  0.45594000000E+02  0.51100000000E-03 0. -1.
    9900012    2    1    2    0    0 -0.22320944297E+02 -0.89465399776E+01  0.36129736972E+02  0.47787273906E+02  0.20000013045E+02 0.  0.
         12    1    1    2    0    0  0.22320944297E+02  0.89465399776E+01 -0.36129736972E+02  0.43400726094E+02  0.00000000000E+00 0. -1.
         11    1    3    3    0    0 -0.10498123931E+02  0.54271090503E+01  0.14503140995E+02  0.18708426383E+02  0.51100000000E-03 0. -1.
        -11    1    3    3    0    0 -0.12340511153E+02 -0.13342248676E+02  0.20975412904E+02  0.27753770230E+02  0.51100000000E-03 0.  1.
         12    1    3    3    0    0  0.51769078730E+00 -0.10314003523E+01  0.65118307198E+00  0.13250772925E+01  0.00000000000E+00 0. -1.
</event>
<event>
 7    1  0.2455451E-009  0.4778728E+02  0.7816164E-02  0.1312668E+00
        -11   -1    0    0    0    0  0.00000000000E+00  0.00000000000E+00  0.45593999997E+02  0.45594000000E+02  0.51100000000E-03 0. -1.
         11   -1    0    0    0    0 -0.00000000000E+00 -0.00000000000E+00 -0.45593999997E+02  0.45594000000E+02  0.51100000000E-03 0.  1.
    9900012    2    1    2    0    0  0.61762222662E+01  0.75380937092E+01 -0.42292481653E+02  0.47787279008E+02  0.20000036308E+02 0.  0.
         12    1    1    2    0    0 -0.61762222662E+01 -0.75380937092E+01  0.42292481653E+02  0.43400720992E+02  0.00000000000E+00 0. -1.
         11    1    3    3    0    0 -0.66454658648E+00  0.84863094896E+01 -0.67850606104E+01  0.10885592251E+02  0.51100000000E-03 0. -1.
        -11    1    3    3    0    0  0.55216919401E+01 -0.39232907798E+01 -0.25044103759E+02  0.25943947768E+02  0.51100000000E-03 0.  1.
        -12    1    3    3    0    0  0.13190769126E+01  0.29750749995E+01 -0.10463317284E+02  0.10957738988E+02  0.00000000000E+00 0.  1.
</event>
<event>
 7    1  0.2455451E-009  0.4778727E+02  0.7816164E-02  0.1312668E+00
        -11   -1    0    0    0    0  0.00000000000E+00  0.00000000000E+00  0.45593999997E+02  0.45594000000E+02  0.51100000000E-03 0.  1.
         11   -1    0    0    0    0 -0.00000000000E+00 -0.00000000000E+00 -0.45593999997E+02  0.45594000000E+02  0.51100000000E-03 0. -1.
    9900012    2    1    2    0    0 -0.14309482198E+02 -0.39063468487E+02  0.12365571508E+02  0.47787271784E+02  0.20000003371E+02 0.  0.
         12    1    1    2    0    0  0.14309482198E+02  0.39063468487E+02 -0.12365571508E+02  0.43400728216E+02  0.00000000000E+00 0. -1.
         11    1    3    3    0    0 -0.80911597363E+01 -0.17906293168E+02 -0.20944490557E+01  0.19760792444E+02  0.51100000000E-03 0. -1.
        -11    1    3    3    0    0 -0.41582609749E+01 -0.51626462586E+01  0.86216550492E+01  0.10875522368E+02  0.51100000000E-03 0.  1.
         12    1    3    3    0    0 -0.20600614867E+01 -0.15994529060E+02  0.58383655140E+01  0.17150956972E+02  0.00000000000E+00 0. -1.
</event>
<event>
 7    1  0.2455451E-009  0.4778729E+02  0.7816164E-02  0.1312668E+00
        -11   -1    0    0    0    0  0.00000000000E+00  0.00000000000E+00  0.45593999997E+02  0.45594000000E+02  0.51100000000E-03 0. -1.
         11   -1    0    0    0    0 -0.00000000000E+00 -0.00000000000E+00 -0.45593999997E+02  0.45594000000E+02  0.51100000000E-03 0.  1.
    9900012    2    1    2    0    0  0.30066199211E+02 -0.26423478183E+02 -0.16776334266E+02  0.47787286577E+02  0.20000070818E+02 0.  0.
         12    1    1    2    0    0 -0.30066199211E+02  0.26423478183E+02  0.16776334266E+02  0.43400713423E+02  0.00000000000E+00 0. -1.
         11    1    3    3    0    0  0.31260418469E+02 -0.22481232750E+02 -0.13481719958E+02  0.40796769015E+02  0.51100000000E-03 0. -1.
        -11    1    3    3    0    0 -0.34026606867E+00 -0.48485236784E+01 -0.22105314656E+01  0.53395142550E+01  0.51100000000E-03 0.  1.
         12    1    3    3    0    0 -0.85395318949E+00  0.90627824578E+00 -0.10840828422E+01  0.16510033063E+01  0.00000000000E+00 0. -1.
</event>
<event>
 7    1  0.2455451E-009  0.4778727E+02  0.7816164E-02  0.1312668E+00
        -11   -1    0    0    0    0  0.00000000000E+00  0.00000000000E+00  0.45593999997E+02  0.45594000000E+02  0.51100000000E-03 0.  1.
         11   -1    0    0    0    0 -0.00000000000E+00 -0.00000000000E+00 -0.45593999997E+02  0.45594000000E+02  0.51100000000E-03 0. -1.
    9900012    2    1    2    0    0  0.22439259534E+01  0.28630466102E+02  0.32540504532E+02  0.47787271572E+02  0.20000002404E+02 0.  0.
         12    1    1    2    0    0 -0.22439259534E+01 -0.28630466102E+02 -0.32540504532E+02  0.43400728428E+02  0.00000000000E+00 0. -1.
         11    1    3    3    0    0  0.44290879714E+01  0.88923693374E+00  0.79786194457E+01  0.91687475209E+01  0.51100000000E-03 0. -1.
        -11    1    3    3    0    0  0.17012626583E+00  0.24321141146E+02  0.24416710089E+02  0.34463351280E+02  0.51100000000E-03 0.  1.
        -12    1    3    3    0    0 -0.23552882838E+01  0.34200880221E+01  0.14517499778E+00  0.41551727712E+01  0.00000000000E+00 0.  1.
</event>
<event>
 7    1  0.2455451E-009  0.4778727E+02  0.7816164E-02  0.1312668E+00
        -11   -1    0    0    0    0  0.00000000000E+00  0.00000000000E+00  0.45593999997E+02  0.45594000000E+02  0.51100000000E-03 0.  1.
         11   -1    0    0    0    0 -0.00000000000E+00 -0.00000000000E+00 -0.45593999997E+02  0.45594000000E+02  0.51100000000E-03 0. -1.
    9900012    2    1    2    0    0  0.36185179668E+02  0.23439625648E+02  0.49839791686E+01  0.47787270439E+02  0.19999997237E+02 0.  0.
         12    1    1    2    0    0 -0.36185179668E+02 -0.23439625648E+02 -0.49839791686E+01  0.43400729561E+02  0.00000000000E+00 0. -1.
         11    1    3    3    0    0  0.49837818677E+01  0.32901884387E+01 -0.56322713526E+01  0.82088916741E+01  0.51100000000E-03 0. -1.
        -11    1    3    3    0    0  0.18816683663E+02  0.70318650964E+01  0.55700028934E+01  0.20845614486E+02  0.51100000000E-03 0.  1.
         12    1    3    3    0    0  0.12384714138E+02  0.13117572112E+02  0.50462476277E+01  0.18732764279E+02  0.00000000000E+00 0. -1.
</event>
<event>
 7    1  0.2455451E-009  0.4778728E+02  0.7816164E-02  0.1312668E+00
        -11   -1    0    0    0    0  0.00000000000E+00  0.00000000000E+00  0.45593999997E+02  0.45594000000E+02  0.51100000000E-03 0. -1.
         11   -1    0    0    0    0 -0.00000000000E+00 -0.00000000000E+00 -0.45593999997E+02  0.45594000000E+02  0.51100000000E-03 0.  1.
    9900012    2    1    2    0    0  0.83137763792E+01  0.23618506799E+02 -0.35449536384E+02  0.47787281447E+02  0.20000047429E+02 0.  0.
         12    1    1    2    0    0 -0.83137763792E+01 -0.23618506799E+02  0.35449536384E+02  0.43400718553E+02  0.00000000000E+00 0. -1.
         11    1    3    3    0    0 -0.25705508965E+01  0.21032079165E+01 -0.45550596180E+01  0.56373561034E+01  0.51100000000E-03 0. -1.
        -11    1    3    3    0    0  0.62898989687E+01  0.22153242145E+02 -0.29252159066E+02  0.37229259687E+02  0.51100000000E-03 0.  1.
        -12    1    3    3    0    0  0.45944283071E+01 -0.63794326264E+00 -0.16423177004E+01  0.49206656566E+01  0.00000000000E+00 0.  1.
</event>
<event>
 7    1  0.2455451E-009  0.4778726E+02  0.7816164E-02  0.1312668E+00
        -11   -1    0    0    0    0  0.00000000000E+00  0.00000000000E+00  0.45593999997E+02  0.45594000000E+02  0.51100000000E-03 0.  1.
         11   -1    0    0    0    0 -0.00000000000E+00 -0.00000000000E+00 -0.45593999997E+02  0.45594000000E+02  0.51100000000E-03 0. -1.
    9900012    2    1    2    0    0  0.10581886080E+02  0.22584271270E+02  0.35518983598E+02  0.47787264780E+02  0.19999971438E+02 0.  0.
         12    1    1    2    0    0 -0.10581886080E+02 -0.22584271270E+02 -0.35518983598E+02  0.43400735220E+02  0.00000000000E+00 0. -1.
         11    1    3    3    0    0 -0.74094707002E+00 -0.20866170318E+01  0.30513427991E+01  0.37701016348E+01  0.51100000000E-03 0. -1.
        -11    1    3    3    0    0  0.11650796600E+02  0.25852659121E+02  0.30117320305E+02  0.41366097564E+02  0.51100000000E-03 0.  1.
        -12    1    3    3    0    0 -0.32796345024E+00 -0.11817708189E+01  0.23503204936E+01  0.26510655812E+01  0.00000000000E+00 0.  1.
</event>
<event>
 7    1  0.2455451E-009  0.4778727E+02  0.7816164E-02  0.1312668E+00
        -11   -1    0    0    0    0  0.00000000000E+00  0.00000000000E+00  0.45593999997E+02  0.45594000000E+02  0.51100000000E-03 0.  1.
         11   -1    0    0    0    0 -0.00000000000E+00 -0.00000000000E+00 -0.45593999997E+02  0.45594000000E+02  0.51100000000E-03 0. -1.
    9900012    2    1    2    0    0  0.11054265507E+02  0.28203103002E+02  0.31080722361E+02  0.47787272963E+02  0.20000008748E+02 0.  0.
         12    1    1    2    0    0 -0.11054265507E+02 -0.28203103002E+02 -0.31080722361E+02  0.43400727037E+02  0.00000000000E+00 0. -1.
         11    1    3    3    0    0 -0.36720267796E+01  0.57972613592E+01  0.10225018897E+02  0.12314342517E+02  0.51100000000E-03 0. -1.
        -11    1    3    3    0    0  0.77017245566E+01  0.71915026929E+01  0.29362735032E+01  0.10938737335E+02  0.51100000000E-03 0.  1.
        -12    1    3    3    0    0  0.70245677296E+01  0.15214338950E+02  0.17919429961E+02  0.24534193111E+02  0.00000000000E+00 0.  1.
</event>
<event>
 7    1  0.2455451E-009  0.4778730E+02  0.7816164E-02  0.1312668E+00
        -11   -1    0    0    0    0  0.00000000000E+00  0.00000000000E+00  0.45593999997E+02  0.45594000000E+02  0.51100000000E-03 0.  1.
         11   -1    0    0    0    0 -0.00000000000E+00 -0.00000000000E+00 -0.45593999997E+02  0.45594000000E+02  0.51100000000E-03 0. -1.
    9900012    2    1    2    0    0 -0.11674317229E+02  0.14771122199E+02  0.39104284813E+02  0.47787299262E+02  0.20000128654E+02 0.  0.
         12    1    1    2    0    0  0.11674317229E+02 -0.14771122199E+02 -0.39104284813E+02  0.43400700738E+02  0.00000000000E+00 0. -1.
         11    1    3    3    0    0 -0.47553125045E+00  0.31323449014E+01  0.21444828045E+02  0.21677600529E+02  0.51100000000E-03 0. -1.
        -11    1    3    3    0    0 -0.11695106325E+02  0.10631248413E+02  0.18764718947E+02  0.24533928185E+02  0.51100000000E-03 0.  1.
        -12    1    3    3    0    0  0.49632034617E+00  0.10075288849E+01 -0.11052621779E+01  0.15757705486E+01  0.00000000000E+00 0.  1.
</event>
<event>
 7    1  0.2455451E-009  0.4778726E+02  0.7816164E-02  0.1312668E+00
        -11   -1    0    0    0    0  0.00000000000E+00  0.00000000000E+00  0.45593999997E+02  0.45594000000E+02  0.51100000000E-03 0.  1.
         11   -1    0    0    0    0 -0.00000000000E+00 -0.00000000000E+00 -0.45593999997E+02  0.45594000000E+02  0.51100000000E-03 0. -1.
    9900012    2    1    2    0    0  0.10027517379E+01 -0.16102412129E+02  0.40290582158E+02  0.47787260397E+02  0.19999951454E+02 0.  0.
         12    1    1    2    0    0 -0.10027517379E+01  0.16102412129E+02 -0.40290582158E+02  0.43400739603E+02  0.00000000000E+00 0. -1.
         11    1    3    3    0    0 -0.83340634848E+01 -0.75075752625E+01  0.13791127977E+02  0.17776825128E+02  0.51100000000E-03 0. -1.
        -11    1    3    3    0    0  0.45693212690E+01 -0.59041905740E+01  0.20838303758E+02  0.22135335258E+02  0.51100000000E-03 0.  1.
         12    1    3    3    0    0  0.47674939537E+01 -0.26906462927E+01  0.56611504230E+01  0.78751000110E+01  0.00000000000E+00 0. -1.
</event>
<event>
 7    1  0.2455451E-009  0.4778727E+02  0.7816164E-02  0.1312668E+00
        -11   -1    0    0    0    0  0.00000000000E+00  0.00000000000E+00  0.45593999997E+02  0.45594000000E+02  0.51100000000E-03 0.  1.
         11   -1    0    0    0    0 -0.00000000000E+00 -0.00000000000E+00 -0.45593999997E+02  0.45594000000E+02  0.51100000000E-03 0. -1.
    9900012    2    1    2    0    0 -0.20066026771E+02  0.18174353555E+02  0.33921537205E+02  0.47787271391E+02  0.20000001578E+02 0.  0.
         12    1    1    2    0    0  0.20066026771E+02 -0.18174353555E+02 -0.33921537205E+02  0.43400728609E+02  0.00000000000E+00 0. -1.
         11    1    3    3    0    0 -0.10868539416E+02  0.45693410181E+01  0.83415931013E+01  0.14442513705E+02  0.51100000000E-03 0. -1.
        -11    1    3    3    0    0 -0.72569471680E+01  0.12454262083E+02  0.27050801440E+02  0.30651554366E+02  0.51100000000E-03 0.  1.
         12    1    3    3    0    0 -0.19405401863E+01  0.11507504535E+01 -0.14708573361E+01  0.26932033202E+01  0.00000000000E+00 0. -1.
</event>
<event>
 7    1  0.2455451E-009  0.4778728E+02  0.7816164E-02  0.1312668E+00
        -11   -1    0    0    0    0  0.00000000000E+00  0.00000000000E+00  0.45593999997E+02  0.45594000000E+02  0.51100000000E-03 0.  1.
         11   -1    0    0    0    0 -0.00000000000E+00 -0.00000000000E+00 -0.45593999997E+02  0.45594000000E+02  0.51100000000E-03 0. -1.
    9900012    2    1    2    0    0  0.14658949419E+02 -0.36366537775E+02  0.18606790971E+02  0.47787279521E+02  0.20000038650E+02 0.  0.
         12    1    1    2    0    0 -0.14658949419E+02  0.36366537775E+02 -0.18606790971E+02  0.43400720479E+02  0.00000000000E+00 0. -1.
         11    1    3    3    0    0 -0.28778919177E+01 -0.14310546708E+01 -0.13418583447E+01  0.34829245526E+01  0.51100000000E-03 0. -1.
        -11    1    3    3    0    0  0.15164676700E+02 -0.25560170543E+02  0.13248883184E+02  0.32539555059E+02  0.51100000000E-03 0.  1.
         12    1    3    3    0    0  0.23721646370E+01 -0.93753125621E+01  0.66997661310E+01  0.11764799910E+02  0.00000000000E+00 0. -1.
</event>
<event>
 7    1  0.2455451E-009  0.4778727E+02  0.7816164E-02  0.1312668E+00
        -11   -1    0    0    0    0  0.00000000000E+00  0.00000000000E+00  0.45593999997E+02  0.45594000000E+02  0.51100000000E-03 0.  1.
         11   -1    0    0    0    0 -0.00000000000E+00 -0.00000000000E+00 -0.45593999997E+02  0.45594000000E+02  0.51100000000E-03 0. -1.
    9900012    2    1    2    0    0  0.36592005339E+02  0.20661565959E+02  0.10851179350E+02  0.47787271251E+02  0.20000000944E+02 0.  0.
         12    1    1    2    0    0 -0.36592005339E+02 -0.20661565959E+02 -0.10851179350E+02  0.43400728749E+02  0.00000000000E+00 0. -1.
         11    1    3    3    0    0  0.33629032274E+02  0.16955916157E+02  0.81821868118E+01  0.38540408479E+02  0.51100000000E-03 0. -1.
        -11    1    3    3    0    0  0.25309072099E+01  0.53111068936E+01 -0.24887317358E+00  0.58885724805E+01  0.51100000000E-03 0.  1.
         12    1    3    3    0    0  0.43206585511E+00 -0.16054570914E+01  0.29178657116E+01  0.33582902922E+01  0.00000000000E+00 0. -1.
</event>
<event>
 7    1  0.2455451E-009  0.4778728E+02  0.7816164E-02  0.1312668E+00
        -11   -1    0    0    0    0  0.00000000000E+00  0.00000000000E+00  0.45593999997E+02  0.45594000000E+02  0.51100000000E-03 0. -1.
         11   -1    0    0    0    0 -0.00000000000E+00 -0.00000000000E+00 -0.45593999997E+02  0.45594000000E+02  0.51100000000E-03 0.  1.
    9900012    2    1    2    0    0 -0.61307422698E+00  0.37577747377E+02 -0.21706218408E+02  0.47787275634E+02  0.20000020924E+02 0.  0.
         12    1    1    2    0    0  0.61307422698E+00 -0.37577747377E+02  0.21706218408E+02  0.43400724366E+02  0.00000000000E+00 0. -1.
         11    1    3    3    0    0  0.55437499956E+01  0.11095104217E+02 -0.25549132575E+01  0.12663415164E+02  0.51100000000E-03 0. -1.
        -11    1    3    3    0    0 -0.91678110330E+01  0.23264155518E+02 -0.16840048704E+02  0.30147254132E+02  0.51100000000E-03 0.  1.
        -12    1    3    3    0    0  0.30109868105E+01  0.32184876425E+01 -0.23112564462E+01  0.49766063375E+01  0.00000000000E+00 0.  1.
</event>
<event>
 7    1  0.2455451E-009  0.4778727E+02  0.7816164E-02  0.1312668E+00
        -11   -1    0    0    0    0  0.00000000000E+00  0.00000000000E+00  0.45593999997E+02  0.45594000000E+02  0.51100000000E-03 0.  1.
         11   -1    0    0    0    0 -0.00000000000E+00 -0.00000000000E+00 -0.45593999997E+02  0.45594000000E+02  0.51100000000E-03 0. -1.
    9900012    2    1    2    0    0 -0.33764872685E+02 -0.11284543309E+02  0.24823690404E+02  0.47787272467E+02  0.20000006485E+02 0.  0.
         12    1    1    2    0    0  0.33764872685E+02  0.11284543309E+02 -0.24823690404E+02  0.43400727533E+02  0.00000000000E+00 0. -1.
         11    1    3    3    0    0 -0.30668864378E+01  0.31466036389E+01  0.15752140963E+01  0.46677839060E+01  0.51100000000E-03 0. -1.
        -11    1    3    3    0    0 -0.30858930882E+02 -0.12547615744E+02  0.18719283494E+02  0.38211619317E+02  0.51100000000E-03 0.  1.
        -12    1    3    3    0    0  0.16094463414E+00 -0.18835312033E+01  0.45291928144E+01  0.49078692442E+01  0.00000000000E+00 0.  1.
</event>
<event>
 7    1  0.2455451E-009  0.4778729E+02  0.7816164E-02  0.1312668E+00
        -11   -1    0    0    0    0  0.00000000000E+00  0.00000000000E+00  0.45593999997E+02  0.45594000000E+02  0.51100000000E-03 0. -1.
         11   -1    0    0    0    0 -0.00000000000E+00 -0.00000000000E+00 -0.45593999997E+02  0.45594000000E+02  0.51100000000E-03 0.  1.
    9900012    2    1    2    0    0  0.45387001459E+01  0.59247825890E+01 -0.42754162714E+02  0.47787294048E+02  0.20000104884E+02 0.  0.
         12    1    1    2    0    0 -0.45387001459E+01 -0.59247825890E+01  0.42754162714E+02  0.43400705952E+02  0.00000000000E+00 0. -1.
         11    1    3    3    0    0 -0.11341265508E+01  0.37438512938E+01 -0.73949824482E+01  0.83659088696E+01  0.51100000000E-03 0. -1.
        -11    1    3    3    0    0 -0.37325948223E+01 -0.42310265725E+01 -0.15974179760E+02  0.16941318403E+02  0.51100000000E-03 0.  1.
        -12    1    3    3    0    0  0.94054215190E+01  0.64119578677E+01 -0.19385000506E+02  0.22480066776E+02  0.00000000000E+00 0.  1.
</event>
<event>
 7    1  0.2455451E-009  0.4778727E+02  0.7816164E-02  0.1312668E+00
        -11   -1    0    0    0    0  0.00000000000E+00  0.00000000000E+00  0.45593999997E+02  0.45594000000E+02  0.51100000000E-03 0. -1.
         11   -1    0    0    0    0 -0.00000000000E+00 -0.00000000000E+00 -0.45593999997E+02  0.45594000000E+02  0.51100000000E-03 0.  1.
    9900012    2    1    2    0    0  0.21014982096E+02 -0.32026996366E+02 -0.20402578570E+02  0.47787272114E+02  0.20000004877E+02 0.  0.
         12    1    1    2    0    0 -0.21014982096E+02  0.32026996366E+02  0.20402578570E+02  0.43400727886E+02  0.00000000000E+00 0. -1.
         11    1    3    3    0    0  0.15748508937E+01 -0.10929995447E+02 -0.36614060071E+01  0.11634038422E+02  0.51100000000E-03 0. -1.
        -11    1    3    3    0    0  0.20207600685E+02 -0.14467033362E+02 -0.15705640660E+02  0.29399138228E+02  0.51100000000E-03 0.  1.
        -12    1    3    3    0    0 -0.76746948289E+00 -0.66299675570E+01 -0.10355319032E+01  0.67540954640E+01  0.00000000000E+00 0.  1.
</event>
<event>
 7    1  0.2455451E-009  0.4778727E+02  0.7816164E-02  0.1312668E+00
        -11   -1    0    0    0    0  0.00000000000E+00  0.00000000000E+00  0.45593999997E+02  0.45594000000E+02  0.51100000000E-03 0. -1.
         11   -1    0    0    0    0 -0.00000000000E+00 -0.00000000000E+00 -0.45593999997E+02  0.45594000000E+02  0.51100000000E-03 0.  1.
    9900012    2    1    2    0    0  0.29715795927E+02  0.30887315937E+02 -0.68241021134E+01  0.47787272091E+02  0.20000004771E+02 0.  0.
         12    1    1    2    0    0 -0.29715795927E+02 -0.30887315937E+02  0.68241021134E+01  0.43400727909E+02  0.00000000000E+00 0. -1.
         11    1    3    3    0    0  0.84115268391E+01  0.18102115357E+02 -0.51417449838E+01  0.20612566698E+02  0.51100000000E-03 0. -1.
        -11    1    3    3    0    0  0.20456209327E+02  0.14453928229E+02 -0.24172019670E+01  0.25163771715E+02  0.51100000000E-03 0.  1.
        -12    1    3    3    0    0  0.84805976069E+00 -0.16687276485E+01  0.73484483739E+00  0.20109336780E+01  0.00000000000E+00 0.  1.
</event>
<event>
 7    1  0.2455451E-009  0.4778727E+02  0.7816164E-02  0.1312668E+00
        -11   -1    0    0    0    0  0.00000000000E+00  0.00000000000E+00  0.45593999997E+02  0.45594000000E+02  0.51100000000E-03 0.  1.
         11   -1    0    0    0    0 -0.00000000000E+00 -0.00000000000E+00 -0.45593999997E+02  0.45594000000E+02  0.51100000000E-03 0. -1.
    9900012    2    1    2    0    0  0.86589327787E+01  0.53588251260E+01  0.42189207736E+02  0.47787269903E+02  0.19999994794E+02 0.  0.
         12    1    1    2    0    0 -0.86589327787E+01 -0.53588251260E+01 -0.42189207736E+02  0.43400730097E+02  0.00000000000E+00 0. -1.
         11    1    3    3    0    0  0.89472977155E+01  0.55522476680E+01  0.11513659792E+02  0.15602754649E+02  0.51100000000E-03 0. -1.
        -11    1    3    3    0    0 -0.33497500187E+00 -0.49165000892E+01  0.17815986652E+02  0.18484955018E+02  0.51100000000E-03 0.  1.
        -12    1    3    3    0    0  0.46610065041E-01  0.47230775473E+01  0.12859561292E+02  0.13699560235E+02  0.00000000000E+00 0.  1.
</event>
<event>
 7    1  0.2455451E-009  0.4778727E+02  0.7816164E-02  0.1312668E+00
        -11   -1    0    0    0    0  0.00000000000E+00  0.00000000000E+00  0.45593999997E+02  0.45594000000E+02  0.51100000000E-03 0.  1.
         11   -1    0    0    0    0 -0.00000000000E+00 -0.00000000000E+00 -0.45593999997E+02  0.45594000000E+02  0.51100000000E-03 0. -1.
    9900012    2    1    2    0    0  0.28966368580E+02  0.31623412642E+02  0.66732828252E+01  0.47787269136E+02  0.19999991300E+02 0.  0.
         12    1    1    2    0    0 -0.28966368580E+02 -0.31623412642E+02 -0.66732828252E+01  0.43400730864E+02  0.00000000000E+00 0. -1.
         11    1    3    3    0    0  0.60551726312E+01  0.16622349346E+02 -0.33080617159E+01  0.17997524439E+02  0.51100000000E-03 0. -1.
        -11    1    3    3    0    0  0.17292078285E+02  0.85749270280E+01  0.51317245297E+01  0.19971978917E+02  0.51100000000E-03 0.  1.
         12    1    3    3    0    0  0.56191176639E+01  0.64261362684E+01  0.48496200114E+01  0.98177657803E+01  0.00000000000E+00 0. -1.
</event>
<event>
 7    1  0.2561136E-009  0.4778727E+02  0.7816164E-02  0.1312668E+00
        -11   -1    0    0    0    0  0.00000000000E+00  0.00000000000E+00  0.45593999997E+02  0.45594000000E+02  0.51100000000E-03 0.  1.
         11   -1    0    0    0    0 -0.00000000000E+00 -0.00000000000E+00 -0.45593999997E+02  0.45594000000E+02  0.51100000000E-03 0. -1.
    9900012    2    1    2    0    0 -0.11556993281E+02  0.31060485598E+02  0.28023297327E+02  0.47787273597E+02  0.20000011637E+02 0.  0.
         12    1    1    2    0    0  0.11556993281E+02 -0.31060485598E+02 -0.28023297327E+02  0.43400726403E+02  0.00000000000E+00 0. -1.
         11    1    3    3    0    0  0.40182577983E+01  0.11235823267E+02  0.35912900533E+01  0.12461439914E+02  0.51100000000E-03 0. -1.
        -11    1    3    3    0    0 -0.11747740358E+02  0.16606856068E+02  0.17875230821E+02  0.27079899356E+02  0.51100000000E-03 0.  1.
         12    1    3    3    0    0 -0.38275107213E+01  0.32178062630E+01  0.65567764528E+01  0.82459343267E+01  0.00000000000E+00 0. -1.
</event>
<event>
 7    1  0.2455451E-009  0.4778727E+02  0.7816164E-02  0.1312668E+00
        -11   -1    0    0    0    0  0.00000000000E+00  0.00000000000E+00  0.45593999997E+02  0.45594000000E+02  0.51100000000E-03 0. -1.
         11   -1    0    0    0    0 -0.00000000000E+00 -0.00000000000E+00 -0.45593999997E+02  0.45594000000E+02  0.51100000000E-03 0.  1.
    9900012    2    1    2    0    0  0.32937669526E+02 -0.53641793876E+01 -0.27748127710E+02  0.47787273212E+02  0.20000009882E+02 0.  0.
         12    1    1    2    0    0 -0.32937669526E+02  0.53641793876E+01  0.27748127710E+02  0.43400726788E+02  0.00000000000E+00 0. -1.
         11    1    3    3    0    0 -0.14922444998E+01 -0.13065290892E+01  0.98014763082E+00  0.22123520397E+01  0.51100000000E-03 0. -1.
        -11    1    3    3    0    0  0.77927070216E+01 -0.34842840499E+01 -0.49724195701E+01  0.98788397450E+01  0.51100000000E-03 0.  1.
         12    1    3    3    0    0  0.26637207004E+02 -0.57336624844E+00 -0.23755855771E+02  0.35696081427E+02  0.00000000000E+00 0. -1.
</event>
<event>
 7    1  0.2455451E-009  0.4778729E+02  0.7816164E-02  0.1312668E+00
        -11   -1    0    0    0    0  0.00000000000E+00  0.00000000000E+00  0.45593999997E+02  0.45594000000E+02  0.51100000000E-03 0.  1.
         11   -1    0    0    0    0 -0.00000000000E+00 -0.00000000000E+00 -0.45593999997E+02  0.45594000000E+02  0.51100000000E-03 0. -1.
    9900012    2    1    2    0    0  0.12590059900E+02 -0.11741103755E+01  0.41517865050E+02  0.47787294225E+02  0.20000105689E+02 0.  0.
         12    1    1    2    0    0 -0.12590059900E+02  0.11741103755E+01 -0.41517865050E+02  0.43400705775E+02  0.00000000000E+00 0. -1.
         11    1    3    3    0    0  0.14337010349E+02  0.53248816606E+01  0.29815484866E+02  0.33509213188E+02  0.51100000000E-03 0. -1.
        -11    1    3    3    0    0 -0.31239541360E+01 -0.52139321732E+01  0.10179010225E+02  0.11855649605E+02  0.51100000000E-03 0.  1.
        -12    1    3    3    0    0  0.13770036872E+01 -0.12850598628E+01  0.15233699594E+01  0.24224314312E+01  0.00000000000E+00 0.  1.
</event>
<event>
 7    1  0.2455451E-009  0.4778727E+02  0.7816164E-02  0.1312668E+00
        -11   -1    0    0    0    0  0.00000000000E+00  0.00000000000E+00  0.45593999997E+02  0.45594000000E+02  0.51100000000E-03 0. -1.
         11   -1    0    0    0    0 -0.00000000000E+00 -0.00000000000E+00 -0.45593999997E+02  0.45594000000E+02  0.51100000000E-03 0.  1.
    9900012    2    1    2    0    0 -0.32163784155E+02  0.29127705638E+02 -0.83147057633E+00  0.47787267400E+02  0.19999983383E+02 0.  0.
         12    1    1    2    0    0  0.32163784155E+02 -0.29127705638E+02  0.83147057633E+00  0.43400732600E+02  0.00000000000E+00 0. -1.
         11    1    3    3    0    0 -0.22064043609E+01  0.20562705829E+01 -0.41714165884E+01  0.51475416976E+01  0.51100000000E-03 0. -1.
        -11    1    3    3    0    0 -0.19079246808E+02  0.13001092652E+02  0.76820650506E+01  0.24332287040E+02  0.51100000000E-03 0.  1.
        -12    1    3    3    0    0 -0.10878132986E+02  0.14070342404E+02 -0.43421190385E+01  0.18307438662E+02  0.00000000000E+00 0.  1.
</event>
<event>
 7    1  0.2455451E-009  0.4778727E+02  0.7816164E-02  0.1312668E+00
        -11   -1    0    0    0    0  0.00000000000E+00  0.00000000000E+00  0.45593999997E+02  0.45594000000E+02  0.51100000000E-03 0.  1.
         11   -1    0    0    0    0 -0.00000000000E+00 -0.00000000000E+00 -0.45593999997E+02  0.45594000000E+02  0.51100000000E-03 0. -1.
    9900012    2    1    2    0    0  0.32357744856E+02 -0.18841733702E+02 -0.21945132282E+02  0.47787269454E+02  0.19999992748E+02 0.  0.
         12    1    1    2    0    0 -0.32357744856E+02  0.18841733702E+02  0.21945132282E+02  0.43400730546E+02  0.00000000000E+00 0. -1.
         11    1    3    3    0    0  0.21746305568E+01 -0.48109764661E+01 -0.26009876512E+01  0.58855458234E+01  0.51100000000E-03 0. -1.
        -11    1    3    3    0    0  0.25851555086E+02 -0.17694951203E+02 -0.17758446226E+02  0.36010784650E+02  0.51100000000E-03 0.  1.
        -12    1    3    3    0    0  0.43315592133E+01  0.36641939672E+01 -0.15856984044E+01  0.58909389809E+01  0.00000000000E+00 0.  1.
</event>
<event>
 7    1  0.2455451E-009  0.4778727E+02  0.7816164E-02  0.1312668E+00
        -11   -1    0    0    0    0  0.00000000000E+00  0.00000000000E+00  0.45593999997E+02  0.45594000000E+02  0.51100000000E-03 0. -1.
         11   -1    0    0    0    0 -0.00000000000E+00 -0.00000000000E+00 -0.45593999997E+02  0.45594000000E+02  0.51100000000E-03 0.  1.
    9900012    2    1    2    0    0 -0.40620472573E+02  0.73064369743E+01 -0.13424480681E+02  0.47787268498E+02  0.19999988391E+02 0.  0.
         12    1    1    2    0    0  0.40620472573E+02 -0.73064369743E+01  0.13424480681E+02  0.43400731502E+02  0.00000000000E+00 0. -1.
         11    1    3    3    0    0 -0.27070174070E+02  0.95308332280E+01 -0.14475862796E+01  0.28735459149E+02  0.51100000000E-03 0. -1.
        -11    1    3    3    0    0 -0.11439359743E+02 -0.25110605986E+01 -0.70149323963E+01  0.13651873624E+02  0.51100000000E-03 0.  1.
         12    1    3    3    0    0 -0.21109387596E+01  0.28666434500E+00 -0.49619620053E+01  0.53999357251E+01  0.00000000000E+00 0. -1.
</event>
<event>
 7    1  0.2455451E-009  0.4778722E+02  0.7816164E-02  0.1312668E+00
        -11   -1    0    0    0    0  0.00000000000E+00  0.00000000000E+00  0.45593999997E+02  0.45594000000E+02  0.51100000000E-03 0.  1.
         11   -1    0    0    0    0 -0.00000000000E+00 -0.00000000000E+00 -0.45593999997E+02  0.45594000000E+02  0.51100000000E-03 0. -1.
    9900012    2    1    2    0    0  0.15616302794E+02  0.31835616637E+02  0.25025026651E+02  0.47787223988E+02  0.19999785448E+02 0.  0.
         12    1    1    2    0    0 -0.15616302794E+02 -0.31835616637E+02 -0.25025026651E+02  0.43400776012E+02  0.00000000000E+00 0. -1.
         11    1    3    3    0    0 -0.25707366368E+01  0.36035572446E+01  0.63049999807E+00  0.44712237899E+01  0.51100000000E-03 0. -1.
        -11    1    3    3    0    0  0.15794050191E+02  0.27418565913E+02  0.17916779854E+02  0.36362628876E+02  0.51100000000E-03 0.  1.
        -12    1    3    3    0    0  0.23929892393E+01  0.81349347901E+00  0.64777467995E+01  0.69533713218E+01  0.00000000000E+00 0.  1.
</event>
<event>
 7    1  0.2455451E-009  0.4778727E+02  0.7816164E-02  0.1312668E+00
        -11   -1    0    0    0    0  0.00000000000E+00  0.00000000000E+00  0.45593999997E+02  0.45594000000E+02  0.51100000000E-03 0.  1.
         11   -1    0    0    0    0 -0.00000000000E+00 -0.00000000000E+00 -0.45593999997E+02  0.45594000000E+02  0.51100000000E-03 0. -1.
    9900012    2    1    2    0    0 -0.30267914811E+02 -0.56960427326E+01  0.30578287752E+02  0.47787271301E+02  0.20000001168E+02 0.  0.
         12    1    1    2    0    0  0.30267914811E+02  0.56960427326E+01 -0.30578287752E+02  0.43400728699E+02  0.00000000000E+00 0. -1.
         11    1    3    3    0    0 -0.16790838592E+02 -0.74185012374E+01  0.26939981926E+02  0.32599525267E+02  0.51100000000E-03 0. -1.
        -11    1    3    3    0    0 -0.32873423388E+01 -0.16251964085E+01  0.24189914961E+01  0.43931085962E+01  0.51100000000E-03 0.  1.
         12    1    3    3    0    0 -0.10189733880E+02  0.33476549134E+01  0.12193143302E+01  0.10794637437E+02  0.00000000000E+00 0. -1.
</event>
<event>
 7    1  0.2455451E-009  0.4778727E+02  0.7816164E-02  0.1312668E+00
        -11   -1    0    0    0    0  0.00000000000E+00  0.00000000000E+00  0.45593999997E+02  0.45594000000E+02  0.51100000000E-03 0.  1.
         11   -1    0    0    0    0 -0.00000000000E+00 -0.00000000000E+00 -0.45593999997E+02  0.45594000000E+02  0.51100000000E-03 0. -1.
    9900012    2    1    2    0    0 -0.42262624235E+02  0.15798048414E+01 -0.97467010896E+01  0.47787269906E+02  0.19999994810E+02 0.  0.
         12    1    1    2    0    0  0.42262624235E+02 -0.15798048414E+01  0.97467010896E+01  0.43400730094E+02  0.00000000000E+00 0. -1.
         11    1    3    3    0    0 -0.21699960612E+02  0.42807879204E+01 -0.14092040158E+02  0.26225922898E+02  0.51100000000E-03 0. -1.
        -11    1    3    3    0    0 -0.17948444032E+02 -0.16879579273E+01  0.49465794723E+01  0.18693969452E+02  0.51100000000E-03 0.  1.
         12    1    3    3    0    0 -0.26142195900E+01 -0.10130251517E+01 -0.60124040411E+00  0.28673775556E+01  0.00000000000E+00 0. -1.
</event>
<event>
 7    1  0.2455451E-009  0.4778727E+02  0.7816164E-02  0.1312668E+00
        -11   -1    0    0    0    0  0.00000000000E+00  0.00000000000E+00  0.45593999997E+02  0.45594000000E+02  0.51100000000E-03 0.  1.
         11   -1    0    0    0    0 -0.00000000000E+00 -0.00000000000E+00 -0.45593999997E+02  0.45594000000E+02  0.51100000000E-03 0. -1.
    9900012    2    1    2    0    0 -0.10881797366E+02 -0.40311530356E+02  0.11840202365E+02  0.47787269757E+02  0.19999994130E+02 0.  0.
         12    1    1    2    0    0  0.10881797366E+02  0.40311530356E+02 -0.11840202365E+02  0.43400730243E+02  0.00000000000E+00 0. -1.
         11    1    3    3    0    0 -0.76413384189E+01 -0.71142312993E+01 -0.27390023085E+01  0.10793723811E+02  0.51100000000E-03 0. -1.
        -11    1    3    3    0    0 -0.20325167622E+01 -0.24947191202E+02  0.77102208739E+01  0.26190474975E+02  0.51100000000E-03 0.  1.
         12    1    3    3    0    0 -0.12079421854E+01 -0.82501078555E+01  0.68689837996E+01  0.10803070970E+02  0.00000000000E+00 0. -1.
</event>
<event>
 7    1  0.2455451E-009  0.4778727E+02  0.7816164E-02  0.1312668E+00
        -11   -1    0    0    0    0  0.00000000000E+00  0.00000000000E+00  0.45593999997E+02  0.45594000000E+02  0.51100000000E-03 0. -1.
         11   -1    0    0    0    0 -0.00000000000E+00 -0.00000000000E+00 -0.45593999997E+02  0.45594000000E+02  0.51100000000E-03 0.  1.
    9900012    2    1    2    0    0  0.89933768780E+01  0.16285539968E+02 -0.39211268119E+02  0.47787272043E+02  0.20000004551E+02 0.  0.
         12    1    1    2    0    0 -0.89933768780E+01 -0.16285539968E+02  0.39211268119E+02  0.43400727957E+02  0.00000000000E+00 0. -1.
         11    1    3    3    0    0  0.91616073828E+00  0.35385147597E+01 -0.18125332269E+02  0.18490216530E+02  0.51100000000E-03 0. -1.
        -11    1    3    3    0    0  0.79430129775E+01  0.58177501216E+01 -0.19986270664E+02  0.22279782022E+02  0.51100000000E-03 0.  1.
         12    1    3    3    0    0  0.13420316221E+00  0.69292750868E+01 -0.10996651861E+01  0.70172734904E+01  0.00000000000E+00 0. -1.
</event>
<event>
 7    1  0.2455451E-009  0.4778727E+02  0.7816164E-02  0.1312668E+00
        -11   -1    0    0    0    0  0.00000000000E+00  0.00000000000E+00  0.45593999997E+02  0.45594000000E+02  0.51100000000E-03 0.  1.
         11   -1    0    0    0    0 -0.00000000000E+00 -0.00000000000E+00 -0.45593999997E+02  0.45594000000E+02  0.51100000000E-03 0. -1.
    9900012    2    1    2    0    0 -0.10221029430E+02 -0.16947404438E+02  0.38625633728E+02  0.47787267970E+02  0.19999985984E+02 0.  0.
         12    1    1    2    0    0  0.10221029430E+02  0.16947404438E+02 -0.38625633728E+02  0.43400732030E+02  0.00000000000E+00 0. -1.
         11    1    3    3    0    0 -0.99661076567E+01 -0.13356962224E+02  0.22164136978E+02  0.27730501437E+02  0.51100000000E-03 0. -1.
        -11    1    3    3    0    0  0.49402264694E+01 -0.19024201053E+01  0.46613526361E+01  0.70535982651E+01  0.51100000000E-03 0.  1.
        -12    1    3    3    0    0 -0.51951482430E+01 -0.16880221082E+01  0.11800144114E+02  0.13003168269E+02  0.00000000000E+00 0.  1.
</event>
<event>
 7    1  0.2455451E-009  0.4778727E+02  0.7816164E-02  0.1312668E+00
        -11   -1    0    0    0    0  0.00000000000E+00  0.00000000000E+00  0.45593999997E+02  0.45594000000E+02  0.51100000000E-03 0. -1.
         11   -1    0    0    0    0 -0.00000000000E+00 -0.00000000000E+00 -0.45593999997E+02  0.45594000000E+02  0.51100000000E-03 0.  1.
    9900012    2    1    2    0    0 -0.13445285047E+02  0.38300389971E+02 -0.15359946149E+02  0.47787268351E+02  0.19999987721E+02 0.  0.
         12    1    1    2    0    0  0.13445285047E+02 -0.38300389971E+02  0.15359946149E+02  0.43400731649E+02  0.00000000000E+00 0. -1.
         11    1    3    3    0    0 -0.62855993137E+01  0.10196299056E+01 -0.16341257158E+01  0.65740984928E+01  0.51100000000E-03 0. -1.
        -11    1    3    3    0    0 -0.77921565365E+01  0.20901881835E+02 -0.97620804781E+01  0.24349632097E+02  0.51100000000E-03 0.  1.
         12    1    3    3    0    0  0.63247080328E+00  0.16378878231E+02 -0.39637399553E+01  0.16863537762E+02  0.00000000000E+00 0. -1.
</event>
<event>
 7    1  0.2455451E-009  0.4778727E+02  0.7816164E-02  0.1312668E+00
        -11   -1    0    0    0    0  0.00000000000E+00  0.00000000000E+00  0.45593999997E+02  0.45594000000E+02  0.51100000000E-03 0. -1.
         11   -1    0    0    0    0 -0.00000000000E+00 -0.00000000000E+00 -0.45593999997E+02  0.45594000000E+02  0.51100000000E-03 0.  1.
    9900012    2    1    2    0    0  0.20835163659E+02 -0.20001916645E+02 -0.32395099725E+02  0.47787271891E+02  0.20000003861E+02 0.  0.
         12    1    1    2    0    0 -0.20835163659E+02  0.20001916645E+02  0.32395099725E+02  0.43400728109E+02  0.00000000000E+00 0. -1.
         11    1    3    3    0    0  0.76116348041E+01 -0.56066524979E+01 -0.16918394112E+01  0.96038459733E+01  0.51100000000E-03 0. -1.
        -11    1    3    3    0    0  0.29041426094E+01 -0.65110764733E+01 -0.20388218597E+02  0.21598787442E+02  0.51100000000E-03 0.  1.
        -12    1    3    3    0    0  0.10319386246E+02 -0.78841876741E+01 -0.10315041717E+02  0.16584638476E+02  0.00000000000E+00 0.  1.
</event>
<event>
 7    1  0.2455451E-009  0.4778727E+02  0.7816164E-02  0.1312668E+00
        -11   -1    0    0    0    0  0.00000000000E+00  0.00000000000E+00  0.45593999997E+02  0.45594000000E+02  0.51100000000E-03 0.  1.
         11   -1    0    0    0    0 -0.00000000000E+00 -0.00000000000E+00 -0.45593999997E+02  0.45594000000E+02  0.51100000000E-03 0. -1.
    9900012    2    1    2    0    0  0.16805382457E+02 -0.29717280906E+02  0.26797125313E+02  0.47787267414E+02  0.19999983447E+02 0.  0.
         12    1    1    2    0    0 -0.16805382457E+02  0.29717280906E+02 -0.26797125313E+02  0.43400732586E+02  0.00000000000E+00 0. -1.
         11    1    3    3    0    0 -0.38406179630E+01 -0.38178308797E+01  0.84534514451E+00  0.54809476952E+01  0.51100000000E-03 0. -1.
        -11    1    3    3    0    0  0.10838800274E+02 -0.17035190404E+02  0.15840131538E+02  0.25662951328E+02  0.51100000000E-03 0.  1.
         12    1    3    3    0    0  0.98072001460E+01 -0.88642596226E+01  0.10111648631E+02  0.16643368391E+02  0.00000000000E+00 0. -1.
</event>
<event>
 7    1  0.2455451E-009  0.4778727E+02  0.7816164E-02  0.1312668E+00
        -11   -1    0    0    0    0  0.00000000000E+00  0.00000000000E+00  0.45593999997E+02  0.45594000000E+02  0.51100000000E-03 0. -1.
         11   -1    0    0    0    0 -0.00000000000E+00 -0.00000000000E+00 -0.45593999997E+02  0.45594000000E+02  0.51100000000E-03 0.  1.
    9900012    2    1    2    0    0 -0.32833766411E+02 -0.16662942292E+02 -0.22976364704E+02  0.47787271923E+02  0.20000004006E+02 0.  0.
         12    1    1    2    0    0  0.32833766411E+02  0.16662942292E+02  0.22976364704E+02  0.43400728077E+02  0.00000000000E+00 0. -1.
         11    1    3    3    0    0 -0.59361773777E+01  0.11502885903E+01 -0.10257793742E+02  0.11907296016E+02  0.51100000000E-03 0. -1.
        -11    1    3    3    0    0 -0.24191191616E+02 -0.11961726276E+02 -0.90601031843E+01  0.28467211266E+02  0.51100000000E-03 0.  1.
         12    1    3    3    0    0 -0.27063974181E+01 -0.58515046061E+01 -0.36584677783E+01  0.74127646411E+01  0.00000000000E+00 0. -1.
</event>
<event>
 7    1  0.2455451E-009  0.4778730E+02  0.7816164E-02  0.1312668E+00
        -11   -1    0    0    0    0  0.00000000000E+00  0.00000000000E+00  0.45593999997E+02  0.45594000000E+02  0.51100000000E-03 0.  1.
         11   -1    0    0    0    0 -0.00000000000E+00 -0.00000000000E+00 -0.45593999997E+02  0.45594000000E+02  0.51100000000E-03 0. -1.
    9900012    2    1    2    0    0  0.30520599471E+02 -0.26740568754E+02  0.15396607794E+02  0.47787302529E+02  0.20000143551E+02 0.  0.
         12    1    1    2    0    0 -0.30520599471E+02  0.26740568754E+02 -0.15396607794E+02  0.43400697471E+02  0.00000000000E+00 0. -1.
         11    1    3    3    0    0  0.10262194569E+01  0.57991702440E+00 -0.26437890729E+01  0.28946590563E+01  0.51100000000E-03 0. -1.
        -11    1    3    3    0    0  0.28583692878E+02 -0.27502880142E+02  0.18597234385E+02  0.43809736836E+02  0.51100000000E-03 0.  1.
        -12    1    3    3    0    0  0.91068713592E+00  0.18239436268E+00 -0.55683751723E+00  0.10829066366E+01  0.00000000000E+00 0.  1.
</event>
<event>
 7    1  0.2455451E-009  0.4778727E+02  0.7816164E-02  0.1312668E+00
        -11   -1    0    0    0    0  0.00000000000E+00  0.00000000000E+00  0.45593999997E+02  0.45594000000E+02  0.51100000000E-03 0.  1.
         11   -1    0    0    0    0 -0.00000000000E+00 -0.00000000000E+00 -0.45593999997E+02  0.45594000000E+02  0.51100000000E-03 0. -1.
    9900012    2    1    2    0    0  0.26783882933E+02  0.16820778518E+02  0.29720502435E+02  0.47787271436E+02  0.20000001786E+02 0.  0.
         12    1    1    2    0    0 -0.26783882933E+02 -0.16820778518E+02 -0.29720502435E+02  0.43400728564E+02  0.00000000000E+00 0. -1.
         11    1    3    3    0    0  0.13154427373E+01  0.76461405311E+01  0.39254284094E+01  0.86949895384E+01  0.51100000000E-03 0. -1.
        -11    1    3    3    0    0  0.24358097529E+02  0.11226245752E+02  0.24888921862E+02  0.36589669862E+02  0.51100000000E-03 0.  1.
        -12    1    3    3    0    0  0.11103426667E+01 -0.20516077648E+01  0.90615216307E+00  0.25026120356E+01  0.00000000000E+00 0.  1.
</event>
<event>
 7    1  0.2455451E-009  0.4778727E+02  0.7816164E-02  0.1312668E+00
        -11   -1    0    0    0    0  0.00000000000E+00  0.00000000000E+00  0.45593999997E+02  0.45594000000E+02  0.51100000000E-03 0. -1.
         11   -1    0    0    0    0 -0.00000000000E+00 -0.00000000000E+00 -0.45593999997E+02  0.45594000000E+02  0.51100000000E-03 0.  1.
    9900012    2    1    2    0    0 -0.22372772011E+02 -0.61340710319E+01 -0.36680451759E+02  0.47787270788E+02  0.19999998831E+02 0.  0.
         12    1    1    2    0    0  0.22372772011E+02  0.61340710319E+01  0.36680451759E+02  0.43400729212E+02  0.00000000000E+00 0. -1.
         11    1    3    3    0    0 -0.15632266674E+01 -0.85973055848E+00 -0.20306852664E+02  0.20385070018E+02  0.51100000000E-03 0. -1.
        -11    1    3    3    0    0 -0.11091411371E+02 -0.54249055788E+00 -0.72950406149E+01  0.13286508949E+02  0.51100000000E-03 0.  1.
         12    1    3    3    0    0 -0.97181339721E+01 -0.47318499156E+01 -0.90785584802E+01  0.14115691822E+02  0.00000000000E+00 0. -1.
</event>
<event>
 7    1  0.2455451E-009  0.4778727E+02  0.7816164E-02  0.1312668E+00
        -11   -1    0    0    0    0  0.00000000000E+00  0.00000000000E+00  0.45593999997E+02  0.45594000000E+02  0.51100000000E-03 0. -1.
         11   -1    0    0    0    0 -0.00000000000E+00 -0.00000000000E+00 -0.45593999997E+02  0.45594000000E+02  0.51100000000E-03 0.  1.
    9900012    2    1    2    0    0  0.18075307872E+02 -0.29715761353E+01 -0.39345598295E+02  0.47787272764E+02  0.20000007841E+02 0.  0.
         12    1    1    2    0    0 -0.18075307872E+02  0.29715761353E+01  0.39345598295E+02  0.43400727236E+02  0.00000000000E+00 0. -1.
         11    1    3    3    0    0  0.59886395238E+01  0.40444332217E+01 -0.14441099714E+02  0.16148269401E+02  0.51100000000E-03 0. -1.
        -11    1    3    3    0    0  0.99643435207E+01 -0.39381627109E+01 -0.58225055921E+01  0.12194213339E+02  0.51100000000E-03 0.  1.
        -12    1    3    3    0    0  0.21223248274E+01 -0.30778466460E+01 -0.19081992989E+02  0.19444790024E+02  0.00000000000E+00 0.  1.
</event>
<event>
 7    1  0.2455451E-009  0.4778727E+02  0.7816164E-02  0.1312668E+00
        -11   -1    0    0    0    0  0.00000000000E+00  0.00000000000E+00  0.45593999997E+02  0.45594000000E+02  0.51100000000E-03 0. -1.
         11   -1    0    0    0    0 -0.00000000000E+00 -0.00000000000E+00 -0.45593999997E+02  0.45594000000E+02  0.51100000000E-03 0.  1.
    9900012    2    1    2    0    0  0.38422191565E+02  0.96177909458E+01 -0.17744206041E+02  0.47787267801E+02  0.19999985212E+02 0.  0.
         12    1    1    2    0    0 -0.38422191565E+02 -0.96177909458E+01  0.17744206041E+02  0.43400732199E+02  0.00000000000E+00 0. -1.
         11    1    3    3    0    0  0.36142188033E+01  0.20798919002E+01 -0.65151787243E+01  0.77353785910E+01  0.51100000000E-03 0. -1.
        -11    1    3    3    0    0  0.16198361263E+02  0.10900448180E+02 -0.52449644039E+01  0.20216733910E+02  0.51100000000E-03 0.  1.
        -12    1    3    3    0    0  0.18609611500E+02 -0.33625491344E+01 -0.59840629129E+01  0.19835155300E+02  0.00000000000E+00 0.  1.
</event>
<event>
 7    1  0.2455451E-009  0.4778726E+02  0.7816164E-02  0.1312668E+00
        -11   -1    0    0    0    0  0.00000000000E+00  0.00000000000E+00  0.45593999997E+02  0.45594000000E+02  0.51100000000E-03 0.  1.
         11   -1    0    0    0    0 -0.00000000000E+00 -0.00000000000E+00 -0.45593999997E+02  0.45594000000E+02  0.51100000000E-03 0. -1.
    9900012    2    1    2    0    0 -0.22531258833E+02  0.36113003134E+02  0.84745202213E+01  0.47787261378E+02  0.19999955926E+02 0.  0.
         12    1    1    2    0    0  0.22531258833E+02 -0.36113003134E+02 -0.84745202213E+01  0.43400738622E+02  0.00000000000E+00 0. -1.
         11    1    3    3    0    0  0.11182707821E+01  0.48102109977E+01 -0.25415214807E+01  0.55540967837E+01  0.51100000000E-03 0. -1.
        -11    1    3    3    0    0 -0.18699593633E+02  0.28467341309E+02  0.58927526852E+01  0.34565717954E+02  0.51100000000E-03 0.  1.
         12    1    3    3    0    0 -0.49499359821E+01  0.28354508278E+01  0.51232890168E+01  0.76674466398E+01  0.00000000000E+00 0. -1.
</event>
<event>
 7    1  0.2455451E-009  0.4778727E+02  0.7816164E-02  0.1312668E+00
        -11   -1    0    0    0    0  0.00000000000E+00  0.00000000000E+00  0.45593999997E+02  0.45594000000E+02  0.51100000000E-03 0.  1.
         11   -1    0    0    0    0 -0.00000000000E+00 -0.00000000000E+00 -0.45593999997E+02  0.45594000000E+02  0.51100000000E-03 0. -1.
    9900012    2    1    2    0    0  0.13964993133E+02 -0.13359022366E+02  0.38860504613E+02  0.47787270391E+02  0.19999997020E+02 0.  0.
         12    1    1    2    0    0 -0.13964993133E+02  0.13359022366E+02 -0.38860504613E+02  0.43400729609E+02  0.00000000000E+00 0. -1.
         11    1    3    3    0    0  0.22475261185E+01 -0.77380697956E+01  0.54236224703E+01  0.97131240482E+01  0.51100000000E-03 0. -1.
        -11    1    3    3    0    0  0.11487871314E+02 -0.71224203113E+01  0.33892489371E+02  0.36488366563E+02  0.51100000000E-03 0.  1.
         12    1    3    3    0    0  0.22959570062E+00  0.15014677405E+01 -0.45560722835E+00  0.15857797792E+01  0.00000000000E+00 0. -1.
</event>
<event>
 7    1  0.2455451E-009  0.4778727E+02  0.7816164E-02  0.1312668E+00
        -11   -1    0    0    0    0  0.00000000000E+00  0.00000000000E+00  0.45593999997E+02  0.45594000000E+02  0.51100000000E-03 0.  1.
         11   -1    0    0    0    0 -0.00000000000E+00 -0.00000000000E+00 -0.45593999997E+02  0.45594000000E+02  0.51100000000E-03 0. -1.
    9900012    2    1    2    0    0 -0.21908810651E+02 -0.16418445745E+02  0.33675835361E+02  0.47787271526E+02  0.20000002195E+02 0.  0.
         12    1    1    2    0    0  0.21908810651E+02  0.16418445745E+02 -0.33675835361E+02  0.43400728474E+02  0.00000000000E+00 0. -1.
         11    1    3    3    0    0 -0.29938652723E+01 -0.18103384355E+01 -0.69425255649E+00  0.35668671678E+01  0.51100000000E-03 0. -1.
        -11    1    3    3    0    0 -0.16580569682E+02 -0.96098850132E+01  0.15766893488E+02  0.24816528997E+02  0.51100000000E-03 0.  1.
        -12    1    3    3    0    0 -0.23343756963E+01 -0.49982222962E+01  0.18603194430E+02  0.19403875361E+02  0.00000000000E+00 0.  1.
</event>
<event>
 7    1  0.2455451E-009  0.4778727E+02  0.7816164E-02  0.1312668E+00
        -11   -1    0    0    0    0  0.00000000000E+00  0.00000000000E+00  0.45593999997E+02  0.45594000000E+02  0.51100000000E-03 0. -1.
         11   -1    0    0    0    0 -0.00000000000E+00 -0.00000000000E+00 -0.45593999997E+02  0.45594000000E+02  0.51100000000E-03 0.  1.
    9900012    2    1    2    0    0  0.20501872921E+02 -0.31647490203E+02 -0.21487968780E+02  0.47787271530E+02  0.20000002215E+02 0.  0.
         12    1    1    2    0    0 -0.20501872921E+02  0.31647490203E+02  0.21487968780E+02  0.43400728470E+02  0.00000000000E+00 0. -1.
         11    1    3    3    0    0  0.11321177847E+02 -0.84086009836E+01 -0.81219627181E+00  0.14125625699E+02  0.51100000000E-03 0. -1.
        -11    1    3    3    0    0  0.97908334543E+01 -0.15758120628E+02 -0.11582214587E+02  0.21870676269E+02  0.51100000000E-03 0.  1.
         12    1    3    3    0    0 -0.61013837993E+00 -0.74807685916E+01 -0.90935579211E+01  0.11790969563E+02  0.00000000000E+00 0. -1.
</event>
<event>
 7    1  0.2455451E-009  0.4778727E+02  0.7816164E-02  0.1312668E+00
        -11   -1    0    0    0    0  0.00000000000E+00  0.00000000000E+00  0.45593999997E+02  0.45594000000E+02  0.51100000000E-03 0.  1.
         11   -1    0    0    0    0 -0.00000000000E+00 -0.00000000000E+00 -0.45593999997E+02  0.45594000000E+02  0.51100000000E-03 0. -1.
    9900012    2    1    2    0    0  0.98644882191E+01  0.19433254292E+02  0.37532170279E+02  0.47787270674E+02  0.19999998309E+02 0.  0.
         12    1    1    2    0    0 -0.98644882191E+01 -0.19433254292E+02 -0.37532170279E+02  0.43400729326E+02  0.00000000000E+00 0. -1.
         11    1    3    3    0    0 -0.21747525640E+01  0.98607292537E+01  0.86685000050E+01  0.13308133706E+02  0.51100000000E-03 0. -1.
        -11    1    3    3    0    0  0.73435535591E+01  0.10200147841E+02  0.26164428291E+02  0.29026679158E+02  0.51100000000E-03 0.  1.
         12    1    3    3    0    0  0.46956872240E+01 -0.62762280283E+00  0.26992419828E+01  0.54524578101E+01  0.00000000000E+00 0. -1.
</event>
<event>
 7    1  0.2455451E-009  0.4778727E+02  0.7816164E-02  0.1312668E+00
        -11   -1    0    0    0    0  0.00000000000E+00  0.00000000000E+00  0.45593999997E+02  0.45594000000E+02  0.51100000000E-03 0.  1.
         11   -1    0    0    0    0 -0.00000000000E+00 -0.00000000000E+00 -0.45593999997E+02  0.45594000000E+02  0.51100000000E-03 0. -1.
    9900012    2    1    2    0    0  0.24150113367E+02 -0.34397318634E+02 -0.10826804171E+02  0.47787271972E+02  0.20000004228E+02 0.  0.
         12    1    1    2    0    0 -0.24150113367E+02  0.34397318634E+02  0.10826804171E+02  0.43400728028E+02  0.00000000000E+00 0. -1.
         11    1    3    3    0    0  0.97675309239E+01 -0.17948976760E+02 -0.35639509583E+00  0.20437647732E+02  0.51100000000E-03 0.  1.
        -11    1    3    3    0    0  0.14991721871E+02 -0.11339996459E+02 -0.11591760818E+02  0.22084296762E+02  0.51100000000E-03 0. -1.
        -12    1    3    3    0    0 -0.60913942851E+00 -0.51083454148E+01  0.11213517423E+01  0.52653274780E+01  0.00000000000E+00 0.  1.
</event>
<event>
 7    1  0.2455451E-009  0.4778727E+02  0.7816164E-02  0.1312668E+00
        -11   -1    0    0    0    0  0.00000000000E+00  0.00000000000E+00  0.45593999997E+02  0.45594000000E+02  0.51100000000E-03 0.  1.
         11   -1    0    0    0    0 -0.00000000000E+00 -0.00000000000E+00 -0.45593999997E+02  0.45594000000E+02  0.51100000000E-03 0. -1.
    9900012    2    1    2    0    0  0.33005702432E+02 -0.28169142893E+02 -0.86388747176E+00  0.47787270676E+02  0.19999998319E+02 0.  0.
         12    1    1    2    0    0 -0.33005702432E+02  0.28169142893E+02  0.86388747176E+00  0.43400729324E+02  0.00000000000E+00 0. -1.
         11    1    3    3    0    0  0.25901771915E+02 -0.17862959416E+02 -0.77344695985E+00  0.31473565541E+02  0.51100000000E-03 0. -1.
        -11    1    3    3    0    0  0.95471331796E+01 -0.98696611397E+01  0.57658642796E+00  0.13743740944E+02  0.51100000000E-03 0.  1.
         12    1    3    3    0    0 -0.24432026628E+01 -0.43652233713E+00 -0.66702693987E+00  0.25699641906E+01  0.00000000000E+00 0. -1.
</event>
<event>
 7    1  0.2455451E-009  0.4778727E+02  0.7816164E-02  0.1312668E+00
        -11   -1    0    0    0    0  0.00000000000E+00  0.00000000000E+00  0.45593999997E+02  0.45594000000E+02  0.51100000000E-03 0. -1.
         11   -1    0    0    0    0 -0.00000000000E+00 -0.00000000000E+00 -0.45593999997E+02  0.45594000000E+02  0.51100000000E-03 0.  1.
    9900012    2    1    2    0    0  0.98554391424E+01  0.40338296032E+02  0.12622032174E+02  0.47787268397E+02  0.19999987931E+02 0.  0.
         12    1    1    2    0    0 -0.98554391424E+01 -0.40338296032E+02 -0.12622032174E+02  0.43400731603E+02  0.00000000000E+00 0. -1.
         11    1    3    3    0    0  0.11152517336E+00  0.16249065189E+01  0.59399020238E+01  0.61591554107E+01  0.51100000000E-03 0. -1.
        -11    1    3    3    0    0  0.24720154423E+01  0.28087762999E+02  0.40433970533E+01  0.28484774014E+02  0.51100000000E-03 0.  1.
         12    1    3    3    0    0  0.72718985268E+01  0.10625626514E+02  0.26387330973E+01  0.13143338973E+02  0.00000000000E+00 0. -1.
</event>
<event>
 7    1  0.2455451E-009  0.4778724E+02  0.7816164E-02  0.1312668E+00
        -11   -1    0    0    0    0  0.00000000000E+00  0.00000000000E+00  0.45593999997E+02  0.45594000000E+02  0.51100000000E-03 0.  1.
         11   -1    0    0    0    0 -0.00000000000E+00 -0.00000000000E+00 -0.45593999997E+02  0.45594000000E+02  0.51100000000E-03 0. -1.
    9900012    2    1    2    0    0 -0.20570118948E+02  0.25808377590E+02  0.28185519355E+02  0.47787243686E+02  0.19999875262E+02 0.  0.
         12    1    1    2    0    0  0.20570118948E+02 -0.25808377590E+02 -0.28185519355E+02  0.43400756314E+02  0.00000000000E+00 0. -1.
         11    1    3    3    0    0 -0.35408435376E+01  0.30262289895E+01  0.15015068346E+01  0.48938898526E+01  0.51100000000E-03 0. -1.
        -11    1    3    3    0    0 -0.12837586445E+02  0.42288693251E+01  0.59847151533E+01  0.14781873266E+02  0.51100000000E-03 0.  1.
        -12    1    3    3    0    0 -0.41916889649E+01  0.18553279275E+02  0.20699297367E+02  0.28111480568E+02  0.00000000000E+00 0.  1.
</event>
<event>
 7    1  0.2455451E-009  0.4778727E+02  0.7816164E-02  0.1312668E+00
        -11   -1    0    0    0    0  0.00000000000E+00  0.00000000000E+00  0.45593999997E+02  0.45594000000E+02  0.51100000000E-03 0. -1.
         11   -1    0    0    0    0 -0.00000000000E+00 -0.00000000000E+00 -0.45593999997E+02  0.45594000000E+02  0.51100000000E-03 0.  1.
    9900012    2    1    2    0    0  0.36691763410E+02 -0.90178714949E+01 -0.21354525440E+02  0.47787271144E+02  0.20000000456E+02 0.  0.
         12    1    1    2    0    0 -0.36691763410E+02  0.90178714949E+01  0.21354525440E+02  0.43400728856E+02  0.00000000000E+00 0. -1.
         11    1    3    3    0    0  0.22761874592E+02 -0.27297201825E+01 -0.21755862918E+02  0.31604934406E+02  0.51100000000E-03 0.  1.
        -11    1    3    3    0    0  0.55507633437E+01 -0.44198008544E+01  0.21644667532E+01  0.74182565254E+01  0.51100000000E-03 0. -1.
        -12    1    3    3    0    0  0.83791254740E+01 -0.18683504581E+01 -0.17631292746E+01  0.87640802131E+01  0.00000000000E+00 0.  1.
</event>
<event>
 7    1  0.2455451E-009  0.4778727E+02  0.7816164E-02  0.1312668E+00
        -11   -1    0    0    0    0  0.00000000000E+00  0.00000000000E+00  0.45593999997E+02  0.45594000000E+02  0.51100000000E-03 0.  1.
         11   -1    0    0    0    0 -0.00000000000E+00 -0.00000000000E+00 -0.45593999997E+02  0.45594000000E+02  0.51100000000E-03 0. -1.
    9900012    2    1    2    0    0  0.26353326603E+02  0.66253737053E+01  0.33841243260E+02  0.47787272528E+02  0.20000006762E+02 0.  0.
         12    1    1    2    0    0 -0.26353326603E+02 -0.66253737053E+01 -0.33841243260E+02  0.43400727472E+02  0.00000000000E+00 0. -1.
         11    1    3    3    0    0  0.11478800714E+02 -0.28262535178E+01  0.81105101456E+01  0.14336350647E+02  0.51100000000E-03 0. -1.
        -11    1    3    3    0    0  0.42181344534E+00  0.39362251837E+01  0.12444995859E+02  0.13059468498E+02  0.51100000000E-03 0.  1.
        -12    1    3    3    0    0  0.14452712443E+02  0.55154020394E+01  0.13285737255E+02  0.20391453382E+02  0.00000000000E+00 0.  1.
</event>
<event>
 7    1  0.2455451E-009  0.4778727E+02  0.7816164E-02  0.1312668E+00
        -11   -1    0    0    0    0  0.00000000000E+00  0.00000000000E+00  0.45593999997E+02  0.45594000000E+02  0.51100000000E-03 0.  1.
         11   -1    0    0    0    0 -0.00000000000E+00 -0.00000000000E+00 -0.45593999997E+02  0.45594000000E+02  0.51100000000E-03 0. -1.
    9900012    2    1    2    0    0 -0.35718286913E+02 -0.13180310582E+02 -0.20835226060E+02  0.47787271296E+02  0.20000001148E+02 0.  0.
         12    1    1    2    0    0  0.35718286913E+02  0.13180310582E+02  0.20835226060E+02  0.43400728704E+02  0.00000000000E+00 0. -1.
         11    1    3    3    0    0 -0.13986983056E+02  0.23840214316E+01 -0.55889086428E+01  0.15249759122E+02  0.51100000000E-03 0. -1.
        -11    1    3    3    0    0 -0.69808951375E+01  0.27013956879E+00 -0.50190779755E+01  0.86021518409E+01  0.51100000000E-03 0.  1.
         12    1    3    3    0    0 -0.14750408720E+02 -0.15834471583E+02 -0.10227239442E+02  0.23935360334E+02  0.00000000000E+00 0. -1.
</event>
<event>
 7    1  0.2455451E-009  0.4778728E+02  0.7816164E-02  0.1312668E+00
        -11   -1    0    0    0    0  0.00000000000E+00  0.00000000000E+00  0.45593999997E+02  0.45594000000E+02  0.51100000000E-03 0. -1.
         11   -1    0    0    0    0 -0.00000000000E+00 -0.00000000000E+00 -0.45593999997E+02  0.45594000000E+02  0.51100000000E-03 0.  1.
    9900012    2    1    2    0    0 -0.20407524120E+02  0.31902488614E+02 -0.21198751755E+02  0.47787275392E+02  0.20000019822E+02 0.  0.
         12    1    1    2    0    0  0.20407524120E+02 -0.31902488614E+02  0.21198751755E+02  0.43400724608E+02  0.00000000000E+00 0. -1.
         11    1    3    3    0    0  0.34087893491E+01  0.33724605300E+01 -0.51011268517E+01  0.70010592249E+01  0.51100000000E-03 0. -1.
        -11    1    3    3    0    0 -0.19041473686E+02  0.20121739038E+02 -0.13232843994E+02  0.30701307178E+02  0.51100000000E-03 0.  1.
         12    1    3    3    0    0 -0.47748397839E+01  0.84082890468E+01 -0.28647809101E+01  0.10084908989E+02  0.00000000000E+00 0. -1.
</event>
<event>
 7    1  0.2455451E-009  0.4778727E+02  0.7816164E-02  0.1312668E+00
        -11   -1    0    0    0    0  0.00000000000E+00  0.00000000000E+00  0.45593999997E+02  0.45594000000E+02  0.51100000000E-03 0.  1.
         11   -1    0    0    0    0 -0.00000000000E+00 -0.00000000000E+00 -0.45593999997E+02  0.45594000000E+02  0.51100000000E-03 0. -1.
    9900012    2    1    2    0    0  0.52747639987E+01 -0.38227527915E+02  0.19860920000E+02  0.47787272253E+02  0.20000005510E+02 0.  0.
         12    1    1    2    0    0 -0.52747639987E+01  0.38227527915E+02 -0.19860920000E+02  0.43400727747E+02  0.00000000000E+00 0. -1.
         11    1    3    3    0    0  0.43080210448E+01 -0.20986948581E+02  0.66681560045E+01  0.22438256635E+02  0.51100000000E-03 0.  1.
        -11    1    3    3    0    0  0.33111937224E+01  0.67595190799E+00  0.34123302498E+01  0.48025943867E+01  0.51100000000E-03 0. -1.
        -12    1    3    3    0    0 -0.23444507684E+01 -0.17916531242E+02  0.97804337461E+01  0.20546421231E+02  0.00000000000E+00 0.  1.
</event>
<event>
 7    1  0.2455451E-009  0.4778727E+02  0.7816164E-02  0.1312668E+00
        -11   -1    0    0    0    0  0.00000000000E+00  0.00000000000E+00  0.45593999997E+02  0.45594000000E+02  0.51100000000E-03 0.  1.
         11   -1    0    0    0    0 -0.00000000000E+00 -0.00000000000E+00 -0.45593999997E+02  0.45594000000E+02  0.51100000000E-03 0. -1.
    9900012    2    1    2    0    0 -0.38497084565E+02 -0.95937345653E+01  0.17594263288E+02  0.47787270011E+02  0.19999995288E+02 0.  0.
         12    1    1    2    0    0  0.38497084565E+02  0.95937345653E+01 -0.17594263288E+02  0.43400729989E+02  0.00000000000E+00 0. -1.
         11    1    3    3    0    0 -0.17589959394E+02 -0.13242001813E+02  0.89053509933E+01  0.23750001265E+02  0.51100000000E-03 0. -1.
        -11    1    3    3    0    0 -0.12032120443E+02  0.50959286466E+01  0.30330288767E+01  0.13414159517E+02  0.51100000000E-03 0.  1.
        -12    1    3    3    0    0 -0.88750047284E+01 -0.14476613990E+01  0.56558834177E+01  0.10623109229E+02  0.00000000000E+00 0.  1.
</event>
<event>
 7    1  0.2455451E-009  0.4778726E+02  0.7816164E-02  0.1312668E+00
        -11   -1    0    0    0    0  0.00000000000E+00  0.00000000000E+00  0.45593999997E+02  0.45594000000E+02  0.51100000000E-03 0. -1.
         11   -1    0    0    0    0 -0.00000000000E+00 -0.00000000000E+00 -0.45593999997E+02  0.45594000000E+02  0.51100000000E-03 0.  1.
    9900012    2    1    2    0    0 -0.67658143174E+01 -0.12568469523E+01 -0.42851699692E+02  0.47787261825E+02  0.19999957963E+02 0.  0.
         12    1    1    2    0    0  0.67658143174E+01  0.12568469523E+01  0.42851699692E+02  0.43400738175E+02  0.00000000000E+00 0. -1.
         11    1    3    3    0    0  0.32271713728E+01  0.60248573608E+00 -0.30341833496E+02  0.30518920103E+02  0.51100000000E-03 0. -1.
        -11    1    3    3    0    0 -0.62878006128E+01  0.15380304222E+01 -0.92017763787E+01  0.11250540561E+02  0.51100000000E-03 0.  1.
         12    1    3    3    0    0 -0.37051850774E+01 -0.33973631105E+01 -0.33080898182E+01  0.60178011605E+01  0.00000000000E+00 0. -1.
</event>
<event>
 7    1  0.2455451E-009  0.4778727E+02  0.7816164E-02  0.1312668E+00
        -11   -1    0    0    0    0  0.00000000000E+00  0.00000000000E+00  0.45593999997E+02  0.45594000000E+02  0.51100000000E-03 0.  1.
         11   -1    0    0    0    0 -0.00000000000E+00 -0.00000000000E+00 -0.45593999997E+02  0.45594000000E+02  0.51100000000E-03 0. -1.
    9900012    2    1    2    0    0  0.31059392744E+02  0.10633674047E+01  0.30295322890E+02  0.47787271702E+02  0.20000002997E+02 0.  0.
         12    1    1    2    0    0 -0.31059392744E+02 -0.10633674047E+01 -0.30295322890E+02  0.43400728298E+02  0.00000000000E+00 0. -1.
         11    1    3    3    0    0  0.50273753712E+01  0.29173953468E+01  0.17740548458E+01  0.60772501668E+01  0.51100000000E-03 0. -1.
        -11    1    3    3    0    0  0.25454313690E+02  0.25225416684E+01  0.21491771762E+02  0.33409303429E+02  0.51100000000E-03 0.  1.
        -12    1    3    3    0    0  0.57770368274E+00 -0.43765696105E+01  0.70294962820E+01  0.83007181062E+01  0.00000000000E+00 0.  1.
</event>
<event>
 7    1  0.2455451E-009  0.4778727E+02  0.7816164E-02  0.1312668E+00
        -11   -1    0    0    0    0  0.00000000000E+00  0.00000000000E+00  0.45593999997E+02  0.45594000000E+02  0.51100000000E-03 0.  1.
         11   -1    0    0    0    0 -0.00000000000E+00 -0.00000000000E+00 -0.45593999997E+02  0.45594000000E+02  0.51100000000E-03 0. -1.
    9900012    2    1    2    0    0 -0.13750440066E+02 -0.17314882586E+02  0.37346265974E+02  0.47787270246E+02  0.19999996359E+02 0.  0.
         12    1    1    2    0    0  0.13750440066E+02  0.17314882586E+02 -0.37346265974E+02  0.43400729754E+02  0.00000000000E+00 0. -1.
         11    1    3    3    0    0 -0.15067100596E+02 -0.74933699610E+01  0.23589146129E+02  0.28976126882E+02  0.51100000000E-03 0. -1.
        -11    1    3    3    0    0 -0.32408810477E+01 -0.23282025349E+01  0.34270765141E+01  0.52601036780E+01  0.51100000000E-03 0.  1.
         12    1    3    3    0    0  0.45575415776E+01 -0.74933100902E+01  0.10330043331E+02  0.13551039686E+02  0.00000000000E+00 0. -1.
</event>
<event>
 7    1  0.2455451E-009  0.4778727E+02  0.7816164E-02  0.1312668E+00
        -11   -1    0    0    0    0  0.00000000000E+00  0.00000000000E+00  0.45593999997E+02  0.45594000000E+02  0.51100000000E-03 0. -1.
         11   -1    0    0    0    0 -0.00000000000E+00 -0.00000000000E+00 -0.45593999997E+02  0.45594000000E+02  0.51100000000E-03 0.  1.
    9900012    2    1    2    0    0 -0.22160794766E+02  0.75626973075E+01 -0.36542142145E+02  0.47787269963E+02  0.19999995068E+02 0.  0.
         12    1    1    2    0    0  0.22160794766E+02 -0.75626973075E+01  0.36542142145E+02  0.43400730037E+02  0.00000000000E+00 0. -1.
         11    1    3    3    0    0  0.16632647114E+01 -0.28153845770E+00 -0.94756877703E+00  0.19348385596E+01  0.51100000000E-03 0. -1.
        -11    1    3    3    0    0 -0.22767108269E+02  0.10691892050E+02 -0.27816011378E+02  0.37501843472E+02  0.51100000000E-03 0.  1.
        -12    1    3    3    0    0 -0.10569512091E+01 -0.28476562844E+01 -0.77785619894E+01  0.83505879312E+01  0.00000000000E+00 0.  1.
</event>
<event>
 7    1  0.2455451E-009  0.4778728E+02  0.7816164E-02  0.1312668E+00
        -11   -1    0    0    0    0  0.00000000000E+00  0.00000000000E+00  0.45593999997E+02  0.45594000000E+02  0.51100000000E-03 0. -1.
         11   -1    0    0    0    0 -0.00000000000E+00 -0.00000000000E+00 -0.45593999997E+02  0.45594000000E+02  0.51100000000E-03 0.  1.
    9900012    2    1    2    0    0 -0.26348784598E+02 -0.16980413956E+02 -0.30017156591E+02  0.47787278834E+02  0.20000035516E+02 0.  0.
         12    1    1    2    0    0  0.26348784598E+02  0.16980413956E+02  0.30017156591E+02  0.43400721166E+02  0.00000000000E+00 0. -1.
         11    1    3    3    0    0 -0.60858705454E+01 -0.24240199560E+01 -0.24098324262E+01  0.69800419502E+01  0.51100000000E-03 0. -1.
        -11    1    3    3    0    0 -0.12599049976E+02  0.81865721105E+00 -0.14305348763E+02  0.19080075036E+02  0.51100000000E-03 0.  1.
        -12    1    3    3    0    0 -0.76638640766E+01 -0.15375051211E+02 -0.13301975402E+02  0.21727161847E+02  0.00000000000E+00 0.  1.
</event>
<event>
 7    1  0.2455451E-009  0.4778727E+02  0.7816164E-02  0.1312668E+00
        -11   -1    0    0    0    0  0.00000000000E+00  0.00000000000E+00  0.45593999997E+02  0.45594000000E+02  0.51100000000E-03 0.  1.
         11   -1    0    0    0    0 -0.00000000000E+00 -0.00000000000E+00 -0.45593999997E+02  0.45594000000E+02  0.51100000000E-03 0. -1.
    9900012    2    1    2    0    0  0.30969626765E+02 -0.10658966428E+02  0.28476167912E+02  0.47787268598E+02  0.19999988846E+02 0.  0.
         12    1    1    2    0    0 -0.30969626765E+02  0.10658966428E+02 -0.28476167912E+02  0.43400731402E+02  0.00000000000E+00 0. -1.
         11    1    3    3    0    0  0.15789721102E+02 -0.15158450149E+01  0.64844572820E+01  0.17136547643E+02  0.51100000000E-03 0. -1.
        -11    1    3    3    0    0  0.87113453543E+01  0.12987693334E+01  0.68775108909E+01  0.11174725767E+02  0.51100000000E-03 0.  1.
         12    1    3    3    0    0  0.64685603086E+01 -0.10441890746E+02  0.15114199739E+02  0.19475995188E+02  0.00000000000E+00 0. -1.
</event>
<event>
 7    1  0.2455451E-009  0.4778727E+02  0.7816164E-02  0.1312668E+00
        -11   -1    0    0    0    0  0.00000000000E+00  0.00000000000E+00  0.45593999997E+02  0.45594000000E+02  0.51100000000E-03 0.  1.
         11   -1    0    0    0    0 -0.00000000000E+00 -0.00000000000E+00 -0.45593999997E+02  0.45594000000E+02  0.51100000000E-03 0. -1.
    9900012    2    1    2    0    0 -0.34903285795E+02 -0.14124373635E+02  0.21584390941E+02  0.47787271641E+02  0.20000002719E+02 0.  0.
         12    1    1    2    0    0  0.34903285795E+02  0.14124373635E+02 -0.21584390941E+02  0.43400728359E+02  0.00000000000E+00 0. -1.
         11    1    3    3    0    0 -0.48038151353E+01 -0.22029012610E+01 -0.39619313934E+00  0.52996587706E+01  0.51100000000E-03 0. -1.
        -11    1    3    3    0    0 -0.18694805787E+02 -0.63662734552E+00  0.55239065576E+01  0.19504220100E+02  0.51100000000E-03 0.  1.
        -12    1    3    3    0    0 -0.11404664873E+02 -0.11284845028E+02  0.16456677523E+02  0.22983392771E+02  0.00000000000E+00 0.  1.
</event>
<event>
 7    1  0.2455451E-009  0.4778727E+02  0.7816164E-02  0.1312668E+00
        -11   -1    0    0    0    0  0.00000000000E+00  0.00000000000E+00  0.45593999997E+02  0.45594000000E+02  0.51100000000E-03 0. -1.
         11   -1    0    0    0    0 -0.00000000000E+00 -0.00000000000E+00 -0.45593999997E+02  0.45594000000E+02  0.51100000000E-03 0.  1.
    9900012    2    1    2    0    0  0.36726307518E+02 -0.21644268851E+02  0.81441597150E+01  0.47787269874E+02  0.19999994663E+02 0.  0.
         12    1    1    2    0    0 -0.36726307518E+02  0.21644268851E+02 -0.81441597150E+01  0.43400730126E+02  0.00000000000E+00 0. -1.
         11    1    3    3    0    0  0.23702110385E+02 -0.70854428431E+01 -0.10891927995E+01  0.24762469146E+02  0.51100000000E-03 0. -1.
        -11    1    3    3    0    0  0.25659426037E+01 -0.32845195517E+01 -0.13221008999E+01  0.43726515047E+01  0.51100000000E-03 0.  1.
         12    1    3    3    0    0  0.10458254530E+02 -0.11274306456E+02  0.10555453414E+02  0.18652149224E+02  0.00000000000E+00 0. -1.
</event>
<event>
 7    1  0.2455451E-009  0.4778727E+02  0.7816164E-02  0.1312668E+00
        -11   -1    0    0    0    0  0.00000000000E+00  0.00000000000E+00  0.45593999997E+02  0.45594000000E+02  0.51100000000E-03 0.  1.
         11   -1    0    0    0    0 -0.00000000000E+00 -0.00000000000E+00 -0.45593999997E+02  0.45594000000E+02  0.51100000000E-03 0. -1.
    9900012    2    1    2    0    0  0.33996315672E+02 -0.12367072328E+02  0.23977684924E+02  0.47787270380E+02  0.19999996972E+02 0.  0.
         12    1    1    2    0    0 -0.33996315672E+02  0.12367072328E+02 -0.23977684924E+02  0.43400729620E+02  0.00000000000E+00 0. -1.
         11    1    3    3    0    0  0.24420395195E+01 -0.56409504467E+00  0.97680707632E+01  0.10084491407E+02  0.51100000000E-03 0. -1.
        -11    1    3    3    0    0  0.15559923009E+02 -0.60134259103E+01  0.12001424103E+02  0.20550101605E+02  0.51100000000E-03 0.  1.
         12    1    3    3    0    0  0.15994353143E+02 -0.57895513732E+01  0.22081900577E+01  0.17152677369E+02  0.00000000000E+00 0. -1.
</event>
<event>
 7    1  0.2455451E-009  0.4778727E+02  0.7816164E-02  0.1312668E+00
        -11   -1    0    0    0    0  0.00000000000E+00  0.00000000000E+00  0.45593999997E+02  0.45594000000E+02  0.51100000000E-03 0. -1.
         11   -1    0    0    0    0 -0.00000000000E+00 -0.00000000000E+00 -0.45593999997E+02  0.45594000000E+02  0.51100000000E-03 0.  1.
    9900012    2    1    2    0    0 -0.28953967896E+02  0.18045864538E+02 -0.26826067746E+02  0.47787269654E+02  0.19999993659E+02 0.  0.
         12    1    1    2    0    0  0.28953967896E+02 -0.18045864538E+02  0.26826067746E+02  0.43400730346E+02  0.00000000000E+00 0. -1.
         11    1    3    3    0    0  0.18555292203E+01  0.17870527988E+01 -0.48163143107E+01  0.54619987361E+01  0.51100000000E-03 0. -1.
        -11    1    3    3    0    0 -0.21955531810E+02  0.15565956692E+02 -0.19013770755E+02  0.32952509212E+02  0.51100000000E-03 0.  1.
         12    1    3    3    0    0 -0.88539653066E+01  0.69285504800E+00 -0.29959826800E+01  0.93727617055E+01  0.00000000000E+00 0. -1.
</event>
<event>
 7    1  0.2455451E-009  0.4778727E+02  0.7816164E-02  0.1312668E+00
        -11   -1    0    0    0    0  0.00000000000E+00  0.00000000000E+00  0.45593999997E+02  0.45594000000E+02  0.51100000000E-03 0. -1.
         11   -1    0    0    0    0 -0.00000000000E+00 -0.00000000000E+00 -0.45593999997E+02  0.45594000000E+02  0.51100000000E-03 0.  1.
    9900012    2    1    2    0    0 -0.38278975079E+02 -0.12227438089E+02 -0.16396128646E+02  0.47787271782E+02  0.20000003362E+02 0.  0.
         12    1    1    2    0    0  0.38278975079E+02  0.12227438089E+02  0.16396128646E+02  0.43400728218E+02  0.00000000000E+00 0. -1.
         11    1    3    3    0    0 -0.18518806930E+02 -0.22254589880E+01 -0.10782812988E+02  0.21544556947E+02  0.51100000000E-03 0. -1.
        -11    1    3    3    0    0 -0.16840041279E+02 -0.78602352269E+01  0.10981704666E+01  0.18616558939E+02  0.51100000000E-03 0.  1.
        -12    1    3    3    0    0 -0.29201268691E+01 -0.21417438737E+01 -0.67114861240E+01  0.76261558957E+01  0.00000000000E+00 0.  1.
</event>
<event>
 7    1  0.2455451E-009  0.4778728E+02  0.7816164E-02  0.1312668E+00
        -11   -1    0    0    0    0  0.00000000000E+00  0.00000000000E+00  0.45593999997E+02  0.45594000000E+02  0.51100000000E-03 0.  1.
         11   -1    0    0    0    0 -0.00000000000E+00 -0.00000000000E+00 -0.45593999997E+02  0.45594000000E+02  0.51100000000E-03 0. -1.
    9900012    2    1    2    0    0 -0.23833149568E+02  0.39332633894E+01  0.36057361589E+02  0.47787275306E+02  0.20000019429E+02 0.  0.
         12    1    1    2    0    0  0.23833149568E+02 -0.39332633894E+01 -0.36057361589E+02  0.43400724694E+02  0.00000000000E+00 0. -1.
         11    1    3    3    0    0 -0.62242788976E+01 -0.61055724015E+01  0.36534887823E+01  0.94534460748E+01  0.51100000000E-03 0. -1.
        -11    1    3    3    0    0 -0.13755991823E+02  0.91304515868E+01  0.25604630026E+02  0.30466203181E+02  0.51100000000E-03 0.  1.
         12    1    3    3    0    0 -0.38528788473E+01  0.90838420400E+00  0.67992427809E+01  0.78676260503E+01  0.00000000000E+00 0. -1.
</event>
<event>
 7    1  0.2455451E-009  0.4778727E+02  0.7816164E-02  0.1312668E+00
        -11   -1    0    0    0    0  0.00000000000E+00  0.00000000000E+00  0.45593999997E+02  0.45594000000E+02  0.51100000000E-03 0.  1.
         11   -1    0    0    0    0 -0.00000000000E+00 -0.00000000000E+00 -0.45593999997E+02  0.45594000000E+02  0.51100000000E-03 0. -1.
    9900012    2    1    2    0    0  0.65007188462E+01 -0.41149805202E+02  0.12167888621E+02  0.47787270430E+02  0.19999997201E+02 0.  0.
         12    1    1    2    0    0 -0.65007188462E+01  0.41149805202E+02 -0.12167888621E+02  0.43400729570E+02  0.00000000000E+00 0. -1.
         11    1    3    3    0    0 -0.30510853341E+01 -0.25158826206E+01  0.71002606611E+00  0.40178258240E+01  0.51100000000E-03 0. -1.
        -11    1    3    3    0    0  0.96935508711E+01 -0.19565884918E+02  0.63751264076E+00  0.21844798094E+02  0.51100000000E-03 0.  1.
        -12    1    3    3    0    0 -0.14174669081E+00 -0.19068037663E+02  0.10820349914E+02  0.21924646513E+02  0.00000000000E+00 0.  1.
</event>
<event>
 7    1  0.2455451E-009  0.4778727E+02  0.7816164E-02  0.1312668E+00
        -11   -1    0    0    0    0  0.00000000000E+00  0.00000000000E+00  0.45593999997E+02  0.45594000000E+02  0.51100000000E-03 0.  1.
         11   -1    0    0    0    0 -0.00000000000E+00 -0.00000000000E+00 -0.45593999997E+02  0.45594000000E+02  0.51100000000E-03 0. -1.
    9900012    2    1    2    0    0 -0.28938376646E+02 -0.26987604834E+02  0.17828717676E+02  0.47787266924E+02  0.19999981211E+02 0.  0.
         12    1    1    2    0    0  0.28938376646E+02  0.26987604834E+02 -0.17828717676E+02  0.43400733076E+02  0.00000000000E+00 0. -1.
         11    1    3    3    0    0 -0.26735368575E-01 -0.89746412427E+00  0.63642542751E+01  0.64272769797E+01  0.51100000000E-03 0. -1.
        -11    1    3    3    0    0 -0.27082551767E+02 -0.22552355569E+02  0.81369289877E+01  0.36170194436E+02  0.51100000000E-03 0.  1.
         12    1    3    3    0    0 -0.18290895105E+01 -0.35377851407E+01  0.33275344134E+01  0.51897955077E+01  0.00000000000E+00 0. -1.
</event>
<event>
 7    1  0.2455451E-009  0.4778725E+02  0.7816164E-02  0.1312668E+00
        -11   -1    0    0    0    0  0.00000000000E+00  0.00000000000E+00  0.45593999997E+02  0.45594000000E+02  0.51100000000E-03 0.  1.
         11   -1    0    0    0    0 -0.00000000000E+00 -0.00000000000E+00 -0.45593999997E+02  0.45594000000E+02  0.51100000000E-03 0. -1.
    9900012    2    1    2    0    0 -0.65836553423E+01 -0.36500646762E+00  0.42896933740E+02  0.47787254940E+02  0.19999926576E+02 0.  0.
         12    1    1    2    0    0  0.65836553423E+01  0.36500646762E+00 -0.42896933740E+02  0.43400745060E+02  0.00000000000E+00 0. -1.
         11    1    3    3    0    0 -0.40353172697E+00  0.87180997060E+01  0.18837679641E+02  0.20761172290E+02  0.51100000000E-03 0. -1.
        -11    1    3    3    0    0 -0.25249133122E+01 -0.62573340094E+01  0.88394699088E+01  0.11120505594E+02  0.51100000000E-03 0.  1.
        -12    1    3    3    0    0 -0.36552103031E+01 -0.28257721643E+01  0.15219784191E+02  0.15905577057E+02  0.00000000000E+00 0.  1.
</event>
<event>
 7    1  0.2455451E-009  0.4778727E+02  0.7816164E-02  0.1312668E+00
        -11   -1    0    0    0    0  0.00000000000E+00  0.00000000000E+00  0.45593999997E+02  0.45594000000E+02  0.51100000000E-03 0.  1.
         11   -1    0    0    0    0 -0.00000000000E+00 -0.00000000000E+00 -0.45593999997E+02  0.45594000000E+02  0.51100000000E-03 0. -1.
    9900012    2    1    2    0    0  0.20171396016E+02  0.11295837344E+02  0.36730672310E+02  0.47787269052E+02  0.19999990915E+02 0.  0.
         12    1    1    2    0    0 -0.20171396016E+02 -0.11295837344E+02 -0.36730672310E+02  0.43400730948E+02  0.00000000000E+00 0. -1.
         11    1    3    3    0    0  0.49347878692E+00  0.92424362638E+00  0.55574573101E+01  0.56553584863E+01  0.51100000000E-03 0. -1.
        -11    1    3    3    0    0  0.12568576473E+02  0.72660951871E+00  0.26373587625E+02  0.29224359710E+02  0.51100000000E-03 0.  1.
        -12    1    3    3    0    0  0.71093407554E+01  0.96449841984E+01  0.47996273744E+01  0.12907550856E+02  0.00000000000E+00 0.  1.
</event>
<event>
 7    1  0.2455451E-009  0.4778727E+02  0.7816164E-02  0.1312668E+00
        -11   -1    0    0    0    0  0.00000000000E+00  0.00000000000E+00  0.45593999997E+02  0.45594000000E+02  0.51100000000E-03 0. -1.
         11   -1    0    0    0    0 -0.00000000000E+00 -0.00000000000E+00 -0.45593999997E+02  0.45594000000E+02  0.51100000000E-03 0.  1.
    9900012    2    1    2    0    0 -0.11694197175E+02 -0.21120534623E+02 -0.36066494320E+02  0.47787271402E+02  0.20000001629E+02 0.  0.
         12    1    1    2    0    0  0.11694197175E+02  0.21120534623E+02  0.36066494320E+02  0.43400728598E+02  0.00000000000E+00 0. -1.
         11    1    3    3    0    0 -0.71784715784E+01 -0.50705966217E+01 -0.98647490294E+01  0.13211914243E+02  0.51100000000E-03 0. -1.
        -11    1    3    3    0    0  0.42007352770E+00  0.24312299174E+01 -0.72072586123E+01  0.76178683137E+01  0.51100000000E-03 0.  1.
        -12    1    3    3    0    0 -0.49357991247E+01 -0.18481167918E+02 -0.18994486678E+02  0.26957488845E+02  0.00000000000E+00 0.  1.
</event>
<event>
 7    1  0.2455451E-009  0.4778728E+02  0.7816164E-02  0.1312668E+00
        -11   -1    0    0    0    0  0.00000000000E+00  0.00000000000E+00  0.45593999997E+02  0.45594000000E+02  0.51100000000E-03 0. -1.
         11   -1    0    0    0    0 -0.00000000000E+00 -0.00000000000E+00 -0.45593999997E+02  0.45594000000E+02  0.51100000000E-03 0.  1.
    9900012    2    1    2    0    0  0.33236517603E+02  0.27573146452E+02  0.43218242250E+01  0.47787277975E+02  0.20000031598E+02 0.  0.
         12    1    1    2    0    0 -0.33236517603E+02 -0.27573146452E+02 -0.43218242250E+01  0.43400722025E+02  0.00000000000E+00 0. -1.
         11    1    3    3    0    0  0.60054411755E+01  0.23363368262E+01  0.63361068727E+01  0.90371480037E+01  0.51100000000E-03 0. -1.
        -11    1    3    3    0    0  0.21042877582E+02  0.12825347556E+02 -0.31077488731E+01  0.24838485062E+02  0.51100000000E-03 0.  1.
         12    1    3    3    0    0  0.61881988456E+01  0.12411462070E+02  0.10934662254E+01  0.13911644909E+02  0.00000000000E+00 0. -1.
</event>
<event>
 7    1  0.2455451E-009  0.4778727E+02  0.7816164E-02  0.1312668E+00
        -11   -1    0    0    0    0  0.00000000000E+00  0.00000000000E+00  0.45593999997E+02  0.45594000000E+02  0.51100000000E-03 0.  1.
         11   -1    0    0    0    0 -0.00000000000E+00 -0.00000000000E+00 -0.45593999997E+02  0.45594000000E+02  0.51100000000E-03 0. -1.
    9900012    2    1    2    0    0  0.30637791835E+02 -0.30712126449E+02 -0.13092880729E+01  0.47787271495E+02  0.20000002053E+02 0.  0.
         12    1    1    2    0    0 -0.30637791835E+02  0.30712126449E+02  0.13092880729E+01  0.43400728505E+02  0.00000000000E+00 0. -1.
         11    1    3    3    0    0  0.89988518326E+01 -0.30029470962E+00 -0.11157007362E+01  0.90727228333E+01  0.51100000000E-03 0. -1.
        -11    1    3    3    0    0  0.20654744523E+02 -0.22286680143E+02  0.12116862944E+01  0.30410241153E+02  0.51100000000E-03 0.  1.
         12    1    3    3    0    0  0.98419548011E+00 -0.81251515963E+01 -0.14052736312E+01  0.83043075078E+01  0.00000000000E+00 0. -1.
</event>
<event>
 7    1  0.2455451E-009  0.4778727E+02  0.7816164E-02  0.1312668E+00
        -11   -1    0    0    0    0  0.00000000000E+00  0.00000000000E+00  0.45593999997E+02  0.45594000000E+02  0.51100000000E-03 0.  1.
         11   -1    0    0    0    0 -0.00000000000E+00 -0.00000000000E+00 -0.45593999997E+02  0.45594000000E+02  0.51100000000E-03 0. -1.
    9900012    2    1    2    0    0 -0.26892275374E+02 -0.33631585296E+02 -0.54171483946E+01  0.47787268427E+02  0.19999988066E+02 0.  0.
         12    1    1    2    0    0  0.26892275374E+02  0.33631585296E+02  0.54171483946E+01  0.43400731573E+02  0.00000000000E+00 0. -1.
         11    1    3    3    0    0 -0.18405798757E+02 -0.25827137628E+02 -0.54592530586E+01  0.32181017855E+02  0.51100000000E-03 0. -1.
        -11    1    3    3    0    0 -0.95187495935E+01 -0.80948580855E+01 -0.25927916168E+01  0.12761500299E+02  0.51100000000E-03 0.  1.
         12    1    3    3    0    0  0.10322729759E+01  0.29041041776E+00  0.26348962808E+01  0.28447502734E+01  0.00000000000E+00 0. -1.
</event>
<event>
 7    1  0.2455451E-009  0.4778725E+02  0.7816164E-02  0.1312668E+00
        -11   -1    0    0    0    0  0.00000000000E+00  0.00000000000E+00  0.45593999997E+02  0.45594000000E+02  0.51100000000E-03 0.  1.
         11   -1    0    0    0    0 -0.00000000000E+00 -0.00000000000E+00 -0.45593999997E+02  0.45594000000E+02  0.51100000000E-03 0. -1.
    9900012    2    1    2    0    0  0.86440245366E+01  0.20089393208E+02  0.37487625209E+02  0.47787252040E+02  0.19999913350E+02 0.  0.
         12    1    1    2    0    0 -0.86440245366E+01 -0.20089393208E+02 -0.37487625209E+02  0.43400747960E+02  0.00000000000E+00 0. -1.
         11    1    3    3    0    0  0.83242005317E+01  0.51876523418E+01  0.26025202708E+02  0.27812141729E+02  0.51100000000E-03 0. -1.
        -11    1    3    3    0    0 -0.29799341689E+01  0.93955880197E+01  0.79118239586E+01  0.12639384498E+02  0.51100000000E-03 0.  1.
        -12    1    3    3    0    0  0.32997581738E+01  0.55061528467E+01  0.35505985427E+01  0.73357258119E+01  0.00000000000E+00 0.  1.
</event>
<event>
 7    1  0.2455451E-009  0.4778732E+02  0.7816164E-02  0.1312668E+00
        -11   -1    0    0    0    0  0.00000000000E+00  0.00000000000E+00  0.45593999997E+02  0.45594000000E+02  0.51100000000E-03 0.  1.
         11   -1    0    0    0    0 -0.00000000000E+00 -0.00000000000E+00 -0.45593999997E+02  0.45594000000E+02  0.51100000000E-03 0. -1.
    9900012    2    1    2    0    0  0.80864125418E+01 -0.39907183016E+02  0.15021514690E+02  0.47787317659E+02  0.20000212532E+02 0.  0.
         12    1    1    2    0    0 -0.80864125418E+01  0.39907183016E+02 -0.15021514690E+02  0.43400682341E+02  0.00000000000E+00 0. -1.
         11    1    3    3    0    0  0.69895712150E+01 -0.16115997777E+02 -0.16690975643E+01  0.17645548364E+02  0.51100000000E-03 0. -1.
        -11    1    3    3    0    0 -0.11529630449E-01 -0.17059199821E+02  0.15816769231E+02  0.23263418077E+02  0.51100000000E-03 0.  1.
         12    1    3    3    0    0  0.11083709572E+01 -0.67319854178E+01  0.87384302405E+00  0.68783512177E+01  0.00000000000E+00 0. -1.
</event>
<event>
 7    1  0.2455451E-009  0.4778727E+02  0.7816164E-02  0.1312668E+00
        -11   -1    0    0    0    0  0.00000000000E+00  0.00000000000E+00  0.45593999997E+02  0.45594000000E+02  0.51100000000E-03 0. -1.
         11   -1    0    0    0    0 -0.00000000000E+00 -0.00000000000E+00 -0.45593999997E+02  0.45594000000E+02  0.51100000000E-03 0.  1.
    9900012    2    1    2    0    0  0.39128630356E+02 -0.74623246560E+01  0.17230416779E+02  0.47787271144E+02  0.20000000456E+02 0.  0.
         12    1    1    2    0    0 -0.39128630356E+02  0.74623246560E+01 -0.17230416779E+02  0.43400728856E+02  0.00000000000E+00 0. -1.
         11    1    3    3    0    0  0.16387069838E+02 -0.52204196252E+01  0.16469434967E+02  0.23812415404E+02  0.51100000000E-03 0. -1.
        -11    1    3    3    0    0  0.11764235393E+02 -0.26852013812E+00 -0.31058337538E+01  0.12170272841E+02  0.51100000000E-03 0.  1.
        -12    1    3    3    0    0  0.10977325125E+02 -0.19733848927E+01  0.38668155657E+01  0.11804582900E+02  0.00000000000E+00 0.  1.
</event>
<event>
 7    1  0.2455451E-009  0.4778727E+02  0.7816164E-02  0.1312668E+00
        -11   -1    0    0    0    0  0.00000000000E+00  0.00000000000E+00  0.45593999997E+02  0.45594000000E+02  0.51100000000E-03 0. -1.
         11   -1    0    0    0    0 -0.00000000000E+00 -0.00000000000E+00 -0.45593999997E+02  0.45594000000E+02  0.51100000000E-03 0.  1.
    9900012    2    1    2    0    0  0.30177768833E+02  0.21429678036E+02 -0.22664824949E+02  0.47787272789E+02  0.20000007954E+02 0.  0.
         12    1    1    2    0    0 -0.30177768833E+02 -0.21429678036E+02  0.22664824949E+02  0.43400727211E+02  0.00000000000E+00 0. -1.
         11    1    3    3    0    0  0.20024692689E+02  0.20024379249E+02 -0.11883234864E+02  0.30711160068E+02  0.51100000000E-03 0. -1.
        -11    1    3    3    0    0  0.10402596106E+02 -0.17113098258E+00 -0.59444932784E+01  0.11982499412E+02  0.51100000000E-03 0.  1.
        -12    1    3    3    0    0 -0.24951996176E+00  0.15764297692E+01 -0.48370968068E+01  0.50936133095E+01  0.00000000000E+00 0.  1.
</event>
<event>
 7    1  0.2455451E-009  0.4778727E+02  0.7816164E-02  0.1312668E+00
        -11   -1    0    0    0    0  0.00000000000E+00  0.00000000000E+00  0.45593999997E+02  0.45594000000E+02  0.51100000000E-03 0.  1.
         11   -1    0    0    0    0 -0.00000000000E+00 -0.00000000000E+00 -0.45593999997E+02  0.45594000000E+02  0.51100000000E-03 0. -1.
    9900012    2    1    2    0    0 -0.38203026950E+02  0.20469316505E+02  0.22713655463E+01  0.47787270884E+02  0.19999999268E+02 0.  0.
         12    1    1    2    0    0  0.38203026950E+02 -0.20469316505E+02 -0.22713655463E+01  0.43400729116E+02  0.00000000000E+00 0. -1.
         11    1    3    3    0    0 -0.12233746294E+02  0.32627167563E+01 -0.68507145571E+01  0.14395907725E+02  0.51100000000E-03 0. -1.
        -11    1    3    3    0    0 -0.87921208213E+01  0.10125801657E+02  0.53203539860E+01  0.14427037622E+02  0.51100000000E-03 0.  1.
         12    1    3    3    0    0 -0.17177159835E+02  0.70807980917E+01  0.38017261175E+01  0.18964325538E+02  0.00000000000E+00 0. -1.
</event>
<event>
 7    1  0.2455451E-009  0.4778727E+02  0.7816164E-02  0.1312668E+00
        -11   -1    0    0    0    0  0.00000000000E+00  0.00000000000E+00  0.45593999997E+02  0.45594000000E+02  0.51100000000E-03 0. -1.
         11   -1    0    0    0    0 -0.00000000000E+00 -0.00000000000E+00 -0.45593999997E+02  0.45594000000E+02  0.51100000000E-03 0.  1.
    9900012    2    1    2    0    0 -0.41376773369E+02 -0.41565690894E+01 -0.12422108118E+02  0.47787271767E+02  0.20000003295E+02 0.  0.
         12    1    1    2    0    0  0.41376773369E+02  0.41565690894E+01  0.12422108118E+02  0.43400728233E+02  0.00000000000E+00 0. -1.
         11    1    3    3    0    0  0.25309364391E+00 -0.24507955036E+01 -0.25114259728E+01  0.35181977874E+01  0.51100000000E-03 0. -1.
        -11    1    3    3    0    0 -0.36659055467E+02 -0.49134567735E+01 -0.68773681913E+01  0.37620826662E+02  0.51100000000E-03 0.  1.
        -12    1    3    3    0    0 -0.49708115460E+01  0.32076831877E+01 -0.30333139536E+01  0.66482473179E+01  0.00000000000E+00 0.  1.
</event>
<event>
 7    1  0.2455451E-009  0.4778727E+02  0.7816164E-02  0.1312668E+00
        -11   -1    0    0    0    0  0.00000000000E+00  0.00000000000E+00  0.45593999997E+02  0.45594000000E+02  0.51100000000E-03 0.  1.
         11   -1    0    0    0    0 -0.00000000000E+00 -0.00000000000E+00 -0.45593999997E+02  0.45594000000E+02  0.51100000000E-03 0. -1.
    9900012    2    1    2    0    0  0.20580201860E+02 -0.26329241419E+02  0.27692054448E+02  0.47787267958E+02  0.19999985925E+02 0.  0.
         12    1    1    2    0    0 -0.20580201860E+02  0.26329241419E+02 -0.27692054448E+02  0.43400732042E+02  0.00000000000E+00 0. -1.
         11    1    3    3    0    0  0.10973537779E+02 -0.53288515514E+01  0.19163505958E+02  0.22716847297E+02  0.51100000000E-03 0. -1.
        -11    1    3    3    0    0  0.92852702327E+01 -0.18239243533E+02  0.87980260052E+01  0.22277601078E+02  0.51100000000E-03 0.  1.
         12    1    3    3    0    0  0.32139384804E+00 -0.27611463348E+01 -0.26947751596E+00  0.27928195823E+01  0.00000000000E+00 0. -1.
</event>
<event>
 7    1  0.2455451E-009  0.4778727E+02  0.7816164E-02  0.1312668E+00
        -11   -1    0    0    0    0  0.00000000000E+00  0.00000000000E+00  0.45593999997E+02  0.45594000000E+02  0.51100000000E-03 0. -1.
         11   -1    0    0    0    0 -0.00000000000E+00 -0.00000000000E+00 -0.45593999997E+02  0.45594000000E+02  0.51100000000E-03 0.  1.
    9900012    2    1    2    0    0 -0.37578405789E+02 -0.21417781512E+02  0.35728877839E+01  0.47787268742E+02  0.19999989504E+02 0.  0.
         12    1    1    2    0    0  0.37578405789E+02  0.21417781512E+02 -0.35728877839E+01  0.43400731258E+02  0.00000000000E+00 0. -1.
         11    1    3    3    0    0 -0.74999746402E+01 -0.21718384176E+01  0.19287838321E+01  0.80428047998E+01  0.51100000000E-03 0. -1.
        -11    1    3    3    0    0 -0.28933826454E+01 -0.10142105737E+01  0.59856492214E+01  0.67251976241E+01  0.51100000000E-03 0.  1.
        -12    1    3    3    0    0 -0.27185048504E+02 -0.18231732521E+02 -0.43415452697E+01  0.33019266318E+02  0.00000000000E+00 0.  1.
</event>
<event>
 7    1  0.2455451E-009  0.4778728E+02  0.7816164E-02  0.1312668E+00
        -11   -1    0    0    0    0  0.00000000000E+00  0.00000000000E+00  0.45593999997E+02  0.45594000000E+02  0.51100000000E-03 0.  1.
         11   -1    0    0    0    0 -0.00000000000E+00 -0.00000000000E+00 -0.45593999997E+02  0.45594000000E+02  0.51100000000E-03 0. -1.
    9900012    2    1    2    0    0 -0.25600544395E+02 -0.51388094853E+01  0.34667386181E+02  0.47787275341E+02  0.20000019592E+02 0.  0.
         12    1    1    2    0    0  0.25600544395E+02  0.51388094853E+01 -0.34667386181E+02  0.43400724659E+02  0.00000000000E+00 0. -1.
         11    1    3    3    0    0 -0.34084218801E+01 -0.52173748337E+01  0.26397396713E+01  0.67680547916E+01  0.51100000000E-03 0. -1.
        -11    1    3    3    0    0 -0.14859687965E+02  0.72490447615E+00  0.29835181702E+02  0.33338774428E+02  0.51100000000E-03 0.  1.
         12    1    3    3    0    0 -0.73324345500E+01 -0.64633912778E+00  0.21924648080E+01  0.76804461219E+01  0.00000000000E+00 0. -1.
</event>
<event>
 7    1  0.2455451E-009  0.4778727E+02  0.7816164E-02  0.1312668E+00
        -11   -1    0    0    0    0  0.00000000000E+00  0.00000000000E+00  0.45593999997E+02  0.45594000000E+02  0.51100000000E-03 0.  1.
         11   -1    0    0    0    0 -0.00000000000E+00 -0.00000000000E+00 -0.45593999997E+02  0.45594000000E+02  0.51100000000E-03 0. -1.
    9900012    2    1    2    0    0  0.12334566623E+02 -0.61938959747E+00  0.41606466754E+02  0.47787271285E+02  0.20000001097E+02 0.  0.
         12    1    1    2    0    0 -0.12334566623E+02  0.61938959747E+00 -0.41606466754E+02  0.43400728715E+02  0.00000000000E+00 0. -1.
         11    1    3    3    0    0  0.39706460474E+01 -0.46088416371E+01  0.14047483158E+01  0.62434581252E+01  0.51100000000E-03 0. -1.
        -11    1    3    3    0    0  0.83435458708E+01  0.22816422760E+01  0.30961981137E+02  0.32147549290E+02  0.51100000000E-03 0.  1.
         12    1    3    3    0    0  0.20374705204E-01  0.17078097636E+01  0.92397373009E+01  0.93962638696E+01  0.00000000000E+00 0. -1.
</event>
<event>
 7    1  0.2455451E-009  0.4778727E+02  0.7816164E-02  0.1312668E+00
        -11   -1    0    0    0    0  0.00000000000E+00  0.00000000000E+00  0.45593999997E+02  0.45594000000E+02  0.51100000000E-03 0. -1.
         11   -1    0    0    0    0 -0.00000000000E+00 -0.00000000000E+00 -0.45593999997E+02  0.45594000000E+02  0.51100000000E-03 0.  1.
    9900012    2    1    2    0    0 -0.16742872311E+02  0.19848343097E+02 -0.34775605607E+02  0.47787271409E+02  0.20000001661E+02 0.  0.
         12    1    1    2    0    0  0.16742872311E+02 -0.19848343097E+02  0.34775605607E+02  0.43400728591E+02  0.00000000000E+00 0. -1.
         11    1    3    3    0    0 -0.15266637046E+02  0.18751079248E+02 -0.31300622523E+02  0.39552523943E+02  0.51100000000E-03 0. -1.
        -11    1    3    3    0    0 -0.24601931430E+01  0.25774251909E+01 -0.48283861948E+01  0.60007486552E+01  0.51100000000E-03 0.  1.
         12    1    3    3    0    0  0.98395787839E+00 -0.14801613416E+01  0.13534031112E+01  0.22339988104E+01  0.00000000000E+00 0. -1.
</event>
<event>
 7    1 -0.2455451E-009  0.4778727E+02  0.7816164E-02  0.1312668E+00
        -11   -1    0    0    0    0  0.00000000000E+00  0.00000000000E+00  0.45593999997E+02  0.45594000000E+02  0.51100000000E-03 0.  1.
         11   -1    0    0    0    0 -0.00000000000E+00 -0.00000000000E+00 -0.45593999997E+02  0.45594000000E+02  0.51100000000E-03 0. -1.
    9900012    2    1    2    0    0 -0.26740081187E+02  0.25146389353E+02  0.23157078489E+02  0.47787272777E+02  0.20000007898E+02 0.  0.
         12    1    1    2    0    0  0.26740081187E+02 -0.25146389353E+02 -0.23157078489E+02  0.43400727223E+02  0.00000000000E+00 0. -1.
         11    1    3    3    0    0 -0.61387346885E+01  0.30676017476E+01  0.12432963670E+00  0.68636507907E+01  0.51100000000E-03 0. -1.
        -11    1    3    3    0    0 -0.74803086747E+01  0.16061414004E+01  0.11976388021E+02  0.14211564951E+02  0.51100000000E-03 0.  1.
        -12    1    3    3    0    0 -0.13121037823E+02  0.20472646205E+02  0.11056360831E+02  0.26712057035E+02  0.00000000000E+00 0.  1.
</event>
<event>
 7    1  0.2455451E-009  0.4778729E+02  0.7816164E-02  0.1312668E+00
        -11   -1    0    0    0    0  0.00000000000E+00  0.00000000000E+00  0.45593999997E+02  0.45594000000E+02  0.51100000000E-03 0.  1.
         11   -1    0    0    0    0 -0.00000000000E+00 -0.00000000000E+00 -0.45593999997E+02  0.45594000000E+02  0.51100000000E-03 0. -1.
    9900012    2    1    2    0    0 -0.42952334880E+02  0.59897354645E+01  0.16857351515E+01  0.47787289112E+02  0.20000082378E+02 0.  0.
         12    1    1    2    0    0  0.42952334880E+02 -0.59897354645E+01 -0.16857351515E+01  0.43400710888E+02  0.00000000000E+00 0. -1.
         11    1    3    3    0    0 -0.54568318333E+01  0.25494666858E+01 -0.64543300024E+01  0.88280898319E+01  0.51100000000E-03 0. -1.
        -11    1    3    3    0    0 -0.16261208965E+02  0.13358807646E+01  0.64824936716E+01  0.17556600436E+02  0.51100000000E-03 0.  1.
         12    1    3    3    0    0 -0.21234294082E+02  0.21043880141E+01  0.16575714823E+01  0.21402598844E+02  0.00000000000E+00 0. -1.
</event>
<event>
 7    1  0.2455451E-009  0.4778727E+02  0.7816164E-02  0.1312668E+00
        -11   -1    0    0    0    0  0.00000000000E+00  0.00000000000E+00  0.45593999997E+02  0.45594000000E+02  0.51100000000E-03 0.  1.
         11   -1    0    0    0    0 -0.00000000000E+00 -0.00000000000E+00 -0.45593999997E+02  0.45594000000E+02  0.51100000000E-03 0. -1.
    9900012    2    1    2    0    0 -0.18235686815E+02  0.23089819908E+02  0.31905224160E+02  0.47787269756E+02  0.19999994127E+02 0.  0.
         12    1    1    2    0    0  0.18235686815E+02 -0.23089819908E+02 -0.31905224160E+02  0.43400730244E+02  0.00000000000E+00 0. -1.
         11    1    3    3    0    0 -0.88522369668E+01  0.14695460031E+02  0.25210215543E+02  0.30493829095E+02  0.51100000000E-03 0. -1.
        -11    1    3    3    0    0  0.93370541577E+00  0.19412849314E+01  0.44151966255E+01  0.49126728459E+01  0.51100000000E-03 0.  1.
         12    1    3    3    0    0 -0.10317155264E+02  0.64530749455E+01  0.22798119908E+01  0.12380767816E+02  0.00000000000E+00 0. -1.
</event>
<event>
 7    1  0.2455451E-009  0.4778724E+02  0.7816164E-02  0.1312668E+00
        -11   -1    0    0    0    0  0.00000000000E+00  0.00000000000E+00  0.45593999997E+02  0.45594000000E+02  0.51100000000E-03 0.  1.
         11   -1    0    0    0    0 -0.00000000000E+00 -0.00000000000E+00 -0.45593999997E+02  0.45594000000E+02  0.51100000000E-03 0. -1.
    9900012    2    1    2    0    0 -0.14698583063E+02  0.29859659006E+02  0.27856384417E+02  0.47787242716E+02  0.19999870841E+02 0.  0.
         12    1    1    2    0    0  0.14698583063E+02 -0.29859659006E+02 -0.27856384417E+02  0.43400757284E+02  0.00000000000E+00 0. -1.
         11    1    3    3    0    0 -0.90694672241E+01  0.17806823719E+02  0.55046972547E+01  0.20727756724E+02  0.51100000000E-03 0. -1.
        -11    1    3    3    0    0 -0.69890034804E+01  0.78458178863E+01  0.18081218079E+02  0.20912519586E+02  0.51100000000E-03 0.  1.
         12    1    3    3    0    0  0.13598876420E+01  0.42070174004E+01  0.42704690833E+01  0.61469664060E+01  0.00000000000E+00 0. -1.
</event>
<event>
 7    1  0.2455451E-009  0.4778728E+02  0.7816164E-02  0.1312668E+00
        -11   -1    0    0    0    0  0.00000000000E+00  0.00000000000E+00  0.45593999997E+02  0.45594000000E+02  0.51100000000E-03 0.  1.
         11   -1    0    0    0    0 -0.00000000000E+00 -0.00000000000E+00 -0.45593999997E+02  0.45594000000E+02  0.51100000000E-03 0. -1.
    9900012    2    1    2    0    0 -0.32626088689E+02 -0.21364626697E+02  0.19045050819E+02  0.47787275378E+02  0.20000019756E+02 0.  0.
         12    1    1    2    0    0  0.32626088689E+02  0.21364626697E+02 -0.19045050819E+02  0.43400724622E+02  0.00000000000E+00 0. -1.
         11    1    3    3    0    0 -0.42325618099E+01 -0.87212384570E+01  0.36122998318E+01  0.10345206138E+02  0.51100000000E-03 0. -1.
        -11    1    3    3    0    0 -0.30009989784E+02 -0.11739172461E+02  0.14976444934E+02  0.35534512238E+02  0.51100000000E-03 0.  1.
        -12    1    3    3    0    0  0.16164629049E+01 -0.90421577959E+00  0.45630605303E+00  0.19075570013E+01  0.00000000000E+00 0.  1.
</event>
<event>
 7    1  0.2455451E-009  0.4778727E+02  0.7816164E-02  0.1312668E+00
        -11   -1    0    0    0    0  0.00000000000E+00  0.00000000000E+00  0.45593999997E+02  0.45594000000E+02  0.51100000000E-03 0.  1.
         11   -1    0    0    0    0 -0.00000000000E+00 -0.00000000000E+00 -0.45593999997E+02  0.45594000000E+02  0.51100000000E-03 0. -1.
    9900012    2    1    2    0    0  0.14240281522E+02 -0.19834991127E+02  0.35880507551E+02  0.47787270594E+02  0.19999997947E+02 0.  0.
         12    1    1    2    0    0 -0.14240281522E+02  0.19834991127E+02 -0.35880507551E+02  0.43400729406E+02  0.00000000000E+00 0. -1.
         11    1    3    3    0    0 -0.24120839463E+01 -0.10208738319E+02  0.82753196712E+01  0.13361040489E+02  0.51100000000E-03 0. -1.
        -11    1    3    3    0    0  0.10073599879E+02 -0.96727148348E+01  0.17956599310E+02  0.22748149064E+02  0.51100000000E-03 0.  1.
         12    1    3    3    0    0  0.65787655889E+01  0.46462027327E-01  0.96485885699E+01  0.11678081040E+02  0.00000000000E+00 0. -1.
</event>
<event>
 7    1  0.2455451E-009  0.4778727E+02  0.7816164E-02  0.1312668E+00
        -11   -1    0    0    0    0  0.00000000000E+00  0.00000000000E+00  0.45593999997E+02  0.45594000000E+02  0.51100000000E-03 0.  1.
         11   -1    0    0    0    0 -0.00000000000E+00 -0.00000000000E+00 -0.45593999997E+02  0.45594000000E+02  0.51100000000E-03 0. -1.
    9900012    2    1    2    0    0  0.11693925405E+02  0.83652229942E+01  0.40949954641E+02  0.47787266916E+02  0.19999981178E+02 0.  0.
         12    1    1    2    0    0 -0.11693925405E+02 -0.83652229942E+01 -0.40949954641E+02  0.43400733084E+02  0.00000000000E+00 0. -1.
         11    1    3    3    0    0 -0.59687536328E+00 -0.10788571943E+01  0.85970660696E-01  0.12359547971E+01  0.51100000000E-03 0. -1.
        -11    1    3    3    0    0  0.10672942312E+02  0.13582087486E+02  0.36197887623E+02  0.40108251853E+02  0.51100000000E-03 0.  1.
        -12    1    3    3    0    0  0.16178584565E+01 -0.41380072974E+01  0.46660963570E+01  0.64430602660E+01  0.00000000000E+00 0.  1.
</event>
<event>
 7    1  0.2455451E-009  0.4778727E+02  0.7816164E-02  0.1312668E+00
        -11   -1    0    0    0    0  0.00000000000E+00  0.00000000000E+00  0.45593999997E+02  0.45594000000E+02  0.51100000000E-03 0.  1.
         11   -1    0    0    0    0 -0.00000000000E+00 -0.00000000000E+00 -0.45593999997E+02  0.45594000000E+02  0.51100000000E-03 0. -1.
    9900012    2    1    2    0    0 -0.40233908797E+02 -0.15993449354E+02  0.30108956617E+01  0.47787270375E+02  0.19999996947E+02 0.  0.
         12    1    1    2    0    0  0.40233908797E+02  0.15993449354E+02 -0.30108956617E+01  0.43400729625E+02  0.00000000000E+00 0. -1.
         11    1    3    3    0    0 -0.12021833537E+02 -0.45963489538E+01  0.58020352322E+01  0.14117879388E+02  0.51100000000E-03 0. -1.
        -11    1    3    3    0    0 -0.20634342831E+02 -0.21407609930E+01 -0.53769303157E+01  0.21430593589E+02  0.51100000000E-03 0.  1.
        -12    1    3    3    0    0 -0.75777324289E+01 -0.92563394071E+01  0.25857907452E+01  0.12238797398E+02  0.00000000000E+00 0.  1.
</event>
<event>
 7    1  0.2455451E-009  0.4778727E+02  0.7816164E-02  0.1312668E+00
        -11   -1    0    0    0    0  0.00000000000E+00  0.00000000000E+00  0.45593999997E+02  0.45594000000E+02  0.51100000000E-03 0. -1.
         11   -1    0    0    0    0 -0.00000000000E+00 -0.00000000000E+00 -0.45593999997E+02  0.45594000000E+02  0.51100000000E-03 0.  1.
    9900012    2    1    2    0    0 -0.16218416344E+02  0.22034808320E+02 -0.33690556245E+02  0.47787269746E+02  0.19999994082E+02 0.  0.
         12    1    1    2    0    0  0.16218416344E+02 -0.22034808320E+02  0.33690556245E+02  0.43400730254E+02  0.00000000000E+00 0. -1.
         11    1    3    3    0    0  0.30865781908E+00 -0.78842224023E+00  0.15026765856E+01  0.17247946139E+01  0.51100000000E-03 0. -1.
        -11    1    3    3    0    0 -0.14558641219E+02  0.23070721857E+02 -0.34451346750E+02  0.43944368630E+02  0.51100000000E-03 0.  1.
        -12    1    3    3    0    0 -0.19684329442E+01 -0.24749129650E+00 -0.74188608060E+00  0.21181065021E+01  0.00000000000E+00 0.  1.
</event>
<event>
 7    1  0.2455451E-009  0.4778728E+02  0.7816164E-02  0.1312668E+00
        -11   -1    0    0    0    0  0.00000000000E+00  0.00000000000E+00  0.45593999997E+02  0.45594000000E+02  0.51100000000E-03 0.  1.
         11   -1    0    0    0    0 -0.00000000000E+00 -0.00000000000E+00 -0.45593999997E+02  0.45594000000E+02  0.51100000000E-03 0. -1.
    9900012    2    1    2    0    0 -0.66948261647E+01 -0.64892253172E+01  0.42387403494E+02  0.47787277454E+02  0.20000029223E+02 0.  0.
         12    1    1    2    0    0  0.66948261647E+01  0.64892253172E+01 -0.42387403494E+02  0.43400722546E+02  0.00000000000E+00 0. -1.
         11    1    3    3    0    0  0.16577160112E+01 -0.24584544512E+01  0.11093080817E+01  0.31658467025E+01  0.51100000000E-03 0. -1.
        -11    1    3    3    0    0 -0.10427488890E+02 -0.72212704447E-01  0.36974734578E+02  0.38417037062E+02  0.51100000000E-03 0.  1.
        -12    1    3    3    0    0  0.20749467142E+01 -0.39585581616E+01  0.43033608337E+01  0.62043936892E+01  0.00000000000E+00 0.  1.
</event>
<event>
 7    1  0.2455451E-009  0.4778727E+02  0.7816164E-02  0.1312668E+00
        -11   -1    0    0    0    0  0.00000000000E+00  0.00000000000E+00  0.45593999997E+02  0.45594000000E+02  0.51100000000E-03 0.  1.
         11   -1    0    0    0    0 -0.00000000000E+00 -0.00000000000E+00 -0.45593999997E+02  0.45594000000E+02  0.51100000000E-03 0. -1.
    9900012    2    1    2    0    0  0.29341121219E+01 -0.33428187599E+02  0.27524003199E+02  0.47787268529E+02  0.19999988532E+02 0.  0.
         12    1    1    2    0    0 -0.29341121219E+01  0.33428187599E+02 -0.27524003199E+02  0.43400731471E+02  0.00000000000E+00 0. -1.
         11    1    3    3    0    0  0.48122224679E+01 -0.30000842985E+01 -0.16523521453E+00  0.56732084235E+01  0.51100000000E-03 0. -1.
        -11    1    3    3    0    0 -0.23535130870E+01 -0.30922063308E+02  0.27350925046E+02  0.41349560146E+02  0.51100000000E-03 0.  1.
        -12    1    3    3    0    0  0.47540274098E+00  0.49396000716E+00  0.33831336687E+00  0.76449996011E+00  0.00000000000E+00 0.  1.
</event>
<event>
 7    1  0.2455451E-009  0.4778728E+02  0.7816164E-02  0.1312668E+00
        -11   -1    0    0    0    0  0.00000000000E+00  0.00000000000E+00  0.45593999997E+02  0.45594000000E+02  0.51100000000E-03 0.  1.
         11   -1    0    0    0    0 -0.00000000000E+00 -0.00000000000E+00 -0.45593999997E+02  0.45594000000E+02  0.51100000000E-03 0. -1.
    9900012    2    1    2    0    0  0.23209155833E+02 -0.24714105319E+02  0.27095585524E+02  0.47787277989E+02  0.20000031664E+02 0.  0.
         12    1    1    2    0    0 -0.23209155833E+02  0.24714105319E+02 -0.27095585524E+02  0.43400722011E+02  0.00000000000E+00 0. -1.
         11    1    3    3    0    0  0.42221665713E+00  0.43351969714E-01 -0.83988993640E+00  0.94104286046E+00  0.51100000000E-03 0. -1.
        -11    1    3    3    0    0  0.19582143544E+02 -0.27101953341E+02  0.23360390686E+02  0.40788283538E+02  0.51100000000E-03 0.  1.
        -12    1    3    3    0    0  0.32047956312E+01  0.23444960530E+01  0.45750847747E+01  0.60579515907E+01  0.00000000000E+00 0.  1.
</event>
<event>
 7    1  0.2455451E-009  0.4778727E+02  0.7816164E-02  0.1312668E+00
        -11   -1    0    0    0    0  0.00000000000E+00  0.00000000000E+00  0.45593999997E+02  0.45594000000E+02  0.51100000000E-03 0.  1.
         11   -1    0    0    0    0 -0.00000000000E+00 -0.00000000000E+00 -0.45593999997E+02  0.45594000000E+02  0.51100000000E-03 0. -1.
    9900012    2    1    2    0    0 -0.13653623251E+02 -0.21475145247E+02  0.35157073849E+02  0.47787272669E+02  0.20000007407E+02 0.  0.
         12    1    1    2    0    0  0.13653623251E+02  0.21475145247E+02 -0.35157073849E+02  0.43400727331E+02  0.00000000000E+00 0. -1.
         11    1    3    3    0    0 -0.71059518086E+00 -0.29979688882E+01 -0.22808499062E+01  0.38334109513E+01  0.51100000000E-03 0. -1.
        -11    1    3    3    0    0 -0.76126025038E+01 -0.95120979916E+01  0.24263978160E+02  0.27150918244E+02  0.51100000000E-03 0.  1.
        -12    1    3    3    0    0 -0.53304255662E+01 -0.89650783670E+01  0.13173945595E+02  0.16802943474E+02  0.00000000000E+00 0.  1.
</event>
<event>
 7    1  0.2455451E-009  0.4778727E+02  0.7816164E-02  0.1312668E+00
        -11   -1    0    0    0    0  0.00000000000E+00  0.00000000000E+00  0.45593999997E+02  0.45594000000E+02  0.51100000000E-03 0. -1.
         11   -1    0    0    0    0 -0.00000000000E+00 -0.00000000000E+00 -0.45593999997E+02  0.45594000000E+02  0.51100000000E-03 0.  1.
    9900012    2    1    2    0    0 -0.18225934534E+02  0.31794923441E+02 -0.23249116016E+02  0.47787271414E+02  0.20000001687E+02 0.  0.
         12    1    1    2    0    0  0.18225934534E+02 -0.31794923441E+02  0.23249116016E+02  0.43400728586E+02  0.00000000000E+00 0. -1.
         11    1    3    3    0    0  0.30375984256E+01  0.22543203984E+01 -0.71145329862E+00  0.38490428305E+01  0.51100000000E-03 0. -1.
        -11    1    3    3    0    0 -0.15571499973E+02  0.18973665465E+02 -0.97798180781E+01  0.26421893091E+02  0.51100000000E-03 0.  1.
         12    1    3    3    0    0 -0.56920329861E+01  0.10566937577E+02 -0.12757844639E+02  0.17516335493E+02  0.00000000000E+00 0. -1.
</event>
<event>
 7    1  0.2455451E-009  0.4778727E+02  0.7816164E-02  0.1312668E+00
        -11   -1    0    0    0    0  0.00000000000E+00  0.00000000000E+00  0.45593999997E+02  0.45594000000E+02  0.51100000000E-03 0.  1.
         11   -1    0    0    0    0 -0.00000000000E+00 -0.00000000000E+00 -0.45593999997E+02  0.45594000000E+02  0.51100000000E-03 0. -1.
    9900012    2    1    2    0    0 -0.45308869379E+01 -0.16529949122E+02  0.39872989709E+02  0.47787268868E+02  0.19999990076E+02 0.  0.
         12    1    1    2    0    0  0.45308869379E+01  0.16529949122E+02 -0.39872989709E+02  0.43400731132E+02  0.00000000000E+00 0. -1.
         11    1    3    3    0    0 -0.66088337955E+01 -0.96389966158E+00  0.53463349804E+01  0.85550619330E+01  0.51100000000E-03 0. -1.
        -11    1    3    3    0    0  0.37543364368E+01 -0.16301073685E+02  0.29982241908E+02  0.34332999803E+02  0.51100000000E-03 0.  1.
        -12    1    3    3    0    0 -0.16763895792E+01  0.73502422463E+00  0.45444128212E+01  0.48992071319E+01  0.00000000000E+00 0.  1.
</event>
<event>
 7    1  0.2455451E-009  0.4778727E+02  0.7816164E-02  0.1312668E+00
        -11   -1    0    0    0    0  0.00000000000E+00  0.00000000000E+00  0.45593999997E+02  0.45594000000E+02  0.51100000000E-03 0. -1.
         11   -1    0    0    0    0 -0.00000000000E+00 -0.00000000000E+00 -0.45593999997E+02  0.45594000000E+02  0.51100000000E-03 0.  1.
    9900012    2    1    2    0    0 -0.97397440585E+00  0.40502922649E+02 -0.15562402722E+02  0.47787265585E+02  0.19999975108E+02 0.  0.
         12    1    1    2    0    0  0.97397440585E+00 -0.40502922649E+02  0.15562402722E+02  0.43400734415E+02  0.00000000000E+00 0. -1.
         11    1    3    3    0    0  0.50346487946E+01  0.17678534402E+02 -0.82264866089E+01  0.20138355178E+02  0.51100000000E-03 0. -1.
        -11    1    3    3    0    0  0.14320941530E+01  0.60967115705E+01 -0.69243911685E+01  0.93363793278E+01  0.51100000000E-03 0.  1.
         12    1    3    3    0    0 -0.74407173535E+01  0.16727676677E+02 -0.41152494460E+00  0.18312531079E+02  0.00000000000E+00 0. -1.
</event>
<event>
 7    1  0.2455451E-009  0.4778727E+02  0.7816164E-02  0.1312668E+00
        -11   -1    0    0    0    0  0.00000000000E+00  0.00000000000E+00  0.45593999997E+02  0.45594000000E+02  0.51100000000E-03 0. -1.
         11   -1    0    0    0    0 -0.00000000000E+00 -0.00000000000E+00 -0.45593999997E+02  0.45594000000E+02  0.51100000000E-03 0.  1.
    9900012    2    1    2    0    0  0.28724667373E+02  0.12861035973E+02 -0.29884954937E+02  0.47787270817E+02  0.19999998963E+02 0.  0.
         12    1    1    2    0    0 -0.28724667373E+02 -0.12861035973E+02  0.29884954937E+02  0.43400729183E+02  0.00000000000E+00 0. -1.
         11    1    3    3    0    0  0.83249984940E+01 -0.37248345700E+01 -0.78407582167E+01  0.12027363891E+02  0.51100000000E-03 0. -1.
        -11    1    3    3    0    0  0.20351423833E+02  0.16073190518E+02 -0.23007219435E+02  0.34667853291E+02  0.51100000000E-03 0.  1.
        -12    1    3    3    0    0  0.48245046506E-01  0.51268002554E+00  0.96302271412E+00  0.10920536347E+01  0.00000000000E+00 0.  1.
</event>
<event>
 7    1  0.2455451E-009  0.4778727E+02  0.7816164E-02  0.1312668E+00
        -11   -1    0    0    0    0  0.00000000000E+00  0.00000000000E+00  0.45593999997E+02  0.45594000000E+02  0.51100000000E-03 0. -1.
         11   -1    0    0    0    0 -0.00000000000E+00 -0.00000000000E+00 -0.45593999997E+02  0.45594000000E+02  0.51100000000E-03 0.  1.
    9900012    2    1    2    0    0 -0.32457472502E+02  0.23528273308E+02 -0.16629974405E+02  0.47787271725E+02  0.20000003103E+02 0.  0.
         12    1    1    2    0    0  0.32457472502E+02 -0.23528273308E+02  0.16629974405E+02  0.43400728275E+02  0.00000000000E+00 0. -1.
         11    1    3    3    0    0  0.10558263339E+01  0.14106633598E+01  0.11055715838E+01  0.20801512325E+01  0.51100000000E-03 0. -1.
        -11    1    3    3    0    0 -0.30915516345E+02  0.15171239793E+02 -0.16509208716E+02  0.38190177277E+02  0.51100000000E-03 0.  1.
        -12    1    3    3    0    0 -0.25977824909E+01  0.69463701549E+01 -0.12263372731E+01  0.75169432156E+01  0.00000000000E+00 0.  1.
</event>
<event>
 7    1  0.2455451E-009  0.4778727E+02  0.7816164E-02  0.1312668E+00
        -11   -1    0    0    0    0  0.00000000000E+00  0.00000000000E+00  0.45593999997E+02  0.45594000000E+02  0.51100000000E-03 0.  1.
         11   -1    0    0    0    0 -0.00000000000E+00 -0.00000000000E+00 -0.45593999997E+02  0.45594000000E+02  0.51100000000E-03 0. -1.
    9900012    2    1    2    0    0 -0.20423962233E+02  0.15372299572E+02  0.35073885053E+02  0.47787271433E+02  0.20000001772E+02 0.  0.
         12    1    1    2    0    0  0.20423962233E+02 -0.15372299572E+02 -0.35073885053E+02  0.43400728567E+02  0.00000000000E+00 0. -1.
         11    1    3    3    0    0  0.11061853641E+01  0.22397597793E+01 -0.14661257422E+01  0.28964970019E+01  0.51100000000E-03 0. -1.
        -11    1    3    3    0    0 -0.13192541080E+02  0.11164573904E+02  0.27112113797E+02  0.32152100482E+02  0.51100000000E-03 0.  1.
         12    1    3    3    0    0 -0.83376065172E+01  0.19679658887E+01  0.94278969985E+01  0.12738673949E+02  0.00000000000E+00 0. -1.
</event>
<event>
 7    1  0.2455451E-009  0.4778727E+02  0.7816164E-02  0.1312668E+00
        -11   -1    0    0    0    0  0.00000000000E+00  0.00000000000E+00  0.45593999997E+02  0.45594000000E+02  0.51100000000E-03 0. -1.
         11   -1    0    0    0    0 -0.00000000000E+00 -0.00000000000E+00 -0.45593999997E+02  0.45594000000E+02  0.51100000000E-03 0.  1.
    9900012    2    1    2    0    0  0.42567317829E+02  0.70926728695E+01  0.46195753533E+01  0.47787273830E+02  0.20000012702E+02 0.  0.
         12    1    1    2    0    0 -0.42567317829E+02 -0.70926728695E+01 -0.46195753533E+01  0.43400726170E+02  0.00000000000E+00 0. -1.
         11    1    3    3    0    0  0.28293447603E+02  0.35592288137E+01 -0.15130424809E+01  0.28556550646E+02  0.51100000000E-03 0. -1.
        -11    1    3    3    0    0  0.63973869261E+01 -0.27055348142E+01 -0.84550999186E+00  0.69972398501E+01  0.51100000000E-03 0.  1.
         12    1    3    3    0    0  0.78764833003E+01  0.62389788700E+01  0.69781278261E+01  0.12233483334E+02  0.00000000000E+00 0. -1.
</event>
<event>
 7    1  0.2455451E-009  0.4778727E+02  0.7816164E-02  0.1312668E+00
        -11   -1    0    0    0    0  0.00000000000E+00  0.00000000000E+00  0.45593999997E+02  0.45594000000E+02  0.51100000000E-03 0. -1.
         11   -1    0    0    0    0 -0.00000000000E+00 -0.00000000000E+00 -0.45593999997E+02  0.45594000000E+02  0.51100000000E-03 0.  1.
    9900012    2    1    2    0    0 -0.98414905174E+01 -0.38665875460E+02 -0.17079765336E+02  0.47787271381E+02  0.20000001535E+02 0.  0.
         12    1    1    2    0    0  0.98414905174E+01  0.38665875460E+02  0.17079765336E+02  0.43400728619E+02  0.00000000000E+00 0. -1.
         11    1    3    3    0    0  0.41198119269E+01 -0.52069839397E+01 -0.34673325171E+01  0.74905224855E+01  0.51100000000E-03 0. -1.
        -11    1    3    3    0    0 -0.11943461812E+02 -0.33564209712E+02 -0.11655970573E+02  0.37484184717E+02  0.51100000000E-03 0.  1.
        -12    1    3    3    0    0 -0.20178406326E+01  0.10531819118E+00 -0.19564622456E+01  0.28125641785E+01  0.00000000000E+00 0.  1.
</event>
<event>
 7    1  0.2455451E-009  0.4778728E+02  0.7816164E-02  0.1312668E+00
        -11   -1    0    0    0    0  0.00000000000E+00  0.00000000000E+00  0.45593999997E+02  0.45594000000E+02  0.51100000000E-03 0.  1.
         11   -1    0    0    0    0 -0.00000000000E+00 -0.00000000000E+00 -0.45593999997E+02  0.45594000000E+02  0.51100000000E-03 0. -1.
    9900012    2    1    2    0    0 -0.27745693432E+02  0.35069294787E+01  0.33188855788E+02  0.47787283337E+02  0.20000056045E+02 0.  0.
         12    1    1    2    0    0  0.27745693432E+02 -0.35069294787E+01 -0.33188855788E+02  0.43400716663E+02  0.00000000000E+00 0. -1.
         11    1    3    3    0    0 -0.22461751420E+02  0.25968242702E+01  0.19686400718E+02  0.29980462749E+02  0.51100000000E-03 0.  1.
        -11    1    3    3    0    0 -0.17248190384E+01  0.42189051161E+01  0.11813238711E+02  0.12662020778E+02  0.51100000000E-03 0. -1.
        -12    1    3    3    0    0 -0.35591229735E+01 -0.33087999077E+01  0.16892163587E+01  0.51447998091E+01  0.00000000000E+00 0.  1.
</event>
<event>
 7    1  0.2455451E-009  0.4778728E+02  0.7816164E-02  0.1312668E+00
        -11   -1    0    0    0    0  0.00000000000E+00  0.00000000000E+00  0.45593999997E+02  0.45594000000E+02  0.51100000000E-03 0.  1.
         11   -1    0    0    0    0 -0.00000000000E+00 -0.00000000000E+00 -0.45593999997E+02  0.45594000000E+02  0.51100000000E-03 0. -1.
    9900012    2    1    2    0    0 -0.24758063936E+02 -0.22916495504E+02  0.27303754914E+02  0.47787279632E+02  0.20000039154E+02 0.  0.
         12    1    1    2    0    0  0.24758063936E+02  0.22916495504E+02 -0.27303754914E+02  0.43400720368E+02  0.00000000000E+00 0. -1.
         11    1    3    3    0    0 -0.12532866020E+02 -0.13883740738E+02  0.45583190140E+01  0.19251214508E+02  0.51100000000E-03 0. -1.
        -11    1    3    3    0    0 -0.23353980170E+01 -0.34550402902E+01  0.12730367498E+02  0.13396030913E+02  0.51100000000E-03 0.  1.
         12    1    3    3    0    0 -0.98897998993E+01 -0.55777144766E+01  0.10015068402E+02  0.15140034211E+02  0.00000000000E+00 0. -1.
</event>
<event>
 7    1  0.2455451E-009  0.4778727E+02  0.7816164E-02  0.1312668E+00
        -11   -1    0    0    0    0  0.00000000000E+00  0.00000000000E+00  0.45593999997E+02  0.45594000000E+02  0.51100000000E-03 0.  1.
         11   -1    0    0    0    0 -0.00000000000E+00 -0.00000000000E+00 -0.45593999997E+02  0.45594000000E+02  0.51100000000E-03 0. -1.
    9900012    2    1    2    0    0 -0.22290518081E+02  0.36924730941E+02 -0.48291324307E+01  0.47787268768E+02  0.19999989621E+02 0.  0.
         12    1    1    2    0    0  0.22290518081E+02 -0.36924730941E+02  0.48291324307E+01  0.43400731232E+02  0.00000000000E+00 0. -1.
         11    1    3    3    0    0  0.21673956804E+00  0.15160588491E+01  0.12124646981E+01  0.19533257229E+01  0.51100000000E-03 0. -1.
        -11    1    3    3    0    0 -0.28149812081E+01 -0.16270482840E+01 -0.16869277966E+01  0.36629402087E+01  0.51100000000E-03 0.  1.
        -12    1    3    3    0    0 -0.19692276441E+02  0.37035720376E+02 -0.43546693322E+01  0.42171002836E+02  0.00000000000E+00 0.  1.
</event>
<event>
 7    1  0.2455451E-009  0.4778727E+02  0.7816164E-02  0.1312668E+00
        -11   -1    0    0    0    0  0.00000000000E+00  0.00000000000E+00  0.45593999997E+02  0.45594000000E+02  0.51100000000E-03 0.  1.
         11   -1    0    0    0    0 -0.00000000000E+00 -0.00000000000E+00 -0.45593999997E+02  0.45594000000E+02  0.51100000000E-03 0. -1.
    9900012    2    1    2    0    0 -0.45117552274E+01  0.42258490415E+02  0.88027093078E+01  0.47787266843E+02  0.19999980843E+02 0.  0.
         12    1    1    2    0    0  0.45117552274E+01 -0.42258490415E+02 -0.88027093078E+01  0.43400733157E+02  0.00000000000E+00 0. -1.
         11    1    3    3    0    0 -0.55662540254E+01  0.40810648876E+01 -0.27981333623E+01  0.74476724597E+01  0.51100000000E-03 0. -1.
        -11    1    3    3    0    0  0.54439380579E+00  0.16853965630E+02  0.81633959670E+01  0.18734822018E+02  0.51100000000E-03 0.  1.
         12    1    3    3    0    0  0.51010499222E+00  0.21323459897E+02  0.34374467031E+01  0.21604772365E+02  0.00000000000E+00 0. -1.
</event>
<event>
 7    1  0.2455451E-009  0.4778730E+02  0.7816164E-02  0.1312668E+00
        -11   -1    0    0    0    0  0.00000000000E+00  0.00000000000E+00  0.45593999997E+02  0.45594000000E+02  0.51100000000E-03 0.  1.
         11   -1    0    0    0    0 -0.00000000000E+00 -0.00000000000E+00 -0.45593999997E+02  0.45594000000E+02  0.51100000000E-03 0. -1.
    9900012    2    1    2    0    0  0.40250781087E+02 -0.10422866671E+02  0.12444239970E+02  0.47787301432E+02  0.20000138550E+02 0.  0.
         12    1    1    2    0    0 -0.40250781087E+02  0.10422866671E+02 -0.12444239970E+02  0.43400698568E+02  0.00000000000E+00 0. -1.
         11    1    3    3    0    0  0.17449951249E+02 -0.43122307764E+00 -0.58558158254E+00  0.17465098281E+02  0.51100000000E-03 0. -1.
        -11    1    3    3    0    0  0.12344060976E+02 -0.54953756178E+01  0.13268168309E+02  0.18937245974E+02  0.51100000000E-03 0.  1.
         12    1    3    3    0    0  0.10456768862E+02 -0.44962679755E+01 -0.23834675601E+00  0.11384957177E+02  0.00000000000E+00 0. -1.
</event>
<event>
 7    1  0.2455451E-009  0.4778727E+02  0.7816164E-02  0.1312668E+00
        -11   -1    0    0    0    0  0.00000000000E+00  0.00000000000E+00  0.45593999997E+02  0.45594000000E+02  0.51100000000E-03 0. -1.
         11   -1    0    0    0    0 -0.00000000000E+00 -0.00000000000E+00 -0.45593999997E+02  0.45594000000E+02  0.51100000000E-03 0.  1.
    9900012    2    1    2    0    0 -0.42880612979E+02  0.50410300625E+01 -0.44118264080E+01  0.47787272290E+02  0.20000005678E+02 0.  0.
         12    1    1    2    0    0  0.42880612979E+02 -0.50410300625E+01  0.44118264080E+01  0.43400727710E+02  0.00000000000E+00 0. -1.
         11    1    3    3    0    0 -0.98198135735E+01 -0.15764796568E+01  0.12955063192E+01  0.10029574448E+02  0.51100000000E-03 0. -1.
        -11    1    3    3    0    0 -0.34623244627E+02  0.72032633340E+01 -0.43987143855E+01  0.35637126142E+02  0.51100000000E-03 0.  1.
        -12    1    3    3    0    0  0.15624452219E+01 -0.58575361473E+00 -0.13086183418E+01  0.21205716996E+01  0.00000000000E+00 0.  1.
</event>
<event>
 7    1  0.2455451E-009  0.4778727E+02  0.7816164E-02  0.1312668E+00
        -11   -1    0    0    0    0  0.00000000000E+00  0.00000000000E+00  0.45593999997E+02  0.45594000000E+02  0.51100000000E-03 0.  1.
         11   -1    0    0    0    0 -0.00000000000E+00 -0.00000000000E+00 -0.45593999997E+02  0.45594000000E+02  0.51100000000E-03 0. -1.
    9900012    2    1    2    0    0  0.38754601504E+02  0.10426561845E+02  0.16522433796E+02  0.47787272493E+02  0.20000006605E+02 0.  0.
         12    1    1    2    0    0 -0.38754601504E+02 -0.10426561845E+02 -0.16522433796E+02  0.43400727507E+02  0.00000000000E+00 0. -1.
         11    1    3    3    0    0  0.63262680895E+01  0.26997469698E+01  0.91024786755E+01  0.11409006089E+02  0.51100000000E-03 0. -1.
        -11    1    3    3    0    0  0.14890662323E+02  0.16267959849E+01  0.94318098372E+01  0.17701336860E+02  0.51100000000E-03 0.  1.
         12    1    3    3    0    0  0.17537671091E+02  0.61000188902E+01 -0.20118547171E+01  0.18676929544E+02  0.00000000000E+00 0. -1.
</event>
<event>
 7    1  0.2455451E-009  0.4778727E+02  0.7816164E-02  0.1312668E+00
        -11   -1    0    0    0    0  0.00000000000E+00  0.00000000000E+00  0.45593999997E+02  0.45594000000E+02  0.51100000000E-03 0. -1.
         11   -1    0    0    0    0 -0.00000000000E+00 -0.00000000000E+00 -0.45593999997E+02  0.45594000000E+02  0.51100000000E-03 0.  1.
    9900012    2    1    2    0    0  0.60733012459E+01 -0.24244460582E+02 -0.35481607320E+02  0.47787270571E+02  0.19999997843E+02 0.  0.
         12    1    1    2    0    0 -0.60733012459E+01  0.24244460582E+02  0.35481607320E+02  0.43400729429E+02  0.00000000000E+00 0. -1.
         11    1    3    3    0    0 -0.42386264093E+01 -0.96639307658E+01 -0.19864922694E+02  0.22493836169E+02  0.51100000000E-03 0. -1.
        -11    1    3    3    0    0  0.80432532507E+01 -0.38291887014E+01 -0.70646225483E+01  0.11369498713E+02  0.51100000000E-03 0.  1.
         12    1    3    3    0    0  0.22686744045E+01 -0.10751341115E+02 -0.85520620774E+01  0.13923935690E+02  0.00000000000E+00 0. -1.
</event>
<event>
 7    1  0.2455451E-009  0.4778727E+02  0.7816164E-02  0.1312668E+00
        -11   -1    0    0    0    0  0.00000000000E+00  0.00000000000E+00  0.45593999997E+02  0.45594000000E+02  0.51100000000E-03 0.  1.
         11   -1    0    0    0    0 -0.00000000000E+00 -0.00000000000E+00 -0.45593999997E+02  0.45594000000E+02  0.51100000000E-03 0. -1.
    9900012    2    1    2    0    0  0.36035586635E+02 -0.23808223837E+02  0.42694830813E+01  0.47787268299E+02  0.19999987482E+02 0.  0.
         12    1    1    2    0    0 -0.36035586635E+02  0.23808223837E+02 -0.42694830813E+01  0.43400731701E+02  0.00000000000E+00 0. -1.
         11    1    3    3    0    0  0.34651968611E+01  0.25337208744E+00 -0.32322127544E+01  0.47454173948E+01  0.51100000000E-03 0. -1.
        -11    1    3    3    0    0  0.15616031362E+02 -0.88891166056E+01  0.92740549830E+01  0.20220903185E+02  0.51100000000E-03 0.  1.
        -12    1    3    3    0    0  0.16954358412E+02 -0.15172479319E+02 -0.17723591473E+01  0.22820947719E+02  0.00000000000E+00 0.  1.
</event>
<event>
 7    1  0.2455451E-009  0.4778727E+02  0.7816164E-02  0.1312668E+00
        -11   -1    0    0    0    0  0.00000000000E+00  0.00000000000E+00  0.45593999997E+02  0.45594000000E+02  0.51100000000E-03 0.  1.
         11   -1    0    0    0    0 -0.00000000000E+00 -0.00000000000E+00 -0.45593999997E+02  0.45594000000E+02  0.51100000000E-03 0. -1.
    9900012    2    1    2    0    0  0.32293388743E+02  0.40239570481E+01  0.28715296199E+02  0.47787269331E+02  0.19999992188E+02 0.  0.
         12    1    1    2    0    0 -0.32293388743E+02 -0.40239570481E+01 -0.28715296199E+02  0.43400730669E+02  0.00000000000E+00 0. -1.
         11    1    3    3    0    0  0.65598783112E+01 -0.51275195023E+01  0.71552427099E+01  0.10978203779E+02  0.51100000000E-03 0. -1.
        -11    1    3    3    0    0  0.22338039085E+02  0.11272856201E+02  0.15147060496E+02  0.29248909706E+02  0.51100000000E-03 0.  1.
        -12    1    3    3    0    0  0.33954713467E+01 -0.21213796502E+01  0.64129929936E+01  0.75601558464E+01  0.00000000000E+00 0.  1.
</event>
<event>
 7    1  0.2543877E-009  0.4778726E+02  0.7816164E-02  0.1312668E+00
        -11   -1    0    0    0    0  0.00000000000E+00  0.00000000000E+00  0.45593999997E+02  0.45594000000E+02  0.51100000000E-03 0.  1.
         11   -1    0    0    0    0 -0.00000000000E+00 -0.00000000000E+00 -0.45593999997E+02  0.45594000000E+02  0.51100000000E-03 0. -1.
    9900012    2    1    2    0    0  0.36078208591E+02  0.86123038393E+01  0.22534748978E+02  0.47787264705E+02  0.19999971098E+02 0.  0.
         12    1    1    2    0    0 -0.36078208591E+02 -0.86123038393E+01 -0.22534748978E+02  0.43400735295E+02  0.00000000000E+00 0. -1.
         11    1    3    3    0    0  0.15246680303E+02 -0.55145154075E+01  0.93186758639E+01  0.18700504286E+02  0.51100000000E-03 0. -1.
        -11    1    3    3    0    0  0.16319210926E+02  0.78185567212E+01  0.83360647083E+01  0.19923264028E+02  0.51100000000E-03 0.  1.
         12    1    3    3    0    0  0.45123173633E+01  0.63082625256E+01  0.48800084063E+01  0.91634963919E+01  0.00000000000E+00 0. -1.
</event>
<event>
 7    1  0.2455451E-009  0.4778727E+02  0.7816164E-02  0.1312668E+00
        -11   -1    0    0    0    0  0.00000000000E+00  0.00000000000E+00  0.45593999997E+02  0.45594000000E+02  0.51100000000E-03 0.  1.
         11   -1    0    0    0    0 -0.00000000000E+00 -0.00000000000E+00 -0.45593999997E+02  0.45594000000E+02  0.51100000000E-03 0. -1.
    9900012    2    1    2    0    0 -0.15037809843E+01 -0.42016176157E+02  0.10770469995E+02  0.47787269131E+02  0.19999991274E+02 0.  0.
         12    1    1    2    0    0  0.15037809843E+01  0.42016176157E+02 -0.10770469995E+02  0.43400730869E+02  0.00000000000E+00 0. -1.
         11    1    3    3    0    0 -0.93954498920E+00 -0.80139984814E+01 -0.57222899598E+00  0.80891509277E+01  0.51100000000E-03 0. -1.
        -11    1    3    3    0    0  0.82137078905E+01 -0.17556232335E+02  0.51607557473E+01  0.20057908446E+02  0.51100000000E-03 0.  1.
        -12    1    3    3    0    0 -0.87779438856E+01 -0.16445945341E+02  0.61819432438E+01  0.19640209756E+02  0.00000000000E+00 0.  1.
</event>
<event>
 7    1  0.2455451E-009  0.4778727E+02  0.7816164E-02  0.1312668E+00
        -11   -1    0    0    0    0  0.00000000000E+00  0.00000000000E+00  0.45593999997E+02  0.45594000000E+02  0.51100000000E-03 0.  1.
         11   -1    0    0    0    0 -0.00000000000E+00 -0.00000000000E+00 -0.45593999997E+02  0.45594000000E+02  0.51100000000E-03 0. -1.
    9900012    2    1    2    0    0  0.32709033568E+02 -0.24642432771E+02  0.14369864586E+02  0.47787269844E+02  0.19999994527E+02 0.  0.
         12    1    1    2    0    0 -0.32709033568E+02  0.24642432771E+02 -0.14369864586E+02  0.43400730156E+02  0.00000000000E+00 0. -1.
         11    1    3    3    0    0  0.10503901616E+02  0.52629108565E+00  0.27813489821E+00  0.10520755236E+02  0.51100000000E-03 0. -1.
        -11    1    3    3    0    0  0.12813230522E+02 -0.11033854706E+02  0.35181049976E+01  0.17271418272E+02  0.51100000000E-03 0.  1.
         12    1    3    3    0    0  0.93919014303E+01 -0.14134869151E+02  0.10573624691E+02  0.19995096336E+02  0.00000000000E+00 0. -1.
</event>
<event>
 7    1  0.2455451E-009  0.4778727E+02  0.7816164E-02  0.1312668E+00
        -11   -1    0    0    0    0  0.00000000000E+00  0.00000000000E+00  0.45593999997E+02  0.45594000000E+02  0.51100000000E-03 0.  1.
         11   -1    0    0    0    0 -0.00000000000E+00 -0.00000000000E+00 -0.45593999997E+02  0.45594000000E+02  0.51100000000E-03 0. -1.
    9900012    2    1    2    0    0 -0.20851128602E+02 -0.31473315892E+02  0.21407576771E+02  0.47787268204E+02  0.19999987050E+02 0.  0.
         12    1    1    2    0    0  0.20851128602E+02  0.31473315892E+02 -0.21407576771E+02  0.43400731796E+02  0.00000000000E+00 0. -1.
         11    1    3    3    0    0 -0.15983133504E+02 -0.30776201007E+02  0.14374191826E+02  0.37540011933E+02  0.51100000000E-03 0. -1.
        -11    1    3    3    0    0 -0.50290890974E+01 -0.19247647443E+01  0.72074817731E+01  0.89969022580E+01  0.51100000000E-03 0.  1.
         12    1    3    3    0    0  0.16109399914E+00  0.12276498593E+01 -0.17409682793E+00  0.12503540135E+01  0.00000000000E+00 0. -1.
</event>
<event>
 7    1  0.2455451E-009  0.4778727E+02  0.7816164E-02  0.1312668E+00
        -11   -1    0    0    0    0  0.00000000000E+00  0.00000000000E+00  0.45593999997E+02  0.45594000000E+02  0.51100000000E-03 0.  1.
         11   -1    0    0    0    0 -0.00000000000E+00 -0.00000000000E+00 -0.45593999997E+02  0.45594000000E+02  0.51100000000E-03 0. -1.
    9900012    2    1    2    0    0 -0.39891850123E+02  0.13963680742E+02  0.98630277743E+01  0.47787269557E+02  0.19999993217E+02 0.  0.
         12    1    1    2    0    0  0.39891850123E+02 -0.13963680742E+02 -0.98630277743E+01  0.43400730443E+02  0.00000000000E+00 0. -1.
         11    1    3    3    0    0 -0.13372335916E+02  0.69449887151E+01 -0.17410169698E+01  0.15168499479E+02  0.51100000000E-03 0. -1.
        -11    1    3    3    0    0 -0.54693347293E+01  0.49366995164E+01  0.84845578750E+01  0.11237096916E+02  0.51100000000E-03 0.  1.
        -12    1    3    3    0    0 -0.21050179478E+02  0.20819925101E+01  0.31194868690E+01  0.21381673162E+02  0.00000000000E+00 0.  1.
</event>
<event>
 7    1  0.2455451E-009  0.4778726E+02  0.7816164E-02  0.1312668E+00
        -11   -1    0    0    0    0  0.00000000000E+00  0.00000000000E+00  0.45593999997E+02  0.45594000000E+02  0.51100000000E-03 0. -1.
         11   -1    0    0    0    0 -0.00000000000E+00 -0.00000000000E+00 -0.45593999997E+02  0.45594000000E+02  0.51100000000E-03 0.  1.
    9900012    2    1    2    0    0 -0.38824018403E+02  0.87804469080E+01  0.17298067898E+02  0.47787264915E+02  0.19999972054E+02 0.  0.
         12    1    1    2    0    0  0.38824018403E+02 -0.87804469080E+01 -0.17298067898E+02  0.43400735085E+02  0.00000000000E+00 0. -1.
         11    1    3    3    0    0 -0.59390862715E+01  0.64983421456E+01  0.45335764275E+01  0.99022478189E+01  0.51100000000E-03 0. -1.
        -11    1    3    3    0    0 -0.12720509423E+02 -0.26376806676E+01 -0.92047546943E+00  0.13023670552E+02  0.51100000000E-03 0.  1.
        -12    1    3    3    0    0 -0.20164422709E+02  0.49197854300E+01  0.13684966940E+02  0.24861346545E+02  0.00000000000E+00 0.  1.
</event>
<event>
 7    1  0.2455451E-009  0.4778727E+02  0.7816164E-02  0.1312668E+00
        -11   -1    0    0    0    0  0.00000000000E+00  0.00000000000E+00  0.45593999997E+02  0.45594000000E+02  0.51100000000E-03 0.  1.
         11   -1    0    0    0    0 -0.00000000000E+00 -0.00000000000E+00 -0.45593999997E+02  0.45594000000E+02  0.51100000000E-03 0. -1.
    9900012    2    1    2    0    0  0.68286922162E+01 -0.27608508765E+02  0.32783572344E+02  0.47787269485E+02  0.19999992892E+02 0.  0.
         12    1    1    2    0    0 -0.68286922162E+01  0.27608508765E+02 -0.32783572344E+02  0.43400730515E+02  0.00000000000E+00 0. -1.
         11    1    3    3    0    0  0.43482747149E+01 -0.19020713488E+02  0.97859066341E+01  0.21827940890E+02  0.51100000000E-03 0. -1.
        -11    1    3    3    0    0  0.50876301466E+01 -0.60944744023E+01  0.18901477752E+02  0.20501035589E+02  0.51100000000E-03 0.  1.
         12    1    3    3    0    0 -0.26072126453E+01 -0.24933208739E+01  0.40961879579E+01  0.54582930065E+01  0.00000000000E+00 0. -1.
</event>
<event>
 7    1  0.2455451E-009  0.4778727E+02  0.7816164E-02  0.1312668E+00
        -11   -1    0    0    0    0  0.00000000000E+00  0.00000000000E+00  0.45593999997E+02  0.45594000000E+02  0.51100000000E-03 0.  1.
         11   -1    0    0    0    0 -0.00000000000E+00 -0.00000000000E+00 -0.45593999997E+02  0.45594000000E+02  0.51100000000E-03 0. -1.
    9900012    2    1    2    0    0  0.64963571757E+01  0.32194807417E+02  0.28371028309E+02  0.47787268111E+02  0.19999986626E+02 0.  0.
         12    1    1    2    0    0 -0.64963571757E+01 -0.32194807417E+02 -0.28371028309E+02  0.43400731889E+02  0.00000000000E+00 0. -1.
         11    1    3    3    0    0 -0.52105788984E+01  0.48210699814E+01  0.26413177691E+01  0.75742595705E+01  0.51100000000E-03 0. -1.
        -11    1    3    3    0    0  0.11833117660E+01  0.10689209761E+02  0.60067872803E+01  0.12318316676E+02  0.51100000000E-03 0.  1.
         12    1    3    3    0    0  0.10523624308E+02  0.16684527675E+02  0.19722923260E+02  0.27894691865E+02  0.00000000000E+00 0. -1.
</event>
<event>
 7    1  0.2455451E-009  0.4778728E+02  0.7816164E-02  0.1312668E+00
        -11   -1    0    0    0    0  0.00000000000E+00  0.00000000000E+00  0.45593999997E+02  0.45594000000E+02  0.51100000000E-03 0.  1.
         11   -1    0    0    0    0 -0.00000000000E+00 -0.00000000000E+00 -0.45593999997E+02  0.45594000000E+02  0.51100000000E-03 0. -1.
    9900012    2    1    2    0    0  0.37574601921E+02 -0.10129679508E+02  0.19213577871E+02  0.47787277759E+02  0.20000030612E+02 0.  0.
         12    1    1    2    0    0 -0.37574601921E+02  0.10129679508E+02 -0.19213577871E+02  0.43400722241E+02  0.00000000000E+00 0. -1.
         11    1    3    3    0    0  0.31932061010E+01  0.17523783437E+00 -0.53633361561E+00  0.32426728960E+01  0.51100000000E-03 0. -1.
        -11    1    3    3    0    0  0.31776130698E+02 -0.27040688928E+01  0.15645605780E+02  0.35522098069E+02  0.51100000000E-03 0.  1.
        -12    1    3    3    0    0  0.26052651218E+01 -0.76008484495E+01  0.41043057073E+01  0.90225067939E+01  0.00000000000E+00 0.  1.
</event>
<event>
 7    1  0.2455451E-009  0.4778727E+02  0.7816164E-02  0.1312668E+00
        -11   -1    0    0    0    0  0.00000000000E+00  0.00000000000E+00  0.45593999997E+02  0.45594000000E+02  0.51100000000E-03 0.  1.
         11   -1    0    0    0    0 -0.00000000000E+00 -0.00000000000E+00 -0.45593999997E+02  0.45594000000E+02  0.51100000000E-03 0. -1.
    9900012    2    1    2    0    0  0.18405425002E+02 -0.13636734041E+02  0.36863301714E+02  0.47787271917E+02  0.20000003980E+02 0.  0.
         12    1    1    2    0    0 -0.18405425002E+02  0.13636734041E+02 -0.36863301714E+02  0.43400728083E+02  0.00000000000E+00 0. -1.
         11    1    3    3    0    0  0.72432935161E+01  0.76422160288E+00  0.86655154081E+01  0.11319915776E+02  0.51100000000E-03 0. -1.
        -11    1    3    3    0    0  0.75253736002E+01 -0.14381068348E+02  0.28521155943E+02  0.32816195868E+02  0.51100000000E-03 0.  1.
        -12    1    3    3    0    0  0.36367578857E+01 -0.19887295598E-01 -0.32336963646E+00  0.36511602739E+01  0.00000000000E+00 0.  1.
</event>
<event>
 7    1  0.2455451E-009  0.4778727E+02  0.7816164E-02  0.1312668E+00
        -11   -1    0    0    0    0  0.00000000000E+00  0.00000000000E+00  0.45593999997E+02  0.45594000000E+02  0.51100000000E-03 0.  1.
         11   -1    0    0    0    0 -0.00000000000E+00 -0.00000000000E+00 -0.45593999997E+02  0.45594000000E+02  0.51100000000E-03 0. -1.
    9900012    2    1    2    0    0  0.23766430234E+02  0.15515380368E+02  0.32833719027E+02  0.47787270292E+02  0.19999996570E+02 0.  0.
         12    1    1    2    0    0 -0.23766430234E+02 -0.15515380368E+02 -0.32833719027E+02  0.43400729708E+02  0.00000000000E+00 0. -1.
         11    1    3    3    0    0  0.11474369934E+02  0.11714466199E+02  0.91811752311E+01  0.18793186600E+02  0.51100000000E-03 0. -1.
        -11    1    3    3    0    0  0.10624863670E+02 -0.13552382588E+01  0.19178659137E+02  0.21966915243E+02  0.51100000000E-03 0.  1.
        -12    1    3    3    0    0  0.16671966303E+01  0.51561524283E+01  0.44738846586E+01  0.70271684487E+01  0.00000000000E+00 0.  1.
</event>
<event>
 7    1  0.2455451E-009  0.4778727E+02  0.7816164E-02  0.1312668E+00
        -11   -1    0    0    0    0  0.00000000000E+00  0.00000000000E+00  0.45593999997E+02  0.45594000000E+02  0.51100000000E-03 0.  1.
         11   -1    0    0    0    0 -0.00000000000E+00 -0.00000000000E+00 -0.45593999997E+02  0.45594000000E+02  0.51100000000E-03 0. -1.
    9900012    2    1    2    0    0 -0.20986320554E+02 -0.13336554671E+02  0.35571538196E+02  0.47787266475E+02  0.19999979166E+02 0.  0.
         12    1    1    2    0    0  0.20986320554E+02  0.13336554671E+02 -0.35571538196E+02  0.43400733525E+02  0.00000000000E+00 0. -1.
         11    1    3    3    0    0 -0.60810879234E+01 -0.20673441162E+01  0.29464953247E+01  0.70664967973E+01  0.51100000000E-03 0. -1.
        -11    1    3    3    0    0 -0.11092591866E+02  0.12759242382E+01  0.16760531704E+02  0.20139240309E+02  0.51100000000E-03 0.  1.
        -12    1    3    3    0    0 -0.38126407644E+01 -0.12545134793E+02  0.15864511167E+02  0.20581529369E+02  0.00000000000E+00 0.  1.
</event>
<event>
 7    1  0.2455451E-009  0.4778727E+02  0.7816164E-02  0.1312668E+00
        -11   -1    0    0    0    0  0.00000000000E+00  0.00000000000E+00  0.45593999997E+02  0.45594000000E+02  0.51100000000E-03 0.  1.
         11   -1    0    0    0    0 -0.00000000000E+00 -0.00000000000E+00 -0.45593999997E+02  0.45594000000E+02  0.51100000000E-03 0. -1.
    9900012    2    1    2    0    0  0.89890779224E+01  0.40989082071E+02 -0.11077668985E+02  0.47787272805E+02  0.20000008026E+02 0.  0.
         12    1    1    2    0    0 -0.89890779224E+01 -0.40989082071E+02  0.11077668985E+02  0.43400727195E+02  0.00000000000E+00 0. -1.
         11    1    3    3    0    0  0.14178211921E+02  0.18341765457E+02 -0.64256216403E+01  0.24056821633E+02  0.51100000000E-03 0. -1.
        -11    1    3    3    0    0 -0.31673523692E+01  0.14217203127E+02 -0.22844851145E+01  0.14743807456E+02  0.51100000000E-03 0.  1.
         12    1    3    3    0    0 -0.20217816296E+01  0.84301134865E+01 -0.23675622299E+01  0.89866437153E+01  0.00000000000E+00 0. -1.
</event>
<event>
 7    1  0.2455451E-009  0.4778727E+02  0.7816164E-02  0.1312668E+00
        -11   -1    0    0    0    0  0.00000000000E+00  0.00000000000E+00  0.45593999997E+02  0.45594000000E+02  0.51100000000E-03 0.  1.
         11   -1    0    0    0    0 -0.00000000000E+00 -0.00000000000E+00 -0.45593999997E+02  0.45594000000E+02  0.51100000000E-03 0. -1.
    9900012    2    1    2    0    0 -0.29434250567E+02  0.71595571201E+01  0.31080361642E+02  0.47787271384E+02  0.20000001549E+02 0.  0.
         12    1    1    2    0    0  0.29434250567E+02 -0.71595571201E+01 -0.31080361642E+02  0.43400728616E+02  0.00000000000E+00 0. -1.
         11    1    3    3    0    0 -0.17402107638E+02 -0.39536135827E+01  0.15541488156E+02  0.23664366989E+02  0.51100000000E-03 0. -1.
        -11    1    3    3    0    0 -0.10390654055E+02  0.91817547537E+01  0.16371877844E+02  0.21454805906E+02  0.51100000000E-03 0.  1.
        -12    1    3    3    0    0 -0.16414888727E+01  0.19314159491E+01 -0.83300435802E+00  0.26680984892E+01  0.00000000000E+00 0.  1.
</event>
<event>
 7    1  0.2455451E-009  0.4778727E+02  0.7816164E-02  0.1312668E+00
        -11   -1    0    0    0    0  0.00000000000E+00  0.00000000000E+00  0.45593999997E+02  0.45594000000E+02  0.51100000000E-03 0.  1.
         11   -1    0    0    0    0 -0.00000000000E+00 -0.00000000000E+00 -0.45593999997E+02  0.45594000000E+02  0.51100000000E-03 0. -1.
    9900012    2    1    2    0    0 -0.34626150176E+02 -0.20551756073E+02  0.16195006453E+02  0.47787272037E+02  0.20000004525E+02 0.  0.
         12    1    1    2    0    0  0.34626150176E+02  0.20551756073E+02 -0.16195006453E+02  0.43400727963E+02  0.00000000000E+00 0. -1.
         11    1    3    3    0    0 -0.19116287265E+02 -0.14211186364E+02  0.49847531005E+01  0.24335940919E+02  0.51100000000E-03 0. -1.
        -11    1    3    3    0    0 -0.39729682772E+01  0.21611612095E+01  0.73151265338E+01  0.86003587815E+01  0.51100000000E-03 0.  1.
        -12    1    3    3    0    0 -0.11536894634E+02 -0.85017309193E+01  0.38951268186E+01  0.14850972337E+02  0.00000000000E+00 0.  1.
</event>
<event>
 7    1  0.2455451E-009  0.4778727E+02  0.7816164E-02  0.1312668E+00
        -11   -1    0    0    0    0  0.00000000000E+00  0.00000000000E+00  0.45593999997E+02  0.45594000000E+02  0.51100000000E-03 0. -1.
         11   -1    0    0    0    0 -0.00000000000E+00 -0.00000000000E+00 -0.45593999997E+02  0.45594000000E+02  0.51100000000E-03 0.  1.
    9900012    2    1    2    0    0  0.29676770719E+02  0.31097255120E+02  0.59894374304E+01  0.47787270086E+02  0.19999995629E+02 0.  0.
         12    1    1    2    0    0 -0.29676770719E+02 -0.31097255120E+02 -0.59894374304E+01  0.43400729914E+02  0.00000000000E+00 0. -1.
         11    1    3    3    0    0  0.12209634594E+02  0.94924321440E+01 -0.44158578887E+01  0.16083570688E+02  0.51100000000E-03 0. -1.
        -11    1    3    3    0    0  0.11699407435E+02  0.98136600187E+01  0.10578073300E+02  0.18576320741E+02  0.51100000000E-03 0.  1.
        -12    1    3    3    0    0  0.57677286903E+01  0.11791162958E+02 -0.17277798106E+00  0.13127378656E+02  0.00000000000E+00 0.  1.
</event>
<event>
 7    1  0.2455451E-009  0.4778727E+02  0.7816164E-02  0.1312668E+00
        -11   -1    0    0    0    0  0.00000000000E+00  0.00000000000E+00  0.45593999997E+02  0.45594000000E+02  0.51100000000E-03 0.  1.
         11   -1    0    0    0    0 -0.00000000000E+00 -0.00000000000E+00 -0.45593999997E+02  0.45594000000E+02  0.51100000000E-03 0. -1.
    9900012    2    1    2    0    0  0.27413704137E+01  0.33793439127E+02  0.27094494792E+02  0.47787270884E+02  0.19999999270E+02 0.  0.
         12    1    1    2    0    0 -0.27413704137E+01 -0.33793439127E+02 -0.27094494792E+02  0.43400729116E+02  0.00000000000E+00 0. -1.
         11    1    3    3    0    0 -0.19743261938E+01  0.28446145486E+01 -0.28116216072E+01  0.44603825142E+01  0.51100000000E-03 0. -1.
        -11    1    3    3    0    0  0.19407366641E+01  0.14843332348E+02  0.13235582197E+02  0.19981781961E+02  0.51100000000E-03 0.  1.
         12    1    3    3    0    0  0.27749599434E+01  0.16105492230E+02  0.16670534203E+02  0.23345106409E+02  0.00000000000E+00 0. -1.
</event>
<event>
 7    1  0.2455451E-009  0.4778726E+02  0.7816164E-02  0.1312668E+00
        -11   -1    0    0    0    0  0.00000000000E+00  0.00000000000E+00  0.45593999997E+02  0.45594000000E+02  0.51100000000E-03 0. -1.
         11   -1    0    0    0    0 -0.00000000000E+00 -0.00000000000E+00 -0.45593999997E+02  0.45594000000E+02  0.51100000000E-03 0.  1.
    9900012    2    1    2    0    0 -0.35771461568E+02  0.11763151132E+02 -0.21579035687E+02  0.47787263043E+02  0.19999963516E+02 0.  0.
         12    1    1    2    0    0  0.35771461568E+02 -0.11763151132E+02  0.21579035687E+02  0.43400736957E+02  0.00000000000E+00 0. -1.
         11    1    3    3    0    0 -0.11808445260E+02  0.23887243188E+01 -0.16625984105E+02  0.20532138979E+02  0.51100000000E-03 0. -1.
        -11    1    3    3    0    0 -0.44140013323E+01  0.51822900583E+01 -0.13323416681E+01  0.69364740749E+01  0.51100000000E-03 0.  1.
         12    1    3    3    0    0 -0.19549014975E+02  0.41921367552E+01 -0.36207099144E+01  0.20318649989E+02  0.00000000000E+00 0. -1.
</event>
<event>
 7    1  0.2455451E-009  0.4778727E+02  0.7816164E-02  0.1312668E+00
        -11   -1    0    0    0    0  0.00000000000E+00  0.00000000000E+00  0.45593999997E+02  0.45594000000E+02  0.51100000000E-03 0.  1.
         11   -1    0    0    0    0 -0.00000000000E+00 -0.00000000000E+00 -0.45593999997E+02  0.45594000000E+02  0.51100000000E-03 0. -1.
    9900012    2    1    2    0    0 -0.69946279256E+01  0.35013080203E+01  0.42690037431E+02  0.47787271049E+02  0.20000000020E+02 0.  0.
         12    1    1    2    0    0  0.69946279256E+01 -0.35013080203E+01 -0.42690037431E+02  0.43400728951E+02  0.00000000000E+00 0. -1.
         11    1    3    3    0    0 -0.30363312993E+00  0.23144190786E+01  0.18923117939E+01  0.30049247803E+01  0.51100000000E-03 0. -1.
        -11    1    3    3    0    0  0.57598103225E+00 -0.99164811017E-01 -0.16227102052E+01  0.17247540348E+01  0.51100000000E-03 0.  1.
        -12    1    3    3    0    0 -0.72669758279E+01  0.12860537527E+01  0.42420435842E+02  0.43057592234E+02  0.00000000000E+00 0.  1.
</event>
<event>
 7    1  0.2455451E-009  0.4778727E+02  0.7816164E-02  0.1312668E+00
        -11   -1    0    0    0    0  0.00000000000E+00  0.00000000000E+00  0.45593999997E+02  0.45594000000E+02  0.51100000000E-03 0.  1.
         11   -1    0    0    0    0 -0.00000000000E+00 -0.00000000000E+00 -0.45593999997E+02  0.45594000000E+02  0.51100000000E-03 0. -1.
    9900012    2    1    2    0    0 -0.25479221203E+01 -0.80188348138E+00  0.43318452557E+02  0.47787271248E+02  0.20000000928E+02 0.  0.
         12    1    1    2    0    0  0.25479221203E+01  0.80188348138E+00 -0.43318452557E+02  0.43400728752E+02  0.00000000000E+00 0. -1.
         11    1    3    3    0    0 -0.37383874566E+01  0.50007583714E+00  0.10057496701E+00  0.37730269286E+01  0.51100000000E-03 0. -1.
        -11    1    3    3    0    0 -0.74694127878E+00  0.25651875048E+01  0.29730047800E+02  0.29849855120E+02  0.51100000000E-03 0.  1.
        -12    1    3    3    0    0  0.19374066151E+01 -0.38671468233E+01  0.13487829790E+02  0.14164389199E+02  0.00000000000E+00 0.  1.
</event>
<event>
 7    1  0.2455451E-009  0.4778727E+02  0.7816164E-02  0.1312668E+00
        -11   -1    0    0    0    0  0.00000000000E+00  0.00000000000E+00  0.45593999997E+02  0.45594000000E+02  0.51100000000E-03 0.  1.
         11   -1    0    0    0    0 -0.00000000000E+00 -0.00000000000E+00 -0.45593999997E+02  0.45594000000E+02  0.51100000000E-03 0. -1.
    9900012    2    1    2    0    0 -0.10339065910E+02 -0.88038600159E+01  0.41221580632E+02  0.47787274834E+02  0.20000017280E+02 0.  0.
         12    1    1    2    0    0  0.10339065910E+02  0.88038600159E+01 -0.41221580632E+02  0.43400725166E+02  0.00000000000E+00 0. -1.
         11    1    3    3    0    0 -0.84093776486E+01 -0.59490486752E+01  0.12721827898E+02  0.16369291918E+02  0.51100000000E-03 0. -1.
        -11    1    3    3    0    0  0.30387578663E+01  0.38320046149E+01  0.10806430745E+02  0.11861587349E+02  0.51100000000E-03 0.  1.
        -12    1    3    3    0    0 -0.49684461279E+01 -0.66868159556E+01  0.17693321990E+02  0.19556395568E+02  0.00000000000E+00 0.  1.
</event>
<event>
 7    1  0.2455451E-009  0.4778732E+02  0.7816164E-02  0.1312668E+00
        -11   -1    0    0    0    0  0.00000000000E+00  0.00000000000E+00  0.45593999997E+02  0.45594000000E+02  0.51100000000E-03 0.  1.
         11   -1    0    0    0    0 -0.00000000000E+00 -0.00000000000E+00 -0.45593999997E+02  0.45594000000E+02  0.51100000000E-03 0. -1.
    9900012    2    1    2    0    0 -0.33740634633E+02  0.24010962940E+02  0.12986996075E+02  0.47787322197E+02  0.20000233224E+02 0.  0.
         12    1    1    2    0    0  0.33740634633E+02 -0.24010962940E+02 -0.12986996075E+02  0.43400677803E+02  0.00000000000E+00 0. -1.
         11    1    3    3    0    0 -0.47088952824E+01  0.43573368099E+01  0.59020557456E+01  0.87174733232E+01  0.51100000000E-03 0. -1.
        -11    1    3    3    0    0 -0.24380253239E+02  0.78996551719E+01  0.30956988607E+01  0.25814427197E+02  0.51100000000E-03 0.  1.
        -12    1    3    3    0    0 -0.46514861111E+01  0.11753970958E+02  0.39892414682E+01  0.13255421676E+02  0.00000000000E+00 0.  1.
</event>
<event>
 7    1  0.2455451E-009  0.4778727E+02  0.7816164E-02  0.1312668E+00
        -11   -1    0    0    0    0  0.00000000000E+00  0.00000000000E+00  0.45593999997E+02  0.45594000000E+02  0.51100000000E-03 0.  1.
         11   -1    0    0    0    0 -0.00000000000E+00 -0.00000000000E+00 -0.45593999997E+02  0.45594000000E+02  0.51100000000E-03 0. -1.
    9900012    2    1    2    0    0  0.87307134234E+01  0.63371889766E+01  0.42038529643E+02  0.47787270795E+02  0.19999998863E+02 0.  0.
         12    1    1    2    0    0 -0.87307134234E+01 -0.63371889766E+01 -0.42038529643E+02  0.43400729205E+02  0.00000000000E+00 0. -1.
         11    1    3    3    0    0  0.78727827160E+01 -0.48033481165E+01  0.13977524760E+02  0.16745866938E+02  0.51100000000E-03 0. -1.
        -11    1    3    3    0    0 -0.31359057286E+01  0.55854220093E+01  0.12622580310E+02  0.14154871165E+02  0.51100000000E-03 0.  1.
         12    1    3    3    0    0  0.39938364360E+01  0.55551150837E+01  0.15438424572E+02  0.16886532691E+02  0.00000000000E+00 0. -1.
</event>
<event>
 7    1  0.2455451E-009  0.4778727E+02  0.7816164E-02  0.1312668E+00
        -11   -1    0    0    0    0  0.00000000000E+00  0.00000000000E+00  0.45593999997E+02  0.45594000000E+02  0.51100000000E-03 0. -1.
         11   -1    0    0    0    0 -0.00000000000E+00 -0.00000000000E+00 -0.45593999997E+02  0.45594000000E+02  0.51100000000E-03 0.  1.
    9900012    2    1    2    0    0  0.23507695935E+01  0.86647394562E+01 -0.42461980383E+02  0.47787267223E+02  0.19999982577E+02 0.  0.
         12    1    1    2    0    0 -0.23507695935E+01 -0.86647394562E+01  0.42461980383E+02  0.43400732777E+02  0.00000000000E+00 0. -1.
         11    1    3    3    0    0  0.15014923352E+01  0.40857276391E+01 -0.81763678978E+00  0.44290156643E+01  0.51100000000E-03 0. -1.
        -11    1    3    3    0    0 -0.42251093547E+00  0.71430538856E+01 -0.38271571035E+02  0.38934751625E+02  0.51100000000E-03 0.  1.
        -12    1    3    3    0    0  0.12717881938E+01 -0.25640420685E+01 -0.33727725581E+01  0.44234999341E+01  0.00000000000E+00 0.  1.
</event>
<event>
 7    1  0.2455451E-009  0.4778726E+02  0.7816164E-02  0.1312668E+00
        -11   -1    0    0    0    0  0.00000000000E+00  0.00000000000E+00  0.45593999997E+02  0.45594000000E+02  0.51100000000E-03 0. -1.
         11   -1    0    0    0    0 -0.00000000000E+00 -0.00000000000E+00 -0.45593999997E+02  0.45594000000E+02  0.51100000000E-03 0.  1.
    9900012    2    1    2    0    0  0.39768039066E+02 -0.16459135055E+02 -0.55878427438E+01  0.47787262167E+02  0.19999959526E+02 0.  0.
         12    1    1    2    0    0 -0.39768039066E+02  0.16459135055E+02  0.55878427438E+01  0.43400737833E+02  0.00000000000E+00 0. -1.
         11    1    3    3    0    0  0.11969951772E+02  0.32761614866E+01 -0.51615552602E+01  0.13440782436E+02  0.51100000000E-03 0. -1.
        -11    1    3    3    0    0  0.18430645918E+02 -0.15202674059E+02 -0.11119585951E+01  0.23917492755E+02  0.51100000000E-03 0.  1.
         12    1    3    3    0    0  0.93674413750E+01 -0.45326224825E+01  0.68567111140E+00  0.10428986976E+02  0.00000000000E+00 0. -1.
</event>
<event>
 7    1  0.2455451E-009  0.4778727E+02  0.7816164E-02  0.1312668E+00
        -11   -1    0    0    0    0  0.00000000000E+00  0.00000000000E+00  0.45593999997E+02  0.45594000000E+02  0.51100000000E-03 0.  1.
         11   -1    0    0    0    0 -0.00000000000E+00 -0.00000000000E+00 -0.45593999997E+02  0.45594000000E+02  0.51100000000E-03 0. -1.
    9900012    2    1    2    0    0  0.20807991405E+02  0.37865148936E+02 -0.41086446071E+01  0.47787274536E+02  0.20000015922E+02 0.  0.
         12    1    1    2    0    0 -0.20807991405E+02 -0.37865148936E+02  0.41086446071E+01  0.43400725464E+02  0.00000000000E+00 0. -1.
         11    1    3    3    0    0 -0.19368708416E+01 -0.43419434578E+00 -0.90515901394E+00  0.21815834820E+01  0.51100000000E-03 0.  1.
        -11    1    3    3    0    0  0.18543047439E+02  0.30357385101E+02 -0.62514380051E+01  0.36117806078E+02  0.51100000000E-03 0. -1.
         12    1    3    3    0    0  0.42018148074E+01  0.79419581803E+01  0.30479524119E+01  0.94878849760E+01  0.00000000000E+00 0. -1.
</event>
<event>
 7    1  0.2455451E-009  0.4778723E+02  0.7816164E-02  0.1312668E+00
        -11   -1    0    0    0    0  0.00000000000E+00  0.00000000000E+00  0.45593999997E+02  0.45594000000E+02  0.51100000000E-03 0.  1.
         11   -1    0    0    0    0 -0.00000000000E+00 -0.00000000000E+00 -0.45593999997E+02  0.45594000000E+02  0.51100000000E-03 0. -1.
    9900012    2    1    2    0    0  0.21770558129E+02 -0.37384247612E+02  0.34767882801E+01  0.47787225497E+02  0.19999792328E+02 0.  0.
         12    1    1    2    0    0 -0.21770558129E+02  0.37384247612E+02 -0.34767882801E+01  0.43400774503E+02  0.00000000000E+00 0. -1.
         11    1    3    3    0    0  0.22358261180E+01 -0.30808482969E+01  0.30822252845E+01  0.48980258905E+01  0.51100000000E-03 0. -1.
        -11    1    3    3    0    0 -0.28045432594E+01 -0.69833589844E+01 -0.87221591519E+00  0.75758515338E+01  0.51100000000E-03 0.  1.
        -12    1    3    3    0    0  0.22339275270E+02 -0.27320040331E+02  0.12667789108E+01  0.35313348072E+02  0.00000000000E+00 0.  1.
</event>
<event>
 7    1  0.2455451E-009  0.4778727E+02  0.7816164E-02  0.1312668E+00
        -11   -1    0    0    0    0  0.00000000000E+00  0.00000000000E+00  0.45593999997E+02  0.45594000000E+02  0.51100000000E-03 0.  1.
         11   -1    0    0    0    0 -0.00000000000E+00 -0.00000000000E+00 -0.45593999997E+02  0.45594000000E+02  0.51100000000E-03 0. -1.
    9900012    2    1    2    0    0  0.67567187939E+01 -0.42420896460E+02 -0.61998110597E+01  0.47787270023E+02  0.19999995343E+02 0.  0.
         12    1    1    2    0    0 -0.67567187939E+01  0.42420896460E+02  0.61998110597E+01  0.43400729977E+02  0.00000000000E+00 0. -1.
         11    1    3    3    0    0 -0.30034421715E+01 -0.30018284006E+01  0.12167215422E+01  0.44172446385E+01  0.51100000000E-03 0. -1.
        -11    1    3    3    0    0  0.10356024218E+02 -0.39558053325E+02 -0.53799939904E+01  0.41243558965E+02  0.51100000000E-03 0.  1.
        -12    1    3    3    0    0 -0.59586325247E+00  0.13898526529E+00 -0.20365386115E+01  0.21264664201E+01  0.00000000000E+00 0.  1.
</event>
<event>
 7    1  0.2455451E-009  0.4778727E+02  0.7816164E-02  0.1312668E+00
        -11   -1    0    0    0    0  0.00000000000E+00  0.00000000000E+00  0.45593999997E+02  0.45594000000E+02  0.51100000000E-03 0.  1.
         11   -1    0    0    0    0 -0.00000000000E+00 -0.00000000000E+00 -0.45593999997E+02  0.45594000000E+02  0.51100000000E-03 0. -1.
    9900012    2    1    2    0    0 -0.87133409345E+01  0.37855126039E+02 -0.19356915767E+02  0.47787273443E+02  0.20000010936E+02 0.  0.
         12    1    1    2    0    0  0.87133409345E+01 -0.37855126039E+02  0.19356915767E+02  0.43400726557E+02  0.00000000000E+00 0. -1.
         11    1    3    3    0    0 -0.10801855835E+02  0.24166056309E+02 -0.82948371046E+01  0.27739551003E+02  0.51100000000E-03 0. -1.
        -11    1    3    3    0    0 -0.27786986774E+01  0.87378836264E+01 -0.35870143434E+01  0.98457325156E+01  0.51100000000E-03 0.  1.
         12    1    3    3    0    0  0.48672135777E+01  0.49511861036E+01 -0.74750643192E+01  0.10201989924E+02  0.00000000000E+00 0. -1.
</event>
<event>
 7    1  0.2455451E-009  0.4778727E+02  0.7816164E-02  0.1312668E+00
        -11   -1    0    0    0    0  0.00000000000E+00  0.00000000000E+00  0.45593999997E+02  0.45594000000E+02  0.51100000000E-03 0. -1.
         11   -1    0    0    0    0 -0.00000000000E+00 -0.00000000000E+00 -0.45593999997E+02  0.45594000000E+02  0.51100000000E-03 0.  1.
    9900012    2    1    2    0    0 -0.31159044928E+02  0.21830695642E+02 -0.20884394841E+02  0.47787270733E+02  0.19999998580E+02 0.  0.
         12    1    1    2    0    0  0.31159044928E+02 -0.21830695642E+02  0.20884394841E+02  0.43400729267E+02  0.00000000000E+00 0. -1.
         11    1    3    3    0    0 -0.33609613581E+01  0.85962572650E+01  0.10824053017E+01  0.92931857678E+01  0.51100000000E-03 0. -1.
        -11    1    3    3    0    0 -0.32323243892E+01  0.43623013193E+01 -0.47263069578E+01  0.71983033750E+01  0.51100000000E-03 0.  1.
         12    1    3    3    0    0 -0.24565759181E+02  0.88721370578E+01 -0.17240493185E+02  0.31295781590E+02  0.00000000000E+00 0. -1.
</event>
<event>
 7    1  0.2455451E-009  0.4778727E+02  0.7816164E-02  0.1312668E+00
        -11   -1    0    0    0    0  0.00000000000E+00  0.00000000000E+00  0.45593999997E+02  0.45594000000E+02  0.51100000000E-03 0.  1.
         11   -1    0    0    0    0 -0.00000000000E+00 -0.00000000000E+00 -0.45593999997E+02  0.45594000000E+02  0.51100000000E-03 0. -1.
    9900012    2    1    2    0    0 -0.13417067665E+02  0.36900955208E+02  0.18491221480E+02  0.47787268764E+02  0.19999989602E+02 0.  0.
         12    1    1    2    0    0  0.13417067665E+02 -0.36900955208E+02 -0.18491221480E+02  0.43400731236E+02  0.00000000000E+00 0. -1.
         11    1    3    3    0    0  0.21881700714E+01  0.64031498449E-01 -0.91305428923E+00  0.23718888445E+01  0.51100000000E-03 0. -1.
        -11    1    3    3    0    0 -0.15138281374E+02  0.37106946322E+02  0.19843499713E+02  0.44719766429E+02  0.51100000000E-03 0.  1.
        -12    1    3    3    0    0 -0.46695636186E+00 -0.27002261228E+00 -0.43922394394E+00  0.69561349034E+00  0.00000000000E+00 0.  1.
</event>
<event>
 7    1  0.2455451E-009  0.4778727E+02  0.7816164E-02  0.1312668E+00
        -11   -1    0    0    0    0  0.00000000000E+00  0.00000000000E+00  0.45593999997E+02  0.45594000000E+02  0.51100000000E-03 0. -1.
         11   -1    0    0    0    0 -0.00000000000E+00 -0.00000000000E+00 -0.45593999997E+02  0.45594000000E+02  0.51100000000E-03 0.  1.
    9900012    2    1    2    0    0  0.66154853480E+01 -0.36153186033E+02 -0.23082590230E+02  0.47787268687E+02  0.19999989252E+02 0.  0.
         12    1    1    2    0    0 -0.66154853480E+01  0.36153186033E+02  0.23082590230E+02  0.43400731313E+02  0.00000000000E+00 0. -1.
         11    1    3    3    0    0 -0.66902400062E+01 -0.18164106366E+02 -0.11832608967E+02  0.22687104413E+02  0.51100000000E-03 0. -1.
        -11    1    3    3    0    0  0.70992751236E+01 -0.90362296798E+01 -0.66334287766E+01  0.13268591926E+02  0.51100000000E-03 0.  1.
         12    1    3    3    0    0  0.62064502306E+01 -0.89528499876E+01 -0.46165524863E+01  0.11831572348E+02  0.00000000000E+00 0. -1.
</event>
<event>
 7    1  0.2455451E-009  0.4778727E+02  0.7816164E-02  0.1312668E+00
        -11   -1    0    0    0    0  0.00000000000E+00  0.00000000000E+00  0.45593999997E+02  0.45594000000E+02  0.51100000000E-03 0.  1.
         11   -1    0    0    0    0 -0.00000000000E+00 -0.00000000000E+00 -0.45593999997E+02  0.45594000000E+02  0.51100000000E-03 0. -1.
    9900012    2    1    2    0    0  0.25335148809E+02 -0.35064956523E+02  0.34931839526E+01  0.47787271028E+02  0.19999999926E+02 0.  0.
         12    1    1    2    0    0 -0.25335148809E+02  0.35064956523E+02 -0.34931839526E+01  0.43400728972E+02  0.00000000000E+00 0. -1.
         11    1    3    3    0    0  0.36759499393E+01  0.36005611462E+00 -0.30797430115E+01  0.48090607856E+01  0.51100000000E-03 0. -1.
        -11    1    3    3    0    0  0.17591827888E+02 -0.28959084174E+02  0.88255583923E+01  0.35014160647E+02  0.51100000000E-03 0.  1.
         12    1    3    3    0    0  0.40673709818E+01 -0.64659284639E+01 -0.22526314282E+01  0.79640495953E+01  0.00000000000E+00 0. -1.
</event>
<event>
 7    1  0.2455451E-009  0.4778727E+02  0.7816164E-02  0.1312668E+00
        -11   -1    0    0    0    0  0.00000000000E+00  0.00000000000E+00  0.45593999997E+02  0.45594000000E+02  0.51100000000E-03 0. -1.
         11   -1    0    0    0    0 -0.00000000000E+00 -0.00000000000E+00 -0.45593999997E+02  0.45594000000E+02  0.51100000000E-03 0.  1.
    9900012    2    1    2    0    0 -0.24645410221E+02 -0.23701414452E+02 -0.26729569936E+02  0.47787271884E+02  0.20000003829E+02 0.  0.
         12    1    1    2    0    0  0.24645410221E+02  0.23701414452E+02  0.26729569936E+02  0.43400728116E+02  0.00000000000E+00 0. -1.
         11    1    3    3    0    0 -0.57561072050E+01 -0.79970963637E+01 -0.65702703215E+00  0.98751205151E+01  0.51100000000E-03 0. -1.
        -11    1    3    3    0    0 -0.97301889634E+01 -0.12676859871E+02 -0.22558898533E+02  0.27645673382E+02  0.51100000000E-03 0.  1.
        -12    1    3    3    0    0 -0.91591140528E+01 -0.30274582168E+01 -0.35136443709E+01  0.10266477987E+02  0.00000000000E+00 0.  1.
</event>
<event>
 7    1  0.2455451E-009  0.4778727E+02  0.7816164E-02  0.1312668E+00
        -11   -1    0    0    0    0  0.00000000000E+00  0.00000000000E+00  0.45593999997E+02  0.45594000000E+02  0.51100000000E-03 0.  1.
         11   -1    0    0    0    0 -0.00000000000E+00 -0.00000000000E+00 -0.45593999997E+02  0.45594000000E+02  0.51100000000E-03 0. -1.
    9900012    2    1    2    0    0 -0.16578813265E+02  0.35906748433E+02  0.17873779857E+02  0.47787266841E+02  0.19999980836E+02 0.  0.
         12    1    1    2    0    0  0.16578813265E+02 -0.35906748433E+02 -0.17873779857E+02  0.43400733159E+02  0.00000000000E+00 0. -1.
         11    1    3    3    0    0  0.17925332377E+01  0.48248935923E+01  0.67594469254E+00  0.51913076459E+01  0.51100000000E-03 0. -1.
        -11    1    3    3    0    0 -0.15713496605E+02  0.18179518229E+02  0.16975775859E+02  0.29420839976E+02  0.51100000000E-03 0.  1.
        -12    1    3    3    0    0 -0.26578498983E+01  0.12902336612E+02  0.22205930544E+00  0.13175119220E+02  0.00000000000E+00 0.  1.
</event>
<event>
 7    1  0.2455451E-009  0.4778727E+02  0.7816164E-02  0.1312668E+00
        -11   -1    0    0    0    0  0.00000000000E+00  0.00000000000E+00  0.45593999997E+02  0.45594000000E+02  0.51100000000E-03 0. -1.
         11   -1    0    0    0    0 -0.00000000000E+00 -0.00000000000E+00 -0.45593999997E+02  0.45594000000E+02  0.51100000000E-03 0.  1.
    9900012    2    1    2    0    0  0.14304685857E+02 -0.30532732692E+02  0.27326754437E+02  0.47787270614E+02  0.19999998039E+02 0.  0.
         12    1    1    2    0    0 -0.14304685857E+02  0.30532732692E+02 -0.27326754437E+02  0.43400729386E+02  0.00000000000E+00 0. -1.
         11    1    3    3    0    0 -0.72358296627E+00 -0.24265320458E+01  0.96105924131E+01  0.99385671437E+01  0.51100000000E-03 0. -1.
        -11    1    3    3    0    0  0.14968828006E+02 -0.22741281244E+02  0.17718440081E+02  0.32483454306E+02  0.51100000000E-03 0.  1.
         12    1    3    3    0    0  0.59440817493E-01 -0.53649194023E+01 -0.22780569935E-02  0.53652491642E+01  0.00000000000E+00 0. -1.
</event>
<event>
 7    1  0.2455451E-009  0.4778727E+02  0.7816164E-02  0.1312668E+00
        -11   -1    0    0    0    0  0.00000000000E+00  0.00000000000E+00  0.45593999997E+02  0.45594000000E+02  0.51100000000E-03 0.  1.
         11   -1    0    0    0    0 -0.00000000000E+00 -0.00000000000E+00 -0.45593999997E+02  0.45594000000E+02  0.51100000000E-03 0. -1.
    9900012    2    1    2    0    0 -0.23009240120E+02 -0.30058372827E+02 -0.21229519948E+02  0.47787269302E+02  0.19999992056E+02 0.  0.
         12    1    1    2    0    0  0.23009240120E+02  0.30058372827E+02  0.21229519948E+02  0.43400730698E+02  0.00000000000E+00 0. -1.
         11    1    3    3    0    0 -0.71442297967E+01 -0.19817008410E+02 -0.15003357336E+02  0.25862222900E+02  0.51100000000E-03 0. -1.
        -11    1    3    3    0    0 -0.16177845308E+02 -0.74907960492E+01 -0.68303510817E+01  0.19091579307E+02  0.51100000000E-03 0.  1.
         12    1    3    3    0    0  0.31283498536E+00 -0.27505683677E+01  0.60418846941E+00  0.28334670952E+01  0.00000000000E+00 0. -1.
</event>
<event>
 7    1  0.2455451E-009  0.4778727E+02  0.7816164E-02  0.1312668E+00
        -11   -1    0    0    0    0  0.00000000000E+00  0.00000000000E+00  0.45593999997E+02  0.45594000000E+02  0.51100000000E-03 0. -1.
         11   -1    0    0    0    0 -0.00000000000E+00 -0.00000000000E+00 -0.45593999997E+02  0.45594000000E+02  0.51100000000E-03 0.  1.
    9900012    2    1    2    0    0 -0.37771105434E+02  0.20862916903E+02 -0.46589084296E+01  0.47787272643E+02  0.20000007287E+02 0.  0.
         12    1    1    2    0    0  0.37771105434E+02 -0.20862916903E+02  0.46589084296E+01  0.43400727357E+02  0.00000000000E+00 0. -1.
         11    1    3    3    0    0 -0.13758744926E+02 -0.12555130044E+01 -0.20707417669E+01  0.13970230727E+02  0.51100000000E-03 0. -1.
        -11    1    3    3    0    0 -0.53976959632E+01  0.10366752664E+02 -0.39832925126E+00  0.11694586310E+02  0.51100000000E-03 0.  1.
        -12    1    3    3    0    0 -0.18614664545E+02  0.11751677243E+02 -0.21898374115E+01  0.22122455606E+02  0.00000000000E+00 0.  1.
</event>
<event>
 7    1  0.2455451E-009  0.4778728E+02  0.7816164E-02  0.1312668E+00
        -11   -1    0    0    0    0  0.00000000000E+00  0.00000000000E+00  0.45593999997E+02  0.45594000000E+02  0.51100000000E-03 0.  1.
         11   -1    0    0    0    0 -0.00000000000E+00 -0.00000000000E+00 -0.45593999997E+02  0.45594000000E+02  0.51100000000E-03 0. -1.
    9900012    2    1    2    0    0 -0.37451690491E+02  0.15150763366E+02  0.15857117293E+02  0.47787275121E+02  0.20000018586E+02 0.  0.
         12    1    1    2    0    0  0.37451690491E+02 -0.15150763366E+02 -0.15857117293E+02  0.43400724879E+02  0.00000000000E+00 0. -1.
         11    1    3    3    0    0 -0.30994319889E+02  0.14866244333E+02  0.19136403778E+02  0.39342788866E+02  0.51100000000E-03 0. -1.
        -11    1    3    3    0    0 -0.26472148162E+01  0.13369063751E+01  0.46254179580E+00  0.30015013098E+01  0.51100000000E-03 0.  1.
         12    1    3    3    0    0 -0.38101557860E+01 -0.10523873422E+01 -0.37418282809E+01  0.54429849454E+01  0.00000000000E+00 0. -1.
</event>
<event>
 7    1  0.2455451E-009  0.4778727E+02  0.7816164E-02  0.1312668E+00
        -11   -1    0    0    0    0  0.00000000000E+00  0.00000000000E+00  0.45593999997E+02  0.45594000000E+02  0.51100000000E-03 0.  1.
         11   -1    0    0    0    0 -0.00000000000E+00 -0.00000000000E+00 -0.45593999997E+02  0.45594000000E+02  0.51100000000E-03 0. -1.
    9900012    2    1    2    0    0 -0.27699118845E+02 -0.33208447886E+02  0.36852326586E+01  0.47787272638E+02  0.20000007267E+02 0.  0.
         12    1    1    2    0    0  0.27699118845E+02  0.33208447886E+02 -0.36852326586E+01  0.43400727362E+02  0.00000000000E+00 0. -1.
         11    1    3    3    0    0 -0.81727290322E+01 -0.17574242287E+02  0.15217398942E+01  0.19441275276E+02  0.51100000000E-03 0.  1.
        -11    1    3    3    0    0 -0.44751278136E+01  0.90049718808E+00  0.37823184213E+01  0.59282035251E+01  0.51100000000E-03 0. -1.
         12    1    3    3    0    0 -0.15051261999E+02 -0.16534702787E+02 -0.16188256569E+01  0.22417793837E+02  0.00000000000E+00 0. -1.
</event>
<event>
 7    1  0.2455451E-009  0.4778727E+02  0.7816164E-02  0.1312668E+00
        -11   -1    0    0    0    0  0.00000000000E+00  0.00000000000E+00  0.45593999997E+02  0.45594000000E+02  0.51100000000E-03 0. -1.
         11   -1    0    0    0    0 -0.00000000000E+00 -0.00000000000E+00 -0.45593999997E+02  0.45594000000E+02  0.51100000000E-03 0.  1.
    9900012    2    1    2    0    0  0.34821762511E+02 -0.24915313045E+02 -0.70919108610E+01  0.47787272262E+02  0.20000005552E+02 0.  0.
         12    1    1    2    0    0 -0.34821762511E+02  0.24915313045E+02  0.70919108610E+01  0.43400727738E+02  0.00000000000E+00 0. -1.
         11    1    3    3    0    0  0.18787585779E+02 -0.59102597763E+01  0.36805672536E+01  0.20036245297E+02  0.51100000000E-03 0. -1.
        -11    1    3    3    0    0  0.72675860136E+01 -0.58044382949E+01 -0.15888282876E+01  0.94357663162E+01  0.51100000000E-03 0.  1.
         12    1    3    3    0    0  0.87665907191E+01 -0.13200614973E+02 -0.91836498270E+01  0.18315260649E+02  0.00000000000E+00 0. -1.
</event>
<event>
 7    1  0.2455451E-009  0.4778727E+02  0.7816164E-02  0.1312668E+00
        -11   -1    0    0    0    0  0.00000000000E+00  0.00000000000E+00  0.45593999997E+02  0.45594000000E+02  0.51100000000E-03 0. -1.
         11   -1    0    0    0    0 -0.00000000000E+00 -0.00000000000E+00 -0.45593999997E+02  0.45594000000E+02  0.51100000000E-03 0.  1.
    9900012    2    1    2    0    0 -0.36014010208E+02 -0.10013232225E+02 -0.22053333020E+02  0.47787271341E+02  0.20000001352E+02 0.  0.
         12    1    1    2    0    0  0.36014010208E+02  0.10013232225E+02  0.22053333020E+02  0.43400728659E+02  0.00000000000E+00 0. -1.
         11    1    3    3    0    0 -0.11480542328E+01 -0.66124996662E+01 -0.23170549816E+01  0.71001355203E+01  0.51100000000E-03 0. -1.
        -11    1    3    3    0    0 -0.23067345336E+02  0.17190243423E+00 -0.10860803244E+02  0.25496843308E+02  0.51100000000E-03 0.  1.
        -12    1    3    3    0    0 -0.11798610639E+02 -0.35726349926E+01 -0.88754747943E+01  0.15190292513E+02  0.00000000000E+00 0.  1.
</event>
<event>
 7    1  0.2455451E-009  0.4778725E+02  0.7816164E-02  0.1312668E+00
        -11   -1    0    0    0    0  0.00000000000E+00  0.00000000000E+00  0.45593999997E+02  0.45594000000E+02  0.51100000000E-03 0.  1.
         11   -1    0    0    0    0 -0.00000000000E+00 -0.00000000000E+00 -0.45593999997E+02  0.45594000000E+02  0.51100000000E-03 0. -1.
    9900012    2    1    2    0    0 -0.35309023589E+02 -0.76334053089E+01  0.24054707299E+02  0.47787251543E+02  0.19999911083E+02 0.  0.
         12    1    1    2    0    0  0.35309023589E+02  0.76334053089E+01 -0.24054707299E+02  0.43400748457E+02  0.00000000000E+00 0. -1.
         11    1    3    3    0    0 -0.18690425822E+01  0.99522095925E+00  0.11126578240E+01  0.23920268866E+01  0.51100000000E-03 0. -1.
        -11    1    3    3    0    0 -0.26723960412E+02  0.16643077889E+01  0.17247029569E+02  0.31849646933E+02  0.51100000000E-03 0.  1.
        -12    1    3    3    0    0 -0.67160205950E+01 -0.10292934057E+02  0.56950199058E+01  0.13545577723E+02  0.00000000000E+00 0.  1.
</event>
<event>
 7    1  0.2455451E-009  0.4778727E+02  0.7816164E-02  0.1312668E+00
        -11   -1    0    0    0    0  0.00000000000E+00  0.00000000000E+00  0.45593999997E+02  0.45594000000E+02  0.51100000000E-03 0.  1.
         11   -1    0    0    0    0 -0.00000000000E+00 -0.00000000000E+00 -0.45593999997E+02  0.45594000000E+02  0.51100000000E-03 0. -1.
    9900012    2    1    2    0    0  0.25073502884E+02  0.34266399351E+02  0.89864618375E+01  0.47787272267E+02  0.20000005576E+02 0.  0.
         12    1    1    2    0    0 -0.25073502884E+02 -0.34266399351E+02 -0.89864618375E+01  0.43400727733E+02  0.00000000000E+00 0. -1.
         11    1    3    3    0    0  0.19360965437E+02  0.14521270222E+02 -0.50903822461E+00  0.24206887278E+02  0.51100000000E-03 0. -1.
        -11    1    3    3    0    0  0.17951560252E+01  0.79121415419E+01  0.73200818739E+01  0.10927404442E+02  0.51100000000E-03 0.  1.
        -12    1    3    3    0    0  0.39173814212E+01  0.11832987587E+02  0.21754181882E+01  0.12652980547E+02  0.00000000000E+00 0.  1.
</event>
<event>
 7    1  0.2455451E-009  0.4778727E+02  0.7816164E-02  0.1312668E+00
        -11   -1    0    0    0    0  0.00000000000E+00  0.00000000000E+00  0.45593999997E+02  0.45594000000E+02  0.51100000000E-03 0. -1.
         11   -1    0    0    0    0 -0.00000000000E+00 -0.00000000000E+00 -0.45593999997E+02  0.45594000000E+02  0.51100000000E-03 0.  1.
    9900012    2    1    2    0    0 -0.25407237471E+02 -0.32129806531E+02 -0.14344718284E+02  0.47787272745E+02  0.20000007752E+02 0.  0.
         12    1    1    2    0    0  0.25407237471E+02  0.32129806531E+02  0.14344718284E+02  0.43400727255E+02  0.00000000000E+00 0. -1.
         11    1    3    3    0    0 -0.31377627198E+00 -0.15881426950E+01 -0.36636882616E+01  0.40054044375E+01  0.51100000000E-03 0. -1.
        -11    1    3    3    0    0 -0.18921972152E+02 -0.16119740015E+02 -0.12788342111E+02  0.27954046978E+02  0.51100000000E-03 0.  1.
        -12    1    3    3    0    0 -0.61714890473E+01 -0.14421923822E+02  0.21073120888E+01  0.15827821329E+02  0.00000000000E+00 0.  1.
</event>
<event>
 7    1  0.2455451E-009  0.4778727E+02  0.7816164E-02  0.1312668E+00
        -11   -1    0    0    0    0  0.00000000000E+00  0.00000000000E+00  0.45593999997E+02  0.45594000000E+02  0.51100000000E-03 0.  1.
         11   -1    0    0    0    0 -0.00000000000E+00 -0.00000000000E+00 -0.45593999997E+02  0.45594000000E+02  0.51100000000E-03 0. -1.
    9900012    2    1    2    0    0 -0.20531610230E+02 -0.30346146960E+02  0.23263442524E+02  0.47787269453E+02  0.19999992744E+02 0.  0.
         12    1    1    2    0    0  0.20531610230E+02  0.30346146960E+02 -0.23263442524E+02  0.43400730547E+02  0.00000000000E+00 0. -1.
         11    1    3    3    0    0  0.24467192029E+01  0.57216906977E+00  0.85058394688E+00  0.26527920412E+01  0.51100000000E-03 0. -1.
        -11    1    3    3    0    0 -0.19925285232E+02 -0.23463832676E+02  0.15241059954E+02  0.34349066133E+02  0.51100000000E-03 0.  1.
         12    1    3    3    0    0 -0.30530442007E+01 -0.74544833535E+01  0.71717986233E+01  0.10785411279E+02  0.00000000000E+00 0. -1.
</event>
<event>
 7    1  0.2455451E-009  0.4778727E+02  0.7816164E-02  0.1312668E+00
        -11   -1    0    0    0    0  0.00000000000E+00  0.00000000000E+00  0.45593999997E+02  0.45594000000E+02  0.51100000000E-03 0.  1.
         11   -1    0    0    0    0 -0.00000000000E+00 -0.00000000000E+00 -0.45593999997E+02  0.45594000000E+02  0.51100000000E-03 0. -1.
    9900012    2    1    2    0    0 -0.46731221680E+01 -0.42738169462E+02  0.59358118754E+01  0.47787273481E+02  0.20000011110E+02 0.  0.
         12    1    1    2    0    0  0.46731221680E+01  0.42738169462E+02 -0.59358118754E+01  0.43400726519E+02  0.00000000000E+00 0. -1.
         11    1    3    3    0    0 -0.10636011537E+02 -0.20050096513E+02  0.10361988798E+01  0.22720141284E+02  0.51100000000E-03 0. -1.
        -11    1    3    3    0    0  0.64688290864E+01 -0.20568349609E+02  0.23136865861E+01  0.21685384508E+02  0.51100000000E-03 0.  1.
         12    1    3    3    0    0 -0.50593971773E+00 -0.21197233399E+01  0.25859264095E+01  0.33817476888E+01  0.00000000000E+00 0. -1.
</event>
<event>
 7    1  0.2455451E-009  0.4778727E+02  0.7816164E-02  0.1312668E+00
        -11   -1    0    0    0    0  0.00000000000E+00  0.00000000000E+00  0.45593999997E+02  0.45594000000E+02  0.51100000000E-03 0.  1.
         11   -1    0    0    0    0 -0.00000000000E+00 -0.00000000000E+00 -0.45593999997E+02  0.45594000000E+02  0.51100000000E-03 0. -1.
    9900012    2    1    2    0    0  0.24966199802E+02  0.35467952026E+02  0.15286518683E+01  0.47787268093E+02  0.19999986545E+02 0.  0.
         12    1    1    2    0    0 -0.24966199802E+02 -0.35467952026E+02 -0.15286518683E+01  0.43400731907E+02  0.00000000000E+00 0. -1.
         11    1    3    3    0    0  0.21414887470E+02  0.31687489869E+02 -0.49301304378E+01  0.38561646826E+02  0.51100000000E-03 0. -1.
        -11    1    3    3    0    0 -0.42494162458E+00  0.13485863319E+01  0.33138055965E+01  0.36028555718E+01  0.51100000000E-03 0.  1.
         12    1    3    3    0    0  0.39762539573E+01  0.24318758249E+01  0.31449767096E+01  0.56227656953E+01  0.00000000000E+00 0. -1.
</event>
<event>
 7    1  0.2455451E-009  0.4778727E+02  0.7816164E-02  0.1312668E+00
        -11   -1    0    0    0    0  0.00000000000E+00  0.00000000000E+00  0.45593999997E+02  0.45594000000E+02  0.51100000000E-03 0.  1.
         11   -1    0    0    0    0 -0.00000000000E+00 -0.00000000000E+00 -0.45593999997E+02  0.45594000000E+02  0.51100000000E-03 0. -1.
    9900012    2    1    2    0    0  0.22543422867E+02 -0.27233333427E+02  0.25174642149E+02  0.47787274529E+02  0.20000015887E+02 0.  0.
         12    1    1    2    0    0 -0.22543422867E+02  0.27233333427E+02 -0.25174642149E+02  0.43400725471E+02  0.00000000000E+00 0. -1.
         11    1    3    3    0    0 -0.10680983657E+01 -0.91510426538E+01  0.53417609656E+01  0.10649733623E+02  0.51100000000E-03 0. -1.
        -11    1    3    3    0    0  0.19996556471E+02 -0.18654417238E+02  0.15385284777E+02  0.31377643970E+02  0.51100000000E-03 0.  1.
         12    1    3    3    0    0  0.36149647609E+01  0.57212646447E+00  0.44475964063E+01  0.57598969354E+01  0.00000000000E+00 0. -1.
</event>
<event>
 7    1  0.2455451E-009  0.4778727E+02  0.7816164E-02  0.1312668E+00
        -11   -1    0    0    0    0  0.00000000000E+00  0.00000000000E+00  0.45593999997E+02  0.45594000000E+02  0.51100000000E-03 0.  1.
         11   -1    0    0    0    0 -0.00000000000E+00 -0.00000000000E+00 -0.45593999997E+02  0.45594000000E+02  0.51100000000E-03 0. -1.
    9900012    2    1    2    0    0 -0.54168555232E+01  0.42799402216E+02  0.47425624015E+01  0.47787273601E+02  0.20000011656E+02 0.  0.
         12    1    1    2    0    0  0.54168555232E+01 -0.42799402216E+02 -0.47425624015E+01  0.43400726399E+02  0.00000000000E+00 0. -1.
         11    1    3    3    0    0 -0.69623817718E+00  0.53593365346E+01 -0.29390743895E+01  0.61518610370E+01  0.51100000000E-03 0. -1.
        -11    1    3    3    0    0 -0.24567342500E+01  0.30013117279E+02  0.12381367399E+02  0.32559499550E+02  0.51100000000E-03 0.  1.
        -12    1    3    3    0    0 -0.22638830961E+01  0.74269484025E+01 -0.46997306084E+01  0.90759130140E+01  0.00000000000E+00 0.  1.
</event>
<event>
 7    1  0.2455451E-009  0.4778727E+02  0.7816164E-02  0.1312668E+00
        -11   -1    0    0    0    0  0.00000000000E+00  0.00000000000E+00  0.45593999997E+02  0.45594000000E+02  0.51100000000E-03 0.  1.
         11   -1    0    0    0    0 -0.00000000000E+00 -0.00000000000E+00 -0.45593999997E+02  0.45594000000E+02  0.51100000000E-03 0. -1.
    9900012    2    1    2    0    0 -0.18743193333E+02  0.16320051539E+02  0.35580497592E+02  0.47787272040E+02  0.20000004539E+02 0.  0.
         12    1    1    2    0    0  0.18743193333E+02 -0.16320051539E+02 -0.35580497592E+02  0.43400727960E+02  0.00000000000E+00 0. -1.
         11    1    3    3    0    0  0.10677734374E+01 -0.34997059208E-01  0.13286821982E+00  0.10765775090E+01  0.51100000000E-03 0. -1.
        -11    1    3    3    0    0 -0.91509292148E+01  0.61548776196E+01  0.35823006941E+01  0.11595469052E+02  0.51100000000E-03 0.  1.
        -12    1    3    3    0    0 -0.10660037556E+02  0.10200170978E+02  0.31865328678E+02  0.35115225479E+02  0.00000000000E+00 0.  1.
</event>
<event>
 7    1  0.2455451E-009  0.4778727E+02  0.7816164E-02  0.1312668E+00
        -11   -1    0    0    0    0  0.00000000000E+00  0.00000000000E+00  0.45593999997E+02  0.45594000000E+02  0.51100000000E-03 0. -1.
         11   -1    0    0    0    0 -0.00000000000E+00 -0.00000000000E+00 -0.45593999997E+02  0.45594000000E+02  0.51100000000E-03 0.  1.
    9900012    2    1    2    0    0 -0.39137265023E+02  0.45160206836E+01  0.18207224766E+02  0.47787274316E+02  0.20000014915E+02 0.  0.
         12    1    1    2    0    0  0.39137265023E+02 -0.45160206836E+01 -0.18207224766E+02  0.43400725684E+02  0.00000000000E+00 0. -1.
         11    1    3    3    0    0 -0.11774890827E+02 -0.16255502485E+01  0.12852284881E+02  0.17506332983E+02  0.51100000000E-03 0. -1.
        -11    1    3    3    0    0 -0.48343820079E+01  0.46265246330E+01 -0.11367878767E+01  0.67873607916E+01  0.51100000000E-03 0.  1.
         12    1    3    3    0    0 -0.22527992188E+02  0.15150462991E+01  0.64917277615E+01  0.23493580541E+02  0.00000000000E+00 0. -1.
</event>
<event>
 7    1  0.2455451E-009  0.4778727E+02  0.7816164E-02  0.1312668E+00
        -11   -1    0    0    0    0  0.00000000000E+00  0.00000000000E+00  0.45593999997E+02  0.45594000000E+02  0.51100000000E-03 0.  1.
         11   -1    0    0    0    0 -0.00000000000E+00 -0.00000000000E+00 -0.45593999997E+02  0.45594000000E+02  0.51100000000E-03 0. -1.
    9900012    2    1    2    0    0  0.20430281257E+02  0.23930631136E+02  0.29892343808E+02  0.47787265938E+02  0.19999976718E+02 0.  0.
         12    1    1    2    0    0 -0.20430281257E+02 -0.23930631136E+02 -0.29892343808E+02  0.43400734062E+02  0.00000000000E+00 0. -1.
         11    1    3    3    0    0  0.34312438187E+00 -0.17213686603E+00  0.81833521773E+01  0.81923512230E+01  0.51100000000E-03 0. -1.
        -11    1    3    3    0    0  0.50897794993E+01  0.11251639244E+02  0.37650276103E+01  0.12910486986E+02  0.51100000000E-03 0.  1.
        -12    1    3    3    0    0  0.14997377376E+02  0.12851128758E+02  0.17943964020E+02  0.26684427729E+02  0.00000000000E+00 0.  1.
</event>
<event>
 7    1  0.2455451E-009  0.4778727E+02  0.7816164E-02  0.1312668E+00
        -11   -1    0    0    0    0  0.00000000000E+00  0.00000000000E+00  0.45593999997E+02  0.45594000000E+02  0.51100000000E-03 0. -1.
         11   -1    0    0    0    0 -0.00000000000E+00 -0.00000000000E+00 -0.45593999997E+02  0.45594000000E+02  0.51100000000E-03 0.  1.
    9900012    2    1    2    0    0  0.18440316314E+02 -0.24290956242E+02 -0.30879240193E+02  0.47787270791E+02  0.19999998847E+02 0.  0.
         12    1    1    2    0    0 -0.18440316314E+02  0.24290956242E+02  0.30879240193E+02  0.43400729209E+02  0.00000000000E+00 0. -1.
         11    1    3    3    0    0  0.13858731368E+02 -0.87312437600E+01 -0.64885133654E+01  0.17618168426E+02  0.51100000000E-03 0. -1.
        -11    1    3    3    0    0  0.40952577710E+01 -0.15934246249E+02 -0.20768926377E+02  0.26495653282E+02  0.51100000000E-03 0.  1.
         12    1    3    3    0    0  0.48632717576E+00  0.37453376725E+00 -0.36218004510E+01  0.36734490838E+01  0.00000000000E+00 0. -1.
</event>
<event>
 7    1  0.2455451E-009  0.4778727E+02  0.7816164E-02  0.1312668E+00
        -11   -1    0    0    0    0  0.00000000000E+00  0.00000000000E+00  0.45593999997E+02  0.45594000000E+02  0.51100000000E-03 0. -1.
         11   -1    0    0    0    0 -0.00000000000E+00 -0.00000000000E+00 -0.45593999997E+02  0.45594000000E+02  0.51100000000E-03 0.  1.
    9900012    2    1    2    0    0 -0.23568849624E+02 -0.25185993380E+02 -0.26340055309E+02  0.47787269029E+02  0.19999990812E+02 0.  0.
         12    1    1    2    0    0  0.23568849624E+02  0.25185993380E+02  0.26340055309E+02  0.43400730971E+02  0.00000000000E+00 0. -1.
         11    1    3    3    0    0 -0.14436141538E+02 -0.23721469734E+02 -0.20459166154E+02  0.34491851049E+02  0.51100000000E-03 0. -1.
        -11    1    3    3    0    0 -0.58978741482E+01  0.47183268096E+00 -0.71836546911E+01  0.93065804961E+01  0.51100000000E-03 0.  1.
         12    1    3    3    0    0 -0.32348339378E+01 -0.19363563267E+01  0.13027655362E+01  0.39888374837E+01  0.00000000000E+00 0. -1.
</event>
<event>
 7    1  0.2455451E-009  0.4778728E+02  0.7816164E-02  0.1312668E+00
        -11   -1    0    0    0    0  0.00000000000E+00  0.00000000000E+00  0.45593999997E+02  0.45594000000E+02  0.51100000000E-03 0. -1.
         11   -1    0    0    0    0 -0.00000000000E+00 -0.00000000000E+00 -0.45593999997E+02  0.45594000000E+02  0.51100000000E-03 0.  1.
    9900012    2    1    2    0    0  0.23861835878E+02 -0.34629356574E+02 -0.10725791185E+02  0.47787284053E+02  0.20000059310E+02 0.  0.
         12    1    1    2    0    0 -0.23861835878E+02  0.34629356574E+02  0.10725791185E+02  0.43400715947E+02  0.00000000000E+00 0. -1.
         11    1    3    3    0    0  0.42681296352E+01 -0.69346404803E+01 -0.10615784752E+02  0.13379127600E+02  0.51100000000E-03 0.  1.
        -11    1    3    3    0    0  0.10258409496E+02 -0.10264226773E+02  0.13915959099E+01  0.14578266566E+02  0.51100000000E-03 0. -1.
         12    1    3    3    0    0  0.93352967472E+01 -0.17430489321E+02 -0.15016023425E+01  0.19829889886E+02  0.00000000000E+00 0. -1.
</event>
<event>
 7    1  0.2455451E-009  0.4778727E+02  0.7816164E-02  0.1312668E+00
        -11   -1    0    0    0    0  0.00000000000E+00  0.00000000000E+00  0.45593999997E+02  0.45594000000E+02  0.51100000000E-03 0.  1.
         11   -1    0    0    0    0 -0.00000000000E+00 -0.00000000000E+00 -0.45593999997E+02  0.45594000000E+02  0.51100000000E-03 0. -1.
    9900012    2    1    2    0    0  0.11121063899E+02 -0.13015762130E+02  0.39881509935E+02  0.47787274652E+02  0.20000016447E+02 0.  0.
         12    1    1    2    0    0 -0.11121063899E+02  0.13015762130E+02 -0.39881509935E+02  0.43400725348E+02  0.00000000000E+00 0. -1.
         11    1    3    3    0    0  0.71207089161E+01 -0.13461418444E+02  0.16122818817E+02  0.22177907225E+02  0.51100000000E-03 0. -1.
        -11    1    3    3    0    0 -0.82094474127E+00  0.29900923171E+01  0.14808306606E+02  0.15129459579E+02  0.51100000000E-03 0.  1.
         12    1    3    3    0    0  0.48212997242E+01 -0.25444360025E+01  0.89503845113E+01  0.10479907848E+02  0.00000000000E+00 0. -1.
</event>
<event>
 7    1  0.2455451E-009  0.4778729E+02  0.7816164E-02  0.1312668E+00
        -11   -1    0    0    0    0  0.00000000000E+00  0.00000000000E+00  0.45593999997E+02  0.45594000000E+02  0.51100000000E-03 0. -1.
         11   -1    0    0    0    0 -0.00000000000E+00 -0.00000000000E+00 -0.45593999997E+02  0.45594000000E+02  0.51100000000E-03 0.  1.
    9900012    2    1    2    0    0 -0.22708013645E+02  0.36880969771E+02  0.27860352370E+01  0.47787287940E+02  0.20000077034E+02 0.  0.
         12    1    1    2    0    0  0.22708013645E+02 -0.36880969771E+02 -0.27860352370E+01  0.43400712060E+02  0.00000000000E+00 0. -1.
         11    1    3    3    0    0  0.12994031920E+01  0.35108541709E+01  0.35227655262E+00  0.37601389197E+01  0.51100000000E-03 0. -1.
        -11    1    3    3    0    0 -0.14966514012E+02  0.24706382375E+02  0.85035596888E+01  0.30111665503E+02  0.51100000000E-03 0.  1.
        -12    1    3    3    0    0 -0.90409028249E+01  0.86637332249E+01 -0.60698010044E+01  0.13915483517E+02  0.00000000000E+00 0.  1.
</event>
<event>
 7    1  0.2455451E-009  0.4778728E+02  0.7816164E-02  0.1312668E+00
        -11   -1    0    0    0    0  0.00000000000E+00  0.00000000000E+00  0.45593999997E+02  0.45594000000E+02  0.51100000000E-03 0.  1.
         11   -1    0    0    0    0 -0.00000000000E+00 -0.00000000000E+00 -0.45593999997E+02  0.45594000000E+02  0.51100000000E-03 0. -1.
    9900012    2    1    2    0    0 -0.39255801110E+02 -0.18506892479E+02 -0.31573278639E+00  0.47787277919E+02  0.20000031342E+02 0.  0.
         12    1    1    2    0    0  0.39255801110E+02  0.18506892479E+02  0.31573278639E+00  0.43400722081E+02  0.00000000000E+00 0. -1.
         11    1    3    3    0    0 -0.21160528125E+02  0.85523558316E-01  0.32574733054E+01  0.21409960238E+02  0.51100000000E-03 0. -1.
        -11    1    3    3    0    0 -0.15390822715E+02 -0.14138686513E+02 -0.33133695431E+01  0.21160300049E+02  0.51100000000E-03 0.  1.
         12    1    3    3    0    0 -0.27044502694E+01 -0.44537295242E+01 -0.25983654862E+00  0.52170176314E+01  0.00000000000E+00 0. -1.
</event>
<event>
 7    1  0.2455451E-009  0.4778727E+02  0.7816164E-02  0.1312668E+00
        -11   -1    0    0    0    0  0.00000000000E+00  0.00000000000E+00  0.45593999997E+02  0.45594000000E+02  0.51100000000E-03 0.  1.
         11   -1    0    0    0    0 -0.00000000000E+00 -0.00000000000E+00 -0.45593999997E+02  0.45594000000E+02  0.51100000000E-03 0. -1.
    9900012    2    1    2    0    0  0.28726903713E+02  0.28133932526E+02  0.16336153129E+02  0.47787273562E+02  0.20000011477E+02 0.  0.
         12    1    1    2    0    0 -0.28726903713E+02 -0.28133932526E+02 -0.16336153129E+02  0.43400726438E+02  0.00000000000E+00 0. -1.
         11    1    3    3    0    0  0.27377980475E+01  0.24117415253E+01 -0.21768988319E+00  0.36550546481E+01  0.51100000000E-03 0. -1.
        -11    1    3    3    0    0  0.24982940562E+02  0.20928883904E+02  0.69091594675E+01  0.33315191511E+02  0.51100000000E-03 0.  1.
        -12    1    3    3    0    0  0.10061651028E+01  0.47933070969E+01  0.96446835451E+01  0.10817027402E+02  0.00000000000E+00 0.  1.
</event>
<event>
 7    1  0.2455451E-009  0.4778727E+02  0.7816164E-02  0.1312668E+00
        -11   -1    0    0    0    0  0.00000000000E+00  0.00000000000E+00  0.45593999997E+02  0.45594000000E+02  0.51100000000E-03 0.  1.
         11   -1    0    0    0    0 -0.00000000000E+00 -0.00000000000E+00 -0.45593999997E+02  0.45594000000E+02  0.51100000000E-03 0. -1.
    9900012    2    1    2    0    0 -0.68741312011E+01  0.37212573537E+02  0.21250739810E+02  0.47787271302E+02  0.20000001175E+02 0.  0.
         12    1    1    2    0    0  0.68741312011E+01 -0.37212573537E+02 -0.21250739810E+02  0.43400728698E+02  0.00000000000E+00 0. -1.
         11    1    3    3    0    0  0.27242640231E+01  0.21164959721E+01 -0.22069783114E+01  0.40953538547E+01  0.51100000000E-03 0. -1.
        -11    1    3    3    0    0 -0.10316063609E+02  0.33107135552E+02  0.21443541369E+02  0.40771669815E+02  0.51100000000E-03 0.  1.
        -12    1    3    3    0    0  0.71766838508E+00  0.19889420135E+01  0.20141767522E+01  0.29202476322E+01  0.00000000000E+00 0.  1.
</event>
<event>
 7    1  0.2455451E-009  0.4778727E+02  0.7816164E-02  0.1312668E+00
        -11   -1    0    0    0    0  0.00000000000E+00  0.00000000000E+00  0.45593999997E+02  0.45594000000E+02  0.51100000000E-03 0.  1.
         11   -1    0    0    0    0 -0.00000000000E+00 -0.00000000000E+00 -0.45593999997E+02  0.45594000000E+02  0.51100000000E-03 0. -1.
    9900012    2    1    2    0    0  0.56512297440E+01  0.41222836840E+02  0.12343603145E+02  0.47787271742E+02  0.20000003181E+02 0.  0.
         12    1    1    2    0    0 -0.56512297440E+01 -0.41222836840E+02 -0.12343603145E+02  0.43400728258E+02  0.00000000000E+00 0. -1.
         11    1    3    3    0    0  0.73571534322E+01  0.15283356728E+02  0.99936152506E+01  0.19687078136E+02  0.51100000000E-03 0. -1.
        -11    1    3    3    0    0 -0.49374970839E+01  0.16610351055E+02 -0.17353876525E+01  0.17415344102E+02  0.51100000000E-03 0.  1.
        -12    1    3    3    0    0  0.32315733957E+01  0.93291290571E+01  0.40853755467E+01  0.10684849504E+02  0.00000000000E+00 0.  1.
</event>
<event>
 7    1  0.2455451E-009  0.4778727E+02  0.7816164E-02  0.1312668E+00
        -11   -1    0    0    0    0  0.00000000000E+00  0.00000000000E+00  0.45593999997E+02  0.45594000000E+02  0.51100000000E-03 0.  1.
         11   -1    0    0    0    0 -0.00000000000E+00 -0.00000000000E+00 -0.45593999997E+02  0.45594000000E+02  0.51100000000E-03 0. -1.
    9900012    2    1    2    0    0 -0.56627107913E+01 -0.28209075156E+01  0.42937155465E+02  0.47787272677E+02  0.20000007445E+02 0.  0.
         12    1    1    2    0    0  0.56627107913E+01  0.28209075156E+01 -0.42937155465E+02  0.43400727323E+02  0.00000000000E+00 0. -1.
         11    1    3    3    0    0 -0.33292328483E+01  0.55256745918E+01  0.51069612203E+01  0.82278748301E+01  0.51100000000E-03 0. -1.
        -11    1    3    3    0    0  0.72406882663E-01 -0.69142795391E+01  0.14528167318E+02  0.16089752956E+02  0.51100000000E-03 0.  1.
        -12    1    3    3    0    0 -0.24058848256E+01 -0.14323025682E+01  0.23302026926E+02  0.23469644891E+02  0.00000000000E+00 0.  1.
</event>
<event>
 7    1  0.2455451E-009  0.4778727E+02  0.7816164E-02  0.1312668E+00
        -11   -1    0    0    0    0  0.00000000000E+00  0.00000000000E+00  0.45593999997E+02  0.45594000000E+02  0.51100000000E-03 0.  1.
         11   -1    0    0    0    0 -0.00000000000E+00 -0.00000000000E+00 -0.45593999997E+02  0.45594000000E+02  0.51100000000E-03 0. -1.
    9900012    2    1    2    0    0  0.28380849768E+02  0.32491628987E+02 -0.47376061383E+01  0.47787268443E+02  0.19999988139E+02 0.  0.
         12    1    1    2    0    0 -0.28380849768E+02 -0.32491628987E+02  0.47376061383E+01  0.43400731557E+02  0.00000000000E+00 0. -1.
         11    1    3    3    0    0  0.14540598289E+02  0.23776929785E+02  0.30551490833E+01  0.28037569880E+02  0.51100000000E-03 0. -1.
        -11    1    3    3    0    0  0.61442869089E+01  0.50013641762E+01  0.37179482336E+00  0.79312128262E+01  0.51100000000E-03 0.  1.
         12    1    3    3    0    0  0.76959645701E+01  0.37133350256E+01 -0.81645500449E+01  0.11818485737E+02  0.00000000000E+00 0. -1.
</event>
<event>
 7    1  0.2455451E-009  0.4778726E+02  0.7816164E-02  0.1312668E+00
        -11   -1    0    0    0    0  0.00000000000E+00  0.00000000000E+00  0.45593999997E+02  0.45594000000E+02  0.51100000000E-03 0.  1.
         11   -1    0    0    0    0 -0.00000000000E+00 -0.00000000000E+00 -0.45593999997E+02  0.45594000000E+02  0.51100000000E-03 0. -1.
    9900012    2    1    2    0    0  0.18009368796E+02  0.37811172596E+02  0.11384279645E+02  0.47787263133E+02  0.19999963930E+02 0.  0.
         12    1    1    2    0    0 -0.18009368796E+02 -0.37811172596E+02 -0.11384279645E+02  0.43400736867E+02  0.00000000000E+00 0. -1.
         11    1    3    3    0    0  0.64446295606E+01  0.10346764679E+02 -0.26831967295E+00  0.12192652919E+02  0.51100000000E-03 0. -1.
        -11    1    3    3    0    0  0.11731240659E+02  0.99656911628E+01  0.91772197849E+01  0.17920892026E+02  0.51100000000E-03 0.  1.
        -12    1    3    3    0    0 -0.16650142385E+00  0.17498716754E+02  0.24753795334E+01  0.17673718188E+02  0.00000000000E+00 0.  1.
</event>
<event>
 7    1  0.2455451E-009  0.4778728E+02  0.7816164E-02  0.1312668E+00
        -11   -1    0    0    0    0  0.00000000000E+00  0.00000000000E+00  0.45593999997E+02  0.45594000000E+02  0.51100000000E-03 0. -1.
         11   -1    0    0    0    0 -0.00000000000E+00 -0.00000000000E+00 -0.45593999997E+02  0.45594000000E+02  0.51100000000E-03 0.  1.
    9900012    2    1    2    0    0 -0.26350160295E+02  0.13075520181E+01 -0.34461305162E+02  0.47787283493E+02  0.20000056759E+02 0.  0.
         12    1    1    2    0    0  0.26350160295E+02 -0.13075520181E+01  0.34461305162E+02  0.43400716507E+02  0.00000000000E+00 0. -1.
         11    1    3    3    0    0  0.25311292582E+00 -0.27994427067E+01 -0.11042344071E+02  0.11394485880E+02  0.51100000000E-03 0. -1.
        -11    1    3    3    0    0 -0.19945287521E+02  0.56546129753E+01 -0.15221247412E+02  0.25719166301E+02  0.51100000000E-03 0.  1.
         12    1    3    3    0    0 -0.66579857000E+01 -0.15476182505E+01 -0.81977136791E+01  0.10673631312E+02  0.00000000000E+00 0. -1.
</event>
<event>
 7    1  0.2455451E-009  0.4778727E+02  0.7816164E-02  0.1312668E+00
        -11   -1    0    0    0    0  0.00000000000E+00  0.00000000000E+00  0.45593999997E+02  0.45594000000E+02  0.51100000000E-03 0.  1.
         11   -1    0    0    0    0 -0.00000000000E+00 -0.00000000000E+00 -0.45593999997E+02  0.45594000000E+02  0.51100000000E-03 0. -1.
    9900012    2    1    2    0    0 -0.21487397443E+02  0.20656124944E+02  0.31547422357E+02  0.47787267242E+02  0.19999982661E+02 0.  0.
         12    1    1    2    0    0  0.21487397443E+02 -0.20656124944E+02 -0.31547422357E+02  0.43400732758E+02  0.00000000000E+00 0. -1.
         11    1    3    3    0    0 -0.17431799733E+01  0.52689246552E+01  0.27683950715E+01  0.62019557379E+01  0.51100000000E-03 0. -1.
        -11    1    3    3    0    0 -0.21515847374E+02  0.14925562864E+02  0.20921613519E+02  0.33517428713E+02  0.51100000000E-03 0.  1.
        -12    1    3    3    0    0  0.17716299037E+01  0.46163742504E+00  0.78574137668E+01  0.80678827911E+01  0.00000000000E+00 0.  1.
</event>
<event>
 7    1  0.2455451E-009  0.4778729E+02  0.7816164E-02  0.1312668E+00
        -11   -1    0    0    0    0  0.00000000000E+00  0.00000000000E+00  0.45593999997E+02  0.45594000000E+02  0.51100000000E-03 0.  1.
         11   -1    0    0    0    0 -0.00000000000E+00 -0.00000000000E+00 -0.45593999997E+02  0.45594000000E+02  0.51100000000E-03 0. -1.
    9900012    2    1    2    0    0  0.50234408493E+01 -0.34000838427E+02  0.26501500071E+02  0.47787291737E+02  0.20000094347E+02 0.  0.
         12    1    1    2    0    0 -0.50234408493E+01  0.34000838427E+02 -0.26501500071E+02  0.43400708263E+02  0.00000000000E+00 0. -1.
         11    1    3    3    0    0  0.48914713919E+01 -0.31228480014E+02  0.17095570287E+02  0.35936095782E+02  0.51100000000E-03 0. -1.
        -11    1    3    3    0    0  0.19219213312E+00 -0.35494017905E+01  0.10161753264E+02  0.10765519985E+02  0.51100000000E-03 0.  1.
        -12    1    3    3    0    0 -0.60222675748E-01  0.77704337786E+00 -0.75582347919E+00  0.10856759707E+01  0.00000000000E+00 0.  1.
</event>
<event>
 7    1  0.2455451E-009  0.4778727E+02  0.7816164E-02  0.1312668E+00
        -11   -1    0    0    0    0  0.00000000000E+00  0.00000000000E+00  0.45593999997E+02  0.45594000000E+02  0.51100000000E-03 0. -1.
         11   -1    0    0    0    0 -0.00000000000E+00 -0.00000000000E+00 -0.45593999997E+02  0.45594000000E+02  0.51100000000E-03 0.  1.
    9900012    2    1    2    0    0 -0.24916370100E+02  0.64358296321E+01 -0.34948212135E+02  0.47787274966E+02  0.20000017882E+02 0.  0.
         12    1    1    2    0    0  0.24916370100E+02 -0.64358296321E+01  0.34948212135E+02  0.43400725034E+02  0.00000000000E+00 0. -1.
         11    1    3    3    0    0  0.17102557617E+01 -0.23690822835E+01 -0.81069904797E+01  0.86174718181E+01  0.51100000000E-03 0. -1.
        -11    1    3    3    0    0 -0.16152111588E+02  0.79537591524E+01 -0.17542797160E+02  0.25137675427E+02  0.51100000000E-03 0.  1.
         12    1    3    3    0    0 -0.10474514274E+02  0.85115276328E+00 -0.92984244946E+01  0.14032127721E+02  0.00000000000E+00 0. -1.
</event>
<event>
 7    1  0.2455451E-009  0.4778727E+02  0.7816164E-02  0.1312668E+00
        -11   -1    0    0    0    0  0.00000000000E+00  0.00000000000E+00  0.45593999997E+02  0.45594000000E+02  0.51100000000E-03 0.  1.
         11   -1    0    0    0    0 -0.00000000000E+00 -0.00000000000E+00 -0.45593999997E+02  0.45594000000E+02  0.51100000000E-03 0. -1.
    9900012    2    1    2    0    0 -0.75310528758E+01 -0.39891418423E+02  0.15348659547E+02  0.47787269924E+02  0.19999994892E+02 0.  0.
         12    1    1    2    0    0  0.75310528758E+01  0.39891418423E+02 -0.15348659547E+02  0.43400730076E+02  0.00000000000E+00 0. -1.
         11    1    3    3    0    0  0.76952063865E+00  0.83322321937E-01 -0.12098079957E+01  0.14362243105E+01  0.51100000000E-03 0. -1.
        -11    1    3    3    0    0 -0.17674321223E+01 -0.34729229400E+02  0.14786404499E+02  0.37787312015E+02  0.51100000000E-03 0.  1.
        -12    1    3    3    0    0 -0.65331413922E+01 -0.52455113448E+01  0.17720630436E+01  0.85637335987E+01  0.00000000000E+00 0.  1.
</event>
<event>
 7    1  0.2455451E-009  0.4778727E+02  0.7816164E-02  0.1312668E+00
        -11   -1    0    0    0    0  0.00000000000E+00  0.00000000000E+00  0.45593999997E+02  0.45594000000E+02  0.51100000000E-03 0. -1.
         11   -1    0    0    0    0 -0.00000000000E+00 -0.00000000000E+00 -0.45593999997E+02  0.45594000000E+02  0.51100000000E-03 0.  1.
    9900012    2    1    2    0    0 -0.43023351462E+02 -0.25653024676E+01 -0.51023312881E+01  0.47787270371E+02  0.19999996930E+02 0.  0.
         12    1    1    2    0    0  0.43023351462E+02  0.25653024676E+01  0.51023312881E+01  0.43400729629E+02  0.00000000000E+00 0. -1.
         11    1    3    3    0    0 -0.18092672513E+02 -0.15323964151E+01 -0.10780094641E+02  0.21116426738E+02  0.51100000000E-03 0. -1.
        -11    1    3    3    0    0 -0.68239663898E+01 -0.22805906399E+01 -0.11364429765E+01  0.72841687141E+01  0.51100000000E-03 0.  1.
         12    1    3    3    0    0 -0.18106712559E+02  0.12476845874E+01  0.68142063299E+01  0.19386674919E+02  0.00000000000E+00 0. -1.
</event>
<event>
 7    1  0.2455451E-009  0.4778727E+02  0.7816164E-02  0.1312668E+00
        -11   -1    0    0    0    0  0.00000000000E+00  0.00000000000E+00  0.45593999997E+02  0.45594000000E+02  0.51100000000E-03 0. -1.
         11   -1    0    0    0    0 -0.00000000000E+00 -0.00000000000E+00 -0.45593999997E+02  0.45594000000E+02  0.51100000000E-03 0.  1.
    9900012    2    1    2    0    0 -0.20377164501E+02  0.24815878900E+02 -0.29198742087E+02  0.47787271686E+02  0.20000002927E+02 0.  0.
         12    1    1    2    0    0  0.20377164501E+02 -0.24815878900E+02  0.29198742087E+02  0.43400728314E+02  0.00000000000E+00 0. -1.
         11    1    3    3    0    0 -0.13679272567E+02  0.11761413648E+02 -0.26493088521E+02  0.32052099598E+02  0.51100000000E-03 0. -1.
        -11    1    3    3    0    0 -0.78120101481E-01  0.52651406880E+01 -0.61758728849E+00  0.53018132308E+01  0.51100000000E-03 0.  1.
         12    1    3    3    0    0 -0.66197718322E+01  0.77893245645E+01 -0.20880662770E+01  0.10433358858E+02  0.00000000000E+00 0. -1.
</event>
<event>
 7    1  0.2455451E-009  0.4778727E+02  0.7816164E-02  0.1312668E+00
        -11   -1    0    0    0    0  0.00000000000E+00  0.00000000000E+00  0.45593999997E+02  0.45594000000E+02  0.51100000000E-03 0.  1.
         11   -1    0    0    0    0 -0.00000000000E+00 -0.00000000000E+00 -0.45593999997E+02  0.45594000000E+02  0.51100000000E-03 0. -1.
    9900012    2    1    2    0    0 -0.14084346818E+01 -0.39384036421E+02  0.18180676434E+02  0.47787274100E+02  0.20000013930E+02 0.  0.
         12    1    1    2    0    0  0.14084346818E+01  0.39384036421E+02 -0.18180676434E+02  0.43400725900E+02  0.00000000000E+00 0. -1.
         11    1    3    3    0    0 -0.39068210153E+01 -0.83033771507E+01  0.71961708490E+01  0.11661655016E+02  0.51100000000E-03 0. -1.
        -11    1    3    3    0    0  0.51508247570E+01 -0.30191985829E+02  0.72763481345E+01  0.31480664644E+02  0.51100000000E-03 0.  1.
        -12    1    3    3    0    0 -0.26524384234E+01 -0.88867344170E+00  0.37081574503E+01  0.46449544403E+01  0.00000000000E+00 0.  1.
</event>
<event>
 7    1  0.2455451E-009  0.4778727E+02  0.7816164E-02  0.1312668E+00
        -11   -1    0    0    0    0  0.00000000000E+00  0.00000000000E+00  0.45593999997E+02  0.45594000000E+02  0.51100000000E-03 0.  1.
         11   -1    0    0    0    0 -0.00000000000E+00 -0.00000000000E+00 -0.45593999997E+02  0.45594000000E+02  0.51100000000E-03 0. -1.
    9900012    2    1    2    0    0 -0.14020777632E+02 -0.22188763567E+02  0.34564430091E+02  0.47787271187E+02  0.20000000649E+02 0.  0.
         12    1    1    2    0    0  0.14020777632E+02  0.22188763567E+02 -0.34564430091E+02  0.43400728813E+02  0.00000000000E+00 0. -1.
         11    1    3    3    0    0  0.16160724093E+01 -0.30600980371E+01 -0.77753028834E+00  0.35468921099E+01  0.51100000000E-03 0. -1.
        -11    1    3    3    0    0 -0.41395430341E+01 -0.73277254531E+01  0.52101614294E+01  0.98983412363E+01  0.51100000000E-03 0.  1.
         12    1    3    3    0    0 -0.11497307007E+02 -0.11800940077E+02  0.30131798949E+02  0.34342037841E+02  0.00000000000E+00 0. -1.
</event>
<event>
 7    1  0.2455451E-009  0.4778728E+02  0.7816164E-02  0.1312668E+00
        -11   -1    0    0    0    0  0.00000000000E+00  0.00000000000E+00  0.45593999997E+02  0.45594000000E+02  0.51100000000E-03 0.  1.
         11   -1    0    0    0    0 -0.00000000000E+00 -0.00000000000E+00 -0.45593999997E+02  0.45594000000E+02  0.51100000000E-03 0. -1.
    9900012    2    1    2    0    0  0.33797651810E+02  0.26016117794E+02  0.80313913053E+01  0.47787275361E+02  0.20000019680E+02 0.  0.
         12    1    1    2    0    0 -0.33797651810E+02 -0.26016117794E+02 -0.80313913053E+01  0.43400724639E+02  0.00000000000E+00 0. -1.
         11    1    3    3    0    0  0.59405159181E+01  0.33389950871E-01  0.61998876780E+01  0.85865855695E+01  0.51100000000E-03 0. -1.
        -11    1    3    3    0    0  0.12210314940E+02  0.12825779739E+02  0.52570489259E+01  0.18472384267E+02  0.51100000000E-03 0.  1.
         12    1    3    3    0    0  0.15646820952E+02  0.13156948104E+02 -0.34255452986E+01  0.20728305524E+02  0.00000000000E+00 0. -1.
</event>
<event>
 7    1  0.2455451E-009  0.4778727E+02  0.7816164E-02  0.1312668E+00
        -11   -1    0    0    0    0  0.00000000000E+00  0.00000000000E+00  0.45593999997E+02  0.45594000000E+02  0.51100000000E-03 0.  1.
         11   -1    0    0    0    0 -0.00000000000E+00 -0.00000000000E+00 -0.45593999997E+02  0.45594000000E+02  0.51100000000E-03 0. -1.
    9900012    2    1    2    0    0 -0.34759700496E+01  0.31432036711E+02  0.29724875047E+02  0.47787268484E+02  0.19999988325E+02 0.  0.
         12    1    1    2    0    0  0.34759700496E+01 -0.31432036711E+02 -0.29724875047E+02  0.43400731516E+02  0.00000000000E+00 0. -1.
         11    1    3    3    0    0  0.65659255775E+01  0.53675523277E+01  0.37486991928E+01  0.92722566066E+01  0.51100000000E-03 0. -1.
        -11    1    3    3    0    0 -0.10123950525E+02  0.21014602776E+02  0.22275569342E+02  0.32253819833E+02  0.51100000000E-03 0.  1.
        -12    1    3    3    0    0  0.82054897609E-01  0.50498816074E+01  0.37006065117E+01  0.62611920438E+01  0.00000000000E+00 0.  1.
</event>
<event>
 7    1  0.2455451E-009  0.4778727E+02  0.7816164E-02  0.1312668E+00
        -11   -1    0    0    0    0  0.00000000000E+00  0.00000000000E+00  0.45593999997E+02  0.45594000000E+02  0.51100000000E-03 0.  1.
         11   -1    0    0    0    0 -0.00000000000E+00 -0.00000000000E+00 -0.45593999997E+02  0.45594000000E+02  0.51100000000E-03 0. -1.
    9900012    2    1    2    0    0 -0.19625940291E+02 -0.68985020410E+01  0.38090107990E+02  0.47787272017E+02  0.20000004435E+02 0.  0.
         12    1    1    2    0    0  0.19625940291E+02  0.68985020410E+01 -0.38090107990E+02  0.43400727983E+02  0.00000000000E+00 0. -1.
         11    1    3    3    0    0 -0.52009718953E+01 -0.63646756571E+01  0.57250931947E+01  0.10016780782E+02  0.51100000000E-03 0. -1.
        -11    1    3    3    0    0 -0.33148762965E+01  0.57831478906E+01  0.12009632392E+02  0.13735518732E+02  0.51100000000E-03 0.  1.
        -12    1    3    3    0    0 -0.11110092100E+02 -0.63169742744E+01  0.20355382403E+02  0.24034972503E+02  0.00000000000E+00 0.  1.
</event>
<event>
 7    1  0.2455451E-009  0.4778727E+02  0.7816164E-02  0.1312668E+00
        -11   -1    0    0    0    0  0.00000000000E+00  0.00000000000E+00  0.45593999997E+02  0.45594000000E+02  0.51100000000E-03 0.  1.
         11   -1    0    0    0    0 -0.00000000000E+00 -0.00000000000E+00 -0.45593999997E+02  0.45594000000E+02  0.51100000000E-03 0. -1.
    9900012    2    1    2    0    0  0.36082361554E+02  0.68878282220E+01  0.23113722244E+02  0.47787272484E+02  0.20000006563E+02 0.  0.
         12    1    1    2    0    0 -0.36082361554E+02 -0.68878282220E+01 -0.23113722244E+02  0.43400727516E+02  0.00000000000E+00 0. -1.
         11    1    3    3    0    0  0.13226479007E+02  0.18251547300E+01  0.16824848246E+02  0.21478977058E+02  0.51100000000E-03 0. -1.
        -11    1    3    3    0    0  0.11345132569E+02  0.11893584603E+01  0.81526857429E+01  0.14021158713E+02  0.51100000000E-03 0.  1.
         12    1    3    3    0    0  0.11510749978E+02  0.38733150317E+01 -0.18638117445E+01  0.12287136713E+02  0.00000000000E+00 0. -1.
</event>
<event>
 7    1  0.2455451E-009  0.4778727E+02  0.7816164E-02  0.1312668E+00
        -11   -1    0    0    0    0  0.00000000000E+00  0.00000000000E+00  0.45593999997E+02  0.45594000000E+02  0.51100000000E-03 0.  1.
         11   -1    0    0    0    0 -0.00000000000E+00 -0.00000000000E+00 -0.45593999997E+02  0.45594000000E+02  0.51100000000E-03 0. -1.
    9900012    2    1    2    0    0  0.17356030914E+02  0.22695382185E-01  0.39779278259E+02  0.47787270709E+02  0.19999998472E+02 0.  0.
         12    1    1    2    0    0 -0.17356030914E+02 -0.22695382185E-01 -0.39779278259E+02  0.43400729291E+02  0.00000000000E+00 0. -1.
         11    1    3    3    0    0  0.10449197634E+02 -0.35907830579E+01  0.64636034990E+01  0.12800688443E+02  0.51100000000E-03 0. -1.
        -11    1    3    3    0    0  0.15629851998E+01  0.76463590707E+00  0.22688224576E+02  0.22754848395E+02  0.51100000000E-03 0.  1.
         12    1    3    3    0    0  0.53438480801E+01  0.28488425330E+01  0.10627450184E+02  0.12231733871E+02  0.00000000000E+00 0. -1.
</event>
<event>
 7    1  0.2455451E-009  0.4778726E+02  0.7816164E-02  0.1312668E+00
        -11   -1    0    0    0    0  0.00000000000E+00  0.00000000000E+00  0.45593999997E+02  0.45594000000E+02  0.51100000000E-03 0. -1.
         11   -1    0    0    0    0 -0.00000000000E+00 -0.00000000000E+00 -0.45593999997E+02  0.45594000000E+02  0.51100000000E-03 0.  1.
    9900012    2    1    2    0    0 -0.13024799838E+02  0.41362898779E+02 -0.17575981229E+01  0.47787263170E+02  0.19999964096E+02 0.  0.
         12    1    1    2    0    0  0.13024799838E+02 -0.41362898779E+02  0.17575981229E+01  0.43400736830E+02  0.00000000000E+00 0. -1.
         11    1    3    3    0    0 -0.85089395430E+01  0.12819368230E+02  0.70392203388E+01  0.16920073203E+02  0.51100000000E-03 0. -1.
        -11    1    3    3    0    0 -0.58383667457E+01  0.21266647452E+02 -0.78585637788E+01  0.23411831304E+02  0.51100000000E-03 0.  1.
         12    1    3    3    0    0  0.13225064508E+01  0.72768830981E+01 -0.93825468284E+00  0.74553586624E+01  0.00000000000E+00 0. -1.
</event>
<event>
 7    1  0.2455451E-009  0.4778728E+02  0.7816164E-02  0.1312668E+00
        -11   -1    0    0    0    0  0.00000000000E+00  0.00000000000E+00  0.45593999997E+02  0.45594000000E+02  0.51100000000E-03 0.  1.
         11   -1    0    0    0    0 -0.00000000000E+00 -0.00000000000E+00 -0.45593999997E+02  0.45594000000E+02  0.51100000000E-03 0. -1.
    9900012    2    1    2    0    0  0.29504101151E+02 -0.29904492831E+02  0.10901908896E+02  0.47787282335E+02  0.20000051478E+02 0.  0.
         12    1    1    2    0    0 -0.29504101151E+02  0.29904492831E+02 -0.10901908896E+02  0.43400717665E+02  0.00000000000E+00 0. -1.
         11    1    3    3    0    0  0.51253171040E+01 -0.69189908220E+01 -0.46864294685E+01  0.98032612346E+01  0.51100000000E-03 0. -1.
        -11    1    3    3    0    0  0.16549003257E+02 -0.99330424341E+01  0.71668137072E+01  0.20588784806E+02  0.51100000000E-03 0.  1.
         12    1    3    3    0    0  0.78297807900E+01 -0.13052459575E+02  0.84215246575E+01  0.17395236295E+02  0.00000000000E+00 0. -1.
</event>
<event>
 7    1  0.2455451E-009  0.4778727E+02  0.7816164E-02  0.1312668E+00
        -11   -1    0    0    0    0  0.00000000000E+00  0.00000000000E+00  0.45593999997E+02  0.45594000000E+02  0.51100000000E-03 0.  1.
         11   -1    0    0    0    0 -0.00000000000E+00 -0.00000000000E+00 -0.45593999997E+02  0.45594000000E+02  0.51100000000E-03 0. -1.
    9900012    2    1    2    0    0  0.41578205083E+02  0.10063940139E+02  0.73207477095E+01  0.47787269867E+02  0.19999994634E+02 0.  0.
         12    1    1    2    0    0 -0.41578205083E+02 -0.10063940139E+02 -0.73207477095E+01  0.43400730133E+02  0.00000000000E+00 0. -1.
         11    1    3    3    0    0  0.14954739771E+02  0.38775940072E+01 -0.55299422537E+01  0.16409151060E+02  0.51100000000E-03 0. -1.
        -11    1    3    3    0    0  0.18452014954E+02  0.95811674636E+00  0.10996664942E+02  0.21501662346E+02  0.51100000000E-03 0.  1.
        -12    1    3    3    0    0  0.81714503580E+01  0.52282293853E+01  0.18540250213E+01  0.98764564616E+01  0.00000000000E+00 0.  1.
</event>
<event>
 7    1  0.2455451E-009  0.4778727E+02  0.7816164E-02  0.1312668E+00
        -11   -1    0    0    0    0  0.00000000000E+00  0.00000000000E+00  0.45593999997E+02  0.45594000000E+02  0.51100000000E-03 0.  1.
         11   -1    0    0    0    0 -0.00000000000E+00 -0.00000000000E+00 -0.45593999997E+02  0.45594000000E+02  0.51100000000E-03 0. -1.
    9900012    2    1    2    0    0  0.66162937675E+01  0.15231929377E+02  0.40097831451E+02  0.47787273015E+02  0.20000008984E+02 0.  0.
         12    1    1    2    0    0 -0.66162937675E+01 -0.15231929377E+02 -0.40097831451E+02  0.43400726985E+02  0.00000000000E+00 0. -1.
         11    1    3    3    0    0  0.20147029896E+01 -0.50436741364E+00  0.76189788251E-03  0.20768763723E+01  0.51100000000E-03 0. -1.
        -11    1    3    3    0    0  0.80910458744E+01  0.28452397071E+01  0.14857802575E+02  0.17155602873E+02  0.51100000000E-03 0.  1.
         12    1    3    3    0    0 -0.34894550965E+01  0.12891057083E+02  0.25239266979E+02  0.28554793769E+02  0.00000000000E+00 0. -1.
</event>
<event>
 7    1  0.2455451E-009  0.4778727E+02  0.7816164E-02  0.1312668E+00
        -11   -1    0    0    0    0  0.00000000000E+00  0.00000000000E+00  0.45593999997E+02  0.45594000000E+02  0.51100000000E-03 0. -1.
         11   -1    0    0    0    0 -0.00000000000E+00 -0.00000000000E+00 -0.45593999997E+02  0.45594000000E+02  0.51100000000E-03 0.  1.
    9900012    2    1    2    0    0  0.34786853164E+02 -0.57343368962E+01 -0.25310382956E+02  0.47787271227E+02  0.20000000831E+02 0.  0.
         12    1    1    2    0    0 -0.34786853164E+02  0.57343368962E+01  0.25310382956E+02  0.43400728773E+02  0.00000000000E+00 0. -1.
         11    1    3    3    0    0  0.15837602644E+02 -0.41140999449E+01 -0.63871293191E+00  0.16375696332E+02  0.51100000000E-03 0. -1.
        -11    1    3    3    0    0  0.83031671374E+01 -0.23038081353E+01 -0.13027340394E+02  0.15619273813E+02  0.51100000000E-03 0.  1.
         12    1    3    3    0    0  0.10646083382E+02  0.68357118407E+00 -0.11644329630E+02  0.15792301082E+02  0.00000000000E+00 0. -1.
</event>
<event>
 7    1  0.2455451E-009  0.4778727E+02  0.7816164E-02  0.1312668E+00
        -11   -1    0    0    0    0  0.00000000000E+00  0.00000000000E+00  0.45593999997E+02  0.45594000000E+02  0.51100000000E-03 0. -1.
         11   -1    0    0    0    0 -0.00000000000E+00 -0.00000000000E+00 -0.45593999997E+02  0.45594000000E+02  0.51100000000E-03 0.  1.
    9900012    2    1    2    0    0  0.39232533725E+02  0.15026822476E+02 -0.10891564204E+02  0.47787271123E+02  0.20000000359E+02 0.  0.
         12    1    1    2    0    0 -0.39232533725E+02 -0.15026822476E+02  0.10891564204E+02  0.43400728877E+02  0.00000000000E+00 0. -1.
         11    1    3    3    0    0  0.83834756384E+01 -0.30003627614E+01  0.66846069113E+00  0.89292597922E+01  0.51100000000E-03 0. -1.
        -11    1    3    3    0    0  0.29502276018E+02  0.13642344526E+02 -0.98654751935E+01  0.33968006351E+02  0.51100000000E-03 0.  1.
        -12    1    3    3    0    0  0.13467820685E+01  0.43848407121E+01 -0.16945497021E+01  0.48900049799E+01  0.00000000000E+00 0.  1.
</event>
<event>
 7    1  0.2455451E-009  0.4778727E+02  0.7816164E-02  0.1312668E+00
        -11   -1    0    0    0    0  0.00000000000E+00  0.00000000000E+00  0.45593999997E+02  0.45594000000E+02  0.51100000000E-03 0.  1.
         11   -1    0    0    0    0 -0.00000000000E+00 -0.00000000000E+00 -0.45593999997E+02  0.45594000000E+02  0.51100000000E-03 0. -1.
    9900012    2    1    2    0    0 -0.40339913935E+02  0.16147957976E+01  0.15928174036E+02  0.47787274777E+02  0.20000017020E+02 0.  0.
         12    1    1    2    0    0  0.40339913935E+02 -0.16147957976E+01 -0.15928174036E+02  0.43400725223E+02  0.00000000000E+00 0. -1.
         11    1    3    3    0    0 -0.16054682703E+02  0.32653601011E+01  0.98206570144E+01  0.19101327644E+02  0.51100000000E-03 0. -1.
        -11    1    3    3    0    0 -0.15638286094E+02 -0.25286442500E+01 -0.29711454300E+01  0.16117622006E+02  0.51100000000E-03 0.  1.
        -12    1    3    3    0    0 -0.86469451374E+01  0.87807994645E+00  0.90786624516E+01  0.12568325127E+02  0.00000000000E+00 0.  1.
</event>
<event>
 7    1  0.2455451E-009  0.4778728E+02  0.7816164E-02  0.1312668E+00
        -11   -1    0    0    0    0  0.00000000000E+00  0.00000000000E+00  0.45593999997E+02  0.45594000000E+02  0.51100000000E-03 0.  1.
         11   -1    0    0    0    0 -0.00000000000E+00 -0.00000000000E+00 -0.45593999997E+02  0.45594000000E+02  0.51100000000E-03 0. -1.
    9900012    2    1    2    0    0  0.13140738263E+02 -0.24546807189E+01  0.41290650632E+02  0.47787282389E+02  0.20000051724E+02 0.  0.
         12    1    1    2    0    0 -0.13140738263E+02  0.24546807189E+01 -0.41290650632E+02  0.43400717611E+02  0.00000000000E+00 0. -1.
         11    1    3    3    0    0 -0.25308286081E+00  0.31594866641E+01  0.27670856653E+02  0.27851799136E+02  0.51100000000E-03 0. -1.
        -11    1    3    3    0    0  0.85019794414E+01 -0.31998554380E+01  0.80221921137E+01  0.12119335618E+02  0.51100000000E-03 0.  1.
         12    1    3    3    0    0  0.48918416826E+01 -0.24143119450E+01  0.55976018652E+01  0.78161476353E+01  0.00000000000E+00 0. -1.
</event>
<event>
 7    1  0.2455451E-009  0.4778727E+02  0.7816164E-02  0.1312668E+00
        -11   -1    0    0    0    0  0.00000000000E+00  0.00000000000E+00  0.45593999997E+02  0.45594000000E+02  0.51100000000E-03 0.  1.
         11   -1    0    0    0    0 -0.00000000000E+00 -0.00000000000E+00 -0.45593999997E+02  0.45594000000E+02  0.51100000000E-03 0. -1.
    9900012    2    1    2    0    0 -0.21704471792E+02 -0.10096519689E+02  0.36202209748E+02  0.47787265026E+02  0.19999972559E+02 0.  0.
         12    1    1    2    0    0  0.21704471792E+02  0.10096519689E+02 -0.36202209748E+02  0.43400734974E+02  0.00000000000E+00 0. -1.
         11    1    3    3    0    0 -0.94207873755E+01  0.31057291977E+00  0.19902479237E+01  0.96337312280E+01  0.51100000000E-03 0. -1.
        -11    1    3    3    0    0 -0.51547789174E+01 -0.35380047521E+01  0.19014860039E+02  0.20016346466E+02  0.51100000000E-03 0.  1.
         12    1    3    3    0    0 -0.71289054992E+01 -0.68690878569E+01  0.15197101786E+02  0.18137187332E+02  0.00000000000E+00 0. -1.
</event>
<event>
 7    1  0.2455451E-009  0.4778727E+02  0.7816164E-02  0.1312668E+00
        -11   -1    0    0    0    0  0.00000000000E+00  0.00000000000E+00  0.45593999997E+02  0.45594000000E+02  0.51100000000E-03 0. -1.
         11   -1    0    0    0    0 -0.00000000000E+00 -0.00000000000E+00 -0.45593999997E+02  0.45594000000E+02  0.51100000000E-03 0.  1.
    9900012    2    1    2    0    0 -0.26899035900E+02 -0.22842819159E+02 -0.25264019220E+02  0.47787272049E+02  0.20000004581E+02 0.  0.
         12    1    1    2    0    0  0.26899035900E+02  0.22842819159E+02  0.25264019220E+02  0.43400727951E+02  0.00000000000E+00 0. -1.
         11    1    3    3    0    0 -0.44790488640E+01 -0.53940906467E+01  0.37762262471E+00  0.70214451318E+01  0.51100000000E-03 0. -1.
        -11    1    3    3    0    0 -0.14590554229E+02 -0.71732098874E+01 -0.21977669389E+02  0.27337833945E+02  0.51100000000E-03 0.  1.
        -12    1    3    3    0    0 -0.78294328070E+01 -0.10275518625E+02 -0.36639724559E+01  0.13427992972E+02  0.00000000000E+00 0.  1.
</event>
<event>
 7    1  0.2455451E-009  0.4778727E+02  0.7816164E-02  0.1312668E+00
        -11   -1    0    0    0    0  0.00000000000E+00  0.00000000000E+00  0.45593999997E+02  0.45594000000E+02  0.51100000000E-03 0.  1.
         11   -1    0    0    0    0 -0.00000000000E+00 -0.00000000000E+00 -0.45593999997E+02  0.45594000000E+02  0.51100000000E-03 0. -1.
    9900012    2    1    2    0    0  0.11430178352E+02 -0.28142477261E+02  0.30999595976E+02  0.47787274727E+02  0.20000016789E+02 0.  0.
         12    1    1    2    0    0 -0.11430178352E+02  0.28142477261E+02 -0.30999595976E+02  0.43400725273E+02  0.00000000000E+00 0. -1.
         11    1    3    3    0    0  0.96716872271E+01 -0.12898470397E+02  0.92508621444E+01  0.18587375368E+02  0.51100000000E-03 0. -1.
        -11    1    3    3    0    0 -0.44476660782E+01 -0.54241600913E+01  0.12569762027E+02  0.14394518537E+02  0.51100000000E-03 0.  1.
        -12    1    3    3    0    0  0.62061572032E+01 -0.98198467728E+01  0.91789718042E+01  0.14805380821E+02  0.00000000000E+00 0.  1.
</event>
<event>
 7    1  0.2455451E-009  0.4778727E+02  0.7816164E-02  0.1312668E+00
        -11   -1    0    0    0    0  0.00000000000E+00  0.00000000000E+00  0.45593999997E+02  0.45594000000E+02  0.51100000000E-03 0.  1.
         11   -1    0    0    0    0 -0.00000000000E+00 -0.00000000000E+00 -0.45593999997E+02  0.45594000000E+02  0.51100000000E-03 0. -1.
    9900012    2    1    2    0    0  0.17164819877E+02 -0.98325219287E+01  0.38630472625E+02  0.47787274843E+02  0.20000017321E+02 0.  0.
         12    1    1    2    0    0 -0.17164819877E+02  0.98325219287E+01 -0.38630472625E+02  0.43400725157E+02  0.00000000000E+00 0. -1.
         11    1    3    3    0    0  0.45502019635E+01 -0.17894908407E+01  0.62336766365E+01  0.79224579549E+01  0.51100000000E-03 0. -1.
        -11    1    3    3    0    0  0.49825626177E+00  0.40152366060E+00 -0.21768153933E+01  0.22689217858E+01  0.51100000000E-03 0.  1.
        -12    1    3    3    0    0  0.12116361652E+02 -0.84445547485E+01  0.34573611382E+02  0.37595895103E+02  0.00000000000E+00 0.  1.
</event>
<event>
 7    1  0.2455451E-009  0.4778727E+02  0.7816164E-02  0.1312668E+00
        -11   -1    0    0    0    0  0.00000000000E+00  0.00000000000E+00  0.45593999997E+02  0.45594000000E+02  0.51100000000E-03 0.  1.
         11   -1    0    0    0    0 -0.00000000000E+00 -0.00000000000E+00 -0.45593999997E+02  0.45594000000E+02  0.51100000000E-03 0. -1.
    9900012    2    1    2    0    0  0.12204699088E+02 -0.11699262967E+02  0.39972436345E+02  0.47787273034E+02  0.20000009071E+02 0.  0.
         12    1    1    2    0    0 -0.12204699088E+02  0.11699262967E+02 -0.39972436345E+02  0.43400726966E+02  0.00000000000E+00 0. -1.
         11    1    3    3    0    0  0.70437236390E+01 -0.93081305029E+01  0.27460711944E+02  0.29838666808E+02  0.51100000000E-03 0.  1.
        -11    1    3    3    0    0  0.98406522691E+00  0.45534075583E+01  0.57049319432E+01  0.73653345817E+01  0.51100000000E-03 0. -1.
        -12    1    3    3    0    0  0.41769102224E+01 -0.69445400220E+01  0.68067924585E+01  0.10583271644E+02  0.00000000000E+00 0.  1.
</event>
<event>
 7    1  0.2455451E-009  0.4778727E+02  0.7816164E-02  0.1312668E+00
        -11   -1    0    0    0    0  0.00000000000E+00  0.00000000000E+00  0.45593999997E+02  0.45594000000E+02  0.51100000000E-03 0.  1.
         11   -1    0    0    0    0 -0.00000000000E+00 -0.00000000000E+00 -0.45593999997E+02  0.45594000000E+02  0.51100000000E-03 0. -1.
    9900012    2    1    2    0    0  0.39249201794E+01 -0.24648882660E+02  0.35505645241E+02  0.47787271218E+02  0.20000000792E+02 0.  0.
         12    1    1    2    0    0 -0.39249201794E+01  0.24648882660E+02 -0.35505645241E+02  0.43400728782E+02  0.00000000000E+00 0. -1.
         11    1    3    3    0    0 -0.11278308772E+01  0.95230708186E+00 -0.13817325917E+01  0.20218992264E+01  0.51100000000E-03 0. -1.
        -11    1    3    3    0    0  0.60644866429E+01 -0.21048002743E+02  0.33398462092E+02  0.39940627037E+02  0.51100000000E-03 0.  1.
        -12    1    3    3    0    0 -0.10117355863E+01 -0.45531869985E+01  0.34889157407E+01  0.58247449546E+01  0.00000000000E+00 0.  1.
</event>
<event>
 7    1  0.2455451E-009  0.4778726E+02  0.7816164E-02  0.1312668E+00
        -11   -1    0    0    0    0  0.00000000000E+00  0.00000000000E+00  0.45593999997E+02  0.45594000000E+02  0.51100000000E-03 0. -1.
         11   -1    0    0    0    0 -0.00000000000E+00 -0.00000000000E+00 -0.45593999997E+02  0.45594000000E+02  0.51100000000E-03 0.  1.
    9900012    2    1    2    0    0 -0.13401564043E+02 -0.28189712588E+02 -0.30155639456E+02  0.47787258007E+02  0.19999940556E+02 0.  0.
         12    1    1    2    0    0  0.13401564043E+02  0.28189712588E+02  0.30155639456E+02  0.43400741993E+02  0.00000000000E+00 0. -1.
         11    1    3    3    0    0 -0.75193480300E+01 -0.84844537617E+01 -0.66109256810E+01  0.13123676659E+02  0.51100000000E-03 0. -1.
        -11    1    3    3    0    0 -0.59983002886E+01 -0.20340556666E+02 -0.25171164061E+02  0.32913604365E+02  0.51100000000E-03 0.  1.
        -12    1    3    3    0    0  0.11608427599E+00  0.63529784038E+00  0.16264502865E+01  0.17499769826E+01  0.00000000000E+00 0.  1.
</event>
<event>
 7    1  0.2455451E-009  0.4778727E+02  0.7816164E-02  0.1312668E+00
        -11   -1    0    0    0    0  0.00000000000E+00  0.00000000000E+00  0.45593999997E+02  0.45594000000E+02  0.51100000000E-03 0. -1.
         11   -1    0    0    0    0 -0.00000000000E+00 -0.00000000000E+00 -0.45593999997E+02  0.45594000000E+02  0.51100000000E-03 0.  1.
    9900012    2    1    2    0    0  0.37139232587E+02  0.28325118044E+01 -0.22277289193E+02  0.47787270351E+02  0.19999996840E+02 0.  0.
         12    1    1    2    0    0 -0.37139232587E+02 -0.28325118044E+01  0.22277289193E+02  0.43400729649E+02  0.00000000000E+00 0. -1.
         11    1    3    3    0    0  0.22849502495E+02 -0.31080609676E+01 -0.44522212782E+01  0.23485784675E+02  0.51100000000E-03 0. -1.
        -11    1    3    3    0    0  0.99913962916E+01  0.50210749439E+01 -0.16049530374E+02  0.19560844024E+02  0.51100000000E-03 0.  1.
        -12    1    3    3    0    0  0.42983338003E+01  0.91949782816E+00 -0.17755375407E+01  0.47406416520E+01  0.00000000000E+00 0.  1.
</event>
<event>
 7    1  0.2455451E-009  0.4778727E+02  0.7816164E-02  0.1312668E+00
        -11   -1    0    0    0    0  0.00000000000E+00  0.00000000000E+00  0.45593999997E+02  0.45594000000E+02  0.51100000000E-03 0.  1.
         11   -1    0    0    0    0 -0.00000000000E+00 -0.00000000000E+00 -0.45593999997E+02  0.45594000000E+02  0.51100000000E-03 0. -1.
    9900012    2    1    2    0    0 -0.16061249155E+02 -0.40308575026E+02 -0.93703862515E+00  0.47787274356E+02  0.20000015099E+02 0.  0.
         12    1    1    2    0    0  0.16061249155E+02  0.40308575026E+02  0.93703862515E+00  0.43400725644E+02  0.00000000000E+00 0. -1.
         11    1    3    3    0    0 -0.14158628130E+02 -0.16542998620E+02 -0.46827051664E+01  0.22272523023E+02  0.51100000000E-03 0. -1.
        -11    1    3    3    0    0 -0.48923315605E+01 -0.17242672143E+02  0.14536259212E+01  0.17982148907E+02  0.51100000000E-03 0.  1.
         12    1    3    3    0    0  0.29897105356E+01 -0.65229042630E+01  0.22920406201E+01  0.75326024265E+01  0.00000000000E+00 0. -1.
</event>
<event>
 7    1  0.2455451E-009  0.4778727E+02  0.7816164E-02  0.1312668E+00
        -11   -1    0    0    0    0  0.00000000000E+00  0.00000000000E+00  0.45593999997E+02  0.45594000000E+02  0.51100000000E-03 0.  1.
         11   -1    0    0    0    0 -0.00000000000E+00 -0.00000000000E+00 -0.45593999997E+02  0.45594000000E+02  0.51100000000E-03 0. -1.
    9900012    2    1    2    0    0 -0.31118362696E+02  0.25509328787E+02  0.16264834738E+02  0.47787271883E+02  0.20000003824E+02 0.  0.
         12    1    1    2    0    0  0.31118362696E+02 -0.25509328787E+02 -0.16264834738E+02  0.43400728117E+02  0.00000000000E+00 0. -1.
         11    1    3    3    0    0 -0.81768116676E+01 -0.10867532953E+01 -0.58977243647E+00  0.82697710706E+01  0.51100000000E-03 0. -1.
        -11    1    3    3    0    0 -0.20936622279E+02  0.25671569553E+02  0.17128331039E+02  0.37292778928E+02  0.51100000000E-03 0.  1.
        -12    1    3    3    0    0 -0.20049287495E+01  0.92451252914E+00 -0.27372386478E+00  0.22247218840E+01  0.00000000000E+00 0.  1.
</event>
<event>
 7    1  0.2455451E-009  0.4778727E+02  0.7816164E-02  0.1312668E+00
        -11   -1    0    0    0    0  0.00000000000E+00  0.00000000000E+00  0.45593999997E+02  0.45594000000E+02  0.51100000000E-03 0.  1.
         11   -1    0    0    0    0 -0.00000000000E+00 -0.00000000000E+00 -0.45593999997E+02  0.45594000000E+02  0.51100000000E-03 0. -1.
    9900012    2    1    2    0    0  0.23969776288E+02  0.44830457290E+01  0.35902301725E+02  0.47787272546E+02  0.20000006848E+02 0.  0.
         12    1    1    2    0    0 -0.23969776288E+02 -0.44830457290E+01 -0.35902301725E+02  0.43400727454E+02  0.00000000000E+00 0. -1.
         11    1    3    3    0    0  0.17194579429E+01  0.24332408320E+01  0.85475662477E+00  0.30996460624E+01  0.51100000000E-03 0. -1.
        -11    1    3    3    0    0  0.39394392794E+01 -0.61733892589E+01  0.65144343151E+01  0.98014168101E+01  0.51100000000E-03 0.  1.
        -12    1    3    3    0    0  0.18310879066E+02  0.82231941559E+01  0.28533110786E+02  0.34886209674E+02  0.00000000000E+00 0.  1.
</event>
<event>
 7    1  0.2455451E-009  0.4778729E+02  0.7816164E-02  0.1312668E+00
        -11   -1    0    0    0    0  0.00000000000E+00  0.00000000000E+00  0.45593999997E+02  0.45594000000E+02  0.51100000000E-03 0. -1.
         11   -1    0    0    0    0 -0.00000000000E+00 -0.00000000000E+00 -0.45593999997E+02  0.45594000000E+02  0.51100000000E-03 0.  1.
    9900012    2    1    2    0    0 -0.14601835512E+01  0.18891527452E+02 -0.39046127133E+02  0.47787285841E+02  0.20000067462E+02 0.  0.
         12    1    1    2    0    0  0.14601835512E+01 -0.18891527452E+02  0.39046127133E+02  0.43400714159E+02  0.00000000000E+00 0. -1.
         11    1    3    3    0    0  0.97815584786E+00 -0.52726522580E+00  0.91578963095E+00  0.14399543015E+01  0.51100000000E-03 0. -1.
        -11    1    3    3    0    0  0.17231919057E+01  0.98519742458E+01 -0.31067574492E+02  0.32637784422E+02  0.51100000000E-03 0.  1.
         12    1    3    3    0    0 -0.41615313048E+01  0.95668184323E+01 -0.88943422712E+01  0.13709547117E+02  0.00000000000E+00 0. -1.
</event>
<event>
 7    1  0.2455451E-009  0.4778728E+02  0.7816164E-02  0.1312668E+00
        -11   -1    0    0    0    0  0.00000000000E+00  0.00000000000E+00  0.45593999997E+02  0.45594000000E+02  0.51100000000E-03 0. -1.
         11   -1    0    0    0    0 -0.00000000000E+00 -0.00000000000E+00 -0.45593999997E+02  0.45594000000E+02  0.51100000000E-03 0.  1.
    9900012    2    1    2    0    0 -0.42623968377E+02 -0.57727779816E+01 -0.57874986268E+01  0.47787276663E+02  0.20000025618E+02 0.  0.
         12    1    1    2    0    0  0.42623968377E+02  0.57727779816E+01  0.57874986268E+01  0.43400723337E+02  0.00000000000E+00 0. -1.
         11    1    3    3    0    0 -0.32101647282E+02 -0.94748274127E+01  0.22494813423E+01  0.33546211102E+02  0.51100000000E-03 0. -1.
        -11    1    3    3    0    0 -0.76434190251E+01  0.33249129308E+01 -0.39400390623E+01  0.92195883023E+01  0.51100000000E-03 0.  1.
         12    1    3    3    0    0 -0.28789020695E+01  0.37713650034E+00 -0.40969409068E+01  0.50214772587E+01  0.00000000000E+00 0. -1.
</event>
<event>
 7    1  0.2455451E-009  0.4778727E+02  0.7816164E-02  0.1312668E+00
        -11   -1    0    0    0    0  0.00000000000E+00  0.00000000000E+00  0.45593999997E+02  0.45594000000E+02  0.51100000000E-03 0.  1.
         11   -1    0    0    0    0 -0.00000000000E+00 -0.00000000000E+00 -0.45593999997E+02  0.45594000000E+02  0.51100000000E-03 0. -1.
    9900012    2    1    2    0    0 -0.34402301302E+02  0.89878999055E+01  0.24886194965E+02  0.47787269829E+02  0.19999994457E+02 0.  0.
         12    1    1    2    0    0  0.34402301302E+02 -0.89878999055E+01 -0.24886194965E+02  0.43400730171E+02  0.00000000000E+00 0. -1.
         11    1    3    3    0    0 -0.12391436549E+02  0.11360118839E+02  0.57837433808E+01  0.17777842601E+02  0.51100000000E-03 0. -1.
        -11    1    3    3    0    0 -0.17986252016E+02  0.45332806548E+00  0.13132280890E+02  0.22274819181E+02  0.51100000000E-03 0.  1.
        -12    1    3    3    0    0 -0.40246127367E+01 -0.28255469986E+01  0.59701706945E+01  0.77346080472E+01  0.00000000000E+00 0.  1.
</event>
<event>
 7    1  0.2455451E-009  0.4778727E+02  0.7816164E-02  0.1312668E+00
        -11   -1    0    0    0    0  0.00000000000E+00  0.00000000000E+00  0.45593999997E+02  0.45594000000E+02  0.51100000000E-03 0.  1.
         11   -1    0    0    0    0 -0.00000000000E+00 -0.00000000000E+00 -0.45593999997E+02  0.45594000000E+02  0.51100000000E-03 0. -1.
    9900012    2    1    2    0    0 -0.32963608695E+02 -0.28225255256E+02 -0.59878540988E+00  0.47787273319E+02  0.20000010370E+02 0.  0.
         12    1    1    2    0    0  0.32963608695E+02  0.28225255256E+02  0.59878540988E+00  0.43400726681E+02  0.00000000000E+00 0. -1.
         11    1    3    3    0    0 -0.80396151199E+01 -0.15351824628E+01  0.28699089803E+01  0.86734407410E+01  0.51100000000E-03 0. -1.
        -11    1    3    3    0    0 -0.14723834011E+02 -0.20491406612E+02 -0.78087001075E+01  0.26413345690E+02  0.51100000000E-03 0.  1.
        -12    1    3    3    0    0 -0.10200159564E+02 -0.61986661818E+01  0.43400057173E+01  0.12700486888E+02  0.00000000000E+00 0.  1.
</event>
<event>
 7    1  0.2455451E-009  0.4778727E+02  0.7816164E-02  0.1312668E+00
        -11   -1    0    0    0    0  0.00000000000E+00  0.00000000000E+00  0.45593999997E+02  0.45594000000E+02  0.51100000000E-03 0.  1.
         11   -1    0    0    0    0 -0.00000000000E+00 -0.00000000000E+00 -0.45593999997E+02  0.45594000000E+02  0.51100000000E-03 0. -1.
    9900012    2    1    2    0    0  0.42554088816E+02 -0.44438235737E+00  0.85191172357E+01  0.47787270638E+02  0.19999998147E+02 0.  0.
         12    1    1    2    0    0 -0.42554088816E+02  0.44438235737E+00 -0.85191172357E+01  0.43400729362E+02  0.00000000000E+00 0. -1.
         11    1    3    3    0    0  0.15225242730E+02 -0.16835938393E+01  0.12110754527E+02  0.19527234312E+02  0.51100000000E-03 0. -1.
        -11    1    3    3    0    0  0.24831214222E+02  0.13876396526E+01 -0.50307158170E+01  0.25373664407E+02  0.51100000000E-03 0.  1.
        -12    1    3    3    0    0  0.24976318637E+01 -0.14842817069E+00  0.14390785253E+01  0.28863719183E+01  0.00000000000E+00 0.  1.
</event>
<event>
 7    1  0.2455451E-009  0.4778727E+02  0.7816164E-02  0.1312668E+00
        -11   -1    0    0    0    0  0.00000000000E+00  0.00000000000E+00  0.45593999997E+02  0.45594000000E+02  0.51100000000E-03 0.  1.
         11   -1    0    0    0    0 -0.00000000000E+00 -0.00000000000E+00 -0.45593999997E+02  0.45594000000E+02  0.51100000000E-03 0. -1.
    9900012    2    1    2    0    0 -0.96055398713E+01 -0.40631795106E+02 -0.11849650717E+02  0.47787269685E+02  0.19999993804E+02 0.  0.
         12    1    1    2    0    0  0.96055398713E+01  0.40631795106E+02  0.11849650717E+02  0.43400730315E+02  0.00000000000E+00 0. -1.
         11    1    3    3    0    0 -0.19047032760E+01 -0.39527895141E+01  0.48796730998E+01  0.65622899459E+01  0.51100000000E-03 0. -1.
        -11    1    3    3    0    0 -0.55245173044E+01 -0.28321227972E+02 -0.11102794644E+02  0.30917378519E+02  0.51100000000E-03 0.  1.
         12    1    3    3    0    0 -0.21763192908E+01 -0.83577776191E+01 -0.56265291736E+01  0.10307601221E+02  0.00000000000E+00 0. -1.
</event>
<event>
 7    1  0.2455451E-009  0.4778727E+02  0.7816164E-02  0.1312668E+00
        -11   -1    0    0    0    0  0.00000000000E+00  0.00000000000E+00  0.45593999997E+02  0.45594000000E+02  0.51100000000E-03 0.  1.
         11   -1    0    0    0    0 -0.00000000000E+00 -0.00000000000E+00 -0.45593999997E+02  0.45594000000E+02  0.51100000000E-03 0. -1.
    9900012    2    1    2    0    0  0.33024578592E+02 -0.28151944037E+02  0.68433253524E+00  0.47787273563E+02  0.20000011482E+02 0.  0.
         12    1    1    2    0    0 -0.33024578592E+02  0.28151944037E+02 -0.68433253524E+00  0.43400726437E+02  0.00000000000E+00 0. -1.
         11    1    3    3    0    0  0.10384719349E+00  0.64070666191E+00 -0.10806595505E+01  0.12606008850E+01  0.51100000000E-03 0. -1.
        -11    1    3    3    0    0  0.24081262074E+02 -0.14543155669E+02  0.69443659902E+01  0.28976452150E+02  0.51100000000E-03 0.  1.
        -12    1    3    3    0    0  0.88394693244E+01 -0.14249495030E+02 -0.51793739044E+01  0.17550220528E+02  0.00000000000E+00 0.  1.
</event>
<event>
 7    1  0.2455451E-009  0.4778727E+02  0.7816164E-02  0.1312668E+00
        -11   -1    0    0    0    0  0.00000000000E+00  0.00000000000E+00  0.45593999997E+02  0.45594000000E+02  0.51100000000E-03 0.  1.
         11   -1    0    0    0    0 -0.00000000000E+00 -0.00000000000E+00 -0.45593999997E+02  0.45594000000E+02  0.51100000000E-03 0. -1.
    9900012    2    1    2    0    0  0.19549651129E+02 -0.26412539659E+02  0.28351576543E+02  0.47787274166E+02  0.20000014231E+02 0.  0.
         12    1    1    2    0    0 -0.19549651129E+02  0.26412539659E+02 -0.28351576543E+02  0.43400725834E+02  0.00000000000E+00 0. -1.
         11    1    3    3    0    0  0.11488157622E+02 -0.15686236528E+02  0.43262317445E+01  0.19918636082E+02  0.51100000000E-03 0. -1.
        -11    1    3    3    0    0  0.64096442859E+01 -0.52689805568E+01  0.16007040194E+02  0.18029726344E+02  0.51100000000E-03 0.  1.
         12    1    3    3    0    0  0.16518492213E+01 -0.54573225732E+01  0.80183046039E+01  0.98389117405E+01  0.00000000000E+00 0. -1.
</event>
<event>
 7    1  0.2455451E-009  0.4778727E+02  0.7816164E-02  0.1312668E+00
        -11   -1    0    0    0    0  0.00000000000E+00  0.00000000000E+00  0.45593999997E+02  0.45594000000E+02  0.51100000000E-03 0. -1.
         11   -1    0    0    0    0 -0.00000000000E+00 -0.00000000000E+00 -0.45593999997E+02  0.45594000000E+02  0.51100000000E-03 0.  1.
    9900012    2    1    2    0    0  0.32935442278E+02  0.20722360636E+02 -0.19221437067E+02  0.47787271535E+02  0.20000002239E+02 0.  0.
         12    1    1    2    0    0 -0.32935442278E+02 -0.20722360636E+02  0.19221437067E+02  0.43400728465E+02  0.00000000000E+00 0. -1.
         11    1    3    3    0    0  0.14528335911E+02  0.10894375768E+01 -0.34064095140E+01  0.14962053489E+02  0.51100000000E-03 0. -1.
        -11    1    3    3    0    0  0.13144738385E+02  0.16603236083E+02 -0.16314851696E+02  0.26732489255E+02  0.51100000000E-03 0.  1.
        -12    1    3    3    0    0  0.52623679816E+01  0.30296869763E+01  0.49982414389E+00  0.60927287912E+01  0.00000000000E+00 0.  1.
</event>
<event>
 7    1  0.2455451E-009  0.4778727E+02  0.7816164E-02  0.1312668E+00
        -11   -1    0    0    0    0  0.00000000000E+00  0.00000000000E+00  0.45593999997E+02  0.45594000000E+02  0.51100000000E-03 0. -1.
         11   -1    0    0    0    0 -0.00000000000E+00 -0.00000000000E+00 -0.45593999997E+02  0.45594000000E+02  0.51100000000E-03 0.  1.
    9900012    2    1    2    0    0  0.62180931834E+01 -0.36564847988E+02 -0.22538210589E+02  0.47787265815E+02  0.19999976157E+02 0.  0.
         12    1    1    2    0    0 -0.62180931834E+01  0.36564847988E+02  0.22538210589E+02  0.43400734185E+02  0.00000000000E+00 0. -1.
         11    1    3    3    0    0  0.49966340625E+01 -0.32171287392E+01 -0.10375138303E+02  0.11956578288E+02  0.51100000000E-03 0. -1.
        -11    1    3    3    0    0  0.22646819723E+01 -0.28928305862E+02 -0.93362700484E+01  0.30481824144E+02  0.51100000000E-03 0.  1.
         12    1    3    3    0    0 -0.10432228514E+01 -0.44194133867E+01 -0.28268022376E+01  0.53488633831E+01  0.00000000000E+00 0. -1.
</event>
<event>
 7    1  0.2455451E-009  0.4778727E+02  0.7816164E-02  0.1312668E+00
        -11   -1    0    0    0    0  0.00000000000E+00  0.00000000000E+00  0.45593999997E+02  0.45594000000E+02  0.51100000000E-03 0.  1.
         11   -1    0    0    0    0 -0.00000000000E+00 -0.00000000000E+00 -0.45593999997E+02  0.45594000000E+02  0.51100000000E-03 0. -1.
    9900012    2    1    2    0    0 -0.35417598579E+02  0.19915514056E+02  0.15250877273E+02  0.47787271357E+02  0.20000001423E+02 0.  0.
         12    1    1    2    0    0  0.35417598579E+02 -0.19915514056E+02 -0.15250877273E+02  0.43400728643E+02  0.00000000000E+00 0. -1.
         11    1    3    3    0    0 -0.12055733395E+02  0.44437197553E+01 -0.32847264189E+01  0.13261854352E+02  0.51100000000E-03 0. -1.
        -11    1    3    3    0    0 -0.18120305395E+02  0.95912194608E+01  0.16685064751E+02  0.26433470153E+02  0.51100000000E-03 0.  1.
        -12    1    3    3    0    0 -0.52415597889E+01  0.58805748396E+01  0.18505389413E+01  0.80919468509E+01  0.00000000000E+00 0.  1.
</event>
<event>
 7    1  0.2455451E-009  0.4778727E+02  0.7816164E-02  0.1312668E+00
        -11   -1    0    0    0    0  0.00000000000E+00  0.00000000000E+00  0.45593999997E+02  0.45594000000E+02  0.51100000000E-03 0.  1.
         11   -1    0    0    0    0 -0.00000000000E+00 -0.00000000000E+00 -0.45593999997E+02  0.45594000000E+02  0.51100000000E-03 0. -1.
    9900012    2    1    2    0    0 -0.74868383037E+01 -0.22870664133E+02  0.36117909936E+02  0.47787269086E+02  0.19999991072E+02 0.  0.
         12    1    1    2    0    0  0.74868383037E+01  0.22870664133E+02 -0.36117909936E+02  0.43400730914E+02  0.00000000000E+00 0. -1.
         11    1    3    3    0    0 -0.58924349071E+01 -0.13463340107E+02  0.98099748443E+01  0.17669689377E+02  0.51100000000E-03 0. -1.
        -11    1    3    3    0    0 -0.40154460951E+01 -0.60937331307E+01  0.24622362126E+02  0.25681084630E+02  0.51100000000E-03 0.  1.
        -12    1    3    3    0    0  0.24210426985E+01 -0.33135908956E+01  0.16855729657E+01  0.44364950800E+01  0.00000000000E+00 0.  1.
</event>
<event>
 7    1  0.2455451E-009  0.4778727E+02  0.7816164E-02  0.1312668E+00
        -11   -1    0    0    0    0  0.00000000000E+00  0.00000000000E+00  0.45593999997E+02  0.45594000000E+02  0.51100000000E-03 0.  1.
         11   -1    0    0    0    0 -0.00000000000E+00 -0.00000000000E+00 -0.45593999997E+02  0.45594000000E+02  0.51100000000E-03 0. -1.
    9900012    2    1    2    0    0 -0.33190450374E+01 -0.39108245377E+02  0.18524372740E+02  0.47787270722E+02  0.19999998532E+02 0.  0.
         12    1    1    2    0    0  0.33190450374E+01  0.39108245377E+02 -0.18524372740E+02  0.43400729278E+02  0.00000000000E+00 0. -1.
         11    1    3    3    0    0  0.38679887796E+01 -0.11743656229E+02  0.13188408403E+01  0.12434393442E+02  0.51100000000E-03 0. -1.
        -11    1    3    3    0    0 -0.10354043802E+02 -0.19715206912E+02  0.14774843975E+02  0.26724363816E+02  0.51100000000E-03 0.  1.
        -12    1    3    3    0    0  0.31670099850E+01 -0.76493822350E+01  0.24306879255E+01  0.86285134648E+01  0.00000000000E+00 0.  1.
</event>
<event>
 7    1  0.2455451E-009  0.4778727E+02  0.7816164E-02  0.1312668E+00
        -11   -1    0    0    0    0  0.00000000000E+00  0.00000000000E+00  0.45593999997E+02  0.45594000000E+02  0.51100000000E-03 0. -1.
         11   -1    0    0    0    0 -0.00000000000E+00 -0.00000000000E+00 -0.45593999997E+02  0.45594000000E+02  0.51100000000E-03 0.  1.
    9900012    2    1    2    0    0 -0.35167359721E+02 -0.24142045252E+02  0.80026174776E+01  0.47787269301E+02  0.19999992050E+02 0.  0.
         12    1    1    2    0    0  0.35167359721E+02  0.24142045252E+02 -0.80026174776E+01  0.43400730699E+02  0.00000000000E+00 0. -1.
         11    1    3    3    0    0 -0.20211734281E+02 -0.10489821863E+02  0.11995973847E+02  0.25738180864E+02  0.51100000000E-03 0. -1.
        -11    1    3    3    0    0 -0.13104986114E+02 -0.14073537830E+02 -0.20608870786E+01  0.19340433913E+02  0.51100000000E-03 0.  1.
        -12    1    3    3    0    0 -0.18506393258E+01  0.42131444106E+00 -0.19324692909E+01  0.27086545244E+01  0.00000000000E+00 0.  1.
</event>
<event>
 7    1  0.2455451E-009  0.4778726E+02  0.7816164E-02  0.1312668E+00
        -11   -1    0    0    0    0  0.00000000000E+00  0.00000000000E+00  0.45593999997E+02  0.45594000000E+02  0.51100000000E-03 0.  1.
         11   -1    0    0    0    0 -0.00000000000E+00 -0.00000000000E+00 -0.45593999997E+02  0.45594000000E+02  0.51100000000E-03 0. -1.
    9900012    2    1    2    0    0  0.90209884398E+01  0.26558523695E+01  0.42369710704E+02  0.47787260728E+02  0.19999952961E+02 0.  0.
         12    1    1    2    0    0 -0.90209884398E+01 -0.26558523695E+01 -0.42369710704E+02  0.43400739272E+02  0.00000000000E+00 0. -1.
         11    1    3    3    0    0  0.22769674222E+01  0.89675595424E+01  0.10179844069E+02  0.13756123375E+02  0.51100000000E-03 0. -1.
        -11    1    3    3    0    0  0.19111157663E+01  0.10818770435E+01  0.70954625319E+01  0.74275440230E+01  0.51100000000E-03 0.  1.
         12    1    3    3    0    0  0.48329052513E+01 -0.73935842164E+01  0.25094404104E+02  0.26603593330E+02  0.00000000000E+00 0. -1.
</event>
<event>
 7    1  0.2455451E-009  0.4778728E+02  0.7816164E-02  0.1312668E+00
        -11   -1    0    0    0    0  0.00000000000E+00  0.00000000000E+00  0.45593999997E+02  0.45594000000E+02  0.51100000000E-03 0.  1.
         11   -1    0    0    0    0 -0.00000000000E+00 -0.00000000000E+00 -0.45593999997E+02  0.45594000000E+02  0.51100000000E-03 0. -1.
    9900012    2    1    2    0    0  0.26088067045E+01  0.17032122155E+02  0.39833695475E+02  0.47787281656E+02  0.20000048384E+02 0.  0.
         12    1    1    2    0    0 -0.26088067045E+01 -0.17032122155E+02 -0.39833695475E+02  0.43400718344E+02  0.00000000000E+00 0. -1.
         11    1    3    3    0    0 -0.35405068988E+01 -0.25695860480E+01  0.43968878750E+01  0.62024660261E+01  0.51100000000E-03 0. -1.
        -11    1    3    3    0    0  0.16132525648E+01  0.83652572217E+00  0.68698726463E+01  0.71061599728E+01  0.51100000000E-03 0.  1.
         12    1    3    3    0    0  0.45360610384E+01  0.18765182481E+02  0.28566934954E+02  0.34478655657E+02  0.00000000000E+00 0. -1.
</event>
<event>
 7    1  0.2455451E-009  0.4778727E+02  0.7816164E-02  0.1312668E+00
        -11   -1    0    0    0    0  0.00000000000E+00  0.00000000000E+00  0.45593999997E+02  0.45594000000E+02  0.51100000000E-03 0.  1.
         11   -1    0    0    0    0 -0.00000000000E+00 -0.00000000000E+00 -0.45593999997E+02  0.45594000000E+02  0.51100000000E-03 0. -1.
    9900012    2    1    2    0    0  0.32532248620E+02  0.28717798323E+02  0.75117158345E+00  0.47787269597E+02  0.19999993399E+02 0.  0.
         12    1    1    2    0    0 -0.32532248620E+02 -0.28717798323E+02 -0.75117158345E+00  0.43400730403E+02  0.00000000000E+00 0. -1.
         11    1    3    3    0    0  0.33475698493E+01  0.29576368779E+01  0.43135054177E+01  0.62096834901E+01  0.51100000000E-03 0. -1.
        -11    1    3    3    0    0  0.26606273679E+02  0.20831871001E+02 -0.76849488770E+01  0.34654279504E+02  0.51100000000E-03 0.  1.
        -12    1    3    3    0    0  0.25784050922E+01  0.49282904439E+01  0.41226150427E+01  0.69233066023E+01  0.00000000000E+00 0.  1.
</event>
<event>
 7    1  0.2455451E-009  0.4778727E+02  0.7816164E-02  0.1312668E+00
        -11   -1    0    0    0    0  0.00000000000E+00  0.00000000000E+00  0.45593999997E+02  0.45594000000E+02  0.51100000000E-03 0. -1.
         11   -1    0    0    0    0 -0.00000000000E+00 -0.00000000000E+00 -0.45593999997E+02  0.45594000000E+02  0.51100000000E-03 0.  1.
    9900012    2    1    2    0    0 -0.25459428923E+02  0.13162405266E+02 -0.32591287115E+02  0.47787269254E+02  0.19999991838E+02 0.  0.
         12    1    1    2    0    0  0.25459428923E+02 -0.13162405266E+02  0.32591287115E+02  0.43400730746E+02  0.00000000000E+00 0. -1.
         11    1    3    3    0    0 -0.15317365135E+01  0.56266318906E+01 -0.89514686804E+01  0.10683351299E+02  0.51100000000E-03 0. -1.
        -11    1    3    3    0    0 -0.22166530085E+02  0.57913701647E+01 -0.13342815619E+02  0.26512746997E+02  0.51100000000E-03 0.  1.
         12    1    3    3    0    0 -0.17611623242E+01  0.17444032109E+01 -0.10297002815E+02  0.10591170959E+02  0.00000000000E+00 0. -1.
</event>
<event>
 7    1  0.2455451E-009  0.4778727E+02  0.7816164E-02  0.1312668E+00
        -11   -1    0    0    0    0  0.00000000000E+00  0.00000000000E+00  0.45593999997E+02  0.45594000000E+02  0.51100000000E-03 0. -1.
         11   -1    0    0    0    0 -0.00000000000E+00 -0.00000000000E+00 -0.45593999997E+02  0.45594000000E+02  0.51100000000E-03 0.  1.
    9900012    2    1    2    0    0 -0.37607734759E+02  0.58468131141E+01 -0.20858961512E+02  0.47787271750E+02  0.20000003215E+02 0.  0.
         12    1    1    2    0    0  0.37607734759E+02 -0.58468131141E+01  0.20858961512E+02  0.43400728250E+02  0.00000000000E+00 0. -1.
         11    1    3    3    0    0 -0.69729343358E+01  0.42994721957E+01 -0.13372330170E+02  0.15682043516E+02  0.51100000000E-03 0. -1.
        -11    1    3    3    0    0 -0.21512351419E+02 -0.92013405951E+00 -0.70044736285E+01  0.22642671250E+02  0.51100000000E-03 0.  1.
         12    1    3    3    0    0 -0.91224490038E+01  0.24674749779E+01 -0.48215771400E+00  0.94625569829E+01  0.00000000000E+00 0. -1.
</event>
<event>
 7    1  0.2455451E-009  0.4778727E+02  0.7816164E-02  0.1312668E+00
        -11   -1    0    0    0    0  0.00000000000E+00  0.00000000000E+00  0.45593999997E+02  0.45594000000E+02  0.51100000000E-03 0.  1.
         11   -1    0    0    0    0 -0.00000000000E+00 -0.00000000000E+00 -0.45593999997E+02  0.45594000000E+02  0.51100000000E-03 0. -1.
    9900012    2    1    2    0    0  0.22709803624E+01 -0.19424760878E+02  0.38744605108E+02  0.47787272910E+02  0.20000008506E+02 0.  0.
         12    1    1    2    0    0 -0.22709803624E+01  0.19424760878E+02 -0.38744605108E+02  0.43400727090E+02  0.00000000000E+00 0. -1.
         11    1    3    3    0    0  0.63751178749E+01 -0.74816222482E+01  0.22033681840E+02  0.24126747296E+02  0.51100000000E-03 0. -1.
        -11    1    3    3    0    0 -0.54473386552E+01 -0.18437284889E+01  0.27427785091E+01  0.63714729362E+01  0.51100000000E-03 0.  1.
         12    1    3    3    0    0  0.13432011427E+01 -0.10099410141E+02  0.13968144759E+02  0.17289052678E+02  0.00000000000E+00 0. -1.
</event>
<event>
 7    1  0.2455451E-009  0.4778727E+02  0.7816164E-02  0.1312668E+00
        -11   -1    0    0    0    0  0.00000000000E+00  0.00000000000E+00  0.45593999997E+02  0.45594000000E+02  0.51100000000E-03 0.  1.
         11   -1    0    0    0    0 -0.00000000000E+00 -0.00000000000E+00 -0.45593999997E+02  0.45594000000E+02  0.51100000000E-03 0. -1.
    9900012    2    1    2    0    0  0.11070617666E+02 -0.12244047132E+01  0.41947174977E+02  0.47787271539E+02  0.20000002254E+02 0.  0.
         12    1    1    2    0    0 -0.11070617666E+02  0.12244047132E+01 -0.41947174977E+02  0.43400728461E+02  0.00000000000E+00 0. -1.
         11    1    3    3    0    0 -0.12883515967E+01 -0.78762380565E+01  0.15114034421E+02  0.17091782017E+02  0.51100000000E-03 0. -1.
        -11    1    3    3    0    0  0.69654858547E+01  0.90520581825E+00  0.12819519134E+02  0.14617710554E+02  0.51100000000E-03 0.  1.
         12    1    3    3    0    0  0.53934834075E+01  0.57466275250E+01  0.14013621422E+02  0.16077778968E+02  0.00000000000E+00 0. -1.
</event>
<event>
 7    1  0.2455451E-009  0.4778729E+02  0.7816164E-02  0.1312668E+00
        -11   -1    0    0    0    0  0.00000000000E+00  0.00000000000E+00  0.45593999997E+02  0.45594000000E+02  0.51100000000E-03 0. -1.
         11   -1    0    0    0    0 -0.00000000000E+00 -0.00000000000E+00 -0.45593999997E+02  0.45594000000E+02  0.51100000000E-03 0.  1.
    9900012    2    1    2    0    0  0.10553945016E+02  0.26797675902E+02 -0.32467227410E+02  0.47787285204E+02  0.20000064558E+02 0.  0.
         12    1    1    2    0    0 -0.10553945016E+02 -0.26797675902E+02  0.32467227410E+02  0.43400714796E+02  0.00000000000E+00 0. -1.
         11    1    3    3    0    0  0.29602995940E+01  0.13441828236E+02 -0.40309618712E+01  0.14342063097E+02  0.51100000000E-03 0. -1.
        -11    1    3    3    0    0  0.62780965253E+00  0.59698163932E+01 -0.17602032526E+02  0.18597429985E+02  0.51100000000E-03 0.  1.
        -12    1    3    3    0    0  0.69658357697E+01  0.73860312725E+01 -0.10834233012E+02  0.14847792122E+02  0.00000000000E+00 0.  1.
</event>
<event>
 7    1  0.2455451E-009  0.4778727E+02  0.7816164E-02  0.1312668E+00
        -11   -1    0    0    0    0  0.00000000000E+00  0.00000000000E+00  0.45593999997E+02  0.45594000000E+02  0.51100000000E-03 0. -1.
         11   -1    0    0    0    0 -0.00000000000E+00 -0.00000000000E+00 -0.45593999997E+02  0.45594000000E+02  0.51100000000E-03 0.  1.
    9900012    2    1    2    0    0 -0.22706412035E+02  0.24326994620E+02 -0.27861073498E+02  0.47787271536E+02  0.20000002242E+02 0.  0.
         12    1    1    2    0    0  0.22706412035E+02 -0.24326994620E+02  0.27861073498E+02  0.43400728464E+02  0.00000000000E+00 0. -1.
         11    1    3    3    0    0 -0.17424978881E+02  0.24621228721E+02 -0.24149276815E+02  0.38639647562E+02  0.51100000000E-03 0.  1.
        -11    1    3    3    0    0 -0.62699636289E+01 -0.17884123107E+01 -0.24911430225E+01  0.69797318230E+01  0.51100000000E-03 0. -1.
         12    1    3    3    0    0  0.98853047494E+00  0.14941782092E+01 -0.12206536608E+01  0.21678921514E+01  0.00000000000E+00 0. -1.
</event>
<event>
 7    1  0.2455451E-009  0.4778728E+02  0.7816164E-02  0.1312668E+00
        -11   -1    0    0    0    0  0.00000000000E+00  0.00000000000E+00  0.45593999997E+02  0.45594000000E+02  0.51100000000E-03 0.  1.
         11   -1    0    0    0    0 -0.00000000000E+00 -0.00000000000E+00 -0.45593999997E+02  0.45594000000E+02  0.51100000000E-03 0. -1.
    9900012    2    1    2    0    0 -0.25635179268E+02 -0.64626829674E+01  0.34419387140E+02  0.47787275370E+02  0.20000019724E+02 0.  0.
         12    1    1    2    0    0  0.25635179268E+02  0.64626829674E+01 -0.34419387140E+02  0.43400724630E+02  0.00000000000E+00 0. -1.
         11    1    3    3    0    0 -0.11042992855E+02  0.63508251493E+01  0.18753009367E+02  0.22670598401E+02  0.51100000000E-03 0. -1.
        -11    1    3    3    0    0 -0.14222986711E+02 -0.11570101860E+02  0.14657172318E+02  0.23473246658E+02  0.51100000000E-03 0.  1.
         12    1    3    3    0    0 -0.36919970230E+00 -0.12434062567E+01  0.10092054552E+01  0.16434303119E+01  0.00000000000E+00 0. -1.
</event>
<event>
 7    1  0.2455451E-009  0.4778727E+02  0.7816164E-02  0.1312668E+00
        -11   -1    0    0    0    0  0.00000000000E+00  0.00000000000E+00  0.45593999997E+02  0.45594000000E+02  0.51100000000E-03 0.  1.
         11   -1    0    0    0    0 -0.00000000000E+00 -0.00000000000E+00 -0.45593999997E+02  0.45594000000E+02  0.51100000000E-03 0. -1.
    9900012    2    1    2    0    0 -0.21408810669E+02  0.33860027904E+01  0.37600812955E+02  0.47787270466E+02  0.19999997365E+02 0.  0.
         12    1    1    2    0    0  0.21408810669E+02 -0.33860027904E+01 -0.37600812955E+02  0.43400729534E+02  0.00000000000E+00 0. -1.
         11    1    3    3    0    0 -0.86410800960E+00 -0.51866168367E+01  0.15690165166E+02  0.16547778100E+02  0.51100000000E-03 0. -1.
        -11    1    3    3    0    0 -0.98331091827E+01  0.42946357266E+01  0.10307396489E+02  0.14878721547E+02  0.51100000000E-03 0.  1.
         12    1    3    3    0    0 -0.10711593477E+02  0.42779839005E+01  0.11603251300E+02  0.16360770820E+02  0.00000000000E+00 0. -1.
</event>
<event>
 7    1  0.2455451E-009  0.4778726E+02  0.7816164E-02  0.1312668E+00
        -11   -1    0    0    0    0  0.00000000000E+00  0.00000000000E+00  0.45593999997E+02  0.45594000000E+02  0.51100000000E-03 0.  1.
         11   -1    0    0    0    0 -0.00000000000E+00 -0.00000000000E+00 -0.45593999997E+02  0.45594000000E+02  0.51100000000E-03 0. -1.
    9900012    2    1    2    0    0  0.12122086911E+02 -0.22753805771E+02  0.34913369851E+02  0.47787261959E+02  0.19999958575E+02 0.  0.
         12    1    1    2    0    0 -0.12122086911E+02  0.22753805771E+02 -0.34913369851E+02  0.43400738041E+02  0.00000000000E+00 0. -1.
         11    1    3    3    0    0  0.48054922388E+01 -0.66440706439E+01  0.36810054386E+01  0.89881161363E+01  0.51100000000E-03 0. -1.
        -11    1    3    3    0    0  0.73990385675E+01 -0.12977848478E+02  0.32219521683E+02  0.35514333734E+02  0.51100000000E-03 0.  1.
        -12    1    3    3    0    0 -0.82443895413E-01 -0.31318866497E+01 -0.98715727004E+00  0.32848120888E+01  0.00000000000E+00 0.  1.
</event>
<event>
 7    1  0.2877484E-009  0.4778726E+02  0.7816164E-02  0.1312668E+00
        -11   -1    0    0    0    0  0.00000000000E+00  0.00000000000E+00  0.45593999997E+02  0.45594000000E+02  0.51100000000E-03 0. -1.
         11   -1    0    0    0    0 -0.00000000000E+00 -0.00000000000E+00 -0.45593999997E+02  0.45594000000E+02  0.51100000000E-03 0.  1.
    9900012    2    1    2    0    0  0.47067847476E+01  0.58804555292E+01 -0.42742136895E+02  0.47787264450E+02  0.19999969935E+02 0.  0.
         12    1    1    2    0    0 -0.47067847476E+01 -0.58804555292E+01  0.42742136895E+02  0.43400735550E+02  0.00000000000E+00 0. -1.
         11    1    3    3    0    0  0.17875701916E+01  0.58101441056E+01 -0.34919545338E+01  0.70104870334E+01  0.51100000000E-03 0. -1.
        -11    1    3    3    0    0  0.69260573300E+01 -0.35822220228E-01 -0.27623426493E+02  0.28478504962E+02  0.51100000000E-03 0.  1.
         12    1    3    3    0    0 -0.40068427740E+01  0.10613364380E+00 -0.11626755868E+02  0.12298272455E+02  0.00000000000E+00 0. -1.
</event>
<event>
 7    1  0.2455451E-009  0.4778727E+02  0.7816164E-02  0.1312668E+00
        -11   -1    0    0    0    0  0.00000000000E+00  0.00000000000E+00  0.45593999997E+02  0.45594000000E+02  0.51100000000E-03 0.  1.
         11   -1    0    0    0    0 -0.00000000000E+00 -0.00000000000E+00 -0.45593999997E+02  0.45594000000E+02  0.51100000000E-03 0. -1.
    9900012    2    1    2    0    0  0.29756834873E+02 -0.25728378276E+02  0.18335886483E+02  0.47787269551E+02  0.19999993191E+02 0.  0.
         12    1    1    2    0    0 -0.29756834873E+02  0.25728378276E+02 -0.18335886483E+02  0.43400730449E+02  0.00000000000E+00 0. -1.
         11    1    3    3    0    0  0.22914844132E+02 -0.11334300922E+02  0.14981125232E+02  0.29630905698E+02  0.51100000000E-03 0. -1.
        -11    1    3    3    0    0  0.35457085708E+01 -0.10105909890E+02 -0.15909332447E+01  0.10827397324E+02  0.51100000000E-03 0.  1.
         12    1    3    3    0    0  0.32962821711E+01 -0.42881674637E+01  0.49456944952E+01  0.73289665293E+01  0.00000000000E+00 0. -1.
</event>
<event>
 7    1  0.2455451E-009  0.4778726E+02  0.7816164E-02  0.1312668E+00
        -11   -1    0    0    0    0  0.00000000000E+00  0.00000000000E+00  0.45593999997E+02  0.45594000000E+02  0.51100000000E-03 0.  1.
         11   -1    0    0    0    0 -0.00000000000E+00 -0.00000000000E+00 -0.45593999997E+02  0.45594000000E+02  0.51100000000E-03 0. -1.
    9900012    2    1    2    0    0 -0.30332098833E+02 -0.26251809077E+02  0.16565935481E+02  0.47787263627E+02  0.19999966179E+02 0.  0.
         12    1    1    2    0    0  0.30332098833E+02  0.26251809077E+02 -0.16565935481E+02  0.43400736373E+02  0.00000000000E+00 0. -1.
         11    1    3    3    0    0 -0.19095795737E+02 -0.22033202771E+02  0.42092187250E+01  0.29458936873E+02  0.51100000000E-03 0. -1.
        -11    1    3    3    0    0 -0.87659677032E+01 -0.21358541973E+01  0.12090944487E+02  0.15086252079E+02  0.51100000000E-03 0.  1.
        -12    1    3    3    0    0 -0.24703353921E+01 -0.20827521088E+01  0.26577226911E+00  0.32420746745E+01  0.00000000000E+00 0.  1.
</event>
<event>
 7    1  0.2455451E-009  0.4778726E+02  0.7816164E-02  0.1312668E+00
        -11   -1    0    0    0    0  0.00000000000E+00  0.00000000000E+00  0.45593999997E+02  0.45594000000E+02  0.51100000000E-03 0.  1.
         11   -1    0    0    0    0 -0.00000000000E+00 -0.00000000000E+00 -0.45593999997E+02  0.45594000000E+02  0.51100000000E-03 0. -1.
    9900012    2    1    2    0    0  0.50509631399E+01 -0.16119994012E+02  0.39978211733E+02  0.47787264419E+02  0.19999969791E+02 0.  0.
         12    1    1    2    0    0 -0.50509631399E+01  0.16119994012E+02 -0.39978211733E+02  0.43400735581E+02  0.00000000000E+00 0. -1.
         11    1    3    3    0    0 -0.60706983972E+01 -0.70964285363E+01  0.10966196052E+02  0.14403823559E+02  0.51100000000E-03 0. -1.
        -11    1    3    3    0    0  0.12239006227E+02 -0.89296504930E+01  0.25138648568E+02  0.29351040586E+02  0.51100000000E-03 0.  1.
        -12    1    3    3    0    0 -0.11173446901E+01 -0.93914982511E-01  0.38733671131E+01  0.40324002744E+01  0.00000000000E+00 0.  1.
</event>
<event>
 7    1  0.2455451E-009  0.4778727E+02  0.7816164E-02  0.1312668E+00
        -11   -1    0    0    0    0  0.00000000000E+00  0.00000000000E+00  0.45593999997E+02  0.45594000000E+02  0.51100000000E-03 0. -1.
         11   -1    0    0    0    0 -0.00000000000E+00 -0.00000000000E+00 -0.45593999997E+02  0.45594000000E+02  0.51100000000E-03 0.  1.
    9900012    2    1    2    0    0  0.40326039682E+02 -0.66161598428E+01 -0.14617128923E+02  0.47787268376E+02  0.19999987835E+02 0.  0.
         12    1    1    2    0    0 -0.40326039682E+02  0.66161598428E+01  0.14617128923E+02  0.43400731624E+02  0.00000000000E+00 0. -1.
         11    1    3    3    0    0  0.20875870325E+01  0.10888080851E+01 -0.46628672102E+01  0.52235862724E+01  0.51100000000E-03 0. -1.
        -11    1    3    3    0    0  0.31067122266E+02 -0.32549897988E+01 -0.12653566396E+02  0.33702726704E+02  0.51100000000E-03 0.  1.
        -12    1    3    3    0    0  0.71713303836E+01 -0.44499781291E+01  0.26993046837E+01  0.88609553997E+01  0.00000000000E+00 0.  1.
</event>
<event>
 7    1  0.2455451E-009  0.4778727E+02  0.7816164E-02  0.1312668E+00
        -11   -1    0    0    0    0  0.00000000000E+00  0.00000000000E+00  0.45593999997E+02  0.45594000000E+02  0.51100000000E-03 0.  1.
         11   -1    0    0    0    0 -0.00000000000E+00 -0.00000000000E+00 -0.45593999997E+02  0.45594000000E+02  0.51100000000E-03 0. -1.
    9900012    2    1    2    0    0  0.29790632653E+02  0.26258100211E+02  0.17511520491E+02  0.47787274540E+02  0.20000015938E+02 0.  0.
         12    1    1    2    0    0 -0.29790632653E+02 -0.26258100211E+02 -0.17511520491E+02  0.43400725460E+02  0.00000000000E+00 0. -1.
         11    1    3    3    0    0  0.80497289749E+01  0.19111345607E+01  0.55454974296E+01  0.99600759977E+01  0.51100000000E-03 0. -1.
        -11    1    3    3    0    0  0.15367336793E+02  0.23738691019E+02  0.56577271327E+01  0.28839042425E+02  0.51100000000E-03 0.  1.
        -12    1    3    3    0    0  0.63735668856E+01  0.60827463036E+00  0.63082959285E+01  0.89881561175E+01  0.00000000000E+00 0.  1.
</event>
<event>
 7    1  0.2455451E-009  0.4778727E+02  0.7816164E-02  0.1312668E+00
        -11   -1    0    0    0    0  0.00000000000E+00  0.00000000000E+00  0.45593999997E+02  0.45594000000E+02  0.51100000000E-03 0.  1.
         11   -1    0    0    0    0 -0.00000000000E+00 -0.00000000000E+00 -0.45593999997E+02  0.45594000000E+02  0.51100000000E-03 0. -1.
    9900012    2    1    2    0    0  0.99522085204E+01 -0.24759687812E+02  0.34227688810E+02  0.47787271017E+02  0.19999999876E+02 0.  0.
         12    1    1    2    0    0 -0.99522085204E+01  0.24759687812E+02 -0.34227688810E+02  0.43400728983E+02  0.00000000000E+00 0. -1.
         11    1    3    3    0    0  0.33184932858E+01 -0.42703992397E-01  0.15594554465E+02  0.15943787208E+02  0.51100000000E-03 0. -1.
        -11    1    3    3    0    0  0.15013532170E+01 -0.89322937789E+01  0.48844359648E+01  0.10290658317E+02  0.51100000000E-03 0.  1.
         12    1    3    3    0    0  0.51323620177E+01 -0.15784690041E+02  0.13748698380E+02  0.21552825492E+02  0.00000000000E+00 0. -1.
</event>
<event>
 7    1  0.2455451E-009  0.4778728E+02  0.7816164E-02  0.1312668E+00
        -11   -1    0    0    0    0  0.00000000000E+00  0.00000000000E+00  0.45593999997E+02  0.45594000000E+02  0.51100000000E-03 0.  1.
         11   -1    0    0    0    0 -0.00000000000E+00 -0.00000000000E+00 -0.45593999997E+02  0.45594000000E+02  0.51100000000E-03 0. -1.
    9900012    2    1    2    0    0 -0.13656533660E+02 -0.14254319232E+02  0.38651469046E+02  0.47787278948E+02  0.20000036036E+02 0.  0.
         12    1    1    2    0    0  0.13656533660E+02  0.14254319232E+02 -0.38651469046E+02  0.43400721052E+02  0.00000000000E+00 0. -1.
         11    1    3    3    0    0 -0.33665194530E+01 -0.16654535423E+02  0.22431095099E+02  0.28140025427E+02  0.51100000000E-03 0. -1.
        -11    1    3    3    0    0 -0.71698956380E+01  0.79823908028E+00  0.83760960855E+01  0.11054572583E+02  0.51100000000E-03 0.  1.
         12    1    3    3    0    0 -0.31201185687E+01  0.16019771110E+01  0.78442778617E+01  0.85926809389E+01  0.00000000000E+00 0. -1.
</event>
<event>
 7    1  0.2455451E-009  0.4778727E+02  0.7816164E-02  0.1312668E+00
        -11   -1    0    0    0    0  0.00000000000E+00  0.00000000000E+00  0.45593999997E+02  0.45594000000E+02  0.51100000000E-03 0. -1.
         11   -1    0    0    0    0 -0.00000000000E+00 -0.00000000000E+00 -0.45593999997E+02  0.45594000000E+02  0.51100000000E-03 0.  1.
    9900012    2    1    2    0    0 -0.21362708206E+02 -0.24390143480E+02 -0.28850982582E+02  0.47787267324E+02  0.19999983036E+02 0.  0.
         12    1    1    2    0    0  0.21362708206E+02  0.24390143480E+02  0.28850982582E+02  0.43400732676E+02  0.00000000000E+00 0. -1.
         11    1    3    3    0    0 -0.79596454794E+01 -0.18343585017E+01 -0.10157033837E+02  0.13034038664E+02  0.51100000000E-03 0. -1.
        -11    1    3    3    0    0 -0.56953838590E+01 -0.13485204833E+02 -0.28126759867E+01  0.14906350766E+02  0.51100000000E-03 0.  1.
        -12    1    3    3    0    0 -0.77076788679E+01 -0.90705801452E+01 -0.15881272759E+02  0.19846877894E+02  0.00000000000E+00 0.  1.
</event>
<event>
 7    1  0.2455451E-009  0.4778727E+02  0.7816164E-02  0.1312668E+00
        -11   -1    0    0    0    0  0.00000000000E+00  0.00000000000E+00  0.45593999997E+02  0.45594000000E+02  0.51100000000E-03 0.  1.
         11   -1    0    0    0    0 -0.00000000000E+00 -0.00000000000E+00 -0.45593999997E+02  0.45594000000E+02  0.51100000000E-03 0. -1.
    9900012    2    1    2    0    0  0.12039707571E+02 -0.34791040423E+02  0.22983739392E+02  0.47787270414E+02  0.19999997128E+02 0.  0.
         12    1    1    2    0    0 -0.12039707571E+02  0.34791040423E+02 -0.22983739392E+02  0.43400729586E+02  0.00000000000E+00 0. -1.
         11    1    3    3    0    0  0.96459924823E+01 -0.25827599563E+02  0.14748996717E+02  0.31267282814E+02  0.51100000000E-03 0. -1.
        -11    1    3    3    0    0 -0.13464700070E+01 -0.57379408275E+01  0.97158779740E+01  0.11363768366E+02  0.51100000000E-03 0.  1.
         12    1    3    3    0    0  0.37401850959E+01 -0.32255000326E+01 -0.14811352994E+01  0.51562192338E+01  0.00000000000E+00 0. -1.
</event>
<event>
 7    1  0.2455451E-009  0.4778727E+02  0.7816164E-02  0.1312668E+00
        -11   -1    0    0    0    0  0.00000000000E+00  0.00000000000E+00  0.45593999997E+02  0.45594000000E+02  0.51100000000E-03 0.  1.
         11   -1    0    0    0    0 -0.00000000000E+00 -0.00000000000E+00 -0.45593999997E+02  0.45594000000E+02  0.51100000000E-03 0. -1.
    9900012    2    1    2    0    0 -0.18477655018E+02 -0.16007916390E+02  0.35860092124E+02  0.47787270406E+02  0.19999997091E+02 0.  0.
         12    1    1    2    0    0  0.18477655018E+02  0.16007916390E+02 -0.35860092124E+02  0.43400729594E+02  0.00000000000E+00 0. -1.
         11    1    3    3    0    0  0.32785242305E+01  0.35424896874E+00  0.57222258236E+01  0.66043986932E+01  0.51100000000E-03 0. -1.
        -11    1    3    3    0    0 -0.11957036213E+01 -0.13842089734E+00  0.40155737570E+01  0.41920997547E+01  0.51100000000E-03 0.  1.
         12    1    3    3    0    0 -0.20560475627E+02 -0.16223744461E+02  0.26122292544E+02  0.36990771959E+02  0.00000000000E+00 0. -1.
</event>
<event>
 7    1  0.2455451E-009  0.4778727E+02  0.7816164E-02  0.1312668E+00
        -11   -1    0    0    0    0  0.00000000000E+00  0.00000000000E+00  0.45593999997E+02  0.45594000000E+02  0.51100000000E-03 0.  1.
         11   -1    0    0    0    0 -0.00000000000E+00 -0.00000000000E+00 -0.45593999997E+02  0.45594000000E+02  0.51100000000E-03 0. -1.
    9900012    2    1    2    0    0  0.23193965246E+02  0.19388585084E+01  0.36632008722E+02  0.47787271214E+02  0.20000000774E+02 0.  0.
         12    1    1    2    0    0 -0.23193965246E+02 -0.19388585084E+01 -0.36632008722E+02  0.43400728786E+02  0.00000000000E+00 0. -1.
         11    1    3    3    0    0 -0.16590856818E+01  0.31855862205E+01  0.65202726227E+01  0.74440902872E+01  0.51100000000E-03 0. -1.
        -11    1    3    3    0    0  0.15564088404E+02  0.40117836084E+01  0.19791079399E+02  0.25495530581E+02  0.51100000000E-03 0.  1.
         12    1    3    3    0    0  0.92889625237E+01 -0.52585113205E+01  0.10320656700E+02  0.14847650346E+02  0.00000000000E+00 0. -1.
</event>
<event>
 7    1  0.2455451E-009  0.4778727E+02  0.7816164E-02  0.1312668E+00
        -11   -1    0    0    0    0  0.00000000000E+00  0.00000000000E+00  0.45593999997E+02  0.45594000000E+02  0.51100000000E-03 0.  1.
         11   -1    0    0    0    0 -0.00000000000E+00 -0.00000000000E+00 -0.45593999997E+02  0.45594000000E+02  0.51100000000E-03 0. -1.
    9900012    2    1    2    0    0  0.10370249009E+01  0.81037059843E+00  0.43380770750E+02  0.47787269683E+02  0.19999993793E+02 0.  0.
         12    1    1    2    0    0 -0.10370249009E+01 -0.81037059843E+00 -0.43380770750E+02  0.43400730317E+02  0.00000000000E+00 0. -1.
         11    1    3    3    0    0 -0.16910912886E+01  0.64216555847E+01  0.66152113082E+01  0.93732849689E+01  0.51100000000E-03 0. -1.
        -11    1    3    3    0    0  0.51994339611E+01 -0.29643484437E+01  0.12266715790E+02  0.13648948375E+02  0.51100000000E-03 0.  1.
        -12    1    3    3    0    0 -0.24713177716E+01 -0.26469365426E+01  0.24498843652E+02  0.24765036339E+02  0.00000000000E+00 0.  1.
</event>
<event>
 7    1  0.2455451E-009  0.4778727E+02  0.7816164E-02  0.1312668E+00
        -11   -1    0    0    0    0  0.00000000000E+00  0.00000000000E+00  0.45593999997E+02  0.45594000000E+02  0.51100000000E-03 0.  1.
         11   -1    0    0    0    0 -0.00000000000E+00 -0.00000000000E+00 -0.45593999997E+02  0.45594000000E+02  0.51100000000E-03 0. -1.
    9900012    2    1    2    0    0 -0.11048551532E+02 -0.21710866034E+02  0.35919228161E+02  0.47787272511E+02  0.20000006687E+02 0.  0.
         12    1    1    2    0    0  0.11048551532E+02  0.21710866034E+02 -0.35919228161E+02  0.43400727489E+02  0.00000000000E+00 0. -1.
         11    1    3    3    0    0  0.46807708521E+01 -0.10930305955E+02  0.11320673118E+02  0.16417638202E+02  0.51100000000E-03 0. -1.
        -11    1    3    3    0    0 -0.10814583918E+02 -0.82796301082E+01  0.19957190863E+02  0.24161890809E+02  0.51100000000E-03 0.  1.
         12    1    3    3    0    0 -0.49147384663E+01 -0.25009299700E+01  0.46413641800E+01  0.72077434997E+01  0.00000000000E+00 0. -1.
</event>
<event>
 7    1  0.2455451E-009  0.4778726E+02  0.7816164E-02  0.1312668E+00
        -11   -1    0    0    0    0  0.00000000000E+00  0.00000000000E+00  0.45593999997E+02  0.45594000000E+02  0.51100000000E-03 0.  1.
         11   -1    0    0    0    0 -0.00000000000E+00 -0.00000000000E+00 -0.45593999997E+02  0.45594000000E+02  0.51100000000E-03 0. -1.
    9900012    2    1    2    0    0  0.13912962894E+02 -0.20082036824E+01  0.41061181823E+02  0.47787261859E+02  0.19999958119E+02 0.  0.
         12    1    1    2    0    0 -0.13912962894E+02  0.20082036824E+01 -0.41061181823E+02  0.43400738141E+02  0.00000000000E+00 0. -1.
         11    1    3    3    0    0  0.15099113239E+01 -0.13844882168E+01  0.11594396052E+02  0.11773982329E+02  0.51100000000E-03 0. -1.
        -11    1    3    3    0    0 -0.30252609969E+00  0.42308618465E+01  0.17140272644E+02  0.17657311816E+02  0.51100000000E-03 0.  1.
         12    1    3    3    0    0  0.12705577670E+02 -0.48545773121E+01  0.12326513127E+02  0.18355967713E+02  0.00000000000E+00 0. -1.
</event>
<event>
 7    1  0.2455451E-009  0.4778727E+02  0.7816164E-02  0.1312668E+00
        -11   -1    0    0    0    0  0.00000000000E+00  0.00000000000E+00  0.45593999997E+02  0.45594000000E+02  0.51100000000E-03 0.  1.
         11   -1    0    0    0    0 -0.00000000000E+00 -0.00000000000E+00 -0.45593999997E+02  0.45594000000E+02  0.51100000000E-03 0. -1.
    9900012    2    1    2    0    0 -0.35767323930E+02 -0.17253855619E+02  0.17510754229E+02  0.47787268341E+02  0.19999987676E+02 0.  0.
         12    1    1    2    0    0  0.35767323930E+02  0.17253855619E+02 -0.17510754229E+02  0.43400731659E+02  0.00000000000E+00 0. -1.
         11    1    3    3    0    0 -0.20121368292E+02 -0.88205154392E+01  0.12834427500E+01  0.22007230178E+02  0.51100000000E-03 0. -1.
        -11    1    3    3    0    0 -0.30906728388E+01  0.18264307300E+01  0.15530797351E+01  0.39115425004E+01  0.51100000000E-03 0.  1.
         12    1    3    3    0    0 -0.12555282799E+02 -0.10259770910E+02  0.14674231744E+02  0.21868495663E+02  0.00000000000E+00 0. -1.
</event>
<event>
 7    1  0.2455451E-009  0.4778725E+02  0.7816164E-02  0.1312668E+00
        -11   -1    0    0    0    0  0.00000000000E+00  0.00000000000E+00  0.45593999997E+02  0.45594000000E+02  0.51100000000E-03 0.  1.
         11   -1    0    0    0    0 -0.00000000000E+00 -0.00000000000E+00 -0.45593999997E+02  0.45594000000E+02  0.51100000000E-03 0. -1.
    9900012    2    1    2    0    0  0.16478638556E+02 -0.38758664969E+02  0.10480707215E+02  0.47787252742E+02  0.19999916552E+02 0.  0.
         12    1    1    2    0    0 -0.16478638556E+02  0.38758664969E+02 -0.10480707215E+02  0.43400747258E+02  0.00000000000E+00 0. -1.
         11    1    3    3    0    0  0.84052467053E+01 -0.14386602499E+02 -0.22220979331E+01  0.16809527749E+02  0.51100000000E-03 0. -1.
        -11    1    3    3    0    0  0.65863762658E+01 -0.20980857810E+02  0.15000944566E+02  0.26619637205E+02  0.51100000000E-03 0.  1.
        -12    1    3    3    0    0  0.14870155845E+01 -0.33912046593E+01 -0.22981394182E+01  0.43580877888E+01  0.00000000000E+00 0.  1.
</event>
<event>
 7    1  0.2455451E-009  0.4778728E+02  0.7816164E-02  0.1312668E+00
        -11   -1    0    0    0    0  0.00000000000E+00  0.00000000000E+00  0.45593999997E+02  0.45594000000E+02  0.51100000000E-03 0.  1.
         11   -1    0    0    0    0 -0.00000000000E+00 -0.00000000000E+00 -0.45593999997E+02  0.45594000000E+02  0.51100000000E-03 0. -1.
    9900012    2    1    2    0    0 -0.37368240064E+02  0.21061374820E+02  0.66072256680E+01  0.47787282197E+02  0.20000050850E+02 0.  0.
         12    1    1    2    0    0  0.37368240064E+02 -0.21061374820E+02 -0.66072256680E+01  0.43400717803E+02  0.00000000000E+00 0. -1.
         11    1    3    3    0    0 -0.19932901070E+02  0.16190860059E+02  0.10744433860E+02  0.27837157789E+02  0.51100000000E-03 0. -1.
        -11    1    3    3    0    0 -0.85246517146E+01  0.81124203662E-01 -0.48512250745E+01  0.98087029202E+01  0.51100000000E-03 0.  1.
        -12    1    3    3    0    0 -0.89106872790E+01  0.47893905568E+01  0.71401688281E+00  0.10141421488E+02  0.00000000000E+00 0.  1.
</event>
<event>
 7    1  0.2455451E-009  0.4778727E+02  0.7816164E-02  0.1312668E+00
        -11   -1    0    0    0    0  0.00000000000E+00  0.00000000000E+00  0.45593999997E+02  0.45594000000E+02  0.51100000000E-03 0. -1.
         11   -1    0    0    0    0 -0.00000000000E+00 -0.00000000000E+00 -0.45593999997E+02  0.45594000000E+02  0.51100000000E-03 0.  1.
    9900012    2    1    2    0    0  0.25498695407E+02 -0.19258592548E+02 -0.29369137249E+02  0.47787273311E+02  0.20000010334E+02 0.  0.
         12    1    1    2    0    0 -0.25498695407E+02  0.19258592548E+02  0.29369137249E+02  0.43400726689E+02  0.00000000000E+00 0. -1.
         11    1    3    3    0    0  0.13022065050E+02 -0.82315427981E+01 -0.25917678061E+01  0.15622091269E+02  0.51100000000E-03 0. -1.
        -11    1    3    3    0    0  0.13153483625E+02 -0.99265110938E+01 -0.24138439542E+02  0.29226939932E+02  0.51100000000E-03 0.  1.
        -12    1    3    3    0    0 -0.67685326761E+00 -0.11005386563E+01 -0.26389299001E+01  0.29382421101E+01  0.00000000000E+00 0.  1.
</event>
<event>
 7    1  0.2455451E-009  0.4778728E+02  0.7816164E-02  0.1312668E+00
        -11   -1    0    0    0    0  0.00000000000E+00  0.00000000000E+00  0.45593999997E+02  0.45594000000E+02  0.51100000000E-03 0.  1.
         11   -1    0    0    0    0 -0.00000000000E+00 -0.00000000000E+00 -0.45593999997E+02  0.45594000000E+02  0.51100000000E-03 0. -1.
    9900012    2    1    2    0    0  0.39653003357E+02  0.71421380382E+01  0.16132311637E+02  0.47787282382E+02  0.20000051693E+02 0.  0.
         12    1    1    2    0    0 -0.39653003357E+02 -0.71421380382E+01 -0.16132311637E+02  0.43400717618E+02  0.00000000000E+00 0. -1.
         11    1    3    3    0    0  0.12840141353E+02  0.36588055275E+01  0.13557685820E+02  0.19028056467E+02  0.51100000000E-03 0. -1.
        -11    1    3    3    0    0  0.46830987479E+01  0.64955687250E+00  0.42883453323E+01  0.63830434719E+01  0.51100000000E-03 0.  1.
         12    1    3    3    0    0  0.22129763256E+02  0.28337756381E+01 -0.17137195154E+01  0.22376182443E+02  0.00000000000E+00 0. -1.
</event>
<event>
 7    1  0.2455451E-009  0.4778727E+02  0.7816164E-02  0.1312668E+00
        -11   -1    0    0    0    0  0.00000000000E+00  0.00000000000E+00  0.45593999997E+02  0.45594000000E+02  0.51100000000E-03 0.  1.
         11   -1    0    0    0    0 -0.00000000000E+00 -0.00000000000E+00 -0.45593999997E+02  0.45594000000E+02  0.51100000000E-03 0. -1.
    9900012    2    1    2    0    0  0.49933310322E+01 -0.23789293716E+02  0.35954963211E+02  0.47787271553E+02  0.20000002317E+02 0.  0.
         12    1    1    2    0    0 -0.49933310322E+01  0.23789293716E+02 -0.35954963211E+02  0.43400728447E+02  0.00000000000E+00 0. -1.
         11    1    3    3    0    0  0.29469655927E+01 -0.88042485175E+01  0.73330851355E+01  0.11831041206E+02  0.51100000000E-03 0. -1.
        -11    1    3    3    0    0  0.15469267962E+01 -0.11869041005E+02  0.30157996912E+02  0.32446446568E+02  0.51100000000E-03 0.  1.
        -12    1    3    3    0    0  0.49943864330E+00 -0.31160041927E+01 -0.15361188367E+01  0.35097837779E+01  0.00000000000E+00 0.  1.
</event>
<event>
 7    1  0.2455451E-009  0.4778728E+02  0.7816164E-02  0.1312668E+00
        -11   -1    0    0    0    0  0.00000000000E+00  0.00000000000E+00  0.45593999997E+02  0.45594000000E+02  0.51100000000E-03 0.  1.
         11   -1    0    0    0    0 -0.00000000000E+00 -0.00000000000E+00 -0.45593999997E+02  0.45594000000E+02  0.51100000000E-03 0. -1.
    9900012    2    1    2    0    0 -0.99412292699E+01 -0.11955691908E+02  0.40519824307E+02  0.47787276846E+02  0.20000026451E+02 0.  0.
         12    1    1    2    0    0  0.99412292699E+01  0.11955691908E+02 -0.40519824307E+02  0.43400723154E+02  0.00000000000E+00 0. -1.
         11    1    3    3    0    0 -0.59851083408E+01  0.36986524223E+01  0.16342884691E+02  0.17793016379E+02  0.51100000000E-03 0. -1.
        -11    1    3    3    0    0 -0.19826157865E+01 -0.14887661619E+02  0.23258812541E+02  0.27686559824E+02  0.51100000000E-03 0.  1.
         12    1    3    3    0    0 -0.19735051426E+01 -0.76668271180E+00  0.91812707595E+00  0.23077006426E+01  0.00000000000E+00 0. -1.
</event>
<event>
 7    1  0.2455451E-009  0.4778727E+02  0.7816164E-02  0.1312668E+00
        -11   -1    0    0    0    0  0.00000000000E+00  0.00000000000E+00  0.45593999997E+02  0.45594000000E+02  0.51100000000E-03 0. -1.
         11   -1    0    0    0    0 -0.00000000000E+00 -0.00000000000E+00 -0.45593999997E+02  0.45594000000E+02  0.51100000000E-03 0.  1.
    9900012    2    1    2    0    0 -0.17093786832E+02 -0.35156385776E+02 -0.18853496883E+02  0.47787270123E+02  0.19999995800E+02 0.  0.
         12    1    1    2    0    0  0.17093786832E+02  0.35156385776E+02  0.18853496883E+02  0.43400729877E+02  0.00000000000E+00 0. -1.
         11    1    3    3    0    0 -0.10916649669E+01 -0.20834347341E+01  0.14587720682E+01  0.27677515964E+01  0.51100000000E-03 0. -1.
        -11    1    3    3    0    0  0.32344303959E+00 -0.89510971848E+00 -0.62047134566E+01  0.62772849344E+01  0.51100000000E-03 0.  1.
        -12    1    3    3    0    0 -0.16325564905E+02 -0.32177841324E+02 -0.14107555495E+02  0.38742233593E+02  0.00000000000E+00 0.  1.
</event>
<event>
 7    1  0.2455451E-009  0.4778727E+02  0.7816164E-02  0.1312668E+00
        -11   -1    0    0    0    0  0.00000000000E+00  0.00000000000E+00  0.45593999997E+02  0.45594000000E+02  0.51100000000E-03 0. -1.
         11   -1    0    0    0    0 -0.00000000000E+00 -0.00000000000E+00 -0.45593999997E+02  0.45594000000E+02  0.51100000000E-03 0.  1.
    9900012    2    1    2    0    0  0.12206834978E+02 -0.38245252486E+02  0.16489913855E+02  0.47787269397E+02  0.19999992491E+02 0.  0.
         12    1    1    2    0    0 -0.12206834978E+02  0.38245252486E+02 -0.16489913855E+02  0.43400730603E+02  0.00000000000E+00 0. -1.
         11    1    3    3    0    0  0.22272754307E+01 -0.24922440280E+01  0.67689996825E+01  0.75492644080E+01  0.51100000000E-03 0. -1.
        -11    1    3    3    0    0  0.11901180138E+02 -0.31829171432E+02  0.60165936846E+01  0.34509906441E+02  0.51100000000E-03 0.  1.
        -12    1    3    3    0    0 -0.19216205913E+01 -0.39238370255E+01  0.37043204881E+01  0.57280985482E+01  0.00000000000E+00 0.  1.
</event>
<event>
 7    1  0.2455451E-009  0.4778727E+02  0.7816164E-02  0.1312668E+00
        -11   -1    0    0    0    0  0.00000000000E+00  0.00000000000E+00  0.45593999997E+02  0.45594000000E+02  0.51100000000E-03 0.  1.
         11   -1    0    0    0    0 -0.00000000000E+00 -0.00000000000E+00 -0.45593999997E+02  0.45594000000E+02  0.51100000000E-03 0. -1.
    9900012    2    1    2    0    0 -0.19478664808E+02 -0.38622497894E+02 -0.35365790953E+01  0.47787272840E+02  0.20000008188E+02 0.  0.
         12    1    1    2    0    0  0.19478664808E+02  0.38622497894E+02  0.35365790953E+01  0.43400727160E+02  0.00000000000E+00 0. -1.
         11    1    3    3    0    0  0.26564801786E+00 -0.23272305964E+01 -0.55219240771E+01  0.59981844663E+01  0.51100000000E-03 0. -1.
        -11    1    3    3    0    0 -0.94811891981E+01 -0.19668651511E+02  0.38118447722E+01  0.22164813595E+02  0.51100000000E-03 0.  1.
        -12    1    3    3    0    0 -0.10263123628E+02 -0.16626615787E+02 -0.18264997904E+01  0.19624274779E+02  0.00000000000E+00 0.  1.
</event>
<event>
 7    1  0.2455451E-009  0.4778727E+02  0.7816164E-02  0.1312668E+00
        -11   -1    0    0    0    0  0.00000000000E+00  0.00000000000E+00  0.45593999997E+02  0.45594000000E+02  0.51100000000E-03 0.  1.
         11   -1    0    0    0    0 -0.00000000000E+00 -0.00000000000E+00 -0.45593999997E+02  0.45594000000E+02  0.51100000000E-03 0. -1.
    9900012    2    1    2    0    0  0.10423372340E+02  0.12341779018E+02  0.40282214145E+02  0.47787274468E+02  0.20000015609E+02 0.  0.
         12    1    1    2    0    0 -0.10423372340E+02 -0.12341779018E+02 -0.40282214145E+02  0.43400725532E+02  0.00000000000E+00 0. -1.
         11    1    3    3    0    0  0.55196089179E+01  0.12860140050E+02  0.10733932195E+02  0.17637079842E+02  0.51100000000E-03 0. -1.
        -11    1    3    3    0    0  0.63513033162E+00  0.52202268820E+00  0.13082815046E+02  0.13108621133E+02  0.51100000000E-03 0.  1.
         12    1    3    3    0    0  0.42686330901E+01 -0.10403837204E+01  0.16465466904E+02  0.17041573493E+02  0.00000000000E+00 0. -1.
</event>
<event>
 7    1  0.2455451E-009  0.4778726E+02  0.7816164E-02  0.1312668E+00
        -11   -1    0    0    0    0  0.00000000000E+00  0.00000000000E+00  0.45593999997E+02  0.45594000000E+02  0.51100000000E-03 0.  1.
         11   -1    0    0    0    0 -0.00000000000E+00 -0.00000000000E+00 -0.45593999997E+02  0.45594000000E+02  0.51100000000E-03 0. -1.
    9900012    2    1    2    0    0 -0.52787704309E+01  0.42515570558E+02  0.69415288233E+01  0.47787262915E+02  0.19999962935E+02 0.  0.
         12    1    1    2    0    0  0.52787704309E+01 -0.42515570558E+02 -0.69415288233E+01  0.43400737085E+02  0.00000000000E+00 0. -1.
         11    1    3    3    0    0  0.35367898481E+00  0.67120442122E+01  0.45512921182E+01  0.81173201574E+01  0.51100000000E-03 0. -1.
        -11    1    3    3    0    0  0.27020273016E+01  0.27537517815E+02  0.34489226218E+01  0.27883882557E+02  0.51100000000E-03 0.  1.
        -12    1    3    3    0    0 -0.83344767173E+01  0.82660085305E+01 -0.10586859167E+01  0.11786060200E+02  0.00000000000E+00 0.  1.
</event>
<event>
 7    1  0.2455451E-009  0.4778727E+02  0.7816164E-02  0.1312668E+00
        -11   -1    0    0    0    0  0.00000000000E+00  0.00000000000E+00  0.45593999997E+02  0.45594000000E+02  0.51100000000E-03 0. -1.
         11   -1    0    0    0    0 -0.00000000000E+00 -0.00000000000E+00 -0.45593999997E+02  0.45594000000E+02  0.51100000000E-03 0.  1.
    9900012    2    1    2    0    0  0.25804882634E+02  0.34478770548E+02 -0.53801092963E+01  0.47787272330E+02  0.20000005862E+02 0.  0.
         12    1    1    2    0    0 -0.25804882634E+02 -0.34478770548E+02  0.53801092963E+01  0.43400727670E+02  0.00000000000E+00 0. -1.
         11    1    3    3    0    0  0.21980941590E+02  0.14025557736E+02 -0.14989543950E+01  0.26117521466E+02  0.51100000000E-03 0. -1.
        -11    1    3    3    0    0  0.71690990977E+00  0.82939394865E+01 -0.37213690684E+01  0.91187707521E+01  0.51100000000E-03 0.  1.
         12    1    3    3    0    0  0.31070311340E+01  0.12159273325E+02 -0.15978583285E+00  0.12550980112E+02  0.00000000000E+00 0. -1.
</event>
<event>
 7    1  0.2455451E-009  0.4778727E+02  0.7816164E-02  0.1312668E+00
        -11   -1    0    0    0    0  0.00000000000E+00  0.00000000000E+00  0.45593999997E+02  0.45594000000E+02  0.51100000000E-03 0. -1.
         11   -1    0    0    0    0 -0.00000000000E+00 -0.00000000000E+00 -0.45593999997E+02  0.45594000000E+02  0.51100000000E-03 0.  1.
    9900012    2    1    2    0    0 -0.28631411180E+02 -0.22881330166E+02 -0.23244575959E+02  0.47787270883E+02  0.19999999265E+02 0.  0.
         12    1    1    2    0    0  0.28631411180E+02  0.22881330166E+02  0.23244575959E+02  0.43400729117E+02  0.00000000000E+00 0. -1.
         11    1    3    3    0    0 -0.32702136241E+01  0.15560169348E+01  0.46744113357E+00  0.36515732668E+01  0.51100000000E-03 0. -1.
        -11    1    3    3    0    0 -0.13188574694E+02 -0.20176318835E+02 -0.17707810499E+02  0.29909678988E+02  0.51100000000E-03 0.  1.
        -12    1    3    3    0    0 -0.12172622862E+02 -0.42610282661E+01 -0.60042065936E+01  0.14226018629E+02  0.00000000000E+00 0.  1.
</event>
<event>
 7    1  0.2455451E-009  0.4778727E+02  0.7816164E-02  0.1312668E+00
        -11   -1    0    0    0    0  0.00000000000E+00  0.00000000000E+00  0.45593999997E+02  0.45594000000E+02  0.51100000000E-03 0.  1.
         11   -1    0    0    0    0 -0.00000000000E+00 -0.00000000000E+00 -0.45593999997E+02  0.45594000000E+02  0.51100000000E-03 0. -1.
    9900012    2    1    2    0    0 -0.16850045280E+02 -0.32885772133E+02 -0.22764562371E+02  0.47787270344E+02  0.19999996806E+02 0.  0.
         12    1    1    2    0    0  0.16850045280E+02  0.32885772133E+02  0.22764562371E+02  0.43400729656E+02  0.00000000000E+00 0. -1.
         11    1    3    3    0    0 -0.17353644068E+02 -0.23881151821E+02 -0.18300592908E+02  0.34732838579E+02  0.51100000000E-03 0. -1.
        -11    1    3    3    0    0  0.21937733631E+01 -0.76887123201E+01  0.11807007019E+00  0.79964291726E+01  0.51100000000E-03 0.  1.
         12    1    3    3    0    0 -0.16901745752E+01 -0.13159079924E+01 -0.45820395333E+01  0.50580025923E+01  0.00000000000E+00 0. -1.
</event>
<event>
 7    1  0.2455451E-009  0.4778727E+02  0.7816164E-02  0.1312668E+00
        -11   -1    0    0    0    0  0.00000000000E+00  0.00000000000E+00  0.45593999997E+02  0.45594000000E+02  0.51100000000E-03 0. -1.
         11   -1    0    0    0    0 -0.00000000000E+00 -0.00000000000E+00 -0.45593999997E+02  0.45594000000E+02  0.51100000000E-03 0.  1.
    9900012    2    1    2    0    0  0.39035639102E+02 -0.15420416925E+02 -0.11047750471E+02  0.47787272256E+02  0.20000005525E+02 0.  0.
         12    1    1    2    0    0 -0.39035639102E+02  0.15420416925E+02  0.11047750471E+02  0.43400727744E+02  0.00000000000E+00 0. -1.
         11    1    3    3    0    0  0.41020227798E+01  0.41023853991E+00  0.37808784001E+01  0.55937400979E+01  0.51100000000E-03 0. -1.
        -11    1    3    3    0    0  0.18235277802E+02 -0.49460879845E+01 -0.11105412228E+02  0.21916188626E+02  0.51100000000E-03 0.  1.
        -12    1    3    3    0    0  0.16698338520E+02 -0.10884567480E+02 -0.37232166430E+01  0.20277343532E+02  0.00000000000E+00 0.  1.
</event>
<event>
 7    1  0.2455451E-009  0.4778727E+02  0.7816164E-02  0.1312668E+00
        -11   -1    0    0    0    0  0.00000000000E+00  0.00000000000E+00  0.45593999997E+02  0.45594000000E+02  0.51100000000E-03 0.  1.
         11   -1    0    0    0    0 -0.00000000000E+00 -0.00000000000E+00 -0.45593999997E+02  0.45594000000E+02  0.51100000000E-03 0. -1.
    9900012    2    1    2    0    0 -0.26642055378E+02  0.29856431570E+02  0.16805284485E+02  0.47787271810E+02  0.20000003489E+02 0.  0.
         12    1    1    2    0    0  0.26642055378E+02 -0.29856431570E+02 -0.16805284485E+02  0.43400728190E+02  0.00000000000E+00 0. -1.
         11    1    3    3    0    0 -0.17648427775E+01 -0.13912617712E+00 -0.10942686879E+01  0.20812136712E+01  0.51100000000E-03 0. -1.
        -11    1    3    3    0    0 -0.15211333908E+01  0.83584851755E+01  0.95686421305E+01  0.12795977247E+02  0.51100000000E-03 0.  1.
        -12    1    3    3    0    0 -0.23356079210E+02  0.21637072571E+02  0.83309110420E+01  0.32910080892E+02  0.00000000000E+00 0.  1.
</event>
<event>
 7    1  0.4163981E-009  0.4778733E+02  0.7816164E-02  0.1312668E+00
        -11   -1    0    0    0    0  0.00000000000E+00  0.00000000000E+00  0.45593999997E+02  0.45594000000E+02  0.51100000000E-03 0.  1.
         11   -1    0    0    0    0 -0.00000000000E+00 -0.00000000000E+00 -0.45593999997E+02  0.45594000000E+02  0.51100000000E-03 0. -1.
    9900012    2    1    2    0    0 -0.43386746858E+02  0.82165470788E+00 -0.73033932593E+00  0.47787328175E+02  0.20000260477E+02 0.  0.
         12    1    1    2    0    0  0.43386746858E+02 -0.82165470788E+00  0.73033932593E+00  0.43400671825E+02  0.00000000000E+00 0. -1.
         11    1    3    3    0    0 -0.74768683819E+01  0.41336816493E+01 -0.64513942450E+01  0.10705670121E+02  0.51100000000E-03 0. -1.
        -11    1    3    3    0    0 -0.25895112435E+02  0.45654869239E+00  0.48158641078E+01  0.26343079397E+02  0.51100000000E-03 0.  1.
         12    1    3    3    0    0 -0.10014766041E+02 -0.37685756338E+01  0.90519081121E+00  0.10738578656E+02  0.00000000000E+00 0. -1.
</event>
<event>
 7    1  0.2455451E-009  0.4778726E+02  0.7816164E-02  0.1312668E+00
        -11   -1    0    0    0    0  0.00000000000E+00  0.00000000000E+00  0.45593999997E+02  0.45594000000E+02  0.51100000000E-03 0.  1.
         11   -1    0    0    0    0 -0.00000000000E+00 -0.00000000000E+00 -0.45593999997E+02  0.45594000000E+02  0.51100000000E-03 0. -1.
    9900012    2    1    2    0    0  0.73235867117E+00  0.38527257876E+02  0.19968435148E+02  0.47787258636E+02  0.19999943426E+02 0.  0.
         12    1    1    2    0    0 -0.73235867117E+00 -0.38527257876E+02 -0.19968435148E+02  0.43400741364E+02  0.00000000000E+00 0. -1.
         11    1    3    3    0    0  0.31579078812E+01 -0.78255092272E+00  0.24999410032E+01  0.41029834771E+01  0.51100000000E-03 0. -1.
        -11    1    3    3    0    0 -0.59389354848E+00  0.21663087877E+02  0.13409207940E+02  0.25484288174E+02  0.51100000000E-03 0.  1.
         12    1    3    3    0    0 -0.18316556616E+01  0.17646720922E+02  0.40592862041E+01  0.18199986985E+02  0.00000000000E+00 0. -1.
</event>
<event>
 7    1  0.2455451E-009  0.4778729E+02  0.7816164E-02  0.1312668E+00
        -11   -1    0    0    0    0  0.00000000000E+00  0.00000000000E+00  0.45593999997E+02  0.45594000000E+02  0.51100000000E-03 0.  1.
         11   -1    0    0    0    0 -0.00000000000E+00 -0.00000000000E+00 -0.45593999997E+02  0.45594000000E+02  0.51100000000E-03 0. -1.
    9900012    2    1    2    0    0  0.25681396155E+02  0.16160602059E+02  0.31030988754E+02  0.47787292281E+02  0.20000096828E+02 0.  0.
         12    1    1    2    0    0 -0.25681396155E+02 -0.16160602059E+02 -0.31030988754E+02  0.43400707719E+02  0.00000000000E+00 0. -1.
         11    1    3    3    0    0  0.99010066811E+00 -0.24050843630E+01  0.42338603258E+01  0.49689338540E+01  0.51100000000E-03 0. -1.
        -11    1    3    3    0    0  0.85830657954E+01  0.10662445314E+02  0.49679202085E+01  0.14561489965E+02  0.51100000000E-03 0.  1.
        -12    1    3    3    0    0  0.16108229692E+02  0.79032411078E+01  0.21829208220E+02  0.28256868463E+02  0.00000000000E+00 0.  1.
</event>
<event>
 7    1  0.2455451E-009  0.4778727E+02  0.7816164E-02  0.1312668E+00
        -11   -1    0    0    0    0  0.00000000000E+00  0.00000000000E+00  0.45593999997E+02  0.45594000000E+02  0.51100000000E-03 0. -1.
         11   -1    0    0    0    0 -0.00000000000E+00 -0.00000000000E+00 -0.45593999997E+02  0.45594000000E+02  0.51100000000E-03 0.  1.
    9900012    2    1    2    0    0  0.29038307939E+02 -0.32011705697E+02  0.39561244038E+01  0.47787267865E+02  0.19999985504E+02 0.  0.
         12    1    1    2    0    0 -0.29038307939E+02  0.32011705697E+02 -0.39561244038E+01  0.43400732135E+02  0.00000000000E+00 0. -1.
         11    1    3    3    0    0  0.24438534787E+02 -0.24445832461E+02  0.85825983449E+01  0.35616031529E+02  0.51100000000E-03 0. -1.
        -11    1    3    3    0    0  0.64905938529E+00 -0.69665495143E+01 -0.16501338303E+01  0.71886738791E+01  0.51100000000E-03 0.  1.
         12    1    3    3    0    0  0.39507137664E+01 -0.59932372166E+00 -0.29763401108E+01  0.49825624575E+01  0.00000000000E+00 0. -1.
</event>
<event>
 7    1  0.2455451E-009  0.4778727E+02  0.7816164E-02  0.1312668E+00
        -11   -1    0    0    0    0  0.00000000000E+00  0.00000000000E+00  0.45593999997E+02  0.45594000000E+02  0.51100000000E-03 0.  1.
         11   -1    0    0    0    0 -0.00000000000E+00 -0.00000000000E+00 -0.45593999997E+02  0.45594000000E+02  0.51100000000E-03 0. -1.
    9900012    2    1    2    0    0 -0.41525003861E+02 -0.69973344303E+01 -0.10504044291E+02  0.47787267503E+02  0.19999983853E+02 0.  0.
         12    1    1    2    0    0  0.41525003861E+02  0.69973344303E+01  0.10504044291E+02  0.43400732497E+02  0.00000000000E+00 0. -1.
         11    1    3    3    0    0 -0.18581375446E+01 -0.28240607725E+01 -0.29259044887E+01  0.44708960756E+01  0.51100000000E-03 0. -1.
        -11    1    3    3    0    0 -0.12481785005E+02 -0.85131971339E+01 -0.22279439044E+01  0.15271974877E+02  0.51100000000E-03 0.  1.
        -12    1    3    3    0    0 -0.27185081312E+02  0.43399234761E+01 -0.53501958983E+01  0.28044396550E+02  0.00000000000E+00 0.  1.
</event>
<event>
 7    1  0.2455451E-009  0.4778727E+02  0.7816164E-02  0.1312668E+00
        -11   -1    0    0    0    0  0.00000000000E+00  0.00000000000E+00  0.45593999997E+02  0.45594000000E+02  0.51100000000E-03 0. -1.
         11   -1    0    0    0    0 -0.00000000000E+00 -0.00000000000E+00 -0.45593999997E+02  0.45594000000E+02  0.51100000000E-03 0.  1.
    9900012    2    1    2    0    0  0.38299592301E+02 -0.10586463963E+02 -0.17455401498E+02  0.47787273841E+02  0.20000012750E+02 0.  0.
         12    1    1    2    0    0 -0.38299592301E+02  0.10586463963E+02  0.17455401498E+02  0.43400726159E+02  0.00000000000E+00 0. -1.
         11    1    3    3    0    0 -0.91060538548E+00 -0.30712717444E+01 -0.36715392254E+00  0.32243936732E+01  0.51100000000E-03 0. -1.
        -11    1    3    3    0    0  0.31726298024E+02 -0.10009288225E+02 -0.13813629607E+02  0.36021662930E+02  0.51100000000E-03 0.  1.
         12    1    3    3    0    0  0.74838996631E+01  0.24940960068E+01 -0.32746179687E+01  0.85412172376E+01  0.00000000000E+00 0. -1.
</event>
<event>
 7    1  0.2455451E-009  0.4778727E+02  0.7816164E-02  0.1312668E+00
        -11   -1    0    0    0    0  0.00000000000E+00  0.00000000000E+00  0.45593999997E+02  0.45594000000E+02  0.51100000000E-03 0.  1.
         11   -1    0    0    0    0 -0.00000000000E+00 -0.00000000000E+00 -0.45593999997E+02  0.45594000000E+02  0.51100000000E-03 0. -1.
    9900012    2    1    2    0    0  0.21410243346E+02  0.19947685964E+02  0.32051747384E+02  0.47787271829E+02  0.20000003575E+02 0.  0.
         12    1    1    2    0    0 -0.21410243346E+02 -0.19947685964E+02 -0.32051747384E+02  0.43400728171E+02  0.00000000000E+00 0. -1.
         11    1    3    3    0    0  0.84803070955E+00  0.69429014569E+01  0.14160549030E+02  0.15793802133E+02  0.51100000000E-03 0. -1.
        -11    1    3    3    0    0  0.20235743961E+02  0.90392386493E+01  0.16958379583E+02  0.27906626585E+02  0.51100000000E-03 0.  1.
         12    1    3    3    0    0  0.32646867494E+00  0.39655458579E+01  0.93281877084E+00  0.40868431101E+01  0.00000000000E+00 0. -1.
</event>
<event>
 7    1  0.2455451E-009  0.4778727E+02  0.7816164E-02  0.1312668E+00
        -11   -1    0    0    0    0  0.00000000000E+00  0.00000000000E+00  0.45593999997E+02  0.45594000000E+02  0.51100000000E-03 0.  1.
         11   -1    0    0    0    0 -0.00000000000E+00 -0.00000000000E+00 -0.45593999997E+02  0.45594000000E+02  0.51100000000E-03 0. -1.
    9900012    2    1    2    0    0  0.21165662254E+02 -0.34423411172E+02  0.15832455176E+02  0.47787272676E+02  0.20000007438E+02 0.  0.
         12    1    1    2    0    0 -0.21165662254E+02  0.34423411172E+02 -0.15832455176E+02  0.43400727324E+02  0.00000000000E+00 0. -1.
         11    1    3    3    0    0 -0.28300508449E+01 -0.65815310678E+01  0.80207390552E+00  0.72089570530E+01  0.51100000000E-03 0. -1.
        -11    1    3    3    0    0  0.21615098617E+02 -0.22601414835E+02  0.97260390384E+01  0.32751065272E+02  0.51100000000E-03 0.  1.
        -12    1    3    3    0    0  0.23806144824E+01 -0.52404652687E+01  0.53043422319E+01  0.78272503512E+01  0.00000000000E+00 0.  1.
</event>
<event>
 7    1  0.2455451E-009  0.4778727E+02  0.7816164E-02  0.1312668E+00
        -11   -1    0    0    0    0  0.00000000000E+00  0.00000000000E+00  0.45593999997E+02  0.45594000000E+02  0.51100000000E-03 0.  1.
         11   -1    0    0    0    0 -0.00000000000E+00 -0.00000000000E+00 -0.45593999997E+02  0.45594000000E+02  0.51100000000E-03 0. -1.
    9900012    2    1    2    0    0 -0.35020099130E+02 -0.46771804190E+01  0.25205950919E+02  0.47787270496E+02  0.19999997500E+02 0.  0.
         12    1    1    2    0    0  0.35020099130E+02  0.46771804190E+01 -0.25205950919E+02  0.43400729504E+02  0.00000000000E+00 0. -1.
         11    1    3    3    0    0 -0.12402443037E+02 -0.95421355747E+01  0.37934852548E+01  0.16101660636E+02  0.51100000000E-03 0. -1.
        -11    1    3    3    0    0 -0.13734971327E+02  0.30141322158E+01  0.15092275247E+02  0.20627922890E+02  0.51100000000E-03 0.  1.
         12    1    3    3    0    0 -0.88826847662E+01  0.18508229399E+01  0.63201904179E+01  0.11057686970E+02  0.00000000000E+00 0. -1.
</event>
<event>
 7    1  0.2455451E-009  0.4778727E+02  0.7816164E-02  0.1312668E+00
        -11   -1    0    0    0    0  0.00000000000E+00  0.00000000000E+00  0.45593999997E+02  0.45594000000E+02  0.51100000000E-03 0.  1.
         11   -1    0    0    0    0 -0.00000000000E+00 -0.00000000000E+00 -0.45593999997E+02  0.45594000000E+02  0.51100000000E-03 0. -1.
    9900012    2    1    2    0    0 -0.20799463861E+02 -0.27186499224E+02  0.26681451861E+02  0.47787270624E+02  0.19999998082E+02 0.  0.
         12    1    1    2    0    0  0.20799463861E+02  0.27186499224E+02 -0.26681451861E+02  0.43400729376E+02  0.00000000000E+00 0. -1.
         11    1    3    3    0    0 -0.12181462502E+02 -0.26369787002E+02  0.23599716366E+02  0.37425930957E+02  0.51100000000E-03 0. -1.
        -11    1    3    3    0    0 -0.40616760743E+01  0.19866498904E+01  0.17504589456E+01  0.48485149377E+01  0.51100000000E-03 0.  1.
        -12    1    3    3    0    0 -0.45563252851E+01 -0.28033621131E+01  0.13312765488E+01  0.55128247288E+01  0.00000000000E+00 0.  1.
</event>
<event>
 7    1  0.2455451E-009  0.4778727E+02  0.7816164E-02  0.1312668E+00
        -11   -1    0    0    0    0  0.00000000000E+00  0.00000000000E+00  0.45593999997E+02  0.45594000000E+02  0.51100000000E-03 0. -1.
         11   -1    0    0    0    0 -0.00000000000E+00 -0.00000000000E+00 -0.45593999997E+02  0.45594000000E+02  0.51100000000E-03 0.  1.
    9900012    2    1    2    0    0 -0.43277094925E+02  0.21352752725E+01 -0.24813017155E+01  0.47787271851E+02  0.20000003679E+02 0.  0.
         12    1    1    2    0    0  0.43277094925E+02 -0.21352752725E+01  0.24813017155E+01  0.43400728149E+02  0.00000000000E+00 0. -1.
         11    1    3    3    0    0 -0.86734427715E+01  0.22919995066E+01 -0.80892257556E+01  0.12079629334E+02  0.51100000000E-03 0. -1.
        -11    1    3    3    0    0 -0.24226979476E+02  0.24504570073E+01  0.56967392270E+01  0.25008080937E+02  0.51100000000E-03 0.  1.
        -12    1    3    3    0    0 -0.10376672677E+02 -0.26071812414E+01 -0.88815186828E-01  0.10699561580E+02  0.00000000000E+00 0.  1.
</event>
<event>
 7    1  0.2455451E-009  0.4778727E+02  0.7816164E-02  0.1312668E+00
        -11   -1    0    0    0    0  0.00000000000E+00  0.00000000000E+00  0.45593999997E+02  0.45594000000E+02  0.51100000000E-03 0.  1.
         11   -1    0    0    0    0 -0.00000000000E+00 -0.00000000000E+00 -0.45593999997E+02  0.45594000000E+02  0.51100000000E-03 0. -1.
    9900012    2    1    2    0    0 -0.61485638996E+01  0.13198196857E+02  0.40885526764E+02  0.47787268012E+02  0.19999986174E+02 0.  0.
         12    1    1    2    0    0  0.61485638996E+01 -0.13198196857E+02 -0.40885526764E+02  0.43400731988E+02  0.00000000000E+00 0. -1.
         11    1    3    3    0    0  0.44941722052E+01  0.39453997746E+01  0.47084915762E+01  0.76114161872E+01  0.51100000000E-03 0. -1.
        -11    1    3    3    0    0 -0.35181914354E+01  0.78035564769E+01  0.27778761538E+02  0.29067727079E+02  0.51100000000E-03 0.  1.
         12    1    3    3    0    0 -0.71245446694E+01  0.14492406052E+01  0.83982736500E+01  0.11108124746E+02  0.00000000000E+00 0. -1.
</event>
<event>
 7    1  0.2455451E-009  0.4778727E+02  0.7816164E-02  0.1312668E+00
        -11   -1    0    0    0    0  0.00000000000E+00  0.00000000000E+00  0.45593999997E+02  0.45594000000E+02  0.51100000000E-03 0. -1.
         11   -1    0    0    0    0 -0.00000000000E+00 -0.00000000000E+00 -0.45593999997E+02  0.45594000000E+02  0.51100000000E-03 0.  1.
    9900012    2    1    2    0    0 -0.24144740947E+02  0.18168143289E+02 -0.31154030125E+02  0.47787267990E+02  0.19999986075E+02 0.  0.
         12    1    1    2    0    0  0.24144740947E+02 -0.18168143289E+02  0.31154030125E+02  0.43400732010E+02  0.00000000000E+00 0. -1.
         11    1    3    3    0    0 -0.14435739859E+01 -0.24375957957E+01 -0.78478328372E+01  0.83435160225E+01  0.51100000000E-03 0. -1.
        -11    1    3    3    0    0 -0.16113301363E+02  0.10089354384E+02 -0.10987085266E+02  0.21957905083E+02  0.51100000000E-03 0.  1.
         12    1    3    3    0    0 -0.65878655977E+01  0.10516384700E+02 -0.12319112021E+02  0.17485846885E+02  0.00000000000E+00 0. -1.
</event>
<event>
 7    1  0.2455451E-009  0.4778727E+02  0.7816164E-02  0.1312668E+00
        -11   -1    0    0    0    0  0.00000000000E+00  0.00000000000E+00  0.45593999997E+02  0.45594000000E+02  0.51100000000E-03 0.  1.
         11   -1    0    0    0    0 -0.00000000000E+00 -0.00000000000E+00 -0.45593999997E+02  0.45594000000E+02  0.51100000000E-03 0. -1.
    9900012    2    1    2    0    0 -0.23617102846E+02 -0.86383712823E+01  0.35372793242E+02  0.47787268359E+02  0.19999987754E+02 0.  0.
         12    1    1    2    0    0  0.23617102846E+02  0.86383712823E+01 -0.35372793242E+02  0.43400731641E+02  0.00000000000E+00 0. -1.
         11    1    3    3    0    0 -0.65662933720E+00 -0.23150106669E+01 -0.21819058790E+01  0.32482533769E+01  0.51100000000E-03 0. -1.
        -11    1    3    3    0    0 -0.13361918140E+02 -0.41519783148E+01  0.24135028972E+02  0.27897659472E+02  0.51100000000E-03 0.  1.
         12    1    3    3    0    0 -0.95985553688E+01 -0.21713823006E+01  0.13419670150E+02  0.16641355509E+02  0.00000000000E+00 0. -1.
</event>
<event>
 7    1  0.2455451E-009  0.4778727E+02  0.7816164E-02  0.1312668E+00
        -11   -1    0    0    0    0  0.00000000000E+00  0.00000000000E+00  0.45593999997E+02  0.45594000000E+02  0.51100000000E-03 0.  1.
         11   -1    0    0    0    0 -0.00000000000E+00 -0.00000000000E+00 -0.45593999997E+02  0.45594000000E+02  0.51100000000E-03 0. -1.
    9900012    2    1    2    0    0  0.23029176537E+02  0.14496389079E+02  0.33810279693E+02  0.47787270960E+02  0.19999999616E+02 0.  0.
         12    1    1    2    0    0 -0.23029176537E+02 -0.14496389079E+02 -0.33810279693E+02  0.43400729040E+02  0.00000000000E+00 0. -1.
         11    1    3    3    0    0 -0.13153569022E+01 -0.13146377116E+01  0.33802590176E+01  0.38580548700E+01  0.51100000000E-03 0. -1.
        -11    1    3    3    0    0  0.19406923594E+02  0.12592761886E+02  0.30184351001E+02  0.38030269272E+02  0.51100000000E-03 0.  1.
        -12    1    3    3    0    0  0.49376098450E+01  0.32182649047E+01  0.24566967453E+00  0.58989468184E+01  0.00000000000E+00 0.  1.
</event>
<event>
 7    1  0.2455451E-009  0.4778727E+02  0.7816164E-02  0.1312668E+00
        -11   -1    0    0    0    0  0.00000000000E+00  0.00000000000E+00  0.45593999997E+02  0.45594000000E+02  0.51100000000E-03 0.  1.
         11   -1    0    0    0    0 -0.00000000000E+00 -0.00000000000E+00 -0.45593999997E+02  0.45594000000E+02  0.51100000000E-03 0. -1.
    9900012    2    1    2    0    0  0.22237045809E+02  0.86518708028E+01  0.36253030894E+02  0.47787270470E+02  0.19999997382E+02 0.  0.
         12    1    1    2    0    0 -0.22237045809E+02 -0.86518708028E+01 -0.36253030894E+02  0.43400729530E+02  0.00000000000E+00 0. -1.
         11    1    3    3    0    0 -0.34236088601E-01 -0.30505802341E+01  0.50071816208E-02  0.30507764925E+01  0.51100000000E-03 0. -1.
        -11    1    3    3    0    0  0.15359686641E+02  0.64021022302E+01  0.17982496324E+02  0.24500552259E+02  0.51100000000E-03 0.  1.
        -12    1    3    3    0    0  0.69115952560E+01  0.53003488067E+01  0.18265527389E+02  0.20235941719E+02  0.00000000000E+00 0.  1.
</event>
<event>
 7    1  0.2455451E-009  0.4778727E+02  0.7816164E-02  0.1312668E+00
        -11   -1    0    0    0    0  0.00000000000E+00  0.00000000000E+00  0.45593999997E+02  0.45594000000E+02  0.51100000000E-03 0.  1.
         11   -1    0    0    0    0 -0.00000000000E+00 -0.00000000000E+00 -0.45593999997E+02  0.45594000000E+02  0.51100000000E-03 0. -1.
    9900012    2    1    2    0    0 -0.24373500877E+02  0.74081305531E+00  0.35902742864E+02  0.47787270811E+02  0.19999998936E+02 0.  0.
         12    1    1    2    0    0  0.24373500877E+02 -0.74081305531E+00 -0.35902742864E+02  0.43400729189E+02  0.00000000000E+00 0. -1.
         11    1    3    3    0    0 -0.62066318047E+01 -0.53329001926E+01  0.16718278267E+01  0.83520722798E+01  0.51100000000E-03 0. -1.
        -11    1    3    3    0    0 -0.18137590341E+02  0.55002124130E+01  0.32639718765E+02  0.37743552579E+02  0.51100000000E-03 0.  1.
         12    1    3    3    0    0 -0.29278731350E-01  0.57350083487E+00  0.15911962721E+01  0.16916459523E+01  0.00000000000E+00 0. -1.
</event>
<event>
 7    1  0.2455451E-009  0.4778727E+02  0.7816164E-02  0.1312668E+00
        -11   -1    0    0    0    0  0.00000000000E+00  0.00000000000E+00  0.45593999997E+02  0.45594000000E+02  0.51100000000E-03 0.  1.
         11   -1    0    0    0    0 -0.00000000000E+00 -0.00000000000E+00 -0.45593999997E+02  0.45594000000E+02  0.51100000000E-03 0. -1.
    9900012    2    1    2    0    0 -0.12100658203E+02  0.15399167668E+02  0.38730647213E+02  0.47787270428E+02  0.19999997191E+02 0.  0.
         12    1    1    2    0    0  0.12100658203E+02 -0.15399167668E+02 -0.38730647213E+02  0.43400729572E+02  0.00000000000E+00 0. -1.
         11    1    3    3    0    0  0.39166518971E-01  0.84356160940E+00 -0.19704538212E+01  0.21437860732E+01  0.51100000000E-03 0. -1.
        -11    1    3    3    0    0 -0.22543418296E+01  0.90226492420E+01  0.19564251427E+02  0.21662183422E+02  0.51100000000E-03 0.  1.
         12    1    3    3    0    0 -0.98854828926E+01  0.55329568163E+01  0.21136849607E+02  0.23981300933E+02  0.00000000000E+00 0. -1.
</event>
<event>
 7    1  0.2455451E-009  0.4778728E+02  0.7816164E-02  0.1312668E+00
        -11   -1    0    0    0    0  0.00000000000E+00  0.00000000000E+00  0.45593999997E+02  0.45594000000E+02  0.51100000000E-03 0.  1.
         11   -1    0    0    0    0 -0.00000000000E+00 -0.00000000000E+00 -0.45593999997E+02  0.45594000000E+02  0.51100000000E-03 0. -1.
    9900012    2    1    2    0    0 -0.32867902986E+02  0.16025768758E+01  0.28297623246E+02  0.47787276726E+02  0.20000025905E+02 0.  0.
         12    1    1    2    0    0  0.32867902986E+02 -0.16025768758E+01 -0.28297623246E+02  0.43400723274E+02  0.00000000000E+00 0. -1.
         11    1    3    3    0    0 -0.24320793912E+02  0.25028210441E+01  0.22180037628E+02  0.33010895158E+02  0.51100000000E-03 0.  1.
        -11    1    3    3    0    0  0.44816391437E+00 -0.26050970982E+01 -0.13440813339E+01  0.29654572461E+01  0.51100000000E-03 0. -1.
         12    1    3    3    0    0 -0.89952729881E+01  0.17048529300E+01  0.74616669523E+01  0.11810924322E+02  0.00000000000E+00 0. -1.
</event>
<event>
 7    1  0.2455451E-009  0.4778727E+02  0.7816164E-02  0.1312668E+00
        -11   -1    0    0    0    0  0.00000000000E+00  0.00000000000E+00  0.45593999997E+02  0.45594000000E+02  0.51100000000E-03 0. -1.
         11   -1    0    0    0    0 -0.00000000000E+00 -0.00000000000E+00 -0.45593999997E+02  0.45594000000E+02  0.51100000000E-03 0.  1.
    9900012    2    1    2    0    0  0.20140294028E+02  0.20574554659E+02 -0.32475829455E+02  0.47787271414E+02  0.20000001687E+02 0.  0.
         12    1    1    2    0    0 -0.20140294028E+02 -0.20574554659E+02  0.32475829455E+02  0.43400728586E+02  0.00000000000E+00 0. -1.
         11    1    3    3    0    0  0.55159593428E+01  0.44132106124E+00 -0.74511662433E+01  0.92811879841E+01  0.51100000000E-03 0. -1.
        -11    1    3    3    0    0  0.94837237658E+01  0.64531303539E+01 -0.26361238405E+01  0.11770006669E+02  0.51100000000E-03 0.  1.
        -12    1    3    3    0    0  0.51406109191E+01  0.13680103244E+02 -0.22388539371E+02  0.26736076761E+02  0.00000000000E+00 0.  1.
</event>
<event>
 7    1  0.2455451E-009  0.4778727E+02  0.7816164E-02  0.1312668E+00
        -11   -1    0    0    0    0  0.00000000000E+00  0.00000000000E+00  0.45593999997E+02  0.45594000000E+02  0.51100000000E-03 0. -1.
         11   -1    0    0    0    0 -0.00000000000E+00 -0.00000000000E+00 -0.45593999997E+02  0.45594000000E+02  0.51100000000E-03 0.  1.
    9900012    2    1    2    0    0  0.23130032936E+01  0.18696536054E+02 -0.39098763571E+02  0.47787265473E+02  0.19999974599E+02 0.  0.
         12    1    1    2    0    0 -0.23130032936E+01 -0.18696536054E+02  0.39098763571E+02  0.43400734527E+02  0.00000000000E+00 0. -1.
         11    1    3    3    0    0  0.92925591323E+00 -0.17133655269E+01  0.12017351738E+01  0.22898265589E+01  0.51100000000E-03 0. -1.
        -11    1    3    3    0    0  0.28072379465E+01  0.18365364897E+02 -0.34495432917E+02  0.39180379084E+02  0.51100000000E-03 0.  1.
         12    1    3    3    0    0 -0.14234905662E+01  0.20445366833E+01 -0.58050658278E+01  0.63170598308E+01  0.00000000000E+00 0. -1.
</event>
<event>
 7    1  0.2455451E-009  0.4778727E+02  0.7816164E-02  0.1312668E+00
        -11   -1    0    0    0    0  0.00000000000E+00  0.00000000000E+00  0.45593999997E+02  0.45594000000E+02  0.51100000000E-03 0.  1.
         11   -1    0    0    0    0 -0.00000000000E+00 -0.00000000000E+00 -0.45593999997E+02  0.45594000000E+02  0.51100000000E-03 0. -1.
    9900012    2    1    2    0    0 -0.21830937004E+02 -0.75504822335E+01  0.36742664410E+02  0.47787274425E+02  0.20000015414E+02 0.  0.
         12    1    1    2    0    0  0.21830937004E+02  0.75504822335E+01 -0.36742664410E+02  0.43400725575E+02  0.00000000000E+00 0. -1.
         11    1    3    3    0    0 -0.13501796293E+02  0.28063743120E+01  0.92358651011E+01  0.16597452948E+02  0.51100000000E-03 0. -1.
        -11    1    3    3    0    0 -0.10937914325E+01 -0.62097597207E+01  0.13230401166E+02  0.14656091251E+02  0.51100000000E-03 0.  1.
         12    1    3    3    0    0 -0.72353492787E+01 -0.41470968248E+01  0.14276398143E+02  0.16533730227E+02  0.00000000000E+00 0. -1.
</event>
<event>
 7    1  0.2455451E-009  0.4778728E+02  0.7816164E-02  0.1312668E+00
        -11   -1    0    0    0    0  0.00000000000E+00  0.00000000000E+00  0.45593999997E+02  0.45594000000E+02  0.51100000000E-03 0.  1.
         11   -1    0    0    0    0 -0.00000000000E+00 -0.00000000000E+00 -0.45593999997E+02  0.45594000000E+02  0.51100000000E-03 0. -1.
    9900012    2    1    2    0    0  0.37985038158E+02 -0.19512286217E+02  0.77479231718E+01  0.47787277071E+02  0.20000027477E+02 0.  0.
         12    1    1    2    0    0 -0.37985038158E+02  0.19512286217E+02 -0.77479231718E+01  0.43400722929E+02  0.00000000000E+00 0. -1.
         11    1    3    3    0    0  0.11476949644E+02 -0.15599076134E+02 -0.82876994198E+00  0.19383972999E+02  0.51100000000E-03 0. -1.
        -11    1    3    3    0    0  0.19089336338E+02 -0.17461830338E+01  0.46079244750E+01  0.19715092829E+02  0.51100000000E-03 0.  1.
        -12    1    3    3    0    0  0.74187521762E+01 -0.21670270488E+01  0.39687686388E+01  0.86882112423E+01  0.00000000000E+00 0.  1.
</event>
<event>
 7    1  0.2455451E-009  0.4778727E+02  0.7816164E-02  0.1312668E+00
        -11   -1    0    0    0    0  0.00000000000E+00  0.00000000000E+00  0.45593999997E+02  0.45594000000E+02  0.51100000000E-03 0.  1.
         11   -1    0    0    0    0 -0.00000000000E+00 -0.00000000000E+00 -0.45593999997E+02  0.45594000000E+02  0.51100000000E-03 0. -1.
    9900012    2    1    2    0    0 -0.12925966457E+02 -0.33900992492E+02  0.23817330160E+02  0.47787272855E+02  0.20000008254E+02 0.  0.
         12    1    1    2    0    0  0.12925966457E+02  0.33900992492E+02 -0.23817330160E+02  0.43400727145E+02  0.00000000000E+00 0. -1.
         11    1    3    3    0    0 -0.17790666684E+01  0.11910777707E+01  0.28036383293E+01  0.35276242160E+01  0.51100000000E-03 0. -1.
        -11    1    3    3    0    0 -0.11328738687E+02 -0.36124399505E+02  0.20073632251E+02  0.42851642580E+02  0.51100000000E-03 0.  1.
        -12    1    3    3    0    0  0.18183889904E+00  0.10323292416E+01  0.94005957914E+00  0.14080060585E+01  0.00000000000E+00 0.  1.
</event>
<event>
 7    1  0.2455451E-009  0.4778727E+02  0.7816164E-02  0.1312668E+00
        -11   -1    0    0    0    0  0.00000000000E+00  0.00000000000E+00  0.45593999997E+02  0.45594000000E+02  0.51100000000E-03 0.  1.
         11   -1    0    0    0    0 -0.00000000000E+00 -0.00000000000E+00 -0.45593999997E+02  0.45594000000E+02  0.51100000000E-03 0. -1.
    9900012    2    1    2    0    0 -0.72949418989E+01  0.40278793724E+02 -0.14423103575E+02  0.47787270537E+02  0.19999997687E+02 0.  0.
         12    1    1    2    0    0  0.72949418989E+01 -0.40278793724E+02  0.14423103575E+02  0.43400729463E+02  0.00000000000E+00 0. -1.
         11    1    3    3    0    0 -0.13250391484E+01  0.64838325048E+01 -0.10765580823E+02  0.12636991074E+02  0.51100000000E-03 0. -1.
        -11    1    3    3    0    0 -0.51110500064E+01  0.19640523723E+02  0.72631172621E+00  0.20307647163E+02  0.51100000000E-03 0.  1.
        -12    1    3    3    0    0 -0.85885274407E+00  0.14154437496E+02 -0.43838344780E+01  0.14842632300E+02  0.00000000000E+00 0.  1.
</event>
<event>
 7    1  0.2455451E-009  0.4778729E+02  0.7816164E-02  0.1312668E+00
        -11   -1    0    0    0    0  0.00000000000E+00  0.00000000000E+00  0.45593999997E+02  0.45594000000E+02  0.51100000000E-03 0.  1.
         11   -1    0    0    0    0 -0.00000000000E+00 -0.00000000000E+00 -0.45593999997E+02  0.45594000000E+02  0.51100000000E-03 0. -1.
    9900012    2    1    2    0    0  0.16118785649E+02  0.15612217202E+02  0.37149228695E+02  0.47787288377E+02  0.20000079027E+02 0.  0.
         12    1    1    2    0    0 -0.16118785649E+02 -0.15612217202E+02 -0.37149228695E+02  0.43400711623E+02  0.00000000000E+00 0. -1.
         11    1    3    3    0    0  0.13817919975E+02  0.93075107598E+01  0.34301717139E+02  0.38133613361E+02  0.51100000000E-03 0. -1.
        -11    1    3    3    0    0 -0.17506194500E+01  0.33991938681E+01 -0.16770030885E+00  0.38271805636E+01  0.51100000000E-03 0.  1.
         12    1    3    3    0    0  0.40514851234E+01  0.29055125740E+01  0.30152118643E+01  0.58264944529E+01  0.00000000000E+00 0. -1.
</event>
<event>
 7    1  0.2455451E-009  0.4778727E+02  0.7816164E-02  0.1312668E+00
        -11   -1    0    0    0    0  0.00000000000E+00  0.00000000000E+00  0.45593999997E+02  0.45594000000E+02  0.51100000000E-03 0.  1.
         11   -1    0    0    0    0 -0.00000000000E+00 -0.00000000000E+00 -0.45593999997E+02  0.45594000000E+02  0.51100000000E-03 0. -1.
    9900012    2    1    2    0    0  0.26927405934E+02  0.27437536557E+02  0.20142483796E+02  0.47787271249E+02  0.20000000934E+02 0.  0.
         12    1    1    2    0    0 -0.26927405934E+02 -0.27437536557E+02 -0.20142483796E+02  0.43400728751E+02  0.00000000000E+00 0. -1.
         11    1    3    3    0    0 -0.50874363907E+00 -0.15398830840E+01  0.20721554062E+00  0.16349307460E+01  0.51100000000E-03 0. -1.
        -11    1    3    3    0    0  0.23250818252E+02  0.16837936911E+02  0.12466089610E+02  0.31297285174E+02  0.51100000000E-03 0.  1.
        -12    1    3    3    0    0  0.41853313204E+01  0.12139482730E+02  0.74691786458E+01  0.14855055330E+02  0.00000000000E+00 0.  1.
</event>
<event>
 7    1  0.2455451E-009  0.4778727E+02  0.7816164E-02  0.1312668E+00
        -11   -1    0    0    0    0  0.00000000000E+00  0.00000000000E+00  0.45593999997E+02  0.45594000000E+02  0.51100000000E-03 0.  1.
         11   -1    0    0    0    0 -0.00000000000E+00 -0.00000000000E+00 -0.45593999997E+02  0.45594000000E+02  0.51100000000E-03 0. -1.
    9900012    2    1    2    0    0  0.35156066828E+01  0.29247107320E+01  0.43159127554E+02  0.47787265969E+02  0.19999976859E+02 0.  0.
         12    1    1    2    0    0 -0.35156066828E+01 -0.29247107320E+01 -0.43159127554E+02  0.43400734031E+02  0.00000000000E+00 0. -1.
         11    1    3    3    0    0  0.37461911998E+00  0.83460368038E+01  0.68310676247E+01  0.10791670629E+02  0.51100000000E-03 0. -1.
        -11    1    3    3    0    0  0.26216141849E+01 -0.33914309689E+01  0.16155478492E+02  0.16714489239E+02  0.51100000000E-03 0.  1.
         12    1    3    3    0    0  0.51937337798E+00 -0.20298951029E+01  0.20172581437E+02  0.20281106101E+02  0.00000000000E+00 0. -1.
</event>
<event>
 7    1  0.2455451E-009  0.4778727E+02  0.7816164E-02  0.1312668E+00
        -11   -1    0    0    0    0  0.00000000000E+00  0.00000000000E+00  0.45593999997E+02  0.45594000000E+02  0.51100000000E-03 0. -1.
         11   -1    0    0    0    0 -0.00000000000E+00 -0.00000000000E+00 -0.45593999997E+02  0.45594000000E+02  0.51100000000E-03 0.  1.
    9900012    2    1    2    0    0 -0.12930487281E+00 -0.34464879755E+02 -0.26377616702E+02  0.47787270522E+02  0.19999997619E+02 0.  0.
         12    1    1    2    0    0  0.12930487281E+00  0.34464879755E+02  0.26377616702E+02  0.43400729478E+02  0.00000000000E+00 0. -1.
         11    1    3    3    0    0  0.24225951955E+01  0.50549989100E+00  0.76402717518E+00  0.25900261401E+01  0.51100000000E-03 0. -1.
        -11    1    3    3    0    0  0.20347885423E+01 -0.25447707643E+02 -0.18194089300E+02  0.31348860815E+02  0.51100000000E-03 0.  1.
        -12    1    3    3    0    0 -0.45866886106E+01 -0.95226720034E+01 -0.89475545780E+01  0.13848383567E+02  0.00000000000E+00 0.  1.
</event>
<event>
 7    1  0.2455451E-009  0.4778727E+02  0.7816164E-02  0.1312668E+00
        -11   -1    0    0    0    0  0.00000000000E+00  0.00000000000E+00  0.45593999997E+02  0.45594000000E+02  0.51100000000E-03 0. -1.
         11   -1    0    0    0    0 -0.00000000000E+00 -0.00000000000E+00 -0.45593999997E+02  0.45594000000E+02  0.51100000000E-03 0.  1.
    9900012    2    1    2    0    0  0.96642418627E+00 -0.42802624431E+02 -0.71151011549E+01  0.47787270763E+02  0.19999998716E+02 0.  0.
         12    1    1    2    0    0 -0.96642418627E+00  0.42802624431E+02  0.71151011549E+01  0.43400729237E+02  0.00000000000E+00 0. -1.
         11    1    3    3    0    0 -0.56279816038E+01 -0.12017752783E+02 -0.67038168368E+01  0.14867471854E+02  0.51100000000E-03 0. -1.
        -11    1    3    3    0    0  0.46086028810E+01 -0.28836032369E+02  0.19549357925E+01  0.29267349684E+02  0.51100000000E-03 0.  1.
        -12    1    3    3    0    0  0.19858029091E+01 -0.19488392785E+01 -0.23662201105E+01  0.36524492247E+01  0.00000000000E+00 0.  1.
</event>
<event>
 7    1  0.2455451E-009  0.4778727E+02  0.7816164E-02  0.1312668E+00
        -11   -1    0    0    0    0  0.00000000000E+00  0.00000000000E+00  0.45593999997E+02  0.45594000000E+02  0.51100000000E-03 0.  1.
         11   -1    0    0    0    0 -0.00000000000E+00 -0.00000000000E+00 -0.45593999997E+02  0.45594000000E+02  0.51100000000E-03 0. -1.
    9900012    2    1    2    0    0  0.24205733216E+02  0.29479672791E+02  0.20703975602E+02  0.47787271503E+02  0.20000002089E+02 0.  0.
         12    1    1    2    0    0 -0.24205733216E+02 -0.29479672791E+02 -0.20703975602E+02  0.43400728497E+02  0.00000000000E+00 0. -1.
         11    1    3    3    0    0  0.12428594614E+02  0.24813682519E+02  0.86137313957E+01  0.29058306439E+02  0.51100000000E-03 0. -1.
        -11    1    3    3    0    0 -0.19332174326E+00  0.85398297600E+00 -0.44481941349E+00  0.98210223065E+00  0.51100000000E-03 0.  1.
         12    1    3    3    0    0  0.11970460345E+02  0.38120072958E+01  0.12535063620E+02  0.17746862833E+02  0.00000000000E+00 0. -1.
</event>
<event>
 7    1  0.2455451E-009  0.4778727E+02  0.7816164E-02  0.1312668E+00
        -11   -1    0    0    0    0  0.00000000000E+00  0.00000000000E+00  0.45593999997E+02  0.45594000000E+02  0.51100000000E-03 0. -1.
         11   -1    0    0    0    0 -0.00000000000E+00 -0.00000000000E+00 -0.45593999997E+02  0.45594000000E+02  0.51100000000E-03 0.  1.
    9900012    2    1    2    0    0  0.21301949081E+02 -0.58861742867E+01 -0.37352418881E+02  0.47787270989E+02  0.19999999748E+02 0.  0.
         12    1    1    2    0    0 -0.21301949081E+02  0.58861742867E+01  0.37352418881E+02  0.43400729011E+02  0.00000000000E+00 0. -1.
         11    1    3    3    0    0  0.13669175574E+02 -0.65724851178E+01 -0.10219258148E+02  0.18288716709E+02  0.51100000000E-03 0. -1.
        -11    1    3    3    0    0  0.79697714208E+01  0.34408109645E+01 -0.18611014518E+02  0.20535975707E+02  0.51100000000E-03 0.  1.
         12    1    3    3    0    0 -0.33699791303E+00 -0.27545001335E+01 -0.85221462151E+01  0.89625785737E+01  0.00000000000E+00 0. -1.
</event>
<event>
 7    1  0.2455451E-009  0.4778726E+02  0.7816164E-02  0.1312668E+00
        -11   -1    0    0    0    0  0.00000000000E+00  0.00000000000E+00  0.45593999997E+02  0.45594000000E+02  0.51100000000E-03 0.  1.
         11   -1    0    0    0    0 -0.00000000000E+00 -0.00000000000E+00 -0.45593999997E+02  0.45594000000E+02  0.51100000000E-03 0. -1.
    9900012    2    1    2    0    0  0.42133873495E+02 -0.26284917974E+01 -0.10072320689E+02  0.47787263729E+02  0.19999966646E+02 0.  0.
         12    1    1    2    0    0 -0.42133873495E+02  0.26284917974E+01  0.10072320689E+02  0.43400736271E+02  0.00000000000E+00 0. -1.
         11    1    3    3    0    0  0.13850191492E+02  0.28037530035E+01 -0.84668864606E+01  0.16473524270E+02  0.51100000000E-03 0. -1.
        -11    1    3    3    0    0  0.23275166161E+02 -0.55927519232E+01  0.34623653582E+01  0.24186777545E+02  0.51100000000E-03 0.  1.
        -12    1    3    3    0    0  0.50085158426E+01  0.16050712231E+00 -0.50677995862E+01  0.71269619143E+01  0.00000000000E+00 0.  1.
</event>
<event>
 7    1  0.2455451E-009  0.4778727E+02  0.7816164E-02  0.1312668E+00
        -11   -1    0    0    0    0  0.00000000000E+00  0.00000000000E+00  0.45593999997E+02  0.45594000000E+02  0.51100000000E-03 0.  1.
         11   -1    0    0    0    0 -0.00000000000E+00 -0.00000000000E+00 -0.45593999997E+02  0.45594000000E+02  0.51100000000E-03 0. -1.
    9900012    2    1    2    0    0  0.20506349808E+02  0.43948163877E+01  0.37997344658E+02  0.47787274262E+02  0.20000014671E+02 0.  0.
         12    1    1    2    0    0 -0.20506349808E+02 -0.43948163877E+01 -0.37997344658E+02  0.43400725738E+02  0.00000000000E+00 0. -1.
         11    1    3    3    0    0  0.29774343189E+01  0.58587588552E+01  0.38968363554E+01  0.76403863965E+01  0.51100000000E-03 0. -1.
        -11    1    3    3    0    0  0.14038888123E+02 -0.57953597560E+01  0.28250876449E+02  0.32074734524E+02  0.51100000000E-03 0.  1.
        -12    1    3    3    0    0  0.34900273662E+01  0.43314172886E+01  0.58496318539E+01  0.80721533416E+01  0.00000000000E+00 0.  1.
</event>
<event>
 7    1  0.2455451E-009  0.4778727E+02  0.7816164E-02  0.1312668E+00
        -11   -1    0    0    0    0  0.00000000000E+00  0.00000000000E+00  0.45593999997E+02  0.45594000000E+02  0.51100000000E-03 0.  1.
         11   -1    0    0    0    0 -0.00000000000E+00 -0.00000000000E+00 -0.45593999997E+02  0.45594000000E+02  0.51100000000E-03 0. -1.
    9900012    2    1    2    0    0  0.25862708066E+01 -0.14001026956E+02  0.40998849035E+02  0.47787272187E+02  0.20000005210E+02 0.  0.
         12    1    1    2    0    0 -0.25862708066E+01  0.14001026956E+02 -0.40998849035E+02  0.43400727813E+02  0.00000000000E+00 0. -1.
         11    1    3    3    0    0 -0.38306072848E+01 -0.45437132062E+01  0.11573982453E+02  0.13010609208E+02  0.51100000000E-03 0. -1.
        -11    1    3    3    0    0  0.18316820065E+01  0.31331898516E+01  0.17512731355E+01  0.40297512920E+01  0.51100000000E-03 0.  1.
        -12    1    3    3    0    0  0.45851960849E+01 -0.12590503601E+02  0.27673593446E+02  0.30746911687E+02  0.00000000000E+00 0.  1.
</event>
<event>
 7    1  0.2455451E-009  0.4778727E+02  0.7816164E-02  0.1312668E+00
        -11   -1    0    0    0    0  0.00000000000E+00  0.00000000000E+00  0.45593999997E+02  0.45594000000E+02  0.51100000000E-03 0.  1.
         11   -1    0    0    0    0 -0.00000000000E+00 -0.00000000000E+00 -0.45593999997E+02  0.45594000000E+02  0.51100000000E-03 0. -1.
    9900012    2    1    2    0    0  0.44045999081E+01 -0.38760599066E+02  0.19022051350E+02  0.47787274455E+02  0.20000015549E+02 0.  0.
         12    1    1    2    0    0 -0.44045999081E+01  0.38760599066E+02 -0.19022051350E+02  0.43400725545E+02  0.00000000000E+00 0. -1.
         11    1    3    3    0    0  0.50316476493E+01 -0.33505609916E+02  0.98317600503E+01  0.35278986378E+02  0.51100000000E-03 0. -1.
        -11    1    3    3    0    0 -0.22536925256E+01 -0.12960604725E+01  0.74453108320E+01  0.78861623363E+01  0.51100000000E-03 0.  1.
        -12    1    3    3    0    0  0.16266447845E+01 -0.39589286771E+01  0.17449804682E+01  0.46221257403E+01  0.00000000000E+00 0.  1.
</event>
<event>
 7    1  0.2455451E-009  0.4778726E+02  0.7816164E-02  0.1312668E+00
        -11   -1    0    0    0    0  0.00000000000E+00  0.00000000000E+00  0.45593999997E+02  0.45594000000E+02  0.51100000000E-03 0.  1.
         11   -1    0    0    0    0 -0.00000000000E+00 -0.00000000000E+00 -0.45593999997E+02  0.45594000000E+02  0.51100000000E-03 0. -1.
    9900012    2    1    2    0    0 -0.20712321461E+02  0.34736288100E+02  0.15748466494E+02  0.47787260741E+02  0.19999953025E+02 0.  0.
         12    1    1    2    0    0  0.20712321461E+02 -0.34736288100E+02 -0.15748466494E+02  0.43400739259E+02  0.00000000000E+00 0. -1.
         11    1    3    3    0    0  0.96458597146E+00 -0.18216276461E+00  0.47074285120E+01  0.48086893044E+01  0.51100000000E-03 0. -1.
        -11    1    3    3    0    0 -0.14979214280E+02  0.23382470472E+02  0.10303381619E+02  0.29618853098E+02  0.51100000000E-03 0.  1.
        -12    1    3    3    0    0 -0.66976931524E+01  0.11535980393E+02  0.73765636394E+00  0.13359718339E+02  0.00000000000E+00 0.  1.
</event>
<event>
 7    1  0.2455451E-009  0.4778727E+02  0.7816164E-02  0.1312668E+00
        -11   -1    0    0    0    0  0.00000000000E+00  0.00000000000E+00  0.45593999997E+02  0.45594000000E+02  0.51100000000E-03 0. -1.
         11   -1    0    0    0    0 -0.00000000000E+00 -0.00000000000E+00 -0.45593999997E+02  0.45594000000E+02  0.51100000000E-03 0.  1.
    9900012    2    1    2    0    0  0.20731186154E+02  0.13246483249E+02 -0.35754328209E+02  0.47787269782E+02  0.19999994244E+02 0.  0.
         12    1    1    2    0    0 -0.20731186154E+02 -0.13246483249E+02  0.35754328209E+02  0.43400730218E+02  0.00000000000E+00 0. -1.
         11    1    3    3    0    0  0.12914738827E+02  0.60208916222E+01 -0.47771930419E+01  0.15028745407E+02  0.51100000000E-03 0. -1.
        -11    1    3    3    0    0  0.56639030500E+01  0.55001385370E+01 -0.22699730546E+02  0.24033499304E+02  0.51100000000E-03 0.  1.
         12    1    3    3    0    0  0.21525442770E+01  0.17254530895E+01 -0.82774046207E+01  0.87250250707E+01  0.00000000000E+00 0. -1.
</event>
<event>
 7    1  0.2455451E-009  0.4778727E+02  0.7816164E-02  0.1312668E+00
        -11   -1    0    0    0    0  0.00000000000E+00  0.00000000000E+00  0.45593999997E+02  0.45594000000E+02  0.51100000000E-03 0. -1.
         11   -1    0    0    0    0 -0.00000000000E+00 -0.00000000000E+00 -0.45593999997E+02  0.45594000000E+02  0.51100000000E-03 0.  1.
    9900012    2    1    2    0    0  0.28943810413E+02 -0.22305107040E+01 -0.32263042295E+02  0.47787271465E+02  0.20000001917E+02 0.  0.
         12    1    1    2    0    0 -0.28943810413E+02  0.22305107040E+01  0.32263042295E+02  0.43400728535E+02  0.00000000000E+00 0. -1.
         11    1    3    3    0    0  0.77359769674E+00 -0.64613535808E+01 -0.60366221356E+01  0.88762802210E+01  0.51100000000E-03 0. -1.
        -11    1    3    3    0    0  0.13550828873E+02  0.27168371543E+01 -0.10280746009E+02  0.17224979130E+02  0.51100000000E-03 0.  1.
         12    1    3    3    0    0  0.14619383844E+02  0.15140057225E+01 -0.15945674150E+02  0.21686012114E+02  0.00000000000E+00 0. -1.
</event>
<event>
 7    1  0.2455451E-009  0.4778727E+02  0.7816164E-02  0.1312668E+00
        -11   -1    0    0    0    0  0.00000000000E+00  0.00000000000E+00  0.45593999997E+02  0.45594000000E+02  0.51100000000E-03 0.  1.
         11   -1    0    0    0    0 -0.00000000000E+00 -0.00000000000E+00 -0.45593999997E+02  0.45594000000E+02  0.51100000000E-03 0. -1.
    9900012    2    1    2    0    0  0.17651914793E+02 -0.38932873048E+02 -0.75009609211E+01  0.47787272882E+02  0.20000008379E+02 0.  0.
         12    1    1    2    0    0 -0.17651914793E+02  0.38932873048E+02  0.75009609211E+01  0.43400727118E+02  0.00000000000E+00 0. -1.
         11    1    3    3    0    0  0.91911322042E+01 -0.26726380171E+02 -0.21693842482E+01  0.28345767524E+02  0.51100000000E-03 0. -1.
        -11    1    3    3    0    0 -0.22463340534E+01 -0.13462968109E+01 -0.30515183197E+01  0.40212306697E+01  0.51100000000E-03 0.  1.
        -12    1    3    3    0    0  0.10707116643E+02 -0.10860196066E+02 -0.22800583532E+01  0.15420274689E+02  0.00000000000E+00 0.  1.
</event>
<event>
 7    1  0.2455451E-009  0.4778727E+02  0.7816164E-02  0.1312668E+00
        -11   -1    0    0    0    0  0.00000000000E+00  0.00000000000E+00  0.45593999997E+02  0.45594000000E+02  0.51100000000E-03 0.  1.
         11   -1    0    0    0    0 -0.00000000000E+00 -0.00000000000E+00 -0.45593999997E+02  0.45594000000E+02  0.51100000000E-03 0. -1.
    9900012    2    1    2    0    0  0.15111590212E+02 -0.36808125533E+02  0.17332776229E+02  0.47787269640E+02  0.19999993596E+02 0.  0.
         12    1    1    2    0    0 -0.15111590212E+02  0.36808125533E+02 -0.17332776229E+02  0.43400730360E+02  0.00000000000E+00 0. -1.
         11    1    3    3    0    0 -0.19238408910E+01  0.73845460717E+00  0.38208796747E+00  0.20958221434E+01  0.51100000000E-03 0. -1.
        -11    1    3    3    0    0  0.13056561384E+02 -0.32160231138E+02  0.17684029522E+02  0.38954834904E+02  0.51100000000E-03 0.  1.
        -12    1    3    3    0    0  0.39788697186E+01 -0.53863490026E+01 -0.73334126080E+00  0.67366125924E+01  0.00000000000E+00 0.  1.
</event>
<event>
 7    1  0.2455451E-009  0.4778727E+02  0.7816164E-02  0.1312668E+00
        -11   -1    0    0    0    0  0.00000000000E+00  0.00000000000E+00  0.45593999997E+02  0.45594000000E+02  0.51100000000E-03 0.  1.
         11   -1    0    0    0    0 -0.00000000000E+00 -0.00000000000E+00 -0.45593999997E+02  0.45594000000E+02  0.51100000000E-03 0. -1.
    9900012    2    1    2    0    0  0.23954078973E+02 -0.15073922395E+02  0.32902921457E+02  0.47787271017E+02  0.19999999876E+02 0.  0.
         12    1    1    2    0    0 -0.23954078973E+02  0.15073922395E+02 -0.32902921457E+02  0.43400728983E+02  0.00000000000E+00 0. -1.
         11    1    3    3    0    0  0.27350565889E+01  0.22096603960E+01  0.10928321900E+02  0.11480041525E+02  0.51100000000E-03 0. -1.
        -11    1    3    3    0    0  0.17427062957E+02 -0.91477918568E+01  0.17209079673E+02  0.26144541354E+02  0.51100000000E-03 0.  1.
         12    1    3    3    0    0  0.37919594270E+01 -0.81357909345E+01  0.47655198842E+01  0.10162688138E+02  0.00000000000E+00 0. -1.
</event>
<event>
 7    1  0.2455451E-009  0.4778727E+02  0.7816164E-02  0.1312668E+00
        -11   -1    0    0    0    0  0.00000000000E+00  0.00000000000E+00  0.45593999997E+02  0.45594000000E+02  0.51100000000E-03 0. -1.
         11   -1    0    0    0    0 -0.00000000000E+00 -0.00000000000E+00 -0.45593999997E+02  0.45594000000E+02  0.51100000000E-03 0.  1.
    9900012    2    1    2    0    0  0.10577901501E+02 -0.37866378093E+02  0.18381201410E+02  0.47787272410E+02  0.20000006227E+02 0.  0.
         12    1    1    2    0    0 -0.10577901501E+02  0.37866378093E+02 -0.18381201410E+02  0.43400727590E+02  0.00000000000E+00 0. -1.
         11    1    3    3    0    0  0.63930007185E+01 -0.60150988988E+01  0.26366457872E+01  0.91653572881E+01  0.51100000000E-03 0. -1.
        -11    1    3    3    0    0 -0.40640794975E+01 -0.17935697170E+02  0.12176941402E+02  0.22056379515E+02  0.51100000000E-03 0.  1.
        -12    1    3    3    0    0  0.82489802798E+01 -0.13915582024E+02  0.35676142214E+01  0.16565535607E+02  0.00000000000E+00 0.  1.
</event>
<event>
 7    1  0.2455451E-009  0.4778731E+02  0.7816164E-02  0.1312668E+00
        -11   -1    0    0    0    0  0.00000000000E+00  0.00000000000E+00  0.45593999997E+02  0.45594000000E+02  0.51100000000E-03 0.  1.
         11   -1    0    0    0    0 -0.00000000000E+00 -0.00000000000E+00 -0.45593999997E+02  0.45594000000E+02  0.51100000000E-03 0. -1.
    9900012    2    1    2    0    0 -0.13851872560E+01 -0.11282478651E+02  0.41885634960E+02  0.47787314703E+02  0.20000199054E+02 0.  0.
         12    1    1    2    0    0  0.13851872560E+01  0.11282478651E+02 -0.41885634960E+02  0.43400685297E+02  0.00000000000E+00 0. -1.
         11    1    3    3    0    0  0.41335522069E+01 -0.53669017076E+01  0.13180983415E+02  0.14819858698E+02  0.51100000000E-03 0. -1.
        -11    1    3    3    0    0 -0.97689297982E+01 -0.29222670286E+01  0.13632520002E+02  0.17024019380E+02  0.51100000000E-03 0.  1.
        -12    1    3    3    0    0  0.42501903352E+01 -0.29933099146E+01  0.15072131544E+02  0.15943436624E+02  0.00000000000E+00 0.  1.
</event>
<event>
 7    1  0.2455451E-009  0.4778727E+02  0.7816164E-02  0.1312668E+00
        -11   -1    0    0    0    0  0.00000000000E+00  0.00000000000E+00  0.45593999997E+02  0.45594000000E+02  0.51100000000E-03 0.  1.
         11   -1    0    0    0    0 -0.00000000000E+00 -0.00000000000E+00 -0.45593999997E+02  0.45594000000E+02  0.51100000000E-03 0. -1.
    9900012    2    1    2    0    0  0.37426515295E+02  0.21368250836E+02  0.51261078486E+01  0.47787272211E+02  0.20000005320E+02 0.  0.
         12    1    1    2    0    0 -0.37426515295E+02 -0.21368250836E+02 -0.51261078486E+01  0.43400727789E+02  0.00000000000E+00 0. -1.
         11    1    3    3    0    0  0.19929659876E+02  0.54458895093E+01 -0.60307969469E+01  0.21522536268E+02  0.51100000000E-03 0. -1.
        -11    1    3    3    0    0  0.76798545725E+01  0.69174466101E+01  0.61882167191E+01  0.12046794606E+02  0.51100000000E-03 0.  1.
         12    1    3    3    0    0  0.98170008464E+01  0.90049147164E+01  0.49686880764E+01  0.14217941337E+02  0.00000000000E+00 0. -1.
</event>
<event>
 7    1  0.2455451E-009  0.4778728E+02  0.7816164E-02  0.1312668E+00
        -11   -1    0    0    0    0  0.00000000000E+00  0.00000000000E+00  0.45593999997E+02  0.45594000000E+02  0.51100000000E-03 0.  1.
         11   -1    0    0    0    0 -0.00000000000E+00 -0.00000000000E+00 -0.45593999997E+02  0.45594000000E+02  0.51100000000E-03 0. -1.
    9900012    2    1    2    0    0 -0.27148963625E+02 -0.27880821014E+02  0.19215000024E+02  0.47787278436E+02  0.20000033703E+02 0.  0.
         12    1    1    2    0    0  0.27148963625E+02  0.27880821014E+02 -0.19215000024E+02  0.43400721564E+02  0.00000000000E+00 0. -1.
         11    1    3    3    0    0 -0.77351832645E+01 -0.62093374405E+01  0.16564776425E+01  0.10056482985E+02  0.51100000000E-03 0. -1.
        -11    1    3    3    0    0 -0.58204739156E+01 -0.18152626686E+02  0.76270216936E+01  0.20532102483E+02  0.51100000000E-03 0.  1.
        -12    1    3    3    0    0 -0.13593306445E+02 -0.35188568871E+01  0.99315006875E+01  0.17198692968E+02  0.00000000000E+00 0.  1.
</event>
<event>
 7    1  0.2455451E-009  0.4778727E+02  0.7816164E-02  0.1312668E+00
        -11   -1    0    0    0    0  0.00000000000E+00  0.00000000000E+00  0.45593999997E+02  0.45594000000E+02  0.51100000000E-03 0.  1.
         11   -1    0    0    0    0 -0.00000000000E+00 -0.00000000000E+00 -0.45593999997E+02  0.45594000000E+02  0.51100000000E-03 0. -1.
    9900012    2    1    2    0    0 -0.27957242904E+01 -0.43285082398E+02 -0.14861653373E+01  0.47787272818E+02  0.20000008085E+02 0.  0.
         12    1    1    2    0    0  0.27957242904E+01  0.43285082398E+02  0.14861653373E+01  0.43400727182E+02  0.00000000000E+00 0. -1.
         11    1    3    3    0    0 -0.48455729158E+01 -0.43602905380E+02 -0.41876200457E+01  0.44070728340E+02  0.51100000000E-03 0.  1.
        -11    1    3    3    0    0  0.45590530377E+00  0.45337607775E+00  0.17284770143E+01  0.18441888634E+01  0.51100000000E-03 0. -1.
        -12    1    3    3    0    0  0.15939433216E+01 -0.13555309579E+00  0.97297769409E+00  0.18723556146E+01  0.00000000000E+00 0.  1.
</event>
<event>
 7    1  0.2455451E-009  0.4778727E+02  0.7816164E-02  0.1312668E+00
        -11   -1    0    0    0    0  0.00000000000E+00  0.00000000000E+00  0.45593999997E+02  0.45594000000E+02  0.51100000000E-03 0. -1.
         11   -1    0    0    0    0 -0.00000000000E+00 -0.00000000000E+00 -0.45593999997E+02  0.45594000000E+02  0.51100000000E-03 0.  1.
    9900012    2    1    2    0    0 -0.41457393688E+02 -0.11905909840E+02 -0.48121727056E+01  0.47787272050E+02  0.20000004583E+02 0.  0.
         12    1    1    2    0    0  0.41457393688E+02  0.11905909840E+02  0.48121727056E+01  0.43400727950E+02  0.00000000000E+00 0. -1.
         11    1    3    3    0    0 -0.56606240935E+01 -0.37721145244E+01 -0.66654608750E+01  0.95236485682E+01  0.51100000000E-03 0. -1.
        -11    1    3    3    0    0 -0.31822061559E+02 -0.46620405189E+01 -0.11672270538E+01  0.32182924710E+02  0.51100000000E-03 0.  1.
         12    1    3    3    0    0 -0.39747080355E+01 -0.34717547962E+01  0.30205152232E+01  0.60806987712E+01  0.00000000000E+00 0. -1.
</event>
<event>
 7    1  0.2455451E-009  0.4778727E+02  0.7816164E-02  0.1312668E+00
        -11   -1    0    0    0    0  0.00000000000E+00  0.00000000000E+00  0.45593999997E+02  0.45594000000E+02  0.51100000000E-03 0. -1.
         11   -1    0    0    0    0 -0.00000000000E+00 -0.00000000000E+00 -0.45593999997E+02  0.45594000000E+02  0.51100000000E-03 0.  1.
    9900012    2    1    2    0    0 -0.32021141910E+02  0.10155866648E+02 -0.27479591799E+02  0.47787272794E+02  0.20000007976E+02 0.  0.
         12    1    1    2    0    0  0.32021141910E+02 -0.10155866648E+02  0.27479591799E+02  0.43400727206E+02  0.00000000000E+00 0. -1.
         11    1    3    3    0    0 -0.21669812104E+02  0.36192187922E+01 -0.11180443616E+02  0.24651203236E+02  0.51100000000E-03 0. -1.
        -11    1    3    3    0    0 -0.10612153317E+02  0.15240697326E+01 -0.77736797200E+01  0.13242759653E+02  0.51100000000E-03 0.  1.
         12    1    3    3    0    0  0.26082351133E+00  0.50125781230E+01 -0.85254684633E+01  0.98933099042E+01  0.00000000000E+00 0. -1.
</event>
<event>
 7    1  0.2455451E-009  0.4778729E+02  0.7816164E-02  0.1312668E+00
        -11   -1    0    0    0    0  0.00000000000E+00  0.00000000000E+00  0.45593999997E+02  0.45594000000E+02  0.51100000000E-03 0.  1.
         11   -1    0    0    0    0 -0.00000000000E+00 -0.00000000000E+00 -0.45593999997E+02  0.45594000000E+02  0.51100000000E-03 0. -1.
    9900012    2    1    2    0    0 -0.39313682018E+02  0.18087554541E+02 -0.33010203028E+01  0.47787286203E+02  0.20000069113E+02 0.  0.
         12    1    1    2    0    0  0.39313682018E+02 -0.18087554541E+02  0.33010203028E+01  0.43400713797E+02  0.00000000000E+00 0. -1.
         11    1    3    3    0    0 -0.11920453717E+01  0.68344176868E+01 -0.21564593776E+01  0.72650226836E+01  0.51100000000E-03 0. -1.
        -11    1    3    3    0    0 -0.37271610010E+02  0.12192330153E+02 -0.13531687610E+01  0.39238461912E+02  0.51100000000E-03 0.  1.
        -12    1    3    3    0    0 -0.85002663660E+00 -0.93919329942E+00  0.20860783580E+00  0.12838016069E+01  0.00000000000E+00 0.  1.
</event>
<event>
 7    1  0.2455451E-009  0.4778727E+02  0.7816164E-02  0.1312668E+00
        -11   -1    0    0    0    0  0.00000000000E+00  0.00000000000E+00  0.45593999997E+02  0.45594000000E+02  0.51100000000E-03 0. -1.
         11   -1    0    0    0    0 -0.00000000000E+00 -0.00000000000E+00 -0.45593999997E+02  0.45594000000E+02  0.51100000000E-03 0.  1.
    9900012    2    1    2    0    0 -0.20659924633E+02 -0.34113473082E+02 -0.17119039528E+02  0.47787273670E+02  0.20000011972E+02 0.  0.
         12    1    1    2    0    0  0.20659924633E+02  0.34113473082E+02  0.17119039528E+02  0.43400726330E+02  0.00000000000E+00 0. -1.
         11    1    3    3    0    0 -0.37425148333E+01  0.11471739424E+01 -0.28078597827E+01  0.48173127522E+01  0.51100000000E-03 0. -1.
        -11    1    3    3    0    0 -0.17980484598E+02 -0.34418610777E+02 -0.12682875189E+02  0.40850874134E+02  0.51100000000E-03 0.  1.
        -12    1    3    3    0    0  0.10630747980E+01 -0.84203624728E+00 -0.16283045568E+01  0.21190867839E+01  0.00000000000E+00 0.  1.
</event>
<event>
 7    1  0.2455451E-009  0.4778727E+02  0.7816164E-02  0.1312668E+00
        -11   -1    0    0    0    0  0.00000000000E+00  0.00000000000E+00  0.45593999997E+02  0.45594000000E+02  0.51100000000E-03 0.  1.
         11   -1    0    0    0    0 -0.00000000000E+00 -0.00000000000E+00 -0.45593999997E+02  0.45594000000E+02  0.51100000000E-03 0. -1.
    9900012    2    1    2    0    0  0.57976690286E+01  0.39163738587E+02  0.17782343299E+02  0.47787272823E+02  0.20000008111E+02 0.  0.
         12    1    1    2    0    0 -0.57976690286E+01 -0.39163738587E+02 -0.17782343299E+02  0.43400727177E+02  0.00000000000E+00 0. -1.
         11    1    3    3    0    0  0.23328901000E+01 -0.13818758407E+01  0.71304560836E+00  0.28036389494E+01  0.51100000000E-03 0. -1.
        -11    1    3    3    0    0  0.36736231373E+01  0.38057886792E+02  0.13338492191E+02  0.40494612336E+02  0.51100000000E-03 0.  1.
        -12    1    3    3    0    0 -0.20884420872E+00  0.24877276355E+01  0.37308055002E+01  0.44890215384E+01  0.00000000000E+00 0.  1.
</event>
<event>
 7    1  0.2455451E-009  0.4778728E+02  0.7816164E-02  0.1312668E+00
        -11   -1    0    0    0    0  0.00000000000E+00  0.00000000000E+00  0.45593999997E+02  0.45594000000E+02  0.51100000000E-03 0.  1.
         11   -1    0    0    0    0 -0.00000000000E+00 -0.00000000000E+00 -0.45593999997E+02  0.45594000000E+02  0.51100000000E-03 0. -1.
    9900012    2    1    2    0    0  0.29659982394E+02 -0.30361669715E+02  0.90596188431E+01  0.47787282989E+02  0.20000054459E+02 0.  0.
         12    1    1    2    0    0 -0.29659982394E+02  0.30361669715E+02 -0.90596188431E+01  0.43400717011E+02  0.00000000000E+00 0. -1.
         11    1    3    3    0    0  0.12226530238E+02 -0.14568690598E+02  0.64742460332E+01  0.20091058941E+02  0.51100000000E-03 0. -1.
        -11    1    3    3    0    0  0.14693734586E+02 -0.68528472124E+01 -0.34378641220E+01  0.16573661664E+02  0.51100000000E-03 0.  1.
        -12    1    3    3    0    0  0.27397175707E+01 -0.89401319044E+01  0.60232369319E+01  0.11122562383E+02  0.00000000000E+00 0.  1.
</event>
<event>
 7    1  0.2455451E-009  0.4778727E+02  0.7816164E-02  0.1312668E+00
        -11   -1    0    0    0    0  0.00000000000E+00  0.00000000000E+00  0.45593999997E+02  0.45594000000E+02  0.51100000000E-03 0. -1.
         11   -1    0    0    0    0 -0.00000000000E+00 -0.00000000000E+00 -0.45593999997E+02  0.45594000000E+02  0.51100000000E-03 0.  1.
    9900012    2    1    2    0    0 -0.95739426819E+01  0.24127459060E+02 -0.34782589366E+02  0.47787272101E+02  0.20000004818E+02 0.  0.
         12    1    1    2    0    0  0.95739426819E+01 -0.24127459060E+02  0.34782589366E+02  0.43400727899E+02  0.00000000000E+00 0. -1.
         11    1    3    3    0    0  0.39244273339E+01  0.28724826281E+01 -0.55625529063E+00  0.48950696172E+01  0.51100000000E-03 0. -1.
        -11    1    3    3    0    0 -0.11072367783E+02  0.12707997394E+02 -0.20470534332E+02  0.26516660842E+02  0.51100000000E-03 0.  1.
         12    1    3    3    0    0 -0.24260022323E+01  0.85469790376E+01 -0.13755799743E+02  0.16375541642E+02  0.00000000000E+00 0. -1.
</event>
<event>
 7    1  0.2455451E-009  0.4778727E+02  0.7816164E-02  0.1312668E+00
        -11   -1    0    0    0    0  0.00000000000E+00  0.00000000000E+00  0.45593999997E+02  0.45594000000E+02  0.51100000000E-03 0. -1.
         11   -1    0    0    0    0 -0.00000000000E+00 -0.00000000000E+00 -0.45593999997E+02  0.45594000000E+02  0.51100000000E-03 0.  1.
    9900012    2    1    2    0    0  0.95353752703E+01 -0.36316095385E+01 -0.42184255710E+02  0.47787269600E+02  0.19999993416E+02 0.  0.
         12    1    1    2    0    0 -0.95353752703E+01  0.36316095385E+01  0.42184255710E+02  0.43400730400E+02  0.00000000000E+00 0. -1.
         11    1    3    3    0    0  0.41602245719E+01 -0.73657772375E+00 -0.51916043669E+01  0.66934872373E+01  0.51100000000E-03 0. -1.
        -11    1    3    3    0    0  0.98103141665E+01  0.27595244808E+01 -0.26349527691E+02  0.28251634452E+02  0.51100000000E-03 0.  1.
         12    1    3    3    0    0 -0.44351634682E+01 -0.56545562956E+01 -0.10643123653E+02  0.12842147911E+02  0.00000000000E+00 0. -1.
</event>
<event>
 7    1  0.2455451E-009  0.4778728E+02  0.7816164E-02  0.1312668E+00
        -11   -1    0    0    0    0  0.00000000000E+00  0.00000000000E+00  0.45593999997E+02  0.45594000000E+02  0.51100000000E-03 0.  1.
         11   -1    0    0    0    0 -0.00000000000E+00 -0.00000000000E+00 -0.45593999997E+02  0.45594000000E+02  0.51100000000E-03 0. -1.
    9900012    2    1    2    0    0  0.95644932430E+00  0.26377080325E+02  0.34452246457E+02  0.47787280562E+02  0.20000043393E+02 0.  0.
         12    1    1    2    0    0 -0.95644932430E+00 -0.26377080325E+02 -0.34452246457E+02  0.43400719438E+02  0.00000000000E+00 0. -1.
         11    1    3    3    0    0 -0.17915277750E+01  0.12135537412E+01  0.11031409429E+02  0.11241631496E+02  0.51100000000E-03 0. -1.
        -11    1    3    3    0    0  0.47537215223E+01  0.24270719765E+02  0.23793188401E+02  0.34318821669E+02  0.51100000000E-03 0.  1.
         12    1    3    3    0    0 -0.20057444230E+01  0.89280681873E+00 -0.37235137248E+00  0.22268273958E+01  0.00000000000E+00 0. -1.
</event>
<event>
 7    1  0.2455451E-009  0.4778727E+02  0.7816164E-02  0.1312668E+00
        -11   -1    0    0    0    0  0.00000000000E+00  0.00000000000E+00  0.45593999997E+02  0.45594000000E+02  0.51100000000E-03 0.  1.
         11   -1    0    0    0    0 -0.00000000000E+00 -0.00000000000E+00 -0.45593999997E+02  0.45594000000E+02  0.51100000000E-03 0. -1.
    9900012    2    1    2    0    0 -0.49521177757E+01  0.20298807497E+02  0.38040217274E+02  0.47787272051E+02  0.20000004589E+02 0.  0.
         12    1    1    2    0    0  0.49521177757E+01 -0.20298807497E+02 -0.38040217274E+02  0.43400727949E+02  0.00000000000E+00 0. -1.
         11    1    3    3    0    0 -0.12723092212E+01  0.10323088048E+02  0.97690321654E+01  0.14269509708E+02  0.51100000000E-03 0. -1.
        -11    1    3    3    0    0 -0.10546091372E+01  0.19330379492E+01  0.23888326704E+02  0.23989601687E+02  0.51100000000E-03 0.  1.
        -12    1    3    3    0    0 -0.26251994172E+01  0.80426814998E+01  0.43828584050E+01  0.95281606559E+01  0.00000000000E+00 0.  1.
</event>
<event>
 7    1  0.2455451E-009  0.4778728E+02  0.7816164E-02  0.1312668E+00
        -11   -1    0    0    0    0  0.00000000000E+00  0.00000000000E+00  0.45593999997E+02  0.45594000000E+02  0.51100000000E-03 0.  1.
         11   -1    0    0    0    0 -0.00000000000E+00 -0.00000000000E+00 -0.45593999997E+02  0.45594000000E+02  0.51100000000E-03 0. -1.
    9900012    2    1    2    0    0  0.29203173303E+02 -0.66210529284E+01  0.31415905939E+02  0.47787276287E+02  0.20000023905E+02 0.  0.
         12    1    1    2    0    0 -0.29203173303E+02  0.66210529284E+01 -0.31415905939E+02  0.43400723713E+02  0.00000000000E+00 0. -1.
         11    1    3    3    0    0  0.47673079458E+01 -0.50020309581E+01  0.77148344585E+01  0.10356940173E+02  0.51100000000E-03 0. -1.
        -11    1    3    3    0    0  0.22417599446E+02  0.10566970678E+01  0.25212245514E+02  0.33753854561E+02  0.51100000000E-03 0.  1.
        -12    1    3    3    0    0  0.20182659106E+01 -0.26757190381E+01 -0.15111740334E+01  0.36764815539E+01  0.00000000000E+00 0.  1.
</event>
<event>
 7    1  0.2455451E-009  0.4778727E+02  0.7816164E-02  0.1312668E+00
        -11   -1    0    0    0    0  0.00000000000E+00  0.00000000000E+00  0.45593999997E+02  0.45594000000E+02  0.51100000000E-03 0. -1.
         11   -1    0    0    0    0 -0.00000000000E+00 -0.00000000000E+00 -0.45593999997E+02  0.45594000000E+02  0.51100000000E-03 0.  1.
    9900012    2    1    2    0    0 -0.23215983152E+02  0.32300191274E+02 -0.17359119925E+02  0.47787271036E+02  0.19999999962E+02 0.  0.
         12    1    1    2    0    0  0.23215983152E+02 -0.32300191274E+02  0.17359119925E+02  0.43400728964E+02  0.00000000000E+00 0. -1.
         11    1    3    3    0    0 -0.56192536522E+01  0.20538207861E+02 -0.95819805218E+01  0.23349696888E+02  0.51100000000E-03 0. -1.
        -11    1    3    3    0    0 -0.11770036723E+01  0.33818476773E+01 -0.44389115033E+01  0.57031716573E+01  0.51100000000E-03 0.  1.
         12    1    3    3    0    0 -0.16419725828E+02  0.83801357351E+01 -0.33382278996E+01  0.18734402491E+02  0.00000000000E+00 0. -1.
</event>
<event>
 7    1  0.2455451E-009  0.4778727E+02  0.7816164E-02  0.1312668E+00
        -11   -1    0    0    0    0  0.00000000000E+00  0.00000000000E+00  0.45593999997E+02  0.45594000000E+02  0.51100000000E-03 0.  1.
         11   -1    0    0    0    0 -0.00000000000E+00 -0.00000000000E+00 -0.45593999997E+02  0.45594000000E+02  0.51100000000E-03 0. -1.
    9900012    2    1    2    0    0  0.39840932167E+01  0.43158187562E+02 -0.22629897955E+01  0.47787271029E+02  0.19999999930E+02 0.  0.
         12    1    1    2    0    0 -0.39840932167E+01 -0.43158187562E+02  0.22629897955E+01  0.43400728971E+02  0.00000000000E+00 0. -1.
         11    1    3    3    0    0  0.81330772125E+01  0.22853226269E+02 -0.84300247341E+01  0.25680385767E+02  0.51100000000E-03 0. -1.
        -11    1    3    3    0    0 -0.41413358766E+01  0.11663083601E+02  0.20907245359E+01  0.12551864853E+02  0.51100000000E-03 0.  1.
         12    1    3    3    0    0 -0.76481191349E-02  0.86418776913E+01  0.40763104028E+01  0.95550204095E+01  0.00000000000E+00 0. -1.
</event>
<event>
 7    1  0.2455451E-009  0.4778728E+02  0.7816164E-02  0.1312668E+00
        -11   -1    0    0    0    0  0.00000000000E+00  0.00000000000E+00  0.45593999997E+02  0.45594000000E+02  0.51100000000E-03 0.  1.
         11   -1    0    0    0    0 -0.00000000000E+00 -0.00000000000E+00 -0.45593999997E+02  0.45594000000E+02  0.51100000000E-03 0. -1.
    9900012    2    1    2    0    0 -0.43059922063E+01 -0.24422693369E+02  0.35617590621E+02  0.47787282472E+02  0.20000052105E+02 0.  0.
         12    1    1    2    0    0  0.43059922063E+01  0.24422693369E+02 -0.35617590621E+02  0.43400717528E+02  0.00000000000E+00 0. -1.
         11    1    3    3    0    0 -0.77484356875E+01 -0.26076814226E+02  0.28406481333E+02  0.39331497273E+02  0.51100000000E-03 0.  1.
        -11    1    3    3    0    0  0.35558592031E+01  0.18321450044E+01  0.59023998765E+01  0.71301623090E+01  0.51100000000E-03 0. -1.
        -12    1    3    3    0    0 -0.11341572187E+00 -0.17802414721E+00  0.13087094115E+01  0.13256228901E+01  0.00000000000E+00 0.  1.
</event>
<event>
 7    1  0.2455451E-009  0.4778727E+02  0.7816164E-02  0.1312668E+00
        -11   -1    0    0    0    0  0.00000000000E+00  0.00000000000E+00  0.45593999997E+02  0.45594000000E+02  0.51100000000E-03 0. -1.
         11   -1    0    0    0    0 -0.00000000000E+00 -0.00000000000E+00 -0.45593999997E+02  0.45594000000E+02  0.51100000000E-03 0.  1.
    9900012    2    1    2    0    0 -0.40745109815E+02 -0.11713977324E+02 -0.92866593673E+01  0.47787270964E+02  0.19999999635E+02 0.  0.
         12    1    1    2    0    0  0.40745109815E+02  0.11713977324E+02  0.92866593673E+01  0.43400729036E+02  0.00000000000E+00 0. -1.
         11    1    3    3    0    0 -0.19507973244E+02 -0.14088180030E+02 -0.32757585022E+01  0.24285148356E+02  0.51100000000E-03 0. -1.
        -11    1    3    3    0    0 -0.60528566217E+01 -0.22268935293E+01 -0.37919087389E+01  0.74816241699E+01  0.51100000000E-03 0.  1.
         12    1    3    3    0    0 -0.15184279949E+02  0.46010962352E+01 -0.22189921262E+01  0.16020498438E+02  0.00000000000E+00 0. -1.
</event>
<event>
 7    1  0.2455451E-009  0.4778729E+02  0.7816164E-02  0.1312668E+00
        -11   -1    0    0    0    0  0.00000000000E+00  0.00000000000E+00  0.45593999997E+02  0.45594000000E+02  0.51100000000E-03 0.  1.
         11   -1    0    0    0    0 -0.00000000000E+00 -0.00000000000E+00 -0.45593999997E+02  0.45594000000E+02  0.51100000000E-03 0. -1.
    9900012    2    1    2    0    0  0.81535552935E+01 -0.42578963661E+02  0.20427698994E+01  0.47787291259E+02  0.20000092166E+02 0.  0.
         12    1    1    2    0    0 -0.81535552935E+01  0.42578963661E+02 -0.20427698994E+01  0.43400708741E+02  0.00000000000E+00 0. -1.
         11    1    3    3    0    0 -0.22594272206E+01 -0.93933273415E+01  0.77301110648E+01  0.12373125201E+02  0.51100000000E-03 0. -1.
        -11    1    3    3    0    0  0.89545981098E+01 -0.26557923229E+02 -0.33014279426E+01  0.28220693476E+02  0.51100000000E-03 0.  1.
         12    1    3    3    0    0  0.14583844043E+01 -0.66277130905E+01 -0.23859132228E+01  0.71934725820E+01  0.00000000000E+00 0. -1.
</event>
<event>
 7    1  0.2455451E-009  0.4778727E+02  0.7816164E-02  0.1312668E+00
        -11   -1    0    0    0    0  0.00000000000E+00  0.00000000000E+00  0.45593999997E+02  0.45594000000E+02  0.51100000000E-03 0. -1.
         11   -1    0    0    0    0 -0.00000000000E+00 -0.00000000000E+00 -0.45593999997E+02  0.45594000000E+02  0.51100000000E-03 0.  1.
    9900012    2    1    2    0    0 -0.43332276758E+02 -0.22798505935E+01 -0.86002010121E+00  0.47787267722E+02  0.19999984850E+02 0.  0.
         12    1    1    2    0    0  0.43332276758E+02  0.22798505935E+01  0.86002010121E+00  0.43400732278E+02  0.00000000000E+00 0. -1.
         11    1    3    3    0    0 -0.48898939901E+01  0.36380146529E+01  0.29599127701E+01  0.67754924335E+01  0.51100000000E-03 0. -1.
        -11    1    3    3    0    0 -0.33049366113E+02 -0.31619501912E+01 -0.73466275431E+01  0.34003403741E+02  0.51100000000E-03 0.  1.
        -12    1    3    3    0    0 -0.53930166549E+01 -0.27559150551E+01  0.35266946718E+01  0.70083715469E+01  0.00000000000E+00 0.  1.
</event>
<event>
 7    1  0.2455451E-009  0.4778727E+02  0.7816164E-02  0.1312668E+00
        -11   -1    0    0    0    0  0.00000000000E+00  0.00000000000E+00  0.45593999997E+02  0.45594000000E+02  0.51100000000E-03 0.  1.
         11   -1    0    0    0    0 -0.00000000000E+00 -0.00000000000E+00 -0.45593999997E+02  0.45594000000E+02  0.51100000000E-03 0. -1.
    9900012    2    1    2    0    0 -0.17964458683E+02  0.19691225542E+02  0.34251385105E+02  0.47787268200E+02  0.19999987033E+02 0.  0.
         12    1    1    2    0    0  0.17964458683E+02 -0.19691225542E+02 -0.34251385105E+02  0.43400731800E+02  0.00000000000E+00 0. -1.
         11    1    3    3    0    0 -0.94339524907E+01  0.10761182044E+02  0.52421968131E+01  0.15240837453E+02  0.51100000000E-03 0. -1.
        -11    1    3    3    0    0 -0.31956894891E+01 -0.43595219196E+00  0.11863450210E+02  0.12294061037E+02  0.51100000000E-03 0.  1.
         12    1    3    3    0    0 -0.53348167034E+01  0.93659956896E+01  0.17145738082E+02  0.20252369710E+02  0.00000000000E+00 0. -1.
</event>
<event>
 7    1  0.2455451E-009  0.4778727E+02  0.7816164E-02  0.1312668E+00
        -11   -1    0    0    0    0  0.00000000000E+00  0.00000000000E+00  0.45593999997E+02  0.45594000000E+02  0.51100000000E-03 0. -1.
         11   -1    0    0    0    0 -0.00000000000E+00 -0.00000000000E+00 -0.45593999997E+02  0.45594000000E+02  0.51100000000E-03 0.  1.
    9900012    2    1    2    0    0 -0.21711124333E+02  0.31920671292E+02 -0.19832326113E+02  0.47787270345E+02  0.19999996811E+02 0.  0.
         12    1    1    2    0    0  0.21711124333E+02 -0.31920671292E+02  0.19832326113E+02  0.43400729655E+02  0.00000000000E+00 0. -1.
         11    1    3    3    0    0 -0.78518361927E+01  0.21351163290E+02 -0.18887369415E+02  0.29567824220E+02  0.51100000000E-03 0. -1.
        -11    1    3    3    0    0 -0.44701757868E+01  0.77656673030E+00  0.55095770605E+00  0.45704575380E+01  0.51100000000E-03 0.  1.
        -12    1    3    3    0    0 -0.93891123539E+01  0.97929412717E+01 -0.14959144039E+01  0.13648988587E+02  0.00000000000E+00 0.  1.
</event>
<event>
 7    1  0.2455451E-009  0.4778728E+02  0.7816164E-02  0.1312668E+00
        -11   -1    0    0    0    0  0.00000000000E+00  0.00000000000E+00  0.45593999997E+02  0.45594000000E+02  0.51100000000E-03 0.  1.
         11   -1    0    0    0    0 -0.00000000000E+00 -0.00000000000E+00 -0.45593999997E+02  0.45594000000E+02  0.51100000000E-03 0. -1.
    9900012    2    1    2    0    0  0.41859803252E+02  0.21300727245E+01  0.11262440205E+02  0.47787275381E+02  0.20000019770E+02 0.  0.
         12    1    1    2    0    0 -0.41859803252E+02 -0.21300727245E+01 -0.11262440205E+02  0.43400724619E+02  0.00000000000E+00 0. -1.
         11    1    3    3    0    0  0.13853756071E+02  0.86515294911E+01  0.48998201917E+01  0.17052382765E+02  0.51100000000E-03 0. -1.
        -11    1    3    3    0    0  0.20787310966E+02 -0.69944354274E+01  0.79494279343E+01  0.23328691110E+02  0.51100000000E-03 0.  1.
        -12    1    3    3    0    0  0.72187362157E+01  0.47297866086E+00 -0.15868079211E+01  0.74062015057E+01  0.00000000000E+00 0.  1.
</event>
<event>
 7    1  0.2455451E-009  0.4778727E+02  0.7816164E-02  0.1312668E+00
        -11   -1    0    0    0    0  0.00000000000E+00  0.00000000000E+00  0.45593999997E+02  0.45594000000E+02  0.51100000000E-03 0.  1.
         11   -1    0    0    0    0 -0.00000000000E+00 -0.00000000000E+00 -0.45593999997E+02  0.45594000000E+02  0.51100000000E-03 0. -1.
    9900012    2    1    2    0    0  0.33419694057E+02  0.21075794507E+02 -0.17959919051E+02  0.47787265475E+02  0.19999974607E+02 0.  0.
         12    1    1    2    0    0 -0.33419694057E+02 -0.21075794507E+02  0.17959919051E+02  0.43400734525E+02  0.00000000000E+00 0. -1.
         11    1    3    3    0    0  0.12688175000E+01  0.26318698343E+01 -0.12689962631E+01  0.31854337930E+01  0.51100000000E-03 0. -1.
        -11    1    3    3    0    0  0.18827127717E+02  0.19086879831E+02 -0.16050503673E+02  0.31247214086E+02  0.51100000000E-03 0.  1.
        -12    1    3    3    0    0  0.13323748840E+02 -0.64295515797E+00 -0.64041911511E+00  0.13354617596E+02  0.00000000000E+00 0.  1.
</event>
<event>
 7    1  0.2455451E-009  0.4778727E+02  0.7816164E-02  0.1312668E+00
        -11   -1    0    0    0    0  0.00000000000E+00  0.00000000000E+00  0.45593999997E+02  0.45594000000E+02  0.51100000000E-03 0.  1.
         11   -1    0    0    0    0 -0.00000000000E+00 -0.00000000000E+00 -0.45593999997E+02  0.45594000000E+02  0.51100000000E-03 0. -1.
    9900012    2    1    2    0    0  0.38832096598E+02  0.11066842968E+02  0.15912782342E+02  0.47787269806E+02  0.19999994355E+02 0.  0.
         12    1    1    2    0    0 -0.38832096598E+02 -0.11066842968E+02 -0.15912782342E+02  0.43400730194E+02  0.00000000000E+00 0. -1.
         11    1    3    3    0    0  0.18433048916E+01  0.42993121885E+01  0.27319239188E+01  0.54171271701E+01  0.51100000000E-03 0. -1.
        -11    1    3    3    0    0  0.36916638304E+02  0.72298743341E+01  0.14995158186E+02  0.40496469424E+02  0.51100000000E-03 0.  1.
        -12    1    3    3    0    0  0.72153402336E-01 -0.46234355451E+00 -0.18142997627E+01  0.18736732119E+01  0.00000000000E+00 0.  1.
</event>
<event>
 7    1  0.2455451E-009  0.4778727E+02  0.7816164E-02  0.1312668E+00
        -11   -1    0    0    0    0  0.00000000000E+00  0.00000000000E+00  0.45593999997E+02  0.45594000000E+02  0.51100000000E-03 0.  1.
         11   -1    0    0    0    0 -0.00000000000E+00 -0.00000000000E+00 -0.45593999997E+02  0.45594000000E+02  0.51100000000E-03 0. -1.
    9900012    2    1    2    0    0  0.85437332890E+01 -0.72872981136E+01  0.41922823701E+02  0.47787271442E+02  0.20000001813E+02 0.  0.
         12    1    1    2    0    0 -0.85437332890E+01  0.72872981136E+01 -0.41922823701E+02  0.43400728558E+02  0.00000000000E+00 0. -1.
         11    1    3    3    0    0 -0.37140412590E+01 -0.77231815804E+01  0.81860771751E+01  0.11851307775E+02  0.51100000000E-03 0. -1.
        -11    1    3    3    0    0  0.49320753160E+01  0.61228267544E+00  0.11665698252E+02  0.12680251298E+02  0.51100000000E-03 0.  1.
         12    1    3    3    0    0  0.73256992320E+01 -0.17639920864E+00  0.22071048273E+02  0.23255712369E+02  0.00000000000E+00 0. -1.
</event>
<event>
 7    1  0.2455451E-009  0.4778727E+02  0.7816164E-02  0.1312668E+00
        -11   -1    0    0    0    0  0.00000000000E+00  0.00000000000E+00  0.45593999997E+02  0.45594000000E+02  0.51100000000E-03 0.  1.
         11   -1    0    0    0    0 -0.00000000000E+00 -0.00000000000E+00 -0.45593999997E+02  0.45594000000E+02  0.51100000000E-03 0. -1.
    9900012    2    1    2    0    0  0.14202794237E+02  0.24575596347E+01  0.40937318726E+02  0.47787273877E+02  0.20000012916E+02 0.  0.
         12    1    1    2    0    0 -0.14202794237E+02 -0.24575596347E+01 -0.40937318726E+02  0.43400726123E+02  0.00000000000E+00 0. -1.
         11    1    3    3    0    0  0.51391608809E+01 -0.52027506525E+01  0.61140527808E+01  0.95321157452E+01  0.51100000000E-03 0. -1.
        -11    1    3    3    0    0  0.10171756071E+02  0.92348449720E+01  0.28381948858E+02  0.31532237543E+02  0.51100000000E-03 0.  1.
         12    1    3    3    0    0 -0.11081227152E+01 -0.15745346848E+01  0.64413170873E+01  0.67229205889E+01  0.00000000000E+00 0. -1.
</event>
<event>
 7    1  0.2455451E-009  0.4778728E+02  0.7816164E-02  0.1312668E+00
        -11   -1    0    0    0    0  0.00000000000E+00  0.00000000000E+00  0.45593999997E+02  0.45594000000E+02  0.51100000000E-03 0.  1.
         11   -1    0    0    0    0 -0.00000000000E+00 -0.00000000000E+00 -0.45593999997E+02  0.45594000000E+02  0.51100000000E-03 0. -1.
    9900012    2    1    2    0    0  0.20090210900E+01  0.20960600229E+02  0.37950493823E+02  0.47787275246E+02  0.20000019158E+02 0.  0.
         12    1    1    2    0    0 -0.20090210900E+01 -0.20960600229E+02 -0.37950493823E+02  0.43400724754E+02  0.00000000000E+00 0. -1.
         11    1    3    3    0    0  0.31973792604E+01 -0.19834175153E+01  0.97243260960E+00  0.38862327023E+01  0.51100000000E-03 0. -1.
        -11    1    3    3    0    0 -0.19416296649E+00  0.16137616524E+01  0.64129881387E+01  0.66157647371E+01  0.51100000000E-03 0.  1.
         12    1    3    3    0    0 -0.99419520390E+00  0.21330256092E+02  0.30565073075E+02  0.37285277807E+02  0.00000000000E+00 0. -1.
</event>
<event>
 7    1  0.2455451E-009  0.4778728E+02  0.7816164E-02  0.1312668E+00
        -11   -1    0    0    0    0  0.00000000000E+00  0.00000000000E+00  0.45593999997E+02  0.45594000000E+02  0.51100000000E-03 0. -1.
         11   -1    0    0    0    0 -0.00000000000E+00 -0.00000000000E+00 -0.45593999997E+02  0.45594000000E+02  0.51100000000E-03 0.  1.
    9900012    2    1    2    0    0 -0.23761691943E+02 -0.27322020536E+02 -0.23927216001E+02  0.47787280239E+02  0.20000041923E+02 0.  0.
         12    1    1    2    0    0  0.23761691943E+02  0.27322020536E+02  0.23927216001E+02  0.43400719761E+02  0.00000000000E+00 0. -1.
         11    1    3    3    0    0 -0.64252197286E+01 -0.93326252354E+01 -0.48802289383E+01  0.12336854425E+02  0.51100000000E-03 0. -1.
        -11    1    3    3    0    0 -0.15686335061E+02 -0.20653583879E+02 -0.13901919132E+02  0.29426093701E+02  0.51100000000E-03 0.  1.
        -12    1    3    3    0    0 -0.16501371528E+01  0.26641885778E+01 -0.51450679306E+01  0.60243321134E+01  0.00000000000E+00 0.  1.
</event>
<event>
 7    1  0.2455451E-009  0.4778727E+02  0.7816164E-02  0.1312668E+00
        -11   -1    0    0    0    0  0.00000000000E+00  0.00000000000E+00  0.45593999997E+02  0.45594000000E+02  0.51100000000E-03 0. -1.
         11   -1    0    0    0    0 -0.00000000000E+00 -0.00000000000E+00 -0.45593999997E+02  0.45594000000E+02  0.51100000000E-03 0.  1.
    9900012    2    1    2    0    0 -0.28503530914E+02  0.18618149117E+02 -0.26917214195E+02  0.47787272228E+02  0.20000005395E+02 0.  0.
         12    1    1    2    0    0  0.28503530914E+02 -0.18618149117E+02  0.26917214195E+02  0.43400727772E+02  0.00000000000E+00 0. -1.
         11    1    3    3    0    0 -0.12900485117E+02  0.13713953561E+01 -0.89948227711E+01  0.15786389024E+02  0.51100000000E-03 0. -1.
        -11    1    3    3    0    0 -0.15860568459E+02  0.10006644731E+02 -0.15598204109E+02  0.24392509963E+02  0.51100000000E-03 0.  1.
         12    1    3    3    0    0  0.25752266147E+00  0.72401090305E+01 -0.23241873154E+01  0.76083732408E+01  0.00000000000E+00 0. -1.
</event>
<event>
 7    1  0.2455451E-009  0.4778727E+02  0.7816164E-02  0.1312668E+00
        -11   -1    0    0    0    0  0.00000000000E+00  0.00000000000E+00  0.45593999997E+02  0.45594000000E+02  0.51100000000E-03 0. -1.
         11   -1    0    0    0    0 -0.00000000000E+00 -0.00000000000E+00 -0.45593999997E+02  0.45594000000E+02  0.51100000000E-03 0.  1.
    9900012    2    1    2    0    0  0.30687318418E+02  0.16368540699E+02 -0.25961175561E+02  0.47787271057E+02  0.20000000056E+02 0.  0.
         12    1    1    2    0    0 -0.30687318418E+02 -0.16368540699E+02  0.25961175561E+02  0.43400728943E+02  0.00000000000E+00 0. -1.
         11    1    3    3    0    0  0.69421590806E+01  0.36409366014E+01 -0.63623759475E+00  0.78647816610E+01  0.51100000000E-03 0. -1.
        -11    1    3    3    0    0  0.74387146186E+01 -0.30812041719E+01 -0.52638184863E+01  0.96195675393E+01  0.51100000000E-03 0.  1.
        -12    1    3    3    0    0  0.16306444719E+02  0.15808808269E+02 -0.20061119480E+02  0.30302921857E+02  0.00000000000E+00 0.  1.
</event>
<event>
 7    1 -0.1138475E-008  0.4778725E+02  0.7816164E-02  0.1312668E+00
        -11   -1    0    0    0    0  0.00000000000E+00  0.00000000000E+00  0.45593999997E+02  0.45594000000E+02  0.51100000000E-03 0.  1.
         11   -1    0    0    0    0 -0.00000000000E+00 -0.00000000000E+00 -0.45593999997E+02  0.45594000000E+02  0.51100000000E-03 0. -1.
    9900012    2    1    2    0    0  0.10043880144E+02 -0.15653152041E+01  0.42193542253E+02  0.47787254063E+02  0.19999922575E+02 0.  0.
         12    1    1    2    0    0 -0.10043880144E+02  0.15653152041E+01 -0.42193542253E+02  0.43400745937E+02  0.00000000000E+00 0. -1.
         11    1    3    3    0    0  0.76266960239E+00 -0.46079445752E+01  0.47514900153E+01  0.66626928308E+01  0.51100000000E-03 0. -1.
        -11    1    3    3    0    0  0.12349437083E+02  0.19416077450E+01  0.21653914330E+02  0.25003408627E+02  0.51100000000E-03 0.  1.
        -12    1    3    3    0    0 -0.30682265411E+01  0.11010216261E+01  0.15788137907E+02  0.16121152605E+02  0.00000000000E+00 0.  1.
</event>
<event>
 7    1  0.2455451E-009  0.4778727E+02  0.7816164E-02  0.1312668E+00
        -11   -1    0    0    0    0  0.00000000000E+00  0.00000000000E+00  0.45593999997E+02  0.45594000000E+02  0.51100000000E-03 0.  1.
         11   -1    0    0    0    0 -0.00000000000E+00 -0.00000000000E+00 -0.45593999997E+02  0.45594000000E+02  0.51100000000E-03 0. -1.
    9900012    2    1    2    0    0 -0.34327714726E+02 -0.81386273840E+01  0.25278329701E+02  0.47787271821E+02  0.20000003540E+02 0.  0.
         12    1    1    2    0    0  0.34327714726E+02  0.81386273840E+01 -0.25278329701E+02  0.43400728179E+02  0.00000000000E+00 0. -1.
         11    1    3    3    0    0 -0.85138684275E+01  0.22979978451E+01  0.12909326624E+02  0.15633856333E+02  0.51100000000E-03 0. -1.
        -11    1    3    3    0    0 -0.15218011199E+02 -0.10279200226E+02  0.11155664478E+02  0.21487174601E+02  0.51100000000E-03 0.  1.
        -12    1    3    3    0    0 -0.10595835099E+02 -0.15742500313E+00  0.12133385985E+01  0.10666240886E+02  0.00000000000E+00 0.  1.
</event>
<event>
 7    1  0.2455451E-009  0.4778727E+02  0.7816164E-02  0.1312668E+00
        -11   -1    0    0    0    0  0.00000000000E+00  0.00000000000E+00  0.45593999997E+02  0.45594000000E+02  0.51100000000E-03 0.  1.
         11   -1    0    0    0    0 -0.00000000000E+00 -0.00000000000E+00 -0.45593999997E+02  0.45594000000E+02  0.51100000000E-03 0. -1.
    9900012    2    1    2    0    0 -0.36113450157E+02  0.92646864747E+01  0.22217276119E+02  0.47787273556E+02  0.20000011452E+02 0.  0.
         12    1    1    2    0    0  0.36113450157E+02 -0.92646864747E+01 -0.22217276119E+02  0.43400726444E+02  0.00000000000E+00 0. -1.
         11    1    3    3    0    0 -0.96040663068E+01  0.37130900998E+01  0.19533728467E+00  0.10298703056E+02  0.51100000000E-03 0. -1.
        -11    1    3    3    0    0 -0.21833495868E+02  0.67195111936E+01  0.23166261884E+02  0.32535043606E+02  0.51100000000E-03 0.  1.
        -12    1    3    3    0    0 -0.46758879822E+01 -0.11679148187E+01 -0.11443230506E+01  0.49535268940E+01  0.00000000000E+00 0.  1.
</event>
<event>
 7    1  0.2455451E-009  0.4778728E+02  0.7816164E-02  0.1312668E+00
        -11   -1    0    0    0    0  0.00000000000E+00  0.00000000000E+00  0.45593999997E+02  0.45594000000E+02  0.51100000000E-03 0.  1.
         11   -1    0    0    0    0 -0.00000000000E+00 -0.00000000000E+00 -0.45593999997E+02  0.45594000000E+02  0.51100000000E-03 0. -1.
    9900012    2    1    2    0    0 -0.14260062893E+02  0.23934002354E+02  0.33278176763E+02  0.47787275224E+02  0.20000019057E+02 0.  0.
         12    1    1    2    0    0  0.14260062893E+02 -0.23934002354E+02 -0.33278176763E+02  0.43400724776E+02  0.00000000000E+00 0. -1.
         11    1    3    3    0    0  0.46927214437E+01  0.17302688905E+01  0.39937137992E+01  0.64004074209E+01  0.51100000000E-03 0. -1.
        -11    1    3    3    0    0 -0.14658796973E+02  0.16092111047E+02  0.21368345421E+02  0.30503156443E+02  0.51100000000E-03 0.  1.
         12    1    3    3    0    0 -0.42939873633E+01  0.61116224170E+01  0.79161175422E+01  0.10883711361E+02  0.00000000000E+00 0. -1.
</event>
<event>
 7    1  0.2455451E-009  0.4778727E+02  0.7816164E-02  0.1312668E+00
        -11   -1    0    0    0    0  0.00000000000E+00  0.00000000000E+00  0.45593999997E+02  0.45594000000E+02  0.51100000000E-03 0. -1.
         11   -1    0    0    0    0 -0.00000000000E+00 -0.00000000000E+00 -0.45593999997E+02  0.45594000000E+02  0.51100000000E-03 0.  1.
    9900012    2    1    2    0    0  0.30856790552E+02 -0.29133031244E+02 -0.90966031854E+01  0.47787271640E+02  0.20000002718E+02 0.  0.
         12    1    1    2    0    0 -0.30856790552E+02  0.29133031244E+02  0.90966031854E+01  0.43400728360E+02  0.00000000000E+00 0. -1.
         11    1    3    3    0    0  0.12448259054E+02 -0.63807211733E+01  0.40390200857E+01  0.14559754108E+02  0.51100000000E-03 0. -1.
        -11    1    3    3    0    0  0.69441969920E+01 -0.13750393993E+02 -0.98539092886E+01  0.18286463172E+02  0.51100000000E-03 0.  1.
        -12    1    3    3    0    0  0.11464334507E+02 -0.90019160772E+01 -0.32817139825E+01  0.14941054361E+02  0.00000000000E+00 0.  1.
</event>
<event>
 7    1  0.2455451E-009  0.4778728E+02  0.7816164E-02  0.1312668E+00
        -11   -1    0    0    0    0  0.00000000000E+00  0.00000000000E+00  0.45593999997E+02  0.45594000000E+02  0.51100000000E-03 0.  1.
         11   -1    0    0    0    0 -0.00000000000E+00 -0.00000000000E+00 -0.45593999997E+02  0.45594000000E+02  0.51100000000E-03 0. -1.
    9900012    2    1    2    0    0  0.42406256718E+02  0.87074897131E+01 -0.30840229227E+01  0.47787283608E+02  0.20000057284E+02 0.  0.
         12    1    1    2    0    0 -0.42406256718E+02 -0.87074897131E+01  0.30840229227E+01  0.43400716392E+02  0.00000000000E+00 0. -1.
         11    1    3    3    0    0  0.34139488932E+02  0.48583710461E+01 -0.39061648861E+01  0.34703985335E+02  0.51100000000E-03 0. -1.
        -11    1    3    3    0    0  0.87347028869E+01  0.53881933030E+01  0.26985082753E+01  0.10611767467E+02  0.51100000000E-03 0.  1.
         12    1    3    3    0    0 -0.46793510060E+00 -0.15390746360E+01 -0.18763663119E+01  0.24715308070E+01  0.00000000000E+00 0. -1.
</event>
<event>
 7    1  0.2455451E-009  0.4778728E+02  0.7816164E-02  0.1312668E+00
        -11   -1    0    0    0    0  0.00000000000E+00  0.00000000000E+00  0.45593999997E+02  0.45594000000E+02  0.51100000000E-03 0.  1.
         11   -1    0    0    0    0 -0.00000000000E+00 -0.00000000000E+00 -0.45593999997E+02  0.45594000000E+02  0.51100000000E-03 0. -1.
    9900012    2    1    2    0    0 -0.27291769781E+02 -0.80567143519E+01  0.32769979960E+02  0.47787275000E+02  0.20000018036E+02 0.  0.
         12    1    1    2    0    0  0.27291769781E+02  0.80567143519E+01 -0.32769979960E+02  0.43400725000E+02  0.00000000000E+00 0. -1.
         11    1    3    3    0    0 -0.41178863069E+01 -0.54635322434E+01  0.16814593027E+02  0.18153173583E+02  0.51100000000E-03 0. -1.
        -11    1    3    3    0    0 -0.19748272518E+02 -0.48117725525E+01  0.15429741192E+02  0.25519097477E+02  0.51100000000E-03 0.  1.
        -12    1    3    3    0    0 -0.34256109564E+01  0.22185904440E+01  0.52564574093E+00  0.41150039402E+01  0.00000000000E+00 0.  1.
</event>
<event>
 7    1  0.2455451E-009  0.4778727E+02  0.7816164E-02  0.1312668E+00
        -11   -1    0    0    0    0  0.00000000000E+00  0.00000000000E+00  0.45593999997E+02  0.45594000000E+02  0.51100000000E-03 0. -1.
         11   -1    0    0    0    0 -0.00000000000E+00 -0.00000000000E+00 -0.45593999997E+02  0.45594000000E+02  0.51100000000E-03 0.  1.
    9900012    2    1    2    0    0  0.21661466106E+02  0.20153870071E+02 -0.31752567449E+02  0.47787272675E+02  0.20000007436E+02 0.  0.
         12    1    1    2    0    0 -0.21661466106E+02 -0.20153870071E+02  0.31752567449E+02  0.43400727325E+02  0.00000000000E+00 0. -1.
         11    1    3    3    0    0 -0.31949215446E+01  0.20006214562E+01 -0.13435165773E+01  0.40018804257E+01  0.51100000000E-03 0. -1.
        -11    1    3    3    0    0  0.18512331423E+02  0.11059056756E+02 -0.17640868513E+02  0.27860534690E+02  0.51100000000E-03 0.  1.
         12    1    3    3    0    0  0.63440562279E+01  0.70941918585E+01 -0.12768182359E+02  0.15924857560E+02  0.00000000000E+00 0. -1.
</event>
<event>
 7    1  0.2455451E-009  0.4778727E+02  0.7816164E-02  0.1312668E+00
        -11   -1    0    0    0    0  0.00000000000E+00  0.00000000000E+00  0.45593999997E+02  0.45594000000E+02  0.51100000000E-03 0.  1.
         11   -1    0    0    0    0 -0.00000000000E+00 -0.00000000000E+00 -0.45593999997E+02  0.45594000000E+02  0.51100000000E-03 0. -1.
    9900012    2    1    2    0    0 -0.33068158210E+02  0.10022169160E+02  0.26261691354E+02  0.47787269651E+02  0.19999993648E+02 0.  0.
         12    1    1    2    0    0  0.33068158210E+02 -0.10022169160E+02 -0.26261691354E+02  0.43400730349E+02  0.00000000000E+00 0. -1.
         11    1    3    3    0    0 -0.12384281680E+01  0.41578723251E+01 -0.79475750745E+00  0.44105834485E+01  0.51100000000E-03 0. -1.
        -11    1    3    3    0    0 -0.18595111650E+02  0.12139144864E+01  0.21060522136E+02  0.28121119440E+02  0.51100000000E-03 0.  1.
        -12    1    3    3    0    0 -0.13234618392E+02  0.46503823482E+01  0.59959267251E+01  0.15255566763E+02  0.00000000000E+00 0.  1.
</event>
<event>
 7    1  0.2455451E-009  0.4778727E+02  0.7816164E-02  0.1312668E+00
        -11   -1    0    0    0    0  0.00000000000E+00  0.00000000000E+00  0.45593999997E+02  0.45594000000E+02  0.51100000000E-03 0.  1.
         11   -1    0    0    0    0 -0.00000000000E+00 -0.00000000000E+00 -0.45593999997E+02  0.45594000000E+02  0.51100000000E-03 0. -1.
    9900012    2    1    2    0    0 -0.20874934377E+02 -0.13831573302E+02  0.35447819683E+02  0.47787271602E+02  0.20000002540E+02 0.  0.
         12    1    1    2    0    0  0.20874934377E+02  0.13831573302E+02 -0.35447819683E+02  0.43400728398E+02  0.00000000000E+00 0. -1.
         11    1    3    3    0    0 -0.37886078189E+00  0.12484490097E+01 -0.14113393777E+01  0.19219884292E+01  0.51100000000E-03 0. -1.
        -11    1    3    3    0    0 -0.11645299420E+02 -0.54007965300E+01  0.25354066029E+02  0.28418484586E+02  0.51100000000E-03 0.  1.
        -12    1    3    3    0    0 -0.88507741745E+01 -0.96792257817E+01  0.11505093032E+02  0.17446798586E+02  0.00000000000E+00 0.  1.
</event>
<event>
 7    1  0.2699435E-009  0.4778727E+02  0.7816164E-02  0.1312668E+00
        -11   -1    0    0    0    0  0.00000000000E+00  0.00000000000E+00  0.45593999997E+02  0.45594000000E+02  0.51100000000E-03 0.  1.
         11   -1    0    0    0    0 -0.00000000000E+00 -0.00000000000E+00 -0.45593999997E+02  0.45594000000E+02  0.51100000000E-03 0. -1.
    9900012    2    1    2    0    0  0.26826235933E+02  0.30350989148E+02  0.15581843865E+02  0.47787270342E+02  0.19999996799E+02 0.  0.
         12    1    1    2    0    0 -0.26826235933E+02 -0.30350989148E+02 -0.15581843865E+02  0.43400729658E+02  0.00000000000E+00 0. -1.
         11    1    3    3    0    0  0.48060758490E+01  0.53819310130E+01 -0.44200460204E+01  0.84616992135E+01  0.51100000000E-03 0. -1.
        -11    1    3    3    0    0  0.15464805071E+02  0.19407117763E+02  0.11933746694E+02  0.27535626490E+02  0.51100000000E-03 0.  1.
         12    1    3    3    0    0  0.65553550130E+01  0.55619403718E+01  0.80681431912E+01  0.11789944639E+02  0.00000000000E+00 0. -1.
</event>
<event>
 7    1  0.2455451E-009  0.4778728E+02  0.7816164E-02  0.1312668E+00
        -11   -1    0    0    0    0  0.00000000000E+00  0.00000000000E+00  0.45593999997E+02  0.45594000000E+02  0.51100000000E-03 0.  1.
         11   -1    0    0    0    0 -0.00000000000E+00 -0.00000000000E+00 -0.45593999997E+02  0.45594000000E+02  0.51100000000E-03 0. -1.
    9900012    2    1    2    0    0  0.17368587530E+02  0.22089193452E+02  0.33076003311E+02  0.47787282320E+02  0.20000051409E+02 0.  0.
         12    1    1    2    0    0 -0.17368587530E+02 -0.22089193452E+02 -0.33076003311E+02  0.43400717680E+02  0.00000000000E+00 0. -1.
         11    1    3    3    0    0  0.76466796524E+01  0.19709012216E+02  0.20391882137E+02  0.29372533592E+02  0.51100000000E-03 0. -1.
        -11    1    3    3    0    0  0.41531090743E+01  0.55276821151E+01  0.72898768086E+01  0.10047183122E+02  0.51100000000E-03 0.  1.
         12    1    3    3    0    0  0.55687988036E+01 -0.31475008793E+01  0.53942443649E+01  0.83675656059E+01  0.00000000000E+00 0. -1.
</event>
<event>
 7    1  0.2455451E-009  0.4778727E+02  0.7816164E-02  0.1312668E+00
        -11   -1    0    0    0    0  0.00000000000E+00  0.00000000000E+00  0.45593999997E+02  0.45594000000E+02  0.51100000000E-03 0.  1.
         11   -1    0    0    0    0 -0.00000000000E+00 -0.00000000000E+00 -0.45593999997E+02  0.45594000000E+02  0.51100000000E-03 0. -1.
    9900012    2    1    2    0    0 -0.31526010184E+02 -0.39282642852E+01  0.29568618659E+02  0.47787265124E+02  0.19999973005E+02 0.  0.
         12    1    1    2    0    0  0.31526010184E+02  0.39282642852E+01 -0.29568618659E+02  0.43400734876E+02  0.00000000000E+00 0. -1.
         11    1    3    3    0    0 -0.29202538571E+01  0.40605670695E+01 -0.94813548552E+00  0.50906825354E+01  0.51100000000E-03 0. -1.
        -11    1    3    3    0    0 -0.28254350706E+02 -0.75585372369E+01  0.29521022661E+02  0.41556354486E+02  0.51100000000E-03 0.  1.
        -12    1    3    3    0    0 -0.35140562117E+00 -0.43029411777E+00  0.99573148290E+00  0.11402281019E+01  0.00000000000E+00 0.  1.
</event>
<event>
 7    1  0.2455451E-009  0.4778726E+02  0.7816164E-02  0.1312668E+00
        -11   -1    0    0    0    0  0.00000000000E+00  0.00000000000E+00  0.45593999997E+02  0.45594000000E+02  0.51100000000E-03 0.  1.
         11   -1    0    0    0    0 -0.00000000000E+00 -0.00000000000E+00 -0.45593999997E+02  0.45594000000E+02  0.51100000000E-03 0. -1.
    9900012    2    1    2    0    0 -0.22648564884E+02  0.17675654467E+02  0.32530565426E+02  0.47787263381E+02  0.19999965057E+02 0.  0.
         12    1    1    2    0    0  0.22648564884E+02 -0.17675654467E+02 -0.32530565426E+02  0.43400736619E+02  0.00000000000E+00 0. -1.
         11    1    3    3    0    0 -0.47386060448E+01  0.22544991339E+01 -0.18194883205E+01  0.55540698233E+01  0.51100000000E-03 0. -1.
        -11    1    3    3    0    0 -0.17317901657E+02  0.15262539478E+02  0.30065407722E+02  0.37904928055E+02  0.51100000000E-03 0.  1.
         12    1    3    3    0    0 -0.59205718239E+00  0.15861585508E+00  0.42846460250E+01  0.43282655020E+01  0.00000000000E+00 0. -1.
</event>
<event>
 7    1  0.2455451E-009  0.4778727E+02  0.7816164E-02  0.1312668E+00
        -11   -1    0    0    0    0  0.00000000000E+00  0.00000000000E+00  0.45593999997E+02  0.45594000000E+02  0.51100000000E-03 0.  1.
         11   -1    0    0    0    0 -0.00000000000E+00 -0.00000000000E+00 -0.45593999997E+02  0.45594000000E+02  0.51100000000E-03 0. -1.
    9900012    2    1    2    0    0  0.30655937612E+02  0.25324930617E+02  0.17392079464E+02  0.47787273627E+02  0.20000011774E+02 0.  0.
         12    1    1    2    0    0 -0.30655937612E+02 -0.25324930617E+02 -0.17392079464E+02  0.43400726373E+02  0.00000000000E+00 0. -1.
         11    1    3    3    0    0  0.18264035304E+00  0.62457641021E+00 -0.28197125832E+01  0.28938266195E+01  0.51100000000E-03 0. -1.
        -11    1    3    3    0    0  0.77972421501E+01  0.39124886125E+01  0.78643568568E+01  0.11745325084E+02  0.51100000000E-03 0.  1.
         12    1    3    3    0    0  0.22676055109E+02  0.20787865594E+02  0.12347435191E+02  0.33148121924E+02  0.00000000000E+00 0. -1.
</event>
<event>
 7    1  0.2455451E-009  0.4778727E+02  0.7816164E-02  0.1312668E+00
        -11   -1    0    0    0    0  0.00000000000E+00  0.00000000000E+00  0.45593999997E+02  0.45594000000E+02  0.51100000000E-03 0. -1.
         11   -1    0    0    0    0 -0.00000000000E+00 -0.00000000000E+00 -0.45593999997E+02  0.45594000000E+02  0.51100000000E-03 0.  1.
    9900012    2    1    2    0    0  0.20306686112E+02 -0.36391420979E+02  0.12121333905E+02  0.47787265474E+02  0.19999974603E+02 0.  0.
         12    1    1    2    0    0 -0.20306686112E+02  0.36391420979E+02 -0.12121333905E+02  0.43400734526E+02  0.00000000000E+00 0. -1.
         11    1    3    3    0    0 -0.10551482544E+01 -0.45493211102E+00 -0.41949597929E+00  0.12232245101E+01  0.51100000000E-03 0. -1.
        -11    1    3    3    0    0  0.21532781257E+02 -0.37082844274E+02  0.13607920516E+02  0.44988593100E+02  0.51100000000E-03 0.  1.
        -12    1    3    3    0    0 -0.17094689057E+00  0.11463554056E+01 -0.10670906319E+01  0.15754478640E+01  0.00000000000E+00 0.  1.
</event>
<event>
 7    1  0.2455451E-009  0.4778727E+02  0.7816164E-02  0.1312668E+00
        -11   -1    0    0    0    0  0.00000000000E+00  0.00000000000E+00  0.45593999997E+02  0.45594000000E+02  0.51100000000E-03 0.  1.
         11   -1    0    0    0    0 -0.00000000000E+00 -0.00000000000E+00 -0.45593999997E+02  0.45594000000E+02  0.51100000000E-03 0. -1.
    9900012    2    1    2    0    0  0.19201659264E+02 -0.13960473958E+02  0.36332146704E+02  0.47787269180E+02  0.19999991498E+02 0.  0.
         12    1    1    2    0    0 -0.19201659264E+02  0.13960473958E+02 -0.36332146704E+02  0.43400730820E+02  0.00000000000E+00 0. -1.
         11    1    3    3    0    0 -0.26308452363E+01 -0.41029652477E+01  0.29303226731E+01  0.56870433189E+01  0.51100000000E-03 0. -1.
        -11    1    3    3    0    0  0.11580044963E+02 -0.71960277629E+01  0.11758488067E+02  0.18003952310E+02  0.51100000000E-03 0.  1.
         12    1    3    3    0    0  0.10252459538E+02 -0.26614809475E+01  0.21643335963E+02  0.24096273551E+02  0.00000000000E+00 0. -1.
</event>
<event>
 7    1  0.2455451E-009  0.4778727E+02  0.7816164E-02  0.1312668E+00
        -11   -1    0    0    0    0  0.00000000000E+00  0.00000000000E+00  0.45593999997E+02  0.45594000000E+02  0.51100000000E-03 0.  1.
         11   -1    0    0    0    0 -0.00000000000E+00 -0.00000000000E+00 -0.45593999997E+02  0.45594000000E+02  0.51100000000E-03 0. -1.
    9900012    2    1    2    0    0 -0.22977339071E+02  0.20717494413E+02  0.30437648058E+02  0.47787272992E+02  0.20000008879E+02 0.  0.
         12    1    1    2    0    0  0.22977339071E+02 -0.20717494413E+02 -0.30437648058E+02  0.43400727008E+02  0.00000000000E+00 0. -1.
         11    1    3    3    0    0 -0.71070867868E+01  0.44847764557E+01  0.30633566369E+01  0.89447222762E+01  0.51100000000E-03 0. -1.
        -11    1    3    3    0    0  0.24355337931E+00 -0.22661518543E+01  0.28748133348E+00  0.22972610330E+01  0.51100000000E-03 0.  1.
        -12    1    3    3    0    0 -0.16113805664E+02  0.18498869812E+02  0.27086810087E+02  0.36545289683E+02  0.00000000000E+00 0.  1.
</event>
<event>
 7    1  0.2455451E-009  0.4778727E+02  0.7816164E-02  0.1312668E+00
        -11   -1    0    0    0    0  0.00000000000E+00  0.00000000000E+00  0.45593999997E+02  0.45594000000E+02  0.51100000000E-03 0.  1.
         11   -1    0    0    0    0 -0.00000000000E+00 -0.00000000000E+00 -0.45593999997E+02  0.45594000000E+02  0.51100000000E-03 0. -1.
    9900012    2    1    2    0    0 -0.30575754627E+02  0.22651615406E+01  0.30718327319E+02  0.47787270040E+02  0.19999995418E+02 0.  0.
         12    1    1    2    0    0  0.30575754627E+02 -0.22651615406E+01 -0.30718327319E+02  0.43400729960E+02  0.00000000000E+00 0. -1.
         11    1    3    3    0    0 -0.11417875847E+02 -0.64829617938E+01  0.19192141444E+02  0.23253708864E+02  0.51100000000E-03 0. -1.
        -11    1    3    3    0    0 -0.15675025167E+02  0.89245782467E+01  0.86078058827E+01  0.19986216081E+02  0.51100000000E-03 0.  1.
        -12    1    3    3    0    0 -0.34828536132E+01 -0.17645491228E+00  0.29183799928E+01  0.45473450946E+01  0.00000000000E+00 0.  1.
</event>
<event>
 7    1  0.2455451E-009  0.4778728E+02  0.7816164E-02  0.1312668E+00
        -11   -1    0    0    0    0  0.00000000000E+00  0.00000000000E+00  0.45593999997E+02  0.45594000000E+02  0.51100000000E-03 0.  1.
         11   -1    0    0    0    0 -0.00000000000E+00 -0.00000000000E+00 -0.45593999997E+02  0.45594000000E+02  0.51100000000E-03 0. -1.
    9900012    2    1    2    0    0  0.15150457709E+02 -0.16758811229E+02  0.37057093236E+02  0.47787282475E+02  0.20000052117E+02 0.  0.
         12    1    1    2    0    0 -0.15150457709E+02  0.16758811229E+02 -0.37057093236E+02  0.43400717525E+02  0.00000000000E+00 0. -1.
         11    1    3    3    0    0  0.22858196025E+01  0.13905043395E+01  0.71722321935E+00  0.27699969279E+01  0.51100000000E-03 0. -1.
        -11    1    3    3    0    0  0.83215276218E+01 -0.13736843166E+02  0.35049321734E+02  0.38553905592E+02  0.51100000000E-03 0.  1.
        -12    1    3    3    0    0  0.45431104848E+01 -0.44124724021E+01  0.12905482827E+01  0.64633799553E+01  0.00000000000E+00 0.  1.
</event>
<event>
 7    1  0.2455451E-009  0.4778727E+02  0.7816164E-02  0.1312668E+00
        -11   -1    0    0    0    0  0.00000000000E+00  0.00000000000E+00  0.45593999997E+02  0.45594000000E+02  0.51100000000E-03 0.  1.
         11   -1    0    0    0    0 -0.00000000000E+00 -0.00000000000E+00 -0.45593999997E+02  0.45594000000E+02  0.51100000000E-03 0. -1.
    9900012    2    1    2    0    0 -0.29708429342E+02 -0.12788990174E+02  0.28939144035E+02  0.47787273034E+02  0.20000009073E+02 0.  0.
         12    1    1    2    0    0  0.29708429342E+02  0.12788990174E+02 -0.28939144035E+02  0.43400726966E+02  0.00000000000E+00 0. -1.
         11    1    3    3    0    0 -0.10242522942E+02 -0.68121580557E+01  0.17660561655E+01  0.12427136767E+02  0.51100000000E-03 0.  1.
        -11    1    3    3    0    0 -0.49679511262E+01  0.21710492731E+01  0.10465020941E+02  0.11786036522E+02  0.51100000000E-03 0. -1.
         12    1    3    3    0    0 -0.14497955274E+02 -0.81478813914E+01  0.16708066929E+02  0.23574099746E+02  0.00000000000E+00 0. -1.
</event>
<event>
 7    1  0.2455451E-009  0.4778728E+02  0.7816164E-02  0.1312668E+00
        -11   -1    0    0    0    0  0.00000000000E+00  0.00000000000E+00  0.45593999997E+02  0.45594000000E+02  0.51100000000E-03 0.  1.
         11   -1    0    0    0    0 -0.00000000000E+00 -0.00000000000E+00 -0.45593999997E+02  0.45594000000E+02  0.51100000000E-03 0. -1.
    9900012    2    1    2    0    0  0.41092721445E+02  0.10270360162E+02  0.94620707471E+01  0.47787276084E+02  0.20000022979E+02 0.  0.
         12    1    1    2    0    0 -0.41092721445E+02 -0.10270360162E+02 -0.94620707471E+01  0.43400723916E+02  0.00000000000E+00 0. -1.
         11    1    3    3    0    0  0.39969585639E+01  0.70812742108E+01  0.46620379793E+01  0.93730849026E+01  0.51100000000E-03 0. -1.
        -11    1    3    3    0    0  0.36131278037E+02  0.30425701761E+01  0.61208596931E+01  0.36772155356E+02  0.51100000000E-03 0.  1.
         12    1    3    3    0    0  0.96448484350E+00  0.14651577470E+00 -0.13208269253E+01  0.16420358255E+01  0.00000000000E+00 0. -1.
</event>
<event>
 7    1  0.2455451E-009  0.4778727E+02  0.7816164E-02  0.1312668E+00
        -11   -1    0    0    0    0  0.00000000000E+00  0.00000000000E+00  0.45593999997E+02  0.45594000000E+02  0.51100000000E-03 0.  1.
         11   -1    0    0    0    0 -0.00000000000E+00 -0.00000000000E+00 -0.45593999997E+02  0.45594000000E+02  0.51100000000E-03 0. -1.
    9900012    2    1    2    0    0  0.31249413907E+02  0.25865080173E+02  0.15430339972E+02  0.47787266901E+02  0.19999981108E+02 0.  0.
         12    1    1    2    0    0 -0.31249413907E+02 -0.25865080173E+02 -0.15430339972E+02  0.43400733099E+02  0.00000000000E+00 0. -1.
         11    1    3    3    0    0  0.80340384586E-01  0.76513516174E+00 -0.11142054996E+01  0.13540090656E+01  0.51100000000E-03 0. -1.
        -11    1    3    3    0    0  0.13850702250E+02  0.21280774199E+01  0.18678827074E+01  0.14137172716E+02  0.51100000000E-03 0.  1.
        -12    1    3    3    0    0  0.17318371272E+02  0.22971867591E+02  0.14676662764E+02  0.32296085120E+02  0.00000000000E+00 0.  1.
</event>
<event>
 7    1  0.2455451E-009  0.4778727E+02  0.7816164E-02  0.1312668E+00
        -11   -1    0    0    0    0  0.00000000000E+00  0.00000000000E+00  0.45593999997E+02  0.45594000000E+02  0.51100000000E-03 0.  1.
         11   -1    0    0    0    0 -0.00000000000E+00 -0.00000000000E+00 -0.45593999997E+02  0.45594000000E+02  0.51100000000E-03 0. -1.
    9900012    2    1    2    0    0  0.10874136568E+02 -0.89841121028E+01  0.41044637797E+02  0.47787269496E+02  0.19999992941E+02 0.  0.
         12    1    1    2    0    0 -0.10874136568E+02  0.89841121028E+01 -0.41044637797E+02  0.43400730504E+02  0.00000000000E+00 0. -1.
         11    1    3    3    0    0 -0.45556024172E+01  0.47546466324E+00  0.63783244597E+01  0.78525539288E+01  0.51100000000E-03 0. -1.
        -11    1    3    3    0    0  0.11662336426E+02 -0.29441087885E+01  0.24416676859E+02  0.27218596154E+02  0.51100000000E-03 0.  1.
        -12    1    3    3    0    0  0.37674025592E+01 -0.65154679775E+01  0.10249636478E+02  0.12716119414E+02  0.00000000000E+00 0.  1.
</event>
<event>
 7    1  0.2455451E-009  0.4778727E+02  0.7816164E-02  0.1312668E+00
        -11   -1    0    0    0    0  0.00000000000E+00  0.00000000000E+00  0.45593999997E+02  0.45594000000E+02  0.51100000000E-03 0.  1.
         11   -1    0    0    0    0 -0.00000000000E+00 -0.00000000000E+00 -0.45593999997E+02  0.45594000000E+02  0.51100000000E-03 0. -1.
    9900012    2    1    2    0    0  0.36444584157E+01  0.43041586373E+02  0.42146229761E+01  0.47787270957E+02  0.19999999601E+02 0.  0.
         12    1    1    2    0    0 -0.36444584157E+01 -0.43041586373E+02 -0.42146229761E+01  0.43400729043E+02  0.00000000000E+00 0. -1.
         11    1    3    3    0    0 -0.34974838544E+01  0.15440569560E+02  0.17929865038E+01  0.15932933895E+02  0.51100000000E-03 0. -1.
        -11    1    3    3    0    0  0.78194313041E+01  0.21114298805E+02 -0.38077006100E+01  0.22835404620E+02  0.51100000000E-03 0.  1.
        -12    1    3    3    0    0 -0.67748903396E+00  0.64867180079E+01  0.62293370824E+01  0.90189324419E+01  0.00000000000E+00 0.  1.
</event>
<event>
 7    1  0.2455451E-009  0.4778731E+02  0.7816164E-02  0.1312668E+00
        -11   -1    0    0    0    0  0.00000000000E+00  0.00000000000E+00  0.45593999997E+02  0.45594000000E+02  0.51100000000E-03 0.  1.
         11   -1    0    0    0    0 -0.00000000000E+00 -0.00000000000E+00 -0.45593999997E+02  0.45594000000E+02  0.51100000000E-03 0. -1.
    9900012    2    1    2    0    0  0.24800154223E+01 -0.27762941474E+02  0.33266931406E+02  0.47787307367E+02  0.20000165611E+02 0.  0.
         12    1    1    2    0    0 -0.24800154223E+01  0.27762941474E+02 -0.33266931406E+02  0.43400692633E+02  0.00000000000E+00 0. -1.
         11    1    3    3    0    0 -0.12210111042E+01 -0.26298996064E+01  0.21269520728E+01  0.35959929696E+01  0.51100000000E-03 0. -1.
        -11    1    3    3    0    0 -0.72161873660E+01 -0.13898423799E+02  0.14598514136E+02  0.21409254061E+02  0.51100000000E-03 0.  1.
        -12    1    3    3    0    0  0.10917213892E+02 -0.11234618069E+02  0.16541465198E+02  0.22782060337E+02  0.00000000000E+00 0.  1.
</event>
<event>
 7    1  0.2455451E-009  0.4778727E+02  0.7816164E-02  0.1312668E+00
        -11   -1    0    0    0    0  0.00000000000E+00  0.00000000000E+00  0.45593999997E+02  0.45594000000E+02  0.51100000000E-03 0.  1.
         11   -1    0    0    0    0 -0.00000000000E+00 -0.00000000000E+00 -0.45593999997E+02  0.45594000000E+02  0.51100000000E-03 0. -1.
    9900012    2    1    2    0    0 -0.28667346808E+01  0.18819037390E+02  0.39003190299E+02  0.47787272016E+02  0.20000004430E+02 0.  0.
         12    1    1    2    0    0  0.28667346808E+01 -0.18819037390E+02 -0.39003190299E+02  0.43400727984E+02  0.00000000000E+00 0. -1.
         11    1    3    3    0    0 -0.90724912866E+01  0.86041613451E+01  0.18839411492E+02  0.22611172376E+02  0.51100000000E-03 0. -1.
        -11    1    3    3    0    0  0.68754311378E+00 -0.10688988469E+01  0.64715163170E+01  0.65951333558E+01  0.51100000000E-03 0.  1.
         12    1    3    3    0    0  0.55182134920E+01  0.11283774892E+02  0.13692262490E+02  0.18580966284E+02  0.00000000000E+00 0. -1.
</event>
<event>
 7    1  0.2455451E-009  0.4778726E+02  0.7816164E-02  0.1312668E+00
        -11   -1    0    0    0    0  0.00000000000E+00  0.00000000000E+00  0.45593999997E+02  0.45594000000E+02  0.51100000000E-03 0.  1.
         11   -1    0    0    0    0 -0.00000000000E+00 -0.00000000000E+00 -0.45593999997E+02  0.45594000000E+02  0.51100000000E-03 0. -1.
    9900012    2    1    2    0    0  0.16312792296E+01  0.26809597261E+02  0.34091186418E+02  0.47787256128E+02  0.19999931992E+02 0.  0.
         12    1    1    2    0    0 -0.16312792296E+01 -0.26809597261E+02 -0.34091186418E+02  0.43400743872E+02  0.00000000000E+00 0. -1.
         11    1    3    3    0    0 -0.37601635584E+01  0.22694058411E+01  0.20024326117E+01  0.48268798911E+01  0.51100000000E-03 0. -1.
        -11    1    3    3    0    0  0.78420525462E+01  0.11361763805E+02  0.97237156627E+01  0.16886033029E+02  0.51100000000E-03 0.  1.
        -12    1    3    3    0    0 -0.24506097582E+01  0.13178427614E+02  0.22365038144E+02  0.26074343208E+02  0.00000000000E+00 0.  1.
</event>
<event>
 7    1  0.2455451E-009  0.4778727E+02  0.7816164E-02  0.1312668E+00
        -11   -1    0    0    0    0  0.00000000000E+00  0.00000000000E+00  0.45593999997E+02  0.45594000000E+02  0.51100000000E-03 0. -1.
         11   -1    0    0    0    0 -0.00000000000E+00 -0.00000000000E+00 -0.45593999997E+02  0.45594000000E+02  0.51100000000E-03 0.  1.
    9900012    2    1    2    0    0  0.38892383645E+02  0.15912234264E+02  0.10853857974E+02  0.47787274917E+02  0.20000017656E+02 0.  0.
         12    1    1    2    0    0 -0.38892383645E+02 -0.15912234264E+02 -0.10853857974E+02  0.43400725083E+02  0.00000000000E+00 0. -1.
         11    1    3    3    0    0  0.19502321899E+02  0.86480494731E+01  0.14052693239E+02  0.25546183799E+02  0.51100000000E-03 0. -1.
        -11    1    3    3    0    0  0.11013792051E+02  0.69453781821E+01  0.60756942884E+00  0.13034992686E+02  0.51100000000E-03 0.  1.
         12    1    3    3    0    0  0.83762696943E+01  0.31880660882E+00 -0.38064046947E+01  0.92060984323E+01  0.00000000000E+00 0. -1.
</event>
<event>
 7    1  0.2455451E-009  0.4778727E+02  0.7816164E-02  0.1312668E+00
        -11   -1    0    0    0    0  0.00000000000E+00  0.00000000000E+00  0.45593999997E+02  0.45594000000E+02  0.51100000000E-03 0. -1.
         11   -1    0    0    0    0 -0.00000000000E+00 -0.00000000000E+00 -0.45593999997E+02  0.45594000000E+02  0.51100000000E-03 0.  1.
    9900012    2    1    2    0    0 -0.29655139897E+02 -0.63249727545E+01 -0.31051417848E+02  0.47787272436E+02  0.20000006347E+02 0.  0.
         12    1    1    2    0    0  0.29655139897E+02  0.63249727545E+01  0.31051417848E+02  0.43400727564E+02  0.00000000000E+00 0. -1.
         11    1    3    3    0    0 -0.12462337291E+02 -0.36010422063E+01 -0.46094192549E+01  0.13766775289E+02  0.51100000000E-03 0. -1.
        -11    1    3    3    0    0 -0.60279953719E+01 -0.37657066937E+01 -0.19684652734E+02  0.20928517115E+02  0.51100000000E-03 0.  1.
        -12    1    3    3    0    0 -0.11164807235E+02  0.10417761456E+01 -0.67573458592E+01  0.13091980033E+02  0.00000000000E+00 0.  1.
</event>
<event>
 7    1  0.2455451E-009  0.4778727E+02  0.7816164E-02  0.1312668E+00
        -11   -1    0    0    0    0  0.00000000000E+00  0.00000000000E+00  0.45593999997E+02  0.45594000000E+02  0.51100000000E-03 0. -1.
         11   -1    0    0    0    0 -0.00000000000E+00 -0.00000000000E+00 -0.45593999997E+02  0.45594000000E+02  0.51100000000E-03 0.  1.
    9900012    2    1    2    0    0  0.33836331161E+02  0.14475874767E+02 -0.23003802166E+02  0.47787272232E+02  0.20000005413E+02 0.  0.
         12    1    1    2    0    0 -0.33836331161E+02 -0.14475874767E+02  0.23003802166E+02  0.43400727768E+02  0.00000000000E+00 0. -1.
         11    1    3    3    0    0  0.14654794042E+02  0.12029470881E+02 -0.60333004904E+01  0.19896529174E+02  0.51100000000E-03 0. -1.
        -11    1    3    3    0    0  0.20573464109E+02  0.20665548851E+01 -0.15611049878E+02  0.25908356820E+02  0.51100000000E-03 0.  1.
         12    1    3    3    0    0 -0.13919269897E+01  0.37984900063E+00 -0.13594517976E+01  0.19823862383E+01  0.00000000000E+00 0. -1.
</event>
<event>
 7    1  0.2455451E-009  0.4778726E+02  0.7816164E-02  0.1312668E+00
        -11   -1    0    0    0    0  0.00000000000E+00  0.00000000000E+00  0.45593999997E+02  0.45594000000E+02  0.51100000000E-03 0.  1.
         11   -1    0    0    0    0 -0.00000000000E+00 -0.00000000000E+00 -0.45593999997E+02  0.45594000000E+02  0.51100000000E-03 0. -1.
    9900012    2    1    2    0    0 -0.61187346138E+01  0.26714568287E+02  0.33652895285E+02  0.47787257690E+02  0.19999939110E+02 0.  0.
         12    1    1    2    0    0  0.61187346138E+01 -0.26714568287E+02 -0.33652895285E+02  0.43400742310E+02  0.00000000000E+00 0. -1.
         11    1    3    3    0    0  0.59402534823E+00 -0.11260363627E+01  0.54275902339E+01  0.55749044846E+01  0.51100000000E-03 0. -1.
        -11    1    3    3    0    0 -0.99390158710E+01  0.19512154838E+02  0.23449897804E+02  0.32084356472E+02  0.51100000000E-03 0.  1.
        -12    1    3    3    0    0  0.32262559090E+01  0.83284498118E+01  0.47754072468E+01  0.10127996733E+02  0.00000000000E+00 0.  1.
</event>
<event>
 7    1  0.2455451E-009  0.4778727E+02  0.7816164E-02  0.1312668E+00
        -11   -1    0    0    0    0  0.00000000000E+00  0.00000000000E+00  0.45593999997E+02  0.45594000000E+02  0.51100000000E-03 0. -1.
         11   -1    0    0    0    0 -0.00000000000E+00 -0.00000000000E+00 -0.45593999997E+02  0.45594000000E+02  0.51100000000E-03 0.  1.
    9900012    2    1    2    0    0 -0.33889023302E+01 -0.24735082990E+02 -0.35500906633E+02  0.47787270037E+02  0.19999995408E+02 0.  0.
         12    1    1    2    0    0  0.33889023302E+01  0.24735082990E+02  0.35500906633E+02  0.43400729963E+02  0.00000000000E+00 0. -1.
         11    1    3    3    0    0  0.54618066946E+01 -0.44766666835E+01 -0.49545692590E+01  0.86266815038E+01  0.51100000000E-03 0. -1.
        -11    1    3    3    0    0 -0.84972330320E+01 -0.10430047379E+02 -0.11390344744E+02  0.17627501558E+02  0.51100000000E-03 0.  1.
        -12    1    3    3    0    0 -0.35347599287E+00 -0.98283689276E+01 -0.19155992630E+02  0.21533086975E+02  0.00000000000E+00 0.  1.
</event>
<event>
 7    1  0.2455451E-009  0.4778727E+02  0.7816164E-02  0.1312668E+00
        -11   -1    0    0    0    0  0.00000000000E+00  0.00000000000E+00  0.45593999997E+02  0.45594000000E+02  0.51100000000E-03 0.  1.
         11   -1    0    0    0    0 -0.00000000000E+00 -0.00000000000E+00 -0.45593999997E+02  0.45594000000E+02  0.51100000000E-03 0. -1.
    9900012    2    1    2    0    0  0.39287182365E+02  0.17870851633E+02 -0.45577925164E+01  0.47787268337E+02  0.19999987655E+02 0.  0.
         12    1    1    2    0    0 -0.39287182365E+02 -0.17870851633E+02  0.45577925164E+01  0.43400731663E+02  0.00000000000E+00 0. -1.
         11    1    3    3    0    0  0.28654652705E+01 -0.14383069183E+01 -0.31003059730E+01  0.44599905151E+01  0.51100000000E-03 0. -1.
        -11    1    3    3    0    0  0.29859667097E+02  0.16779823106E+02  0.39189553854E+01  0.34474924136E+02  0.51100000000E-03 0.  1.
        -12    1    3    3    0    0  0.65620499972E+01  0.25293354458E+01 -0.53764419288E+01  0.88523536857E+01  0.00000000000E+00 0.  1.
</event>
<event>
 7    1  0.2455451E-009  0.4778727E+02  0.7816164E-02  0.1312668E+00
        -11   -1    0    0    0    0  0.00000000000E+00  0.00000000000E+00  0.45593999997E+02  0.45594000000E+02  0.51100000000E-03 0. -1.
         11   -1    0    0    0    0 -0.00000000000E+00 -0.00000000000E+00 -0.45593999997E+02  0.45594000000E+02  0.51100000000E-03 0.  1.
    9900012    2    1    2    0    0  0.92187421375E+00  0.41570455261E+02  0.12436665280E+02  0.47787271366E+02  0.20000001468E+02 0.  0.
         12    1    1    2    0    0 -0.92187421375E+00 -0.41570455261E+02 -0.12436665280E+02  0.43400728634E+02  0.00000000000E+00 0. -1.
         11    1    3    3    0    0  0.34698655331E+01  0.96718982429E+01  0.34506925657E+01  0.10839412433E+02  0.51100000000E-03 0.  1.
        -11    1    3    3    0    0  0.58966776718E+01  0.17544872759E+02  0.11557399041E+01  0.18545325629E+02  0.51100000000E-03 0. -1.
         12    1    3    3    0    0 -0.84446689912E+01  0.14353684259E+02  0.78302328106E+01  0.18402533305E+02  0.00000000000E+00 0. -1.
</event>
<event>
 7    1  0.2455451E-009  0.4778727E+02  0.7816164E-02  0.1312668E+00
        -11   -1    0    0    0    0  0.00000000000E+00  0.00000000000E+00  0.45593999997E+02  0.45594000000E+02  0.51100000000E-03 0.  1.
         11   -1    0    0    0    0 -0.00000000000E+00 -0.00000000000E+00 -0.45593999997E+02  0.45594000000E+02  0.51100000000E-03 0. -1.
    9900012    2    1    2    0    0 -0.35529280411E+02  0.24708519229E+02 -0.32837153281E+01  0.47787268723E+02  0.19999989417E+02 0.  0.
         12    1    1    2    0    0  0.35529280411E+02 -0.24708519229E+02  0.32837153281E+01  0.43400731277E+02  0.00000000000E+00 0. -1.
         11    1    3    3    0    0 -0.15539521602E+02  0.12174720196E+01  0.10053798793E+01  0.15619531321E+02  0.51100000000E-03 0. -1.
        -11    1    3    3    0    0 -0.80865237962E+01  0.40420781956E+01 -0.19246258290E+01  0.92430756834E+01  0.51100000000E-03 0.  1.
         12    1    3    3    0    0 -0.11903235013E+02  0.19448969014E+02 -0.23644693785E+01  0.22924661719E+02  0.00000000000E+00 0. -1.
</event>
<event>
 7    1  0.2455451E-009  0.4778727E+02  0.7816164E-02  0.1312668E+00
        -11   -1    0    0    0    0  0.00000000000E+00  0.00000000000E+00  0.45593999997E+02  0.45594000000E+02  0.51100000000E-03 0. -1.
         11   -1    0    0    0    0 -0.00000000000E+00 -0.00000000000E+00 -0.45593999997E+02  0.45594000000E+02  0.51100000000E-03 0.  1.
    9900012    2    1    2    0    0 -0.90266695979E+01  0.16296734567E+02 -0.39198965169E+02  0.47787271989E+02  0.20000004305E+02 0.  0.
         12    1    1    2    0    0  0.90266695979E+01 -0.16296734567E+02  0.39198965169E+02  0.43400728011E+02  0.00000000000E+00 0. -1.
         11    1    3    3    0    0 -0.44628812892E+01  0.41516457397E+01 -0.26708292358E+01  0.66548328917E+01  0.51100000000E-03 0. -1.
        -11    1    3    3    0    0 -0.14792969881E+01  0.30943127582E+01 -0.28331012133E+02  0.28537858010E+02  0.51100000000E-03 0.  1.
        -12    1    3    3    0    0 -0.30844913206E+01  0.90507760693E+01 -0.81971238002E+01  0.12594581087E+02  0.00000000000E+00 0.  1.
</event>
<event>
 7    1  0.2455451E-009  0.4778727E+02  0.7816164E-02  0.1312668E+00
        -11   -1    0    0    0    0  0.00000000000E+00  0.00000000000E+00  0.45593999997E+02  0.45594000000E+02  0.51100000000E-03 0. -1.
         11   -1    0    0    0    0 -0.00000000000E+00 -0.00000000000E+00 -0.45593999997E+02  0.45594000000E+02  0.51100000000E-03 0.  1.
    9900012    2    1    2    0    0  0.31143942815E+02 -0.25001964167E+02 -0.16987634657E+02  0.47787272846E+02  0.20000008213E+02 0.  0.
         12    1    1    2    0    0 -0.31143942815E+02  0.25001964167E+02  0.16987634657E+02  0.43400727154E+02  0.00000000000E+00 0. -1.
         11    1    3    3    0    0 -0.12615813861E+01 -0.29769429112E+01  0.14100698028E+01  0.35273323915E+01  0.51100000000E-03 0. -1.
        -11    1    3    3    0    0  0.20039932813E+02 -0.83887785418E+01 -0.82378577407E+01  0.23234302507E+02  0.51100000000E-03 0.  1.
        -12    1    3    3    0    0  0.12365591389E+02 -0.13636242714E+02 -0.10159846720E+02  0.21025637948E+02  0.00000000000E+00 0.  1.
</event>
<event>
 7    1  0.2455451E-009  0.4778727E+02  0.7816164E-02  0.1312668E+00
        -11   -1    0    0    0    0  0.00000000000E+00  0.00000000000E+00  0.45593999997E+02  0.45594000000E+02  0.51100000000E-03 0.  1.
         11   -1    0    0    0    0 -0.00000000000E+00 -0.00000000000E+00 -0.45593999997E+02  0.45594000000E+02  0.51100000000E-03 0. -1.
    9900012    2    1    2    0    0  0.43180411442E+02  0.29036393709E+01  0.32625444738E+01  0.47787271316E+02  0.20000001238E+02 0.  0.
         12    1    1    2    0    0 -0.43180411442E+02 -0.29036393709E+01 -0.32625444738E+01  0.43400728684E+02  0.00000000000E+00 0. -1.
         11    1    3    3    0    0  0.13227948356E+01  0.20000918102E+01  0.34633598813E+01  0.42124832766E+01  0.51100000000E-03 0. -1.
        -11    1    3    3    0    0  0.30730694544E+02 -0.47252387054E+01  0.33487255173E+00  0.31093658644E+02  0.51100000000E-03 0.  1.
        -12    1    3    3    0    0  0.11126922062E+02  0.56287862660E+01 -0.53568795924E+00  0.12481129396E+02  0.00000000000E+00 0.  1.
</event>
<event>
 7    1  0.2455451E-009  0.4778728E+02  0.7816164E-02  0.1312668E+00
        -11   -1    0    0    0    0  0.00000000000E+00  0.00000000000E+00  0.45593999997E+02  0.45594000000E+02  0.51100000000E-03 0.  1.
         11   -1    0    0    0    0 -0.00000000000E+00 -0.00000000000E+00 -0.45593999997E+02  0.45594000000E+02  0.51100000000E-03 0. -1.
    9900012    2    1    2    0    0  0.39151557784E+02 -0.11694466296E+00  0.18728714579E+02  0.47787275320E+02  0.20000019495E+02 0.  0.
         12    1    1    2    0    0 -0.39151557784E+02  0.11694466296E+00 -0.18728714579E+02  0.43400724680E+02  0.00000000000E+00 0. -1.
         11    1    3    3    0    0  0.15080931993E+02 -0.41185121105E+01 -0.83609813720E+00  0.15655532956E+02  0.51100000000E-03 0. -1.
        -11    1    3    3    0    0  0.16136259124E+01  0.23900475880E+01  0.31353376817E+01  0.42598660422E+01  0.51100000000E-03 0.  1.
         12    1    3    3    0    0  0.22456999878E+02  0.16115198595E+01  0.16429475035E+02  0.27871876322E+02  0.00000000000E+00 0. -1.
</event>
<event>
 7    1  0.2455451E-009  0.4778727E+02  0.7816164E-02  0.1312668E+00
        -11   -1    0    0    0    0  0.00000000000E+00  0.00000000000E+00  0.45593999997E+02  0.45594000000E+02  0.51100000000E-03 0.  1.
         11   -1    0    0    0    0 -0.00000000000E+00 -0.00000000000E+00 -0.45593999997E+02  0.45594000000E+02  0.51100000000E-03 0. -1.
    9900012    2    1    2    0    0 -0.44790539239E+01 -0.51014897400E+01  0.42866493747E+02  0.47787269501E+02  0.19999992964E+02 0.  0.
         12    1    1    2    0    0  0.44790539239E+01  0.51014897400E+01 -0.42866493747E+02  0.43400730499E+02  0.00000000000E+00 0. -1.
         11    1    3    3    0    0  0.49451567862E+01 -0.40180207755E+01  0.40160658484E+01  0.75317894124E+01  0.51100000000E-03 0. -1.
        -11    1    3    3    0    0 -0.43828605270E+01  0.78215859299E+00  0.10580713423E+02  0.11479230604E+02  0.51100000000E-03 0.  1.
         12    1    3    3    0    0 -0.50413501831E+01 -0.18656275575E+01  0.28269714476E+02  0.28776249485E+02  0.00000000000E+00 0. -1.
</event>
<event>
 7    1  0.2455451E-009  0.4778728E+02  0.7816164E-02  0.1312668E+00
        -11   -1    0    0    0    0  0.00000000000E+00  0.00000000000E+00  0.45593999997E+02  0.45594000000E+02  0.51100000000E-03 0. -1.
         11   -1    0    0    0    0 -0.00000000000E+00 -0.00000000000E+00 -0.45593999997E+02  0.45594000000E+02  0.51100000000E-03 0.  1.
    9900012    2    1    2    0    0  0.30305413153E+02  0.36083154071E+01  0.30857492419E+02  0.47787275988E+02  0.20000022538E+02 0.  0.
         12    1    1    2    0    0 -0.30305413153E+02 -0.36083154071E+01 -0.30857492419E+02  0.43400724012E+02  0.00000000000E+00 0. -1.
         11    1    3    3    0    0  0.10205934868E+02  0.29894395067E-01  0.72017881314E+01  0.12491106947E+02  0.51100000000E-03 0. -1.
        -11    1    3    3    0    0  0.21449880064E+02  0.76173101677E+00  0.23948137440E+02  0.32158838226E+02  0.51100000000E-03 0.  1.
        -12    1    3    3    0    0 -0.13504017796E+01  0.28166899952E+01 -0.29243315296E+00  0.31373308153E+01  0.00000000000E+00 0.  1.
</event>
<event>
 7    1  0.2455451E-009  0.4778724E+02  0.7816164E-02  0.1312668E+00
        -11   -1    0    0    0    0  0.00000000000E+00  0.00000000000E+00  0.45593999997E+02  0.45594000000E+02  0.51100000000E-03 0. -1.
         11   -1    0    0    0    0 -0.00000000000E+00 -0.00000000000E+00 -0.45593999997E+02  0.45594000000E+02  0.51100000000E-03 0.  1.
    9900012    2    1    2    0    0  0.24762364346E+01  0.36669601847E+02 -0.23083199527E+02  0.47787244857E+02  0.19999880603E+02 0.  0.
         12    1    1    2    0    0 -0.24762364346E+01 -0.36669601847E+02  0.23083199527E+02  0.43400755143E+02  0.00000000000E+00 0. -1.
         11    1    3    3    0    0 -0.20944724109E+01  0.20982884874E+01  0.25450304060E+01  0.39072764536E+01  0.51100000000E-03 0. -1.
        -11    1    3    3    0    0  0.34941660619E+00  0.17746878748E+02 -0.92159447163E+01  0.20000185862E+02  0.51100000000E-03 0.  1.
         12    1    3    3    0    0  0.42212922393E+01  0.16824434612E+02 -0.16412285217E+02  0.23879782542E+02  0.00000000000E+00 0. -1.
</event>
<event>
 7    1  0.2455451E-009  0.4778727E+02  0.7816164E-02  0.1312668E+00
        -11   -1    0    0    0    0  0.00000000000E+00  0.00000000000E+00  0.45593999997E+02  0.45594000000E+02  0.51100000000E-03 0. -1.
         11   -1    0    0    0    0 -0.00000000000E+00 -0.00000000000E+00 -0.45593999997E+02  0.45594000000E+02  0.51100000000E-03 0.  1.
    9900012    2    1    2    0    0 -0.17589877223E+02  0.36869287794E+02 -0.14658618975E+02  0.47787271050E+02  0.20000000023E+02 0.  0.
         12    1    1    2    0    0  0.17589877223E+02 -0.36869287794E+02  0.14658618975E+02  0.43400728950E+02  0.00000000000E+00 0. -1.
         11    1    3    3    0    0 -0.33967624575E+01  0.49377183366E+01 -0.10552875062E+01  0.60854490012E+01  0.51100000000E-03 0. -1.
        -11    1    3    3    0    0 -0.10913193306E+02  0.33137300966E+02 -0.92007132298E+01  0.36080903919E+02  0.51100000000E-03 0.  1.
        -12    1    3    3    0    0 -0.32799214600E+01 -0.12057315085E+01 -0.44026182391E+01  0.56209181291E+01  0.00000000000E+00 0.  1.
</event>
<event>
 7    1  0.2455451E-009  0.4778727E+02  0.7816164E-02  0.1312668E+00
        -11   -1    0    0    0    0  0.00000000000E+00  0.00000000000E+00  0.45593999997E+02  0.45594000000E+02  0.51100000000E-03 0. -1.
         11   -1    0    0    0    0 -0.00000000000E+00 -0.00000000000E+00 -0.45593999997E+02  0.45594000000E+02  0.51100000000E-03 0.  1.
    9900012    2    1    2    0    0  0.39203016059E+01  0.16826083768E+02 -0.39813789989E+02  0.47787265756E+02  0.19999975888E+02 0.  0.
         12    1    1    2    0    0 -0.39203016059E+01 -0.16826083768E+02  0.39813789989E+02  0.43400734244E+02  0.00000000000E+00 0. -1.
         11    1    3    3    0    0 -0.41549318089E+01  0.34662955596E+01 -0.24054330360E+02  0.24655414670E+02  0.51100000000E-03 0. -1.
        -11    1    3    3    0    0  0.24888081472E+01  0.98271740965E+01 -0.11174471360E+02  0.15087621653E+02  0.51100000000E-03 0.  1.
         12    1    3    3    0    0  0.55864252676E+01  0.35326141119E+01 -0.45849882692E+01  0.80442294325E+01  0.00000000000E+00 0. -1.
</event>
<event>
 7    1  0.2455451E-009  0.4778727E+02  0.7816164E-02  0.1312668E+00
        -11   -1    0    0    0    0  0.00000000000E+00  0.00000000000E+00  0.45593999997E+02  0.45594000000E+02  0.51100000000E-03 0.  1.
         11   -1    0    0    0    0 -0.00000000000E+00 -0.00000000000E+00 -0.45593999997E+02  0.45594000000E+02  0.51100000000E-03 0. -1.
    9900012    2    1    2    0    0  0.37169991750E+02  0.87579811121E+01  0.20623108009E+02  0.47787273004E+02  0.20000008932E+02 0.  0.
         12    1    1    2    0    0 -0.37169991750E+02 -0.87579811121E+01 -0.20623108009E+02  0.43400726996E+02  0.00000000000E+00 0. -1.
         11    1    3    3    0    0  0.20378539664E+02 -0.19949109833E+01  0.61704972315E+01  0.21385499410E+02  0.51100000000E-03 0. -1.
        -11    1    3    3    0    0  0.80830664371E+01 -0.10194724684E+00  0.65043748881E+01  0.10375608378E+02  0.51100000000E-03 0.  1.
         12    1    3    3    0    0  0.87083856488E+01  0.10854839342E+02  0.79482358891E+01  0.16026165215E+02  0.00000000000E+00 0. -1.
</event>
<event>
 7    1  0.2455451E-009  0.4778727E+02  0.7816164E-02  0.1312668E+00
        -11   -1    0    0    0    0  0.00000000000E+00  0.00000000000E+00  0.45593999997E+02  0.45594000000E+02  0.51100000000E-03 0.  1.
         11   -1    0    0    0    0 -0.00000000000E+00 -0.00000000000E+00 -0.45593999997E+02  0.45594000000E+02  0.51100000000E-03 0. -1.
    9900012    2    1    2    0    0 -0.42064906521E+02 -0.95532525158E+01  0.47856398873E+01  0.47787270244E+02  0.19999996351E+02 0.  0.
         12    1    1    2    0    0  0.42064906521E+02  0.95532525158E+01 -0.47856398873E+01  0.43400729756E+02  0.00000000000E+00 0. -1.
         11    1    3    3    0    0 -0.61416555255E+01  0.25325637208E+01 -0.47437971299E+01  0.81631748153E+01  0.51100000000E-03 0. -1.
        -11    1    3    3    0    0 -0.29710112670E+02 -0.99372272177E+01  0.52107884600E+01  0.31758331131E+02  0.51100000000E-03 0.  1.
         12    1    3    3    0    0 -0.62131383255E+01 -0.21485890188E+01  0.43186485571E+01  0.78657642975E+01  0.00000000000E+00 0. -1.
</event>
<event>
 7    1  0.2455451E-009  0.4778727E+02  0.7816164E-02  0.1312668E+00
        -11   -1    0    0    0    0  0.00000000000E+00  0.00000000000E+00  0.45593999997E+02  0.45594000000E+02  0.51100000000E-03 0. -1.
         11   -1    0    0    0    0 -0.00000000000E+00 -0.00000000000E+00 -0.45593999997E+02  0.45594000000E+02  0.51100000000E-03 0.  1.
    9900012    2    1    2    0    0  0.13812937801E+02 -0.27422792391E+02 -0.30672730061E+02  0.47787272326E+02  0.20000005844E+02 0.  0.
         12    1    1    2    0    0 -0.13812937801E+02  0.27422792391E+02  0.30672730061E+02  0.43400727674E+02  0.00000000000E+00 0. -1.
         11    1    3    3    0    0  0.15874098855E+01  0.14850532651E+01 -0.90277937497E+00  0.23537765837E+01  0.51100000000E-03 0. -1.
        -11    1    3    3    0    0  0.72095071952E+01 -0.24397147958E+02 -0.15873148070E+02  0.29985907563E+02  0.51100000000E-03 0.  1.
        -12    1    3    3    0    0  0.50160207207E+01 -0.45106976972E+01 -0.13896802617E+02  0.15447588179E+02  0.00000000000E+00 0.  1.
</event>
<event>
 7    1  0.2455451E-009  0.4778727E+02  0.7816164E-02  0.1312668E+00
        -11   -1    0    0    0    0  0.00000000000E+00  0.00000000000E+00  0.45593999997E+02  0.45594000000E+02  0.51100000000E-03 0.  1.
         11   -1    0    0    0    0 -0.00000000000E+00 -0.00000000000E+00 -0.45593999997E+02  0.45594000000E+02  0.51100000000E-03 0. -1.
    9900012    2    1    2    0    0 -0.28912463184E+02 -0.20119772304E+02  0.25355221109E+02  0.47787274172E+02  0.20000014261E+02 0.  0.
         12    1    1    2    0    0  0.28912463184E+02  0.20119772304E+02 -0.25355221109E+02  0.43400725828E+02  0.00000000000E+00 0. -1.
         11    1    3    3    0    0 -0.15624501252E+02 -0.73184586106E+01  0.20722969404E+02  0.26965280213E+02  0.51100000000E-03 0. -1.
        -11    1    3    3    0    0 -0.85816694252E+01 -0.64240994737E+01  0.66866361342E+01  0.12634286969E+02  0.51100000000E-03 0.  1.
         12    1    3    3    0    0 -0.47062925069E+01 -0.63772142194E+01 -0.20543844296E+01  0.81877069895E+01  0.00000000000E+00 0. -1.
</event>
<event>
 7    1  0.2455451E-009  0.4778727E+02  0.7816164E-02  0.1312668E+00
        -11   -1    0    0    0    0  0.00000000000E+00  0.00000000000E+00  0.45593999997E+02  0.45594000000E+02  0.51100000000E-03 0.  1.
         11   -1    0    0    0    0 -0.00000000000E+00 -0.00000000000E+00 -0.45593999997E+02  0.45594000000E+02  0.51100000000E-03 0. -1.
    9900012    2    1    2    0    0  0.37125212709E+02 -0.14422954617E+02 -0.17242971164E+02  0.47787273127E+02  0.20000009495E+02 0.  0.
         12    1    1    2    0    0 -0.37125212709E+02  0.14422954617E+02  0.17242971164E+02  0.43400726873E+02  0.00000000000E+00 0. -1.
         11    1    3    3    0    0  0.23873306221E+02  0.29224054945E-01 -0.13262909113E+02  0.27310078036E+02  0.51100000000E-03 0.  1.
        -11    1    3    3    0    0  0.61130952572E+01 -0.92622888076E+01 -0.92003063294E+00  0.11135815381E+02  0.51100000000E-03 0. -1.
        -12    1    3    3    0    0  0.71388112313E+01 -0.51898898639E+01 -0.30600314176E+01  0.93413797092E+01  0.00000000000E+00 0.  1.
</event>
<event>
 7    1  0.2455451E-009  0.4778727E+02  0.7816164E-02  0.1312668E+00
        -11   -1    0    0    0    0  0.00000000000E+00  0.00000000000E+00  0.45593999997E+02  0.45594000000E+02  0.51100000000E-03 0.  1.
         11   -1    0    0    0    0 -0.00000000000E+00 -0.00000000000E+00 -0.45593999997E+02  0.45594000000E+02  0.51100000000E-03 0. -1.
    9900012    2    1    2    0    0  0.43377566368E+02  0.90138026889E+00  0.10945296702E+01  0.47787265610E+02  0.19999975222E+02 0.  0.
         12    1    1    2    0    0 -0.43377566368E+02 -0.90138026889E+00 -0.10945296702E+01  0.43400734390E+02  0.00000000000E+00 0. -1.
         11    1    3    3    0    0 -0.10670329764E+01 -0.15637257673E+01 -0.12538597382E+01  0.22706743827E+01  0.51100000000E-03 0. -1.
        -11    1    3    3    0    0  0.31412442154E+02  0.54418912843E+01  0.36355273063E+01  0.32086956257E+02  0.51100000000E-03 0.  1.
         12    1    3    3    0    0  0.13032157191E+02 -0.29767852482E+01 -0.12871378979E+01  0.13429634970E+02  0.00000000000E+00 0. -1.
</event>
<event>
 7    1  0.2455451E-009  0.4778727E+02  0.7816164E-02  0.1312668E+00
        -11   -1    0    0    0    0  0.00000000000E+00  0.00000000000E+00  0.45593999997E+02  0.45594000000E+02  0.51100000000E-03 0. -1.
         11   -1    0    0    0    0 -0.00000000000E+00 -0.00000000000E+00 -0.45593999997E+02  0.45594000000E+02  0.51100000000E-03 0.  1.
    9900012    2    1    2    0    0  0.22105100159E+02  0.21302581128E+02 -0.30678782120E+02  0.47787273185E+02  0.20000009757E+02 0.  0.
         12    1    1    2    0    0 -0.22105100159E+02 -0.21302581128E+02  0.30678782120E+02  0.43400726815E+02  0.00000000000E+00 0. -1.
         11    1    3    3    0    0  0.10327266154E+02  0.19600525220E+02 -0.19333142893E+02  0.29404139666E+02  0.51100000000E-03 0. -1.
        -11    1    3    3    0    0  0.82811319557E+01  0.43290738653E+01 -0.10258612656E+02  0.13876496708E+02  0.51100000000E-03 0.  1.
         12    1    3    3    0    0  0.34967020502E+01 -0.26270179576E+01 -0.10870265705E+01  0.45066368105E+01  0.00000000000E+00 0. -1.
</event>
<event>
 7    1  0.2455451E-009  0.4778727E+02  0.7816164E-02  0.1312668E+00
        -11   -1    0    0    0    0  0.00000000000E+00  0.00000000000E+00  0.45593999997E+02  0.45594000000E+02  0.51100000000E-03 0.  1.
         11   -1    0    0    0    0 -0.00000000000E+00 -0.00000000000E+00 -0.45593999997E+02  0.45594000000E+02  0.51100000000E-03 0. -1.
    9900012    2    1    2    0    0  0.11263694606E+02 -0.31154767285E+02  0.28038063168E+02  0.47787270433E+02  0.19999997213E+02 0.  0.
         12    1    1    2    0    0 -0.11263694606E+02  0.31154767285E+02 -0.28038063168E+02  0.43400729567E+02  0.00000000000E+00 0. -1.
         11    1    3    3    0    0 -0.51213650618E+00 -0.10999670561E+01 -0.25408673778E+00  0.12396659457E+01  0.51100000000E-03 0. -1.
        -11    1    3    3    0    0  0.10517152696E+02 -0.31160068295E+02  0.20895968110E+02  0.38964109646E+02  0.51100000000E-03 0.  1.
        -12    1    3    3    0    0  0.12586784165E+01  0.11052680669E+01  0.73961817954E+01  0.75834948412E+01  0.00000000000E+00 0.  1.
</event>
<event>
 7    1  0.2455451E-009  0.4778727E+02  0.7816164E-02  0.1312668E+00
        -11   -1    0    0    0    0  0.00000000000E+00  0.00000000000E+00  0.45593999997E+02  0.45594000000E+02  0.51100000000E-03 0. -1.
         11   -1    0    0    0    0 -0.00000000000E+00 -0.00000000000E+00 -0.45593999997E+02  0.45594000000E+02  0.51100000000E-03 0.  1.
    9900012    2    1    2    0    0 -0.20513191343E+01  0.11904856203E+02 -0.41685607308E+02  0.47787269960E+02  0.19999995053E+02 0.  0.
         12    1    1    2    0    0  0.20513191343E+01 -0.11904856203E+02  0.41685607308E+02  0.43400730040E+02  0.00000000000E+00 0. -1.
         11    1    3    3    0    0  0.15319889278E+01  0.51871530912E+01 -0.35876976222E+02  0.36282378235E+02  0.51100000000E-03 0.  1.
        -11    1    3    3    0    0 -0.37075155360E+01  0.71600804122E+01 -0.67121787745E+01  0.10491223338E+02  0.51100000000E-03 0. -1.
         12    1    3    3    0    0  0.12420747390E+00 -0.44237730032E+00  0.90354768883E+00  0.10136683868E+01  0.00000000000E+00 0. -1.
</event>
<event>
 7    1  0.2455451E-009  0.4778727E+02  0.7816164E-02  0.1312668E+00
        -11   -1    0    0    0    0  0.00000000000E+00  0.00000000000E+00  0.45593999997E+02  0.45594000000E+02  0.51100000000E-03 0.  1.
         11   -1    0    0    0    0 -0.00000000000E+00 -0.00000000000E+00 -0.45593999997E+02  0.45594000000E+02  0.51100000000E-03 0. -1.
    9900012    2    1    2    0    0 -0.25967402906E+02 -0.99975187939E+01  0.33307160139E+02  0.47787270603E+02  0.19999997987E+02 0.  0.
         12    1    1    2    0    0  0.25967402906E+02  0.99975187939E+01 -0.33307160139E+02  0.43400729397E+02  0.00000000000E+00 0. -1.
         11    1    3    3    0    0 -0.25442317976E+02 -0.37074691074E+01  0.28978245602E+02  0.38740103118E+02  0.51100000000E-03 0.  1.
        -11    1    3    3    0    0 -0.17059674767E+01 -0.21391267434E+00  0.60052048608E+00  0.18211833459E+01  0.51100000000E-03 0. -1.
         12    1    3    3    0    0  0.11808825471E+01 -0.60761370122E+01  0.37283940502E+01  0.72259841388E+01  0.00000000000E+00 0. -1.
</event>
<event>
 7    1  0.2455451E-009  0.4778727E+02  0.7816164E-02  0.1312668E+00
        -11   -1    0    0    0    0  0.00000000000E+00  0.00000000000E+00  0.45593999997E+02  0.45594000000E+02  0.51100000000E-03 0.  1.
         11   -1    0    0    0    0 -0.00000000000E+00 -0.00000000000E+00 -0.45593999997E+02  0.45594000000E+02  0.51100000000E-03 0. -1.
    9900012    2    1    2    0    0  0.31605880419E+02  0.87218800622E+01  0.28436254240E+02  0.47787269314E+02  0.19999992111E+02 0.  0.
         12    1    1    2    0    0 -0.31605880419E+02 -0.87218800622E+01 -0.28436254240E+02  0.43400730686E+02  0.00000000000E+00 0. -1.
         11    1    3    3    0    0  0.16745257956E+02  0.87782696147E+01  0.45483724699E+01  0.19446063196E+02  0.51100000000E-03 0. -1.
        -11    1    3    3    0    0  0.95272720055E+01 -0.11895589517E+01  0.12964498095E+02  0.16132643103E+02  0.51100000000E-03 0.  1.
         12    1    3    3    0    0  0.53333504575E+01  0.11331693991E+01  0.10923383675E+02  0.12208563015E+02  0.00000000000E+00 0. -1.
</event>
<event>
 7    1  0.2455451E-009  0.4778728E+02  0.7816164E-02  0.1312668E+00
        -11   -1    0    0    0    0  0.00000000000E+00  0.00000000000E+00  0.45593999997E+02  0.45594000000E+02  0.51100000000E-03 0.  1.
         11   -1    0    0    0    0 -0.00000000000E+00 -0.00000000000E+00 -0.45593999997E+02  0.45594000000E+02  0.51100000000E-03 0. -1.
    9900012    2    1    2    0    0  0.32239424109E+02 -0.47569354701E+01  0.28663809584E+02  0.47787275561E+02  0.20000020594E+02 0.  0.
         12    1    1    2    0    0 -0.32239424109E+02  0.47569354701E+01 -0.28663809584E+02  0.43400724439E+02  0.00000000000E+00 0. -1.
         11    1    3    3    0    0  0.87012488285E+01 -0.91634155243E+01  0.12179604647E+02  0.17550575058E+02  0.51100000000E-03 0. -1.
        -11    1    3    3    0    0  0.17676320494E+02  0.20586961654E+01  0.76324868964E+01  0.19363506723E+02  0.51100000000E-03 0.  1.
        -12    1    3    3    0    0  0.58618547859E+01  0.23477838888E+01  0.88517180407E+01  0.10873193781E+02  0.00000000000E+00 0.  1.
</event>
<event>
 7    1  0.2455451E-009  0.4778727E+02  0.7816164E-02  0.1312668E+00
        -11   -1    0    0    0    0  0.00000000000E+00  0.00000000000E+00  0.45593999997E+02  0.45594000000E+02  0.51100000000E-03 0.  1.
         11   -1    0    0    0    0 -0.00000000000E+00 -0.00000000000E+00 -0.45593999997E+02  0.45594000000E+02  0.51100000000E-03 0. -1.
    9900012    2    1    2    0    0  0.15757567164E+02  0.29204764601E+02  0.27971482700E+02  0.47787273707E+02  0.20000012141E+02 0.  0.
         12    1    1    2    0    0 -0.15757567164E+02 -0.29204764601E+02 -0.27971482700E+02  0.43400726293E+02  0.00000000000E+00 0. -1.
         11    1    3    3    0    0 -0.39066059443E+01  0.39320068957E+01  0.87508743925E+01  0.10358573798E+02  0.51100000000E-03 0. -1.
        -11    1    3    3    0    0  0.15026444127E+02  0.17508863221E+02  0.13867444165E+02  0.26919515641E+02  0.51100000000E-03 0.  1.
         12    1    3    3    0    0  0.46377289813E+01  0.77638944837E+01  0.53531641417E+01  0.10509184268E+02  0.00000000000E+00 0. -1.
</event>
<event>
 7    1  0.2455451E-009  0.4778728E+02  0.7816164E-02  0.1312668E+00
        -11   -1    0    0    0    0  0.00000000000E+00  0.00000000000E+00  0.45593999997E+02  0.45594000000E+02  0.51100000000E-03 0. -1.
         11   -1    0    0    0    0 -0.00000000000E+00 -0.00000000000E+00 -0.45593999997E+02  0.45594000000E+02  0.51100000000E-03 0.  1.
    9900012    2    1    2    0    0 -0.40519162224E+02 -0.21295851204E+01 -0.15404065864E+02  0.47787275521E+02  0.20000020412E+02 0.  0.
         12    1    1    2    0    0  0.40519162224E+02  0.21295851204E+01  0.15404065864E+02  0.43400724479E+02  0.00000000000E+00 0. -1.
         11    1    3    3    0    0 -0.20319196837E+02 -0.56877930670E+01 -0.25712406163E+01  0.21256340904E+02  0.51100000000E-03 0. -1.
        -11    1    3    3    0    0  0.13760669383E-01  0.15647999936E+01 -0.41608451439E+01  0.44453819801E+01  0.51100000000E-03 0.  1.
        -12    1    3    3    0    0 -0.20213726057E+02  0.19934079530E+01 -0.86719801033E+01  0.22085552637E+02  0.00000000000E+00 0.  1.
</event>
<event>
 7    1  0.2455451E-009  0.4778727E+02  0.7816164E-02  0.1312668E+00
        -11   -1    0    0    0    0  0.00000000000E+00  0.00000000000E+00  0.45593999997E+02  0.45594000000E+02  0.51100000000E-03 0.  1.
         11   -1    0    0    0    0 -0.00000000000E+00 -0.00000000000E+00 -0.45593999997E+02  0.45594000000E+02  0.51100000000E-03 0. -1.
    9900012    2    1    2    0    0  0.38865475269E+02  0.87611427371E+01  0.17214544354E+02  0.47787270429E+02  0.19999997194E+02 0.  0.
         12    1    1    2    0    0 -0.38865475269E+02 -0.87611427371E+01 -0.17214544354E+02  0.43400729571E+02  0.00000000000E+00 0. -1.
         11    1    3    3    0    0  0.35453844723E+01  0.56325582385E+01 -0.20860021716E+01  0.69747307251E+01  0.51100000000E-03 0. -1.
        -11    1    3    3    0    0  0.27946604575E+02  0.24169444187E+01  0.12331238858E+02  0.30641700012E+02  0.51100000000E-03 0.  1.
         12    1    3    3    0    0  0.73734862217E+01  0.71164007991E+00  0.69693076680E+01  0.10170839692E+02  0.00000000000E+00 0. -1.
</event>
<event>
 7    1  0.2455451E-009  0.4778728E+02  0.7816164E-02  0.1312668E+00
        -11   -1    0    0    0    0  0.00000000000E+00  0.00000000000E+00  0.45593999997E+02  0.45594000000E+02  0.51100000000E-03 0.  1.
         11   -1    0    0    0    0 -0.00000000000E+00 -0.00000000000E+00 -0.45593999997E+02  0.45594000000E+02  0.51100000000E-03 0. -1.
    9900012    2    1    2    0    0  0.27913885360E+02  0.31315981978E+02 -0.11124165247E+02  0.47787276785E+02  0.20000026175E+02 0.  0.
         12    1    1    2    0    0 -0.27913885360E+02 -0.31315981978E+02  0.11124165247E+02  0.43400723215E+02  0.00000000000E+00 0. -1.
         11    1    3    3    0    0  0.17079369130E+01  0.80159048528E+00 -0.66812640882E+01  0.69425417451E+01  0.51100000000E-03 0. -1.
        -11    1    3    3    0    0  0.13523628472E+02  0.12988506420E+02 -0.41745726963E+01  0.19209812168E+02  0.51100000000E-03 0.  1.
         12    1    3    3    0    0  0.12682319975E+02  0.17525885072E+02 -0.26832846223E+00  0.21634922872E+02  0.00000000000E+00 0. -1.
</event>
<event>
 7    1  0.2455451E-009  0.4778727E+02  0.7816164E-02  0.1312668E+00
        -11   -1    0    0    0    0  0.00000000000E+00  0.00000000000E+00  0.45593999997E+02  0.45594000000E+02  0.51100000000E-03 0. -1.
         11   -1    0    0    0    0 -0.00000000000E+00 -0.00000000000E+00 -0.45593999997E+02  0.45594000000E+02  0.51100000000E-03 0.  1.
    9900012    2    1    2    0    0 -0.30305668721E+02 -0.26412199914E+02 -0.16358042787E+02  0.47787269307E+02  0.19999992076E+02 0.  0.
         12    1    1    2    0    0  0.30305668721E+02  0.26412199914E+02  0.16358042787E+02  0.43400730693E+02  0.00000000000E+00 0. -1.
         11    1    3    3    0    0 -0.16813583998E+02 -0.23000533393E+02 -0.13419302598E+02  0.31492837689E+02  0.51100000000E-03 0. -1.
        -11    1    3    3    0    0 -0.68207014053E+01 -0.30223602812E+01 -0.53604243038E+01  0.91864453575E+01  0.51100000000E-03 0.  1.
         12    1    3    3    0    0 -0.66713833175E+01 -0.38930623915E+00  0.24216841147E+01  0.71079862597E+01  0.00000000000E+00 0. -1.
</event>
<event>
 7    1  0.2455451E-009  0.4778727E+02  0.7816164E-02  0.1312668E+00
        -11   -1    0    0    0    0  0.00000000000E+00  0.00000000000E+00  0.45593999997E+02  0.45594000000E+02  0.51100000000E-03 0. -1.
         11   -1    0    0    0    0 -0.00000000000E+00 -0.00000000000E+00 -0.45593999997E+02  0.45594000000E+02  0.51100000000E-03 0.  1.
    9900012    2    1    2    0    0 -0.49423359326E+01  0.42711163776E+02 -0.59121226268E+01  0.47787269712E+02  0.19999993924E+02 0.  0.
         12    1    1    2    0    0  0.49423359326E+01 -0.42711163776E+02  0.59121226268E+01  0.43400730288E+02  0.00000000000E+00 0. -1.
         11    1    3    3    0    0  0.52251400024E+01  0.65710924120E+01  0.30040450244E+01  0.89165929761E+01  0.51100000000E-03 0. -1.
        -11    1    3    3    0    0 -0.75939746478E+01  0.30007620696E+02 -0.56640406006E+01  0.31467556419E+02  0.51100000000E-03 0.  1.
        -12    1    3    3    0    0 -0.25735012872E+01  0.61324506680E+01 -0.32521270506E+01  0.74031203167E+01  0.00000000000E+00 0.  1.
</event>
<event>
 7    1  0.2455451E-009  0.4778727E+02  0.7816164E-02  0.1312668E+00
        -11   -1    0    0    0    0  0.00000000000E+00  0.00000000000E+00  0.45593999997E+02  0.45594000000E+02  0.51100000000E-03 0.  1.
         11   -1    0    0    0    0 -0.00000000000E+00 -0.00000000000E+00 -0.45593999997E+02  0.45594000000E+02  0.51100000000E-03 0. -1.
    9900012    2    1    2    0    0  0.49879307866E+01  0.37951637737E+02  0.20455244586E+02  0.47787270841E+02  0.19999999074E+02 0.  0.
         12    1    1    2    0    0 -0.49879307866E+01 -0.37951637737E+02 -0.20455244586E+02  0.43400729159E+02  0.00000000000E+00 0. -1.
         11    1    3    3    0    0 -0.48437910757E+01  0.19380712876E+02  0.46495883845E+01  0.20510802421E+02  0.51100000000E-03 0. -1.
        -11    1    3    3    0    0  0.81783634219E+01  0.76956600879E+01  0.80519064441E+01  0.13818176801E+02  0.51100000000E-03 0.  1.
        -12    1    3    3    0    0  0.16533584403E+01  0.10875264773E+02  0.77537497572E+01  0.13458291619E+02  0.00000000000E+00 0.  1.
</event>
<event>
 7    1  0.2455451E-009  0.4778727E+02  0.7816164E-02  0.1312668E+00
        -11   -1    0    0    0    0  0.00000000000E+00  0.00000000000E+00  0.45593999997E+02  0.45594000000E+02  0.51100000000E-03 0.  1.
         11   -1    0    0    0    0 -0.00000000000E+00 -0.00000000000E+00 -0.45593999997E+02  0.45594000000E+02  0.51100000000E-03 0. -1.
    9900012    2    1    2    0    0  0.41755534368E+02  0.74060453198E+01  0.92330374845E+01  0.47787272600E+02  0.20000007093E+02 0.  0.
         12    1    1    2    0    0 -0.41755534368E+02 -0.74060453198E+01 -0.92330374845E+01  0.43400727400E+02  0.00000000000E+00 0. -1.
         11    1    3    3    0    0  0.42948188469E+01  0.20729953482E+01 -0.32585065514E+01  0.57758673676E+01  0.51100000000E-03 0. -1.
        -11    1    3    3    0    0  0.35602054624E+02  0.80418586363E+01  0.98742015004E+01  0.37811078262E+02  0.51100000000E-03 0.  1.
        -12    1    3    3    0    0  0.18586608972E+01 -0.27088086646E+01  0.26173425355E+01  0.42003269707E+01  0.00000000000E+00 0.  1.
</event>
<event>
 7    1  0.2455451E-009  0.4778727E+02  0.7816164E-02  0.1312668E+00
        -11   -1    0    0    0    0  0.00000000000E+00  0.00000000000E+00  0.45593999997E+02  0.45594000000E+02  0.51100000000E-03 0.  1.
         11   -1    0    0    0    0 -0.00000000000E+00 -0.00000000000E+00 -0.45593999997E+02  0.45594000000E+02  0.51100000000E-03 0. -1.
    9900012    2    1    2    0    0  0.20820579652E+02 -0.18215669225E+02  0.33441234687E+02  0.47787270516E+02  0.19999997589E+02 0.  0.
         12    1    1    2    0    0 -0.20820579652E+02  0.18215669225E+02 -0.33441234687E+02  0.43400729484E+02  0.00000000000E+00 0. -1.
         11    1    3    3    0    0  0.22923305316E+01 -0.33459746214E+01 -0.23104650770E+01  0.46678233221E+01  0.51100000000E-03 0. -1.
        -11    1    3    3    0    0  0.15813917605E+02 -0.13335448167E+02  0.28410579671E+02  0.35143636769E+02  0.51100000000E-03 0.  1.
        -12    1    3    3    0    0  0.27143315154E+01 -0.15342464363E+01  0.73411200934E+01  0.79758104245E+01  0.00000000000E+00 0.  1.
</event>
<event>
 7    1  0.2455451E-009  0.4778728E+02  0.7816164E-02  0.1312668E+00
        -11   -1    0    0    0    0  0.00000000000E+00  0.00000000000E+00  0.45593999997E+02  0.45594000000E+02  0.51100000000E-03 0.  1.
         11   -1    0    0    0    0 -0.00000000000E+00 -0.00000000000E+00 -0.45593999997E+02  0.45594000000E+02  0.51100000000E-03 0. -1.
    9900012    2    1    2    0    0  0.46842302630E+01 -0.12805233625E+02  0.41203237238E+02  0.47787276731E+02  0.20000025929E+02 0.  0.
         12    1    1    2    0    0 -0.46842302630E+01  0.12805233625E+02 -0.41203237238E+02  0.43400723269E+02  0.00000000000E+00 0. -1.
         11    1    3    3    0    0  0.15430273911E+01 -0.24575093153E+00  0.59921380171E-01  0.15636233188E+01  0.51100000000E-03 0. -1.
        -11    1    3    3    0    0 -0.22033140245E+01  0.34611429464E+01  0.96944089757E+01  0.10526902148E+02  0.51100000000E-03 0.  1.
        -12    1    3    3    0    0  0.53445168964E+01 -0.16020625640E+02  0.31448906882E+02  0.35696751264E+02  0.00000000000E+00 0.  1.
</event>
<event>
 7    1  0.2455451E-009  0.4778727E+02  0.7816164E-02  0.1312668E+00
        -11   -1    0    0    0    0  0.00000000000E+00  0.00000000000E+00  0.45593999997E+02  0.45594000000E+02  0.51100000000E-03 0.  1.
         11   -1    0    0    0    0 -0.00000000000E+00 -0.00000000000E+00 -0.45593999997E+02  0.45594000000E+02  0.51100000000E-03 0. -1.
    9900012    2    1    2    0    0  0.33144901788E+02  0.14668976299E+02  0.23871741547E+02  0.47787269307E+02  0.19999992080E+02 0.  0.
         12    1    1    2    0    0 -0.33144901788E+02 -0.14668976299E+02 -0.23871741547E+02  0.43400730693E+02  0.00000000000E+00 0. -1.
         11    1    3    3    0    0  0.19702025844E+01  0.69669718947E+00 -0.20680795287E+01  0.29400745561E+01  0.51100000000E-03 0. -1.
        -11    1    3    3    0    0  0.30555220891E+02  0.11698970979E+02  0.26846233514E+02  0.42322661776E+02  0.51100000000E-03 0.  1.
        -12    1    3    3    0    0  0.61947831211E+00  0.22733081307E+01 -0.90641243813E+00  0.25245329754E+01  0.00000000000E+00 0.  1.
</event>
<event>
 7    1  0.2455451E-009  0.4778728E+02  0.7816164E-02  0.1312668E+00
        -11   -1    0    0    0    0  0.00000000000E+00  0.00000000000E+00  0.45593999997E+02  0.45594000000E+02  0.51100000000E-03 0. -1.
         11   -1    0    0    0    0 -0.00000000000E+00 -0.00000000000E+00 -0.45593999997E+02  0.45594000000E+02  0.51100000000E-03 0.  1.
    9900012    2    1    2    0    0 -0.22722605111E+02 -0.32087300885E+01 -0.36837617517E+02  0.47787276548E+02  0.20000025093E+02 0.  0.
         12    1    1    2    0    0  0.22722605111E+02  0.32087300885E+01  0.36837617517E+02  0.43400723452E+02  0.00000000000E+00 0. -1.
         11    1    3    3    0    0  0.27619001791E+01 -0.28143195422E+01 -0.99172372359E+01  0.10672398125E+02  0.51100000000E-03 0. -1.
        -11    1    3    3    0    0 -0.19740437873E+02  0.42582732715E+00 -0.20577377868E+02  0.28518322120E+02  0.51100000000E-03 0.  1.
         12    1    3    3    0    0 -0.57440674172E+01 -0.82023787350E+00 -0.63430024133E+01  0.85965563034E+01  0.00000000000E+00 0. -1.
</event>
<event>
 7    1  0.2455451E-009  0.4778727E+02  0.7816164E-02  0.1312668E+00
        -11   -1    0    0    0    0  0.00000000000E+00  0.00000000000E+00  0.45593999997E+02  0.45594000000E+02  0.51100000000E-03 0.  1.
         11   -1    0    0    0    0 -0.00000000000E+00 -0.00000000000E+00 -0.45593999997E+02  0.45594000000E+02  0.51100000000E-03 0. -1.
    9900012    2    1    2    0    0  0.17630145749E+02  0.35651111354E+02  0.17372377577E+02  0.47787270944E+02  0.19999999540E+02 0.  0.
         12    1    1    2    0    0 -0.17630145749E+02 -0.35651111354E+02 -0.17372377577E+02  0.43400729056E+02  0.00000000000E+00 0. -1.
         11    1    3    3    0    0  0.47521354661E+01  0.59290817957E+01 -0.42611174148E+01  0.87117119048E+01  0.51100000000E-03 0. -1.
        -11    1    3    3    0    0  0.57954941819E+01  0.16055646725E+02  0.12726494817E+02  0.21291670088E+02  0.51100000000E-03 0.  1.
         12    1    3    3    0    0  0.70825161013E+01  0.13666382834E+02  0.89070001746E+01  0.17783888950E+02  0.00000000000E+00 0. -1.
</event>
<event>
 7    1  0.2455451E-009  0.4778727E+02  0.7816164E-02  0.1312668E+00
        -11   -1    0    0    0    0  0.00000000000E+00  0.00000000000E+00  0.45593999997E+02  0.45594000000E+02  0.51100000000E-03 0.  1.
         11   -1    0    0    0    0 -0.00000000000E+00 -0.00000000000E+00 -0.45593999997E+02  0.45594000000E+02  0.51100000000E-03 0. -1.
    9900012    2    1    2    0    0  0.20237161257E+01 -0.33964592188E+02  0.26943167245E+02  0.47787271773E+02  0.20000003320E+02 0.  0.
         12    1    1    2    0    0 -0.20237161257E+01  0.33964592188E+02 -0.26943167245E+02  0.43400728227E+02  0.00000000000E+00 0. -1.
         11    1    3    3    0    0 -0.21528020353E+01 -0.65992293835E+00  0.79718434354E+01  0.82837396692E+01  0.51100000000E-03 0. -1.
        -11    1    3    3    0    0  0.32370944233E+01 -0.17150378089E+02  0.14566406908E+02  0.22733113720E+02  0.51100000000E-03 0.  1.
         12    1    3    3    0    0  0.93942373772E+00 -0.16154291160E+02  0.44049169018E+01  0.16770418384E+02  0.00000000000E+00 0. -1.
</event>
<event>
 7    1  0.2455451E-009  0.4778727E+02  0.7816164E-02  0.1312668E+00
        -11   -1    0    0    0    0  0.00000000000E+00  0.00000000000E+00  0.45593999997E+02  0.45594000000E+02  0.51100000000E-03 0.  1.
         11   -1    0    0    0    0 -0.00000000000E+00 -0.00000000000E+00 -0.45593999997E+02  0.45594000000E+02  0.51100000000E-03 0. -1.
    9900012    2    1    2    0    0  0.20607534541E+02  0.30311277664E+02  0.23241759670E+02  0.47787269291E+02  0.19999992005E+02 0.  0.
         12    1    1    2    0    0 -0.20607534541E+02 -0.30311277664E+02 -0.23241759670E+02  0.43400730709E+02  0.00000000000E+00 0. -1.
         11    1    3    3    0    0  0.10802998282E+02  0.25130969886E+02  0.16093953126E+02  0.31737765308E+02  0.51100000000E-03 0. -1.
        -11    1    3    3    0    0  0.10227716994E+01  0.52165186755E+01  0.42370422501E+01  0.67978420349E+01  0.51100000000E-03 0.  1.
         12    1    3    3    0    0  0.87817645599E+01 -0.36210897694E-01  0.29107642948E+01  0.92516619477E+01  0.00000000000E+00 0. -1.
</event>
<event>
 7    1  0.2455451E-009  0.4778727E+02  0.7816164E-02  0.1312668E+00
        -11   -1    0    0    0    0  0.00000000000E+00  0.00000000000E+00  0.45593999997E+02  0.45594000000E+02  0.51100000000E-03 0.  1.
         11   -1    0    0    0    0 -0.00000000000E+00 -0.00000000000E+00 -0.45593999997E+02  0.45594000000E+02  0.51100000000E-03 0. -1.
    9900012    2    1    2    0    0  0.24609452996E+02  0.14695012049E+02  0.32589176866E+02  0.47787274145E+02  0.20000014139E+02 0.  0.
         12    1    1    2    0    0 -0.24609452996E+02 -0.14695012049E+02 -0.32589176866E+02  0.43400725855E+02  0.00000000000E+00 0. -1.
         11    1    3    3    0    0  0.63837928016E+01 -0.40125240135E+01  0.68984313656E+01  0.10219663158E+02  0.51100000000E-03 0. -1.
        -11    1    3    3    0    0  0.16794132757E+02  0.19530444225E+02  0.24077289600E+02  0.35258999155E+02  0.51100000000E-03 0.  1.
        -12    1    3    3    0    0  0.14315274383E+01 -0.82290816267E+00  0.16134559008E+01  0.23086118328E+01  0.00000000000E+00 0.  1.
</event>
<event>
 7    1  0.2455451E-009  0.4778727E+02  0.7816164E-02  0.1312668E+00
        -11   -1    0    0    0    0  0.00000000000E+00  0.00000000000E+00  0.45593999997E+02  0.45594000000E+02  0.51100000000E-03 0. -1.
         11   -1    0    0    0    0 -0.00000000000E+00 -0.00000000000E+00 -0.45593999997E+02  0.45594000000E+02  0.51100000000E-03 0.  1.
    9900012    2    1    2    0    0 -0.16863145707E+02 -0.39164702933E+02  0.80860193510E+01  0.47787270192E+02  0.19999996111E+02 0.  0.
         12    1    1    2    0    0  0.16863145707E+02  0.39164702933E+02 -0.80860193510E+01  0.43400729808E+02  0.00000000000E+00 0. -1.
         11    1    3    3    0    0 -0.67211659656E+00 -0.95880256786E+01  0.95021757974E+01  0.13515669509E+02  0.51100000000E-03 0. -1.
        -11    1    3    3    0    0 -0.11323937537E+01 -0.70803996441E+01 -0.19905282954E+00  0.71731441519E+01  0.51100000000E-03 0.  1.
         12    1    3    3    0    0 -0.15058635357E+02 -0.22496277610E+02 -0.12171036169E+01  0.27098456531E+02  0.00000000000E+00 0. -1.
</event>
<event>
 7    1  0.2455451E-009  0.4778728E+02  0.7816164E-02  0.1312668E+00
        -11   -1    0    0    0    0  0.00000000000E+00  0.00000000000E+00  0.45593999997E+02  0.45594000000E+02  0.51100000000E-03 0.  1.
         11   -1    0    0    0    0 -0.00000000000E+00 -0.00000000000E+00 -0.45593999997E+02  0.45594000000E+02  0.51100000000E-03 0. -1.
    9900012    2    1    2    0    0 -0.17364704052E+01 -0.35215072294E+02  0.25308208819E+02  0.47787284801E+02  0.20000062720E+02 0.  0.
         12    1    1    2    0    0  0.17364704052E+01  0.35215072294E+02 -0.25308208819E+02  0.43400715199E+02  0.00000000000E+00 0. -1.
         11    1    3    3    0    0  0.54606033481E+01 -0.23083249024E+02  0.17200433439E+02  0.29300332510E+02  0.51100000000E-03 0. -1.
        -11    1    3    3    0    0 -0.37940152489E+01 -0.82905611147E+01  0.95023171087E+01  0.13168978168E+02  0.51100000000E-03 0.  1.
         12    1    3    3    0    0 -0.34030585044E+01 -0.38412621558E+01 -0.13945417288E+01  0.53179741225E+01  0.00000000000E+00 0. -1.
</event>
<event>
 7    1  0.2455451E-009  0.4778729E+02  0.7816164E-02  0.1312668E+00
        -11   -1    0    0    0    0  0.00000000000E+00  0.00000000000E+00  0.45593999997E+02  0.45594000000E+02  0.51100000000E-03 0.  1.
         11   -1    0    0    0    0 -0.00000000000E+00 -0.00000000000E+00 -0.45593999997E+02  0.45594000000E+02  0.51100000000E-03 0. -1.
    9900012    2    1    2    0    0  0.11675587444E+02 -0.45151992629E+00  0.41798308175E+02  0.47787288269E+02  0.20000078536E+02 0.  0.
         12    1    1    2    0    0 -0.11675587444E+02  0.45151992629E+00 -0.41798308175E+02  0.43400711731E+02  0.00000000000E+00 0. -1.
         11    1    3    3    0    0 -0.37519493977E+01 -0.36772994176E+01  0.47796201121E+01  0.71024238093E+01  0.51100000000E-03 0. -1.
        -11    1    3    3    0    0  0.10508034056E+02  0.17171302110E+01  0.30939415956E+02  0.32720250241E+02  0.51100000000E-03 0.  1.
        -12    1    3    3    0    0  0.49195027852E+01  0.15086492803E+01  0.60792721072E+01  0.79646142190E+01  0.00000000000E+00 0.  1.
</event>
<event>
 7    1  0.2455451E-009  0.4778727E+02  0.7816164E-02  0.1312668E+00
        -11   -1    0    0    0    0  0.00000000000E+00  0.00000000000E+00  0.45593999997E+02  0.45594000000E+02  0.51100000000E-03 0.  1.
         11   -1    0    0    0    0 -0.00000000000E+00 -0.00000000000E+00 -0.45593999997E+02  0.45594000000E+02  0.51100000000E-03 0. -1.
    9900012    2    1    2    0    0 -0.37964535588E+02 -0.38489877333E+01  0.20676134553E+02  0.47787271792E+02  0.20000003407E+02 0.  0.
         12    1    1    2    0    0  0.37964535588E+02  0.38489877333E+01 -0.20676134553E+02  0.43400728208E+02  0.00000000000E+00 0. -1.
         11    1    3    3    0    0 -0.63257112758E+01 -0.65924857590E+01  0.10057896033E+02  0.13588111145E+02  0.51100000000E-03 0. -1.
        -11    1    3    3    0    0 -0.30795753027E+02  0.31987776529E+01  0.88722839583E+01  0.32207576839E+02  0.51100000000E-03 0.  1.
        -12    1    3    3    0    0 -0.84307128533E+00 -0.45527962719E+00  0.17459545615E+01  0.19915838074E+01  0.00000000000E+00 0.  1.
</event>
<event>
 7    1  0.2455451E-009  0.4778727E+02  0.7816164E-02  0.1312668E+00
        -11   -1    0    0    0    0  0.00000000000E+00  0.00000000000E+00  0.45593999997E+02  0.45594000000E+02  0.51100000000E-03 0.  1.
         11   -1    0    0    0    0 -0.00000000000E+00 -0.00000000000E+00 -0.45593999997E+02  0.45594000000E+02  0.51100000000E-03 0. -1.
    9900012    2    1    2    0    0  0.11946862563E+02 -0.20522843409E+02  0.36327792859E+02  0.47787272348E+02  0.20000005945E+02 0.  0.
         12    1    1    2    0    0 -0.11946862563E+02  0.20522843409E+02 -0.36327792859E+02  0.43400727652E+02  0.00000000000E+00 0. -1.
         11    1    3    3    0    0 -0.17029565653E+01 -0.12233042886E+01  0.67289746982E+01  0.70480944373E+01  0.51100000000E-03 0. -1.
        -11    1    3    3    0    0  0.85134065129E+00 -0.47176420287E+01  0.16861857419E+02  0.17530064549E+02  0.51100000000E-03 0.  1.
        -12    1    3    3    0    0  0.12798478477E+02 -0.14581897092E+02  0.12736960742E+02  0.23209113362E+02  0.00000000000E+00 0.  1.
</event>
<event>
 7    1  0.2455451E-009  0.4778727E+02  0.7816164E-02  0.1312668E+00
        -11   -1    0    0    0    0  0.00000000000E+00  0.00000000000E+00  0.45593999997E+02  0.45594000000E+02  0.51100000000E-03 0.  1.
         11   -1    0    0    0    0 -0.00000000000E+00 -0.00000000000E+00 -0.45593999997E+02  0.45594000000E+02  0.51100000000E-03 0. -1.
    9900012    2    1    2    0    0 -0.81094176018E+00  0.11366801966E+02  0.41877934867E+02  0.47787271409E+02  0.20000001664E+02 0.  0.
         12    1    1    2    0    0  0.81094176018E+00 -0.11366801966E+02 -0.41877934867E+02  0.43400728591E+02  0.00000000000E+00 0. -1.
         11    1    3    3    0    0  0.27444626102E+01  0.36084186813E+01  0.51219975768E+01  0.68401476472E+01  0.51100000000E-03 0. -1.
        -11    1    3    3    0    0 -0.44705234634E+01  0.12459215498E+02  0.27827629699E+02  0.30815492951E+02  0.51100000000E-03 0.  1.
        -12    1    3    3    0    0  0.91511909300E+00 -0.47008322139E+01  0.89283075914E+01  0.10131630812E+02  0.00000000000E+00 0.  1.
</event>
<event>
 7    1  0.2455451E-009  0.4778726E+02  0.7816164E-02  0.1312668E+00
        -11   -1    0    0    0    0  0.00000000000E+00  0.00000000000E+00  0.45593999997E+02  0.45594000000E+02  0.51100000000E-03 0. -1.
         11   -1    0    0    0    0 -0.00000000000E+00 -0.00000000000E+00 -0.45593999997E+02  0.45594000000E+02  0.51100000000E-03 0.  1.
    9900012    2    1    2    0    0  0.80510561939E+01 -0.49716382083E+00 -0.42644552824E+02  0.47787256190E+02  0.19999932274E+02 0.  0.
         12    1    1    2    0    0 -0.80510561939E+01  0.49716382083E+00  0.42644552824E+02  0.43400743810E+02  0.00000000000E+00 0. -1.
         11    1    3    3    0    0 -0.23185644787E+01  0.60225960826E+01 -0.14546056292E+02  0.15913364155E+02  0.51100000000E-03 0. -1.
        -11    1    3    3    0    0  0.60426249042E+01 -0.72604391222E+01 -0.24290358744E+02  0.26062402425E+02  0.51100000000E-03 0.  1.
         12    1    3    3    0    0  0.43269957684E+01  0.74067921877E+00 -0.38081377876E+01  0.58114896106E+01  0.00000000000E+00 0. -1.
</event>
<event>
 7    1  0.2455451E-009  0.4778727E+02  0.7816164E-02  0.1312668E+00
        -11   -1    0    0    0    0  0.00000000000E+00  0.00000000000E+00  0.45593999997E+02  0.45594000000E+02  0.51100000000E-03 0.  1.
         11   -1    0    0    0    0 -0.00000000000E+00 -0.00000000000E+00 -0.45593999997E+02  0.45594000000E+02  0.51100000000E-03 0. -1.
    9900012    2    1    2    0    0  0.23798247113E+02  0.15767790621E+02  0.32690110425E+02  0.47787272975E+02  0.20000008801E+02 0.  0.
         12    1    1    2    0    0 -0.23798247113E+02 -0.15767790621E+02 -0.32690110425E+02  0.43400727025E+02  0.00000000000E+00 0. -1.
         11    1    3    3    0    0  0.25267819360E+01 -0.14080367609E+01  0.44557392971E+01  0.53123259894E+01  0.51100000000E-03 0. -1.
        -11    1    3    3    0    0 -0.57887373259E+00  0.53541485525E+01  0.76781038815E+00  0.54398101597E+01  0.51100000000E-03 0.  1.
        -12    1    3    3    0    0  0.21850338910E+02  0.11821678829E+02  0.27466560740E+02  0.37035136826E+02  0.00000000000E+00 0.  1.
</event>
<event>
 7    1  0.2455451E-009  0.4778728E+02  0.7816164E-02  0.1312668E+00
        -11   -1    0    0    0    0  0.00000000000E+00  0.00000000000E+00  0.45593999997E+02  0.45594000000E+02  0.51100000000E-03 0.  1.
         11   -1    0    0    0    0 -0.00000000000E+00 -0.00000000000E+00 -0.45593999997E+02  0.45594000000E+02  0.51100000000E-03 0. -1.
    9900012    2    1    2    0    0  0.15737855731E+02  0.83767675099E+01  0.39569839839E+02  0.47787279248E+02  0.20000037402E+02 0.  0.
         12    1    1    2    0    0 -0.15737855731E+02 -0.83767675099E+01 -0.39569839839E+02  0.43400720752E+02  0.00000000000E+00 0. -1.
         11    1    3    3    0    0 -0.17970196796E+01  0.67952676816E+01  0.53277478129E+01  0.88198548522E+01  0.51100000000E-03 0. -1.
        -11    1    3    3    0    0  0.10967562386E+02  0.34366940093E+01  0.18083797769E+02  0.21427133090E+02  0.51100000000E-03 0.  1.
         12    1    3    3    0    0  0.65673130242E+01 -0.18551941811E+01  0.16158294257E+02  0.17540291306E+02  0.00000000000E+00 0. -1.
</event>
<event>
 7    1  0.2455451E-009  0.4778725E+02  0.7816164E-02  0.1312668E+00
        -11   -1    0    0    0    0  0.00000000000E+00  0.00000000000E+00  0.45593999997E+02  0.45594000000E+02  0.51100000000E-03 0.  1.
         11   -1    0    0    0    0 -0.00000000000E+00 -0.00000000000E+00 -0.45593999997E+02  0.45594000000E+02  0.51100000000E-03 0. -1.
    9900012    2    1    2    0    0 -0.12624120802E+01 -0.18731724049E+02  0.39129962845E+02  0.47787249288E+02  0.19999900805E+02 0.  0.
         12    1    1    2    0    0  0.12624120802E+01  0.18731724049E+02 -0.39129962845E+02  0.43400750712E+02  0.00000000000E+00 0. -1.
         11    1    3    3    0    0 -0.75561837821E+00 -0.16185535884E+02  0.15838918804E+02  0.22658638091E+02  0.51100000000E-03 0. -1.
        -11    1    3    3    0    0  0.36014341687E+01  0.11451764205E+01  0.74755712530E+01  0.83765101878E+01  0.51100000000E-03 0.  1.
         12    1    3    3    0    0 -0.41082278707E+01 -0.36913645849E+01  0.15815472788E+02  0.16752101010E+02  0.00000000000E+00 0. -1.
</event>
<event>
 7    1  0.2455451E-009  0.4778727E+02  0.7816164E-02  0.1312668E+00
        -11   -1    0    0    0    0  0.00000000000E+00  0.00000000000E+00  0.45593999997E+02  0.45594000000E+02  0.51100000000E-03 0.  1.
         11   -1    0    0    0    0 -0.00000000000E+00 -0.00000000000E+00 -0.45593999997E+02  0.45594000000E+02  0.51100000000E-03 0. -1.
    9900012    2    1    2    0    0 -0.38157801555E+02  0.19762387490E+02  0.60871584770E+01  0.47787271007E+02  0.19999999828E+02 0.  0.
         12    1    1    2    0    0  0.38157801555E+02 -0.19762387490E+02 -0.60871584770E+01  0.43400728993E+02  0.00000000000E+00 0. -1.
         11    1    3    3    0    0 -0.27935380427E+02  0.20744376922E+02  0.46061981639E+01  0.35098884815E+02  0.51100000000E-03 0.  1.
        -11    1    3    3    0    0 -0.41221145430E+00 -0.14087590741E+01  0.24134107143E+01  0.28247251104E+01  0.51100000000E-03 0. -1.
        -12    1    3    3    0    0 -0.98102096738E+01  0.42676964200E+00 -0.93245040121E+00  0.98636610811E+01  0.00000000000E+00 0.  1.
</event>
<event>
 7    1  0.2455451E-009  0.4778727E+02  0.7816164E-02  0.1312668E+00
        -11   -1    0    0    0    0  0.00000000000E+00  0.00000000000E+00  0.45593999997E+02  0.45594000000E+02  0.51100000000E-03 0.  1.
         11   -1    0    0    0    0 -0.00000000000E+00 -0.00000000000E+00 -0.45593999997E+02  0.45594000000E+02  0.51100000000E-03 0. -1.
    9900012    2    1    2    0    0  0.27583635120E+02  0.28749099298E+00  0.33506469131E+02  0.47787273611E+02  0.20000011701E+02 0.  0.
         12    1    1    2    0    0 -0.27583635120E+02 -0.28749099298E+00 -0.33506469131E+02  0.43400726389E+02  0.00000000000E+00 0. -1.
         11    1    3    3    0    0  0.11824175875E+02 -0.24299606302E+01  0.73974295140E+01  0.14157605994E+02  0.51100000000E-03 0. -1.
        -11    1    3    3    0    0 -0.19032169214E+01  0.13790110841E+01  0.36213688999E+00  0.23780348206E+01  0.51100000000E-03 0.  1.
        -12    1    3    3    0    0  0.17662676166E+02  0.13384405390E+01  0.25746902727E+02  0.31251632796E+02  0.00000000000E+00 0.  1.
</event>
<event>
 7    1  0.2455451E-009  0.4778727E+02  0.7816164E-02  0.1312668E+00
        -11   -1    0    0    0    0  0.00000000000E+00  0.00000000000E+00  0.45593999997E+02  0.45594000000E+02  0.51100000000E-03 0.  1.
         11   -1    0    0    0    0 -0.00000000000E+00 -0.00000000000E+00 -0.45593999997E+02  0.45594000000E+02  0.51100000000E-03 0. -1.
    9900012    2    1    2    0    0 -0.38276143138E+02 -0.20440243267E+02  0.86985032348E+00  0.47787270537E+02  0.19999997688E+02 0.  0.
         12    1    1    2    0    0  0.38276143138E+02  0.20440243267E+02 -0.86985032348E+00  0.43400729463E+02  0.00000000000E+00 0. -1.
         11    1    3    3    0    0 -0.78383096399E+00 -0.46836354036E+01 -0.33753126843E+01  0.58261108427E+01  0.51100000000E-03 0. -1.
        -11    1    3    3    0    0 -0.40055477848E+01  0.10412643975E+01 -0.61267119171E+00  0.41837794938E+01  0.51100000000E-03 0.  1.
         12    1    3    3    0    0 -0.33486764389E+02 -0.16797872261E+02  0.48578341995E+01  0.37777380201E+02  0.00000000000E+00 0. -1.
</event>
<event>
 7    1  0.2455451E-009  0.4778727E+02  0.7816164E-02  0.1312668E+00
        -11   -1    0    0    0    0  0.00000000000E+00  0.00000000000E+00  0.45593999997E+02  0.45594000000E+02  0.51100000000E-03 0.  1.
         11   -1    0    0    0    0 -0.00000000000E+00 -0.00000000000E+00 -0.45593999997E+02  0.45594000000E+02  0.51100000000E-03 0. -1.
    9900012    2    1    2    0    0  0.17496431164E+02  0.39095658421E+02  0.70019919828E+01  0.47787268410E+02  0.19999987987E+02 0.  0.
         12    1    1    2    0    0 -0.17496431164E+02 -0.39095658421E+02 -0.70019919828E+01  0.43400731590E+02  0.00000000000E+00 0. -1.
         11    1    3    3    0    0 -0.16242320015E+01  0.17473246357E+01  0.43217860316E+01  0.49365076463E+01  0.51100000000E-03 0. -1.
        -11    1    3    3    0    0  0.13767475513E+02  0.27292145756E+02 -0.17721685004E+01  0.30619359619E+02  0.51100000000E-03 0.  1.
         12    1    3    3    0    0  0.53531876523E+01  0.10056188029E+02  0.44523744515E+01  0.12231401145E+02  0.00000000000E+00 0. -1.
</event>
<event>
 7    1  0.2455451E-009  0.4778727E+02  0.7816164E-02  0.1312668E+00
        -11   -1    0    0    0    0  0.00000000000E+00  0.00000000000E+00  0.45593999997E+02  0.45594000000E+02  0.51100000000E-03 0.  1.
         11   -1    0    0    0    0 -0.00000000000E+00 -0.00000000000E+00 -0.45593999997E+02  0.45594000000E+02  0.51100000000E-03 0. -1.
    9900012    2    1    2    0    0 -0.16591108312E+01 -0.43364580553E+02 -0.61931629430E+00  0.47787273647E+02  0.20000011865E+02 0.  0.
         12    1    1    2    0    0  0.16591108312E+01  0.43364580553E+02  0.61931629430E+00  0.43400726353E+02  0.00000000000E+00 0. -1.
         11    1    3    3    0    0 -0.81937855998E+01 -0.19255731146E+02 -0.12855088370E+01  0.20966016256E+02  0.51100000000E-03 0. -1.
        -11    1    3    3    0    0  0.55635040386E+01 -0.21968100943E+02  0.37226457672E+01  0.22965368014E+02  0.51100000000E-03 0.  1.
         12    1    3    3    0    0  0.97117072999E+00 -0.21407484645E+01 -0.30564532245E+01  0.38558893771E+01  0.00000000000E+00 0. -1.
</event>
<event>
 7    1  0.2455451E-009  0.4778727E+02  0.7816164E-02  0.1312668E+00
        -11   -1    0    0    0    0  0.00000000000E+00  0.00000000000E+00  0.45593999997E+02  0.45594000000E+02  0.51100000000E-03 0.  1.
         11   -1    0    0    0    0 -0.00000000000E+00 -0.00000000000E+00 -0.45593999997E+02  0.45594000000E+02  0.51100000000E-03 0. -1.
    9900012    2    1    2    0    0 -0.79922007137E+01 -0.41189126273E+02  0.11099731677E+02  0.47787269146E+02  0.19999991343E+02 0.  0.
         12    1    1    2    0    0  0.79922007137E+01  0.41189126273E+02 -0.11099731677E+02  0.43400730854E+02  0.00000000000E+00 0. -1.
         11    1    3    3    0    0  0.68267802283E+00 -0.29760454186E+01 -0.28670602035E+01  0.41884281166E+01  0.51100000000E-03 0. -1.
        -11    1    3    3    0    0 -0.55069792398E+01 -0.37581625009E+02  0.13615554248E+02  0.40349580870E+02  0.51100000000E-03 0.  1.
        -12    1    3    3    0    0 -0.31678994968E+01 -0.63145584592E+00  0.35123763222E+00  0.32492601591E+01  0.00000000000E+00 0.  1.
</event>
<event>
 7    1  0.2455451E-009  0.4778729E+02  0.7816164E-02  0.1312668E+00
        -11   -1    0    0    0    0  0.00000000000E+00  0.00000000000E+00  0.45593999997E+02  0.45594000000E+02  0.51100000000E-03 0.  1.
         11   -1    0    0    0    0 -0.00000000000E+00 -0.00000000000E+00 -0.45593999997E+02  0.45594000000E+02  0.51100000000E-03 0. -1.
    9900012    2    1    2    0    0 -0.50986643769E+01  0.61054546339E+01  0.42665549368E+02  0.47787285057E+02  0.20000063888E+02 0.  0.
         12    1    1    2    0    0  0.50986643769E+01 -0.61054546339E+01 -0.42665549368E+02  0.43400714943E+02  0.00000000000E+00 0. -1.
         11    1    3    3    0    0 -0.24252266487E+01  0.78684451776E+01  0.49091688045E+01  0.95861406428E+01  0.51100000000E-03 0. -1.
        -11    1    3    3    0    0 -0.32904456983E+01  0.61964119668E+00  0.21169844631E+02  0.21432995826E+02  0.51100000000E-03 0.  1.
         12    1    3    3    0    0  0.61700797015E+00 -0.23826317404E+01  0.16586535932E+02  0.16768148588E+02  0.00000000000E+00 0. -1.
</event>
<event>
 7    1  0.2455451E-009  0.4778727E+02  0.7816164E-02  0.1312668E+00
        -11   -1    0    0    0    0  0.00000000000E+00  0.00000000000E+00  0.45593999997E+02  0.45594000000E+02  0.51100000000E-03 0.  1.
         11   -1    0    0    0    0 -0.00000000000E+00 -0.00000000000E+00 -0.45593999997E+02  0.45594000000E+02  0.51100000000E-03 0. -1.
    9900012    2    1    2    0    0 -0.22658795041E+02  0.19280195896E+02  0.31598680186E+02  0.47787268024E+02  0.19999986231E+02 0.  0.
         12    1    1    2    0    0  0.22658795041E+02 -0.19280195896E+02 -0.31598680186E+02  0.43400731976E+02  0.00000000000E+00 0. -1.
         11    1    3    3    0    0 -0.85626097371E+01  0.12426535673E+02  0.25326680112E+02  0.29481821519E+02  0.51100000000E-03 0.  1.
        -11    1    3    3    0    0 -0.14535396524E+02  0.55721350215E+01  0.66054602417E+01  0.16910308870E+02  0.51100000000E-03 0. -1.
        -12    1    3    3    0    0  0.43921121990E+00  0.12815252018E+01 -0.33346016745E+00  0.13951376354E+01  0.00000000000E+00 0.  1.
</event>
<event>
 7    1 -0.2455451E-009  0.4778727E+02  0.7816164E-02  0.1312668E+00
        -11   -1    0    0    0    0  0.00000000000E+00  0.00000000000E+00  0.45593999997E+02  0.45594000000E+02  0.51100000000E-03 0.  1.
         11   -1    0    0    0    0 -0.00000000000E+00 -0.00000000000E+00 -0.45593999997E+02  0.45594000000E+02  0.51100000000E-03 0. -1.
    9900012    2    1    2    0    0 -0.14007161593E+02  0.27668458743E+02  0.30362459999E+02  0.47787272329E+02  0.20000005858E+02 0.  0.
         12    1    1    2    0    0  0.14007161593E+02 -0.27668458743E+02 -0.30362459999E+02  0.43400727671E+02  0.00000000000E+00 0. -1.
         11    1    3    3    0    0  0.39489039947E+01  0.74003861557E+01  0.63249475324E+01  0.10505451897E+02  0.51100000000E-03 0. -1.
        -11    1    3    3    0    0 -0.52541135969E+01  0.94063632473E+00  0.52209797074E+01  0.74665343869E+01  0.51100000000E-03 0.  1.
         12    1    3    3    0    0 -0.12701951991E+02  0.19327436263E+02  0.18816532760E+02  0.29815286045E+02  0.00000000000E+00 0. -1.
</event>
<event>
 7    1  0.2455451E-009  0.4778727E+02  0.7816164E-02  0.1312668E+00
        -11   -1    0    0    0    0  0.00000000000E+00  0.00000000000E+00  0.45593999997E+02  0.45594000000E+02  0.51100000000E-03 0.  1.
         11   -1    0    0    0    0 -0.00000000000E+00 -0.00000000000E+00 -0.45593999997E+02  0.45594000000E+02  0.51100000000E-03 0. -1.
    9900012    2    1    2    0    0 -0.62009155295E+01 -0.30925746107E+02  0.29812246821E+02  0.47787272054E+02  0.20000004604E+02 0.  0.
         12    1    1    2    0    0  0.62009155295E+01  0.30925746107E+02 -0.29812246821E+02  0.43400727946E+02  0.00000000000E+00 0. -1.
         11    1    3    3    0    0  0.29530960905E+01 -0.11751662925E+01  0.83031256153E+01  0.88906516960E+01  0.51100000000E-03 0. -1.
        -11    1    3    3    0    0 -0.57008929139E+01 -0.10563566124E+02  0.12789294026E+02  0.17540101232E+02  0.51100000000E-03 0.  1.
         12    1    3    3    0    0 -0.34531187061E+01 -0.19187013690E+02  0.87198271803E+01  0.21356519127E+02  0.00000000000E+00 0. -1.
</event>
<event>
 7    1  0.2455451E-009  0.4778726E+02  0.7816164E-02  0.1312668E+00
        -11   -1    0    0    0    0  0.00000000000E+00  0.00000000000E+00  0.45593999997E+02  0.45594000000E+02  0.51100000000E-03 0. -1.
         11   -1    0    0    0    0 -0.00000000000E+00 -0.00000000000E+00 -0.45593999997E+02  0.45594000000E+02  0.51100000000E-03 0.  1.
    9900012    2    1    2    0    0 -0.32864056255E+02 -0.18849736478E+02 -0.21172288346E+02  0.47787256313E+02  0.19999932831E+02 0.  0.
         12    1    1    2    0    0  0.32864056255E+02  0.18849736478E+02  0.21172288346E+02  0.43400743687E+02  0.00000000000E+00 0. -1.
         11    1    3    3    0    0 -0.25766085682E+01  0.26736451961E+01 -0.24692862745E+00  0.37213256182E+01  0.51100000000E-03 0. -1.
        -11    1    3    3    0    0 -0.21422097617E+02 -0.20805107916E+02 -0.16766483143E+02  0.34247244253E+02  0.51100000000E-03 0.  1.
         12    1    3    3    0    0 -0.88653500702E+01 -0.71827375796E+00 -0.41588765752E+01  0.98186864410E+01  0.00000000000E+00 0. -1.
</event>
<event>
 7    1  0.2455451E-009  0.4778727E+02  0.7816164E-02  0.1312668E+00
        -11   -1    0    0    0    0  0.00000000000E+00  0.00000000000E+00  0.45593999997E+02  0.45594000000E+02  0.51100000000E-03 0.  1.
         11   -1    0    0    0    0 -0.00000000000E+00 -0.00000000000E+00 -0.45593999997E+02  0.45594000000E+02  0.51100000000E-03 0. -1.
    9900012    2    1    2    0    0 -0.12587810527E+02  0.40372849756E+02 -0.97572218940E+01  0.47787270163E+02  0.19999995982E+02 0.  0.
         12    1    1    2    0    0  0.12587810527E+02 -0.40372849756E+02  0.97572218940E+01  0.43400729837E+02  0.00000000000E+00 0. -1.
         11    1    3    3    0    0  0.29889579774E+01  0.33878513752E+00  0.53700271479E+00  0.30556533404E+01  0.51100000000E-03 0. -1.
        -11    1    3    3    0    0 -0.71759195314E+01  0.26682228907E+02 -0.49099139274E+01  0.28063186127E+02  0.51100000000E-03 0.  1.
         12    1    3    3    0    0 -0.84008489734E+01  0.13351835711E+02 -0.53843106815E+01  0.16668430695E+02  0.00000000000E+00 0. -1.
</event>
<event>
 7    1  0.2455451E-009  0.4778728E+02  0.7816164E-02  0.1312668E+00
        -11   -1    0    0    0    0  0.00000000000E+00  0.00000000000E+00  0.45593999997E+02  0.45594000000E+02  0.51100000000E-03 0.  1.
         11   -1    0    0    0    0 -0.00000000000E+00 -0.00000000000E+00 -0.45593999997E+02  0.45594000000E+02  0.51100000000E-03 0. -1.
    9900012    2    1    2    0    0 -0.20488124618E+02  0.37200697430E+02  0.89424533149E+01  0.47787278682E+02  0.20000034824E+02 0.  0.
         12    1    1    2    0    0  0.20488124618E+02 -0.37200697430E+02 -0.89424533149E+01  0.43400721318E+02  0.00000000000E+00 0. -1.
         11    1    3    3    0    0 -0.48562546162E+01  0.74737067552E+01 -0.47481751125E+01  0.10098745898E+02  0.51100000000E-03 0. -1.
        -11    1    3    3    0    0 -0.15539052515E+02  0.20228825757E+02  0.11266220335E+02  0.27885395200E+02  0.51100000000E-03 0.  1.
         12    1    3    3    0    0 -0.92817486266E-01  0.94981649177E+01  0.24244080926E+01  0.98031375839E+01  0.00000000000E+00 0. -1.
</event>
<event>
 7    1  0.2455451E-009  0.4778727E+02  0.7816164E-02  0.1312668E+00
        -11   -1    0    0    0    0  0.00000000000E+00  0.00000000000E+00  0.45593999997E+02  0.45594000000E+02  0.51100000000E-03 0.  1.
         11   -1    0    0    0    0 -0.00000000000E+00 -0.00000000000E+00 -0.45593999997E+02  0.45594000000E+02  0.51100000000E-03 0. -1.
    9900012    2    1    2    0    0  0.31585805834E+02  0.13958927164E+02  0.26288936711E+02  0.47787274532E+02  0.20000015900E+02 0.  0.
         12    1    1    2    0    0 -0.31585805834E+02 -0.13958927164E+02 -0.26288936711E+02  0.43400725468E+02  0.00000000000E+00 0. -1.
         11    1    3    3    0    0  0.22998648203E+02  0.93079272592E+00  0.97509846402E+01  0.24997717816E+02  0.51100000000E-03 0. -1.
        -11    1    3    3    0    0  0.29026824076E+01  0.55829154749E+01  0.72179633313E+01  0.95756725754E+01  0.51100000000E-03 0.  1.
         12    1    3    3    0    0  0.56844752238E+01  0.74452189633E+01  0.93199887395E+01  0.13213884141E+02  0.00000000000E+00 0. -1.
</event>
<event>
 7    1  0.2455451E-009  0.4778727E+02  0.7816164E-02  0.1312668E+00
        -11   -1    0    0    0    0  0.00000000000E+00  0.00000000000E+00  0.45593999997E+02  0.45594000000E+02  0.51100000000E-03 0. -1.
         11   -1    0    0    0    0 -0.00000000000E+00 -0.00000000000E+00 -0.45593999997E+02  0.45594000000E+02  0.51100000000E-03 0.  1.
    9900012    2    1    2    0    0  0.40711969434E+02  0.11017613171E+02  0.10235770553E+02  0.47787271274E+02  0.20000001046E+02 0.  0.
         12    1    1    2    0    0 -0.40711969434E+02 -0.11017613171E+02 -0.10235770553E+02  0.43400728726E+02  0.00000000000E+00 0. -1.
         11    1    3    3    0    0  0.15758870674E+02  0.27156922912E+01 -0.12846758775E+01  0.16042673777E+02  0.51100000000E-03 0.  1.
        -11    1    3    3    0    0  0.90417434305E+00  0.26342080194E+01 -0.21397024810E+01  0.35121090673E+01  0.51100000000E-03 0. -1.
         12    1    3    3    0    0  0.24048924416E+02  0.56677128600E+01  0.13660148911E+02  0.28232488429E+02  0.00000000000E+00 0. -1.
</event>
<event>
 7    1  0.2455451E-009  0.4778727E+02  0.7816164E-02  0.1312668E+00
        -11   -1    0    0    0    0  0.00000000000E+00  0.00000000000E+00  0.45593999997E+02  0.45594000000E+02  0.51100000000E-03 0.  1.
         11   -1    0    0    0    0 -0.00000000000E+00 -0.00000000000E+00 -0.45593999997E+02  0.45594000000E+02  0.51100000000E-03 0. -1.
    9900012    2    1    2    0    0 -0.30772610840E+02 -0.17306902361E+02  0.25241654446E+02  0.47787267674E+02  0.19999984635E+02 0.  0.
         12    1    1    2    0    0  0.30772610840E+02  0.17306902361E+02 -0.25241654446E+02  0.43400732326E+02  0.00000000000E+00 0. -1.
         11    1    3    3    0    0 -0.22455983880E+01 -0.90640906665E+01  0.33664938874E+01  0.99264159235E+01  0.51100000000E-03 0. -1.
        -11    1    3    3    0    0 -0.15392553079E+02  0.43387183670E-02  0.10822430612E+02  0.18816368239E+02  0.51100000000E-03 0.  1.
        -12    1    3    3    0    0 -0.13134459373E+02 -0.82471504131E+01  0.11052729947E+02  0.19044483512E+02  0.00000000000E+00 0.  1.
</event>
<event>
 7    1  0.2455451E-009  0.4778727E+02  0.7816164E-02  0.1312668E+00
        -11   -1    0    0    0    0  0.00000000000E+00  0.00000000000E+00  0.45593999997E+02  0.45594000000E+02  0.51100000000E-03 0.  1.
         11   -1    0    0    0    0 -0.00000000000E+00 -0.00000000000E+00 -0.45593999997E+02  0.45594000000E+02  0.51100000000E-03 0. -1.
    9900012    2    1    2    0    0 -0.38545944935E+02  0.11271628642E+02  0.16455501150E+02  0.47787274185E+02  0.20000014319E+02 0.  0.
         12    1    1    2    0    0  0.38545944935E+02 -0.11271628642E+02 -0.16455501150E+02  0.43400725815E+02  0.00000000000E+00 0. -1.
         11    1    3    3    0    0 -0.12531330327E+02 -0.30684505195E+01  0.35293672928E+01  0.13375577075E+02  0.51100000000E-03 0. -1.
        -11    1    3    3    0    0 -0.34436248301E+01  0.75867405047E+01  0.33069971222E+01  0.89640065642E+01  0.51100000000E-03 0.  1.
        -12    1    3    3    0    0 -0.22570989778E+02  0.67533386574E+01  0.96191367346E+01  0.25447690546E+02  0.00000000000E+00 0.  1.
</event>
<event>
 7    1  0.2455451E-009  0.4778727E+02  0.7816164E-02  0.1312668E+00
        -11   -1    0    0    0    0  0.00000000000E+00  0.00000000000E+00  0.45593999997E+02  0.45594000000E+02  0.51100000000E-03 0.  1.
         11   -1    0    0    0    0 -0.00000000000E+00 -0.00000000000E+00 -0.45593999997E+02  0.45594000000E+02  0.51100000000E-03 0. -1.
    9900012    2    1    2    0    0  0.34043787748E+01 -0.10169555542E+02  0.42054892573E+02  0.47787266780E+02  0.19999980554E+02 0.  0.
         12    1    1    2    0    0 -0.34043787748E+01  0.10169555542E+02 -0.42054892573E+02  0.43400733220E+02  0.00000000000E+00 0. -1.
         11    1    3    3    0    0  0.82636578414E+01 -0.83121339314E+01  0.27970647055E+02  0.30327161231E+02  0.51100000000E-03 0. -1.
        -11    1    3    3    0    0 -0.19157996629E+01 -0.48018387116E+01  0.11369798278E+02  0.12490006265E+02  0.51100000000E-03 0.  1.
         12    1    3    3    0    0 -0.29434794038E+01  0.29444171011E+01  0.27144472400E+01  0.49700992831E+01  0.00000000000E+00 0. -1.
</event>
<event>
 7    1  0.2455451E-009  0.4778727E+02  0.7816164E-02  0.1312668E+00
        -11   -1    0    0    0    0  0.00000000000E+00  0.00000000000E+00  0.45593999997E+02  0.45594000000E+02  0.51100000000E-03 0.  1.
         11   -1    0    0    0    0 -0.00000000000E+00 -0.00000000000E+00 -0.45593999997E+02  0.45594000000E+02  0.51100000000E-03 0. -1.
    9900012    2    1    2    0    0  0.61806345210E+01 -0.42503125980E+02 -0.62375833876E+01  0.47787269503E+02  0.19999992971E+02 0.  0.
         12    1    1    2    0    0 -0.61806345210E+01  0.42503125980E+02  0.62375833876E+01  0.43400730497E+02  0.00000000000E+00 0. -1.
         11    1    3    3    0    0 -0.39381022921E+01 -0.34607010636E+01 -0.18720426580E+01  0.55668344226E+01  0.51100000000E-03 0. -1.
        -11    1    3    3    0    0  0.69751332464E+01 -0.37447021161E+02 -0.55676205646E+01  0.38495847525E+02  0.51100000000E-03 0.  1.
        -12    1    3    3    0    0  0.31436035666E+01 -0.15954037554E+01  0.12020798350E+01  0.37245875553E+01  0.00000000000E+00 0.  1.
</event>
<event>
 7    1  0.2455451E-009  0.4778728E+02  0.7816164E-02  0.1312668E+00
        -11   -1    0    0    0    0  0.00000000000E+00  0.00000000000E+00  0.45593999997E+02  0.45594000000E+02  0.51100000000E-03 0. -1.
         11   -1    0    0    0    0 -0.00000000000E+00 -0.00000000000E+00 -0.45593999997E+02  0.45594000000E+02  0.51100000000E-03 0.  1.
    9900012    2    1    2    0    0  0.22697877776E+02 -0.36718128726E+02  0.44953618521E+01  0.47787275226E+02  0.20000019066E+02 0.  0.
         12    1    1    2    0    0 -0.22697877776E+02  0.36718128726E+02 -0.44953618521E+01  0.43400724774E+02  0.00000000000E+00 0. -1.
         11    1    3    3    0    0  0.92457121055E+01 -0.86262903647E+01  0.35797653635E+01  0.13141948033E+02  0.51100000000E-03 0. -1.
        -11    1    3    3    0    0  0.91467455062E+01 -0.27898946240E+02  0.35814678630E+01  0.29577712335E+02  0.51100000000E-03 0.  1.
        -12    1    3    3    0    0  0.43054201645E+01 -0.19289212191E+00 -0.26658713744E+01  0.50676148579E+01  0.00000000000E+00 0.  1.
</event>
<event>
 7    1  0.2455451E-009  0.4778724E+02  0.7816164E-02  0.1312668E+00
        -11   -1    0    0    0    0  0.00000000000E+00  0.00000000000E+00  0.45593999997E+02  0.45594000000E+02  0.51100000000E-03 0. -1.
         11   -1    0    0    0    0 -0.00000000000E+00 -0.00000000000E+00 -0.45593999997E+02  0.45594000000E+02  0.51100000000E-03 0.  1.
    9900012    2    1    2    0    0  0.32173741984E+02  0.12561991659E+02 -0.26280652645E+02  0.47787239510E+02  0.19999856219E+02 0.  0.
         12    1    1    2    0    0 -0.32173741984E+02 -0.12561991659E+02  0.26280652645E+02  0.43400760490E+02  0.00000000000E+00 0. -1.
         11    1    3    3    0    0  0.10779672389E+02  0.36658620524E+01  0.45533851827E-01  0.11386042113E+02  0.51100000000E-03 0. -1.
        -11    1    3    3    0    0  0.22395757306E+02  0.80281329837E+01 -0.24569855439E+02  0.34200857607E+02  0.51100000000E-03 0.  1.
         12    1    3    3    0    0 -0.10016877104E+01  0.86799662324E+00 -0.17563310575E+01  0.22003397898E+01  0.00000000000E+00 0. -1.
</event>
<event>
 7    1  0.2455451E-009  0.4778727E+02  0.7816164E-02  0.1312668E+00
        -11   -1    0    0    0    0  0.00000000000E+00  0.00000000000E+00  0.45593999997E+02  0.45594000000E+02  0.51100000000E-03 0.  1.
         11   -1    0    0    0    0 -0.00000000000E+00 -0.00000000000E+00 -0.45593999997E+02  0.45594000000E+02  0.51100000000E-03 0. -1.
    9900012    2    1    2    0    0  0.14993799504E+02 -0.20280709692E+01  0.40677957331E+02  0.47787270651E+02  0.19999998206E+02 0.  0.
         12    1    1    2    0    0 -0.14993799504E+02  0.20280709692E+01 -0.40677957331E+02  0.43400729349E+02  0.00000000000E+00 0. -1.
         11    1    3    3    0    0 -0.19962102709E+00 -0.28414015843E+00 -0.15182662404E+00  0.37899309885E+00  0.51100000000E-03 0. -1.
        -11    1    3    3    0    0  0.13206315205E+02 -0.88991307708E+01  0.21931667762E+02  0.27103493148E+02  0.51100000000E-03 0.  1.
        -12    1    3    3    0    0  0.19871053263E+01  0.71551999600E+01  0.18898116193E+02  0.20304784404E+02  0.00000000000E+00 0.  1.
</event>
<event>
 7    1  0.2455451E-009  0.4778727E+02  0.7816164E-02  0.1312668E+00
        -11   -1    0    0    0    0  0.00000000000E+00  0.00000000000E+00  0.45593999997E+02  0.45594000000E+02  0.51100000000E-03 0. -1.
         11   -1    0    0    0    0 -0.00000000000E+00 -0.00000000000E+00 -0.45593999997E+02  0.45594000000E+02  0.51100000000E-03 0.  1.
    9900012    2    1    2    0    0 -0.12794382851E+02  0.35193600220E+02  0.21939404123E+02  0.47787272100E+02  0.20000004813E+02 0.  0.
         12    1    1    2    0    0  0.12794382851E+02 -0.35193600220E+02 -0.21939404123E+02  0.43400727900E+02  0.00000000000E+00 0. -1.
         11    1    3    3    0    0 -0.37572779459E+01  0.11535450550E+01 -0.16155023830E+01  0.42494296049E+01  0.51100000000E-03 0. -1.
        -11    1    3    3    0    0 -0.10295079064E+02  0.19849945145E+02  0.13914676200E+02  0.26336802942E+02  0.51100000000E-03 0.  1.
         12    1    3    3    0    0  0.12579741591E+01  0.14190110020E+02  0.96402303063E+01  0.17201039553E+02  0.00000000000E+00 0. -1.
</event>
<event>
 7    1  0.2455451E-009  0.4778728E+02  0.7816164E-02  0.1312668E+00
        -11   -1    0    0    0    0  0.00000000000E+00  0.00000000000E+00  0.45593999997E+02  0.45594000000E+02  0.51100000000E-03 0.  1.
         11   -1    0    0    0    0 -0.00000000000E+00 -0.00000000000E+00 -0.45593999997E+02  0.45594000000E+02  0.51100000000E-03 0. -1.
    9900012    2    1    2    0    0 -0.19064987871E+01 -0.34174807573E+02  0.26684648025E+02  0.47787278226E+02  0.20000032745E+02 0.  0.
         12    1    1    2    0    0  0.19064987871E+01  0.34174807573E+02 -0.26684648025E+02  0.43400721774E+02  0.00000000000E+00 0. -1.
         11    1    3    3    0    0 -0.64073670777E+01 -0.13444065264E+02  0.15295744586E+02  0.21348467073E+02  0.51100000000E-03 0. -1.
        -11    1    3    3    0    0  0.42392532158E+01 -0.24163888562E+01  0.51366755797E+01  0.70848880869E+01  0.51100000000E-03 0.  1.
         12    1    3    3    0    0  0.26161507483E+00 -0.18314353453E+02  0.62522278591E+01  0.19353923066E+02  0.00000000000E+00 0. -1.
</event>
<event>
 7    1  0.2455451E-009  0.4778727E+02  0.7816164E-02  0.1312668E+00
        -11   -1    0    0    0    0  0.00000000000E+00  0.00000000000E+00  0.45593999997E+02  0.45594000000E+02  0.51100000000E-03 0.  1.
         11   -1    0    0    0    0 -0.00000000000E+00 -0.00000000000E+00 -0.45593999997E+02  0.45594000000E+02  0.51100000000E-03 0. -1.
    9900012    2    1    2    0    0  0.11473616991E+02  0.15883111032E+02  0.38726039435E+02  0.47787271513E+02  0.20000002135E+02 0.  0.
         12    1    1    2    0    0 -0.11473616991E+02 -0.15883111032E+02 -0.38726039435E+02  0.43400728487E+02  0.00000000000E+00 0. -1.
         11    1    3    3    0    0  0.12652227887E+02  0.39966262701E+01  0.16158302471E+02  0.20907956167E+02  0.51100000000E-03 0. -1.
        -11    1    3    3    0    0  0.11773236312E+01  0.10790803961E+02  0.12854437680E+02  0.16824509187E+02  0.51100000000E-03 0.  1.
        -12    1    3    3    0    0 -0.23559345280E+01  0.10956808015E+01  0.97132992838E+01  0.10054806159E+02  0.00000000000E+00 0.  1.
</event>
<event>
 7    1  0.2455451E-009  0.4778727E+02  0.7816164E-02  0.1312668E+00
        -11   -1    0    0    0    0  0.00000000000E+00  0.00000000000E+00  0.45593999997E+02  0.45594000000E+02  0.51100000000E-03 0.  1.
         11   -1    0    0    0    0 -0.00000000000E+00 -0.00000000000E+00 -0.45593999997E+02  0.45594000000E+02  0.51100000000E-03 0. -1.
    9900012    2    1    2    0    0  0.13389974278E+02 -0.24822878139E+02  0.32987219070E+02  0.47787270603E+02  0.19999997986E+02 0.  0.
         12    1    1    2    0    0 -0.13389974278E+02  0.24822878139E+02 -0.32987219070E+02  0.43400729397E+02  0.00000000000E+00 0. -1.
         11    1    3    3    0    0 -0.24473120168E+01 -0.25254128052E+01  0.96499963188E+01  0.10270806938E+02  0.51100000000E-03 0. -1.
        -11    1    3    3    0    0  0.13529087258E+02 -0.11587396308E+02  0.18020582876E+02  0.25338614065E+02  0.51100000000E-03 0.  1.
         12    1    3    3    0    0  0.23081990364E+01 -0.10710069026E+02  0.53166398742E+01  0.12177849600E+02  0.00000000000E+00 0. -1.
</event>
<event>
 7    1  0.2455451E-009  0.4778727E+02  0.7816164E-02  0.1312668E+00
        -11   -1    0    0    0    0  0.00000000000E+00  0.00000000000E+00  0.45593999997E+02  0.45594000000E+02  0.51100000000E-03 0. -1.
         11   -1    0    0    0    0 -0.00000000000E+00 -0.00000000000E+00 -0.45593999997E+02  0.45594000000E+02  0.51100000000E-03 0.  1.
    9900012    2    1    2    0    0 -0.23273614564E+02  0.32389161463E+01 -0.36489332723E+02  0.47787272872E+02  0.20000008333E+02 0.  0.
         12    1    1    2    0    0  0.23273614564E+02 -0.32389161463E+01  0.36489332723E+02  0.43400727128E+02  0.00000000000E+00 0. -1.
         11    1    3    3    0    0 -0.17725477370E+02  0.44835501411E+01 -0.10315703119E+02  0.20993058399E+02  0.51100000000E-03 0. -1.
        -11    1    3    3    0    0 -0.21564493757E+01 -0.40785349200E+00 -0.11782208855E+02  0.11984868132E+02  0.51100000000E-03 0.  1.
         12    1    3    3    0    0 -0.33916878189E+01 -0.83678050288E+00 -0.14391420749E+02  0.14809346341E+02  0.00000000000E+00 0. -1.
</event>
<event>
 7    1  0.2455451E-009  0.4778727E+02  0.7816164E-02  0.1312668E+00
        -11   -1    0    0    0    0  0.00000000000E+00  0.00000000000E+00  0.45593999997E+02  0.45594000000E+02  0.51100000000E-03 0.  1.
         11   -1    0    0    0    0 -0.00000000000E+00 -0.00000000000E+00 -0.45593999997E+02  0.45594000000E+02  0.51100000000E-03 0. -1.
    9900012    2    1    2    0    0  0.27834701109E+02 -0.14095168330E+01  0.33269595423E+02  0.47787270708E+02  0.19999998465E+02 0.  0.
         12    1    1    2    0    0 -0.27834701109E+02  0.14095168330E+01 -0.33269595423E+02  0.43400729292E+02  0.00000000000E+00 0. -1.
         11    1    3    3    0    0  0.12453809972E+02  0.16334330537E+01  0.24722302632E+02  0.27730087163E+02  0.51100000000E-03 0. -1.
        -11    1    3    3    0    0 -0.72979936738E+00 -0.18402615317E+01  0.11402774173E+01  0.22846011624E+01  0.51100000000E-03 0.  1.
         12    1    3    3    0    0  0.16110690504E+02 -0.12026883550E+01  0.74070153730E+01  0.17772582382E+02  0.00000000000E+00 0. -1.
</event>
<event>
 7    1  0.2455451E-009  0.4778727E+02  0.7816164E-02  0.1312668E+00
        -11   -1    0    0    0    0  0.00000000000E+00  0.00000000000E+00  0.45593999997E+02  0.45594000000E+02  0.51100000000E-03 0.  1.
         11   -1    0    0    0    0 -0.00000000000E+00 -0.00000000000E+00 -0.45593999997E+02  0.45594000000E+02  0.51100000000E-03 0. -1.
    9900012    2    1    2    0    0  0.41705157653E+02  0.11225631120E+02  0.42764849142E+01  0.47787270834E+02  0.19999999042E+02 0.  0.
         12    1    1    2    0    0 -0.41705157653E+02 -0.11225631120E+02 -0.42764849142E+01  0.43400729166E+02  0.00000000000E+00 0. -1.
         11    1    3    3    0    0  0.11127719766E+02 -0.14889967189E+00  0.23318991672E+00  0.11131158794E+02  0.51100000000E-03 0. -1.
        -11    1    3    3    0    0  0.16590056319E+02  0.13364835326E+02  0.65909226688E+01  0.22299978786E+02  0.51100000000E-03 0.  1.
        -12    1    3    3    0    0  0.13987381567E+02 -0.19903045343E+01 -0.25476276713E+01  0.14356133254E+02  0.00000000000E+00 0.  1.
</event>
<event>
 7    1  0.2455451E-009  0.4778727E+02  0.7816164E-02  0.1312668E+00
        -11   -1    0    0    0    0  0.00000000000E+00  0.00000000000E+00  0.45593999997E+02  0.45594000000E+02  0.51100000000E-03 0.  1.
         11   -1    0    0    0    0 -0.00000000000E+00 -0.00000000000E+00 -0.45593999997E+02  0.45594000000E+02  0.51100000000E-03 0. -1.
    9900012    2    1    2    0    0 -0.29300066840E+02 -0.28042511112E+02  0.15451443121E+02  0.47787269122E+02  0.19999991233E+02 0.  0.
         12    1    1    2    0    0  0.29300066840E+02  0.28042511112E+02 -0.15451443121E+02  0.43400730878E+02  0.00000000000E+00 0. -1.
         11    1    3    3    0    0  0.42027630678E+00 -0.51002912203E+01 -0.46112303764E+00  0.51383107558E+01  0.51100000000E-03 0. -1.
        -11    1    3    3    0    0 -0.29437087752E+02 -0.17860819541E+02  0.14554350027E+02  0.37381547788E+02  0.51100000000E-03 0.  1.
        -12    1    3    3    0    0 -0.28325539393E+00 -0.50814003503E+01  0.13582161316E+01  0.52674105781E+01  0.00000000000E+00 0.  1.
</event>
<event>
 7    1  0.2455451E-009  0.4778728E+02  0.7816164E-02  0.1312668E+00
        -11   -1    0    0    0    0  0.00000000000E+00  0.00000000000E+00  0.45593999997E+02  0.45594000000E+02  0.51100000000E-03 0.  1.
         11   -1    0    0    0    0 -0.00000000000E+00 -0.00000000000E+00 -0.45593999997E+02  0.45594000000E+02  0.51100000000E-03 0. -1.
    9900012    2    1    2    0    0 -0.28051194021E+02  0.31498422393E+02  0.10227543860E+02  0.47787277049E+02  0.20000027378E+02 0.  0.
         12    1    1    2    0    0  0.28051194021E+02 -0.31498422393E+02 -0.10227543860E+02  0.43400722951E+02  0.00000000000E+00 0. -1.
         11    1    3    3    0    0 -0.16537773625E+02  0.87626191197E+01  0.77852593372E+01  0.20270464068E+02  0.51100000000E-03 0. -1.
        -11    1    3    3    0    0 -0.94350497526E+01  0.18719217610E+02  0.59531993942E+01  0.21791508783E+02  0.51100000000E-03 0.  1.
         12    1    3    3    0    0 -0.20783706430E+01  0.40165856640E+01 -0.35109148717E+01  0.57253041982E+01  0.00000000000E+00 0. -1.
</event>
<event>
 7    1  0.2455451E-009  0.4778726E+02  0.7816164E-02  0.1312668E+00
        -11   -1    0    0    0    0  0.00000000000E+00  0.00000000000E+00  0.45593999997E+02  0.45594000000E+02  0.51100000000E-03 0.  1.
         11   -1    0    0    0    0 -0.00000000000E+00 -0.00000000000E+00 -0.45593999997E+02  0.45594000000E+02  0.51100000000E-03 0. -1.
    9900012    2    1    2    0    0 -0.42670253785E+02 -0.75857353367E+01 -0.23086595360E+01  0.47787264435E+02  0.19999969866E+02 0.  0.
         12    1    1    2    0    0  0.42670253785E+02  0.75857353367E+01  0.23086595360E+01  0.43400735565E+02  0.00000000000E+00 0. -1.
         11    1    3    3    0    0 -0.18636018214E+02 -0.17590015862E+01 -0.77270547422E+01  0.20250991005E+02  0.51100000000E-03 0. -1.
        -11    1    3    3    0    0 -0.24101059861E+02 -0.45323349474E+01  0.69889377057E+01  0.25499968568E+02  0.51100000000E-03 0.  1.
         12    1    3    3    0    0  0.66824288647E-01 -0.12943988031E+01 -0.15705424994E+01  0.20363048616E+01  0.00000000000E+00 0. -1.
</event>
<event>
 7    1  0.2455451E-009  0.4778727E+02  0.7816164E-02  0.1312668E+00
        -11   -1    0    0    0    0  0.00000000000E+00  0.00000000000E+00  0.45593999997E+02  0.45594000000E+02  0.51100000000E-03 0.  1.
         11   -1    0    0    0    0 -0.00000000000E+00 -0.00000000000E+00 -0.45593999997E+02  0.45594000000E+02  0.51100000000E-03 0. -1.
    9900012    2    1    2    0    0 -0.39581047018E+02  0.15914775703E+02 -0.79802231382E+01  0.47787270398E+02  0.19999997050E+02 0.  0.
         12    1    1    2    0    0  0.39581047018E+02 -0.15914775703E+02  0.79802231382E+01  0.43400729602E+02  0.00000000000E+00 0. -1.
         11    1    3    3    0    0 -0.71402959055E+01 -0.91031270479E+00 -0.59538338689E+01  0.93413399916E+01  0.51100000000E-03 0. -1.
        -11    1    3    3    0    0 -0.23026811406E+02  0.17444041883E+02 -0.52524986427E+00  0.28892984069E+02  0.51100000000E-03 0.  1.
        -12    1    3    3    0    0 -0.94139397064E+01 -0.61895347524E+00 -0.15011394050E+01  0.95529463367E+01  0.00000000000E+00 0.  1.
</event>
<event>
 7    1  0.2455451E-009  0.4778728E+02  0.7816164E-02  0.1312668E+00
        -11   -1    0    0    0    0  0.00000000000E+00  0.00000000000E+00  0.45593999997E+02  0.45594000000E+02  0.51100000000E-03 0.  1.
         11   -1    0    0    0    0 -0.00000000000E+00 -0.00000000000E+00 -0.45593999997E+02  0.45594000000E+02  0.51100000000E-03 0. -1.
    9900012    2    1    2    0    0  0.24254216425E+02  0.21094594389E+02  0.29161159610E+02  0.47787283916E+02  0.20000058685E+02 0.  0.
         12    1    1    2    0    0 -0.24254216425E+02 -0.21094594389E+02 -0.29161159610E+02  0.43400716084E+02  0.00000000000E+00 0. -1.
         11    1    3    3    0    0  0.44559809671E+01  0.18741738081E+01  0.67668300834E+01  0.83161459511E+01  0.51100000000E-03 0. -1.
        -11    1    3    3    0    0  0.18529587129E+02  0.81571090427E+01  0.92927208982E+01  0.22276415535E+02  0.51100000000E-03 0.  1.
        -12    1    3    3    0    0  0.12686483282E+01  0.11063311538E+02  0.13101608629E+02  0.17194722430E+02  0.00000000000E+00 0.  1.
</event>
<event>
 7    1  0.2455451E-009  0.4778726E+02  0.7816164E-02  0.1312668E+00
        -11   -1    0    0    0    0  0.00000000000E+00  0.00000000000E+00  0.45593999997E+02  0.45594000000E+02  0.51100000000E-03 0.  1.
         11   -1    0    0    0    0 -0.00000000000E+00 -0.00000000000E+00 -0.45593999997E+02  0.45594000000E+02  0.51100000000E-03 0. -1.
    9900012    2    1    2    0    0 -0.56973351218E+01 -0.12516035360E+02  0.41164463518E+02  0.47787264691E+02  0.19999971033E+02 0.  0.
         12    1    1    2    0    0  0.56973351218E+01  0.12516035360E+02 -0.41164463518E+02  0.43400735309E+02  0.00000000000E+00 0. -1.
         11    1    3    3    0    0 -0.61574676698E+00  0.26848819699E+01  0.13684667860E+02  0.13959150045E+02  0.51100000000E-03 0. -1.
        -11    1    3    3    0    0 -0.76164977571E+01 -0.14578444234E+02  0.19935571597E+02  0.25845097979E+02  0.51100000000E-03 0.  1.
        -12    1    3    3    0    0  0.25349094024E+01 -0.62247309621E+00  0.75442240609E+01  0.79830166676E+01  0.00000000000E+00 0.  1.
</event>
<event>
 7    1  0.2455451E-009  0.4778727E+02  0.7816164E-02  0.1312668E+00
        -11   -1    0    0    0    0  0.00000000000E+00  0.00000000000E+00  0.45593999997E+02  0.45594000000E+02  0.51100000000E-03 0.  1.
         11   -1    0    0    0    0 -0.00000000000E+00 -0.00000000000E+00 -0.45593999997E+02  0.45594000000E+02  0.51100000000E-03 0. -1.
    9900012    2    1    2    0    0  0.17165556350E+02 -0.35369555615E+02  0.18383734341E+02  0.47787268698E+02  0.19999989303E+02 0.  0.
         12    1    1    2    0    0 -0.17165556350E+02  0.35369555615E+02 -0.18383734341E+02  0.43400731302E+02  0.00000000000E+00 0. -1.
         11    1    3    3    0    0  0.29077946196E+01 -0.82106799177E+01  0.12416783207E+02  0.15167301663E+02  0.51100000000E-03 0. -1.
        -11    1    3    3    0    0  0.43289500475E+01 -0.11028748671E+02  0.67999894370E+01  0.13660635504E+02  0.51100000000E-03 0.  1.
         12    1    3    3    0    0  0.99288116824E+01 -0.16130127026E+02 -0.83303830313E+00  0.18959331532E+02  0.00000000000E+00 0. -1.
</event>
<event>
 7    1  0.2455451E-009  0.4778727E+02  0.7816164E-02  0.1312668E+00
        -11   -1    0    0    0    0  0.00000000000E+00  0.00000000000E+00  0.45593999997E+02  0.45594000000E+02  0.51100000000E-03 0.  1.
         11   -1    0    0    0    0 -0.00000000000E+00 -0.00000000000E+00 -0.45593999997E+02  0.45594000000E+02  0.51100000000E-03 0. -1.
    9900012    2    1    2    0    0  0.16098763197E+02  0.58957879118E+01  0.39870954186E+02  0.47787268678E+02  0.19999989212E+02 0.  0.
         12    1    1    2    0    0 -0.16098763197E+02 -0.58957879118E+01 -0.39870954186E+02  0.43400731322E+02  0.00000000000E+00 0. -1.
         11    1    3    3    0    0  0.11092715438E+02 -0.18349885616E+01  0.24241071350E+02  0.26721621569E+02  0.51100000000E-03 0.  1.
        -11    1    3    3    0    0  0.25470057338E+01  0.91981232014E+01  0.15495428758E+02  0.18198929125E+02  0.51100000000E-03 0. -1.
        -12    1    3    3    0    0  0.24590420253E+01 -0.14673467280E+01  0.13445407727E+00  0.28667179842E+01  0.00000000000E+00 0.  1.
</event>
<event>
 7    1  0.2455451E-009  0.4778727E+02  0.7816164E-02  0.1312668E+00
        -11   -1    0    0    0    0  0.00000000000E+00  0.00000000000E+00  0.45593999997E+02  0.45594000000E+02  0.51100000000E-03 0.  1.
         11   -1    0    0    0    0 -0.00000000000E+00 -0.00000000000E+00 -0.45593999997E+02  0.45594000000E+02  0.51100000000E-03 0. -1.
    9900012    2    1    2    0    0 -0.21568097748E+01 -0.25596329237E+02  0.34982847424E+02  0.47787268293E+02  0.19999987457E+02 0.  0.
         12    1    1    2    0    0  0.21568097748E+01  0.25596329237E+02 -0.34982847424E+02  0.43400731707E+02  0.00000000000E+00 0. -1.
         11    1    3    3    0    0 -0.92793468077E+01 -0.16403998580E+02  0.24345504370E+02  0.30788001395E+02  0.51100000000E-03 0. -1.
        -11    1    3    3    0    0  0.55121415848E+01 -0.71779050078E+01  0.40309112654E+01  0.99072837369E+01  0.51100000000E-03 0.  1.
        -12    1    3    3    0    0  0.16103954481E+01 -0.20144256486E+01  0.66064317878E+01  0.70919831613E+01  0.00000000000E+00 0.  1.
</event>
<event>
 7    1  0.2455451E-009  0.4778728E+02  0.7816164E-02  0.1312668E+00
        -11   -1    0    0    0    0  0.00000000000E+00  0.00000000000E+00  0.45593999997E+02  0.45594000000E+02  0.51100000000E-03 0.  1.
         11   -1    0    0    0    0 -0.00000000000E+00 -0.00000000000E+00 -0.45593999997E+02  0.45594000000E+02  0.51100000000E-03 0. -1.
    9900012    2    1    2    0    0 -0.58453626578E+01  0.37424495249E+02  0.21186355082E+02  0.47787277070E+02  0.20000027472E+02 0.  0.
         12    1    1    2    0    0  0.58453626578E+01 -0.37424495249E+02 -0.21186355082E+02  0.43400722930E+02  0.00000000000E+00 0. -1.
         11    1    3    3    0    0  0.14613576969E+01  0.22426564541E+02  0.43866895918E+01  0.22898240309E+02  0.51100000000E-03 0. -1.
        -11    1    3    3    0    0 -0.94536859530E+00  0.55039190075E+01  0.14817702438E+01  0.57777581758E+01  0.51100000000E-03 0.  1.
         12    1    3    3    0    0 -0.63613517594E+01  0.94940117005E+01  0.15317895246E+02  0.19111278585E+02  0.00000000000E+00 0. -1.
</event>
<event>
 7    1  0.2455451E-009  0.4778727E+02  0.7816164E-02  0.1312668E+00
        -11   -1    0    0    0    0  0.00000000000E+00  0.00000000000E+00  0.45593999997E+02  0.45594000000E+02  0.51100000000E-03 0.  1.
         11   -1    0    0    0    0 -0.00000000000E+00 -0.00000000000E+00 -0.45593999997E+02  0.45594000000E+02  0.51100000000E-03 0. -1.
    9900012    2    1    2    0    0 -0.22977653945E+02 -0.23160045374E+02  0.28622775909E+02  0.47787267480E+02  0.19999983748E+02 0.  0.
         12    1    1    2    0    0  0.22977653945E+02  0.23160045374E+02 -0.28622775909E+02  0.43400732520E+02  0.00000000000E+00 0. -1.
         11    1    3    3    0    0 -0.16705206526E+02 -0.96929687365E+01  0.23319851952E+02  0.30279251367E+02  0.51100000000E-03 0. -1.
        -11    1    3    3    0    0 -0.35397747297E+01 -0.74760541974E+01  0.68546951134E+01  0.10742822574E+02  0.51100000000E-03 0.  1.
         12    1    3    3    0    0 -0.27326726885E+01 -0.59910224402E+01 -0.15517711560E+01  0.67651935392E+01  0.00000000000E+00 0. -1.
</event>
<event>
 7    1  0.2455451E-009  0.4778727E+02  0.7816164E-02  0.1312668E+00
        -11   -1    0    0    0    0  0.00000000000E+00  0.00000000000E+00  0.45593999997E+02  0.45594000000E+02  0.51100000000E-03 0.  1.
         11   -1    0    0    0    0 -0.00000000000E+00 -0.00000000000E+00 -0.45593999997E+02  0.45594000000E+02  0.51100000000E-03 0. -1.
    9900012    2    1    2    0    0  0.59987719689E+01 -0.40833480437E+02 -0.13426280442E+02  0.47787269635E+02  0.19999993572E+02 0.  0.
         12    1    1    2    0    0 -0.59987719689E+01  0.40833480437E+02  0.13426280442E+02  0.43400730365E+02  0.00000000000E+00 0. -1.
         11    1    3    3    0    0  0.81338968633E+00 -0.12672663159E+02 -0.12016198058E+02  0.17482763236E+02  0.51100000000E-03 0. -1.
        -11    1    3    3    0    0  0.24255924981E+01 -0.13031810860E+02  0.42454581455E+01  0.13918890343E+02  0.51100000000E-03 0.  1.
         12    1    3    3    0    0  0.27597897844E+01 -0.15129006418E+02 -0.56555405292E+01  0.16385616056E+02  0.00000000000E+00 0. -1.
</event>
<event>
 7    1  0.2455451E-009  0.4778729E+02  0.7816164E-02  0.1312668E+00
        -11   -1    0    0    0    0  0.00000000000E+00  0.00000000000E+00  0.45593999997E+02  0.45594000000E+02  0.51100000000E-03 0.  1.
         11   -1    0    0    0    0 -0.00000000000E+00 -0.00000000000E+00 -0.45593999997E+02  0.45594000000E+02  0.51100000000E-03 0. -1.
    9900012    2    1    2    0    0  0.27751305511E+02  0.28774835734E+02  0.16896615558E+02  0.47787288641E+02  0.20000080231E+02 0.  0.
         12    1    1    2    0    0 -0.27751305511E+02 -0.28774835734E+02 -0.16896615558E+02  0.43400711359E+02  0.00000000000E+00 0. -1.
         11    1    3    3    0    0  0.14352928215E+02  0.13275041666E+02  0.40474268107E+00  0.19554976259E+02  0.51100000000E-03 0.  1.
        -11    1    3    3    0    0 -0.14661005013E+01  0.40175810691E-01  0.11357849285E+01  0.18550127871E+01  0.51100000000E-03 0. -1.
         12    1    3    3    0    0  0.14864477797E+02  0.15459618258E+02  0.15356087949E+02  0.26377299596E+02  0.00000000000E+00 0. -1.
</event>
<event>
 7    1  0.2455451E-009  0.4778727E+02  0.7816164E-02  0.1312668E+00
        -11   -1    0    0    0    0  0.00000000000E+00  0.00000000000E+00  0.45593999997E+02  0.45594000000E+02  0.51100000000E-03 0.  1.
         11   -1    0    0    0    0 -0.00000000000E+00 -0.00000000000E+00 -0.45593999997E+02  0.45594000000E+02  0.51100000000E-03 0. -1.
    9900012    2    1    2    0    0 -0.17738341459E+02 -0.39526718662E+02  0.25716696557E+01  0.47787265781E+02  0.19999976003E+02 0.  0.
         12    1    1    2    0    0  0.17738341459E+02  0.39526718662E+02 -0.25716696557E+01  0.43400734219E+02  0.00000000000E+00 0. -1.
         11    1    3    3    0    0  0.34740504198E+01 -0.35869047782E+01  0.13802675043E+01  0.51807384466E+01  0.51100000000E-03 0. -1.
        -11    1    3    3    0    0 -0.11348511730E+02 -0.22412088611E+02 -0.31300687649E+01  0.25315761200E+02  0.51100000000E-03 0.  1.
        -12    1    3    3    0    0 -0.98638801489E+01 -0.13527725273E+02  0.43214709162E+01  0.17290766135E+02  0.00000000000E+00 0.  1.
</event>
<event>
 7    1  0.2455451E-009  0.4778727E+02  0.7816164E-02  0.1312668E+00
        -11   -1    0    0    0    0  0.00000000000E+00  0.00000000000E+00  0.45593999997E+02  0.45594000000E+02  0.51100000000E-03 0.  1.
         11   -1    0    0    0    0 -0.00000000000E+00 -0.00000000000E+00 -0.45593999997E+02  0.45594000000E+02  0.51100000000E-03 0. -1.
    9900012    2    1    2    0    0  0.36884670044E+02  0.22780749439E+02  0.20449676932E+01  0.47787270489E+02  0.19999997465E+02 0.  0.
         12    1    1    2    0    0 -0.36884670044E+02 -0.22780749439E+02 -0.20449676932E+01  0.43400729511E+02  0.00000000000E+00 0. -1.
         11    1    3    3    0    0  0.13460287032E+02  0.39606879330E+01 -0.11849351008E+00  0.14031408228E+02  0.51100000000E-03 0. -1.
        -11    1    3    3    0    0  0.81306350855E+01  0.57940998331E+01  0.80466911159E+01  0.12822950438E+02  0.51100000000E-03 0.  1.
        -12    1    3    3    0    0  0.15293747926E+02  0.13025961673E+02 -0.58832299127E+01  0.20932911822E+02  0.00000000000E+00 0.  1.
</event>
<event>
 7    1  0.2455451E-009  0.4778727E+02  0.7816164E-02  0.1312668E+00
        -11   -1    0    0    0    0  0.00000000000E+00  0.00000000000E+00  0.45593999997E+02  0.45594000000E+02  0.51100000000E-03 0.  1.
         11   -1    0    0    0    0 -0.00000000000E+00 -0.00000000000E+00 -0.45593999997E+02  0.45594000000E+02  0.51100000000E-03 0. -1.
    9900012    2    1    2    0    0  0.21877264305E+01  0.33413437173E+02  0.27611215433E+02  0.47787272491E+02  0.20000006595E+02 0.  0.
         12    1    1    2    0    0 -0.21877264305E+01 -0.33413437173E+02 -0.27611215433E+02  0.43400727509E+02  0.00000000000E+00 0. -1.
         11    1    3    3    0    0 -0.56290126267E+01  0.68116041097E+01  0.64610261037E+01  0.10946624698E+02  0.51100000000E-03 0.  1.
        -11    1    3    3    0    0  0.40507985811E+01  0.24552639577E+02  0.20982408576E+02  0.32550000756E+02  0.51100000000E-03 0. -1.
         12    1    3    3    0    0  0.37659404761E+01  0.20491934859E+01  0.16778075395E+00  0.42906470367E+01  0.00000000000E+00 0. -1.
</event>
<event>
 7    1  0.2455451E-009  0.4778727E+02  0.7816164E-02  0.1312668E+00
        -11   -1    0    0    0    0  0.00000000000E+00  0.00000000000E+00  0.45593999997E+02  0.45594000000E+02  0.51100000000E-03 0.  1.
         11   -1    0    0    0    0 -0.00000000000E+00 -0.00000000000E+00 -0.45593999997E+02  0.45594000000E+02  0.51100000000E-03 0. -1.
    9900012    2    1    2    0    0 -0.29220088062E+01 -0.41029006925E+02  0.13845785255E+02  0.47787270582E+02  0.19999997892E+02 0.  0.
         12    1    1    2    0    0  0.29220088062E+01  0.41029006925E+02 -0.13845785255E+02  0.43400729418E+02  0.00000000000E+00 0. -1.
         11    1    3    3    0    0 -0.49461659325E+01 -0.59334229331E+01  0.24668301401E+01  0.81089651828E+01  0.51100000000E-03 0. -1.
        -11    1    3    3    0    0  0.73310295881E+01 -0.25125321308E+02  0.10962212494E+02  0.28375973440E+02  0.51100000000E-03 0.  1.
        -12    1    3    3    0    0 -0.53068724618E+01 -0.99702626832E+01  0.41674262104E+00  0.11302331959E+02  0.00000000000E+00 0.  1.
</event>
<event>
 7    1  0.2455451E-009  0.4778728E+02  0.7816164E-02  0.1312668E+00
        -11   -1    0    0    0    0  0.00000000000E+00  0.00000000000E+00  0.45593999997E+02  0.45594000000E+02  0.51100000000E-03 0.  1.
         11   -1    0    0    0    0 -0.00000000000E+00 -0.00000000000E+00 -0.45593999997E+02  0.45594000000E+02  0.51100000000E-03 0. -1.
    9900012    2    1    2    0    0 -0.18931679774E+02 -0.13789530934E+02  0.36538515293E+02  0.47787276938E+02  0.20000026873E+02 0.  0.
         12    1    1    2    0    0  0.18931679774E+02  0.13789530934E+02 -0.36538515293E+02  0.43400723062E+02  0.00000000000E+00 0. -1.
         11    1    3    3    0    0 -0.12507249186E+02 -0.68634359767E+01  0.18408362418E+02  0.23289608043E+02  0.51100000000E-03 0. -1.
        -11    1    3    3    0    0 -0.28474550052E+01 -0.10705826661E+02  0.14006881362E+02  0.17858204004E+02  0.51100000000E-03 0.  1.
         12    1    3    3    0    0 -0.35769755827E+01  0.37797317041E+01  0.41232715129E+01  0.66394648914E+01  0.00000000000E+00 0. -1.
</event>
<event>
 7    1  0.2455451E-009  0.4778728E+02  0.7816164E-02  0.1312668E+00
        -11   -1    0    0    0    0  0.00000000000E+00  0.00000000000E+00  0.45593999997E+02  0.45594000000E+02  0.51100000000E-03 0.  1.
         11   -1    0    0    0    0 -0.00000000000E+00 -0.00000000000E+00 -0.45593999997E+02  0.45594000000E+02  0.51100000000E-03 0. -1.
    9900012    2    1    2    0    0  0.11749821827E+02 -0.12867135439E+01  0.41760132549E+02  0.47787278632E+02  0.20000034595E+02 0.  0.
         12    1    1    2    0    0 -0.11749821827E+02  0.12867135439E+01 -0.41760132549E+02  0.43400721368E+02  0.00000000000E+00 0. -1.
         11    1    3    3    0    0  0.88562609650E+01  0.34596749497E+01  0.84399630977E+01  0.12713602416E+02  0.51100000000E-03 0. -1.
        -11    1    3    3    0    0  0.44648481535E+01 -0.59108605802E+01  0.31639198779E+02  0.32494800222E+02  0.51100000000E-03 0.  1.
         12    1    3    3    0    0 -0.15712872910E+01  0.11644720866E+01  0.16809706731E+01  0.25788759945E+01  0.00000000000E+00 0. -1.
</event>
<event>
 7    1  0.2455451E-009  0.4778727E+02  0.7816164E-02  0.1312668E+00
        -11   -1    0    0    0    0  0.00000000000E+00  0.00000000000E+00  0.45593999997E+02  0.45594000000E+02  0.51100000000E-03 0.  1.
         11   -1    0    0    0    0 -0.00000000000E+00 -0.00000000000E+00 -0.45593999997E+02  0.45594000000E+02  0.51100000000E-03 0. -1.
    9900012    2    1    2    0    0  0.68263610904E+01 -0.42411842411E+02 -0.61854448557E+01  0.47787270623E+02  0.19999998078E+02 0.  0.
         12    1    1    2    0    0 -0.68263610904E+01  0.42411842411E+02  0.61854448557E+01  0.43400729377E+02  0.00000000000E+00 0. -1.
         11    1    3    3    0    0  0.79020612980E+00 -0.21851215239E+01 -0.47212695821E+01  0.52620878489E+01  0.51100000000E-03 0. -1.
        -11    1    3    3    0    0  0.24356944571E+01 -0.26733739491E+02  0.47127486742E+01  0.27255007521E+02  0.51100000000E-03 0.  1.
        -12    1    3    3    0    0  0.36004605035E+01 -0.13492981396E+02 -0.61769239479E+01  0.15270175252E+02  0.00000000000E+00 0.  1.
</event>
<event>
 7    1  0.2455451E-009  0.4778725E+02  0.7816164E-02  0.1312668E+00
        -11   -1    0    0    0    0  0.00000000000E+00  0.00000000000E+00  0.45593999997E+02  0.45594000000E+02  0.51100000000E-03 0. -1.
         11   -1    0    0    0    0 -0.00000000000E+00 -0.00000000000E+00 -0.45593999997E+02  0.45594000000E+02  0.51100000000E-03 0.  1.
    9900012    2    1    2    0    0  0.95089082040E+01 -0.31686264379E+02 -0.28092462186E+02  0.47787249808E+02  0.19999903176E+02 0.  0.
         12    1    1    2    0    0 -0.95089082040E+01  0.31686264379E+02  0.28092462186E+02  0.43400750192E+02  0.00000000000E+00 0. -1.
         11    1    3    3    0    0 -0.15358950324E+01  0.11990256462E+01 -0.51292265971E+01  0.54868571875E+01  0.51100000000E-03 0. -1.
        -11    1    3    3    0    0  0.18910916957E+01 -0.17284808766E+02 -0.10143733405E+02  0.20130478621E+02  0.51100000000E-03 0.  1.
         12    1    3    3    0    0  0.91537115407E+01 -0.15600481259E+02 -0.12819502184E+02  0.22169913999E+02  0.00000000000E+00 0. -1.
</event>
<event>
 7    1  0.2455451E-009  0.4778727E+02  0.7816164E-02  0.1312668E+00
        -11   -1    0    0    0    0  0.00000000000E+00  0.00000000000E+00  0.45593999997E+02  0.45594000000E+02  0.51100000000E-03 0.  1.
         11   -1    0    0    0    0 -0.00000000000E+00 -0.00000000000E+00 -0.45593999997E+02  0.45594000000E+02  0.51100000000E-03 0. -1.
    9900012    2    1    2    0    0 -0.24776408395E+02 -0.27253173666E+02  0.22956858293E+02  0.47787271544E+02  0.20000002279E+02 0.  0.
         12    1    1    2    0    0  0.24776408395E+02  0.27253173666E+02 -0.22956858293E+02  0.43400728456E+02  0.00000000000E+00 0. -1.
         11    1    3    3    0    0 -0.78246055759E+01 -0.18507081732E+02  0.12311645126E+02  0.23565082911E+02  0.51100000000E-03 0. -1.
        -11    1    3    3    0    0 -0.12952562693E+02 -0.31084924023E+01  0.11037412356E+02  0.17299019542E+02  0.51100000000E-03 0.  1.
        -12    1    3    3    0    0 -0.39992401258E+01 -0.56375995315E+01 -0.39219918888E+00  0.69231690911E+01  0.00000000000E+00 0.  1.
</event>
<event>
 7    1  0.2455451E-009  0.4778727E+02  0.7816164E-02  0.1312668E+00
        -11   -1    0    0    0    0  0.00000000000E+00  0.00000000000E+00  0.45593999997E+02  0.45594000000E+02  0.51100000000E-03 0.  1.
         11   -1    0    0    0    0 -0.00000000000E+00 -0.00000000000E+00 -0.45593999997E+02  0.45594000000E+02  0.51100000000E-03 0. -1.
    9900012    2    1    2    0    0 -0.41509630119E+02 -0.10181431090E+02  0.75440191301E+01  0.47787272399E+02  0.20000006174E+02 0.  0.
         12    1    1    2    0    0  0.41509630119E+02  0.10181431090E+02 -0.75440191301E+01  0.43400727601E+02  0.00000000000E+00 0. -1.
         11    1    3    3    0    0 -0.75016780167E+00  0.55128869857E-01 -0.15442946307E+01  0.17177418579E+01  0.51100000000E-03 0. -1.
        -11    1    3    3    0    0 -0.22734883410E+02 -0.49685905483E+01 -0.33984809409E+01  0.23518322403E+02  0.51100000000E-03 0.  1.
        -12    1    3    3    0    0 -0.18024578908E+02 -0.52679694117E+01  0.12486794702E+02  0.22551208137E+02  0.00000000000E+00 0.  1.
</event>
<event>
 7    1  0.2455451E-009  0.4778727E+02  0.7816164E-02  0.1312668E+00
        -11   -1    0    0    0    0  0.00000000000E+00  0.00000000000E+00  0.45593999997E+02  0.45594000000E+02  0.51100000000E-03 0. -1.
         11   -1    0    0    0    0 -0.00000000000E+00 -0.00000000000E+00 -0.45593999997E+02  0.45594000000E+02  0.51100000000E-03 0.  1.
    9900012    2    1    2    0    0  0.32033523121E+02 -0.41124054365E+01 -0.28992493529E+02  0.47787272322E+02  0.20000005823E+02 0.  0.
         12    1    1    2    0    0 -0.32033523121E+02  0.41124054365E+01  0.28992493529E+02  0.43400727678E+02  0.00000000000E+00 0. -1.
         11    1    3    3    0    0  0.21837387956E+01 -0.68904003036E+01 -0.84240677110E+01  0.11100056240E+02  0.51100000000E-03 0. -1.
        -11    1    3    3    0    0  0.29981643246E+02  0.26425986346E+01 -0.20628859759E+02  0.36488794369E+02  0.51100000000E-03 0.  1.
        -12    1    3    3    0    0 -0.13185892111E+00  0.13539623248E+00  0.60433941038E-01  0.19842171271E+00  0.00000000000E+00 0.  1.
</event>
<event>
 7    1  0.2455451E-009  0.4778724E+02  0.7816164E-02  0.1312668E+00
        -11   -1    0    0    0    0  0.00000000000E+00  0.00000000000E+00  0.45593999997E+02  0.45594000000E+02  0.51100000000E-03 0.  1.
         11   -1    0    0    0    0 -0.00000000000E+00 -0.00000000000E+00 -0.45593999997E+02  0.45594000000E+02  0.51100000000E-03 0. -1.
    9900012    2    1    2    0    0 -0.86720507747E+01  0.30199148679E+02  0.29940484324E+02  0.47787243703E+02  0.19999875341E+02 0.  0.
         12    1    1    2    0    0  0.86720507747E+01 -0.30199148679E+02 -0.29940484324E+02  0.43400756297E+02  0.00000000000E+00 0. -1.
         11    1    3    3    0    0  0.19968375252E+01  0.55867530262E+01  0.61041868583E+01  0.85123596576E+01  0.51100000000E-03 0. -1.
        -11    1    3    3    0    0 -0.85414519888E+01  0.16658026831E+02  0.24703590817E+02  0.30995381261E+02  0.51100000000E-03 0.  1.
        -12    1    3    3    0    0 -0.21274363111E+01  0.79543688217E+01 -0.86729335166E+00  0.82795027850E+01  0.00000000000E+00 0.  1.
</event>
<event>
 7    1  0.2455451E-009  0.4778727E+02  0.7816164E-02  0.1312668E+00
        -11   -1    0    0    0    0  0.00000000000E+00  0.00000000000E+00  0.45593999997E+02  0.45594000000E+02  0.51100000000E-03 0.  1.
         11   -1    0    0    0    0 -0.00000000000E+00 -0.00000000000E+00 -0.45593999997E+02  0.45594000000E+02  0.51100000000E-03 0. -1.
    9900012    2    1    2    0    0  0.52556909530E+01  0.35266257580E+02  0.24744529885E+02  0.47787274542E+02  0.20000015945E+02 0.  0.
         12    1    1    2    0    0 -0.52556909530E+01 -0.35266257580E+02 -0.24744529885E+02  0.43400725458E+02  0.00000000000E+00 0. -1.
         11    1    3    3    0    0 -0.29038990178E+01  0.15142880851E+02  0.16346629771E+02  0.22471132039E+02  0.51100000000E-03 0. -1.
        -11    1    3    3    0    0  0.69559056565E+01  0.20389941220E+02  0.96075425006E+01  0.23588963513E+02  0.51100000000E-03 0.  1.
         12    1    3    3    0    0  0.12036843143E+01 -0.26656449114E+00 -0.12096423872E+01  0.17271789894E+01  0.00000000000E+00 0. -1.
</event>
<event>
 7    1  0.2455451E-009  0.4778727E+02  0.7816164E-02  0.1312668E+00
        -11   -1    0    0    0    0  0.00000000000E+00  0.00000000000E+00  0.45593999997E+02  0.45594000000E+02  0.51100000000E-03 0.  1.
         11   -1    0    0    0    0 -0.00000000000E+00 -0.00000000000E+00 -0.45593999997E+02  0.45594000000E+02  0.51100000000E-03 0. -1.
    9900012    2    1    2    0    0 -0.25395877704E+02 -0.11063591648E+02  0.33410621123E+02  0.47787271108E+02  0.20000000290E+02 0.  0.
         12    1    1    2    0    0  0.25395877704E+02  0.11063591648E+02 -0.33410621123E+02  0.43400728892E+02  0.00000000000E+00 0. -1.
         11    1    3    3    0    0 -0.23756963522E+02 -0.63713591365E+01  0.20681218845E+02  0.32135655372E+02  0.51100000000E-03 0. -1.
        -11    1    3    3    0    0 -0.12281134589E+01  0.16377394459E+01  0.91549473929E+00  0.22424504541E+01  0.51100000000E-03 0.  1.
         12    1    3    3    0    0 -0.41080072353E+00 -0.63299719572E+01  0.11813907539E+02  0.13409165281E+02  0.00000000000E+00 0. -1.
</event>
<event>
 7    1  0.2455451E-009  0.4778726E+02  0.7816164E-02  0.1312668E+00
        -11   -1    0    0    0    0  0.00000000000E+00  0.00000000000E+00  0.45593999997E+02  0.45594000000E+02  0.51100000000E-03 0.  1.
         11   -1    0    0    0    0 -0.00000000000E+00 -0.00000000000E+00 -0.45593999997E+02  0.45594000000E+02  0.51100000000E-03 0. -1.
    9900012    2    1    2    0    0 -0.42410924993E+01 -0.43175556630E+02 -0.12281588306E+01  0.47787263486E+02  0.19999965537E+02 0.  0.
         12    1    1    2    0    0  0.42410924993E+01  0.43175556630E+02  0.12281588306E+01  0.43400736514E+02  0.00000000000E+00 0. -1.
         11    1    3    3    0    0 -0.14491646041E+01  0.55454411928E+00 -0.27508406170E+01  0.31582782637E+01  0.51100000000E-03 0. -1.
        -11    1    3    3    0    0 -0.22200138459E+01 -0.30223579886E+02  0.48907517479E+01  0.30697112169E+02  0.51100000000E-03 0.  1.
         12    1    3    3    0    0 -0.57191404937E+00 -0.13506520863E+02 -0.33680699615E+01  0.13931873053E+02  0.00000000000E+00 0. -1.
</event>
<event>
 7    1  0.2455451E-009  0.4778727E+02  0.7816164E-02  0.1312668E+00
        -11   -1    0    0    0    0  0.00000000000E+00  0.00000000000E+00  0.45593999997E+02  0.45594000000E+02  0.51100000000E-03 0. -1.
         11   -1    0    0    0    0 -0.00000000000E+00 -0.00000000000E+00 -0.45593999997E+02  0.45594000000E+02  0.51100000000E-03 0.  1.
    9900012    2    1    2    0    0 -0.50642881156E+01  0.12225920940E+02 -0.41334041555E+02  0.47787272492E+02  0.20000006600E+02 0.  0.
         12    1    1    2    0    0  0.50642881156E+01 -0.12225920940E+02  0.41334041555E+02  0.43400727508E+02  0.00000000000E+00 0. -1.
         11    1    3    3    0    0  0.33670052001E+01 -0.11599228739E+00 -0.24818852218E+02  0.25046468891E+02  0.51100000000E-03 0. -1.
        -11    1    3    3    0    0 -0.19664187334E+01  0.66958227875E+01 -0.63358235238E+01  0.94256832868E+01  0.51100000000E-03 0.  1.
         12    1    3    3    0    0 -0.64648745824E+01  0.56460904395E+01 -0.10179365813E+02  0.13315120314E+02  0.00000000000E+00 0. -1.
</event>
<event>
 7    1  0.2455451E-009  0.4778727E+02  0.7816164E-02  0.1312668E+00
        -11   -1    0    0    0    0  0.00000000000E+00  0.00000000000E+00  0.45593999997E+02  0.45594000000E+02  0.51100000000E-03 0. -1.
         11   -1    0    0    0    0 -0.00000000000E+00 -0.00000000000E+00 -0.45593999997E+02  0.45594000000E+02  0.51100000000E-03 0.  1.
    9900012    2    1    2    0    0 -0.15570756353E+02  0.40114800373E+02  0.56548483490E+01  0.47787274520E+02  0.20000015846E+02 0.  0.
         12    1    1    2    0    0  0.15570756353E+02 -0.40114800373E+02 -0.56548483490E+01  0.43400725480E+02  0.00000000000E+00 0. -1.
         11    1    3    3    0    0 -0.14521258623E+02  0.20597000460E+02  0.30819843886E+01  0.25389013529E+02  0.51100000000E-03 0. -1.
        -11    1    3    3    0    0  0.19656964154E+01  0.13297791433E+02  0.59557130574E+01  0.14702575885E+02  0.51100000000E-03 0.  1.
         12    1    3    3    0    0 -0.30151941445E+01  0.62200084804E+01 -0.33828490970E+01  0.76956851052E+01  0.00000000000E+00 0. -1.
</event>
<event>
 7    1  0.2455451E-009  0.4778727E+02  0.7816164E-02  0.1312668E+00
        -11   -1    0    0    0    0  0.00000000000E+00  0.00000000000E+00  0.45593999997E+02  0.45594000000E+02  0.51100000000E-03 0.  1.
         11   -1    0    0    0    0 -0.00000000000E+00 -0.00000000000E+00 -0.45593999997E+02  0.45594000000E+02  0.51100000000E-03 0. -1.
    9900012    2    1    2    0    0 -0.19274698402E+02  0.25869073032E+02  0.29032749745E+02  0.47787268488E+02  0.19999988345E+02 0.  0.
         12    1    1    2    0    0  0.19274698402E+02 -0.25869073032E+02 -0.29032749745E+02  0.43400731512E+02  0.00000000000E+00 0. -1.
         11    1    3    3    0    0 -0.10718876680E+02  0.13044336413E+02  0.57814294250E+01  0.17845838624E+02  0.51100000000E-03 0. -1.
        -11    1    3    3    0    0 -0.61073413659E+01  0.14259830248E+02  0.21793972180E+02  0.26751067286E+02  0.51100000000E-03 0.  1.
        -12    1    3    3    0    0 -0.24484803563E+01 -0.14350936294E+01  0.14573481391E+01  0.31903625780E+01  0.00000000000E+00 0.  1.
</event>
<event>
 7    1  0.2455451E-009  0.4778727E+02  0.7816164E-02  0.1312668E+00
        -11   -1    0    0    0    0  0.00000000000E+00  0.00000000000E+00  0.45593999997E+02  0.45594000000E+02  0.51100000000E-03 0. -1.
         11   -1    0    0    0    0 -0.00000000000E+00 -0.00000000000E+00 -0.45593999997E+02  0.45594000000E+02  0.51100000000E-03 0.  1.
    9900012    2    1    2    0    0 -0.16107491717E+02 -0.46537860042E+01 -0.40031414846E+02  0.47787272032E+02  0.20000004503E+02 0.  0.
         12    1    1    2    0    0  0.16107491717E+02  0.46537860042E+01  0.40031414846E+02  0.43400727968E+02  0.00000000000E+00 0. -1.
         11    1    3    3    0    0 -0.42102957955E+01 -0.64192965573E+01 -0.41306678855E+01  0.87175900579E+01  0.51100000000E-03 0. -1.
        -11    1    3    3    0    0 -0.46689848115E+01 -0.29335438978E+01 -0.22260313312E+02  0.22933090677E+02  0.51100000000E-03 0.  1.
         12    1    3    3    0    0 -0.72282111101E+01  0.46990544510E+01 -0.13640433648E+02  0.16136591297E+02  0.00000000000E+00 0. -1.
</event>
<event>
 7    1  0.2455451E-009  0.4778727E+02  0.7816164E-02  0.1312668E+00
        -11   -1    0    0    0    0  0.00000000000E+00  0.00000000000E+00  0.45593999997E+02  0.45594000000E+02  0.51100000000E-03 0.  1.
         11   -1    0    0    0    0 -0.00000000000E+00 -0.00000000000E+00 -0.45593999997E+02  0.45594000000E+02  0.51100000000E-03 0. -1.
    9900012    2    1    2    0    0 -0.13786955343E+02 -0.22634960506E+02  0.34368610943E+02  0.47787274282E+02  0.20000014761E+02 0.  0.
         12    1    1    2    0    0  0.13786955343E+02  0.22634960506E+02 -0.34368610943E+02  0.43400725718E+02  0.00000000000E+00 0. -1.
         11    1    3    3    0    0  0.42070133183E+00 -0.24651705082E+01  0.46823811970E+01  0.53083659614E+01  0.51100000000E-03 0. -1.
        -11    1    3    3    0    0 -0.12936693593E+02 -0.23189028647E+02  0.28603365544E+02  0.39028728027E+02  0.51100000000E-03 0.  1.
        -12    1    3    3    0    0 -0.12709630815E+01  0.30192386494E+01  0.10828642016E+01  0.34501802933E+01  0.00000000000E+00 0.  1.
</event>
<event>
 7    1  0.2455451E-009  0.4778725E+02  0.7816164E-02  0.1312668E+00
        -11   -1    0    0    0    0  0.00000000000E+00  0.00000000000E+00  0.45593999997E+02  0.45594000000E+02  0.51100000000E-03 0.  1.
         11   -1    0    0    0    0 -0.00000000000E+00 -0.00000000000E+00 -0.45593999997E+02  0.45594000000E+02  0.51100000000E-03 0. -1.
    9900012    2    1    2    0    0  0.14710042364E+02  0.12112105349E+02  0.38994055357E+02  0.47787253514E+02  0.19999920072E+02 0.  0.
         12    1    1    2    0    0 -0.14710042364E+02 -0.12112105349E+02 -0.38994055357E+02  0.43400746486E+02  0.00000000000E+00 0. -1.
         11    1    3    3    0    0  0.10147416184E+02  0.90165825826E+01  0.31907088416E+02  0.34674646475E+02  0.51100000000E-03 0. -1.
        -11    1    3    3    0    0  0.55601499930E+01  0.21212609941E+01  0.89730253400E+01  0.10767088751E+02  0.51100000000E-03 0.  1.
         12    1    3    3    0    0 -0.99752381233E+00  0.97426177266E+00 -0.18860583994E+01  0.23455182889E+01  0.00000000000E+00 0. -1.
</event>
<event>
 7    1  0.2455451E-009  0.4778727E+02  0.7816164E-02  0.1312668E+00
        -11   -1    0    0    0    0  0.00000000000E+00  0.00000000000E+00  0.45593999997E+02  0.45594000000E+02  0.51100000000E-03 0.  1.
         11   -1    0    0    0    0 -0.00000000000E+00 -0.00000000000E+00 -0.45593999997E+02  0.45594000000E+02  0.51100000000E-03 0. -1.
    9900012    2    1    2    0    0 -0.18156875724E+02  0.38423092468E+02 -0.88100665003E+01  0.47787269100E+02  0.19999991136E+02 0.  0.
         12    1    1    2    0    0  0.18156875724E+02 -0.38423092468E+02  0.88100665003E+01  0.43400730900E+02  0.00000000000E+00 0. -1.
         11    1    3    3    0    0 -0.95067205533E+01  0.14152596291E+02 -0.11734926355E+02  0.20697396316E+02  0.51100000000E-03 0. -1.
        -11    1    3    3    0    0 -0.91668996512E+01  0.19850977823E+02  0.45845361844E+01  0.22340799942E+02  0.51100000000E-03 0.  1.
        -12    1    3    3    0    0  0.51674448021E+00  0.44195183542E+01 -0.16596763296E+01  0.47490728421E+01  0.00000000000E+00 0.  1.
</event>
<event>
 7    1  0.2455451E-009  0.4778729E+02  0.7816164E-02  0.1312668E+00
        -11   -1    0    0    0    0  0.00000000000E+00  0.00000000000E+00  0.45593999997E+02  0.45594000000E+02  0.51100000000E-03 0. -1.
         11   -1    0    0    0    0 -0.00000000000E+00 -0.00000000000E+00 -0.45593999997E+02  0.45594000000E+02  0.51100000000E-03 0.  1.
    9900012    2    1    2    0    0  0.22585947293E+02  0.33026109432E+02  0.16815857702E+02  0.47787285840E+02  0.20000067459E+02 0.  0.
         12    1    1    2    0    0 -0.22585947293E+02 -0.33026109432E+02 -0.16815857702E+02  0.43400714160E+02  0.00000000000E+00 0. -1.
         11    1    3    3    0    0 -0.20125011898E+01  0.19117281864E+01  0.51265960979E+01  0.58298244836E+01  0.51100000000E-03 0. -1.
        -11    1    3    3    0    0  0.17433118089E+02  0.19392250725E+02  0.10690330277E+02  0.28182550562E+02  0.51100000000E-03 0.  1.
         12    1    3    3    0    0  0.71653303941E+01  0.11722130520E+02  0.99893132700E+00  0.13774910794E+02  0.00000000000E+00 0. -1.
</event>
<event>
 7    1  0.2455451E-009  0.4778727E+02  0.7816164E-02  0.1312668E+00
        -11   -1    0    0    0    0  0.00000000000E+00  0.00000000000E+00  0.45593999997E+02  0.45594000000E+02  0.51100000000E-03 0.  1.
         11   -1    0    0    0    0 -0.00000000000E+00 -0.00000000000E+00 -0.45593999997E+02  0.45594000000E+02  0.51100000000E-03 0. -1.
    9900012    2    1    2    0    0  0.20056911170E+01 -0.15748094936E+01  0.43325751085E+02  0.47787268107E+02  0.19999986606E+02 0.  0.
         12    1    1    2    0    0 -0.20056911170E+01  0.15748094936E+01 -0.43325751085E+02  0.43400731893E+02  0.00000000000E+00 0. -1.
         11    1    3    3    0    0  0.32482905497E+01  0.33264821927E+00  0.53755039653E+00  0.33092305787E+01  0.51100000000E-03 0. -1.
        -11    1    3    3    0    0 -0.16934821905E+01 -0.67781584447E+01  0.29559933816E+02  0.30374347751E+02  0.51100000000E-03 0.  1.
        -12    1    3    3    0    0  0.45088275784E+00  0.48707007318E+01  0.13228266872E+02  0.14103689777E+02  0.00000000000E+00 0.  1.
</event>
<event>
 7    1  0.2455451E-009  0.4778727E+02  0.7816164E-02  0.1312668E+00
        -11   -1    0    0    0    0  0.00000000000E+00  0.00000000000E+00  0.45593999997E+02  0.45594000000E+02  0.51100000000E-03 0. -1.
         11   -1    0    0    0    0 -0.00000000000E+00 -0.00000000000E+00 -0.45593999997E+02  0.45594000000E+02  0.51100000000E-03 0.  1.
    9900012    2    1    2    0    0 -0.21328682869E+02  0.15173107648E+02  0.34619177105E+02  0.47787270374E+02  0.19999996944E+02 0.  0.
         12    1    1    2    0    0  0.21328682869E+02 -0.15173107648E+02 -0.34619177105E+02  0.43400729626E+02  0.00000000000E+00 0. -1.
         11    1    3    3    0    0 -0.19278205035E+02  0.14476490648E+02  0.27430424609E+02  0.36519120544E+02  0.51100000000E-03 0. -1.
        -11    1    3    3    0    0 -0.13172345014E+01 -0.22526459120E+01 -0.79306237773E+00  0.27273555934E+01  0.51100000000E-03 0.  1.
        -12    1    3    3    0    0 -0.73324333255E+00  0.29492629117E+01  0.79818148739E+01  0.85407942363E+01  0.00000000000E+00 0.  1.
</event>
<event>
 7    1  0.2455451E-009  0.4778727E+02  0.7816164E-02  0.1312668E+00
        -11   -1    0    0    0    0  0.00000000000E+00  0.00000000000E+00  0.45593999997E+02  0.45594000000E+02  0.51100000000E-03 0.  1.
         11   -1    0    0    0    0 -0.00000000000E+00 -0.00000000000E+00 -0.45593999997E+02  0.45594000000E+02  0.51100000000E-03 0. -1.
    9900012    2    1    2    0    0 -0.20059839206E+02 -0.23648807741E+02  0.30363795996E+02  0.47787270008E+02  0.19999995275E+02 0.  0.
         12    1    1    2    0    0  0.20059839206E+02  0.23648807741E+02 -0.30363795996E+02  0.43400729992E+02  0.00000000000E+00 0. -1.
         11    1    3    3    0    0 -0.16025465897E+02 -0.53116958036E+01  0.13554390691E+02  0.21650662272E+02  0.51100000000E-03 0. -1.
        -11    1    3    3    0    0  0.28485457552E-01 -0.10723404508E+02  0.59427896977E+01  0.12260055682E+02  0.51100000000E-03 0.  1.
        -12    1    3    3    0    0 -0.40628587664E+01 -0.76137074297E+01  0.10866615607E+02  0.13876552055E+02  0.00000000000E+00 0.  1.
</event>
<event>
 7    1  0.2455451E-009  0.4778727E+02  0.7816164E-02  0.1312668E+00
        -11   -1    0    0    0    0  0.00000000000E+00  0.00000000000E+00  0.45593999997E+02  0.45594000000E+02  0.51100000000E-03 0.  1.
         11   -1    0    0    0    0 -0.00000000000E+00 -0.00000000000E+00 -0.45593999997E+02  0.45594000000E+02  0.51100000000E-03 0. -1.
    9900012    2    1    2    0    0  0.17360904011E+02  0.39500844009E+01  0.39580538379E+02  0.47787272204E+02  0.20000005288E+02 0.  0.
         12    1    1    2    0    0 -0.17360904011E+02 -0.39500844009E+01 -0.39580538379E+02  0.43400727796E+02  0.00000000000E+00 0. -1.
         11    1    3    3    0    0  0.94851759749E+00  0.85940167381E+01  0.16516653486E+02  0.18642871345E+02  0.51100000000E-03 0. -1.
        -11    1    3    3    0    0  0.10833224951E+02 -0.21445975929E+01  0.10827564935E+02  0.15465905223E+02  0.51100000000E-03 0.  1.
         12    1    3    3    0    0  0.55791614627E+01 -0.24993347443E+01  0.12236319957E+02  0.13678495637E+02  0.00000000000E+00 0. -1.
</event>
<event>
 7    1  0.2455451E-009  0.4778727E+02  0.7816164E-02  0.1312668E+00
        -11   -1    0    0    0    0  0.00000000000E+00  0.00000000000E+00  0.45593999997E+02  0.45594000000E+02  0.51100000000E-03 0. -1.
         11   -1    0    0    0    0 -0.00000000000E+00 -0.00000000000E+00 -0.45593999997E+02  0.45594000000E+02  0.51100000000E-03 0.  1.
    9900012    2    1    2    0    0 -0.22053873166E+02 -0.35197883946E+02  0.12584072509E+02  0.47787271471E+02  0.20000001946E+02 0.  0.
         12    1    1    2    0    0  0.22053873166E+02  0.35197883946E+02 -0.12584072509E+02  0.43400728529E+02  0.00000000000E+00 0. -1.
         11    1    3    3    0    0 -0.11314267406E+02 -0.19958961752E+02  0.10247395257E+02  0.25127314042E+02  0.51100000000E-03 0. -1.
        -11    1    3    3    0    0 -0.63051641968E+01 -0.53357669507E+01 -0.49127094825E+01  0.96104224268E+01  0.51100000000E-03 0.  1.
        -12    1    3    3    0    0 -0.44344415631E+01 -0.99031552438E+01  0.72493867345E+01  0.13049535003E+02  0.00000000000E+00 0.  1.
</event>
<event>
 7    1  0.2455451E-009  0.4778724E+02  0.7816164E-02  0.1312668E+00
        -11   -1    0    0    0    0  0.00000000000E+00  0.00000000000E+00  0.45593999997E+02  0.45594000000E+02  0.51100000000E-03 0.  1.
         11   -1    0    0    0    0 -0.00000000000E+00 -0.00000000000E+00 -0.45593999997E+02  0.45594000000E+02  0.51100000000E-03 0. -1.
    9900012    2    1    2    0    0  0.40407771663E+02 -0.39910772626E+01  0.15326762289E+02  0.47787235597E+02  0.19999838379E+02 0.  0.
         12    1    1    2    0    0 -0.40407771663E+02  0.39910772626E+01 -0.15326762289E+02  0.43400764403E+02  0.00000000000E+00 0. -1.
         11    1    3    3    0    0  0.12855552509E+02  0.50627429782E+01  0.29299936268E+01  0.14123790556E+02  0.51100000000E-03 0. -1.
        -11    1    3    3    0    0  0.99895306037E+01 -0.91294222600E+01  0.72990340497E+01  0.15375726676E+02  0.51100000000E-03 0.  1.
         12    1    3    3    0    0  0.17562688551E+02  0.75602019165E-01  0.50977346127E+01  0.18287718365E+02  0.00000000000E+00 0. -1.
</event>
<event>
 7    1  0.2455451E-009  0.4778726E+02  0.7816164E-02  0.1312668E+00
        -11   -1    0    0    0    0  0.00000000000E+00  0.00000000000E+00  0.45593999997E+02  0.45594000000E+02  0.51100000000E-03 0.  1.
         11   -1    0    0    0    0 -0.00000000000E+00 -0.00000000000E+00 -0.45593999997E+02  0.45594000000E+02  0.51100000000E-03 0. -1.
    9900012    2    1    2    0    0  0.31515905875E+01  0.40446639846E+02  0.15419493066E+02  0.47787263089E+02  0.19999963727E+02 0.  0.
         12    1    1    2    0    0 -0.31515905875E+01 -0.40446639846E+02 -0.15419493066E+02  0.43400736911E+02  0.00000000000E+00 0. -1.
         11    1    3    3    0    0 -0.52807212325E+01  0.11137334536E+02  0.90163024179E+01  0.15271540422E+02  0.51100000000E-03 0. -1.
        -11    1    3    3    0    0  0.43928016872E+01  0.26011986813E+02  0.69283738930E+01  0.27274943257E+02  0.51100000000E-03 0.  1.
         12    1    3    3    0    0  0.40395101328E+01  0.32973184970E+01 -0.52518324486E+00  0.52407794100E+01  0.00000000000E+00 0. -1.
</event>
<event>
 7    1  0.2455451E-009  0.4778727E+02  0.7816164E-02  0.1312668E+00
        -11   -1    0    0    0    0  0.00000000000E+00  0.00000000000E+00  0.45593999997E+02  0.45594000000E+02  0.51100000000E-03 0. -1.
         11   -1    0    0    0    0 -0.00000000000E+00 -0.00000000000E+00 -0.45593999997E+02  0.45594000000E+02  0.51100000000E-03 0.  1.
    9900012    2    1    2    0    0  0.34523055914E+02  0.12324527247E+02 -0.23235482510E+02  0.47787274097E+02  0.20000013916E+02 0.  0.
         12    1    1    2    0    0 -0.34523055914E+02 -0.12324527247E+02  0.23235482510E+02  0.43400725903E+02  0.00000000000E+00 0. -1.
         11    1    3    3    0    0  0.49686020375E+01  0.16182882777E+01 -0.11877360028E+02  0.12976037325E+02  0.51100000000E-03 0. -1.
        -11    1    3    3    0    0  0.20981115265E+02  0.37378219300E+01 -0.44193043427E+01  0.21764851520E+02  0.51100000000E-03 0.  1.
        -12    1    3    3    0    0  0.85733386111E+01  0.69684170397E+01 -0.69388181390E+01  0.13046385252E+02  0.00000000000E+00 0.  1.
</event>
<event>
 7    1  0.2455451E-009  0.4778727E+02  0.7816164E-02  0.1312668E+00
        -11   -1    0    0    0    0  0.00000000000E+00  0.00000000000E+00  0.45593999997E+02  0.45594000000E+02  0.51100000000E-03 0.  1.
         11   -1    0    0    0    0 -0.00000000000E+00 -0.00000000000E+00 -0.45593999997E+02  0.45594000000E+02  0.51100000000E-03 0. -1.
    9900012    2    1    2    0    0 -0.23796719594E+02  0.31468486669E+02  0.18085182859E+02  0.47787270102E+02  0.19999995703E+02 0.  0.
         12    1    1    2    0    0  0.23796719594E+02 -0.31468486669E+02 -0.18085182859E+02  0.43400729898E+02  0.00000000000E+00 0. -1.
         11    1    3    3    0    0 -0.10965979371E+02  0.16052507281E+02  0.43813184771E+00  0.19445504708E+02  0.51100000000E-03 0. -1.
        -11    1    3    3    0    0  0.47099874056E+00  0.23366744099E+01 -0.36369052151E+00  0.24112565538E+01  0.51100000000E-03 0.  1.
         12    1    3    3    0    0 -0.13301738963E+02  0.13079304978E+02  0.18010741533E+02  0.25930508840E+02  0.00000000000E+00 0. -1.
</event>
<event>
 7    1  0.2455451E-009  0.4778727E+02  0.7816164E-02  0.1312668E+00
        -11   -1    0    0    0    0  0.00000000000E+00  0.00000000000E+00  0.45593999997E+02  0.45594000000E+02  0.51100000000E-03 0. -1.
         11   -1    0    0    0    0 -0.00000000000E+00 -0.00000000000E+00 -0.45593999997E+02  0.45594000000E+02  0.51100000000E-03 0.  1.
    9900012    2    1    2    0    0  0.37530541853E+02  0.16763314862E+02 -0.13931018636E+02  0.47787267550E+02  0.19999984068E+02 0.  0.
         12    1    1    2    0    0 -0.37530541853E+02 -0.16763314862E+02  0.13931018636E+02  0.43400732450E+02  0.00000000000E+00 0. -1.
         11    1    3    3    0    0 -0.72778721024E+00 -0.66736488922E+00 -0.19175485743E+01  0.21568595028E+01  0.51100000000E-03 0. -1.
        -11    1    3    3    0    0  0.20273352497E+02  0.12501141306E+02 -0.12655061268E+02  0.26971057290E+02  0.51100000000E-03 0.  1.
        -12    1    3    3    0    0  0.17984976567E+02  0.49295384451E+01  0.64159120612E+00  0.18659350757E+02  0.00000000000E+00 0.  1.
</event>
<event>
 7    1  0.2455451E-009  0.4778727E+02  0.7816164E-02  0.1312668E+00
        -11   -1    0    0    0    0  0.00000000000E+00  0.00000000000E+00  0.45593999997E+02  0.45594000000E+02  0.51100000000E-03 0. -1.
         11   -1    0    0    0    0 -0.00000000000E+00 -0.00000000000E+00 -0.45593999997E+02  0.45594000000E+02  0.51100000000E-03 0.  1.
    9900012    2    1    2    0    0 -0.23927764626E+00  0.39564261842E+02 -0.17839145298E+02  0.47787272196E+02  0.20000005252E+02 0.  0.
         12    1    1    2    0    0  0.23927764626E+00 -0.39564261842E+02  0.17839145298E+02  0.43400727804E+02  0.00000000000E+00 0. -1.
         11    1    3    3    0    0  0.33250962219E+01  0.14721766985E+02  0.25410628856E+01  0.15305021688E+02  0.51100000000E-03 0. -1.
        -11    1    3    3    0    0 -0.18392056631E+01  0.17609669008E+02 -0.15927312403E+02  0.23815171649E+02  0.51100000000E-03 0.  1.
        -12    1    3    3    0    0 -0.17251682050E+01  0.72328258500E+01 -0.44528957808E+01  0.86670788589E+01  0.00000000000E+00 0.  1.
</event>
<event>
 7    1  0.2455451E-009  0.4778728E+02  0.7816164E-02  0.1312668E+00
        -11   -1    0    0    0    0  0.00000000000E+00  0.00000000000E+00  0.45593999997E+02  0.45594000000E+02  0.51100000000E-03 0.  1.
         11   -1    0    0    0    0 -0.00000000000E+00 -0.00000000000E+00 -0.45593999997E+02  0.45594000000E+02  0.51100000000E-03 0. -1.
    9900012    2    1    2    0    0  0.11859569823E+02  0.15458985921E+02  0.38781352184E+02  0.47787275129E+02  0.20000018623E+02 0.  0.
         12    1    1    2    0    0 -0.11859569823E+02 -0.15458985921E+02 -0.38781352184E+02  0.43400724871E+02  0.00000000000E+00 0. -1.
         11    1    3    3    0    0  0.61592299303E+01  0.15132054545E+02  0.15315579528E+02  0.22393797458E+02  0.51100000000E-03 0. -1.
        -11    1    3    3    0    0  0.69616514871E+00 -0.33329092704E+01  0.10133635206E+02  0.10690345779E+02  0.51100000000E-03 0.  1.
        -12    1    3    3    0    0  0.50041747440E+01  0.36598406469E+01  0.13332137450E+02  0.14703131892E+02  0.00000000000E+00 0.  1.
</event>
<event>
 7    1  0.2455451E-009  0.4778727E+02  0.7816164E-02  0.1312668E+00
        -11   -1    0    0    0    0  0.00000000000E+00  0.00000000000E+00  0.45593999997E+02  0.45594000000E+02  0.51100000000E-03 0.  1.
         11   -1    0    0    0    0 -0.00000000000E+00 -0.00000000000E+00 -0.45593999997E+02  0.45594000000E+02  0.51100000000E-03 0. -1.
    9900012    2    1    2    0    0  0.25236175197E+02  0.16087591129E+02  0.31431641283E+02  0.47787271888E+02  0.20000003847E+02 0.  0.
         12    1    1    2    0    0 -0.25236175197E+02 -0.16087591129E+02 -0.31431641283E+02  0.43400728112E+02  0.00000000000E+00 0. -1.
         11    1    3    3    0    0  0.18710784712E+02  0.51702623896E+01  0.92329480533E+01  0.21495869550E+02  0.51100000000E-03 0. -1.
        -11    1    3    3    0    0  0.54344933280E+01  0.53965896963E+01  0.16933087437E+02  0.18584572863E+02  0.51100000000E-03 0.  1.
         12    1    3    3    0    0  0.10908971567E+01  0.55207390435E+01  0.52656057926E+01  0.77068294749E+01  0.00000000000E+00 0. -1.
</event>
<event>
 7    1  0.2455451E-009  0.4778727E+02  0.7816164E-02  0.1312668E+00
        -11   -1    0    0    0    0  0.00000000000E+00  0.00000000000E+00  0.45593999997E+02  0.45594000000E+02  0.51100000000E-03 0. -1.
         11   -1    0    0    0    0 -0.00000000000E+00 -0.00000000000E+00 -0.45593999997E+02  0.45594000000E+02  0.51100000000E-03 0.  1.
    9900012    2    1    2    0    0 -0.19833899492E+02 -0.32153145073E+02 -0.21363866554E+02  0.47787273033E+02  0.20000009065E+02 0.  0.
         12    1    1    2    0    0  0.19833899492E+02  0.32153145073E+02  0.21363866554E+02  0.43400726967E+02  0.00000000000E+00 0. -1.
         11    1    3    3    0    0 -0.82821845035E+01 -0.21054853918E+02 -0.60294636480E+01  0.23414864634E+02  0.51100000000E-03 0.  1.
        -11    1    3    3    0    0 -0.25180280258E+01 -0.87562588570E+01 -0.47977852987E+01  0.10297149040E+02  0.51100000000E-03 0. -1.
         12    1    3    3    0    0 -0.90336869630E+01 -0.23420322975E+01 -0.10536617607E+02  0.14075259359E+02  0.00000000000E+00 0. -1.
</event>
<event>
 7    1  0.2455451E-009  0.4778727E+02  0.7816164E-02  0.1312668E+00
        -11   -1    0    0    0    0  0.00000000000E+00  0.00000000000E+00  0.45593999997E+02  0.45594000000E+02  0.51100000000E-03 0.  1.
         11   -1    0    0    0    0 -0.00000000000E+00 -0.00000000000E+00 -0.45593999997E+02  0.45594000000E+02  0.51100000000E-03 0. -1.
    9900012    2    1    2    0    0 -0.44658838716E+01  0.35415111818E+01  0.43024841571E+02  0.47787269448E+02  0.19999992722E+02 0.  0.
         12    1    1    2    0    0  0.44658838716E+01 -0.35415111818E+01 -0.43024841571E+02  0.43400730552E+02  0.00000000000E+00 0. -1.
         11    1    3    3    0    0 -0.22948219857E+00 -0.48132125473E+01  0.69189644239E+01  0.84315921430E+01  0.51100000000E-03 0. -1.
        -11    1    3    3    0    0 -0.66530700532E+01  0.93038463633E+01  0.19981310085E+02  0.23023415282E+02  0.51100000000E-03 0.  1.
        -12    1    3    3    0    0  0.24166683801E+01 -0.94912263420E+00  0.16124567063E+02  0.16332262023E+02  0.00000000000E+00 0.  1.
</event>
<event>
 7    1  0.2455451E-009  0.4778727E+02  0.7816164E-02  0.1312668E+00
        -11   -1    0    0    0    0  0.00000000000E+00  0.00000000000E+00  0.45593999997E+02  0.45594000000E+02  0.51100000000E-03 0. -1.
         11   -1    0    0    0    0 -0.00000000000E+00 -0.00000000000E+00 -0.45593999997E+02  0.45594000000E+02  0.51100000000E-03 0.  1.
    9900012    2    1    2    0    0 -0.27299967069E+02  0.24797821669E+02 -0.22877998554E+02  0.47787274438E+02  0.20000015471E+02 0.  0.
         12    1    1    2    0    0  0.27299967069E+02 -0.24797821669E+02  0.22877998554E+02  0.43400725562E+02  0.00000000000E+00 0. -1.
         11    1    3    3    0    0 -0.24144191927E+01  0.10799669752E+02 -0.12995661943E+02  0.17068963542E+02  0.51100000000E-03 0. -1.
        -11    1    3    3    0    0 -0.72818371251E+01  0.70308697100E+01 -0.27728255180E+01  0.10495086584E+02  0.51100000000E-03 0.  1.
         12    1    3    3    0    0 -0.17603710752E+02  0.69672822062E+01 -0.71095110933E+01  0.20223224311E+02  0.00000000000E+00 0. -1.
</event>
<event>
 7    1  0.2455451E-009  0.4778727E+02  0.7816164E-02  0.1312668E+00
        -11   -1    0    0    0    0  0.00000000000E+00  0.00000000000E+00  0.45593999997E+02  0.45594000000E+02  0.51100000000E-03 0.  1.
         11   -1    0    0    0    0 -0.00000000000E+00 -0.00000000000E+00 -0.45593999997E+02  0.45594000000E+02  0.51100000000E-03 0. -1.
    9900012    2    1    2    0    0 -0.28449705983E+02 -0.16720458618E+02  0.28189780646E+02  0.47787271437E+02  0.20000001789E+02 0.  0.
         12    1    1    2    0    0  0.28449705983E+02  0.16720458618E+02 -0.28189780646E+02  0.43400728563E+02  0.00000000000E+00 0. -1.
         11    1    3    3    0    0 -0.17257345909E+02 -0.16413234145E+02  0.13984947548E+02  0.27618635033E+02  0.51100000000E-03 0. -1.
        -11    1    3    3    0    0 -0.10469104120E+02 -0.29568505477E+01  0.83913122147E+01  0.13738967472E+02  0.51100000000E-03 0.  1.
         12    1    3    3    0    0 -0.72325595414E+00  0.26496260745E+01  0.58135208838E+01  0.64296689321E+01  0.00000000000E+00 0. -1.
</event>
<event>
 7    1  0.2455451E-009  0.4778726E+02  0.7816164E-02  0.1312668E+00
        -11   -1    0    0    0    0  0.00000000000E+00  0.00000000000E+00  0.45593999997E+02  0.45594000000E+02  0.51100000000E-03 0.  1.
         11   -1    0    0    0    0 -0.00000000000E+00 -0.00000000000E+00 -0.45593999997E+02  0.45594000000E+02  0.51100000000E-03 0. -1.
    9900012    2    1    2    0    0  0.41013774254E+02  0.13432288169E+02 -0.45900359549E+01  0.47787257217E+02  0.19999936957E+02 0.  0.
         12    1    1    2    0    0 -0.41013774254E+02 -0.13432288169E+02  0.45900359549E+01  0.43400742783E+02  0.00000000000E+00 0. -1.
         11    1    3    3    0    0  0.72410237121E+01  0.72648190998E+00 -0.98144899384E+00  0.73432583200E+01  0.51100000000E-03 0. -1.
        -11    1    3    3    0    0  0.19426613883E+02 -0.22464858468E+01 -0.20726477466E+01  0.19665601810E+02  0.51100000000E-03 0.  1.
        -12    1    3    3    0    0  0.14346136659E+02  0.14952292105E+02 -0.15359392144E+01  0.20778397088E+02  0.00000000000E+00 0.  1.
</event>
<event>
 7    1  0.2455451E-009  0.4778728E+02  0.7816164E-02  0.1312668E+00
        -11   -1    0    0    0    0  0.00000000000E+00  0.00000000000E+00  0.45593999997E+02  0.45594000000E+02  0.51100000000E-03 0. -1.
         11   -1    0    0    0    0 -0.00000000000E+00 -0.00000000000E+00 -0.45593999997E+02  0.45594000000E+02  0.51100000000E-03 0.  1.
    9900012    2    1    2    0    0  0.42501263159E+02  0.70139088275E+01  0.52981522969E+01  0.47787277600E+02  0.20000029888E+02 0.  0.
         12    1    1    2    0    0 -0.42501263159E+02 -0.70139088275E+01 -0.52981522969E+01  0.43400722400E+02  0.00000000000E+00 0. -1.
         11    1    3    3    0    0 -0.45129232569E+00  0.64138766391E+00  0.54080221194E+00  0.95263329367E+00  0.51100000000E-03 0. -1.
        -11    1    3    3    0    0  0.22122140398E+02  0.11436837719E+02  0.13121631733E+00  0.24903966969E+02  0.51100000000E-03 0.  1.
        -12    1    3    3    0    0  0.20830415086E+02 -0.50643165552E+01  0.46261337676E+01  0.21930677337E+02  0.00000000000E+00 0.  1.
</event>
<event>
 7    1  0.2455451E-009  0.4778727E+02  0.7816164E-02  0.1312668E+00
        -11   -1    0    0    0    0  0.00000000000E+00  0.00000000000E+00  0.45593999997E+02  0.45594000000E+02  0.51100000000E-03 0.  1.
         11   -1    0    0    0    0 -0.00000000000E+00 -0.00000000000E+00 -0.45593999997E+02  0.45594000000E+02  0.51100000000E-03 0. -1.
    9900012    2    1    2    0    0  0.24372418975E+02 -0.28111485952E+02  0.22346212935E+02  0.47787266347E+02  0.19999978581E+02 0.  0.
         12    1    1    2    0    0 -0.24372418975E+02  0.28111485952E+02 -0.22346212935E+02  0.43400733653E+02  0.00000000000E+00 0. -1.
         11    1    3    3    0    0  0.13521405294E+01  0.97477308539E+00  0.50052930858E+01  0.52755498022E+01  0.51100000000E-03 0. -1.
        -11    1    3    3    0    0  0.20737033322E+02 -0.29881790385E+02  0.15888838500E+02  0.39691323193E+02  0.51100000000E-03 0.  1.
        -12    1    3    3    0    0  0.22832451230E+01  0.79553134730E+00  0.14520813488E+01  0.28203933519E+01  0.00000000000E+00 0.  1.
</event>
<event>
 7    1  0.2455451E-009  0.4778727E+02  0.7816164E-02  0.1312668E+00
        -11   -1    0    0    0    0  0.00000000000E+00  0.00000000000E+00  0.45593999997E+02  0.45594000000E+02  0.51100000000E-03 0.  1.
         11   -1    0    0    0    0 -0.00000000000E+00 -0.00000000000E+00 -0.45593999997E+02  0.45594000000E+02  0.51100000000E-03 0. -1.
    9900012    2    1    2    0    0  0.39205123704E+02  0.17129307000E+02 -0.72916496081E+01  0.47787273774E+02  0.20000012444E+02 0.  0.
         12    1    1    2    0    0 -0.39205123704E+02 -0.17129307000E+02  0.72916496081E+01  0.43400726226E+02  0.00000000000E+00 0. -1.
         11    1    3    3    0    0  0.16541932415E+02  0.14371616045E+02 -0.72940595176E+01  0.23095068310E+02  0.51100000000E-03 0. -1.
        -11    1    3    3    0    0  0.19538218862E+02  0.31916107041E+01 -0.33612383913E+01  0.20080495486E+02  0.51100000000E-03 0.  1.
         12    1    3    3    0    0  0.31249724279E+01 -0.43391974929E+00  0.33636483008E+01  0.46117099773E+01  0.00000000000E+00 0. -1.
</event>
<event>
 7    1  0.2455451E-009  0.4778727E+02  0.7816164E-02  0.1312668E+00
        -11   -1    0    0    0    0  0.00000000000E+00  0.00000000000E+00  0.45593999997E+02  0.45594000000E+02  0.51100000000E-03 0. -1.
         11   -1    0    0    0    0 -0.00000000000E+00 -0.00000000000E+00 -0.45593999997E+02  0.45594000000E+02  0.51100000000E-03 0.  1.
    9900012    2    1    2    0    0 -0.35533359021E+02  0.36613456785E+01 -0.24649510920E+02  0.47787269084E+02  0.19999991060E+02 0.  0.
         12    1    1    2    0    0  0.35533359021E+02 -0.36613456785E+01  0.24649510920E+02  0.43400730916E+02  0.00000000000E+00 0. -1.
         11    1    3    3    0    0  0.86360423760E+00 -0.25534429597E+01 -0.77202031204E+00  0.28039077822E+01  0.51100000000E-03 0. -1.
        -11    1    3    3    0    0 -0.19022508716E+02  0.31991568811E+01 -0.18032465086E+02  0.26405685750E+02  0.51100000000E-03 0.  1.
         12    1    3    3    0    0 -0.17374454542E+02  0.30156317570E+01 -0.58450255227E+01  0.18577675552E+02  0.00000000000E+00 0. -1.
</event>
<event>
 7    1  0.2455451E-009  0.4778727E+02  0.7816164E-02  0.1312668E+00
        -11   -1    0    0    0    0  0.00000000000E+00  0.00000000000E+00  0.45593999997E+02  0.45594000000E+02  0.51100000000E-03 0.  1.
         11   -1    0    0    0    0 -0.00000000000E+00 -0.00000000000E+00 -0.45593999997E+02  0.45594000000E+02  0.51100000000E-03 0. -1.
    9900012    2    1    2    0    0 -0.33892595956E+02  0.26056757906E+02  0.74806785644E+01  0.47787271377E+02  0.20000001515E+02 0.  0.
         12    1    1    2    0    0  0.33892595956E+02 -0.26056757906E+02 -0.74806785644E+01  0.43400728623E+02  0.00000000000E+00 0. -1.
         11    1    3    3    0    0 -0.22550531168E+02  0.60321777296E+01  0.32709340931E-01  0.23343407941E+02  0.51100000000E-03 0. -1.
        -11    1    3    3    0    0 -0.93357343656E+01  0.13421905036E+02  0.58127875579E+01  0.17352001913E+02  0.51100000000E-03 0.  1.
         12    1    3    3    0    0 -0.20063304228E+01  0.66026751405E+01  0.16351816656E+01  0.70918615226E+01  0.00000000000E+00 0. -1.
</event>
<event>
 7    1  0.2455451E-009  0.4778727E+02  0.7816164E-02  0.1312668E+00
        -11   -1    0    0    0    0  0.00000000000E+00  0.00000000000E+00  0.45593999997E+02  0.45594000000E+02  0.51100000000E-03 0.  1.
         11   -1    0    0    0    0 -0.00000000000E+00 -0.00000000000E+00 -0.45593999997E+02  0.45594000000E+02  0.51100000000E-03 0. -1.
    9900012    2    1    2    0    0  0.97251203346E+01  0.42033122291E+02  0.47182350943E+01  0.47787273307E+02  0.20000010317E+02 0.  0.
         12    1    1    2    0    0 -0.97251203346E+01 -0.42033122291E+02 -0.47182350943E+01  0.43400726693E+02  0.00000000000E+00 0. -1.
         11    1    3    3    0    0  0.18186585805E+01 -0.50155319356E+00  0.28335149161E+01  0.34040977775E+01  0.51100000000E-03 0. -1.
        -11    1    3    3    0    0  0.77063158929E+01  0.27984735213E+02 -0.26358327457E+01  0.29145845743E+02  0.51100000000E-03 0.  1.
         12    1    3    3    0    0  0.20014586129E+00  0.14549940272E+02  0.45205529240E+01  0.15237329786E+02  0.00000000000E+00 0. -1.
</event>
<event>
 7    1  0.2455451E-009  0.4778726E+02  0.7816164E-02  0.1312668E+00
        -11   -1    0    0    0    0  0.00000000000E+00  0.00000000000E+00  0.45593999997E+02  0.45594000000E+02  0.51100000000E-03 0.  1.
         11   -1    0    0    0    0 -0.00000000000E+00 -0.00000000000E+00 -0.45593999997E+02  0.45594000000E+02  0.51100000000E-03 0. -1.
    9900012    2    1    2    0    0 -0.29314889467E+02  0.21439443235E+02  0.23761551742E+02  0.47787264847E+02  0.19999971741E+02 0.  0.
         12    1    1    2    0    0  0.29314889467E+02 -0.21439443235E+02 -0.23761551742E+02  0.43400735153E+02  0.00000000000E+00 0. -1.
         11    1    3    3    0    0 -0.70023840205E+01 -0.19232055903E+01  0.11258036431E+01  0.73484376447E+01  0.51100000000E-03 0. -1.
        -11    1    3    3    0    0 -0.40301304413E+01  0.10144260101E+02  0.65332052099E+01  0.12721270965E+02  0.51100000000E-03 0.  1.
         12    1    3    3    0    0 -0.18282375005E+02  0.13218388723E+02  0.16102542889E+02  0.27717556237E+02  0.00000000000E+00 0. -1.
</event>
<event>
 7    1  0.2455451E-009  0.4778727E+02  0.7816164E-02  0.1312668E+00
        -11   -1    0    0    0    0  0.00000000000E+00  0.00000000000E+00  0.45593999997E+02  0.45594000000E+02  0.51100000000E-03 0.  1.
         11   -1    0    0    0    0 -0.00000000000E+00 -0.00000000000E+00 -0.45593999997E+02  0.45594000000E+02  0.51100000000E-03 0. -1.
    9900012    2    1    2    0    0 -0.14090697780E+02  0.31522821407E+02  0.26294246761E+02  0.47787269061E+02  0.19999990956E+02 0.  0.
         12    1    1    2    0    0  0.14090697780E+02 -0.31522821407E+02 -0.26294246761E+02  0.43400730939E+02  0.00000000000E+00 0. -1.
         11    1    3    3    0    0  0.24285855325E+01  0.68989337284E+01  0.50871835300E+01  0.89091386119E+01  0.51100000000E-03 0. -1.
        -11    1    3    3    0    0 -0.10884805796E+02  0.47007974505E+01  0.70115103447E+01  0.13774533439E+02  0.51100000000E-03 0.  1.
        -12    1    3    3    0    0 -0.56344775161E+01  0.19923090228E+02  0.14195552886E+02  0.25103597010E+02  0.00000000000E+00 0.  1.
</event>
<event>
 7    1  0.2455451E-009  0.4778727E+02  0.7816164E-02  0.1312668E+00
        -11   -1    0    0    0    0  0.00000000000E+00  0.00000000000E+00  0.45593999997E+02  0.45594000000E+02  0.51100000000E-03 0. -1.
         11   -1    0    0    0    0 -0.00000000000E+00 -0.00000000000E+00 -0.45593999997E+02  0.45594000000E+02  0.51100000000E-03 0.  1.
    9900012    2    1    2    0    0 -0.16246775083E+01 -0.28019912347E+02 -0.33103905830E+02  0.47787266756E+02  0.19999980447E+02 0.  0.
         12    1    1    2    0    0  0.16246775083E+01  0.28019912347E+02  0.33103905830E+02  0.43400733244E+02  0.00000000000E+00 0. -1.
         11    1    3    3    0    0 -0.70910728591E+01 -0.71089571592E+01 -0.34263019527E+01  0.10609435966E+02  0.51100000000E-03 0.  1.
        -11    1    3    3    0    0 -0.10504400772E+01 -0.44900923231E+01 -0.77575731715E+01  0.90246493116E+01  0.51100000000E-03 0. -1.
         12    1    3    3    0    0  0.65168354280E+01 -0.16420862865E+02 -0.21920030706E+02  0.28153181478E+02  0.00000000000E+00 0. -1.
</event>
<event>
 7    1  0.2455451E-009  0.4778727E+02  0.7816164E-02  0.1312668E+00
        -11   -1    0    0    0    0  0.00000000000E+00  0.00000000000E+00  0.45593999997E+02  0.45594000000E+02  0.51100000000E-03 0.  1.
         11   -1    0    0    0    0 -0.00000000000E+00 -0.00000000000E+00 -0.45593999997E+02  0.45594000000E+02  0.51100000000E-03 0. -1.
    9900012    2    1    2    0    0  0.84294575964E+01 -0.13607823935E+02  0.40340980277E+02  0.47787270544E+02  0.19999997720E+02 0.  0.
         12    1    1    2    0    0 -0.84294575964E+01  0.13607823935E+02 -0.40340980277E+02  0.43400729456E+02  0.00000000000E+00 0. -1.
         11    1    3    3    0    0  0.10432664789E+02 -0.22597759046E+01  0.13801152209E+02  0.17447603969E+02  0.51100000000E-03 0. -1.
        -11    1    3    3    0    0  0.24472007669E+00 -0.82442381614E+01  0.24791267243E+02  0.26127270859E+02  0.51100000000E-03 0.  1.
         12    1    3    3    0    0 -0.22479272689E+01 -0.31038098685E+01  0.17485608252E+01  0.42123957157E+01  0.00000000000E+00 0. -1.
</event>
<event>
 7    1  0.2455451E-009  0.4778727E+02  0.7816164E-02  0.1312668E+00
        -11   -1    0    0    0    0  0.00000000000E+00  0.00000000000E+00  0.45593999997E+02  0.45594000000E+02  0.51100000000E-03 0.  1.
         11   -1    0    0    0    0 -0.00000000000E+00 -0.00000000000E+00 -0.45593999997E+02  0.45594000000E+02  0.51100000000E-03 0. -1.
    9900012    2    1    2    0    0  0.29490439502E+02  0.24779754141E+01  0.31745815547E+02  0.47787272023E+02  0.20000004462E+02 0.  0.
         12    1    1    2    0    0 -0.29490439502E+02 -0.24779754141E+01 -0.31745815547E+02  0.43400727977E+02  0.00000000000E+00 0. -1.
         11    1    3    3    0    0  0.67727401020E+01 -0.27617545490E+01 -0.97543157162E+00  0.73789405534E+01  0.51100000000E-03 0. -1.
        -11    1    3    3    0    0  0.66132253016E+01  0.30192779821E+01  0.12526165790E+02  0.14482942314E+02  0.51100000000E-03 0.  1.
         12    1    3    3    0    0  0.16104474099E+02  0.22204519810E+01  0.20195081329E+02  0.25925389156E+02  0.00000000000E+00 0. -1.
</event>
<event>
 7    1  0.2455451E-009  0.4778728E+02  0.7816164E-02  0.1312668E+00
        -11   -1    0    0    0    0  0.00000000000E+00  0.00000000000E+00  0.45593999997E+02  0.45594000000E+02  0.51100000000E-03 0.  1.
         11   -1    0    0    0    0 -0.00000000000E+00 -0.00000000000E+00 -0.45593999997E+02  0.45594000000E+02  0.51100000000E-03 0. -1.
    9900012    2    1    2    0    0  0.14423386641E+02  0.16890969535E+02  0.37286503044E+02  0.47787282917E+02  0.20000054133E+02 0.  0.
         12    1    1    2    0    0 -0.14423386641E+02 -0.16890969535E+02 -0.37286503044E+02  0.43400717083E+02  0.00000000000E+00 0. -1.
         11    1    3    3    0    0 -0.28609926958E+01  0.16229319852E+01  0.17093925312E+01  0.37069138810E+01  0.51100000000E-03 0. -1.
        -11    1    3    3    0    0  0.13575977576E+02  0.61441877931E+01  0.14387134799E+02  0.20713470467E+02  0.51100000000E-03 0.  1.
        -12    1    3    3    0    0  0.37084017608E+01  0.91238497569E+01  0.21189975714E+02  0.23366898570E+02  0.00000000000E+00 0.  1.
</event>
<event>
 7    1  0.2455451E-009  0.4778727E+02  0.7816164E-02  0.1312668E+00
        -11   -1    0    0    0    0  0.00000000000E+00  0.00000000000E+00  0.45593999997E+02  0.45594000000E+02  0.51100000000E-03 0. -1.
         11   -1    0    0    0    0 -0.00000000000E+00 -0.00000000000E+00 -0.45593999997E+02  0.45594000000E+02  0.51100000000E-03 0.  1.
    9900012    2    1    2    0    0  0.42249028348E+02  0.77847194534E+01  0.61677589552E+01  0.47787268395E+02  0.19999987919E+02 0.  0.
         12    1    1    2    0    0 -0.42249028348E+02 -0.77847194534E+01 -0.61677589552E+01  0.43400731605E+02  0.00000000000E+00 0. -1.
         11    1    3    3    0    0  0.87177219205E+01 -0.49913354073E+01 -0.25916891218E+01  0.10374437691E+02  0.51100000000E-03 0. -1.
        -11    1    3    3    0    0  0.11378643378E+02  0.54647071065E+01  0.58213279368E+01  0.13900518267E+02  0.51100000000E-03 0.  1.
         12    1    3    3    0    0  0.22152663050E+02  0.73113477543E+01  0.29381201403E+01  0.23512312437E+02  0.00000000000E+00 0. -1.
</event>
<event>
 7    1  0.2455451E-009  0.4778727E+02  0.7816164E-02  0.1312668E+00
        -11   -1    0    0    0    0  0.00000000000E+00  0.00000000000E+00  0.45593999997E+02  0.45594000000E+02  0.51100000000E-03 0.  1.
         11   -1    0    0    0    0 -0.00000000000E+00 -0.00000000000E+00 -0.45593999997E+02  0.45594000000E+02  0.51100000000E-03 0. -1.
    9900012    2    1    2    0    0  0.25721661567E+02  0.52011600691E+00  0.34953521170E+02  0.47787273777E+02  0.20000012460E+02 0.  0.
         12    1    1    2    0    0 -0.25721661567E+02 -0.52011600691E+00 -0.34953521170E+02  0.43400726223E+02  0.00000000000E+00 0. -1.
         11    1    3    3    0    0  0.46590848295E+01 -0.48880945031E+01  0.66356817496E+01  0.94674606872E+01  0.51100000000E-03 0. -1.
        -11    1    3    3    0    0  0.14936603771E+02 -0.22175608433E+01  0.11970496826E+02  0.19269470746E+02  0.51100000000E-03 0.  1.
         12    1    3    3    0    0  0.61259729674E+01  0.76257713533E+01  0.16347342595E+02  0.19050342344E+02  0.00000000000E+00 0. -1.
</event>
<event>
 7    1  0.2455451E-009  0.4778727E+02  0.7816164E-02  0.1312668E+00
        -11   -1    0    0    0    0  0.00000000000E+00  0.00000000000E+00  0.45593999997E+02  0.45594000000E+02  0.51100000000E-03 0. -1.
         11   -1    0    0    0    0 -0.00000000000E+00 -0.00000000000E+00 -0.45593999997E+02  0.45594000000E+02  0.51100000000E-03 0.  1.
    9900012    2    1    2    0    0 -0.28397231432E+02 -0.31975681029E+02 -0.74010971942E+01  0.47787272242E+02  0.20000005460E+02 0.  0.
         12    1    1    2    0    0  0.28397231432E+02  0.31975681029E+02  0.74010971942E+01  0.43400727758E+02  0.00000000000E+00 0. -1.
         11    1    3    3    0    0 -0.12286738826E+02 -0.23841285881E+02 -0.35942982749E+01  0.27060854454E+02  0.51100000000E-03 0.  1.
        -11    1    3    3    0    0 -0.83885298696E+01 -0.38821087872E+00  0.15629904871E+01  0.85417258551E+01  0.51100000000E-03 0. -1.
         12    1    3    3    0    0 -0.77219627364E+01 -0.77461842693E+01 -0.53697894064E+01  0.12184691933E+02  0.00000000000E+00 0. -1.
</event>
<event>
 7    1  0.2455451E-009  0.4778728E+02  0.7816164E-02  0.1312668E+00
        -11   -1    0    0    0    0  0.00000000000E+00  0.00000000000E+00  0.45593999997E+02  0.45594000000E+02  0.51100000000E-03 0.  1.
         11   -1    0    0    0    0 -0.00000000000E+00 -0.00000000000E+00 -0.45593999997E+02  0.45594000000E+02  0.51100000000E-03 0. -1.
    9900012    2    1    2    0    0 -0.99875453597E+01 -0.42235903466E+02 -0.16862706972E-01  0.47787275487E+02  0.20000020255E+02 0.  0.
         12    1    1    2    0    0  0.99875453597E+01  0.42235903466E+02  0.16862706972E-01  0.43400724513E+02  0.00000000000E+00 0. -1.
         11    1    3    3    0    0 -0.30497136649E+01 -0.10061166887E+02 -0.71067062464E+01  0.12689882052E+02  0.51100000000E-03 0. -1.
        -11    1    3    3    0    0  0.27295403383E-01 -0.21227839685E+02  0.26941698531E+01  0.21398141839E+02  0.51100000000E-03 0.  1.
        -12    1    3    3    0    0 -0.69651270982E+01 -0.10946896895E+02  0.43956736864E+01  0.13699251596E+02  0.00000000000E+00 0.  1.
</event>
<event>
 7    1  0.2455451E-009  0.4778727E+02  0.7816164E-02  0.1312668E+00
        -11   -1    0    0    0    0  0.00000000000E+00  0.00000000000E+00  0.45593999997E+02  0.45594000000E+02  0.51100000000E-03 0.  1.
         11   -1    0    0    0    0 -0.00000000000E+00 -0.00000000000E+00 -0.45593999997E+02  0.45594000000E+02  0.51100000000E-03 0. -1.
    9900012    2    1    2    0    0  0.30528429963E+02 -0.26040343867E+02  0.16538996366E+02  0.47787274827E+02  0.20000017246E+02 0.  0.
         12    1    1    2    0    0 -0.30528429963E+02  0.26040343867E+02 -0.16538996366E+02  0.43400725173E+02  0.00000000000E+00 0. -1.
         11    1    3    3    0    0  0.14853902549E+02 -0.19875498628E+02  0.61088558939E+01  0.25553707896E+02  0.51100000000E-03 0.  1.
        -11    1    3    3    0    0  0.51004044100E+01  0.43325295877E+00  0.80574551480E+01  0.95459110092E+01  0.51100000000E-03 0. -1.
         12    1    3    3    0    0  0.10574123004E+02 -0.65980981984E+01  0.23726853241E+01  0.12687655922E+02  0.00000000000E+00 0. -1.
</event>
<event>
 7    1  0.2455451E-009  0.4778727E+02  0.7816164E-02  0.1312668E+00
        -11   -1    0    0    0    0  0.00000000000E+00  0.00000000000E+00  0.45593999997E+02  0.45594000000E+02  0.51100000000E-03 0.  1.
         11   -1    0    0    0    0 -0.00000000000E+00 -0.00000000000E+00 -0.45593999997E+02  0.45594000000E+02  0.51100000000E-03 0. -1.
    9900012    2    1    2    0    0  0.21288268391E+01 -0.98555935199E+01  0.42213249122E+02  0.47787273868E+02  0.20000012875E+02 0.  0.
         12    1    1    2    0    0 -0.21288268391E+01  0.98555935199E+01 -0.42213249122E+02  0.43400726132E+02  0.00000000000E+00 0. -1.
         11    1    3    3    0    0  0.35661236765E+01  0.20251474069E+01  0.17238230852E+02  0.17719341502E+02  0.51100000000E-03 0. -1.
        -11    1    3    3    0    0 -0.44433615488E+01 -0.12840150083E+02  0.20192643289E+02  0.24338359831E+02  0.51100000000E-03 0.  1.
        -12    1    3    3    0    0  0.30060647115E+01  0.95940915604E+00  0.47823749803E+01  0.57295725347E+01  0.00000000000E+00 0.  1.
</event>
<event>
 7    1  0.2455451E-009  0.4778728E+02  0.7816164E-02  0.1312668E+00
        -11   -1    0    0    0    0  0.00000000000E+00  0.00000000000E+00  0.45593999997E+02  0.45594000000E+02  0.51100000000E-03 0. -1.
         11   -1    0    0    0    0 -0.00000000000E+00 -0.00000000000E+00 -0.45593999997E+02  0.45594000000E+02  0.51100000000E-03 0.  1.
    9900012    2    1    2    0    0  0.12463653460E+01  0.21417018702E+02 -0.37727716551E+02  0.47787277508E+02  0.20000029472E+02 0.  0.
         12    1    1    2    0    0 -0.12463653460E+01 -0.21417018702E+02  0.37727716551E+02  0.43400722492E+02  0.00000000000E+00 0. -1.
         11    1    3    3    0    0 -0.38122409361E+00  0.47775773245E+01 -0.16629103986E+01  0.50730511683E+01  0.51100000000E-03 0. -1.
        -11    1    3    3    0    0 -0.54907312946E+01  0.14348398648E+02 -0.22956016281E+02  0.27622515412E+02  0.51100000000E-03 0.  1.
        -12    1    3    3    0    0  0.71183207342E+01  0.22910427297E+01 -0.13108789871E+02  0.15091710928E+02  0.00000000000E+00 0.  1.
</event>
<event>
 7    1  0.2455451E-009  0.4778727E+02  0.7816164E-02  0.1312668E+00
        -11   -1    0    0    0    0  0.00000000000E+00  0.00000000000E+00  0.45593999997E+02  0.45594000000E+02  0.51100000000E-03 0. -1.
         11   -1    0    0    0    0 -0.00000000000E+00 -0.00000000000E+00 -0.45593999997E+02  0.45594000000E+02  0.51100000000E-03 0.  1.
    9900012    2    1    2    0    0  0.17683406599E+02  0.39413424676E+02 -0.41835883044E+01  0.47787270458E+02  0.19999997328E+02 0.  0.
         12    1    1    2    0    0 -0.17683406599E+02 -0.39413424676E+02  0.41835883044E+01  0.43400729542E+02  0.00000000000E+00 0. -1.
         11    1    3    3    0    0  0.13371908277E+01  0.14970510789E+01  0.44563486402E+01  0.48875642918E+01  0.51100000000E-03 0. -1.
        -11    1    3    3    0    0  0.79222580412E+01  0.16636607679E+02 -0.77668390337E+01  0.19996566614E+02  0.51100000000E-03 0.  1.
         12    1    3    3    0    0  0.84239577304E+01  0.21279765918E+02 -0.87309791091E+00  0.22903139552E+02  0.00000000000E+00 0. -1.
</event>
<event>
 7    1  0.2455451E-009  0.4778727E+02  0.7816164E-02  0.1312668E+00
        -11   -1    0    0    0    0  0.00000000000E+00  0.00000000000E+00  0.45593999997E+02  0.45594000000E+02  0.51100000000E-03 0.  1.
         11   -1    0    0    0    0 -0.00000000000E+00 -0.00000000000E+00 -0.45593999997E+02  0.45594000000E+02  0.51100000000E-03 0. -1.
    9900012    2    1    2    0    0  0.21582958167E+02  0.23995807675E+02  0.29017247250E+02  0.47787268356E+02  0.19999987744E+02 0.  0.
         12    1    1    2    0    0 -0.21582958167E+02 -0.23995807675E+02 -0.29017247250E+02  0.43400731644E+02  0.00000000000E+00 0. -1.
         11    1    3    3    0    0  0.14484011262E+02  0.43735166759E+01  0.89322474887E+01  0.17569839949E+02  0.51100000000E-03 0. -1.
        -11    1    3    3    0    0  0.24771005330E+01  0.31653373974E+01  0.89658201492E+01  0.98255442139E+01  0.51100000000E-03 0.  1.
         12    1    3    3    0    0  0.46218463722E+01  0.16456953601E+02  0.11119179612E+02  0.20391884194E+02  0.00000000000E+00 0. -1.
</event>
<event>
 7    1  0.2455451E-009  0.4778723E+02  0.7816164E-02  0.1312668E+00
        -11   -1    0    0    0    0  0.00000000000E+00  0.00000000000E+00  0.45593999997E+02  0.45594000000E+02  0.51100000000E-03 0.  1.
         11   -1    0    0    0    0 -0.00000000000E+00 -0.00000000000E+00 -0.45593999997E+02  0.45594000000E+02  0.51100000000E-03 0. -1.
    9900012    2    1    2    0    0 -0.17015112670E+02  0.33382631023E+02  0.21902344689E+02  0.47787230237E+02  0.19999813941E+02 0.  0.
         12    1    1    2    0    0  0.17015112670E+02 -0.33382631023E+02 -0.21902344689E+02  0.43400769763E+02  0.00000000000E+00 0. -1.
         11    1    3    3    0    0  0.35703665513E+01  0.25855347902E+01  0.19271890842E+01  0.48110877657E+01  0.51100000000E-03 0.  1.
        -11    1    3    3    0    0 -0.97478857563E+00  0.95223704357E+00 -0.87908072940E+00  0.16216508084E+01  0.51100000000E-03 0. -1.
         12    1    3    3    0    0 -0.19610690646E+02  0.29844859189E+02  0.20854236334E+02  0.41354491663E+02  0.00000000000E+00 0. -1.
</event>
<event>
 7    1  0.2455451E-009  0.4778725E+02  0.7816164E-02  0.1312668E+00
        -11   -1    0    0    0    0  0.00000000000E+00  0.00000000000E+00  0.45593999997E+02  0.45594000000E+02  0.51100000000E-03 0. -1.
         11   -1    0    0    0    0 -0.00000000000E+00 -0.00000000000E+00 -0.45593999997E+02  0.45594000000E+02  0.51100000000E-03 0.  1.
    9900012    2    1    2    0    0 -0.37453377078E+02 -0.21914213676E+02 -0.79785233296E+00  0.47787253648E+02  0.19999920681E+02 0.  0.
         12    1    1    2    0    0  0.37453377078E+02  0.21914213676E+02  0.79785233296E+00  0.43400746352E+02  0.00000000000E+00 0. -1.
         11    1    3    3    0    0 -0.16523491427E+02 -0.82059361664E+01  0.80500837872E+01  0.20128760681E+02  0.51100000000E-03 0. -1.
        -11    1    3    3    0    0 -0.15523338857E+02 -0.12320995628E+02 -0.38985967095E+01  0.20198515764E+02  0.51100000000E-03 0.  1.
         12    1    3    3    0    0 -0.54065467946E+01 -0.13872818822E+01 -0.49493394106E+01  0.74599772027E+01  0.00000000000E+00 0. -1.
</event>
<event>
 7    1  0.2455451E-009  0.4778728E+02  0.7816164E-02  0.1312668E+00
        -11   -1    0    0    0    0  0.00000000000E+00  0.00000000000E+00  0.45593999997E+02  0.45594000000E+02  0.51100000000E-03 0. -1.
         11   -1    0    0    0    0 -0.00000000000E+00 -0.00000000000E+00 -0.45593999997E+02  0.45594000000E+02  0.51100000000E-03 0.  1.
    9900012    2    1    2    0    0 -0.32289241279E+02  0.13652994079E+02 -0.25585611194E+02  0.47787275929E+02  0.20000022271E+02 0.  0.
         12    1    1    2    0    0  0.32289241279E+02 -0.13652994079E+02  0.25585611194E+02  0.43400724071E+02  0.00000000000E+00 0. -1.
         11    1    3    3    0    0 -0.67068556249E+01  0.66135772436E+01 -0.31049557040E+01  0.99177651976E+01  0.51100000000E-03 0. -1.
        -11    1    3    3    0    0 -0.26455420999E+02  0.82153077388E+01 -0.23294415855E+02  0.36194065698E+02  0.51100000000E-03 0.  1.
        -12    1    3    3    0    0  0.87303534482E+00 -0.11758909029E+01  0.81376036477E+00  0.16754450335E+01  0.00000000000E+00 0.  1.
</event>
<event>
 7    1  0.2455451E-009  0.4778728E+02  0.7816164E-02  0.1312668E+00
        -11   -1    0    0    0    0  0.00000000000E+00  0.00000000000E+00  0.45593999997E+02  0.45594000000E+02  0.51100000000E-03 0. -1.
         11   -1    0    0    0    0 -0.00000000000E+00 -0.00000000000E+00 -0.45593999997E+02  0.45594000000E+02  0.51100000000E-03 0.  1.
    9900012    2    1    2    0    0 -0.39413033124E+02 -0.16071703754E+02 -0.84815039001E+01  0.47787277080E+02  0.20000027518E+02 0.  0.
         12    1    1    2    0    0  0.39413033124E+02  0.16071703754E+02  0.84815039001E+01  0.43400722920E+02  0.00000000000E+00 0. -1.
         11    1    3    3    0    0 -0.14546609714E+02 -0.90374169324E+01  0.27807602911E+01  0.17349679739E+02  0.51100000000E-03 0. -1.
        -11    1    3    3    0    0 -0.19015738860E+02 -0.92299554638E+01 -0.11724598023E+02  0.24171400483E+02  0.51100000000E-03 0.  1.
        -12    1    3    3    0    0 -0.58506845498E+01  0.21956686422E+01  0.46233383226E+00  0.62661968577E+01  0.00000000000E+00 0.  1.
</event>
<event>
 7    1  0.2455451E-009  0.4778727E+02  0.7816164E-02  0.1312668E+00
        -11   -1    0    0    0    0  0.00000000000E+00  0.00000000000E+00  0.45593999997E+02  0.45594000000E+02  0.51100000000E-03 0.  1.
         11   -1    0    0    0    0 -0.00000000000E+00 -0.00000000000E+00 -0.45593999997E+02  0.45594000000E+02  0.51100000000E-03 0. -1.
    9900012    2    1    2    0    0 -0.42541726666E+02  0.65896467725E+01  0.55137300611E+01  0.47787272224E+02  0.20000005379E+02 0.  0.
         12    1    1    2    0    0  0.42541726666E+02 -0.65896467725E+01 -0.55137300611E+01  0.43400727776E+02  0.00000000000E+00 0. -1.
         11    1    3    3    0    0 -0.17495468826E+02  0.27345719935E+01  0.89959508556E+01  0.19861934586E+02  0.51100000000E-03 0.  1.
        -11    1    3    3    0    0 -0.94687798793E+01  0.51453128460E+00 -0.67783945417E+01  0.11656293050E+02  0.51100000000E-03 0. -1.
         12    1    3    3    0    0 -0.15577477960E+02  0.33405434943E+01  0.32961737471E+01  0.16269044588E+02  0.00000000000E+00 0. -1.
</event>
<event>
 7    1  0.2455451E-009  0.4778727E+02  0.7816164E-02  0.1312668E+00
        -11   -1    0    0    0    0  0.00000000000E+00  0.00000000000E+00  0.45593999997E+02  0.45594000000E+02  0.51100000000E-03 0.  1.
         11   -1    0    0    0    0 -0.00000000000E+00 -0.00000000000E+00 -0.45593999997E+02  0.45594000000E+02  0.51100000000E-03 0. -1.
    9900012    2    1    2    0    0  0.34009996731E+02  0.71678755639E+01  0.25991628129E+02  0.47787273618E+02  0.20000011732E+02 0.  0.
         12    1    1    2    0    0 -0.34009996731E+02 -0.71678755639E+01 -0.25991628129E+02  0.43400726382E+02  0.00000000000E+00 0. -1.
         11    1    3    3    0    0  0.16112511093E-01 -0.29540410180E+01  0.31332671457E+01  0.43062723110E+01  0.51100000000E-03 0. -1.
        -11    1    3    3    0    0  0.27524966053E+02  0.61144866391E+01  0.13057049128E+02  0.31072451388E+02  0.51100000000E-03 0.  1.
        -12    1    3    3    0    0  0.64689181672E+01  0.40074299428E+01  0.98013118554E+01  0.12408549919E+02  0.00000000000E+00 0.  1.
</event>
<event>
 7    1  0.2455451E-009  0.4778727E+02  0.7816164E-02  0.1312668E+00
        -11   -1    0    0    0    0  0.00000000000E+00  0.00000000000E+00  0.45593999997E+02  0.45594000000E+02  0.51100000000E-03 0.  1.
         11   -1    0    0    0    0 -0.00000000000E+00 -0.00000000000E+00 -0.45593999997E+02  0.45594000000E+02  0.51100000000E-03 0. -1.
    9900012    2    1    2    0    0 -0.21291773659E+02 -0.35839101595E+02  0.12076523877E+02  0.47787271232E+02  0.20000000854E+02 0.  0.
         12    1    1    2    0    0  0.21291773659E+02  0.35839101595E+02 -0.12076523877E+02  0.43400728768E+02  0.00000000000E+00 0. -1.
         11    1    3    3    0    0  0.26658053229E+01 -0.82179659604E+00  0.95068180624E+00  0.29471450292E+01  0.51100000000E-03 0. -1.
        -11    1    3    3    0    0 -0.19622479610E+02 -0.33242038619E+02  0.87208888560E+01  0.39574344471E+02  0.51100000000E-03 0.  1.
         12    1    3    3    0    0 -0.43350993716E+01 -0.17752663798E+01  0.24049532146E+01  0.52657817316E+01  0.00000000000E+00 0. -1.
</event>
<event>
 7    1  0.2455451E-009  0.4778727E+02  0.7816164E-02  0.1312668E+00
        -11   -1    0    0    0    0  0.00000000000E+00  0.00000000000E+00  0.45593999997E+02  0.45594000000E+02  0.51100000000E-03 0. -1.
         11   -1    0    0    0    0 -0.00000000000E+00 -0.00000000000E+00 -0.45593999997E+02  0.45594000000E+02  0.51100000000E-03 0.  1.
    9900012    2    1    2    0    0  0.93582054184E+01 -0.24893386927E+02  0.34298196774E+02  0.47787273931E+02  0.20000013162E+02 0.  0.
         12    1    1    2    0    0 -0.93582054184E+01  0.24893386927E+02 -0.34298196774E+02  0.43400726069E+02  0.00000000000E+00 0. -1.
         11    1    3    3    0    0  0.11698202117E+02 -0.20218840376E+02  0.32818217616E+02  0.40282562564E+02  0.51100000000E-03 0. -1.
        -11    1    3    3    0    0 -0.33897513353E+01 -0.12634211933E+01 -0.59027376138E-01  0.36180287062E+01  0.51100000000E-03 0.  1.
         12    1    3    3    0    0  0.10497546366E+01 -0.34111253570E+01  0.15390065345E+01  0.38866826615E+01  0.00000000000E+00 0. -1.
</event>
<event>
 7    1  0.5071450E-009  0.4778727E+02  0.7816164E-02  0.1312668E+00
        -11   -1    0    0    0    0  0.00000000000E+00  0.00000000000E+00  0.45593999997E+02  0.45594000000E+02  0.51100000000E-03 0. -1.
         11   -1    0    0    0    0 -0.00000000000E+00 -0.00000000000E+00 -0.45593999997E+02  0.45594000000E+02  0.51100000000E-03 0.  1.
    9900012    2    1    2    0    0 -0.92623899441E+01 -0.99708663371E-01 -0.42400724687E+02  0.47787271167E+02  0.20000000557E+02 0.  0.
         12    1    1    2    0    0  0.92623899441E+01  0.99708663371E-01  0.42400724687E+02  0.43400728833E+02  0.00000000000E+00 0. -1.
         11    1    3    3    0    0  0.35605624322E+01  0.39113109235E+01 -0.10279080815E+02  0.11560080477E+02  0.51100000000E-03 0. -1.
        -11    1    3    3    0    0 -0.44862367086E+01 -0.52820656390E+01 -0.21930105783E+02  0.22999045135E+02  0.51100000000E-03 0.  1.
         12    1    3    3    0    0 -0.83367156677E+01  0.12710460521E+01 -0.10191538089E+02  0.13228145555E+02  0.00000000000E+00 0. -1.
</event>
<event>
 7    1  0.2455451E-009  0.4778727E+02  0.7816164E-02  0.1312668E+00
        -11   -1    0    0    0    0  0.00000000000E+00  0.00000000000E+00  0.45593999997E+02  0.45594000000E+02  0.51100000000E-03 0.  1.
         11   -1    0    0    0    0 -0.00000000000E+00 -0.00000000000E+00 -0.45593999997E+02  0.45594000000E+02  0.51100000000E-03 0. -1.
    9900012    2    1    2    0    0  0.79181666587E+01 -0.41902090610E+02 -0.80709800693E+01  0.47787270973E+02  0.19999999676E+02 0.  0.
         12    1    1    2    0    0 -0.79181666587E+01  0.41902090610E+02  0.80709800693E+01  0.43400729027E+02  0.00000000000E+00 0. -1.
         11    1    3    3    0    0  0.14969678422E+01 -0.45410832703E+01 -0.62840843534E+01  0.78963324658E+01  0.51100000000E-03 0. -1.
        -11    1    3    3    0    0  0.45964835547E+01 -0.22026850709E+02  0.49559754354E+01  0.23040648993E+02  0.51100000000E-03 0.  1.
         12    1    3    3    0    0  0.18247152618E+01 -0.15334156631E+02 -0.67428711514E+01  0.16850289515E+02  0.00000000000E+00 0. -1.
</event>
<event>
 7    1  0.2455451E-009  0.4778727E+02  0.7816164E-02  0.1312668E+00
        -11   -1    0    0    0    0  0.00000000000E+00  0.00000000000E+00  0.45593999997E+02  0.45594000000E+02  0.51100000000E-03 0.  1.
         11   -1    0    0    0    0 -0.00000000000E+00 -0.00000000000E+00 -0.45593999997E+02  0.45594000000E+02  0.51100000000E-03 0. -1.
    9900012    2    1    2    0    0 -0.34834405657E+02 -0.24613822623E+02 -0.80216741537E+01  0.47787270308E+02  0.19999996641E+02 0.  0.
         12    1    1    2    0    0  0.34834405657E+02  0.24613822623E+02  0.80216741537E+01  0.43400729692E+02  0.00000000000E+00 0. -1.
         11    1    3    3    0    0 -0.23125573728E+02 -0.82981368980E+01 -0.87767081662E+01  0.26089880082E+02  0.51100000000E-03 0. -1.
        -11    1    3    3    0    0 -0.12103192919E+02 -0.16974212309E+02  0.39872320269E+00  0.20851142481E+02  0.51100000000E-03 0.  1.
         12    1    3    3    0    0  0.39436098993E+00  0.65852658317E+00  0.35631080974E+00  0.84624774402E+00  0.00000000000E+00 0. -1.
</event>
<event>
 7    1  0.2455451E-009  0.4778727E+02  0.7816164E-02  0.1312668E+00
        -11   -1    0    0    0    0  0.00000000000E+00  0.00000000000E+00  0.45593999997E+02  0.45594000000E+02  0.51100000000E-03 0. -1.
         11   -1    0    0    0    0 -0.00000000000E+00 -0.00000000000E+00 -0.45593999997E+02  0.45594000000E+02  0.51100000000E-03 0.  1.
    9900012    2    1    2    0    0 -0.16813302717E+02 -0.36146141868E+02 -0.17157870140E+02  0.47787271574E+02  0.20000002413E+02 0.  0.
         12    1    1    2    0    0  0.16813302717E+02  0.36146141868E+02  0.17157870140E+02  0.43400728426E+02  0.00000000000E+00 0. -1.
         11    1    3    3    0    0 -0.20534200793E+01  0.38469400835E+00 -0.62890228850E+00  0.21817520143E+01  0.51100000000E-03 0. -1.
        -11    1    3    3    0    0 -0.40944940332E+01 -0.11755051136E+02 -0.13657871132E+02  0.18479273598E+02  0.51100000000E-03 0.  1.
        -12    1    3    3    0    0 -0.10665388604E+02 -0.24775784741E+02 -0.28710967196E+01  0.27126245962E+02  0.00000000000E+00 0.  1.
</event>
<event>
 7    1  0.2455451E-009  0.4778727E+02  0.7816164E-02  0.1312668E+00
        -11   -1    0    0    0    0  0.00000000000E+00  0.00000000000E+00  0.45593999997E+02  0.45594000000E+02  0.51100000000E-03 0. -1.
         11   -1    0    0    0    0 -0.00000000000E+00 -0.00000000000E+00 -0.45593999997E+02  0.45594000000E+02  0.51100000000E-03 0.  1.
    9900012    2    1    2    0    0  0.22254483913E+02 -0.30854032351E+02 -0.20889949708E+02  0.47787269991E+02  0.19999995196E+02 0.  0.
         12    1    1    2    0    0 -0.22254483913E+02  0.30854032351E+02  0.20889949708E+02  0.43400730009E+02  0.00000000000E+00 0. -1.
         11    1    3    3    0    0 -0.28916850388E+00 -0.56310961725E+01 -0.49367904808E+01  0.74943153817E+01  0.51100000000E-03 0. -1.
        -11    1    3    3    0    0  0.23662978661E+02 -0.18135473215E+02 -0.13255481811E+02  0.32627285302E+02  0.51100000000E-03 0.  1.
        -12    1    3    3    0    0 -0.11193262441E+01 -0.70874629631E+01 -0.26976774158E+01  0.76656693076E+01  0.00000000000E+00 0.  1.
</event>
<event>
 7    1  0.2455451E-009  0.4778727E+02  0.7816164E-02  0.1312668E+00
        -11   -1    0    0    0    0  0.00000000000E+00  0.00000000000E+00  0.45593999997E+02  0.45594000000E+02  0.51100000000E-03 0.  1.
         11   -1    0    0    0    0 -0.00000000000E+00 -0.00000000000E+00 -0.45593999997E+02  0.45594000000E+02  0.51100000000E-03 0. -1.
    9900012    2    1    2    0    0 -0.49610806034E+01 -0.14531476763E+01  0.43091756861E+02  0.47787268804E+02  0.19999989787E+02 0.  0.
         12    1    1    2    0    0  0.49610806034E+01  0.14531476763E+01 -0.43091756861E+02  0.43400731196E+02  0.00000000000E+00 0. -1.
         11    1    3    3    0    0 -0.37274439605E+01 -0.45837975604E+01  0.32211746293E+01  0.67291161980E+01  0.51100000000E-03 0. -1.
        -11    1    3    3    0    0  0.20003790614E+01  0.53019610512E+01  0.18995583706E+02  0.19822827951E+02  0.51100000000E-03 0.  1.
        -12    1    3    3    0    0 -0.32340157042E+01 -0.21713111671E+01  0.20874998526E+02  0.21235324655E+02  0.00000000000E+00 0.  1.
</event>
<event>
 7    1  0.2455451E-009  0.4778727E+02  0.7816164E-02  0.1312668E+00
        -11   -1    0    0    0    0  0.00000000000E+00  0.00000000000E+00  0.45593999997E+02  0.45594000000E+02  0.51100000000E-03 0.  1.
         11   -1    0    0    0    0 -0.00000000000E+00 -0.00000000000E+00 -0.45593999997E+02  0.45594000000E+02  0.51100000000E-03 0. -1.
    9900012    2    1    2    0    0  0.30898350109E+02 -0.16778802353E+02  0.25443804829E+02  0.47787268991E+02  0.19999990640E+02 0.  0.
         12    1    1    2    0    0 -0.30898350109E+02  0.16778802353E+02 -0.25443804829E+02  0.43400731009E+02  0.00000000000E+00 0. -1.
         11    1    3    3    0    0  0.39255302068E+01  0.16043283136E+00  0.12590493392E+02  0.13189239941E+02  0.51100000000E-03 0. -1.
        -11    1    3    3    0    0  0.22917424278E+02 -0.13950427165E+02  0.12348994992E+02  0.29535071207E+02  0.51100000000E-03 0.  1.
         12    1    3    3    0    0  0.40553956243E+01 -0.29888080192E+01  0.50431644524E+00  0.50629578432E+01  0.00000000000E+00 0. -1.
</event>
<event>
 7    1  0.2455451E-009  0.4778727E+02  0.7816164E-02  0.1312668E+00
        -11   -1    0    0    0    0  0.00000000000E+00  0.00000000000E+00  0.45593999997E+02  0.45594000000E+02  0.51100000000E-03 0. -1.
         11   -1    0    0    0    0 -0.00000000000E+00 -0.00000000000E+00 -0.45593999997E+02  0.45594000000E+02  0.51100000000E-03 0.  1.
    9900012    2    1    2    0    0  0.37115937936E+02  0.81293973815E+01  0.20974826715E+02  0.47787270670E+02  0.19999998292E+02 0.  0.
         12    1    1    2    0    0 -0.37115937936E+02 -0.81293973815E+01 -0.20974826715E+02  0.43400729330E+02  0.00000000000E+00 0. -1.
         11    1    3    3    0    0  0.58538084429E+01 -0.21748096696E+01 -0.46633438418E+00  0.62621352911E+01  0.51100000000E-03 0. -1.
        -11    1    3    3    0    0  0.86592188608E+01  0.87087473178E+01  0.11342203599E+02  0.16717354273E+02  0.51100000000E-03 0.  1.
        -12    1    3    3    0    0  0.22602910632E+02  0.15954597333E+01  0.10098957500E+02  0.24807781106E+02  0.00000000000E+00 0.  1.
</event>
<event>
 7    1  0.2455451E-009  0.4778727E+02  0.7816164E-02  0.1312668E+00
        -11   -1    0    0    0    0  0.00000000000E+00  0.00000000000E+00  0.45593999997E+02  0.45594000000E+02  0.51100000000E-03 0.  1.
         11   -1    0    0    0    0 -0.00000000000E+00 -0.00000000000E+00 -0.45593999997E+02  0.45594000000E+02  0.51100000000E-03 0. -1.
    9900012    2    1    2    0    0  0.41397769495E+02  0.53968122678E+01  0.11862649754E+02  0.47787270041E+02  0.19999995424E+02 0.  0.
         12    1    1    2    0    0 -0.41397769495E+02 -0.53968122678E+01 -0.11862649754E+02  0.43400729959E+02  0.00000000000E+00 0. -1.
         11    1    3    3    0    0  0.26668916231E+02 -0.76328117738E+00 -0.10485186630E+01  0.26700432257E+02  0.51100000000E-03 0. -1.
        -11    1    3    3    0    0  0.14102009635E+02  0.45439751988E+01  0.12275126542E+02  0.19240403276E+02  0.51100000000E-03 0.  1.
        -12    1    3    3    0    0  0.62684362917E+00  0.16161182464E+01  0.63604187487E+00  0.18464345069E+01  0.00000000000E+00 0.  1.
</event>
<event>
 7    1  0.2455451E-009  0.4778727E+02  0.7816164E-02  0.1312668E+00
        -11   -1    0    0    0    0  0.00000000000E+00  0.00000000000E+00  0.45593999997E+02  0.45594000000E+02  0.51100000000E-03 0. -1.
         11   -1    0    0    0    0 -0.00000000000E+00 -0.00000000000E+00 -0.45593999997E+02  0.45594000000E+02  0.51100000000E-03 0.  1.
    9900012    2    1    2    0    0  0.12508497882E+02 -0.30536658033E+02 -0.28189953469E+02  0.47787268674E+02  0.19999989191E+02 0.  0.
         12    1    1    2    0    0 -0.12508497882E+02  0.30536658033E+02  0.28189953469E+02  0.43400731326E+02  0.00000000000E+00 0. -1.
         11    1    3    3    0    0  0.24774323260E+01 -0.18392122776E+02 -0.64203512886E+01  0.19637432675E+02  0.51100000000E-03 0. -1.
        -11    1    3    3    0    0  0.12258409667E+01 -0.78684595833E+01 -0.83383595127E+01  0.11530116301E+02  0.51100000000E-03 0.  1.
         12    1    3    3    0    0  0.88052245896E+01 -0.42760756738E+01 -0.13431242667E+02  0.16619719698E+02  0.00000000000E+00 0. -1.
</event>
<event>
 7    1  0.2455451E-009  0.4778727E+02  0.7816164E-02  0.1312668E+00
        -11   -1    0    0    0    0  0.00000000000E+00  0.00000000000E+00  0.45593999997E+02  0.45594000000E+02  0.51100000000E-03 0.  1.
         11   -1    0    0    0    0 -0.00000000000E+00 -0.00000000000E+00 -0.45593999997E+02  0.45594000000E+02  0.51100000000E-03 0. -1.
    9900012    2    1    2    0    0 -0.35803260702E+02 -0.10881106785E+01  0.24506439952E+02  0.47787273498E+02  0.20000011188E+02 0.  0.
         12    1    1    2    0    0  0.35803260702E+02  0.10881106785E+01 -0.24506439952E+02  0.43400726502E+02  0.00000000000E+00 0. -1.
         11    1    3    3    0    0 -0.34103023440E+01 -0.50449105465E+01  0.10213528606E+00  0.60902969039E+01  0.51100000000E-03 0. -1.
        -11    1    3    3    0    0 -0.24366458306E+01 -0.25048046556E+00  0.55122422452E+01  0.60319812830E+01  0.51100000000E-03 0.  1.
        -12    1    3    3    0    0 -0.29956312527E+02  0.42072803336E+01  0.18892062421E+02  0.35664995311E+02  0.00000000000E+00 0.  1.
</event>
<event>
 7    1  0.2455451E-009  0.4778727E+02  0.7816164E-02  0.1312668E+00
        -11   -1    0    0    0    0  0.00000000000E+00  0.00000000000E+00  0.45593999997E+02  0.45594000000E+02  0.51100000000E-03 0.  1.
         11   -1    0    0    0    0 -0.00000000000E+00 -0.00000000000E+00 -0.45593999997E+02  0.45594000000E+02  0.51100000000E-03 0. -1.
    9900012    2    1    2    0    0 -0.16836513787E+02  0.32540954870E+02  0.23264593399E+02  0.47787271361E+02  0.20000001445E+02 0.  0.
         12    1    1    2    0    0  0.16836513787E+02 -0.32540954870E+02 -0.23264593399E+02  0.43400728639E+02  0.00000000000E+00 0. -1.
         11    1    3    3    0    0 -0.89177886337E+01  0.20821685724E+02  0.52639915966E+01  0.23254658851E+02  0.51100000000E-03 0. -1.
        -11    1    3    3    0    0 -0.21869114505E+01  0.94745323344E+01  0.14478116394E+02  0.17440332544E+02  0.51100000000E-03 0.  1.
         12    1    3    3    0    0 -0.57318137028E+01  0.22447368124E+01  0.35224854076E+01  0.70922799668E+01  0.00000000000E+00 0. -1.
</event>
<event>
 7    1  0.2455451E-009  0.4778727E+02  0.7816164E-02  0.1312668E+00
        -11   -1    0    0    0    0  0.00000000000E+00  0.00000000000E+00  0.45593999997E+02  0.45594000000E+02  0.51100000000E-03 0.  1.
         11   -1    0    0    0    0 -0.00000000000E+00 -0.00000000000E+00 -0.45593999997E+02  0.45594000000E+02  0.51100000000E-03 0. -1.
    9900012    2    1    2    0    0  0.25376524123E+02 -0.28499402947E+02  0.20674611687E+02  0.47787268286E+02  0.19999987424E+02 0.  0.
         12    1    1    2    0    0 -0.25376524123E+02  0.28499402947E+02 -0.20674611687E+02  0.43400731714E+02  0.00000000000E+00 0. -1.
         11    1    3    3    0    0  0.30930937504E+01 -0.10593033394E+02 -0.17760965494E+01  0.11177392569E+02  0.51100000000E-03 0. -1.
        -11    1    3    3    0    0  0.20097424384E+02 -0.14977895530E+02  0.20919510508E+02  0.32647660583E+02  0.51100000000E-03 0.  1.
        -12    1    3    3    0    0  0.21860059884E+01 -0.29284740229E+01  0.15311977288E+01  0.39622151341E+01  0.00000000000E+00 0.  1.
</event>
<event>
 7    1  0.2455451E-009  0.4778727E+02  0.7816164E-02  0.1312668E+00
        -11   -1    0    0    0    0  0.00000000000E+00  0.00000000000E+00  0.45593999997E+02  0.45594000000E+02  0.51100000000E-03 0. -1.
         11   -1    0    0    0    0 -0.00000000000E+00 -0.00000000000E+00 -0.45593999997E+02  0.45594000000E+02  0.51100000000E-03 0.  1.
    9900012    2    1    2    0    0  0.63742662682E+01 -0.30191926477E+02 -0.30519495574E+02  0.47787270687E+02  0.19999998369E+02 0.  0.
         12    1    1    2    0    0 -0.63742662682E+01  0.30191926477E+02  0.30519495574E+02  0.43400729313E+02  0.00000000000E+00 0. -1.
         11    1    3    3    0    0 -0.14576353243E+01 -0.67921159689E+01  0.21296658606E+00  0.69500284245E+01  0.51100000000E-03 0. -1.
        -11    1    3    3    0    0  0.17591989070E+01 -0.11828937438E+02 -0.22243049525E+02  0.25254144098E+02  0.51100000000E-03 0.  1.
        -12    1    3    3    0    0  0.60727026855E+01 -0.11570873070E+02 -0.84894126355E+01  0.15583098164E+02  0.00000000000E+00 0.  1.
</event>
<event>
 7    1  0.2455451E-009  0.4778726E+02  0.7816164E-02  0.1312668E+00
        -11   -1    0    0    0    0  0.00000000000E+00  0.00000000000E+00  0.45593999997E+02  0.45594000000E+02  0.51100000000E-03 0.  1.
         11   -1    0    0    0    0 -0.00000000000E+00 -0.00000000000E+00 -0.45593999997E+02  0.45594000000E+02  0.51100000000E-03 0. -1.
    9900012    2    1    2    0    0  0.42342301299E+02  0.87123198433E+01  0.38534295781E+01  0.47787263649E+02  0.19999966279E+02 0.  0.
         12    1    1    2    0    0 -0.42342301299E+02 -0.87123198433E+01 -0.38534295781E+01  0.43400736351E+02  0.00000000000E+00 0. -1.
         11    1    3    3    0    0  0.23471392192E+02  0.10215573928E+02 -0.52168062883E+01  0.26124304206E+02  0.51100000000E-03 0. -1.
        -11    1    3    3    0    0  0.17292417491E+02 -0.10439416880E+01  0.62850050421E+01  0.18428749431E+02  0.51100000000E-03 0.  1.
        -12    1    3    3    0    0  0.15784916156E+01 -0.45931239693E+00  0.27852308244E+01  0.32342100123E+01  0.00000000000E+00 0.  1.
</event>
<event>
 7    1  0.2455451E-009  0.4778727E+02  0.7816164E-02  0.1312668E+00
        -11   -1    0    0    0    0  0.00000000000E+00  0.00000000000E+00  0.45593999997E+02  0.45594000000E+02  0.51100000000E-03 0. -1.
         11   -1    0    0    0    0 -0.00000000000E+00 -0.00000000000E+00 -0.45593999997E+02  0.45594000000E+02  0.51100000000E-03 0.  1.
    9900012    2    1    2    0    0  0.25185503043E+02 -0.35081478495E+02 -0.43131963841E+01  0.47787270052E+02  0.19999995476E+02 0.  0.
         12    1    1    2    0    0 -0.25185503043E+02  0.35081478495E+02  0.43131963841E+01  0.43400729948E+02  0.00000000000E+00 0. -1.
         11    1    3    3    0    0  0.46026888402E+01 -0.69104781299E+00  0.35151087520E+01  0.58325193046E+01  0.51100000000E-03 0. -1.
        -11    1    3    3    0    0  0.13603849867E+02 -0.29922307139E+02 -0.71654995438E+01  0.33641545441E+02  0.51100000000E-03 0.  1.
         12    1    3    3    0    0  0.69789643366E+01 -0.44681235437E+01 -0.66280559224E+00  0.83132053064E+01  0.00000000000E+00 0. -1.
</event>
<event>
 7    1  0.2455451E-009  0.4778727E+02  0.7816164E-02  0.1312668E+00
        -11   -1    0    0    0    0  0.00000000000E+00  0.00000000000E+00  0.45593999997E+02  0.45594000000E+02  0.51100000000E-03 0.  1.
         11   -1    0    0    0    0 -0.00000000000E+00 -0.00000000000E+00 -0.45593999997E+02  0.45594000000E+02  0.51100000000E-03 0. -1.
    9900012    2    1    2    0    0  0.53271922777E+01 -0.38690208366E+02  0.18929134863E+02  0.47787270195E+02  0.19999996128E+02 0.  0.
         12    1    1    2    0    0 -0.53271922777E+01  0.38690208366E+02 -0.18929134863E+02  0.43400729805E+02  0.00000000000E+00 0. -1.
         11    1    3    3    0    0  0.56590485380E+01 -0.10527372370E+02  0.12287921494E+02  0.17141861459E+02  0.51100000000E-03 0.  1.
        -11    1    3    3    0    0 -0.17839483345E+01 -0.90814915029E+01 -0.22797148690E+01  0.95316871394E+01  0.51100000000E-03 0. -1.
         12    1    3    3    0    0  0.14520920742E+01 -0.19081344493E+02  0.89209282376E+01  0.21113721597E+02  0.00000000000E+00 0. -1.
</event>
<event>
 7    1  0.2455451E-009  0.4778728E+02  0.7816164E-02  0.1312668E+00
        -11   -1    0    0    0    0  0.00000000000E+00  0.00000000000E+00  0.45593999997E+02  0.45594000000E+02  0.51100000000E-03 0.  1.
         11   -1    0    0    0    0 -0.00000000000E+00 -0.00000000000E+00 -0.45593999997E+02  0.45594000000E+02  0.51100000000E-03 0. -1.
    9900012    2    1    2    0    0 -0.49723598036E+01 -0.32331083168E+01  0.42993548986E+02  0.47787278741E+02  0.20000035090E+02 0.  0.
         12    1    1    2    0    0  0.49723598036E+01  0.32331083168E+01 -0.42993548986E+02  0.43400721259E+02  0.00000000000E+00 0. -1.
         11    1    3    3    0    0 -0.36764029627E+01 -0.11249285558E+01  0.11633726809E+01  0.40168195448E+01  0.51100000000E-03 0. -1.
        -11    1    3    3    0    0 -0.54189318310E+01 -0.17720993920E+01  0.36885958105E+02  0.37323974386E+02  0.51100000000E-03 0.  1.
        -12    1    3    3    0    0  0.41229749901E+01 -0.33608036903E+00  0.49442182006E+01  0.64464848094E+01  0.00000000000E+00 0.  1.
</event>
<event>
 7    1  0.2455451E-009  0.4778727E+02  0.7816164E-02  0.1312668E+00
        -11   -1    0    0    0    0  0.00000000000E+00  0.00000000000E+00  0.45593999997E+02  0.45594000000E+02  0.51100000000E-03 0. -1.
         11   -1    0    0    0    0 -0.00000000000E+00 -0.00000000000E+00 -0.45593999997E+02  0.45594000000E+02  0.51100000000E-03 0.  1.
    9900012    2    1    2    0    0 -0.33836858280E+00 -0.35645491808E+02 -0.24756972431E+02  0.47787271164E+02  0.20000000546E+02 0.  0.
         12    1    1    2    0    0  0.33836858280E+00  0.35645491808E+02  0.24756972431E+02  0.43400728836E+02  0.00000000000E+00 0. -1.
         11    1    3    3    0    0 -0.29073717174E+01 -0.10225778850E+02 -0.16786024500E+02  0.19869322640E+02  0.51100000000E-03 0. -1.
        -11    1    3    3    0    0  0.49093605333E+01 -0.20184439146E+02 -0.46352357635E+01  0.21283768823E+02  0.51100000000E-03 0.  1.
        -12    1    3    3    0    0 -0.23403573987E+01 -0.52352738120E+01 -0.33357121677E+01  0.66341797010E+01  0.00000000000E+00 0.  1.
</event>
<event>
 7    1  0.2455451E-009  0.4778727E+02  0.7816164E-02  0.1312668E+00
        -11   -1    0    0    0    0  0.00000000000E+00  0.00000000000E+00  0.45593999997E+02  0.45594000000E+02  0.51100000000E-03 0.  1.
         11   -1    0    0    0    0 -0.00000000000E+00 -0.00000000000E+00 -0.45593999997E+02  0.45594000000E+02  0.51100000000E-03 0. -1.
    9900012    2    1    2    0    0  0.27342663163E+02  0.82053569981E+01  0.32690584651E+02  0.47787269164E+02  0.19999991425E+02 0.  0.
         12    1    1    2    0    0 -0.27342663163E+02 -0.82053569981E+01 -0.32690584651E+02  0.43400730836E+02  0.00000000000E+00 0. -1.
         11    1    3    3    0    0  0.67466279694E+00 -0.83776902091E-01 -0.22670703589E+01  0.23668115118E+01  0.51100000000E-03 0. -1.
        -11    1    3    3    0    0  0.18831503061E+02  0.46890927818E+01  0.18355596940E+02  0.26712188939E+02  0.51100000000E-03 0.  1.
         12    1    3    3    0    0  0.78364973048E+01  0.36000411183E+01  0.16602058070E+02  0.18708268713E+02  0.00000000000E+00 0. -1.
</event>
<event>
 7    1  0.2455451E-009  0.4778727E+02  0.7816164E-02  0.1312668E+00
        -11   -1    0    0    0    0  0.00000000000E+00  0.00000000000E+00  0.45593999997E+02  0.45594000000E+02  0.51100000000E-03 0.  1.
         11   -1    0    0    0    0 -0.00000000000E+00 -0.00000000000E+00 -0.45593999997E+02  0.45594000000E+02  0.51100000000E-03 0. -1.
    9900012    2    1    2    0    0  0.42284596732E+02  0.96805120699E+01  0.13869724510E+01  0.47787272733E+02  0.20000007697E+02 0.  0.
         12    1    1    2    0    0 -0.42284596732E+02 -0.96805120699E+01 -0.13869724510E+01  0.43400727267E+02  0.00000000000E+00 0. -1.
         11    1    3    3    0    0  0.63997754137E+01  0.46834040889E+01  0.10150022906E+01  0.79951003193E+01  0.51100000000E-03 0.  1.
        -11    1    3    3    0    0  0.26204219403E+02  0.77012841843E+01 -0.59029357107E+01  0.27943076832E+02  0.51100000000E-03 0. -1.
        -12    1    3    3    0    0  0.96806019160E+01 -0.27041762033E+01  0.62749058712E+01  0.11849095581E+02  0.00000000000E+00 0.  1.
</event>
<event>
 7    1  0.2455451E-009  0.4778727E+02  0.7816164E-02  0.1312668E+00
        -11   -1    0    0    0    0  0.00000000000E+00  0.00000000000E+00  0.45593999997E+02  0.45594000000E+02  0.51100000000E-03 0. -1.
         11   -1    0    0    0    0 -0.00000000000E+00 -0.00000000000E+00 -0.45593999997E+02  0.45594000000E+02  0.51100000000E-03 0.  1.
    9900012    2    1    2    0    0 -0.48215905869E+01  0.26567118558E+02 -0.33978876010E+02  0.47787267988E+02  0.19999986065E+02 0.  0.
         12    1    1    2    0    0  0.48215905869E+01 -0.26567118558E+02  0.33978876010E+02  0.43400732012E+02  0.00000000000E+00 0. -1.
         11    1    3    3    0    0 -0.45990995769E+01  0.60953104247E+01 -0.18770859451E+02  0.20264493354E+02  0.51100000000E-03 0. -1.
        -11    1    3    3    0    0 -0.32990455132E+01  0.19051217256E+02 -0.11485588354E+02  0.22488915500E+02  0.51100000000E-03 0.  1.
         12    1    3    3    0    0  0.30765545032E+01  0.14205908775E+01 -0.37224282039E+01  0.50338591344E+01  0.00000000000E+00 0. -1.
</event>
<event>
 7    1  0.2455451E-009  0.4778727E+02  0.7816164E-02  0.1312668E+00
        -11   -1    0    0    0    0  0.00000000000E+00  0.00000000000E+00  0.45593999997E+02  0.45594000000E+02  0.51100000000E-03 0.  1.
         11   -1    0    0    0    0 -0.00000000000E+00 -0.00000000000E+00 -0.45593999997E+02  0.45594000000E+02  0.51100000000E-03 0. -1.
    9900012    2    1    2    0    0 -0.28914658380E+02  0.19404294099E+02  0.25904423962E+02  0.47787270979E+02  0.19999999703E+02 0.  0.
         12    1    1    2    0    0  0.28914658380E+02 -0.19404294099E+02 -0.25904423962E+02  0.43400729021E+02  0.00000000000E+00 0. -1.
         11    1    3    3    0    0 -0.16846652881E+02  0.38947746444E+01  0.74444578992E+01  0.18825486355E+02  0.51100000000E-03 0. -1.
        -11    1    3    3    0    0 -0.63980929592E+01  0.77491872096E+01  0.16240061628E+02  0.19097777301E+02  0.51100000000E-03 0.  1.
        -12    1    3    3    0    0 -0.56699125398E+01  0.77603322449E+01  0.22199044354E+01  0.98640073227E+01  0.00000000000E+00 0.  1.
</event>
<event>
 7    1  0.2455451E-009  0.4778727E+02  0.7816164E-02  0.1312668E+00
        -11   -1    0    0    0    0  0.00000000000E+00  0.00000000000E+00  0.45593999997E+02  0.45594000000E+02  0.51100000000E-03 0. -1.
         11   -1    0    0    0    0 -0.00000000000E+00 -0.00000000000E+00 -0.45593999997E+02  0.45594000000E+02  0.51100000000E-03 0.  1.
    9900012    2    1    2    0    0 -0.19847016851E+02 -0.37882736591E+02 -0.73903478631E+01  0.47787273611E+02  0.20000011703E+02 0.  0.
         12    1    1    2    0    0  0.19847016851E+02  0.37882736591E+02  0.73903478631E+01  0.43400726389E+02  0.00000000000E+00 0. -1.
         11    1    3    3    0    0 -0.11829285392E+02 -0.98544505851E+01  0.26699489203E+01  0.15625966105E+02  0.51100000000E-03 0. -1.
        -11    1    3    3    0    0 -0.98307059243E+01 -0.22995169972E+02 -0.68793164985E+01  0.25937340202E+02  0.51100000000E-03 0.  1.
        -12    1    3    3    0    0  0.18129744656E+01 -0.50331160346E+01 -0.31809802848E+01  0.62239673041E+01  0.00000000000E+00 0.  1.
</event>
<event>
 7    1  0.2455451E-009  0.4778727E+02  0.7816164E-02  0.1312668E+00
        -11   -1    0    0    0    0  0.00000000000E+00  0.00000000000E+00  0.45593999997E+02  0.45594000000E+02  0.51100000000E-03 0. -1.
         11   -1    0    0    0    0 -0.00000000000E+00 -0.00000000000E+00 -0.45593999997E+02  0.45594000000E+02  0.51100000000E-03 0.  1.
    9900012    2    1    2    0    0  0.12805775991E+02 -0.31783253013E+02 -0.26635694870E+02  0.47787270605E+02  0.19999997998E+02 0.  0.
         12    1    1    2    0    0 -0.12805775991E+02  0.31783253013E+02  0.26635694870E+02  0.43400729395E+02  0.00000000000E+00 0. -1.
         11    1    3    3    0    0  0.17452008356E+01  0.19979053921E+01  0.82437148545E+00  0.27779381778E+01  0.51100000000E-03 0. -1.
        -11    1    3    3    0    0  0.85450444788E+01 -0.27809133457E+02 -0.21181616003E+02  0.35986477259E+02  0.51100000000E-03 0.  1.
         12    1    3    3    0    0  0.25155306760E+01 -0.59720249481E+01 -0.62784503525E+01  0.90228551685E+01  0.00000000000E+00 0. -1.
</event>
<event>
 7    1  0.2455451E-009  0.4778727E+02  0.7816164E-02  0.1312668E+00
        -11   -1    0    0    0    0  0.00000000000E+00  0.00000000000E+00  0.45593999997E+02  0.45594000000E+02  0.51100000000E-03 0.  1.
         11   -1    0    0    0    0 -0.00000000000E+00 -0.00000000000E+00 -0.45593999997E+02  0.45594000000E+02  0.51100000000E-03 0. -1.
    9900012    2    1    2    0    0  0.95548012995E+01 -0.35341318738E+02  0.23309230022E+02  0.47787271409E+02  0.20000001663E+02 0.  0.
         12    1    1    2    0    0 -0.95548012995E+01  0.35341318738E+02 -0.23309230022E+02  0.43400728591E+02  0.00000000000E+00 0. -1.
         11    1    3    3    0    0  0.39777114230E+01 -0.11584330526E+02 -0.65643145602E+00  0.12265798157E+02  0.51100000000E-03 0.  1.
        -11    1    3    3    0    0 -0.39086804832E+00  0.19221104871E+00 -0.57139920324E+00  0.71848467557E+00  0.51100000000E-03 0. -1.
         12    1    3    3    0    0  0.59679579248E+01 -0.23949199260E+02  0.24537060682E+02  0.34802988577E+02  0.00000000000E+00 0. -1.
</event>
<event>
 7    1  0.2455451E-009  0.4778726E+02  0.7816164E-02  0.1312668E+00
        -11   -1    0    0    0    0  0.00000000000E+00  0.00000000000E+00  0.45593999997E+02  0.45594000000E+02  0.51100000000E-03 0.  1.
         11   -1    0    0    0    0 -0.00000000000E+00 -0.00000000000E+00 -0.45593999997E+02  0.45594000000E+02  0.51100000000E-03 0. -1.
    9900012    2    1    2    0    0 -0.28861330718E+02  0.30115626205E+02 -0.11987353127E+02  0.47787262823E+02  0.19999962513E+02 0.  0.
         12    1    1    2    0    0  0.28861330718E+02 -0.30115626205E+02  0.11987353127E+02  0.43400737177E+02  0.00000000000E+00 0. -1.
         11    1    3    3    0    0 -0.47646924522E+01 -0.11219518778E+01  0.17012490096E+01  0.51822117512E+01  0.51100000000E-03 0. -1.
        -11    1    3    3    0    0 -0.21815004090E+02  0.25380137611E+02 -0.86984420462E+01  0.34579020849E+02  0.51100000000E-03 0.  1.
        -12    1    3    3    0    0 -0.22816341757E+01  0.58574404725E+01 -0.49901600908E+01  0.80260302225E+01  0.00000000000E+00 0.  1.
</event>
<event>
 7    1  0.2455451E-009  0.4778727E+02  0.7816164E-02  0.1312668E+00
        -11   -1    0    0    0    0  0.00000000000E+00  0.00000000000E+00  0.45593999997E+02  0.45594000000E+02  0.51100000000E-03 0.  1.
         11   -1    0    0    0    0 -0.00000000000E+00 -0.00000000000E+00 -0.45593999997E+02  0.45594000000E+02  0.51100000000E-03 0. -1.
    9900012    2    1    2    0    0  0.41058108368E+02  0.15187866424E+01  0.13983862692E+02  0.47787269690E+02  0.19999993826E+02 0.  0.
         12    1    1    2    0    0 -0.41058108368E+02 -0.15187866424E+01 -0.13983862692E+02  0.43400730310E+02  0.00000000000E+00 0. -1.
         11    1    3    3    0    0  0.38362708489E+01  0.20589827991E+01 -0.30180037288E+01  0.52976155921E+01  0.51100000000E-03 0. -1.
        -11    1    3    3    0    0  0.36400188756E+02 -0.27918276932E+01  0.15501160430E+02  0.39661745023E+02  0.51100000000E-03 0.  1.
        -12    1    3    3    0    0  0.82164876335E+00  0.22516315365E+01  0.15007059911E+01  0.28279090753E+01  0.00000000000E+00 0.  1.
</event>
<event>
 7    1  0.2455451E-009  0.4778727E+02  0.7816164E-02  0.1312668E+00
        -11   -1    0    0    0    0  0.00000000000E+00  0.00000000000E+00  0.45593999997E+02  0.45594000000E+02  0.51100000000E-03 0.  1.
         11   -1    0    0    0    0 -0.00000000000E+00 -0.00000000000E+00 -0.45593999997E+02  0.45594000000E+02  0.51100000000E-03 0. -1.
    9900012    2    1    2    0    0 -0.35984206788E+02 -0.76195258224E+01  0.23036988999E+02  0.47787272195E+02  0.20000005245E+02 0.  0.
         12    1    1    2    0    0  0.35984206788E+02  0.76195258224E+01 -0.23036988999E+02  0.43400727805E+02  0.00000000000E+00 0. -1.
         11    1    3    3    0    0 -0.19508793456E+02 -0.70379784265E+01  0.10996121647E+02  0.23474259392E+02  0.51100000000E-03 0. -1.
        -11    1    3    3    0    0 -0.58348858117E+01 -0.66690135214E+01  0.52168088806E+01  0.10282836619E+02  0.51100000000E-03 0.  1.
         12    1    3    3    0    0 -0.10640527519E+02  0.60874661256E+01  0.68240584716E+01  0.14030176184E+02  0.00000000000E+00 0. -1.
</event>
<event>
 7    1  0.2455451E-009  0.4778726E+02  0.7816164E-02  0.1312668E+00
        -11   -1    0    0    0    0  0.00000000000E+00  0.00000000000E+00  0.45593999997E+02  0.45594000000E+02  0.51100000000E-03 0. -1.
         11   -1    0    0    0    0 -0.00000000000E+00 -0.00000000000E+00 -0.45593999997E+02  0.45594000000E+02  0.51100000000E-03 0.  1.
    9900012    2    1    2    0    0 -0.69514369341E+01 -0.39357651360E+02 -0.16919722757E+02  0.47787260212E+02  0.19999950610E+02 0.  0.
         12    1    1    2    0    0  0.69514369341E+01  0.39357651360E+02  0.16919722757E+02  0.43400739788E+02  0.00000000000E+00 0. -1.
         11    1    3    3    0    0  0.15129561693E+01 -0.47979835424E+01  0.38973246863E+01  0.63638685102E+01  0.51100000000E-03 0. -1.
        -11    1    3    3    0    0 -0.60191757453E+00 -0.88976625228E+01 -0.42125638352E+01  0.98628797754E+01  0.51100000000E-03 0.  1.
         12    1    3    3    0    0 -0.78624755289E+01 -0.25662005294E+02 -0.16604483608E+02  0.31560511926E+02  0.00000000000E+00 0. -1.
</event>
<event>
 7    1  0.2455451E-009  0.4778727E+02  0.7816164E-02  0.1312668E+00
        -11   -1    0    0    0    0  0.00000000000E+00  0.00000000000E+00  0.45593999997E+02  0.45594000000E+02  0.51100000000E-03 0.  1.
         11   -1    0    0    0    0 -0.00000000000E+00 -0.00000000000E+00 -0.45593999997E+02  0.45594000000E+02  0.51100000000E-03 0. -1.
    9900012    2    1    2    0    0 -0.12234174275E+02  0.21481254100E+02  0.35672172722E+02  0.47787271843E+02  0.20000003641E+02 0.  0.
         12    1    1    2    0    0  0.12234174275E+02 -0.21481254100E+02 -0.35672172722E+02  0.43400728157E+02  0.00000000000E+00 0. -1.
         11    1    3    3    0    0 -0.96392653369E+01  0.42160194923E+01  0.10914270797E+02  0.15159537060E+02  0.51100000000E-03 0. -1.
        -11    1    3    3    0    0  0.24799437576E+01  0.14755222807E+02  0.21174615253E+02  0.25927418932E+02  0.51100000000E-03 0.  1.
        -12    1    3    3    0    0 -0.50748526957E+01  0.25100118005E+01  0.35832866720E+01  0.67003158504E+01  0.00000000000E+00 0.  1.
</event>
<event>
 7    1  0.2455451E-009  0.4778727E+02  0.7816164E-02  0.1312668E+00
        -11   -1    0    0    0    0  0.00000000000E+00  0.00000000000E+00  0.45593999997E+02  0.45594000000E+02  0.51100000000E-03 0.  1.
         11   -1    0    0    0    0 -0.00000000000E+00 -0.00000000000E+00 -0.45593999997E+02  0.45594000000E+02  0.51100000000E-03 0. -1.
    9900012    2    1    2    0    0  0.31038836185E+02 -0.14474240529E+02  0.26659151800E+02  0.47787269991E+02  0.19999995196E+02 0.  0.
         12    1    1    2    0    0 -0.31038836185E+02  0.14474240529E+02 -0.26659151800E+02  0.43400730009E+02  0.00000000000E+00 0. -1.
         11    1    3    3    0    0  0.44150307543E+01 -0.26695277777E+01  0.13474935042E+02  0.14428885950E+02  0.51100000000E-03 0. -1.
        -11    1    3    3    0    0  0.15762905813E+02 -0.78858404148E+01  0.12840927871E+02  0.21806996757E+02  0.51100000000E-03 0.  1.
         12    1    3    3    0    0  0.10860899618E+02 -0.39188723368E+01  0.34328888659E+00  0.11551387283E+02  0.00000000000E+00 0. -1.
</event>
<event>
 7    1  0.2455451E-009  0.4778727E+02  0.7816164E-02  0.1312668E+00
        -11   -1    0    0    0    0  0.00000000000E+00  0.00000000000E+00  0.45593999997E+02  0.45594000000E+02  0.51100000000E-03 0.  1.
         11   -1    0    0    0    0 -0.00000000000E+00 -0.00000000000E+00 -0.45593999997E+02  0.45594000000E+02  0.51100000000E-03 0. -1.
    9900012    2    1    2    0    0  0.36302461047E+02  0.25354358168E+01  0.23650080105E+02  0.47787269570E+02  0.19999993277E+02 0.  0.
         12    1    1    2    0    0 -0.36302461047E+02 -0.25354358168E+01 -0.23650080105E+02  0.43400730430E+02  0.00000000000E+00 0. -1.
         11    1    3    3    0    0  0.70433765787E+01 -0.37329036001E+01 -0.20941892748E+01  0.82419264675E+01  0.51100000000E-03 0. -1.
        -11    1    3    3    0    0  0.14104437866E+02  0.41725130566E+01  0.13134935038E+02  0.19719826354E+02  0.51100000000E-03 0.  1.
         12    1    3    3    0    0  0.15154646602E+02  0.20958263604E+01  0.12609334342E+02  0.19825516748E+02  0.00000000000E+00 0. -1.
</event>
<event>
 7    1  0.2455451E-009  0.4778727E+02  0.7816164E-02  0.1312668E+00
        -11   -1    0    0    0    0  0.00000000000E+00  0.00000000000E+00  0.45593999997E+02  0.45594000000E+02  0.51100000000E-03 0.  1.
         11   -1    0    0    0    0 -0.00000000000E+00 -0.00000000000E+00 -0.45593999997E+02  0.45594000000E+02  0.51100000000E-03 0. -1.
    9900012    2    1    2    0    0 -0.36045496325E+02  0.36899998165E+01  0.23889943137E+02  0.47787270893E+02  0.19999999309E+02 0.  0.
         12    1    1    2    0    0  0.36045496325E+02 -0.36899998165E+01 -0.23889943137E+02  0.43400729107E+02  0.00000000000E+00 0. -1.
         11    1    3    3    0    0 -0.11837731401E+02 -0.72499706960E+01  0.11003165533E+02  0.17713373812E+02  0.51100000000E-03 0. -1.
        -11    1    3    3    0    0 -0.13913449123E+02  0.85285121579E+01  0.98988524219E+01  0.19086824399E+02  0.51100000000E-03 0.  1.
         12    1    3    3    0    0 -0.10294315801E+02  0.24114583547E+01  0.29879251825E+01  0.10987072681E+02  0.00000000000E+00 0. -1.
</event>
<event>
 7    1  0.2455451E-009  0.4778727E+02  0.7816164E-02  0.1312668E+00
        -11   -1    0    0    0    0  0.00000000000E+00  0.00000000000E+00  0.45593999997E+02  0.45594000000E+02  0.51100000000E-03 0. -1.
         11   -1    0    0    0    0 -0.00000000000E+00 -0.00000000000E+00 -0.45593999997E+02  0.45594000000E+02  0.51100000000E-03 0.  1.
    9900012    2    1    2    0    0  0.23897114859E+02  0.18655259089E+01 -0.36181089570E+02  0.47787268117E+02  0.19999986653E+02 0.  0.
         12    1    1    2    0    0 -0.23897114859E+02 -0.18655259089E+01  0.36181089570E+02  0.43400731883E+02  0.00000000000E+00 0. -1.
         11    1    3    3    0    0  0.18559621657E+01 -0.46420474184E+01 -0.14157965143E+02  0.15014698700E+02  0.51100000000E-03 0. -1.
        -11    1    3    3    0    0  0.12947495850E+02  0.63017980642E+01 -0.17347605450E+02  0.22545281607E+02  0.51100000000E-03 0.  1.
         12    1    3    3    0    0  0.90936568434E+01  0.20577526303E+00 -0.46755189761E+01  0.10227287810E+02  0.00000000000E+00 0. -1.
</event>
<event>
 7    1  0.2455451E-009  0.4778727E+02  0.7816164E-02  0.1312668E+00
        -11   -1    0    0    0    0  0.00000000000E+00  0.00000000000E+00  0.45593999997E+02  0.45594000000E+02  0.51100000000E-03 0.  1.
         11   -1    0    0    0    0 -0.00000000000E+00 -0.00000000000E+00 -0.45593999997E+02  0.45594000000E+02  0.51100000000E-03 0. -1.
    9900012    2    1    2    0    0  0.11863710549E+02 -0.26652046037E+02  0.32133227224E+02  0.47787268696E+02  0.19999989292E+02 0.  0.
         12    1    1    2    0    0 -0.11863710549E+02  0.26652046037E+02 -0.32133227224E+02  0.43400731304E+02  0.00000000000E+00 0. -1.
         11    1    3    3    0    0 -0.10973526027E+01  0.58896040186E+00 -0.18783414794E+01  0.22537133943E+01  0.51100000000E-03 0. -1.
        -11    1    3    3    0    0  0.70167241105E+01 -0.17470393935E+02  0.21735403808E+02  0.28755466618E+02  0.51100000000E-03 0.  1.
         12    1    3    3    0    0  0.59443390412E+01 -0.97706125038E+01  0.12276164895E+02  0.16778088683E+02  0.00000000000E+00 0. -1.
</event>
<event>
 7    1  0.2455451E-009  0.4778728E+02  0.7816164E-02  0.1312668E+00
        -11   -1    0    0    0    0  0.00000000000E+00  0.00000000000E+00  0.45593999997E+02  0.45594000000E+02  0.51100000000E-03 0. -1.
         11   -1    0    0    0    0 -0.00000000000E+00 -0.00000000000E+00 -0.45593999997E+02  0.45594000000E+02  0.51100000000E-03 0.  1.
    9900012    2    1    2    0    0 -0.22290268598E+02 -0.23748152146E+02 -0.28684352183E+02  0.47787275759E+02  0.20000021495E+02 0.  0.
         12    1    1    2    0    0  0.22290268598E+02  0.23748152146E+02  0.28684352183E+02  0.43400724241E+02  0.00000000000E+00 0. -1.
         11    1    3    3    0    0 -0.13141730972E+02 -0.83736618730E+01 -0.38446886954E+01  0.16050075935E+02  0.51100000000E-03 0. -1.
        -11    1    3    3    0    0 -0.71199990139E+01 -0.90124884933E+01 -0.21251370633E+02  0.24156574444E+02  0.51100000000E-03 0.  1.
        -12    1    3    3    0    0 -0.20285386120E+01 -0.63620017795E+01 -0.35882928540E+01  0.75806253798E+01  0.00000000000E+00 0.  1.
</event>
<event>
 7    1  0.2455451E-009  0.4778728E+02  0.7816164E-02  0.1312668E+00
        -11   -1    0    0    0    0  0.00000000000E+00  0.00000000000E+00  0.45593999997E+02  0.45594000000E+02  0.51100000000E-03 0. -1.
         11   -1    0    0    0    0 -0.00000000000E+00 -0.00000000000E+00 -0.45593999997E+02  0.45594000000E+02  0.51100000000E-03 0.  1.
    9900012    2    1    2    0    0  0.68422918144E+01 -0.36843925412E+02 -0.21893631946E+02  0.47787275158E+02  0.20000018757E+02 0.  0.
         12    1    1    2    0    0 -0.68422918144E+01  0.36843925412E+02  0.21893631946E+02  0.43400724842E+02  0.00000000000E+00 0. -1.
         11    1    3    3    0    0  0.54842617340E+01 -0.11145603949E+01 -0.72051198976E+01  0.91232189846E+01  0.51100000000E-03 0. -1.
        -11    1    3    3    0    0  0.91057261491E+00 -0.19875351187E+02 -0.77472882315E+01  0.21351327886E+02  0.51100000000E-03 0.  1.
         12    1    3    3    0    0  0.44745746551E+00 -0.15854013830E+02 -0.69412238167E+01  0.17312728288E+02  0.00000000000E+00 0. -1.
</event>
<event>
 7    1  0.2455451E-009  0.4778727E+02  0.7816164E-02  0.1312668E+00
        -11   -1    0    0    0    0  0.00000000000E+00  0.00000000000E+00  0.45593999997E+02  0.45594000000E+02  0.51100000000E-03 0.  1.
         11   -1    0    0    0    0 -0.00000000000E+00 -0.00000000000E+00 -0.45593999997E+02  0.45594000000E+02  0.51100000000E-03 0. -1.
    9900012    2    1    2    0    0  0.23408488583E+02  0.23874731552E+01  0.36468701780E+02  0.47787267572E+02  0.19999984166E+02 0.  0.
         12    1    1    2    0    0 -0.23408488583E+02 -0.23874731552E+01 -0.36468701780E+02  0.43400732428E+02  0.00000000000E+00 0. -1.
         11    1    3    3    0    0  0.41247683904E+01 -0.62983748247E+01  0.79382817074E+01  0.10940729246E+02  0.51100000000E-03 0. -1.
        -11    1    3    3    0    0  0.69194115087E+01  0.83323339283E+01  0.15166713282E+02  0.18636932053E+02  0.51100000000E-03 0.  1.
         12    1    3    3    0    0  0.12364308684E+02  0.35351405160E+00  0.13363706791E+02  0.18209606273E+02  0.00000000000E+00 0. -1.
</event>
<event>
 7    1  0.2455451E-009  0.4778726E+02  0.7816164E-02  0.1312668E+00
        -11   -1    0    0    0    0  0.00000000000E+00  0.00000000000E+00  0.45593999997E+02  0.45594000000E+02  0.51100000000E-03 0. -1.
         11   -1    0    0    0    0 -0.00000000000E+00 -0.00000000000E+00 -0.45593999997E+02  0.45594000000E+02  0.51100000000E-03 0.  1.
    9900012    2    1    2    0    0  0.35379372514E+02 -0.23428017336E+02 -0.91132799803E+01  0.47787264202E+02  0.19999968803E+02 0.  0.
         12    1    1    2    0    0 -0.35379372514E+02  0.23428017336E+02  0.91132799803E+01  0.43400735798E+02  0.00000000000E+00 0. -1.
         11    1    3    3    0    0  0.47071557415E+01 -0.39564359988E+01  0.29561252229E+01  0.68227104278E+01  0.51100000000E-03 0. -1.
        -11    1    3    3    0    0  0.31761536984E+02 -0.20018546866E+02 -0.12645642544E+02  0.39616281070E+02  0.51100000000E-03 0.  1.
        -12    1    3    3    0    0 -0.10893202113E+01  0.54696552844E+00  0.57623734063E+00  0.13482727042E+01  0.00000000000E+00 0.  1.
</event>
<event>
 7    1  0.2455451E-009  0.4778727E+02  0.7816164E-02  0.1312668E+00
        -11   -1    0    0    0    0  0.00000000000E+00  0.00000000000E+00  0.45593999997E+02  0.45594000000E+02  0.51100000000E-03 0.  1.
         11   -1    0    0    0    0 -0.00000000000E+00 -0.00000000000E+00 -0.45593999997E+02  0.45594000000E+02  0.51100000000E-03 0. -1.
    9900012    2    1    2    0    0  0.27442703858E+02  0.31747927920E+02 -0.11072043687E+02  0.47787273351E+02  0.20000010517E+02 0.  0.
         12    1    1    2    0    0 -0.27442703858E+02 -0.31747927920E+02  0.11072043687E+02  0.43400726649E+02  0.00000000000E+00 0. -1.
         11    1    3    3    0    0  0.10566978346E+02  0.96365338006E+01 -0.11722423199E+02  0.18491593251E+02  0.51100000000E-03 0. -1.
        -11    1    3    3    0    0  0.40588595080E+01  0.11633597097E+02 -0.21451380035E+01  0.12506659796E+02  0.51100000000E-03 0.  1.
         12    1    3    3    0    0  0.12816866004E+02  0.10477797022E+02  0.27955175150E+01  0.16789020304E+02  0.00000000000E+00 0. -1.
</event>
<event>
 7    1  0.2455451E-009  0.4778728E+02  0.7816164E-02  0.1312668E+00
        -11   -1    0    0    0    0  0.00000000000E+00  0.00000000000E+00  0.45593999997E+02  0.45594000000E+02  0.51100000000E-03 0. -1.
         11   -1    0    0    0    0 -0.00000000000E+00 -0.00000000000E+00 -0.45593999997E+02  0.45594000000E+02  0.51100000000E-03 0.  1.
    9900012    2    1    2    0    0 -0.19437745783E+01  0.74736422063E+01 -0.42708187478E+02  0.47787275754E+02  0.20000021471E+02 0.  0.
         12    1    1    2    0    0  0.19437745783E+01 -0.74736422063E+01  0.42708187478E+02  0.43400724246E+02  0.00000000000E+00 0. -1.
         11    1    3    3    0    0  0.22863547220E+01 -0.32764827798E+01 -0.39071628281E+01  0.55882626054E+01  0.51100000000E-03 0. -1.
        -11    1    3    3    0    0 -0.58083156732E+01  0.62843865273E+01 -0.35264549637E+02  0.36287993970E+02  0.51100000000E-03 0.  1.
        -12    1    3    3    0    0  0.15781863729E+01  0.44657384588E+01 -0.35364750133E+01  0.59110191786E+01  0.00000000000E+00 0.  1.
</event>
<event>
 7    1  0.2455451E-009  0.4778725E+02  0.7816164E-02  0.1312668E+00
        -11   -1    0    0    0    0  0.00000000000E+00  0.00000000000E+00  0.45593999997E+02  0.45594000000E+02  0.51100000000E-03 0.  1.
         11   -1    0    0    0    0 -0.00000000000E+00 -0.00000000000E+00 -0.45593999997E+02  0.45594000000E+02  0.51100000000E-03 0. -1.
    9900012    2    1    2    0    0  0.49573348357E+01  0.42010311746E+02 -0.97048219829E+01  0.47787250797E+02  0.19999907682E+02 0.  0.
         12    1    1    2    0    0 -0.49573348357E+01 -0.42010311746E+02  0.97048219829E+01  0.43400749203E+02  0.00000000000E+00 0. -1.
         11    1    3    3    0    0  0.91793535018E+01  0.11214897286E+02 -0.34745688394E+01  0.14903257387E+02  0.51100000000E-03 0. -1.
        -11    1    3    3    0    0 -0.48703508480E+01  0.12930043681E+02 -0.58459952382E+01  0.15002733336E+02  0.51100000000E-03 0.  1.
        -12    1    3    3    0    0  0.64833218185E+00  0.17865370779E+02 -0.38425790536E+00  0.17881260074E+02  0.00000000000E+00 0.  1.
</event>
<event>
 7    1  0.2455451E-009  0.4778727E+02  0.7816164E-02  0.1312668E+00
        -11   -1    0    0    0    0  0.00000000000E+00  0.00000000000E+00  0.45593999997E+02  0.45594000000E+02  0.51100000000E-03 0.  1.
         11   -1    0    0    0    0 -0.00000000000E+00 -0.00000000000E+00 -0.45593999997E+02  0.45594000000E+02  0.51100000000E-03 0. -1.
    9900012    2    1    2    0    0  0.20053514475E+02  0.22067873673E+02  0.31535514568E+02  0.47787272237E+02  0.20000005439E+02 0.  0.
         12    1    1    2    0    0 -0.20053514475E+02 -0.22067873673E+02 -0.31535514568E+02  0.43400727763E+02  0.00000000000E+00 0. -1.
         11    1    3    3    0    0  0.41032774842E+01  0.13762912928E+02  0.94830900972E+01  0.17209987113E+02  0.51100000000E-03 0. -1.
        -11    1    3    3    0    0  0.58329641707E+01 -0.24491187136E+01  0.53592091483E+01  0.82911263677E+01  0.51100000000E-03 0.  1.
        -12    1    3    3    0    0  0.10117272820E+02  0.10754079458E+02  0.16693215323E+02  0.22286158756E+02  0.00000000000E+00 0.  1.
</event>
<event>
 7    1  0.2455451E-009  0.4778729E+02  0.7816164E-02  0.1312668E+00
        -11   -1    0    0    0    0  0.00000000000E+00  0.00000000000E+00  0.45593999997E+02  0.45594000000E+02  0.51100000000E-03 0.  1.
         11   -1    0    0    0    0 -0.00000000000E+00 -0.00000000000E+00 -0.45593999997E+02  0.45594000000E+02  0.51100000000E-03 0. -1.
    9900012    2    1    2    0    0  0.32825556687E+02 -0.27533940931E+02  0.69272339318E+01  0.47787289811E+02  0.20000085564E+02 0.  0.
         12    1    1    2    0    0 -0.32825556687E+02  0.27533940931E+02 -0.69272339318E+01  0.43400710189E+02  0.00000000000E+00 0. -1.
         11    1    3    3    0    0  0.35904670177E+01 -0.10608415365E+02  0.71407444791E+01  0.13282325170E+02  0.51100000000E-03 0. -1.
        -11    1    3    3    0    0  0.20778474490E+02 -0.87588651203E+01 -0.18972104919E+01  0.22628789809E+02  0.51100000000E-03 0.  1.
        -12    1    3    3    0    0  0.84566151793E+01 -0.81666604459E+01  0.16836999445E+01  0.11876174832E+02  0.00000000000E+00 0.  1.
</event>
<event>
 7    1  0.2455451E-009  0.4778726E+02  0.7816164E-02  0.1312668E+00
        -11   -1    0    0    0    0  0.00000000000E+00  0.00000000000E+00  0.45593999997E+02  0.45594000000E+02  0.51100000000E-03 0.  1.
         11   -1    0    0    0    0 -0.00000000000E+00 -0.00000000000E+00 -0.45593999997E+02  0.45594000000E+02  0.51100000000E-03 0. -1.
    9900012    2    1    2    0    0 -0.13695134159E+02  0.31240436834E+02  0.26834720659E+02  0.47787264683E+02  0.19999970994E+02 0.  0.
         12    1    1    2    0    0  0.13695134159E+02 -0.31240436834E+02 -0.26834720659E+02  0.43400735317E+02  0.00000000000E+00 0. -1.
         11    1    3    3    0    0 -0.51824658474E+01  0.11750764926E+01  0.10607403348E+02  0.11864053400E+02  0.51100000000E-03 0. -1.
        -11    1    3    3    0    0 -0.58658800747E+01  0.18873136341E+02  0.13970712545E+02  0.24202988115E+02  0.51100000000E-03 0.  1.
         12    1    3    3    0    0 -0.26467882365E+01  0.11192224001E+02  0.22566047665E+01  0.11720223168E+02  0.00000000000E+00 0. -1.
</event>
<event>
 7    1  0.2455451E-009  0.4778727E+02  0.7816164E-02  0.1312668E+00
        -11   -1    0    0    0    0  0.00000000000E+00  0.00000000000E+00  0.45593999997E+02  0.45594000000E+02  0.51100000000E-03 0. -1.
         11   -1    0    0    0    0 -0.00000000000E+00 -0.00000000000E+00 -0.45593999997E+02  0.45594000000E+02  0.51100000000E-03 0.  1.
    9900012    2    1    2    0    0 -0.24982764317E+02  0.16824467780E+02 -0.31247755953E+02  0.47787268657E+02  0.19999989115E+02 0.  0.
         12    1    1    2    0    0  0.24982764317E+02 -0.16824467780E+02  0.31247755953E+02  0.43400731343E+02  0.00000000000E+00 0. -1.
         11    1    3    3    0    0 -0.81817184520E+01  0.55760601570E+01 -0.54624481681E-01  0.99013104081E+01  0.51100000000E-03 0. -1.
        -11    1    3    3    0    0 -0.69069738645E+01  0.50072928594E+01 -0.19786126343E+02  0.21546927058E+02  0.51100000000E-03 0.  1.
         12    1    3    3    0    0 -0.98940720004E+01  0.62411147633E+01 -0.11407005129E+02  0.16339031191E+02  0.00000000000E+00 0. -1.
</event>
<event>
 7    1  0.2455451E-009  0.4778727E+02  0.7816164E-02  0.1312668E+00
        -11   -1    0    0    0    0  0.00000000000E+00  0.00000000000E+00  0.45593999997E+02  0.45594000000E+02  0.51100000000E-03 0.  1.
         11   -1    0    0    0    0 -0.00000000000E+00 -0.00000000000E+00 -0.45593999997E+02  0.45594000000E+02  0.51100000000E-03 0. -1.
    9900012    2    1    2    0    0  0.18086110501E+02 -0.32169487358E+02  0.22839431783E+02  0.47787274728E+02  0.20000016795E+02 0.  0.
         12    1    1    2    0    0 -0.18086110501E+02  0.32169487358E+02 -0.22839431783E+02  0.43400725272E+02  0.00000000000E+00 0. -1.
         11    1    3    3    0    0  0.70818910749E-01 -0.47134879813E+01  0.10960145300E+02  0.11930916541E+02  0.51100000000E-03 0. -1.
        -11    1    3    3    0    0  0.13716927888E+02 -0.25527965525E+02  0.90453428338E+01  0.30358678525E+02  0.51100000000E-03 0.  1.
         12    1    3    3    0    0  0.42983637023E+01 -0.19280338517E+01  0.28339436496E+01  0.54976796615E+01  0.00000000000E+00 0. -1.
</event>
<event>
 7    1  0.2455451E-009  0.4778727E+02  0.7816164E-02  0.1312668E+00
        -11   -1    0    0    0    0  0.00000000000E+00  0.00000000000E+00  0.45593999997E+02  0.45594000000E+02  0.51100000000E-03 0.  1.
         11   -1    0    0    0    0 -0.00000000000E+00 -0.00000000000E+00 -0.45593999997E+02  0.45594000000E+02  0.51100000000E-03 0. -1.
    9900012    2    1    2    0    0  0.28914902870E+02 -0.30145838379E+02 -0.11780497447E+02  0.47787270747E+02  0.19999998646E+02 0.  0.
         12    1    1    2    0    0 -0.28914902870E+02  0.30145838379E+02  0.11780497447E+02  0.43400729253E+02  0.00000000000E+00 0. -1.
         11    1    3    3    0    0  0.31832163380E+02 -0.28906368186E+02 -0.11177180561E+02  0.44427402723E+02  0.51100000000E-03 0.  1.
        -11    1    3    3    0    0 -0.15459739574E+01 -0.94087734479E+00  0.53033415519E-01  0.18105519764E+01  0.51100000000E-03 0. -1.
        -12    1    3    3    0    0 -0.13712865527E+01 -0.29859284867E+00 -0.65635030098E+00  0.15493160480E+01  0.00000000000E+00 0.  1.
</event>
<event>
 7    1  0.2455451E-009  0.4778727E+02  0.7816164E-02  0.1312668E+00
        -11   -1    0    0    0    0  0.00000000000E+00  0.00000000000E+00  0.45593999997E+02  0.45594000000E+02  0.51100000000E-03 0. -1.
         11   -1    0    0    0    0 -0.00000000000E+00 -0.00000000000E+00 -0.45593999997E+02  0.45594000000E+02  0.51100000000E-03 0.  1.
    9900012    2    1    2    0    0 -0.17412921731E+02  0.11540373236E+01 -0.39737660711E+02  0.47787270465E+02  0.19999997359E+02 0.  0.
         12    1    1    2    0    0  0.17412921731E+02 -0.11540373236E+01  0.39737660711E+02  0.43400729535E+02  0.00000000000E+00 0. -1.
         11    1    3    3    0    0 -0.14496586002E+02 -0.12772971925E+01 -0.20457510525E+02  0.25105621502E+02  0.51100000000E-03 0. -1.
        -11    1    3    3    0    0 -0.65980322042E+01  0.80747721547E+00 -0.65557677508E+01  0.93361737069E+01  0.51100000000E-03 0.  1.
         12    1    3    3    0    0  0.36816964751E+01  0.16238573006E+01 -0.12724382435E+02  0.13345475256E+02  0.00000000000E+00 0. -1.
</event>
<event>
 7    1  0.2455451E-009  0.4778727E+02  0.7816164E-02  0.1312668E+00
        -11   -1    0    0    0    0  0.00000000000E+00  0.00000000000E+00  0.45593999997E+02  0.45594000000E+02  0.51100000000E-03 0. -1.
         11   -1    0    0    0    0 -0.00000000000E+00 -0.00000000000E+00 -0.45593999997E+02  0.45594000000E+02  0.51100000000E-03 0.  1.
    9900012    2    1    2    0    0 -0.29380042195E+01 -0.20082885547E+02 -0.38362337327E+02  0.47787273211E+02  0.20000009877E+02 0.  0.
         12    1    1    2    0    0  0.29380042195E+01  0.20082885547E+02  0.38362337327E+02  0.43400726789E+02  0.00000000000E+00 0. -1.
         11    1    3    3    0    0 -0.10196726055E+01 -0.45281836372E+01 -0.22902706366E+02  0.23368314839E+02  0.51100000000E-03 0. -1.
        -11    1    3    3    0    0 -0.57002406524E+01 -0.10875155205E+02 -0.73129071743E+01  0.14291268517E+02  0.51100000000E-03 0.  1.
         12    1    3    3    0    0  0.37819090383E+01 -0.46795467041E+01 -0.81467237868E+01  0.10127689854E+02  0.00000000000E+00 0. -1.
</event>
<event>
 7    1  0.2455451E-009  0.4778727E+02  0.7816164E-02  0.1312668E+00
        -11   -1    0    0    0    0  0.00000000000E+00  0.00000000000E+00  0.45593999997E+02  0.45594000000E+02  0.51100000000E-03 0.  1.
         11   -1    0    0    0    0 -0.00000000000E+00 -0.00000000000E+00 -0.45593999997E+02  0.45594000000E+02  0.51100000000E-03 0. -1.
    9900012    2    1    2    0    0  0.26935105497E+01  0.33365487485E+02  0.27624489580E+02  0.47787272140E+02  0.20000004996E+02 0.  0.
         12    1    1    2    0    0 -0.26935105497E+01 -0.33365487485E+02 -0.27624489580E+02  0.43400727860E+02  0.00000000000E+00 0. -1.
         11    1    3    3    0    0  0.29688779318E+01  0.22803447649E+02  0.27099933942E+02  0.35541776557E+02  0.51100000000E-03 0. -1.
        -11    1    3    3    0    0  0.12646739405E+01  0.60112235200E+01  0.30052070957E+01  0.68385289597E+01  0.51100000000E-03 0.  1.
         12    1    3    3    0    0 -0.15400413227E+01  0.45508163160E+01 -0.24806514578E+01  0.54069666239E+01  0.00000000000E+00 0. -1.
</event>
<event>
 7    1  0.2455451E-009  0.4778727E+02  0.7816164E-02  0.1312668E+00
        -11   -1    0    0    0    0  0.00000000000E+00  0.00000000000E+00  0.45593999997E+02  0.45594000000E+02  0.51100000000E-03 0.  1.
         11   -1    0    0    0    0 -0.00000000000E+00 -0.00000000000E+00 -0.45593999997E+02  0.45594000000E+02  0.51100000000E-03 0. -1.
    9900012    2    1    2    0    0  0.26913179947E+02 -0.33848993240E+02  0.36809766551E+01  0.47787272041E+02  0.20000004543E+02 0.  0.
         12    1    1    2    0    0 -0.26913179947E+02  0.33848993240E+02 -0.36809766551E+01  0.43400727959E+02  0.00000000000E+00 0. -1.
         11    1    3    3    0    0 -0.22172739461E+01 -0.10180231962E+01  0.19475756692E+01  0.31218145730E+01  0.51100000000E-03 0. -1.
        -11    1    3    3    0    0  0.68068080646E+01 -0.74139383973E+01 -0.30118130122E+01  0.10505719227E+02  0.51100000000E-03 0.  1.
         12    1    3    3    0    0  0.22323645829E+02 -0.25417031647E+02  0.47452139981E+01  0.34159738241E+02  0.00000000000E+00 0. -1.
</event>
<event>
 7    1  0.2455451E-009  0.4778727E+02  0.7816164E-02  0.1312668E+00
        -11   -1    0    0    0    0  0.00000000000E+00  0.00000000000E+00  0.45593999997E+02  0.45594000000E+02  0.51100000000E-03 0.  1.
         11   -1    0    0    0    0 -0.00000000000E+00 -0.00000000000E+00 -0.45593999997E+02  0.45594000000E+02  0.51100000000E-03 0. -1.
    9900012    2    1    2    0    0  0.27019029600E+01 -0.17246250930E+02  0.39735246494E+02  0.47787271151E+02  0.20000000485E+02 0.  0.
         12    1    1    2    0    0 -0.27019029600E+01  0.17246250930E+02 -0.39735246494E+02  0.43400728849E+02  0.00000000000E+00 0. -1.
         11    1    3    3    0    0  0.47319932839E+01 -0.77611755241E+01  0.51417990352E+01  0.10443452663E+02  0.51100000000E-03 0. -1.
        -11    1    3    3    0    0 -0.60187930993E+01 -0.65870527783E+01  0.25235639939E+02  0.26766633297E+02  0.51100000000E-03 0.  1.
         12    1    3    3    0    0  0.39887027754E+01 -0.28980226273E+01  0.93578075196E+01  0.10577185190E+02  0.00000000000E+00 0. -1.
</event>
<event>
 7    1  0.2455451E-009  0.4778727E+02  0.7816164E-02  0.1312668E+00
        -11   -1    0    0    0    0  0.00000000000E+00  0.00000000000E+00  0.45593999997E+02  0.45594000000E+02  0.51100000000E-03 0.  1.
         11   -1    0    0    0    0 -0.00000000000E+00 -0.00000000000E+00 -0.45593999997E+02  0.45594000000E+02  0.51100000000E-03 0. -1.
    9900012    2    1    2    0    0  0.31017144719E+01  0.30957341605E+02  0.30259634823E+02  0.47787272685E+02  0.20000007478E+02 0.  0.
         12    1    1    2    0    0 -0.31017144719E+01 -0.30957341605E+02 -0.30259634823E+02  0.43400727315E+02  0.00000000000E+00 0. -1.
         11    1    3    3    0    0 -0.63420254473E+01  0.11075800727E+02  0.67981488457E+01  0.14460618123E+02  0.51100000000E-03 0. -1.
        -11    1    3    3    0    0  0.51898532594E+01  0.26180065123E+01  0.46648815122E+01  0.74531640755E+01  0.51100000000E-03 0.  1.
         12    1    3    3    0    0  0.42538866598E+01  0.17263534366E+02  0.18796604465E+02  0.25873490486E+02  0.00000000000E+00 0. -1.
</event>
<event>
 7    1  0.2455451E-009  0.4778727E+02  0.7816164E-02  0.1312668E+00
        -11   -1    0    0    0    0  0.00000000000E+00  0.00000000000E+00  0.45593999997E+02  0.45594000000E+02  0.51100000000E-03 0. -1.
         11   -1    0    0    0    0 -0.00000000000E+00 -0.00000000000E+00 -0.45593999997E+02  0.45594000000E+02  0.51100000000E-03 0.  1.
    9900012    2    1    2    0    0  0.38679210417E+02  0.86635871078E+01 -0.17677225739E+02  0.47787269938E+02  0.19999994957E+02 0.  0.
         12    1    1    2    0    0 -0.38679210417E+02 -0.86635871078E+01  0.17677225739E+02  0.43400730062E+02  0.00000000000E+00 0. -1.
         11    1    3    3    0    0  0.13629216288E+02 -0.29021951148E+01 -0.13819816634E+02  0.19625636427E+02  0.51100000000E-03 0. -1.
        -11    1    3    3    0    0  0.70848904517E+01  0.35875027050E+01  0.73486559940E+00  0.79753292146E+01  0.51100000000E-03 0.  1.
         12    1    3    3    0    0  0.17965103677E+02  0.79782795175E+01 -0.45922747045E+01  0.20186304296E+02  0.00000000000E+00 0. -1.
</event>
<event>
 7    1  0.2455451E-009  0.4778727E+02  0.7816164E-02  0.1312668E+00
        -11   -1    0    0    0    0  0.00000000000E+00  0.00000000000E+00  0.45593999997E+02  0.45594000000E+02  0.51100000000E-03 0.  1.
         11   -1    0    0    0    0 -0.00000000000E+00 -0.00000000000E+00 -0.45593999997E+02  0.45594000000E+02  0.51100000000E-03 0. -1.
    9900012    2    1    2    0    0  0.27632357001E+01  0.60013394903E+00  0.43308518557E+02  0.47787269454E+02  0.19999992748E+02 0.  0.
         12    1    1    2    0    0 -0.27632357001E+01 -0.60013394903E+00 -0.43308518557E+02  0.43400730546E+02  0.00000000000E+00 0. -1.
         11    1    3    3    0    0 -0.71945095117E+01  0.46954730529E+01  0.13356877568E+02  0.15881266100E+02  0.51100000000E-03 0. -1.
        -11    1    3    3    0    0  0.48387377315E+01 -0.79386800564E+00  0.13227507363E+02  0.14107110284E+02  0.51100000000E-03 0.  1.
         12    1    3    3    0    0  0.51190074803E+01 -0.33014710982E+01  0.16724133626E+02  0.17798893070E+02  0.00000000000E+00 0. -1.
</event>
<event>
 7    1  0.2455451E-009  0.4778727E+02  0.7816164E-02  0.1312668E+00
        -11   -1    0    0    0    0  0.00000000000E+00  0.00000000000E+00  0.45593999997E+02  0.45594000000E+02  0.51100000000E-03 0.  1.
         11   -1    0    0    0    0 -0.00000000000E+00 -0.00000000000E+00 -0.45593999997E+02  0.45594000000E+02  0.51100000000E-03 0. -1.
    9900012    2    1    2    0    0  0.34452060207E+02  0.22125962045E+02  0.14391674780E+02  0.47787274754E+02  0.20000016914E+02 0.  0.
         12    1    1    2    0    0 -0.34452060207E+02 -0.22125962045E+02 -0.14391674780E+02  0.43400725246E+02  0.00000000000E+00 0. -1.
         11    1    3    3    0    0  0.62048224831E+01  0.56380158951E+01 -0.25514564814E+01  0.87633883697E+01  0.51100000000E-03 0. -1.
        -11    1    3    3    0    0  0.28573424686E+02  0.15592677464E+02  0.13139916518E+02  0.35103127996E+02  0.51100000000E-03 0.  1.
        -12    1    3    3    0    0 -0.32618696242E+00  0.89526868666E+00  0.38032147432E+01  0.39207583882E+01  0.00000000000E+00 0.  1.
</event>
<event>
 7    1  0.2455451E-009  0.4778727E+02  0.7816164E-02  0.1312668E+00
        -11   -1    0    0    0    0  0.00000000000E+00  0.00000000000E+00  0.45593999997E+02  0.45594000000E+02  0.51100000000E-03 0.  1.
         11   -1    0    0    0    0 -0.00000000000E+00 -0.00000000000E+00 -0.45593999997E+02  0.45594000000E+02  0.51100000000E-03 0. -1.
    9900012    2    1    2    0    0  0.30365141956E+02 -0.26392260762E+02  0.16279741627E+02  0.47787271187E+02  0.20000000648E+02 0.  0.
         12    1    1    2    0    0 -0.30365141956E+02  0.26392260762E+02 -0.16279741627E+02  0.43400728813E+02  0.00000000000E+00 0. -1.
         11    1    3    3    0    0  0.20415899646E+02 -0.18271089385E+02  0.16824566161E+02  0.32151324894E+02  0.51100000000E-03 0. -1.
        -11    1    3    3    0    0  0.41472580649E+01 -0.80667134116E+01  0.20192396065E+01  0.92924132264E+01  0.51100000000E-03 0.  1.
         12    1    3    3    0    0  0.58019842448E+01 -0.54457964797E-01 -0.25640641402E+01  0.63435330662E+01  0.00000000000E+00 0. -1.
</event>
<event>
 7    1  0.2455451E-009  0.4778727E+02  0.7816164E-02  0.1312668E+00
        -11   -1    0    0    0    0  0.00000000000E+00  0.00000000000E+00  0.45593999997E+02  0.45594000000E+02  0.51100000000E-03 0.  1.
         11   -1    0    0    0    0 -0.00000000000E+00 -0.00000000000E+00 -0.45593999997E+02  0.45594000000E+02  0.51100000000E-03 0. -1.
    9900012    2    1    2    0    0 -0.37775493998E+02  0.11072848450E+02  0.18276420090E+02  0.47787269005E+02  0.19999990703E+02 0.  0.
         12    1    1    2    0    0  0.37775493998E+02 -0.11072848450E+02 -0.18276420090E+02  0.43400730995E+02  0.00000000000E+00 0. -1.
         11    1    3    3    0    0 -0.19908290119E+02  0.14968509947E+02  0.14266815997E+02  0.28704326232E+02  0.51100000000E-03 0.  1.
        -11    1    3    3    0    0 -0.13658306743E+02 -0.15887265949E+01  0.20662387742E+01  0.13904773936E+02  0.51100000000E-03 0. -1.
         12    1    3    3    0    0 -0.42088971362E+01 -0.23069349021E+01  0.19433653184E+01  0.51781688372E+01  0.00000000000E+00 0. -1.
</event>
<event>
 7    1  0.2455451E-009  0.4778727E+02  0.7816164E-02  0.1312668E+00
        -11   -1    0    0    0    0  0.00000000000E+00  0.00000000000E+00  0.45593999997E+02  0.45594000000E+02  0.51100000000E-03 0. -1.
         11   -1    0    0    0    0 -0.00000000000E+00 -0.00000000000E+00 -0.45593999997E+02  0.45594000000E+02  0.51100000000E-03 0.  1.
    9900012    2    1    2    0    0 -0.40661551349E+02 -0.14868860319E+02 -0.30296139053E+01  0.47787270447E+02  0.19999997276E+02 0.  0.
         12    1    1    2    0    0  0.40661551349E+02  0.14868860319E+02  0.30296139053E+01  0.43400729553E+02  0.00000000000E+00 0. -1.
         11    1    3    3    0    0 -0.36091304332E+01 -0.84769537215E+01 -0.38656472096E+01  0.99913860646E+01  0.51100000000E-03 0. -1.
        -11    1    3    3    0    0 -0.33963681673E+02 -0.55178814338E+01 -0.24149823682E+00  0.34409838854E+02  0.51100000000E-03 0.  1.
         12    1    3    3    0    0 -0.30887392435E+01 -0.87402516357E+00  0.10775315412E+01  0.33860455288E+01  0.00000000000E+00 0. -1.
</event>
<event>
 7    1  0.2455451E-009  0.4778727E+02  0.7816164E-02  0.1312668E+00
        -11   -1    0    0    0    0  0.00000000000E+00  0.00000000000E+00  0.45593999997E+02  0.45594000000E+02  0.51100000000E-03 0. -1.
         11   -1    0    0    0    0 -0.00000000000E+00 -0.00000000000E+00 -0.45593999997E+02  0.45594000000E+02  0.51100000000E-03 0.  1.
    9900012    2    1    2    0    0  0.14510091871E+02  0.36095348083E+02 -0.19240745787E+02  0.47787271691E+02  0.20000002949E+02 0.  0.
         12    1    1    2    0    0 -0.14510091871E+02 -0.36095348083E+02  0.19240745787E+02  0.43400728309E+02  0.00000000000E+00 0. -1.
         11    1    3    3    0    0 -0.34389723049E+00  0.48068803699E+01  0.35441641626E+01  0.59820952908E+01  0.51100000000E-03 0. -1.
        -11    1    3    3    0    0  0.77454408509E+01  0.21147291819E+02 -0.12857281402E+02  0.25932787945E+02  0.51100000000E-03 0.  1.
        -12    1    3    3    0    0  0.71085482503E+01  0.10141175893E+02 -0.99276285470E+01  0.15872388456E+02  0.00000000000E+00 0.  1.
</event>
<event>
 7    1  0.2455451E-009  0.4778728E+02  0.7816164E-02  0.1312668E+00
        -11   -1    0    0    0    0  0.00000000000E+00  0.00000000000E+00  0.45593999997E+02  0.45594000000E+02  0.51100000000E-03 0.  1.
         11   -1    0    0    0    0 -0.00000000000E+00 -0.00000000000E+00 -0.45593999997E+02  0.45594000000E+02  0.51100000000E-03 0. -1.
    9900012    2    1    2    0    0 -0.24197132953E+02 -0.19941400559E+02  0.30007700092E+02  0.47787276916E+02  0.20000026773E+02 0.  0.
         12    1    1    2    0    0  0.24197132953E+02  0.19941400559E+02 -0.30007700092E+02  0.43400723084E+02  0.00000000000E+00 0. -1.
         11    1    3    3    0    0 -0.12887297143E+02 -0.90034947133E-01  0.85302378833E+01  0.15454950422E+02  0.51100000000E-03 0. -1.
        -11    1    3    3    0    0 -0.16749011501E+01 -0.10492247206E+02  0.11032812910E+02  0.15317163780E+02  0.51100000000E-03 0.  1.
        -12    1    3    3    0    0 -0.96349346599E+01 -0.93591184057E+01  0.10444649298E+02  0.17015162714E+02  0.00000000000E+00 0.  1.
</event>
<event>
 7    1  0.2455451E-009  0.4778727E+02  0.7816164E-02  0.1312668E+00
        -11   -1    0    0    0    0  0.00000000000E+00  0.00000000000E+00  0.45593999997E+02  0.45594000000E+02  0.51100000000E-03 0.  1.
         11   -1    0    0    0    0 -0.00000000000E+00 -0.00000000000E+00 -0.45593999997E+02  0.45594000000E+02  0.51100000000E-03 0. -1.
    9900012    2    1    2    0    0 -0.18393856351E+02  0.36370081759E+02 -0.14916664110E+02  0.47787266518E+02  0.19999979360E+02 0.  0.
         12    1    1    2    0    0  0.18393856351E+02 -0.36370081759E+02  0.14916664110E+02  0.43400733482E+02  0.00000000000E+00 0. -1.
         11    1    3    3    0    0 -0.78426740583E+01  0.17887827529E+02  0.17448365645E+01  0.19609343818E+02  0.51100000000E-03 0. -1.
        -11    1    3    3    0    0 -0.23751973570E+01  0.11465916341E+02 -0.10714875960E+02  0.15871904962E+02  0.51100000000E-03 0.  1.
         12    1    3    3    0    0 -0.81759849360E+01  0.70163378898E+01 -0.59466247142E+01  0.12306017737E+02  0.00000000000E+00 0. -1.
</event>
<event>
 7    1  0.2455451E-009  0.4778728E+02  0.7816164E-02  0.1312668E+00
        -11   -1    0    0    0    0  0.00000000000E+00  0.00000000000E+00  0.45593999997E+02  0.45594000000E+02  0.51100000000E-03 0. -1.
         11   -1    0    0    0    0 -0.00000000000E+00 -0.00000000000E+00 -0.45593999997E+02  0.45594000000E+02  0.51100000000E-03 0.  1.
    9900012    2    1    2    0    0 -0.10471808189E+02 -0.29672647290E+02 -0.29891428481E+02  0.47787282718E+02  0.20000053224E+02 0.  0.
         12    1    1    2    0    0  0.10471808189E+02  0.29672647290E+02  0.29891428481E+02  0.43400717282E+02  0.00000000000E+00 0. -1.
         11    1    3    3    0    0  0.19633444610E+01 -0.39442471803E+01 -0.24245526242E+01  0.50289425311E+01  0.51100000000E-03 0. -1.
        -11    1    3    3    0    0 -0.21176102539E+01 -0.28851537394E+01 -0.13703135033E+02  0.14162778516E+02  0.51100000000E-03 0.  1.
        -12    1    3    3    0    0 -0.10317542396E+02 -0.22843246371E+02 -0.13763740824E+02  0.28595561671E+02  0.00000000000E+00 0.  1.
</event>
<event>
 7    1  0.2455451E-009  0.4778727E+02  0.7816164E-02  0.1312668E+00
        -11   -1    0    0    0    0  0.00000000000E+00  0.00000000000E+00  0.45593999997E+02  0.45594000000E+02  0.51100000000E-03 0. -1.
         11   -1    0    0    0    0 -0.00000000000E+00 -0.00000000000E+00 -0.45593999997E+02  0.45594000000E+02  0.51100000000E-03 0.  1.
    9900012    2    1    2    0    0  0.41234771705E+02 -0.59135075744E+01 -0.12179809214E+02  0.47787265883E+02  0.19999976469E+02 0.  0.
         12    1    1    2    0    0 -0.41234771705E+02  0.59135075744E+01  0.12179809214E+02  0.43400734117E+02  0.00000000000E+00 0. -1.
         11    1    3    3    0    0  0.64050342796E+01 -0.84104788927E+01 -0.22289404490E+00  0.10574039027E+02  0.51100000000E-03 0. -1.
        -11    1    3    3    0    0  0.27388206133E+02  0.39022417586E+01 -0.95546704842E+01  0.29268294352E+02  0.51100000000E-03 0.  1.
         12    1    3    3    0    0  0.74415312915E+01 -0.14052704403E+01 -0.24022446851E+01  0.79449325044E+01  0.00000000000E+00 0. -1.
</event>
<event>
 7    1  0.2455451E-009  0.4778727E+02  0.7816164E-02  0.1312668E+00
        -11   -1    0    0    0    0  0.00000000000E+00  0.00000000000E+00  0.45593999997E+02  0.45594000000E+02  0.51100000000E-03 0. -1.
         11   -1    0    0    0    0 -0.00000000000E+00 -0.00000000000E+00 -0.45593999997E+02  0.45594000000E+02  0.51100000000E-03 0.  1.
    9900012    2    1    2    0    0 -0.14034666360E+01  0.43328031089E+02  0.20821427950E+01  0.47787270568E+02  0.19999997827E+02 0.  0.
         12    1    1    2    0    0  0.14034666360E+01 -0.43328031089E+02 -0.20821427950E+01  0.43400729432E+02  0.00000000000E+00 0. -1.
         11    1    3    3    0    0 -0.32022675559E+01  0.30437345249E+01  0.39795366776E+01  0.59460532950E+01  0.51100000000E-03 0. -1.
        -11    1    3    3    0    0  0.55338525848E+01  0.21031785836E+02 -0.40170855320E+01  0.22115526589E+02  0.51100000000E-03 0.  1.
         12    1    3    3    0    0 -0.37350516649E+01  0.19252510728E+02  0.21196916493E+01  0.19725690684E+02  0.00000000000E+00 0. -1.
</event>
<event>
 7    1  0.2455451E-009  0.4778728E+02  0.7816164E-02  0.1312668E+00
        -11   -1    0    0    0    0  0.00000000000E+00  0.00000000000E+00  0.45593999997E+02  0.45594000000E+02  0.51100000000E-03 0.  1.
         11   -1    0    0    0    0 -0.00000000000E+00 -0.00000000000E+00 -0.45593999997E+02  0.45594000000E+02  0.51100000000E-03 0. -1.
    9900012    2    1    2    0    0  0.12393451585E+02 -0.25457726768E+02  0.32892693671E+02  0.47787276604E+02  0.20000025348E+02 0.  0.
         12    1    1    2    0    0 -0.12393451585E+02  0.25457726768E+02 -0.32892693671E+02  0.43400723396E+02  0.00000000000E+00 0. -1.
         11    1    3    3    0    0  0.48347672412E+01 -0.44795378923E+01  0.16426490229E+02  0.17699458057E+02  0.51100000000E-03 0. -1.
        -11    1    3    3    0    0  0.10419634918E+02 -0.18046876339E+02  0.15224058934E+02  0.25807566877E+02  0.51100000000E-03 0.  1.
        -12    1    3    3    0    0 -0.28609505747E+01 -0.29313125367E+01  0.12421445074E+01  0.42802516697E+01  0.00000000000E+00 0.  1.
</event>
<event>
 7    1  0.2455451E-009  0.4778727E+02  0.7816164E-02  0.1312668E+00
        -11   -1    0    0    0    0  0.00000000000E+00  0.00000000000E+00  0.45593999997E+02  0.45594000000E+02  0.51100000000E-03 0.  1.
         11   -1    0    0    0    0 -0.00000000000E+00 -0.00000000000E+00 -0.45593999997E+02  0.45594000000E+02  0.51100000000E-03 0. -1.
    9900012    2    1    2    0    0  0.23120279317E+02 -0.25556051380E+02  0.26381131377E+02  0.47787272235E+02  0.20000005428E+02 0.  0.
         12    1    1    2    0    0 -0.23120279317E+02  0.25556051380E+02 -0.26381131377E+02  0.43400727765E+02  0.00000000000E+00 0. -1.
         11    1    3    3    0    0 -0.23911824744E+01 -0.47738182335E+01  0.69599651486E+01  0.87720128411E+01  0.51100000000E-03 0. -1.
        -11    1    3    3    0    0  0.15693326208E+02 -0.16940784317E+02  0.11311796032E+02  0.25714342117E+02  0.51100000000E-03 0.  1.
         12    1    3    3    0    0  0.98181355831E+01 -0.38414488289E+01  0.81093701960E+01  0.13300917277E+02  0.00000000000E+00 0. -1.
</event>
<event>
 7    1  0.2455451E-009  0.4778727E+02  0.7816164E-02  0.1312668E+00
        -11   -1    0    0    0    0  0.00000000000E+00  0.00000000000E+00  0.45593999997E+02  0.45594000000E+02  0.51100000000E-03 0.  1.
         11   -1    0    0    0    0 -0.00000000000E+00 -0.00000000000E+00 -0.45593999997E+02  0.45594000000E+02  0.51100000000E-03 0. -1.
    9900012    2    1    2    0    0 -0.31297886917E+02  0.23019709387E+02  0.19343176241E+02  0.47787271748E+02  0.20000003207E+02 0.  0.
         12    1    1    2    0    0  0.31297886917E+02 -0.23019709387E+02 -0.19343176241E+02  0.43400728252E+02  0.00000000000E+00 0. -1.
         11    1    3    3    0    0 -0.50307684937E+01  0.17927159541E+01  0.90122504639E+01  0.10475835089E+02  0.51100000000E-03 0. -1.
        -11    1    3    3    0    0 -0.70504018034E+01  0.10351325689E+02 -0.86549711912E+00  0.12554170408E+02  0.51100000000E-03 0.  1.
        -12    1    3    3    0    0 -0.19216716620E+02  0.10875667744E+02  0.11196422896E+02  0.24757266250E+02  0.00000000000E+00 0.  1.
</event>
<event>
 7    1  0.2455451E-009  0.4778727E+02  0.7816164E-02  0.1312668E+00
        -11   -1    0    0    0    0  0.00000000000E+00  0.00000000000E+00  0.45593999997E+02  0.45594000000E+02  0.51100000000E-03 0.  1.
         11   -1    0    0    0    0 -0.00000000000E+00 -0.00000000000E+00 -0.45593999997E+02  0.45594000000E+02  0.51100000000E-03 0. -1.
    9900012    2    1    2    0    0 -0.60964546418E+01 -0.27714693107E+02  0.32838270702E+02  0.47787274247E+02  0.20000014600E+02 0.  0.
         12    1    1    2    0    0  0.60964546418E+01  0.27714693107E+02 -0.32838270702E+02  0.43400725753E+02  0.00000000000E+00 0. -1.
         11    1    3    3    0    0 -0.53324465555E+01 -0.27739660355E+01  0.55444737390E+01  0.81774729065E+01  0.51100000000E-03 0. -1.
        -11    1    3    3    0    0 -0.40272610445E+01 -0.21845904659E+02  0.27190702356E+02  0.35111204433E+02  0.51100000000E-03 0.  1.
        -12    1    3    3    0    0  0.32632529581E+01 -0.30948224127E+01  0.10309460744E+00  0.44985969071E+01  0.00000000000E+00 0.  1.
</event>
<event>
 7    1  0.2455451E-009  0.4778727E+02  0.7816164E-02  0.1312668E+00
        -11   -1    0    0    0    0  0.00000000000E+00  0.00000000000E+00  0.45593999997E+02  0.45594000000E+02  0.51100000000E-03 0.  1.
         11   -1    0    0    0    0 -0.00000000000E+00 -0.00000000000E+00 -0.45593999997E+02  0.45594000000E+02  0.51100000000E-03 0. -1.
    9900012    2    1    2    0    0 -0.26805780162E+02 -0.38519820975E+01  0.33915124799E+02  0.47787270671E+02  0.19999998298E+02 0.  0.
         12    1    1    2    0    0  0.26805780162E+02  0.38519820975E+01 -0.33915124799E+02  0.43400729329E+02  0.00000000000E+00 0. -1.
         11    1    3    3    0    0 -0.83093603214E+01  0.29561957041E+01  0.76440730208E+01  0.11671178801E+02  0.51100000000E-03 0. -1.
        -11    1    3    3    0    0 -0.17680424586E+01 -0.14067665045E+01  0.15144048731E+02  0.15311668046E+02  0.51100000000E-03 0.  1.
        -12    1    3    3    0    0 -0.16728377382E+02 -0.54014112971E+01  0.11127003047E+02  0.20804423824E+02  0.00000000000E+00 0.  1.
</event>
<event>
 7    1  0.2455451E-009  0.4778729E+02  0.7816164E-02  0.1312668E+00
        -11   -1    0    0    0    0  0.00000000000E+00  0.00000000000E+00  0.45593999997E+02  0.45594000000E+02  0.51100000000E-03 0. -1.
         11   -1    0    0    0    0 -0.00000000000E+00 -0.00000000000E+00 -0.45593999997E+02  0.45594000000E+02  0.51100000000E-03 0.  1.
    9900012    2    1    2    0    0 -0.31462346834E+02  0.28833172930E+02 -0.78987825643E+01  0.47787286924E+02  0.20000072402E+02 0.  0.
         12    1    1    2    0    0  0.31462346834E+02 -0.28833172930E+02  0.78987825643E+01  0.43400713076E+02  0.00000000000E+00 0. -1.
         11    1    3    3    0    0 -0.15834574791E+02  0.20867049069E+02 -0.85470473921E+01  0.27553938285E+02  0.51100000000E-03 0. -1.
        -11    1    3    3    0    0 -0.89115621357E+01  0.45447950938E-02  0.32697343610E+01  0.94924772007E+01  0.51100000000E-03 0.  1.
        -12    1    3    3    0    0 -0.67162099071E+01  0.79615790661E+01 -0.26214695332E+01  0.10740871438E+02  0.00000000000E+00 0.  1.
</event>
<event>
 7    1  0.2455451E-009  0.4778727E+02  0.7816164E-02  0.1312668E+00
        -11   -1    0    0    0    0  0.00000000000E+00  0.00000000000E+00  0.45593999997E+02  0.45594000000E+02  0.51100000000E-03 0. -1.
         11   -1    0    0    0    0 -0.00000000000E+00 -0.00000000000E+00 -0.45593999997E+02  0.45594000000E+02  0.51100000000E-03 0.  1.
    9900012    2    1    2    0    0  0.56440983822E+01  0.13055499325E+02 -0.41003919369E+02  0.47787270596E+02  0.19999997956E+02 0.  0.
         12    1    1    2    0    0 -0.56440983822E+01 -0.13055499325E+02  0.41003919369E+02  0.43400729404E+02  0.00000000000E+00 0. -1.
         11    1    3    3    0    0  0.98136513270E+01  0.12260104790E+02 -0.27520156770E+02  0.31685595319E+02  0.51100000000E-03 0. -1.
        -11    1    3    3    0    0  0.21616696043E+01 -0.39883891873E+00 -0.48864336025E+01  0.53580893585E+01  0.51100000000E-03 0.  1.
         12    1    3    3    0    0 -0.63312225491E+01  0.11942334533E+01 -0.85973289965E+01  0.10743585918E+02  0.00000000000E+00 0. -1.
</event>
<event>
 7    1  0.2455451E-009  0.4778727E+02  0.7816164E-02  0.1312668E+00
        -11   -1    0    0    0    0  0.00000000000E+00  0.00000000000E+00  0.45593999997E+02  0.45594000000E+02  0.51100000000E-03 0. -1.
         11   -1    0    0    0    0 -0.00000000000E+00 -0.00000000000E+00 -0.45593999997E+02  0.45594000000E+02  0.51100000000E-03 0.  1.
    9900012    2    1    2    0    0 -0.36579765419E+02 -0.23347402231E+02  0.66527480875E+00  0.47787273974E+02  0.20000013357E+02 0.  0.
         12    1    1    2    0    0  0.36579765419E+02  0.23347402231E+02 -0.66527480875E+00  0.43400726026E+02  0.00000000000E+00 0. -1.
         11    1    3    3    0    0 -0.27822602030E+02 -0.22742994806E+02  0.15936301991E+01  0.35970552595E+02  0.51100000000E-03 0.  1.
        -11    1    3    3    0    0 -0.58222534665E+01 -0.39636750883E+01 -0.18041866176E+01  0.72707939901E+01  0.51100000000E-03 0. -1.
         12    1    3    3    0    0 -0.29349099222E+01  0.33592676641E+01  0.87583122728E+00  0.45459273893E+01  0.00000000000E+00 0. -1.
</event>
<event>
 7    1  0.2455451E-009  0.4778727E+02  0.7816164E-02  0.1312668E+00
        -11   -1    0    0    0    0  0.00000000000E+00  0.00000000000E+00  0.45593999997E+02  0.45594000000E+02  0.51100000000E-03 0.  1.
         11   -1    0    0    0    0 -0.00000000000E+00 -0.00000000000E+00 -0.45593999997E+02  0.45594000000E+02  0.51100000000E-03 0. -1.
    9900012    2    1    2    0    0 -0.18605928697E+02 -0.11257210945E+02  0.37559523023E+02  0.47787272464E+02  0.20000006470E+02 0.  0.
         12    1    1    2    0    0  0.18605928697E+02  0.11257210945E+02 -0.37559523023E+02  0.43400727536E+02  0.00000000000E+00 0. -1.
         11    1    3    3    0    0 -0.18993343842E+02 -0.42018394830E+01  0.20073030715E+02  0.27952265162E+02  0.51100000000E-03 0. -1.
        -11    1    3    3    0    0 -0.18787620077E+01 -0.38810582401E+01  0.13838213489E+02  0.14494430399E+02  0.51100000000E-03 0.  1.
         12    1    3    3    0    0  0.22661771521E+01 -0.31743132218E+01  0.36482788186E+01  0.53405769026E+01  0.00000000000E+00 0. -1.
</event>
<event>
 7    1  0.2455451E-009  0.4778726E+02  0.7816164E-02  0.1312668E+00
        -11   -1    0    0    0    0  0.00000000000E+00  0.00000000000E+00  0.45593999997E+02  0.45594000000E+02  0.51100000000E-03 0.  1.
         11   -1    0    0    0    0 -0.00000000000E+00 -0.00000000000E+00 -0.45593999997E+02  0.45594000000E+02  0.51100000000E-03 0. -1.
    9900012    2    1    2    0    0  0.33889327744E+02 -0.57860372393E+01 -0.26488849378E+02  0.47787263794E+02  0.19999966942E+02 0.  0.
         12    1    1    2    0    0 -0.33889327744E+02  0.57860372393E+01  0.26488849378E+02  0.43400736206E+02  0.00000000000E+00 0. -1.
         11    1    3    3    0    0  0.38530035167E+01 -0.78990196917E+01 -0.94492492411E+01  0.12904590643E+02  0.51100000000E-03 0. -1.
        -11    1    3    3    0    0  0.23567300114E+02  0.15495689524E+01 -0.15366484915E+02  0.28177076809E+02  0.51100000000E-03 0.  1.
         12    1    3    3    0    0  0.64690241135E+01  0.56341349993E+00 -0.16731152217E+01  0.67055963417E+01  0.00000000000E+00 0. -1.
</event>
<event>
 7    1  0.2455451E-009  0.4778727E+02  0.7816164E-02  0.1312668E+00
        -11   -1    0    0    0    0  0.00000000000E+00  0.00000000000E+00  0.45593999997E+02  0.45594000000E+02  0.51100000000E-03 0.  1.
         11   -1    0    0    0    0 -0.00000000000E+00 -0.00000000000E+00 -0.45593999997E+02  0.45594000000E+02  0.51100000000E-03 0. -1.
    9900012    2    1    2    0    0 -0.33390078237E+02 -0.95373424756E+01  0.26033919900E+02  0.47787271763E+02  0.20000003274E+02 0.  0.
         12    1    1    2    0    0  0.33390078237E+02  0.95373424756E+01 -0.26033919900E+02  0.43400728237E+02  0.00000000000E+00 0. -1.
         11    1    3    3    0    0 -0.55212472933E+01 -0.93923625702E+01  0.47429340811E+01  0.11882595267E+02  0.51100000000E-03 0.  1.
        -11    1    3    3    0    0 -0.20039624930E+02  0.33496807561E+01  0.15569233863E+02  0.25597030528E+02  0.51100000000E-03 0. -1.
         12    1    3    3    0    0 -0.78292060142E+01 -0.34946606615E+01  0.57217519557E+01  0.10307645968E+02  0.00000000000E+00 0. -1.
</event>
<event>
 7    1  0.2455451E-009  0.4778728E+02  0.7816164E-02  0.1312668E+00
        -11   -1    0    0    0    0  0.00000000000E+00  0.00000000000E+00  0.45593999997E+02  0.45594000000E+02  0.51100000000E-03 0.  1.
         11   -1    0    0    0    0 -0.00000000000E+00 -0.00000000000E+00 -0.45593999997E+02  0.45594000000E+02  0.51100000000E-03 0. -1.
    9900012    2    1    2    0    0 -0.33373234719E+02 -0.20360048771E+02 -0.18849894912E+02  0.47787275124E+02  0.20000018600E+02 0.  0.
         12    1    1    2    0    0  0.33373234719E+02  0.20360048771E+02  0.18849894912E+02  0.43400724876E+02  0.00000000000E+00 0. -1.
         11    1    3    3    0    0  0.11484340429E+01 -0.17433659495E+01 -0.33707266006E+00  0.21146734557E+01  0.51100000000E-03 0. -1.
        -11    1    3    3    0    0 -0.21145358242E+02 -0.16809843818E+02 -0.17393783545E+02  0.32128503399E+02  0.51100000000E-03 0.  1.
        -12    1    3    3    0    0 -0.13376310520E+02 -0.18068390030E+01 -0.11190387075E+01  0.13544098270E+02  0.00000000000E+00 0.  1.
</event>
<event>
 7    1  0.2455451E-009  0.4778727E+02  0.7816164E-02  0.1312668E+00
        -11   -1    0    0    0    0  0.00000000000E+00  0.00000000000E+00  0.45593999997E+02  0.45594000000E+02  0.51100000000E-03 0. -1.
         11   -1    0    0    0    0 -0.00000000000E+00 -0.00000000000E+00 -0.45593999997E+02  0.45594000000E+02  0.51100000000E-03 0.  1.
    9900012    2    1    2    0    0  0.42796832626E+02  0.68701558296E+01  0.22034803366E+01  0.47787271325E+02  0.20000001278E+02 0.  0.
         12    1    1    2    0    0 -0.42796832626E+02 -0.68701558296E+01 -0.22034803366E+01  0.43400728675E+02  0.00000000000E+00 0. -1.
         11    1    3    3    0    0  0.13046059152E+02  0.40875335069E+01  0.66668211137E+01  0.15210328517E+02  0.51100000000E-03 0. -1.
        -11    1    3    3    0    0  0.24431343729E+02  0.33014639928E+01 -0.82830141956E+01  0.26007663203E+02  0.51100000000E-03 0.  1.
        -12    1    3    3    0    0  0.53194297455E+01 -0.51884167017E+00  0.38196734185E+01  0.65692796043E+01  0.00000000000E+00 0.  1.
</event>
<event>
 7    1  0.2455451E-009  0.4778727E+02  0.7816164E-02  0.1312668E+00
        -11   -1    0    0    0    0  0.00000000000E+00  0.00000000000E+00  0.45593999997E+02  0.45594000000E+02  0.51100000000E-03 0.  1.
         11   -1    0    0    0    0 -0.00000000000E+00 -0.00000000000E+00 -0.45593999997E+02  0.45594000000E+02  0.51100000000E-03 0. -1.
    9900012    2    1    2    0    0  0.40163242333E+02  0.69209877222E+01  0.14921031750E+02  0.47787270810E+02  0.19999998933E+02 0.  0.
         12    1    1    2    0    0 -0.40163242333E+02 -0.69209877222E+01 -0.14921031750E+02  0.43400729190E+02  0.00000000000E+00 0. -1.
         11    1    3    3    0    0  0.12081350547E+02  0.53608874672E+01 -0.24488113714E+01  0.13442277443E+02  0.51100000000E-03 0. -1.
        -11    1    3    3    0    0  0.19451813401E+02  0.52768799739E+01  0.12987050033E+02  0.23976696513E+02  0.51100000000E-03 0.  1.
         12    1    3    3    0    0  0.86300783850E+01 -0.37167797189E+01  0.43827930882E+01  0.10368296855E+02  0.00000000000E+00 0. -1.
</event>
<event>
 7    1  0.2455451E-009  0.4778727E+02  0.7816164E-02  0.1312668E+00
        -11   -1    0    0    0    0  0.00000000000E+00  0.00000000000E+00  0.45593999997E+02  0.45594000000E+02  0.51100000000E-03 0. -1.
         11   -1    0    0    0    0 -0.00000000000E+00 -0.00000000000E+00 -0.45593999997E+02  0.45594000000E+02  0.51100000000E-03 0.  1.
    9900012    2    1    2    0    0 -0.30454482907E+02 -0.30418570696E+02 -0.55550323328E+01  0.47787270092E+02  0.19999995657E+02 0.  0.
         12    1    1    2    0    0  0.30454482907E+02  0.30418570696E+02  0.55550323328E+01  0.43400729908E+02  0.00000000000E+00 0. -1.
         11    1    3    3    0    0 -0.73463243923E+01 -0.47272944523E+01  0.32991193134E+01  0.93380931363E+01  0.51100000000E-03 0. -1.
        -11    1    3    3    0    0 -0.12455506147E+02 -0.22552143138E+02 -0.31221604511E+01  0.25951621907E+02  0.51100000000E-03 0.  1.
        -12    1    3    3    0    0 -0.10652652368E+02 -0.31391331060E+01 -0.57319911951E+01  0.12497555048E+02  0.00000000000E+00 0.  1.
</event>
<event>
 7    1  0.2455451E-009  0.4778726E+02  0.7816164E-02  0.1312668E+00
        -11   -1    0    0    0    0  0.00000000000E+00  0.00000000000E+00  0.45593999997E+02  0.45594000000E+02  0.51100000000E-03 0.  1.
         11   -1    0    0    0    0 -0.00000000000E+00 -0.00000000000E+00 -0.45593999997E+02  0.45594000000E+02  0.51100000000E-03 0. -1.
    9900012    2    1    2    0    0  0.21189682500E+01  0.36172694195E+02  0.23888708278E+02  0.47787260203E+02  0.19999950567E+02 0.  0.
         12    1    1    2    0    0 -0.21189682500E+01 -0.36172694195E+02 -0.23888708278E+02  0.43400739797E+02  0.00000000000E+00 0. -1.
         11    1    3    3    0    0  0.42679422262E+01  0.11551004260E+02  0.20232988973E+00  0.12315923347E+02  0.51100000000E-03 0. -1.
        -11    1    3    3    0    0  0.15549687517E+01  0.16924274907E+02  0.11241991979E+02  0.20377227310E+02  0.51100000000E-03 0.  1.
         12    1    3    3    0    0 -0.37039427279E+01  0.76974150289E+01  0.12444386409E+02  0.15094109545E+02  0.00000000000E+00 0. -1.
</event>
<event>
 7    1  0.2455451E-009  0.4778727E+02  0.7816164E-02  0.1312668E+00
        -11   -1    0    0    0    0  0.00000000000E+00  0.00000000000E+00  0.45593999997E+02  0.45594000000E+02  0.51100000000E-03 0.  1.
         11   -1    0    0    0    0 -0.00000000000E+00 -0.00000000000E+00 -0.45593999997E+02  0.45594000000E+02  0.51100000000E-03 0. -1.
    9900012    2    1    2    0    0  0.34201461744E+02  0.18272068075E+02  0.19493969897E+02  0.47787270519E+02  0.19999997604E+02 0.  0.
         12    1    1    2    0    0 -0.34201461744E+02 -0.18272068075E+02 -0.19493969897E+02  0.43400729481E+02  0.00000000000E+00 0. -1.
         11    1    3    3    0    0 -0.30200131540E+00 -0.13216673972E+01 -0.64592694483E+00  0.15017427818E+01  0.51100000000E-03 0. -1.
        -11    1    3    3    0    0  0.22515665273E+02  0.18782918881E+02  0.16891493100E+02  0.33838968125E+02  0.51100000000E-03 0.  1.
        -12    1    3    3    0    0  0.11987797786E+02  0.81081659115E+00  0.32484037420E+01  0.12446559612E+02  0.00000000000E+00 0.  1.
</event>
<event>
 7    1  0.2455451E-009  0.4778727E+02  0.7816164E-02  0.1312668E+00
        -11   -1    0    0    0    0  0.00000000000E+00  0.00000000000E+00  0.45593999997E+02  0.45594000000E+02  0.51100000000E-03 0. -1.
         11   -1    0    0    0    0 -0.00000000000E+00 -0.00000000000E+00 -0.45593999997E+02  0.45594000000E+02  0.51100000000E-03 0.  1.
    9900012    2    1    2    0    0  0.42918015037E+02  0.17954226806E+01  0.62003022889E+01  0.47787270677E+02  0.19999998323E+02 0.  0.
         12    1    1    2    0    0 -0.42918015037E+02 -0.17954226806E+01 -0.62003022889E+01  0.43400729323E+02  0.00000000000E+00 0. -1.
         11    1    3    3    0    0  0.15885323922E+02 -0.66863523588E+01  0.84703790727E+00  0.17255964112E+02  0.51100000000E-03 0. -1.
        -11    1    3    3    0    0  0.24464286532E+02  0.52007663338E+01  0.71212006443E+01  0.26005014609E+02  0.51100000000E-03 0.  1.
        -12    1    3    3    0    0  0.25684045841E+01  0.32810087056E+01 -0.17679362627E+01  0.45262919551E+01  0.00000000000E+00 0.  1.
</event>
<event>
 7    1  0.2455451E-009  0.4778727E+02  0.7816164E-02  0.1312668E+00
        -11   -1    0    0    0    0  0.00000000000E+00  0.00000000000E+00  0.45593999997E+02  0.45594000000E+02  0.51100000000E-03 0.  1.
         11   -1    0    0    0    0 -0.00000000000E+00 -0.00000000000E+00 -0.45593999997E+02  0.45594000000E+02  0.51100000000E-03 0. -1.
    9900012    2    1    2    0    0  0.55341276366E+01  0.40877405875E+02  0.13492023999E+02  0.47787267387E+02  0.19999983322E+02 0.  0.
         12    1    1    2    0    0 -0.55341276366E+01 -0.40877405875E+02 -0.13492023999E+02  0.43400732613E+02  0.00000000000E+00 0. -1.
         11    1    3    3    0    0 -0.59237704438E+00  0.18359953766E+02 -0.23027400654E+01  0.18513276990E+02  0.51100000000E-03 0. -1.
        -11    1    3    3    0    0  0.62380278466E+01  0.19688425054E+02  0.10268952999E+02  0.23065091989E+02  0.51100000000E-03 0.  1.
         12    1    3    3    0    0 -0.11152316563E+00  0.28290270554E+01  0.55258110654E+01  0.62088984069E+01  0.00000000000E+00 0. -1.
</event>
<event>
 7    1  0.2455451E-009  0.4778727E+02  0.7816164E-02  0.1312668E+00
        -11   -1    0    0    0    0  0.00000000000E+00  0.00000000000E+00  0.45593999997E+02  0.45594000000E+02  0.51100000000E-03 0. -1.
         11   -1    0    0    0    0 -0.00000000000E+00 -0.00000000000E+00 -0.45593999997E+02  0.45594000000E+02  0.51100000000E-03 0.  1.
    9900012    2    1    2    0    0 -0.75444047374E+01  0.36066165699E+02 -0.22933312595E+02  0.47787272153E+02  0.20000005054E+02 0.  0.
         12    1    1    2    0    0  0.75444047374E+01 -0.36066165699E+02  0.22933312595E+02  0.43400727847E+02  0.00000000000E+00 0. -1.
         11    1    3    3    0    0  0.35528432241E+01  0.18387133138E+02 -0.70262929492E+01  0.20001953727E+02  0.51100000000E-03 0. -1.
        -11    1    3    3    0    0 -0.10393598157E+02  0.82240004230E+01 -0.83932660941E+01  0.15687829091E+02  0.51100000000E-03 0.  1.
         12    1    3    3    0    0 -0.70364980454E+00  0.94550321379E+01 -0.75137535513E+01  0.12097489335E+02  0.00000000000E+00 0. -1.
</event>
<event>
 7    1  0.2455451E-009  0.4778727E+02  0.7816164E-02  0.1312668E+00
        -11   -1    0    0    0    0  0.00000000000E+00  0.00000000000E+00  0.45593999997E+02  0.45594000000E+02  0.51100000000E-03 0.  1.
         11   -1    0    0    0    0 -0.00000000000E+00 -0.00000000000E+00 -0.45593999997E+02  0.45594000000E+02  0.51100000000E-03 0. -1.
    9900012    2    1    2    0    0 -0.37942273863E+02  0.20852293399E+02  0.30313124280E+01  0.47787272576E+02  0.20000006982E+02 0.  0.
         12    1    1    2    0    0  0.37942273863E+02 -0.20852293399E+02 -0.30313124280E+01  0.43400727424E+02  0.00000000000E+00 0. -1.
         11    1    3    3    0    0 -0.12840856200E+02  0.16832781680E+02 -0.10992299517E+01  0.21199963061E+02  0.51100000000E-03 0. -1.
        -11    1    3    3    0    0 -0.11615948515E+02  0.54399343281E+00  0.49471317916E+01  0.12637258483E+02  0.51100000000E-03 0.  1.
         12    1    3    3    0    0 -0.13485469149E+02  0.34755182868E+01 -0.81658941192E+00  0.13950051032E+02  0.00000000000E+00 0. -1.
</event>
<event>
 7    1  0.2455451E-009  0.4778728E+02  0.7816164E-02  0.1312668E+00
        -11   -1    0    0    0    0  0.00000000000E+00  0.00000000000E+00  0.45593999997E+02  0.45594000000E+02  0.51100000000E-03 0. -1.
         11   -1    0    0    0    0 -0.00000000000E+00 -0.00000000000E+00 -0.45593999997E+02  0.45594000000E+02  0.51100000000E-03 0.  1.
    9900012    2    1    2    0    0 -0.30865946536E+02  0.24040806266E+02 -0.18787101989E+02  0.47787283155E+02  0.20000055218E+02 0.  0.
         12    1    1    2    0    0  0.30865946536E+02 -0.24040806266E+02  0.18787101989E+02  0.43400716845E+02  0.00000000000E+00 0. -1.
         11    1    3    3    0    0  0.42671562181E+00 -0.11818196520E+01 -0.27751020663E+01  0.30463052459E+01  0.51100000000E-03 0. -1.
        -11    1    3    3    0    0 -0.24655424138E+02  0.14152498076E+02 -0.13961051527E+02  0.31671660854E+02  0.51100000000E-03 0.  1.
         12    1    3    3    0    0 -0.66372380194E+01  0.11070127843E+02 -0.20509483956E+01  0.13069317055E+02  0.00000000000E+00 0. -1.
</event>
<event>
 7    1  0.2455451E-009  0.4778727E+02  0.7816164E-02  0.1312668E+00
        -11   -1    0    0    0    0  0.00000000000E+00  0.00000000000E+00  0.45593999997E+02  0.45594000000E+02  0.51100000000E-03 0.  1.
         11   -1    0    0    0    0 -0.00000000000E+00 -0.00000000000E+00 -0.45593999997E+02  0.45594000000E+02  0.51100000000E-03 0. -1.
    9900012    2    1    2    0    0  0.39992042294E+02 -0.14434097273E+02  0.87130212005E+01  0.47787270174E+02  0.19999996033E+02 0.  0.
         12    1    1    2    0    0 -0.39992042294E+02  0.14434097273E+02 -0.87130212005E+01  0.43400729826E+02  0.00000000000E+00 0. -1.
         11    1    3    3    0    0  0.68031013089E+01 -0.44793587844E+01 -0.31987814313E+01  0.87509454029E+01  0.51100000000E-03 0. -1.
        -11    1    3    3    0    0  0.20822402261E+02 -0.11015261295E+02  0.29789417317E+01  0.23744104772E+02  0.51100000000E-03 0.  1.
         12    1    3    3    0    0  0.12366538724E+02  0.10605228064E+01  0.89328609001E+01  0.15292219999E+02  0.00000000000E+00 0. -1.
</event>
<event>
 7    1  0.2455451E-009  0.4778727E+02  0.7816164E-02  0.1312668E+00
        -11   -1    0    0    0    0  0.00000000000E+00  0.00000000000E+00  0.45593999997E+02  0.45594000000E+02  0.51100000000E-03 0.  1.
         11   -1    0    0    0    0 -0.00000000000E+00 -0.00000000000E+00 -0.45593999997E+02  0.45594000000E+02  0.51100000000E-03 0. -1.
    9900012    2    1    2    0    0 -0.67246154480E+01 -0.64538048584E+01  0.42388104534E+02  0.47787268946E+02  0.19999990432E+02 0.  0.
         12    1    1    2    0    0  0.67246154480E+01  0.64538048584E+01 -0.42388104534E+02  0.43400731054E+02  0.00000000000E+00 0. -1.
         11    1    3    3    0    0  0.31215312670E+01 -0.47723685412E+01  0.50306805531E+01  0.76044201642E+01  0.51100000000E-03 0. -1.
        -11    1    3    3    0    0 -0.95400101217E+01 -0.47884412633E+01  0.21303168771E+02  0.23827840078E+02  0.51100000000E-03 0.  1.
        -12    1    3    3    0    0 -0.30613659324E+00  0.31070049462E+01  0.16054255210E+02  0.16355008703E+02  0.00000000000E+00 0.  1.
</event>
<event>
 7    1  0.2455451E-009  0.4778727E+02  0.7816164E-02  0.1312668E+00
        -11   -1    0    0    0    0  0.00000000000E+00  0.00000000000E+00  0.45593999997E+02  0.45594000000E+02  0.51100000000E-03 0. -1.
         11   -1    0    0    0    0 -0.00000000000E+00 -0.00000000000E+00 -0.45593999997E+02  0.45594000000E+02  0.51100000000E-03 0.  1.
    9900012    2    1    2    0    0 -0.66797044617E+01  0.29375264414E+02 -0.31242580039E+02  0.47787269377E+02  0.19999992398E+02 0.  0.
         12    1    1    2    0    0  0.66797044617E+01 -0.29375264414E+02  0.31242580039E+02  0.43400730623E+02  0.00000000000E+00 0. -1.
         11    1    3    3    0    0 -0.13443062923E+01  0.32093060387E+00  0.14771389209E+01  0.20228928574E+01  0.51100000000E-03 0. -1.
        -11    1    3    3    0    0 -0.62369404263E+01  0.25960790324E+02 -0.33092896797E+02  0.42520605344E+02  0.51100000000E-03 0.  1.
        -12    1    3    3    0    0  0.90154225683E+00  0.30935434863E+01  0.37317783735E+00  0.32437711758E+01  0.00000000000E+00 0.  1.
</event>
<event>
 7    1  0.2455451E-009  0.4778727E+02  0.7816164E-02  0.1312668E+00
        -11   -1    0    0    0    0  0.00000000000E+00  0.00000000000E+00  0.45593999997E+02  0.45594000000E+02  0.51100000000E-03 0.  1.
         11   -1    0    0    0    0 -0.00000000000E+00 -0.00000000000E+00 -0.45593999997E+02  0.45594000000E+02  0.51100000000E-03 0. -1.
    9900012    2    1    2    0    0  0.16104919978E+02  0.19613052009E+01  0.40254293010E+02  0.47787271074E+02  0.20000000135E+02 0.  0.
         12    1    1    2    0    0 -0.16104919978E+02 -0.19613052009E+01 -0.40254293010E+02  0.43400728926E+02  0.00000000000E+00 0. -1.
         11    1    3    3    0    0  0.73556961437E+01  0.67839741704E+01  0.52515670398E+01  0.11300775546E+02  0.51100000000E-03 0. -1.
        -11    1    3    3    0    0  0.51813427076E+01 -0.26614686089E+01  0.15893815809E+02  0.16927584253E+02  0.51100000000E-03 0.  1.
         12    1    3    3    0    0  0.35678811269E+01 -0.21612003606E+01  0.19108910161E+02  0.19558911275E+02  0.00000000000E+00 0. -1.
</event>
<event>
 7    1  0.2455451E-009  0.4778728E+02  0.7816164E-02  0.1312668E+00
        -11   -1    0    0    0    0  0.00000000000E+00  0.00000000000E+00  0.45593999997E+02  0.45594000000E+02  0.51100000000E-03 0.  1.
         11   -1    0    0    0    0 -0.00000000000E+00 -0.00000000000E+00 -0.45593999997E+02  0.45594000000E+02  0.51100000000E-03 0. -1.
    9900012    2    1    2    0    0  0.41822185302E+02 -0.11227253245E+02  0.29114011372E+01  0.47787278169E+02  0.20000032484E+02 0.  0.
         12    1    1    2    0    0 -0.41822185302E+02  0.11227253245E+02 -0.29114011372E+01  0.43400721831E+02  0.00000000000E+00 0. -1.
         11    1    3    3    0    0  0.24075491482E+02 -0.11921516529E+02 -0.12379269601E+01  0.26893945599E+02  0.51100000000E-03 0. -1.
        -11    1    3    3    0    0  0.13397607431E+02 -0.27796809124E+01 -0.42369746077E+00  0.13689486135E+02  0.51100000000E-03 0.  1.
         12    1    3    3    0    0  0.43490863890E+01  0.34739441970E+01  0.45730255580E+01  0.72038464348E+01  0.00000000000E+00 0. -1.
</event>
<event>
 7    1  0.2455451E-009  0.4778727E+02  0.7816164E-02  0.1312668E+00
        -11   -1    0    0    0    0  0.00000000000E+00  0.00000000000E+00  0.45593999997E+02  0.45594000000E+02  0.51100000000E-03 0. -1.
         11   -1    0    0    0    0 -0.00000000000E+00 -0.00000000000E+00 -0.45593999997E+02  0.45594000000E+02  0.51100000000E-03 0.  1.
    9900012    2    1    2    0    0 -0.35857614181E+02 -0.17458789058E+02 -0.17118579195E+02  0.47787267704E+02  0.19999984772E+02 0.  0.
         12    1    1    2    0    0  0.35857614181E+02  0.17458789058E+02  0.17118579195E+02  0.43400732296E+02  0.00000000000E+00 0. -1.
         11    1    3    3    0    0 -0.10608474683E+02 -0.18259998928E+01  0.22202834834E+01  0.10991072273E+02  0.51100000000E-03 0. -1.
        -11    1    3    3    0    0 -0.10923055520E+02 -0.79856077666E+01 -0.14541681380E+02  0.19863120876E+02  0.51100000000E-03 0.  1.
         12    1    3    3    0    0 -0.14326083978E+02 -0.76471813987E+01 -0.47971812981E+01  0.16933074556E+02  0.00000000000E+00 0. -1.
</event>
<event>
 7    1  0.2455451E-009  0.4778727E+02  0.7816164E-02  0.1312668E+00
        -11   -1    0    0    0    0  0.00000000000E+00  0.00000000000E+00  0.45593999997E+02  0.45594000000E+02  0.51100000000E-03 0.  1.
         11   -1    0    0    0    0 -0.00000000000E+00 -0.00000000000E+00 -0.45593999997E+02  0.45594000000E+02  0.51100000000E-03 0. -1.
    9900012    2    1    2    0    0  0.40320785439E+02  0.15330363146E+02  0.47788790329E+01  0.47787268930E+02  0.19999990361E+02 0.  0.
         12    1    1    2    0    0 -0.40320785439E+02 -0.15330363146E+02 -0.47788790329E+01  0.43400731070E+02  0.00000000000E+00 0. -1.
         11    1    3    3    0    0  0.11209571596E+01  0.17997920709E+01 -0.42361232043E+01  0.47371443418E+01  0.51100000000E-03 0. -1.
        -11    1    3    3    0    0  0.38998392616E+02  0.13877087546E+02  0.82812910453E+01  0.42214073092E+02  0.51100000000E-03 0.  1.
        -12    1    3    3    0    0  0.20143566296E+00 -0.34651647111E+00  0.73371119200E+00  0.83605149622E+00  0.00000000000E+00 0.  1.
</event>
<event>
 7    1  0.2455451E-009  0.4778727E+02  0.7816164E-02  0.1312668E+00
        -11   -1    0    0    0    0  0.00000000000E+00  0.00000000000E+00  0.45593999997E+02  0.45594000000E+02  0.51100000000E-03 0.  1.
         11   -1    0    0    0    0 -0.00000000000E+00 -0.00000000000E+00 -0.45593999997E+02  0.45594000000E+02  0.51100000000E-03 0. -1.
    9900012    2    1    2    0    0  0.34550138651E+01  0.31018421319E+02  0.30158640458E+02  0.47787272169E+02  0.20000005129E+02 0.  0.
         12    1    1    2    0    0 -0.34550138651E+01 -0.31018421319E+02 -0.30158640458E+02  0.43400727831E+02  0.00000000000E+00 0. -1.
         11    1    3    3    0    0 -0.72753842646E+01  0.11190828406E+02  0.99466889291E+01  0.16646395331E+02  0.51100000000E-03 0. -1.
        -11    1    3    3    0    0  0.69854070096E+01  0.17893179411E+02  0.18234230083E+02  0.26484881112E+02  0.51100000000E-03 0.  1.
         12    1    3    3    0    0  0.37449911200E+01  0.19344135020E+01  0.19777214460E+01  0.46559957263E+01  0.00000000000E+00 0. -1.
</event>
<event>
 7    1  0.2455451E-009  0.4778727E+02  0.7816164E-02  0.1312668E+00
        -11   -1    0    0    0    0  0.00000000000E+00  0.00000000000E+00  0.45593999997E+02  0.45594000000E+02  0.51100000000E-03 0.  1.
         11   -1    0    0    0    0 -0.00000000000E+00 -0.00000000000E+00 -0.45593999997E+02  0.45594000000E+02  0.51100000000E-03 0. -1.
    9900012    2    1    2    0    0  0.42112909925E+02  0.50292379595E+01 -0.92104750225E+01  0.47787271125E+02  0.20000000366E+02 0.  0.
         12    1    1    2    0    0 -0.42112909925E+02 -0.50292379595E+01  0.92104750225E+01  0.43400728875E+02  0.00000000000E+00 0. -1.
         11    1    3    3    0    0  0.91765294925E+01  0.89585798946E+01 -0.39392614515E+01  0.13415760444E+02  0.51100000000E-03 0. -1.
        -11    1    3    3    0    0  0.26625263940E+02 -0.49912426859E+01 -0.64924037787E+01  0.27856210986E+02  0.51100000000E-03 0.  1.
         12    1    3    3    0    0  0.63111164924E+01  0.10619007508E+01  0.12211902077E+01  0.65152996944E+01  0.00000000000E+00 0. -1.
</event>
<event>
 7    1  0.2455451E-009  0.4778727E+02  0.7816164E-02  0.1312668E+00
        -11   -1    0    0    0    0  0.00000000000E+00  0.00000000000E+00  0.45593999997E+02  0.45594000000E+02  0.51100000000E-03 0.  1.
         11   -1    0    0    0    0 -0.00000000000E+00 -0.00000000000E+00 -0.45593999997E+02  0.45594000000E+02  0.51100000000E-03 0. -1.
    9900012    2    1    2    0    0 -0.31829370894E+01  0.19823025967E+02  0.38477783409E+02  0.47787271169E+02  0.20000000567E+02 0.  0.
         12    1    1    2    0    0  0.31829370894E+01 -0.19823025967E+02 -0.38477783409E+02  0.43400728831E+02  0.00000000000E+00 0. -1.
         11    1    3    3    0    0 -0.20007007725E+01  0.33498925218E-01  0.20241477040E+01  0.28462431287E+01  0.51100000000E-03 0. -1.
        -11    1    3    3    0    0  0.36895911176E+01 -0.82236057123E+00  0.14910581059E+01  0.40635715892E+01  0.51100000000E-03 0.  1.
        -12    1    3    3    0    0 -0.48718274344E+01  0.20611887613E+02  0.34962577599E+02  0.40877456451E+02  0.00000000000E+00 0.  1.
</event>
<event>
 7    1  0.2455451E-009  0.4778727E+02  0.7816164E-02  0.1312668E+00
        -11   -1    0    0    0    0  0.00000000000E+00  0.00000000000E+00  0.45593999997E+02  0.45594000000E+02  0.51100000000E-03 0.  1.
         11   -1    0    0    0    0 -0.00000000000E+00 -0.00000000000E+00 -0.45593999997E+02  0.45594000000E+02  0.51100000000E-03 0. -1.
    9900012    2    1    2    0    0 -0.26320046067E+02  0.25911926997E+02  0.22791452071E+02  0.47787273356E+02  0.20000010541E+02 0.  0.
         12    1    1    2    0    0  0.26320046067E+02 -0.25911926997E+02 -0.22791452071E+02  0.43400726644E+02  0.00000000000E+00 0. -1.
         11    1    3    3    0    0 -0.11246358324E+02  0.11235598955E+02  0.84246300609E-02  0.15897148508E+02  0.51100000000E-03 0. -1.
        -11    1    3    3    0    0 -0.10970484371E+02  0.63896427319E+01  0.15985202091E+02  0.20413371788E+02  0.51100000000E-03 0.  1.
        -12    1    3    3    0    0 -0.41032033717E+01  0.82866853095E+01  0.67978253500E+01  0.11476753061E+02  0.00000000000E+00 0.  1.
</event>
<event>
 7    1  0.2455451E-009  0.4778727E+02  0.7816164E-02  0.1312668E+00
        -11   -1    0    0    0    0  0.00000000000E+00  0.00000000000E+00  0.45593999997E+02  0.45594000000E+02  0.51100000000E-03 0. -1.
         11   -1    0    0    0    0 -0.00000000000E+00 -0.00000000000E+00 -0.45593999997E+02  0.45594000000E+02  0.51100000000E-03 0.  1.
    9900012    2    1    2    0    0 -0.22460850013E+02 -0.28433081111E+02 -0.23889192956E+02  0.47787269305E+02  0.19999992069E+02 0.  0.
         12    1    1    2    0    0  0.22460850013E+02  0.28433081111E+02  0.23889192956E+02  0.43400730695E+02  0.00000000000E+00 0. -1.
         11    1    3    3    0    0  0.31274867536E+01 -0.72705726985E+01 -0.27917469769E+01  0.83926308273E+01  0.51100000000E-03 0. -1.
        -11    1    3    3    0    0 -0.23297521099E+02 -0.18462831480E+02 -0.18709960492E+02  0.35124254547E+02  0.51100000000E-03 0.  1.
        -12    1    3    3    0    0 -0.22908156682E+01 -0.26996769325E+01 -0.23874854877E+01  0.42703839311E+01  0.00000000000E+00 0.  1.
</event>
<event>
 7    1  0.2455451E-009  0.4778727E+02  0.7816164E-02  0.1312668E+00
        -11   -1    0    0    0    0  0.00000000000E+00  0.00000000000E+00  0.45593999997E+02  0.45594000000E+02  0.51100000000E-03 0.  1.
         11   -1    0    0    0    0 -0.00000000000E+00 -0.00000000000E+00 -0.45593999997E+02  0.45594000000E+02  0.51100000000E-03 0. -1.
    9900012    2    1    2    0    0  0.28518305505E+01  0.41487156947E+02  0.12422008458E+02  0.47787269324E+02  0.19999992156E+02 0.  0.
         12    1    1    2    0    0 -0.28518305505E+01 -0.41487156947E+02 -0.12422008458E+02  0.43400730676E+02  0.00000000000E+00 0. -1.
         11    1    3    3    0    0  0.15799920495E+01 -0.15924888183E+01  0.14749657508E+01  0.26847569239E+01  0.51100000000E-03 0. -1.
        -11    1    3    3    0    0  0.33985387422E+01  0.29490369419E+02  0.99623703965E+01  0.31312629692E+02  0.51100000000E-03 0.  1.
         12    1    3    3    0    0 -0.21267002412E+01  0.13589276346E+02  0.98467231122E+00  0.13789882708E+02  0.00000000000E+00 0. -1.
</event>
<event>
 7    1  0.2455451E-009  0.4778727E+02  0.7816164E-02  0.1312668E+00
        -11   -1    0    0    0    0  0.00000000000E+00  0.00000000000E+00  0.45593999997E+02  0.45594000000E+02  0.51100000000E-03 0.  1.
         11   -1    0    0    0    0 -0.00000000000E+00 -0.00000000000E+00 -0.45593999997E+02  0.45594000000E+02  0.51100000000E-03 0. -1.
    9900012    2    1    2    0    0 -0.33533402318E+02 -0.24086532509E+02  0.13378081735E+02  0.47787272008E+02  0.20000004395E+02 0.  0.
         12    1    1    2    0    0  0.33533402318E+02  0.24086532509E+02 -0.13378081735E+02  0.43400727992E+02  0.00000000000E+00 0. -1.
         11    1    3    3    0    0 -0.24766457339E+02 -0.77424172980E+01  0.10139785298E+02  0.27859247673E+02  0.51100000000E-03 0. -1.
        -11    1    3    3    0    0 -0.23739337525E+01 -0.30368004622E+00  0.29296940080E+00  0.24111437872E+01  0.51100000000E-03 0.  1.
         12    1    3    3    0    0 -0.63930112264E+01 -0.16040435164E+02  0.29453270355E+01  0.17516880548E+02  0.00000000000E+00 0. -1.
</event>
<event>
 7    1  0.2455451E-009  0.4778727E+02  0.7816164E-02  0.1312668E+00
        -11   -1    0    0    0    0  0.00000000000E+00  0.00000000000E+00  0.45593999997E+02  0.45594000000E+02  0.51100000000E-03 0.  1.
         11   -1    0    0    0    0 -0.00000000000E+00 -0.00000000000E+00 -0.45593999997E+02  0.45594000000E+02  0.51100000000E-03 0. -1.
    9900012    2    1    2    0    0 -0.14214717321E+01  0.51577194708E+01  0.43069718623E+02  0.47787270579E+02  0.19999997876E+02 0.  0.
         12    1    1    2    0    0  0.14214717321E+01 -0.51577194708E+01 -0.43069718623E+02  0.43400729421E+02  0.00000000000E+00 0. -1.
         11    1    3    3    0    0  0.62752853847E+01  0.78923274207E+00  0.59441867895E+01  0.86795997506E+01  0.51100000000E-03 0. -1.
        -11    1    3    3    0    0 -0.49516359310E+01 -0.89763948221E+00  0.26137023705E+02  0.26617070903E+02  0.51100000000E-03 0.  1.
         12    1    3    3    0    0 -0.27451211858E+01  0.52661262110E+01  0.10988508129E+02  0.12490599925E+02  0.00000000000E+00 0. -1.
</event>
<event>
 7    1  0.2455451E-009  0.4778728E+02  0.7816164E-02  0.1312668E+00
        -11   -1    0    0    0    0  0.00000000000E+00  0.00000000000E+00  0.45593999997E+02  0.45594000000E+02  0.51100000000E-03 0.  1.
         11   -1    0    0    0    0 -0.00000000000E+00 -0.00000000000E+00 -0.45593999997E+02  0.45594000000E+02  0.51100000000E-03 0. -1.
    9900012    2    1    2    0    0 -0.79652163891E+00  0.39292977716E+02 -0.18413319084E+02  0.47787275764E+02  0.20000021520E+02 0.  0.
         12    1    1    2    0    0  0.79652163891E+00 -0.39292977716E+02  0.18413319084E+02  0.43400724236E+02  0.00000000000E+00 0. -1.
         11    1    3    3    0    0 -0.32414163296E+01  0.27836779934E+02 -0.17660586338E+02  0.33125358971E+02  0.51100000000E-03 0. -1.
        -11    1    3    3    0    0  0.47767517936E+01  0.96026960394E+01 -0.27542550407E+01  0.11073168021E+02  0.51100000000E-03 0.  1.
         12    1    3    3    0    0 -0.23318571029E+01  0.18535017428E+01  0.20015222946E+01  0.35887487728E+01  0.00000000000E+00 0. -1.
</event>
<event>
 7    1  0.2455451E-009  0.4778727E+02  0.7816164E-02  0.1312668E+00
        -11   -1    0    0    0    0  0.00000000000E+00  0.00000000000E+00  0.45593999997E+02  0.45594000000E+02  0.51100000000E-03 0. -1.
         11   -1    0    0    0    0 -0.00000000000E+00 -0.00000000000E+00 -0.45593999997E+02  0.45594000000E+02  0.51100000000E-03 0.  1.
    9900012    2    1    2    0    0  0.38666224437E+02  0.19006663076E+02 -0.52242682372E+01  0.47787272677E+02  0.20000007445E+02 0.  0.
         12    1    1    2    0    0 -0.38666224437E+02 -0.19006663076E+02  0.52242682372E+01  0.43400727323E+02  0.00000000000E+00 0. -1.
         11    1    3    3    0    0  0.76445314054E+00  0.28398906370E+01 -0.22950096855E+01  0.37304741189E+01  0.51100000000E-03 0. -1.
        -11    1    3    3    0    0  0.71511713721E+01 -0.28805371640E+00  0.44236910795E+01  0.84137548077E+01  0.51100000000E-03 0.  1.
        -12    1    3    3    0    0  0.30750599925E+02  0.16454826156E+02 -0.73529496312E+01  0.35643043751E+02  0.00000000000E+00 0.  1.
</event>
<event>
 7    1  0.2455451E-009  0.4778726E+02  0.7816164E-02  0.1312668E+00
        -11   -1    0    0    0    0  0.00000000000E+00  0.00000000000E+00  0.45593999997E+02  0.45594000000E+02  0.51100000000E-03 0.  1.
         11   -1    0    0    0    0 -0.00000000000E+00 -0.00000000000E+00 -0.45593999997E+02  0.45594000000E+02  0.51100000000E-03 0. -1.
    9900012    2    1    2    0    0 -0.19574560222E+02 -0.38466019483E+02 -0.45635355935E+01  0.47787263602E+02  0.19999966069E+02 0.  0.
         12    1    1    2    0    0  0.19574560222E+02  0.38466019483E+02  0.45635355935E+01  0.43400736398E+02  0.00000000000E+00 0. -1.
         11    1    3    3    0    0 -0.26602885500E+01 -0.15230068511E+02 -0.65024131075E-01  0.15460800445E+02  0.51100000000E-03 0. -1.
        -11    1    3    3    0    0 -0.15483912630E+02 -0.24805043578E+02 -0.23971223380E+01  0.29339187668E+02  0.51100000000E-03 0.  1.
        -12    1    3    3    0    0 -0.14303590418E+01  0.15690926061E+01 -0.21013891244E+01  0.29872754890E+01  0.00000000000E+00 0.  1.
</event>
<event>
 7    1  0.2455451E-009  0.4778726E+02  0.7816164E-02  0.1312668E+00
        -11   -1    0    0    0    0  0.00000000000E+00  0.00000000000E+00  0.45593999997E+02  0.45594000000E+02  0.51100000000E-03 0.  1.
         11   -1    0    0    0    0 -0.00000000000E+00 -0.00000000000E+00 -0.45593999997E+02  0.45594000000E+02  0.51100000000E-03 0. -1.
    9900012    2    1    2    0    0  0.17492307696E+02  0.55883528810E+01  0.39324466780E+02  0.47787260329E+02  0.19999951145E+02 0.  0.
         12    1    1    2    0    0 -0.17492307696E+02 -0.55883528810E+01 -0.39324466780E+02  0.43400739671E+02  0.00000000000E+00 0. -1.
         11    1    3    3    0    0  0.56529037802E+00 -0.37427214702E+01  0.15309399947E+01  0.40830496867E+01  0.51100000000E-03 0. -1.
        -11    1    3    3    0    0  0.18041238271E+02  0.84828406467E+01  0.37154008969E+02  0.42164739374E+02  0.51100000000E-03 0.  1.
        -12    1    3    3    0    0 -0.11142209526E+01  0.84823370458E+00  0.63951781578E+00  0.15394712682E+01  0.00000000000E+00 0.  1.
</event>
<event>
 7    1  0.3796101E-009  0.4778727E+02  0.7816164E-02  0.1312668E+00
        -11   -1    0    0    0    0  0.00000000000E+00  0.00000000000E+00  0.45593999997E+02  0.45594000000E+02  0.51100000000E-03 0.  1.
         11   -1    0    0    0    0 -0.00000000000E+00 -0.00000000000E+00 -0.45593999997E+02  0.45594000000E+02  0.51100000000E-03 0. -1.
    9900012    2    1    2    0    0  0.34920971886E+02  0.84401684738E+01  0.24349793037E+02  0.47787272561E+02  0.20000006913E+02 0.  0.
         12    1    1    2    0    0 -0.34920971886E+02 -0.84401684738E+01 -0.24349793037E+02  0.43400727439E+02  0.00000000000E+00 0. -1.
         11    1    3    3    0    0  0.63834643830E+01 -0.21526987293E+00 -0.28219869749E+01  0.69827336620E+01  0.51100000000E-03 0. -1.
        -11    1    3    3    0    0  0.17988886551E+02  0.37419330822E+01  0.13213698885E+02  0.22631923052E+02  0.51100000000E-03 0.  1.
         12    1    3    3    0    0  0.10548620951E+02  0.49135052645E+01  0.13958081127E+02  0.18172615847E+02  0.00000000000E+00 0. -1.
</event>
<event>
 7    1  0.2455451E-009  0.4778727E+02  0.7816164E-02  0.1312668E+00
        -11   -1    0    0    0    0  0.00000000000E+00  0.00000000000E+00  0.45593999997E+02  0.45594000000E+02  0.51100000000E-03 0.  1.
         11   -1    0    0    0    0 -0.00000000000E+00 -0.00000000000E+00 -0.45593999997E+02  0.45594000000E+02  0.51100000000E-03 0. -1.
    9900012    2    1    2    0    0 -0.33826112988E+02 -0.73503691151E+01  0.26179943447E+02  0.47787270918E+02  0.19999999424E+02 0.  0.
         12    1    1    2    0    0  0.33826112988E+02  0.73503691151E+01 -0.26179943447E+02  0.43400729082E+02  0.00000000000E+00 0. -1.
         11    1    3    3    0    0 -0.16301611926E+02  0.74039650978E+00  0.45469137597E+01  0.16940046145E+02  0.51100000000E-03 0. -1.
        -11    1    3    3    0    0 -0.17672099008E+02 -0.52049747896E+01  0.20911222766E+02  0.27868873026E+02  0.51100000000E-03 0.  1.
        -12    1    3    3    0    0  0.14759794678E+00 -0.28857908353E+01  0.72180692119E+00  0.29783517472E+01  0.00000000000E+00 0.  1.
</event>
<event>
 7    1  0.2455451E-009  0.4778727E+02  0.7816164E-02  0.1312668E+00
        -11   -1    0    0    0    0  0.00000000000E+00  0.00000000000E+00  0.45593999997E+02  0.45594000000E+02  0.51100000000E-03 0.  1.
         11   -1    0    0    0    0 -0.00000000000E+00 -0.00000000000E+00 -0.45593999997E+02  0.45594000000E+02  0.51100000000E-03 0. -1.
    9900012    2    1    2    0    0 -0.69380073960E+01  0.19549301623E+02  0.38122329036E+02  0.47787272912E+02  0.20000008516E+02 0.  0.
         12    1    1    2    0    0  0.69380073960E+01 -0.19549301623E+02 -0.38122329036E+02  0.43400727088E+02  0.00000000000E+00 0. -1.
         11    1    3    3    0    0 -0.83728097743E+01  0.15202547059E+02  0.21058072398E+02  0.27288528615E+02  0.51100000000E-03 0.  1.
        -11    1    3    3    0    0 -0.10312359141E+01  0.73204645320E+01  0.98550192143E+01  0.12319661215E+02  0.51100000000E-03 0. -1.
         12    1    3    3    0    0  0.24660382925E+01 -0.29737099677E+01  0.72092374238E+01  0.81790830821E+01  0.00000000000E+00 0. -1.
</event>
<event>
 7    1  0.2455451E-009  0.4778727E+02  0.7816164E-02  0.1312668E+00
        -11   -1    0    0    0    0  0.00000000000E+00  0.00000000000E+00  0.45593999997E+02  0.45594000000E+02  0.51100000000E-03 0.  1.
         11   -1    0    0    0    0 -0.00000000000E+00 -0.00000000000E+00 -0.45593999997E+02  0.45594000000E+02  0.51100000000E-03 0. -1.
    9900012    2    1    2    0    0 -0.26405755803E+02 -0.29165997093E+02  0.18322223919E+02  0.47787271719E+02  0.20000003077E+02 0.  0.
         12    1    1    2    0    0  0.26405755803E+02  0.29165997093E+02 -0.18322223919E+02  0.43400728281E+02  0.00000000000E+00 0. -1.
         11    1    3    3    0    0 -0.19637631535E+01  0.14765290583E+01 -0.20944804445E+01  0.32285217014E+01  0.51100000000E-03 0. -1.
        -11    1    3    3    0    0 -0.21618368434E+02 -0.29417366494E+02  0.18426627220E+02  0.40893470092E+02  0.51100000000E-03 0.  1.
        -12    1    3    3    0    0 -0.28236242160E+01 -0.12251596572E+01  0.19900771437E+01  0.36652799262E+01  0.00000000000E+00 0.  1.
</event>
<event>
 7    1  0.2455451E-009  0.4778727E+02  0.7816164E-02  0.1312668E+00
        -11   -1    0    0    0    0  0.00000000000E+00  0.00000000000E+00  0.45593999997E+02  0.45594000000E+02  0.51100000000E-03 0.  1.
         11   -1    0    0    0    0 -0.00000000000E+00 -0.00000000000E+00 -0.45593999997E+02  0.45594000000E+02  0.51100000000E-03 0. -1.
    9900012    2    1    2    0    0  0.33364466832E+02 -0.23842266961E+02  0.14212051326E+02  0.47787265632E+02  0.19999975321E+02 0.  0.
         12    1    1    2    0    0 -0.33364466832E+02  0.23842266961E+02 -0.14212051326E+02  0.43400734368E+02  0.00000000000E+00 0. -1.
         11    1    3    3    0    0  0.67493141847E+01 -0.11383113546E+02  0.10423933692E+02  0.16845976072E+02  0.51100000000E-03 0. -1.
        -11    1    3    3    0    0  0.26946292219E+02 -0.12113394506E+02  0.46962004416E+01  0.29914733655E+02  0.51100000000E-03 0.  1.
         12    1    3    3    0    0 -0.33113957162E+00 -0.34575890945E+00 -0.90808280733E+00  0.10265559041E+01  0.00000000000E+00 0. -1.
</event>
<event>
 7    1  0.2455451E-009  0.4778727E+02  0.7816164E-02  0.1312668E+00
        -11   -1    0    0    0    0  0.00000000000E+00  0.00000000000E+00  0.45593999997E+02  0.45594000000E+02  0.51100000000E-03 0. -1.
         11   -1    0    0    0    0 -0.00000000000E+00 -0.00000000000E+00 -0.45593999997E+02  0.45594000000E+02  0.51100000000E-03 0.  1.
    9900012    2    1    2    0    0 -0.17414485476E+02  0.26390945293E+02 -0.29730070586E+02  0.47787269651E+02  0.19999993645E+02 0.  0.
         12    1    1    2    0    0  0.17414485476E+02 -0.26390945293E+02  0.29730070586E+02  0.43400730349E+02  0.00000000000E+00 0. -1.
         11    1    3    3    0    0  0.11183204218E+01  0.56619740513E+00 -0.40670389398E+00  0.13178119691E+01  0.51100000000E-03 0. -1.
        -11    1    3    3    0    0 -0.12652226529E+01  0.10589869133E+02 -0.17724033987E+02  0.20685441684E+02  0.51100000000E-03 0.  1.
        -12    1    3    3    0    0 -0.17267583245E+02  0.15234878754E+02 -0.11599332705E+02  0.25784015998E+02  0.00000000000E+00 0.  1.
</event>
<event>
 7    1  0.2455451E-009  0.4778726E+02  0.7816164E-02  0.1312668E+00
        -11   -1    0    0    0    0  0.00000000000E+00  0.00000000000E+00  0.45593999997E+02  0.45594000000E+02  0.51100000000E-03 0.  1.
         11   -1    0    0    0    0 -0.00000000000E+00 -0.00000000000E+00 -0.45593999997E+02  0.45594000000E+02  0.51100000000E-03 0. -1.
    9900012    2    1    2    0    0  0.12565063077E+02  0.72743096674E+01  0.40900218869E+02  0.47787259283E+02  0.19999946375E+02 0.  0.
         12    1    1    2    0    0 -0.12565063077E+02 -0.72743096674E+01 -0.40900218869E+02  0.43400740717E+02  0.00000000000E+00 0. -1.
         11    1    3    3    0    0  0.96429783341E+01  0.85070887953E+01  0.33676482640E+02  0.36048066165E+02  0.51100000000E-03 0. -1.
        -11    1    3    3    0    0 -0.58470119228E+00  0.23952350293E+01 -0.49767908207E+00  0.25152954220E+01  0.51100000000E-03 0.  1.
        -12    1    3    3    0    0  0.35067859348E+01 -0.36280141572E+01  0.77214153106E+01  0.92238976965E+01  0.00000000000E+00 0.  1.
</event>
<event>
 7    1  0.2455451E-009  0.4778727E+02  0.7816164E-02  0.1312668E+00
        -11   -1    0    0    0    0  0.00000000000E+00  0.00000000000E+00  0.45593999997E+02  0.45594000000E+02  0.51100000000E-03 0.  1.
         11   -1    0    0    0    0 -0.00000000000E+00 -0.00000000000E+00 -0.45593999997E+02  0.45594000000E+02  0.51100000000E-03 0. -1.
    9900012    2    1    2    0    0  0.14470167481E+02 -0.34519957135E+01  0.40771573924E+02  0.47787271186E+02  0.20000000647E+02 0.  0.
         12    1    1    2    0    0 -0.14470167481E+02  0.34519957135E+01 -0.40771573924E+02  0.43400728814E+02  0.00000000000E+00 0. -1.
         11    1    3    3    0    0  0.73579499033E+01 -0.12440410964E+01  0.50586274924E+01  0.90153634091E+01  0.51100000000E-03 0. -1.
        -11    1    3    3    0    0  0.87476957865E+01 -0.37393557756E+01  0.35214070174E+02  0.36476508902E+02  0.51100000000E-03 0.  1.
         12    1    3    3    0    0 -0.16354782085E+01  0.15314011585E+01  0.49887625761E+00  0.22953988758E+01  0.00000000000E+00 0. -1.
</event>
<event>
 7    1  0.2455451E-009  0.4778724E+02  0.7816164E-02  0.1312668E+00
        -11   -1    0    0    0    0  0.00000000000E+00  0.00000000000E+00  0.45593999997E+02  0.45594000000E+02  0.51100000000E-03 0.  1.
         11   -1    0    0    0    0 -0.00000000000E+00 -0.00000000000E+00 -0.45593999997E+02  0.45594000000E+02  0.51100000000E-03 0. -1.
    9900012    2    1    2    0    0 -0.21350909867E+02 -0.11442212996E+02  0.36011667025E+02  0.47787242491E+02  0.19999869815E+02 0.  0.
         12    1    1    2    0    0  0.21350909867E+02  0.11442212996E+02 -0.36011667025E+02  0.43400757509E+02  0.00000000000E+00 0. -1.
         11    1    3    3    0    0  0.20206798235E+00 -0.18199362974E+01 -0.68049878395E+00  0.19534785518E+01  0.51100000000E-03 0. -1.
        -11    1    3    3    0    0 -0.14618097873E+02  0.75346583573E+00  0.16137184467E+02  0.21786812961E+02  0.51100000000E-03 0.  1.
        -12    1    3    3    0    0 -0.69348799761E+01 -0.10375742534E+02  0.20554981342E+02  0.24046950979E+02  0.00000000000E+00 0.  1.
</event>
<event>
 7    1  0.2455451E-009  0.4778725E+02  0.7816164E-02  0.1312668E+00
        -11   -1    0    0    0    0  0.00000000000E+00  0.00000000000E+00  0.45593999997E+02  0.45594000000E+02  0.51100000000E-03 0.  1.
         11   -1    0    0    0    0 -0.00000000000E+00 -0.00000000000E+00 -0.45593999997E+02  0.45594000000E+02  0.51100000000E-03 0. -1.
    9900012    2    1    2    0    0  0.37705012031E+02  0.18281234678E+02  0.11302799596E+02  0.47787254012E+02  0.19999922344E+02 0.  0.
         12    1    1    2    0    0 -0.37705012031E+02 -0.18281234678E+02 -0.11302799596E+02  0.43400745988E+02  0.00000000000E+00 0. -1.
         11    1    3    3    0    0  0.31716165717E+01  0.73780797009E+01  0.42058591649E+00  0.80418968238E+01  0.51100000000E-03 0. -1.
        -11    1    3    3    0    0  0.17792213594E+02  0.17097365795E+01  0.10316219611E+02  0.20637597997E+02  0.51100000000E-03 0.  1.
         12    1    3    3    0    0  0.16741181865E+02  0.91934183973E+01  0.56599406858E+00  0.19107759192E+02  0.00000000000E+00 0. -1.
</event>
<event>
 7    1  0.2455451E-009  0.4778727E+02  0.7816164E-02  0.1312668E+00
        -11   -1    0    0    0    0  0.00000000000E+00  0.00000000000E+00  0.45593999997E+02  0.45594000000E+02  0.51100000000E-03 0.  1.
         11   -1    0    0    0    0 -0.00000000000E+00 -0.00000000000E+00 -0.45593999997E+02  0.45594000000E+02  0.51100000000E-03 0. -1.
    9900012    2    1    2    0    0  0.91453897258E+01 -0.35236892045E+02 -0.23629359329E+02  0.47787270323E+02  0.19999996712E+02 0.  0.
         12    1    1    2    0    0 -0.91453897258E+01  0.35236892045E+02  0.23629359329E+02  0.43400729677E+02  0.00000000000E+00 0. -1.
         11    1    3    3    0    0 -0.34549081970E+01 -0.87551653772E+01 -0.48570322168E+00  0.94247132218E+01  0.51100000000E-03 0. -1.
        -11    1    3    3    0    0  0.36364619848E+01 -0.14869693034E+02 -0.15642853261E+02  0.21886765067E+02  0.51100000000E-03 0.  1.
         12    1    3    3    0    0  0.89638359380E+01 -0.11612033633E+02 -0.75008028458E+01  0.16475792034E+02  0.00000000000E+00 0. -1.
</event>
<event>
 7    1  0.2455451E-009  0.4778727E+02  0.7816164E-02  0.1312668E+00
        -11   -1    0    0    0    0  0.00000000000E+00  0.00000000000E+00  0.45593999997E+02  0.45594000000E+02  0.51100000000E-03 0.  1.
         11   -1    0    0    0    0 -0.00000000000E+00 -0.00000000000E+00 -0.45593999997E+02  0.45594000000E+02  0.51100000000E-03 0. -1.
    9900012    2    1    2    0    0  0.61936310607E+01  0.42457834849E+02 -0.65264661460E+01  0.47787267678E+02  0.19999984650E+02 0.  0.
         12    1    1    2    0    0 -0.61936310607E+01 -0.42457834849E+02  0.65264661460E+01  0.43400732322E+02  0.00000000000E+00 0. -1.
         11    1    3    3    0    0 -0.43253975950E+01  0.47579363637E+01 -0.36234072993E+01  0.73807928784E+01  0.51100000000E-03 0. -1.
        -11    1    3    3    0    0  0.83211743997E+01  0.22278531340E+02 -0.59940365781E+01  0.24525565780E+02  0.51100000000E-03 0.  1.
         12    1    3    3    0    0  0.21978542560E+01  0.15421367145E+02  0.30909777315E+01  0.15880909020E+02  0.00000000000E+00 0. -1.
</event>
<event>
 7    1  0.2455451E-009  0.4778725E+02  0.7816164E-02  0.1312668E+00
        -11   -1    0    0    0    0  0.00000000000E+00  0.00000000000E+00  0.45593999997E+02  0.45594000000E+02  0.51100000000E-03 0.  1.
         11   -1    0    0    0    0 -0.00000000000E+00 -0.00000000000E+00 -0.45593999997E+02  0.45594000000E+02  0.51100000000E-03 0. -1.
    9900012    2    1    2    0    0  0.82467462547E+00  0.15651204381E+02  0.40472023313E+02  0.47787251645E+02  0.19999911548E+02 0.  0.
         12    1    1    2    0    0 -0.82467462547E+00 -0.15651204381E+02 -0.40472023313E+02  0.43400748355E+02  0.00000000000E+00 0. -1.
         11    1    3    3    0    0 -0.59322212890E+01  0.91567911118E+01  0.73092650116E+01  0.13132533197E+02  0.51100000000E-03 0. -1.
        -11    1    3    3    0    0  0.42288130228E+01  0.51496335026E+01  0.17366056048E+02  0.18600577617E+02  0.51100000000E-03 0.  1.
         12    1    3    3    0    0  0.25280828917E+01  0.13447797663E+01  0.15796702253E+02  0.16054140830E+02  0.00000000000E+00 0. -1.
</event>
<event>
 7    1  0.2455451E-009  0.4778727E+02  0.7816164E-02  0.1312668E+00
        -11   -1    0    0    0    0  0.00000000000E+00  0.00000000000E+00  0.45593999997E+02  0.45594000000E+02  0.51100000000E-03 0. -1.
         11   -1    0    0    0    0 -0.00000000000E+00 -0.00000000000E+00 -0.45593999997E+02  0.45594000000E+02  0.51100000000E-03 0.  1.
    9900012    2    1    2    0    0  0.28832312475E+02 -0.38506765551E+01 -0.32210143234E+02  0.47787270977E+02  0.19999999691E+02 0.  0.
         12    1    1    2    0    0 -0.28832312475E+02  0.38506765551E+01  0.32210143234E+02  0.43400729023E+02  0.00000000000E+00 0. -1.
         11    1    3    3    0    0  0.19056544005E+02 -0.11518995947E+01 -0.11294743761E+02  0.22182199597E+02  0.51100000000E-03 0.  1.
        -11    1    3    3    0    0 -0.87560501657E+00 -0.22767586635E+01 -0.10210968731E+02  0.10498294949E+02  0.51100000000E-03 0. -1.
         12    1    3    3    0    0  0.10651373487E+02 -0.42201829681E+00 -0.10704430743E+02  0.15106776431E+02  0.00000000000E+00 0. -1.
</event>
<event>
 7    1  0.2455451E-009  0.4778727E+02  0.7816164E-02  0.1312668E+00
        -11   -1    0    0    0    0  0.00000000000E+00  0.00000000000E+00  0.45593999997E+02  0.45594000000E+02  0.51100000000E-03 0. -1.
         11   -1    0    0    0    0 -0.00000000000E+00 -0.00000000000E+00 -0.45593999997E+02  0.45594000000E+02  0.51100000000E-03 0.  1.
    9900012    2    1    2    0    0  0.13578757777E+02  0.12097135662E+02 -0.39406850106E+02  0.47787272019E+02  0.20000004443E+02 0.  0.
         12    1    1    2    0    0 -0.13578757777E+02 -0.12097135662E+02  0.39406850106E+02  0.43400727981E+02  0.00000000000E+00 0. -1.
         11    1    3    3    0    0 -0.52769025059E+00 -0.18089357916E+01 -0.14771269135E+02  0.14890973703E+02  0.51100000000E-03 0. -1.
        -11    1    3    3    0    0  0.37667862812E+01 -0.31607121002E+00 -0.72106343629E+01  0.81413652464E+01  0.51100000000E-03 0.  1.
         12    1    3    3    0    0  0.10339661746E+02  0.14222142663E+02 -0.17424946608E+02  0.24754933069E+02  0.00000000000E+00 0. -1.
</event>
<event>
 7    1  0.2455451E-009  0.4778727E+02  0.7816164E-02  0.1312668E+00
        -11   -1    0    0    0    0  0.00000000000E+00  0.00000000000E+00  0.45593999997E+02  0.45594000000E+02  0.51100000000E-03 0.  1.
         11   -1    0    0    0    0 -0.00000000000E+00 -0.00000000000E+00 -0.45593999997E+02  0.45594000000E+02  0.51100000000E-03 0. -1.
    9900012    2    1    2    0    0 -0.32996101099E+02  0.23245928534E+02  0.15953291025E+02  0.47787269872E+02  0.19999994653E+02 0.  0.
         12    1    1    2    0    0  0.32996101099E+02 -0.23245928534E+02 -0.15953291025E+02  0.43400730128E+02  0.00000000000E+00 0. -1.
         11    1    3    3    0    0 -0.27008952518E+01  0.89671509197E+00 -0.37804892758E+01  0.47319163711E+01  0.51100000000E-03 0. -1.
        -11    1    3    3    0    0 -0.17553159504E+02  0.14071929203E+02  0.15370593207E+02  0.27246793130E+02  0.51100000000E-03 0.  1.
        -12    1    3    3    0    0 -0.12742046343E+02  0.82772842395E+01  0.43631870940E+01  0.15808560371E+02  0.00000000000E+00 0.  1.
</event>
<event>
 7    1  0.2455451E-009  0.4778726E+02  0.7816164E-02  0.1312668E+00
        -11   -1    0    0    0    0  0.00000000000E+00  0.00000000000E+00  0.45593999997E+02  0.45594000000E+02  0.51100000000E-03 0.  1.
         11   -1    0    0    0    0 -0.00000000000E+00 -0.00000000000E+00 -0.45593999997E+02  0.45594000000E+02  0.51100000000E-03 0. -1.
    9900012    2    1    2    0    0  0.10572312601E+02  0.39092622564E+02  0.15608254629E+02  0.47787256398E+02  0.19999933220E+02 0.  0.
         12    1    1    2    0    0 -0.10572312601E+02 -0.39092622564E+02 -0.15608254629E+02  0.43400743602E+02  0.00000000000E+00 0. -1.
         11    1    3    3    0    0 -0.15492506885E+01  0.20091773865E+02  0.45921428882E+01  0.20668026788E+02  0.51100000000E-03 0. -1.
        -11    1    3    3    0    0  0.10677317788E+02  0.19413926503E+02  0.12120352538E+02  0.25254872863E+02  0.51100000000E-03 0.  1.
         12    1    3    3    0    0  0.14442455012E+01 -0.41307780485E+00 -0.11042407967E+01  0.18643567463E+01  0.00000000000E+00 0. -1.
</event>
<event>
 7    1  0.2455451E-009  0.4778727E+02  0.7816164E-02  0.1312668E+00
        -11   -1    0    0    0    0  0.00000000000E+00  0.00000000000E+00  0.45593999997E+02  0.45594000000E+02  0.51100000000E-03 0. -1.
         11   -1    0    0    0    0 -0.00000000000E+00 -0.00000000000E+00 -0.45593999997E+02  0.45594000000E+02  0.51100000000E-03 0.  1.
    9900012    2    1    2    0    0  0.57863889739E+00 -0.10592635669E+01 -0.43383943206E+02  0.47787269702E+02  0.19999993880E+02 0.  0.
         12    1    1    2    0    0 -0.57863889739E+00  0.10592635669E+01  0.43383943206E+02  0.43400730298E+02  0.00000000000E+00 0. -1.
         11    1    3    3    0    0  0.36513309710E+01  0.40933780207E+01 -0.28545208759E+02  0.29067454392E+02  0.51100000000E-03 0. -1.
        -11    1    3    3    0    0 -0.18869094781E+01 -0.46193170410E+01 -0.16131919130E+02  0.16886009960E+02  0.51100000000E-03 0.  1.
         12    1    3    3    0    0 -0.11857825955E+01 -0.53332454662E+00  0.12931846831E+01  0.18338053496E+01  0.00000000000E+00 0. -1.
</event>
<event>
 7    1  0.2455451E-009  0.4778727E+02  0.7816164E-02  0.1312668E+00
        -11   -1    0    0    0    0  0.00000000000E+00  0.00000000000E+00  0.45593999997E+02  0.45594000000E+02  0.51100000000E-03 0.  1.
         11   -1    0    0    0    0 -0.00000000000E+00 -0.00000000000E+00 -0.45593999997E+02  0.45594000000E+02  0.51100000000E-03 0. -1.
    9900012    2    1    2    0    0 -0.84080220434E+01  0.33161832996E+02  0.26706203235E+02  0.47787270818E+02  0.19999998965E+02 0.  0.
         12    1    1    2    0    0  0.84080220434E+01 -0.33161832996E+02 -0.26706203235E+02  0.43400729182E+02  0.00000000000E+00 0. -1.
         11    1    3    3    0    0 -0.51814628591E+01  0.18939107109E+01  0.72429199972E+01  0.91046331880E+01  0.51100000000E-03 0. -1.
        -11    1    3    3    0    0  0.39407214769E+01  0.14541116696E+02  0.10741645307E+02  0.18502872876E+02  0.51100000000E-03 0.  1.
        -12    1    3    3    0    0 -0.71672806612E+01  0.16726805589E+02  0.87216379313E+01  0.20179764753E+02  0.00000000000E+00 0.  1.
</event>
<event>
 7    1  0.2455451E-009  0.4778727E+02  0.7816164E-02  0.1312668E+00
        -11   -1    0    0    0    0  0.00000000000E+00  0.00000000000E+00  0.45593999997E+02  0.45594000000E+02  0.51100000000E-03 0.  1.
         11   -1    0    0    0    0 -0.00000000000E+00 -0.00000000000E+00 -0.45593999997E+02  0.45594000000E+02  0.51100000000E-03 0. -1.
    9900012    2    1    2    0    0  0.25553461079E+02  0.26052513934E+02  0.23492767313E+02  0.47787274529E+02  0.20000015888E+02 0.  0.
         12    1    1    2    0    0 -0.25553461079E+02 -0.26052513934E+02 -0.23492767313E+02  0.43400725471E+02  0.00000000000E+00 0. -1.
         11    1    3    3    0    0  0.16428615511E+02  0.25860148541E+02  0.16968867083E+02  0.35022694649E+02  0.51100000000E-03 0. -1.
        -11    1    3    3    0    0  0.60373407764E+01 -0.14450139271E+01  0.10884645179E+01  0.63025633014E+01  0.51100000000E-03 0.  1.
         12    1    3    3    0    0  0.30875047919E+01  0.16373793196E+01  0.54354357124E+01  0.64620165784E+01  0.00000000000E+00 0. -1.
</event>
<event>
 7    1  0.2455451E-009  0.4778726E+02  0.7816164E-02  0.1312668E+00
        -11   -1    0    0    0    0  0.00000000000E+00  0.00000000000E+00  0.45593999997E+02  0.45594000000E+02  0.51100000000E-03 0.  1.
         11   -1    0    0    0    0 -0.00000000000E+00 -0.00000000000E+00 -0.45593999997E+02  0.45594000000E+02  0.51100000000E-03 0. -1.
    9900012    2    1    2    0    0  0.40709591267E+01 -0.33884788613E+02  0.26811796060E+02  0.47787262500E+02  0.19999961044E+02 0.  0.
         12    1    1    2    0    0 -0.40709591267E+01  0.33884788613E+02 -0.26811796060E+02  0.43400737500E+02  0.00000000000E+00 0. -1.
         11    1    3    3    0    0 -0.46579898494E+01 -0.28804930169E+01  0.21919157034E+01  0.58990341725E+01  0.51100000000E-03 0. -1.
        -11    1    3    3    0    0  0.86218392590E+01 -0.11542302367E+02  0.97625056435E+01  0.17403085153E+02  0.51100000000E-03 0.  1.
         12    1    3    3    0    0  0.10710971708E+00 -0.19461993229E+02  0.14857374713E+02  0.24485143175E+02  0.00000000000E+00 0. -1.
</event>
<event>
 7    1  0.2455451E-009  0.4778730E+02  0.7816164E-02  0.1312668E+00
        -11   -1    0    0    0    0  0.00000000000E+00  0.00000000000E+00  0.45593999997E+02  0.45594000000E+02  0.51100000000E-03 0.  1.
         11   -1    0    0    0    0 -0.00000000000E+00 -0.00000000000E+00 -0.45593999997E+02  0.45594000000E+02  0.51100000000E-03 0. -1.
    9900012    2    1    2    0    0  0.13876438335E+02  0.20303474997E+02  0.35760795511E+02  0.47787295704E+02  0.20000112431E+02 0.  0.
         12    1    1    2    0    0 -0.13876438335E+02 -0.20303474997E+02 -0.35760795511E+02  0.43400704296E+02  0.00000000000E+00 0. -1.
         11    1    3    3    0    0  0.45441681602E+01  0.14681411502E+02  0.25412785339E+02  0.29698534761E+02  0.51100000000E-03 0. -1.
        -11    1    3    3    0    0  0.10277928461E+02  0.19599755403E+01  0.51542156217E+01  0.11663758250E+02  0.51100000000E-03 0.  1.
        -12    1    3    3    0    0 -0.94565828657E+00  0.36620879543E+01  0.51937945504E+01  0.64250026935E+01  0.00000000000E+00 0.  1.
</event>
<event>
 7    1  0.2455451E-009  0.4778727E+02  0.7816164E-02  0.1312668E+00
        -11   -1    0    0    0    0  0.00000000000E+00  0.00000000000E+00  0.45593999997E+02  0.45594000000E+02  0.51100000000E-03 0.  1.
         11   -1    0    0    0    0 -0.00000000000E+00 -0.00000000000E+00 -0.45593999997E+02  0.45594000000E+02  0.51100000000E-03 0. -1.
    9900012    2    1    2    0    0 -0.10767882444E+02 -0.25223578830E+02  0.33636988668E+02  0.47787271574E+02  0.20000002413E+02 0.  0.
         12    1    1    2    0    0  0.10767882444E+02  0.25223578830E+02 -0.33636988668E+02  0.43400728426E+02  0.00000000000E+00 0. -1.
         11    1    3    3    0    0 -0.73096321435E+01 -0.40285590766E+01  0.98007739675E+01  0.12873040858E+02  0.51100000000E-03 0. -1.
        -11    1    3    3    0    0  0.39892649112E+01 -0.69220525541E+01  0.13791538569E+02  0.15938493732E+02  0.51100000000E-03 0.  1.
        -12    1    3    3    0    0 -0.74475152119E+01 -0.14272967199E+02  0.10044676131E+02  0.18975736984E+02  0.00000000000E+00 0.  1.
</event>
<event>
 7    1  0.2455451E-009  0.4778727E+02  0.7816164E-02  0.1312668E+00
        -11   -1    0    0    0    0  0.00000000000E+00  0.00000000000E+00  0.45593999997E+02  0.45594000000E+02  0.51100000000E-03 0. -1.
         11   -1    0    0    0    0 -0.00000000000E+00 -0.00000000000E+00 -0.45593999997E+02  0.45594000000E+02  0.51100000000E-03 0.  1.
    9900012    2    1    2    0    0 -0.42247577085E+02 -0.94889675728E+01  0.29537742821E+01  0.47787273535E+02  0.20000011357E+02 0.  0.
         12    1    1    2    0    0  0.42247577085E+02  0.94889675728E+01 -0.29537742821E+01  0.43400726465E+02  0.00000000000E+00 0. -1.
         11    1    3    3    0    0 -0.43970878211E+01  0.92143418973E+00 -0.36191871260E+01  0.57690500073E+01  0.51100000000E-03 0. -1.
        -11    1    3    3    0    0 -0.37625566479E+02 -0.72401990577E+01  0.62726952800E+01  0.38825899109E+02  0.51100000000E-03 0.  1.
        -12    1    3    3    0    0 -0.22492278459E+00 -0.31702027048E+01  0.30026612811E+00  0.31923244190E+01  0.00000000000E+00 0.  1.
</event>
<event>
 7    1  0.2455451E-009  0.4778727E+02  0.7816164E-02  0.1312668E+00
        -11   -1    0    0    0    0  0.00000000000E+00  0.00000000000E+00  0.45593999997E+02  0.45594000000E+02  0.51100000000E-03 0. -1.
         11   -1    0    0    0    0 -0.00000000000E+00 -0.00000000000E+00 -0.45593999997E+02  0.45594000000E+02  0.51100000000E-03 0.  1.
    9900012    2    1    2    0    0 -0.58541973202E+01 -0.40906581778E+02 -0.13266622134E+02  0.47787270492E+02  0.19999997479E+02 0.  0.
         12    1    1    2    0    0  0.58541973202E+01  0.40906581778E+02  0.13266622134E+02  0.43400729508E+02  0.00000000000E+00 0. -1.
         11    1    3    3    0    0 -0.75255184640E+01 -0.17111014750E+02 -0.11630720310E+02  0.22015765013E+02  0.51100000000E-03 0. -1.
        -11    1    3    3    0    0  0.38148028688E+01 -0.23168829585E+02 -0.16438918764E+01  0.23538261746E+02  0.51100000000E-03 0.  1.
        -12    1    3    3    0    0 -0.21434817250E+01 -0.62673744332E+00  0.79900522889E-02  0.22332437326E+01  0.00000000000E+00 0.  1.
</event>
<event>
 7    1  0.2455451E-009  0.4778727E+02  0.7816164E-02  0.1312668E+00
        -11   -1    0    0    0    0  0.00000000000E+00  0.00000000000E+00  0.45593999997E+02  0.45594000000E+02  0.51100000000E-03 0.  1.
         11   -1    0    0    0    0 -0.00000000000E+00 -0.00000000000E+00 -0.45593999997E+02  0.45594000000E+02  0.51100000000E-03 0. -1.
    9900012    2    1    2    0    0 -0.93577042584E+01  0.27179642703E+02  0.32516509279E+02  0.47787274405E+02  0.20000015322E+02 0.  0.
         12    1    1    2    0    0  0.93577042584E+01 -0.27179642703E+02 -0.32516509279E+02  0.43400725595E+02  0.00000000000E+00 0. -1.
         11    1    3    3    0    0 -0.10303852580E+02  0.87151064633E+01  0.14502403588E+02  0.19810153174E+02  0.51100000000E-03 0. -1.
        -11    1    3    3    0    0  0.39066722344E+01  0.12256885041E+02  0.61388059153E+01  0.14254061077E+02  0.51100000000E-03 0.  1.
         12    1    3    3    0    0 -0.29605239125E+01  0.62076511993E+01  0.11875299776E+02  0.13723060155E+02  0.00000000000E+00 0. -1.
</event>
<event>
 7    1  0.2455451E-009  0.4778732E+02  0.7816164E-02  0.1312668E+00
        -11   -1    0    0    0    0  0.00000000000E+00  0.00000000000E+00  0.45593999997E+02  0.45594000000E+02  0.51100000000E-03 0.  1.
         11   -1    0    0    0    0 -0.00000000000E+00 -0.00000000000E+00 -0.45593999997E+02  0.45594000000E+02  0.51100000000E-03 0. -1.
    9900012    2    1    2    0    0  0.60054505209E+01 -0.27472434698E+02  0.33057813320E+02  0.47787318834E+02  0.20000217890E+02 0.  0.
         12    1    1    2    0    0 -0.60054505209E+01  0.27472434698E+02 -0.33057813320E+02  0.43400681166E+02  0.00000000000E+00 0. -1.
         11    1    3    3    0    0 -0.15039552782E+01 -0.21972677359E+01  0.17155912080E+00  0.26682015994E+01  0.51100000000E-03 0. -1.
        -11    1    3    3    0    0 -0.34271570575E+01 -0.91970555210E+01  0.18459677756E+02  0.20906719945E+02  0.51100000000E-03 0.  1.
        -12    1    3    3    0    0  0.10936562857E+02 -0.16078111441E+02  0.14426576444E+02  0.24212397289E+02  0.00000000000E+00 0.  1.
</event>
<event>
 7    1  0.2455451E-009  0.4778728E+02  0.7816164E-02  0.1312668E+00
        -11   -1    0    0    0    0  0.00000000000E+00  0.00000000000E+00  0.45593999997E+02  0.45594000000E+02  0.51100000000E-03 0.  1.
         11   -1    0    0    0    0 -0.00000000000E+00 -0.00000000000E+00 -0.45593999997E+02  0.45594000000E+02  0.51100000000E-03 0. -1.
    9900012    2    1    2    0    0  0.10581189013E+02 -0.37599215605E+02  0.18919837703E+02  0.47787276115E+02  0.20000023119E+02 0.  0.
         12    1    1    2    0    0 -0.10581189013E+02  0.37599215605E+02 -0.18919837703E+02  0.43400723885E+02  0.00000000000E+00 0. -1.
         11    1    3    3    0    0 -0.13509305189E+01 -0.68898106390E+00 -0.11603317283E+00  0.15209116120E+01  0.51100000000E-03 0. -1.
        -11    1    3    3    0    0  0.56135227244E+01 -0.14168764656E+01  0.73553518965E+00  0.58361107402E+01  0.51100000000E-03 0.  1.
        -12    1    3    3    0    0  0.63185968072E+01 -0.35493358075E+02  0.18300335686E+02  0.40430253763E+02  0.00000000000E+00 0.  1.
</event>
<event>
 7    1  0.2455451E-009  0.4778727E+02  0.7816164E-02  0.1312668E+00
        -11   -1    0    0    0    0  0.00000000000E+00  0.00000000000E+00  0.45593999997E+02  0.45594000000E+02  0.51100000000E-03 0. -1.
         11   -1    0    0    0    0 -0.00000000000E+00 -0.00000000000E+00 -0.45593999997E+02  0.45594000000E+02  0.51100000000E-03 0.  1.
    9900012    2    1    2    0    0 -0.83374794970E+01  0.27409275891E+02 -0.32601243069E+02  0.47787273983E+02  0.20000013396E+02 0.  0.
         12    1    1    2    0    0  0.83374794970E+01 -0.27409275891E+02  0.32601243069E+02  0.43400726017E+02  0.00000000000E+00 0. -1.
         11    1    3    3    0    0  0.11581522784E+01  0.15497367008E+02 -0.26177477806E+02  0.30442898112E+02  0.51100000000E-03 0. -1.
        -11    1    3    3    0    0 -0.64344756301E+01  0.62132559600E+01 -0.61781766602E+01  0.10870919619E+02  0.51100000000E-03 0.  1.
         12    1    3    3    0    0 -0.30611561453E+01  0.56986529226E+01 -0.24558860209E+00  0.64734562515E+01  0.00000000000E+00 0. -1.
</event>
<event>
 7    1  0.2455451E-009  0.4778728E+02  0.7816164E-02  0.1312668E+00
        -11   -1    0    0    0    0  0.00000000000E+00  0.00000000000E+00  0.45593999997E+02  0.45594000000E+02  0.51100000000E-03 0.  1.
         11   -1    0    0    0    0 -0.00000000000E+00 -0.00000000000E+00 -0.45593999997E+02  0.45594000000E+02  0.51100000000E-03 0. -1.
    9900012    2    1    2    0    0  0.67816834782E+01 -0.33822143068E+02  0.26338076951E+02  0.47787275467E+02  0.20000020163E+02 0.  0.
         12    1    1    2    0    0 -0.67816834782E+01  0.33822143068E+02 -0.26338076951E+02  0.43400724533E+02  0.00000000000E+00 0. -1.
         11    1    3    3    0    0  0.15864467884E+01  0.17185531324E+01  0.51358252295E+00  0.23945783659E+01  0.51100000000E-03 0. -1.
        -11    1    3    3    0    0  0.68192905098E+01 -0.28719550617E+02  0.24260744216E+02  0.38208624954E+02  0.51100000000E-03 0.  1.
         12    1    3    3    0    0 -0.16240538200E+01 -0.68211455838E+01  0.15637502121E+01  0.71840721468E+01  0.00000000000E+00 0. -1.
</event>
<event>
 7    1  0.2455451E-009  0.4778727E+02  0.7816164E-02  0.1312668E+00
        -11   -1    0    0    0    0  0.00000000000E+00  0.00000000000E+00  0.45593999997E+02  0.45594000000E+02  0.51100000000E-03 0.  1.
         11   -1    0    0    0    0 -0.00000000000E+00 -0.00000000000E+00 -0.45593999997E+02  0.45594000000E+02  0.51100000000E-03 0. -1.
    9900012    2    1    2    0    0 -0.14394582377E+02 -0.30106063168E+02  0.27749670310E+02  0.47787271393E+02  0.20000001589E+02 0.  0.
         12    1    1    2    0    0  0.14394582377E+02  0.30106063168E+02 -0.27749670310E+02  0.43400728607E+02  0.00000000000E+00 0. -1.
         11    1    3    3    0    0 -0.11114640882E+02 -0.12018928668E+02  0.97052265565E+01  0.19031061742E+02  0.51100000000E-03 0. -1.
        -11    1    3    3    0    0  0.43026279018E+01 -0.38716084756E+01  0.76099206607E+01  0.95610068389E+01  0.51100000000E-03 0.  1.
        -12    1    3    3    0    0 -0.75825693967E+01 -0.14215526025E+02  0.10434523093E+02  0.19195202812E+02  0.00000000000E+00 0.  1.
</event>
<event>
 7    1  0.2455451E-009  0.4778728E+02  0.7816164E-02  0.1312668E+00
        -11   -1    0    0    0    0  0.00000000000E+00  0.00000000000E+00  0.45593999997E+02  0.45594000000E+02  0.51100000000E-03 0. -1.
         11   -1    0    0    0    0 -0.00000000000E+00 -0.00000000000E+00 -0.45593999997E+02  0.45594000000E+02  0.51100000000E-03 0.  1.
    9900012    2    1    2    0    0 -0.24592048788E+02 -0.18236009985E+02 -0.30762020303E+02  0.47787276309E+02  0.20000024005E+02 0.  0.
         12    1    1    2    0    0  0.24592048788E+02  0.18236009985E+02  0.30762020303E+02  0.43400723691E+02  0.00000000000E+00 0. -1.
         11    1    3    3    0    0 -0.24592617810E+02 -0.12683693891E+02 -0.20618207725E+02  0.34507730026E+02  0.51100000000E-03 0. -1.
        -11    1    3    3    0    0  0.14676265029E+01 -0.23631002204E+01 -0.92469788937E+01  0.96563341453E+01  0.51100000000E-03 0.  1.
        -12    1    3    3    0    0 -0.14670574805E+01 -0.31892158740E+01 -0.89683368417E+00  0.36232121383E+01  0.00000000000E+00 0.  1.
</event>
<event>
 7    1  0.2455451E-009  0.4778727E+02  0.7816164E-02  0.1312668E+00
        -11   -1    0    0    0    0  0.00000000000E+00  0.00000000000E+00  0.45593999997E+02  0.45594000000E+02  0.51100000000E-03 0.  1.
         11   -1    0    0    0    0 -0.00000000000E+00 -0.00000000000E+00 -0.45593999997E+02  0.45594000000E+02  0.51100000000E-03 0. -1.
    9900012    2    1    2    0    0 -0.34924445586E+02  0.21969002358E+02  0.13463633877E+02  0.47787269577E+02  0.19999993308E+02 0.  0.
         12    1    1    2    0    0  0.34924445586E+02 -0.21969002358E+02 -0.13463633877E+02  0.43400730423E+02  0.00000000000E+00 0. -1.
         11    1    3    3    0    0  0.12798729820E+01  0.38157407687E+00 -0.19553694430E-01  0.13356856795E+01  0.51100000000E-03 0. -1.
        -11    1    3    3    0    0 -0.36496198880E+02  0.20594373379E+02  0.15090237913E+02  0.44540049709E+02  0.51100000000E-03 0.  1.
        -12    1    3    3    0    0  0.29188031129E+00  0.99305490186E+00 -0.16070503412E+01  0.19115341884E+01  0.00000000000E+00 0.  1.
</event>
<event>
 7    1  0.2455451E-009  0.4778727E+02  0.7816164E-02  0.1312668E+00
        -11   -1    0    0    0    0  0.00000000000E+00  0.00000000000E+00  0.45593999997E+02  0.45594000000E+02  0.51100000000E-03 0.  1.
         11   -1    0    0    0    0 -0.00000000000E+00 -0.00000000000E+00 -0.45593999997E+02  0.45594000000E+02  0.51100000000E-03 0. -1.
    9900012    2    1    2    0    0 -0.17507318790E+02 -0.20673739355E+02  0.33907424710E+02  0.47787272350E+02  0.20000005951E+02 0.  0.
         12    1    1    2    0    0  0.17507318790E+02  0.20673739355E+02 -0.33907424710E+02  0.43400727650E+02  0.00000000000E+00 0. -1.
         11    1    3    3    0    0 -0.72876064655E+01  0.39805654132E+00  0.40810345315E+01  0.83619674787E+01  0.51100000000E-03 0. -1.
        -11    1    3    3    0    0 -0.87037910404E+01 -0.66620101898E+01  0.97725583724E+01  0.14684728654E+02  0.51100000000E-03 0.  1.
         12    1    3    3    0    0 -0.15159212840E+01 -0.14409785706E+02  0.20053831806E+02  0.24740576217E+02  0.00000000000E+00 0. -1.
</event>
<event>
 7    1  0.2455451E-009  0.4778727E+02  0.7816164E-02  0.1312668E+00
        -11   -1    0    0    0    0  0.00000000000E+00  0.00000000000E+00  0.45593999997E+02  0.45594000000E+02  0.51100000000E-03 0.  1.
         11   -1    0    0    0    0 -0.00000000000E+00 -0.00000000000E+00 -0.45593999997E+02  0.45594000000E+02  0.51100000000E-03 0. -1.
    9900012    2    1    2    0    0  0.12188614348E+02  0.15727625806E+01  0.41624362682E+02  0.47787268779E+02  0.19999989669E+02 0.  0.
         12    1    1    2    0    0 -0.12188614348E+02 -0.15727625806E+01 -0.41624362682E+02  0.43400731221E+02  0.00000000000E+00 0. -1.
         11    1    3    3    0    0  0.21415367416E+01 -0.38962499797E+01  0.24971388841E+00  0.44530103085E+01  0.51100000000E-03 0. -1.
        -11    1    3    3    0    0  0.34395799910E+01  0.27740237311E+01  0.26143818473E+02  0.26514621679E+02  0.51100000000E-03 0.  1.
        -12    1    3    3    0    0  0.66074976149E+01  0.26949888292E+01  0.15230830321E+02  0.16819636791E+02  0.00000000000E+00 0.  1.
</event>
<event>
 7    1  0.2455451E-009  0.4778727E+02  0.7816164E-02  0.1312668E+00
        -11   -1    0    0    0    0  0.00000000000E+00  0.00000000000E+00  0.45593999997E+02  0.45594000000E+02  0.51100000000E-03 0.  1.
         11   -1    0    0    0    0 -0.00000000000E+00 -0.00000000000E+00 -0.45593999997E+02  0.45594000000E+02  0.51100000000E-03 0. -1.
    9900012    2    1    2    0    0  0.29352978663E+02  0.90094788743E+01  0.30673359936E+02  0.47787273327E+02  0.20000010407E+02 0.  0.
         12    1    1    2    0    0 -0.29352978663E+02 -0.90094788743E+01 -0.30673359936E+02  0.43400726673E+02  0.00000000000E+00 0. -1.
         11    1    3    3    0    0  0.12302049449E+02  0.88624259676E+01  0.55134244960E+01  0.16133222388E+02  0.51100000000E-03 0. -1.
        -11    1    3    3    0    0  0.10210179919E+02  0.44335719400E+01  0.14255428172E+02  0.18086502336E+02  0.51100000000E-03 0.  1.
         12    1    3    3    0    0  0.68407492949E+01 -0.42865190333E+01  0.10904507269E+02  0.13567548604E+02  0.00000000000E+00 0. -1.
</event>
<event>
 7    1  0.2455451E-009  0.4778727E+02  0.7816164E-02  0.1312668E+00
        -11   -1    0    0    0    0  0.00000000000E+00  0.00000000000E+00  0.45593999997E+02  0.45594000000E+02  0.51100000000E-03 0.  1.
         11   -1    0    0    0    0 -0.00000000000E+00 -0.00000000000E+00 -0.45593999997E+02  0.45594000000E+02  0.51100000000E-03 0. -1.
    9900012    2    1    2    0    0  0.25324642505E+02  0.34414450133E+02  0.76112838035E+01  0.47787268012E+02  0.19999986172E+02 0.  0.
         12    1    1    2    0    0 -0.25324642505E+02 -0.34414450133E+02 -0.76112838035E+01  0.43400731988E+02  0.00000000000E+00 0. -1.
         11    1    3    3    0    0  0.18397669406E+02  0.25667331842E+02 -0.19151242459E+01  0.31637854931E+02  0.51100000000E-03 0. -1.
        -11    1    3    3    0    0  0.41506189015E+01  0.22804817646E+01  0.58666663439E+00  0.47720448808E+01  0.51100000000E-03 0.  1.
         12    1    3    3    0    0  0.27763541979E+01  0.64666365264E+01  0.89397414150E+01  0.11377368200E+02  0.00000000000E+00 0. -1.
</event>
<event>
 7    1  0.2455451E-009  0.4778727E+02  0.7816164E-02  0.1312668E+00
        -11   -1    0    0    0    0  0.00000000000E+00  0.00000000000E+00  0.45593999997E+02  0.45594000000E+02  0.51100000000E-03 0.  1.
         11   -1    0    0    0    0 -0.00000000000E+00 -0.00000000000E+00 -0.45593999997E+02  0.45594000000E+02  0.51100000000E-03 0. -1.
    9900012    2    1    2    0    0  0.15474728855E+02 -0.39711468336E+02 -0.81948308751E+01  0.47787271854E+02  0.20000003692E+02 0.  0.
         12    1    1    2    0    0 -0.15474728855E+02  0.39711468336E+02  0.81948308751E+01  0.43400728146E+02  0.00000000000E+00 0. -1.
         11    1    3    3    0    0  0.60797884200E+01 -0.10592221370E+02  0.60338077762E+01  0.13622254488E+02  0.51100000000E-03 0. -1.
        -11    1    3    3    0    0  0.72174930444E+01 -0.14128553732E+02 -0.63311430437E+01  0.17081908819E+02  0.51100000000E-03 0.  1.
         12    1    3    3    0    0  0.21774473903E+01 -0.14990693234E+02 -0.78974956076E+01  0.17083108547E+02  0.00000000000E+00 0. -1.
</event>
<event>
 7    1  0.2455451E-009  0.4778727E+02  0.7816164E-02  0.1312668E+00
        -11   -1    0    0    0    0  0.00000000000E+00  0.00000000000E+00  0.45593999997E+02  0.45594000000E+02  0.51100000000E-03 0.  1.
         11   -1    0    0    0    0 -0.00000000000E+00 -0.00000000000E+00 -0.45593999997E+02  0.45594000000E+02  0.51100000000E-03 0. -1.
    9900012    2    1    2    0    0  0.52628223320E+01 -0.75488633899E+01  0.42413917101E+02  0.47787274185E+02  0.20000014320E+02 0.  0.
         12    1    1    2    0    0 -0.52628223320E+01  0.75488633899E+01 -0.42413917101E+02  0.43400725815E+02  0.00000000000E+00 0. -1.
         11    1    3    3    0    0  0.51822499124E+01 -0.85300430572E+01  0.16957314433E+02  0.19676581556E+02  0.51100000000E-03 0. -1.
        -11    1    3    3    0    0 -0.39616610852E+01 -0.37447864340E+00  0.22671604854E+02  0.23018181069E+02  0.51100000000E-03 0.  1.
        -12    1    3    3    0    0  0.40422335048E+01  0.13556583107E+01  0.27849978151E+01  0.50925115604E+01  0.00000000000E+00 0.  1.
</event>
<event>
 7    1  0.2455451E-009  0.4778727E+02  0.7816164E-02  0.1312668E+00
        -11   -1    0    0    0    0  0.00000000000E+00  0.00000000000E+00  0.45593999997E+02  0.45594000000E+02  0.51100000000E-03 0. -1.
         11   -1    0    0    0    0 -0.00000000000E+00 -0.00000000000E+00 -0.45593999997E+02  0.45594000000E+02  0.51100000000E-03 0.  1.
    9900012    2    1    2    0    0  0.25913737755E+02 -0.26585489067E+02 -0.22479165859E+02  0.47787274994E+02  0.20000018007E+02 0.  0.
         12    1    1    2    0    0 -0.25913737755E+02  0.26585489067E+02  0.22479165859E+02  0.43400725006E+02  0.00000000000E+00 0. -1.
         11    1    3    3    0    0  0.37137178757E+01 -0.98281027946E+01 -0.43962674440E+01  0.11389050562E+02  0.51100000000E-03 0. -1.
        -11    1    3    3    0    0  0.11354622199E+01  0.17809646459E+01 -0.50200031292E+01  0.54462410157E+01  0.51100000000E-03 0.  1.
        -12    1    3    3    0    0  0.21064557660E+02 -0.18538350918E+02 -0.13062895285E+02  0.30951983416E+02  0.00000000000E+00 0.  1.
</event>
<event>
 7    1  0.2455451E-009  0.4778727E+02  0.7816164E-02  0.1312668E+00
        -11   -1    0    0    0    0  0.00000000000E+00  0.00000000000E+00  0.45593999997E+02  0.45594000000E+02  0.51100000000E-03 0. -1.
         11   -1    0    0    0    0 -0.00000000000E+00 -0.00000000000E+00 -0.45593999997E+02  0.45594000000E+02  0.51100000000E-03 0.  1.
    9900012    2    1    2    0    0  0.20415331328E+02  0.32394184467E+02 -0.20431700803E+02  0.47787270304E+02  0.19999996622E+02 0.  0.
         12    1    1    2    0    0 -0.20415331328E+02 -0.32394184467E+02  0.20431700803E+02  0.43400729696E+02  0.00000000000E+00 0. -1.
         11    1    3    3    0    0  0.38382735941E+01  0.19582430434E+02 -0.13284918472E+02  0.23972755055E+02  0.51100000000E-03 0. -1.
        -11    1    3    3    0    0  0.11020874957E+02  0.11100495268E+02 -0.85602841531E+01  0.17831408948E+02  0.51100000000E-03 0.  1.
         12    1    3    3    0    0  0.55561827761E+01  0.17112587646E+01  0.14135018220E+01  0.59831063003E+01  0.00000000000E+00 0. -1.
</event>
<event>
 7    1  0.2455451E-009  0.4778727E+02  0.7816164E-02  0.1312668E+00
        -11   -1    0    0    0    0  0.00000000000E+00  0.00000000000E+00  0.45593999997E+02  0.45594000000E+02  0.51100000000E-03 0. -1.
         11   -1    0    0    0    0 -0.00000000000E+00 -0.00000000000E+00 -0.45593999997E+02  0.45594000000E+02  0.51100000000E-03 0.  1.
    9900012    2    1    2    0    0  0.13169278592E+02 -0.24240245235E+02 -0.33505283128E+02  0.47787269762E+02  0.19999994155E+02 0.  0.
         12    1    1    2    0    0 -0.13169278592E+02  0.24240245235E+02  0.33505283128E+02  0.43400730238E+02  0.00000000000E+00 0. -1.
         11    1    3    3    0    0  0.40651060710E+01 -0.10133383993E+02 -0.20980102073E+02  0.23651115022E+02  0.51100000000E-03 0. -1.
        -11    1    3    3    0    0  0.46214630032E+01 -0.14176507047E+02 -0.12790508286E+02  0.19645059807E+02  0.51100000000E-03 0.  1.
         12    1    3    3    0    0  0.44827095181E+01  0.69645805681E-01  0.26532723113E+00  0.44910949335E+01  0.00000000000E+00 0. -1.
</event>
<event>
 7    1  0.2455451E-009  0.4778727E+02  0.7816164E-02  0.1312668E+00
        -11   -1    0    0    0    0  0.00000000000E+00  0.00000000000E+00  0.45593999997E+02  0.45594000000E+02  0.51100000000E-03 0.  1.
         11   -1    0    0    0    0 -0.00000000000E+00 -0.00000000000E+00 -0.45593999997E+02  0.45594000000E+02  0.51100000000E-03 0. -1.
    9900012    2    1    2    0    0  0.27460467182E+02 -0.23107392569E+02  0.24404797926E+02  0.47787274073E+02  0.20000013808E+02 0.  0.
         12    1    1    2    0    0 -0.27460467182E+02  0.23107392569E+02 -0.24404797926E+02  0.43400725927E+02  0.00000000000E+00 0. -1.
         11    1    3    3    0    0  0.78253021231E+01 -0.19637445965E+01  0.95255263437E+01  0.12483080491E+02  0.51100000000E-03 0. -1.
        -11    1    3    3    0    0 -0.13494028579E+00  0.16596256596E+01  0.22215258478E-01  0.16652507287E+01  0.51100000000E-03 0.  1.
        -12    1    3    3    0    0  0.19770105345E+02 -0.22803273632E+02  0.14857056324E+02  0.33638942853E+02  0.00000000000E+00 0.  1.
</event>
<event>
 7    1  0.2455451E-009  0.4778727E+02  0.7816164E-02  0.1312668E+00
        -11   -1    0    0    0    0  0.00000000000E+00  0.00000000000E+00  0.45593999997E+02  0.45594000000E+02  0.51100000000E-03 0. -1.
         11   -1    0    0    0    0 -0.00000000000E+00 -0.00000000000E+00 -0.45593999997E+02  0.45594000000E+02  0.51100000000E-03 0.  1.
    9900012    2    1    2    0    0  0.19557435434E+02  0.30518966812E+02 -0.23868864924E+02  0.47787270412E+02  0.19999997118E+02 0.  0.
         12    1    1    2    0    0 -0.19557435434E+02 -0.30518966812E+02  0.23868864924E+02  0.43400729588E+02  0.00000000000E+00 0. -1.
         11    1    3    3    0    0  0.27877687466E+01 -0.11888747024E+01 -0.46616018195E+01  0.55601807009E+01  0.51100000000E-03 0. -1.
        -11    1    3    3    0    0  0.13051411951E+02  0.28596625746E+02 -0.12227212863E+02  0.33728490814E+02  0.51100000000E-03 0.  1.
        -12    1    3    3    0    0  0.37182547364E+01  0.31112157680E+01 -0.69800502414E+01  0.84985988970E+01  0.00000000000E+00 0.  1.
</event>
<event>
 7    1  0.2455451E-009  0.4778727E+02  0.7816164E-02  0.1312668E+00
        -11   -1    0    0    0    0  0.00000000000E+00  0.00000000000E+00  0.45593999997E+02  0.45594000000E+02  0.51100000000E-03 0.  1.
         11   -1    0    0    0    0 -0.00000000000E+00 -0.00000000000E+00 -0.45593999997E+02  0.45594000000E+02  0.51100000000E-03 0. -1.
    9900012    2    1    2    0    0 -0.10409142520E+02 -0.22983879075E+02  0.35313087979E+02  0.47787272725E+02  0.20000007664E+02 0.  0.
         12    1    1    2    0    0  0.10409142520E+02  0.22983879075E+02 -0.35313087979E+02  0.43400727275E+02  0.00000000000E+00 0. -1.
         11    1    3    3    0    0 -0.15076865758E+01  0.19988748718E+01 -0.30085927764E+00  0.25217327634E+01  0.51100000000E-03 0. -1.
        -11    1    3    3    0    0 -0.80366669138E+01 -0.10466647696E+02  0.19665626694E+02  0.23682812388E+02  0.51100000000E-03 0.  1.
         12    1    3    3    0    0 -0.86478903015E+00 -0.14516106251E+02  0.15948320563E+02  0.21582727574E+02  0.00000000000E+00 0. -1.
</event>
<event>
 7    1  0.2455451E-009  0.4778727E+02  0.7816164E-02  0.1312668E+00
        -11   -1    0    0    0    0  0.00000000000E+00  0.00000000000E+00  0.45593999997E+02  0.45594000000E+02  0.51100000000E-03 0.  1.
         11   -1    0    0    0    0 -0.00000000000E+00 -0.00000000000E+00 -0.45593999997E+02  0.45594000000E+02  0.51100000000E-03 0. -1.
    9900012    2    1    2    0    0 -0.38656355474E+02  0.12214957184E+02 -0.15495304490E+02  0.47787268915E+02  0.19999990290E+02 0.  0.
         12    1    1    2    0    0  0.38656355474E+02 -0.12214957184E+02  0.15495304490E+02  0.43400731085E+02  0.00000000000E+00 0. -1.
         11    1    3    3    0    0 -0.27786354522E+02  0.53670264232E+01 -0.15118205314E+02  0.32084990298E+02  0.51100000000E-03 0. -1.
        -11    1    3    3    0    0 -0.10974937409E+02  0.23935925616E+01 -0.26781174350E-01  0.11232953929E+02  0.51100000000E-03 0.  1.
         12    1    3    3    0    0  0.10493645796E+00  0.44543381994E+01 -0.35031800123E+00  0.44693246869E+01  0.00000000000E+00 0. -1.
</event>
<event>
 7    1  0.2455451E-009  0.4778727E+02  0.7816164E-02  0.1312668E+00
        -11   -1    0    0    0    0  0.00000000000E+00  0.00000000000E+00  0.45593999997E+02  0.45594000000E+02  0.51100000000E-03 0. -1.
         11   -1    0    0    0    0 -0.00000000000E+00 -0.00000000000E+00 -0.45593999997E+02  0.45594000000E+02  0.51100000000E-03 0.  1.
    9900012    2    1    2    0    0  0.34577017925E+02 -0.21957359947E+02 -0.14350173127E+02  0.47787270822E+02  0.19999998986E+02 0.  0.
         12    1    1    2    0    0 -0.34577017925E+02  0.21957359947E+02  0.14350173127E+02  0.43400729178E+02  0.00000000000E+00 0. -1.
         11    1    3    3    0    0  0.45614071331E+01 -0.89018582194E+01 -0.25762918594E+01  0.10328929993E+02  0.51100000000E-03 0. -1.
        -11    1    3    3    0    0  0.12265534403E+02 -0.45246028835E+01 -0.12025405267E+02  0.17763044152E+02  0.51100000000E-03 0.  1.
        -12    1    3    3    0    0  0.17750076389E+02 -0.85308988444E+01  0.25152399895E+00  0.19695296678E+02  0.00000000000E+00 0.  1.
</event>
<event>
 7    1  0.2455451E-009  0.4778727E+02  0.7816164E-02  0.1312668E+00
        -11   -1    0    0    0    0  0.00000000000E+00  0.00000000000E+00  0.45593999997E+02  0.45594000000E+02  0.51100000000E-03 0.  1.
         11   -1    0    0    0    0 -0.00000000000E+00 -0.00000000000E+00 -0.45593999997E+02  0.45594000000E+02  0.51100000000E-03 0. -1.
    9900012    2    1    2    0    0  0.18848493422E+02  0.95437806772E+01  0.37911390587E+02  0.47787274313E+02  0.20000014903E+02 0.  0.
         12    1    1    2    0    0 -0.18848493422E+02 -0.95437806772E+01 -0.37911390587E+02  0.43400725687E+02  0.00000000000E+00 0. -1.
         11    1    3    3    0    0 -0.21638764940E+01 -0.19980986523E+01  0.67047936320E+01  0.73231835710E+01  0.51100000000E-03 0. -1.
        -11    1    3    3    0    0  0.28729820461E+01 -0.74929133603E+00  0.80685707878E+01  0.85975169766E+01  0.51100000000E-03 0.  1.
         12    1    3    3    0    0  0.18139387870E+02  0.12291170665E+02  0.23138026168E+02  0.31866573765E+02  0.00000000000E+00 0. -1.
</event>
<event>
 7    1  0.2455451E-009  0.4778727E+02  0.7816164E-02  0.1312668E+00
        -11   -1    0    0    0    0  0.00000000000E+00  0.00000000000E+00  0.45593999997E+02  0.45594000000E+02  0.51100000000E-03 0.  1.
         11   -1    0    0    0    0 -0.00000000000E+00 -0.00000000000E+00 -0.45593999997E+02  0.45594000000E+02  0.51100000000E-03 0. -1.
    9900012    2    1    2    0    0 -0.38165903736E+02  0.67986040581E+01  0.19513234836E+02  0.47787267761E+02  0.19999985029E+02 0.  0.
         12    1    1    2    0    0  0.38165903736E+02 -0.67986040581E+01 -0.19513234836E+02  0.43400732239E+02  0.00000000000E+00 0. -1.
         11    1    3    3    0    0 -0.68393937145E+01  0.33837691578E+01  0.13115603628E+02  0.15173867631E+02  0.51100000000E-03 0. -1.
        -11    1    3    3    0    0 -0.46125842466E+01  0.16724677484E+01  0.26657682981E+01  0.55838519574E+01  0.51100000000E-03 0.  1.
         12    1    3    3    0    0 -0.26713925775E+02  0.17423671518E+01  0.37318629094E+01  0.27029548172E+02  0.00000000000E+00 0. -1.
</event>
<event>
 7    1  0.2455451E-009  0.4778727E+02  0.7816164E-02  0.1312668E+00
        -11   -1    0    0    0    0  0.00000000000E+00  0.00000000000E+00  0.45593999997E+02  0.45594000000E+02  0.51100000000E-03 0. -1.
         11   -1    0    0    0    0 -0.00000000000E+00 -0.00000000000E+00 -0.45593999997E+02  0.45594000000E+02  0.51100000000E-03 0.  1.
    9900012    2    1    2    0    0 -0.23498738047E+02 -0.31431760233E+02 -0.18533130319E+02  0.47787272349E+02  0.20000005950E+02 0.  0.
         12    1    1    2    0    0  0.23498738047E+02  0.31431760233E+02  0.18533130319E+02  0.43400727651E+02  0.00000000000E+00 0. -1.
         11    1    3    3    0    0  0.11619981907E+01  0.18672346618E+01 -0.13445338032E+01  0.25777076030E+01  0.51100000000E-03 0. -1.
        -11    1    3    3    0    0 -0.20511998761E+02 -0.23650950587E+02 -0.13191349904E+02  0.33972360374E+02  0.51100000000E-03 0.  1.
         12    1    3    3    0    0 -0.41487374767E+01 -0.96480443083E+01 -0.39972466119E+01  0.11237204372E+02  0.00000000000E+00 0. -1.
</event>
<event>
 7    1  0.2455451E-009  0.4778727E+02  0.7816164E-02  0.1312668E+00
        -11   -1    0    0    0    0  0.00000000000E+00  0.00000000000E+00  0.45593999997E+02  0.45594000000E+02  0.51100000000E-03 0.  1.
         11   -1    0    0    0    0 -0.00000000000E+00 -0.00000000000E+00 -0.45593999997E+02  0.45594000000E+02  0.51100000000E-03 0. -1.
    9900012    2    1    2    0    0  0.20516479653E+02 -0.12230731967E+02  0.36236809253E+02  0.47787273202E+02  0.20000009836E+02 0.  0.
         12    1    1    2    0    0 -0.20516479653E+02  0.12230731967E+02 -0.36236809253E+02  0.43400726798E+02  0.00000000000E+00 0. -1.
         11    1    3    3    0    0  0.33645739264E+01  0.25851427442E+01  0.87073259678E+00  0.43314542858E+01  0.51100000000E-03 0. -1.
        -11    1    3    3    0    0  0.17989727056E+02 -0.15806897847E+02  0.33324251523E+02  0.41036496426E+02  0.51100000000E-03 0.  1.
        -12    1    3    3    0    0 -0.83782132913E+00  0.99102313637E+00  0.20418251328E+01  0.24193224897E+01  0.00000000000E+00 0.  1.
</event>
<event>
 7    1  0.2455451E-009  0.4778726E+02  0.7816164E-02  0.1312668E+00
        -11   -1    0    0    0    0  0.00000000000E+00  0.00000000000E+00  0.45593999997E+02  0.45594000000E+02  0.51100000000E-03 0. -1.
         11   -1    0    0    0    0 -0.00000000000E+00 -0.00000000000E+00 -0.45593999997E+02  0.45594000000E+02  0.51100000000E-03 0.  1.
    9900012    2    1    2    0    0 -0.16883090828E+02 -0.30126428173E+02 -0.26286563122E+02  0.47787264624E+02  0.19999970728E+02 0.  0.
         12    1    1    2    0    0  0.16883090828E+02  0.30126428173E+02  0.26286563122E+02  0.43400735376E+02  0.00000000000E+00 0. -1.
         11    1    3    3    0    0 -0.12379844550E+01  0.11000037653E+01 -0.21845224465E+01  0.27413048672E+01  0.51100000000E-03 0. -1.
        -11    1    3    3    0    0  0.79229753590E+00 -0.14731624210E+02 -0.99877856747E+01  0.17815845480E+02  0.51100000000E-03 0.  1.
        -12    1    3    3    0    0 -0.16437403909E+02 -0.16494807729E+02 -0.14114255001E+02  0.27230114277E+02  0.00000000000E+00 0.  1.
</event>
<event>
 7    1  0.2455451E-009  0.4778728E+02  0.7816164E-02  0.1312668E+00
        -11   -1    0    0    0    0  0.00000000000E+00  0.00000000000E+00  0.45593999997E+02  0.45594000000E+02  0.51100000000E-03 0.  1.
         11   -1    0    0    0    0 -0.00000000000E+00 -0.00000000000E+00 -0.45593999997E+02  0.45594000000E+02  0.51100000000E-03 0. -1.
    9900012    2    1    2    0    0 -0.46011801728E+00 -0.42564557009E+02 -0.84657940908E+01  0.47787275449E+02  0.20000020084E+02 0.  0.
         12    1    1    2    0    0  0.46011801728E+00  0.42564557009E+02  0.84657940908E+01  0.43400724551E+02  0.00000000000E+00 0. -1.
         11    1    3    3    0    0 -0.29680974812E+01  0.29412746839E+00 -0.10395730724E+01  0.31586114132E+01  0.51100000000E-03 0. -1.
        -11    1    3    3    0    0 -0.22487030620E+01 -0.32150298950E+02 -0.44082677022E+01  0.32528928855E+02  0.51100000000E-03 0.  1.
        -12    1    3    3    0    0  0.47566825259E+01 -0.10708385527E+02 -0.30179533163E+01  0.12099735182E+02  0.00000000000E+00 0.  1.
</event>
<event>
 7    1  0.2455451E-009  0.4778727E+02  0.7816164E-02  0.1312668E+00
        -11   -1    0    0    0    0  0.00000000000E+00  0.00000000000E+00  0.45593999997E+02  0.45594000000E+02  0.51100000000E-03 0.  1.
         11   -1    0    0    0    0 -0.00000000000E+00 -0.00000000000E+00 -0.45593999997E+02  0.45594000000E+02  0.51100000000E-03 0. -1.
    9900012    2    1    2    0    0  0.30207643401E+02 -0.93555309119E+00  0.31148773770E+02  0.47787273200E+02  0.20000009827E+02 0.  0.
         12    1    1    2    0    0 -0.30207643401E+02  0.93555309119E+00 -0.31148773770E+02  0.43400726800E+02  0.00000000000E+00 0. -1.
         11    1    3    3    0    0  0.98207566449E+01 -0.67451947494E+00 -0.21220744908E+00  0.98461804707E+01  0.51100000000E-03 0. -1.
        -11    1    3    3    0    0  0.81297534228E+01 -0.27463835639E+01  0.15772696839E+02  0.17955875897E+02  0.51100000000E-03 0.  1.
         12    1    3    3    0    0  0.12257133334E+02  0.24853499477E+01  0.15588284380E+02  0.19985216832E+02  0.00000000000E+00 0. -1.
</event>
<event>
 7    1  0.2455451E-009  0.4778728E+02  0.7816164E-02  0.1312668E+00
        -11   -1    0    0    0    0  0.00000000000E+00  0.00000000000E+00  0.45593999997E+02  0.45594000000E+02  0.51100000000E-03 0.  1.
         11   -1    0    0    0    0 -0.00000000000E+00 -0.00000000000E+00 -0.45593999997E+02  0.45594000000E+02  0.51100000000E-03 0. -1.
    9900012    2    1    2    0    0  0.33399352480E+02  0.14828317322E+02  0.23414237271E+02  0.47787282867E+02  0.20000053903E+02 0.  0.
         12    1    1    2    0    0 -0.33399352480E+02 -0.14828317322E+02 -0.23414237271E+02  0.43400717133E+02  0.00000000000E+00 0. -1.
         11    1    3    3    0    0  0.13423966837E+02  0.11982919462E+02  0.20729418645E+01  0.18113264000E+02  0.51100000000E-03 0. -1.
        -11    1    3    3    0    0  0.76395473222E+01 -0.98001910146E+00  0.78889203822E+01  0.11025342887E+02  0.51100000000E-03 0.  1.
         12    1    3    3    0    0  0.12335838321E+02  0.38254169610E+01  0.13452375024E+02  0.18648675980E+02  0.00000000000E+00 0. -1.
</event>
<event>
 7    1  0.2455451E-009  0.4778727E+02  0.7816164E-02  0.1312668E+00
        -11   -1    0    0    0    0  0.00000000000E+00  0.00000000000E+00  0.45593999997E+02  0.45594000000E+02  0.51100000000E-03 0. -1.
         11   -1    0    0    0    0 -0.00000000000E+00 -0.00000000000E+00 -0.45593999997E+02  0.45594000000E+02  0.51100000000E-03 0.  1.
    9900012    2    1    2    0    0 -0.37726291246E+02 -0.17316923250E+02 -0.12667843711E+02  0.47787272513E+02  0.20000006698E+02 0.  0.
         12    1    1    2    0    0  0.37726291246E+02  0.17316923250E+02  0.12667843711E+02  0.43400727487E+02  0.00000000000E+00 0. -1.
         11    1    3    3    0    0 -0.85556746163E+01  0.40380546740E+01 -0.27855024424E+01  0.98622754884E+01  0.51100000000E-03 0. -1.
        -11    1    3    3    0    0 -0.13903559338E+02 -0.13728112549E+02 -0.48377810323E+01  0.20128938422E+02  0.51100000000E-03 0.  1.
         12    1    3    3    0    0 -0.15267057293E+02 -0.76268653751E+01 -0.50445602367E+01  0.17796058603E+02  0.00000000000E+00 0. -1.
</event>
<event>
 7    1  0.2455451E-009  0.4778727E+02  0.7816164E-02  0.1312668E+00
        -11   -1    0    0    0    0  0.00000000000E+00  0.00000000000E+00  0.45593999997E+02  0.45594000000E+02  0.51100000000E-03 0.  1.
         11   -1    0    0    0    0 -0.00000000000E+00 -0.00000000000E+00 -0.45593999997E+02  0.45594000000E+02  0.51100000000E-03 0. -1.
    9900012    2    1    2    0    0  0.35432241401E+02 -0.21874710666E+02 -0.12234248267E+02  0.47787268116E+02  0.19999986649E+02 0.  0.
         12    1    1    2    0    0 -0.35432241401E+02  0.21874710666E+02  0.12234248267E+02  0.43400731884E+02  0.00000000000E+00 0. -1.
         11    1    3    3    0    0  0.20945096344E+02 -0.17713486189E+02 -0.19563919699E+01  0.27500765874E+02  0.51100000000E-03 0. -1.
        -11    1    3    3    0    0  0.45169002181E+01 -0.11126250807E-01 -0.80930491121E+01  0.92682228914E+01  0.51100000000E-03 0.  1.
         12    1    3    3    0    0  0.99702448383E+01 -0.41500982257E+01 -0.21848071850E+01  0.11018279351E+02  0.00000000000E+00 0. -1.
</event>
<event>
 7    1  0.2455451E-009  0.4778727E+02  0.7816164E-02  0.1312668E+00
        -11   -1    0    0    0    0  0.00000000000E+00  0.00000000000E+00  0.45593999997E+02  0.45594000000E+02  0.51100000000E-03 0.  1.
         11   -1    0    0    0    0 -0.00000000000E+00 -0.00000000000E+00 -0.45593999997E+02  0.45594000000E+02  0.51100000000E-03 0. -1.
    9900012    2    1    2    0    0 -0.25824481177E+02 -0.31156203925E+02  0.15684722586E+02  0.47787269664E+02  0.19999993708E+02 0.  0.
         12    1    1    2    0    0  0.25824481177E+02  0.31156203925E+02 -0.15684722586E+02  0.43400730336E+02  0.00000000000E+00 0. -1.
         11    1    3    3    0    0 -0.21311665430E+02 -0.18737392742E+02  0.33894829124E+01  0.28579110638E+02  0.51100000000E-03 0. -1.
        -11    1    3    3    0    0 -0.48586001502E+01 -0.12297953696E+02  0.92409456752E+01  0.16131978730E+02  0.51100000000E-03 0.  1.
         12    1    3    3    0    0  0.34578440346E+00 -0.12085748704E+00  0.30542939984E+01  0.30761802962E+01  0.00000000000E+00 0. -1.
</event>
<event>
 7    1  0.2455451E-009  0.4778727E+02  0.7816164E-02  0.1312668E+00
        -11   -1    0    0    0    0  0.00000000000E+00  0.00000000000E+00  0.45593999997E+02  0.45594000000E+02  0.51100000000E-03 0. -1.
         11   -1    0    0    0    0 -0.00000000000E+00 -0.00000000000E+00 -0.45593999997E+02  0.45594000000E+02  0.51100000000E-03 0.  1.
    9900012    2    1    2    0    0  0.13090179966E+02  0.29010759091E+02 -0.29506722385E+02  0.47787267051E+02  0.19999981792E+02 0.  0.
         12    1    1    2    0    0 -0.13090179966E+02 -0.29010759091E+02  0.29506722385E+02  0.43400732949E+02  0.00000000000E+00 0. -1.
         11    1    3    3    0    0 -0.51462669157E+00  0.14738237209E+01 -0.33830509745E+01  0.37258597866E+01  0.51100000000E-03 0. -1.
        -11    1    3    3    0    0 -0.27970503693E+00  0.17944854153E+01 -0.10972705360E+02  0.11121990649E+02  0.51100000000E-03 0.  1.
        -12    1    3    3    0    0  0.13884511694E+02  0.25742449955E+02 -0.15150966051E+02  0.32939416615E+02  0.00000000000E+00 0.  1.
</event>
<event>
 7    1  0.2455451E-009  0.4778728E+02  0.7816164E-02  0.1312668E+00
        -11   -1    0    0    0    0  0.00000000000E+00  0.00000000000E+00  0.45593999997E+02  0.45594000000E+02  0.51100000000E-03 0.  1.
         11   -1    0    0    0    0 -0.00000000000E+00 -0.00000000000E+00 -0.45593999997E+02  0.45594000000E+02  0.51100000000E-03 0. -1.
    9900012    2    1    2    0    0  0.19367746243E+02  0.38143154922E+02  0.73220507709E+01  0.47787282386E+02  0.20000051712E+02 0.  0.
         12    1    1    2    0    0 -0.19367746243E+02 -0.38143154922E+02 -0.73220507709E+01  0.43400717614E+02  0.00000000000E+00 0. -1.
         11    1    3    3    0    0  0.74929738294E+01  0.71516896037E+01  0.91091371520E+01  0.13793755867E+02  0.51100000000E-03 0. -1.
        -11    1    3    3    0    0  0.39572455982E+01  0.20043697309E+02 -0.13654059188E+01  0.20476179529E+02  0.51100000000E-03 0.  1.
        -12    1    3    3    0    0  0.79175268150E+01  0.10947768009E+02 -0.42168046235E+00  0.13517346991E+02  0.00000000000E+00 0.  1.
</event>
<event>
 7    1  0.2455451E-009  0.4778727E+02  0.7816164E-02  0.1312668E+00
        -11   -1    0    0    0    0  0.00000000000E+00  0.00000000000E+00  0.45593999997E+02  0.45594000000E+02  0.51100000000E-03 0. -1.
         11   -1    0    0    0    0 -0.00000000000E+00 -0.00000000000E+00 -0.45593999997E+02  0.45594000000E+02  0.51100000000E-03 0.  1.
    9900012    2    1    2    0    0  0.35956514767E+02 -0.23443596446E+02 -0.64148344064E+01  0.47787271101E+02  0.20000000257E+02 0.  0.
         12    1    1    2    0    0 -0.35956514767E+02  0.23443596446E+02  0.64148344064E+01  0.43400728899E+02  0.00000000000E+00 0. -1.
         11    1    3    3    0    0  0.74610193187E+01  0.17155997250E+01  0.31307701195E+01  0.82711434211E+01  0.51100000000E-03 0. -1.
        -11    1    3    3    0    0  0.18804615223E+02 -0.17458195748E+02 -0.40666531670E+01  0.25979603937E+02  0.51100000000E-03 0.  1.
         12    1    3    3    0    0  0.96908802254E+01 -0.77010004229E+01 -0.54789513589E+01  0.13536523743E+02  0.00000000000E+00 0. -1.
</event>
<event>
 7    1  0.2455451E-009  0.4778727E+02  0.7816164E-02  0.1312668E+00
        -11   -1    0    0    0    0  0.00000000000E+00  0.00000000000E+00  0.45593999997E+02  0.45594000000E+02  0.51100000000E-03 0.  1.
         11   -1    0    0    0    0 -0.00000000000E+00 -0.00000000000E+00 -0.45593999997E+02  0.45594000000E+02  0.51100000000E-03 0. -1.
    9900012    2    1    2    0    0  0.31508757688E+02  0.41296651099E+01  0.29559554181E+02  0.47787272030E+02  0.20000004492E+02 0.  0.
         12    1    1    2    0    0 -0.31508757688E+02 -0.41296651099E+01 -0.29559554181E+02  0.43400727970E+02  0.00000000000E+00 0. -1.
         11    1    3    3    0    0 -0.11196916093E+01 -0.17166425107E+01  0.70443027141E+00  0.21672085912E+01  0.51100000000E-03 0. -1.
        -11    1    3    3    0    0  0.20272962511E+02  0.39256410640E+01  0.25226511740E+02  0.32600315360E+02  0.51100000000E-03 0.  1.
        -12    1    3    3    0    0  0.12355486786E+02  0.19206665566E+01  0.36286121696E+01  0.13019748078E+02  0.00000000000E+00 0.  1.
</event>
<event>
 7    1  0.2455451E-009  0.4778727E+02  0.7816164E-02  0.1312668E+00
        -11   -1    0    0    0    0  0.00000000000E+00  0.00000000000E+00  0.45593999997E+02  0.45594000000E+02  0.51100000000E-03 0.  1.
         11   -1    0    0    0    0 -0.00000000000E+00 -0.00000000000E+00 -0.45593999997E+02  0.45594000000E+02  0.51100000000E-03 0. -1.
    9900012    2    1    2    0    0  0.98246594458E+01  0.39938678277E+02  0.13856461011E+02  0.47787268813E+02  0.19999989827E+02 0.  0.
         12    1    1    2    0    0 -0.98246594458E+01 -0.39938678277E+02 -0.13856461011E+02  0.43400731187E+02  0.00000000000E+00 0. -1.
         11    1    3    3    0    0 -0.12031994905E+01  0.11109149859E+01  0.60762153206E+01  0.62930290007E+01  0.51100000000E-03 0. -1.
        -11    1    3    3    0    0  0.44481361888E+01  0.25564696962E+02  0.52351979008E+01  0.26471625255E+02  0.51100000000E-03 0.  1.
         12    1    3    3    0    0  0.65797227476E+01  0.13263066330E+02  0.25450477899E+01  0.15022614558E+02  0.00000000000E+00 0. -1.
</event>
<event>
 7    1  0.2455451E-009  0.4778727E+02  0.7816164E-02  0.1312668E+00
        -11   -1    0    0    0    0  0.00000000000E+00  0.00000000000E+00  0.45593999997E+02  0.45594000000E+02  0.51100000000E-03 0. -1.
         11   -1    0    0    0    0 -0.00000000000E+00 -0.00000000000E+00 -0.45593999997E+02  0.45594000000E+02  0.51100000000E-03 0.  1.
    9900012    2    1    2    0    0  0.17786282575E+02  0.18792662485E+02 -0.34844043760E+02  0.47787269629E+02  0.19999993548E+02 0.  0.
         12    1    1    2    0    0 -0.17786282575E+02 -0.18792662485E+02  0.34844043760E+02  0.43400730371E+02  0.00000000000E+00 0. -1.
         11    1    3    3    0    0  0.37060269593E+01  0.60134414080E+01  0.41287721051E+00  0.70757742504E+01  0.51100000000E-03 0. -1.
        -11    1    3    3    0    0 -0.17464562239E+00  0.21102270528E+01 -0.16695035302E+01  0.26964423981E+01  0.51100000000E-03 0.  1.
         12    1    3    3    0    0  0.14254901238E+02  0.10668994025E+02 -0.33587417440E+02  0.38015052981E+02  0.00000000000E+00 0. -1.
</event>
<event>
 7    1  0.2455451E-009  0.4778727E+02  0.7816164E-02  0.1312668E+00
        -11   -1    0    0    0    0  0.00000000000E+00  0.00000000000E+00  0.45593999997E+02  0.45594000000E+02  0.51100000000E-03 0.  1.
         11   -1    0    0    0    0 -0.00000000000E+00 -0.00000000000E+00 -0.45593999997E+02  0.45594000000E+02  0.51100000000E-03 0. -1.
    9900012    2    1    2    0    0 -0.18466187037E+01  0.24647973474E+02  0.35674787062E+02  0.47787273867E+02  0.20000012868E+02 0.  0.
         12    1    1    2    0    0  0.18466187037E+01 -0.24647973474E+02 -0.35674787062E+02  0.43400726133E+02  0.00000000000E+00 0. -1.
         11    1    3    3    0    0 -0.33633108279E+00 -0.12818117655E+01  0.11294718627E+02  0.11372195440E+02  0.51100000000E-03 0. -1.
        -11    1    3    3    0    0  0.20839595654E+01  0.26843459887E+01  0.43533846379E+01  0.55227311109E+01  0.51100000000E-03 0.  1.
         12    1    3    3    0    0 -0.35942471864E+01  0.23245439251E+02  0.20026683797E+02  0.30892347316E+02  0.00000000000E+00 0. -1.
</event>
<event>
 7    1  0.2455451E-009  0.4778728E+02  0.7816164E-02  0.1312668E+00
        -11   -1    0    0    0    0  0.00000000000E+00  0.00000000000E+00  0.45593999997E+02  0.45594000000E+02  0.51100000000E-03 0.  1.
         11   -1    0    0    0    0 -0.00000000000E+00 -0.00000000000E+00 -0.45593999997E+02  0.45594000000E+02  0.51100000000E-03 0. -1.
    9900012    2    1    2    0    0  0.25455747180E+02  0.26488445004E+02  0.23108216611E+02  0.47787280442E+02  0.20000042846E+02 0.  0.
         12    1    1    2    0    0 -0.25455747180E+02 -0.26488445004E+02 -0.23108216611E+02  0.43400719558E+02  0.00000000000E+00 0. -1.
         11    1    3    3    0    0  0.45715006021E+00  0.82212698457E+01  0.10211381009E+02  0.13117567092E+02  0.51100000000E-03 0. -1.
        -11    1    3    3    0    0  0.11878266693E+02  0.13424503549E+02  0.94593388586E+01  0.20267945310E+02  0.51100000000E-03 0.  1.
         12    1    3    3    0    0  0.13120330426E+02  0.48426716100E+01  0.34374967437E+01  0.14401768040E+02  0.00000000000E+00 0. -1.
</event>
<event>
 7    1  0.2455451E-009  0.4778727E+02  0.7816164E-02  0.1312668E+00
        -11   -1    0    0    0    0  0.00000000000E+00  0.00000000000E+00  0.45593999997E+02  0.45594000000E+02  0.51100000000E-03 0.  1.
         11   -1    0    0    0    0 -0.00000000000E+00 -0.00000000000E+00 -0.45593999997E+02  0.45594000000E+02  0.51100000000E-03 0. -1.
    9900012    2    1    2    0    0  0.35204300404E+02 -0.20318915248E+02  0.15212573906E+02  0.47787268570E+02  0.19999988719E+02 0.  0.
         12    1    1    2    0    0 -0.35204300404E+02  0.20318915248E+02 -0.15212573906E+02  0.43400731430E+02  0.00000000000E+00 0. -1.
         11    1    3    3    0    0  0.97850643961E+01 -0.95634116666E+00  0.86717416786E+01  0.13109583428E+02  0.51100000000E-03 0. -1.
        -11    1    3    3    0    0  0.11770409390E+02 -0.33527826219E+01 -0.11162435108E+01  0.12289413671E+02  0.51100000000E-03 0.  1.
         12    1    3    3    0    0  0.13648826618E+02 -0.16009791459E+02  0.76570757381E+01  0.22388271471E+02  0.00000000000E+00 0. -1.
</event>
<event>
 7    1  0.2455451E-009  0.4778727E+02  0.7816164E-02  0.1312668E+00
        -11   -1    0    0    0    0  0.00000000000E+00  0.00000000000E+00  0.45593999997E+02  0.45594000000E+02  0.51100000000E-03 0.  1.
         11   -1    0    0    0    0 -0.00000000000E+00 -0.00000000000E+00 -0.45593999997E+02  0.45594000000E+02  0.51100000000E-03 0. -1.
    9900012    2    1    2    0    0 -0.28887761497E+02 -0.20323058597E+02  0.25220898538E+02  0.47787271918E+02  0.20000003982E+02 0.  0.
         12    1    1    2    0    0  0.28887761497E+02  0.20323058597E+02 -0.25220898538E+02  0.43400728082E+02  0.00000000000E+00 0. -1.
         11    1    3    3    0    0 -0.26083609767E+01 -0.40448008519E+01  0.95852664202E+01  0.10725730442E+02  0.51100000000E-03 0. -1.
        -11    1    3    3    0    0 -0.27610012415E+02 -0.14645420394E+02  0.13446634337E+02  0.34023713779E+02  0.51100000000E-03 0.  1.
         12    1    3    3    0    0  0.13306118949E+01 -0.16328373504E+01  0.21889977809E+01  0.30378276964E+01  0.00000000000E+00 0. -1.
</event>
<event>
 7    1  0.2455451E-009  0.4778727E+02  0.7816164E-02  0.1312668E+00
        -11   -1    0    0    0    0  0.00000000000E+00  0.00000000000E+00  0.45593999997E+02  0.45594000000E+02  0.51100000000E-03 0.  1.
         11   -1    0    0    0    0 -0.00000000000E+00 -0.00000000000E+00 -0.45593999997E+02  0.45594000000E+02  0.51100000000E-03 0. -1.
    9900012    2    1    2    0    0  0.20290099638E+02  0.21858925325E+02  0.31529709434E+02  0.47787270321E+02  0.19999996700E+02 0.  0.
         12    1    1    2    0    0 -0.20290099638E+02 -0.21858925325E+02 -0.31529709434E+02  0.43400729679E+02  0.00000000000E+00 0. -1.
         11    1    3    3    0    0  0.10055703253E+01 -0.77212542437E-01 -0.24109509799E+00  0.10369477148E+01  0.51100000000E-03 0. -1.
        -11    1    3    3    0    0  0.16187659460E+02  0.10258238882E+02  0.94454762557E+01  0.21365598651E+02  0.51100000000E-03 0.  1.
        -12    1    3    3    0    0  0.30968698526E+01  0.11677898986E+02  0.22325328277E+02  0.25384723955E+02  0.00000000000E+00 0.  1.
</event>
<event>
 7    1  0.2455451E-009  0.4778727E+02  0.7816164E-02  0.1312668E+00
        -11   -1    0    0    0    0  0.00000000000E+00  0.00000000000E+00  0.45593999997E+02  0.45594000000E+02  0.51100000000E-03 0. -1.
         11   -1    0    0    0    0 -0.00000000000E+00 -0.00000000000E+00 -0.45593999997E+02  0.45594000000E+02  0.51100000000E-03 0.  1.
    9900012    2    1    2    0    0 -0.37597103670E+02  0.95596644320E+01  0.19460055447E+02  0.47787272513E+02  0.20000006696E+02 0.  0.
         12    1    1    2    0    0  0.37597103670E+02 -0.95596644320E+01 -0.19460055447E+02  0.43400727487E+02  0.00000000000E+00 0. -1.
         11    1    3    3    0    0 -0.18755232991E+02  0.99494002418E+01  0.18444161509E+02  0.28123591943E+02  0.51100000000E-03 0. -1.
        -11    1    3    3    0    0 -0.15777025277E+02  0.17859493623E+01  0.90172789544E+00  0.15903372447E+02  0.51100000000E-03 0.  1.
         12    1    3    3    0    0 -0.30648454012E+01 -0.21756851721E+01  0.11416604304E+00  0.37603081239E+01  0.00000000000E+00 0. -1.
</event>
<event>
 7    1  0.2455451E-009  0.4778727E+02  0.7816164E-02  0.1312668E+00
        -11   -1    0    0    0    0  0.00000000000E+00  0.00000000000E+00  0.45593999997E+02  0.45594000000E+02  0.51100000000E-03 0.  1.
         11   -1    0    0    0    0 -0.00000000000E+00 -0.00000000000E+00 -0.45593999997E+02  0.45594000000E+02  0.51100000000E-03 0. -1.
    9900012    2    1    2    0    0 -0.16086546629E+01  0.39801667100E+01  0.43187889505E+02  0.47787270781E+02  0.19999998798E+02 0.  0.
         12    1    1    2    0    0  0.16086546629E+01 -0.39801667100E+01 -0.43187889505E+02  0.43400729219E+02  0.00000000000E+00 0. -1.
         11    1    3    3    0    0 -0.35894602632E+01  0.98975908923E+00 -0.45920732482E-01  0.37237020571E+01  0.51100000000E-03 0. -1.
        -11    1    3    3    0    0 -0.11129307045E+01  0.30314307872E+01  0.36616932885E+02  0.36759052784E+02  0.51100000000E-03 0.  1.
         12    1    3    3    0    0  0.30937363048E+01 -0.41023166387E-01  0.66168773519E+01  0.73045159398E+01  0.00000000000E+00 0. -1.
</event>
<event>
 7    1  0.2455451E-009  0.4778728E+02  0.7816164E-02  0.1312668E+00
        -11   -1    0    0    0    0  0.00000000000E+00  0.00000000000E+00  0.45593999997E+02  0.45594000000E+02  0.51100000000E-03 0.  1.
         11   -1    0    0    0    0 -0.00000000000E+00 -0.00000000000E+00 -0.45593999997E+02  0.45594000000E+02  0.51100000000E-03 0. -1.
    9900012    2    1    2    0    0  0.40135746112E+02  0.16131972135E+02 -0.35360503567E+01  0.47787282344E+02  0.20000051518E+02 0.  0.
         12    1    1    2    0    0 -0.40135746112E+02 -0.16131972135E+02  0.35360503567E+01  0.43400717656E+02  0.00000000000E+00 0. -1.
         11    1    3    3    0    0  0.12402599868E+02 -0.76305353724E+00 -0.17854795638E+01  0.12553671643E+02  0.51100000000E-03 0. -1.
        -11    1    3    3    0    0  0.25279112213E+02  0.17386450257E+02  0.19760802284E+01  0.30744545210E+02  0.51100000000E-03 0.  1.
        -12    1    3    3    0    0  0.24540340314E+01 -0.49142458516E+00 -0.37266510213E+01  0.44890654912E+01  0.00000000000E+00 0.  1.
</event>
<event>
 7    1  0.2455451E-009  0.4778729E+02  0.7816164E-02  0.1312668E+00
        -11   -1    0    0    0    0  0.00000000000E+00  0.00000000000E+00  0.45593999997E+02  0.45594000000E+02  0.51100000000E-03 0.  1.
         11   -1    0    0    0    0 -0.00000000000E+00 -0.00000000000E+00 -0.45593999997E+02  0.45594000000E+02  0.51100000000E-03 0. -1.
    9900012    2    1    2    0    0 -0.29824810269E+02  0.76066162527E+01  0.30598072743E+02  0.47787286020E+02  0.20000068281E+02 0.  0.
         12    1    1    2    0    0  0.29824810269E+02 -0.76066162527E+01 -0.30598072743E+02  0.43400713980E+02  0.00000000000E+00 0. -1.
         11    1    3    3    0    0 -0.12053865331E+02  0.10736099304E+02  0.10827854899E+02  0.19437127865E+02  0.51100000000E-03 0. -1.
        -11    1    3    3    0    0 -0.41129574947E+01  0.27877462412E+01  0.78056789229E+01  0.92529223582E+01  0.51100000000E-03 0.  1.
         12    1    3    3    0    0 -0.13657987443E+02 -0.59172292924E+01  0.11964538921E+02  0.19097235797E+02  0.00000000000E+00 0. -1.
</event>
<event>
 7    1  0.2455451E-009  0.4778727E+02  0.7816164E-02  0.1312668E+00
        -11   -1    0    0    0    0  0.00000000000E+00  0.00000000000E+00  0.45593999997E+02  0.45594000000E+02  0.51100000000E-03 0. -1.
         11   -1    0    0    0    0 -0.00000000000E+00 -0.00000000000E+00 -0.45593999997E+02  0.45594000000E+02  0.51100000000E-03 0.  1.
    9900012    2    1    2    0    0  0.32701856395E+02 -0.28244151119E+02 -0.40595077173E+01  0.47787273197E+02  0.20000009814E+02 0.  0.
         12    1    1    2    0    0 -0.32701856395E+02  0.28244151119E+02  0.40595077173E+01  0.43400726803E+02  0.00000000000E+00 0. -1.
         11    1    3    3    0    0  0.10962229273E+02 -0.17927048820E+02 -0.21129579118E+01  0.21119046887E+02  0.51100000000E-03 0. -1.
        -11    1    3    3    0    0  0.69573976968E+01 -0.81839562052E+01 -0.42585486529E+01  0.11554988480E+02  0.51100000000E-03 0.  1.
         12    1    3    3    0    0  0.14782229425E+02 -0.21331460943E+01  0.23119988474E+01  0.15113237830E+02  0.00000000000E+00 0. -1.
</event>
<event>
 7    1  0.2455451E-009  0.4778727E+02  0.7816164E-02  0.1312668E+00
        -11   -1    0    0    0    0  0.00000000000E+00  0.00000000000E+00  0.45593999997E+02  0.45594000000E+02  0.51100000000E-03 0.  1.
         11   -1    0    0    0    0 -0.00000000000E+00 -0.00000000000E+00 -0.45593999997E+02  0.45594000000E+02  0.51100000000E-03 0. -1.
    9900012    2    1    2    0    0  0.13379127399E+02 -0.41276059471E+02  0.95364311647E+00  0.47787267626E+02  0.19999984415E+02 0.  0.
         12    1    1    2    0    0 -0.13379127399E+02  0.41276059471E+02 -0.95364311647E+00  0.43400732374E+02  0.00000000000E+00 0. -1.
         11    1    3    3    0    0  0.84938972545E+01 -0.11454402828E+02 -0.42688863032E+01  0.14885329195E+02  0.51100000000E-03 0. -1.
        -11    1    3    3    0    0  0.12336830880E+01 -0.28446179267E+02  0.54640138368E+01  0.28992456541E+02  0.51100000000E-03 0.  1.
        -12    1    3    3    0    0  0.36515470569E+01 -0.13754773757E+01 -0.24148441715E+00  0.39094818894E+01  0.00000000000E+00 0.  1.
</event>
<event>
 7    1  0.2455451E-009  0.4778728E+02  0.7816164E-02  0.1312668E+00
        -11   -1    0    0    0    0  0.00000000000E+00  0.00000000000E+00  0.45593999997E+02  0.45594000000E+02  0.51100000000E-03 0.  1.
         11   -1    0    0    0    0 -0.00000000000E+00 -0.00000000000E+00 -0.45593999997E+02  0.45594000000E+02  0.51100000000E-03 0. -1.
    9900012    2    1    2    0    0 -0.63651732607E+01  0.41578885385E+02  0.10691284294E+02  0.47787277652E+02  0.20000030128E+02 0.  0.
         12    1    1    2    0    0  0.63651732607E+01 -0.41578885385E+02 -0.10691284294E+02  0.43400722348E+02  0.00000000000E+00 0. -1.
         11    1    3    3    0    0 -0.46978328321E+01  0.28369011858E+02  0.96067866016E+01  0.30317665085E+02  0.51100000000E-03 0.  1.
        -11    1    3    3    0    0  0.22767415203E+01 -0.10869445700E+01 -0.43859672447E+00  0.25607357920E+01  0.51100000000E-03 0. -1.
         12    1    3    3    0    0 -0.39440819489E+01  0.14296818097E+02  0.15230944165E+01  0.14908876775E+02  0.00000000000E+00 0. -1.
</event>
<event>
 7    1  0.2455451E-009  0.4778728E+02  0.7816164E-02  0.1312668E+00
        -11   -1    0    0    0    0  0.00000000000E+00  0.00000000000E+00  0.45593999997E+02  0.45594000000E+02  0.51100000000E-03 0.  1.
         11   -1    0    0    0    0 -0.00000000000E+00 -0.00000000000E+00 -0.45593999997E+02  0.45594000000E+02  0.51100000000E-03 0. -1.
    9900012    2    1    2    0    0 -0.11784716892E+01  0.31458562390E+02  0.29876293944E+02  0.47787275547E+02  0.20000020530E+02 0.  0.
         12    1    1    2    0    0  0.11784716892E+01 -0.31458562390E+02 -0.29876293944E+02  0.43400724453E+02  0.00000000000E+00 0. -1.
         11    1    3    3    0    0  0.72739499911E+01  0.99192125450E+01  0.10865059112E+02  0.16411905306E+02  0.51100000000E-03 0. -1.
        -11    1    3    3    0    0 -0.50895017418E+01  0.18529523541E+02  0.18760610203E+02  0.26855293074E+02  0.51100000000E-03 0.  1.
        -12    1    3    3    0    0 -0.33629199385E+01  0.30098263039E+01  0.25062462879E+00  0.45200771672E+01  0.00000000000E+00 0.  1.
</event>
<event>
 7    1  0.2455451E-009  0.4778727E+02  0.7816164E-02  0.1312668E+00
        -11   -1    0    0    0    0  0.00000000000E+00  0.00000000000E+00  0.45593999997E+02  0.45594000000E+02  0.51100000000E-03 0.  1.
         11   -1    0    0    0    0 -0.00000000000E+00 -0.00000000000E+00 -0.45593999997E+02  0.45594000000E+02  0.51100000000E-03 0. -1.
    9900012    2    1    2    0    0  0.23770127662E+01  0.38014939049E+02  0.20804746540E+02  0.47787271214E+02  0.20000000774E+02 0.  0.
         12    1    1    2    0    0 -0.23770127662E+01 -0.38014939049E+02 -0.20804746540E+02  0.43400728786E+02  0.00000000000E+00 0. -1.
         11    1    3    3    0    0 -0.44313765071E+01  0.25419717907E+02  0.58102442386E+01  0.26449160565E+02  0.51100000000E-03 0. -1.
        -11    1    3    3    0    0  0.56101313775E+01  0.79731310062E+01  0.12781908644E+02  0.16075496290E+02  0.51100000000E-03 0.  1.
         12    1    3    3    0    0  0.11982578959E+01  0.46220901357E+01  0.22125936567E+01  0.52626143596E+01  0.00000000000E+00 0. -1.
</event>
<event>
 7    1  0.2455451E-009  0.4778727E+02  0.7816164E-02  0.1312668E+00
        -11   -1    0    0    0    0  0.00000000000E+00  0.00000000000E+00  0.45593999997E+02  0.45594000000E+02  0.51100000000E-03 0.  1.
         11   -1    0    0    0    0 -0.00000000000E+00 -0.00000000000E+00 -0.45593999997E+02  0.45594000000E+02  0.51100000000E-03 0. -1.
    9900012    2    1    2    0    0  0.56185950884E+01  0.20533211846E+02  0.37821189487E+02  0.47787265286E+02  0.19999973746E+02 0.  0.
         12    1    1    2    0    0 -0.56185950884E+01 -0.20533211846E+02 -0.37821189487E+02  0.43400734714E+02  0.00000000000E+00 0. -1.
         11    1    3    3    0    0 -0.28914658084E+00 -0.29038881352E+01  0.51167856574E+01  0.58904726272E+01  0.51100000000E-03 0. -1.
        -11    1    3    3    0    0  0.80687299254E+01  0.13461782400E+02  0.22758974126E+02  0.27645883808E+02  0.51100000000E-03 0.  1.
        -12    1    3    3    0    0 -0.21609882561E+01  0.99753175820E+01  0.99454297034E+01  0.14250908851E+02  0.00000000000E+00 0.  1.
</event>
<event>
 7    1  0.2455451E-009  0.4778728E+02  0.7816164E-02  0.1312668E+00
        -11   -1    0    0    0    0  0.00000000000E+00  0.00000000000E+00  0.45593999997E+02  0.45594000000E+02  0.51100000000E-03 0.  1.
         11   -1    0    0    0    0 -0.00000000000E+00 -0.00000000000E+00 -0.45593999997E+02  0.45594000000E+02  0.51100000000E-03 0. -1.
    9900012    2    1    2    0    0  0.25007111659E+02  0.34391750766E+02 -0.86875873887E+01  0.47787281931E+02  0.20000049635E+02 0.  0.
         12    1    1    2    0    0 -0.25007111659E+02 -0.34391750766E+02  0.86875873887E+01  0.43400718069E+02  0.00000000000E+00 0. -1.
         11    1    3    3    0    0  0.31720587115E+01  0.24978300115E+00 -0.16158947339E+00  0.31859785681E+01  0.51100000000E-03 0. -1.
        -11    1    3    3    0    0  0.21257283147E+02  0.18660133674E+02 -0.56236717201E+01  0.28839180977E+02  0.51100000000E-03 0.  1.
        -12    1    3    3    0    0  0.57776980032E+00  0.15481834091E+02 -0.29023261951E+01  0.15762122386E+02  0.00000000000E+00 0.  1.
</event>
<event>
 7    1  0.2455451E-009  0.4778728E+02  0.7816164E-02  0.1312668E+00
        -11   -1    0    0    0    0  0.00000000000E+00  0.00000000000E+00  0.45593999997E+02  0.45594000000E+02  0.51100000000E-03 0. -1.
         11   -1    0    0    0    0 -0.00000000000E+00 -0.00000000000E+00 -0.45593999997E+02  0.45594000000E+02  0.51100000000E-03 0.  1.
    9900012    2    1    2    0    0 -0.14593624950E+02 -0.39096210909E+02 -0.11922025038E+02  0.47787282522E+02  0.20000052330E+02 0.  0.
         12    1    1    2    0    0  0.14593624950E+02  0.39096210909E+02  0.11922025038E+02  0.43400717478E+02  0.00000000000E+00 0. -1.
         11    1    3    3    0    0  0.15356251539E+01 -0.28153947057E+01  0.34462350128E+01  0.47075607257E+01  0.51100000000E-03 0. -1.
        -11    1    3    3    0    0 -0.69538806263E+01 -0.23520084603E+02 -0.91720178821E+01  0.26185430067E+02  0.51100000000E-03 0.  1.
         12    1    3    3    0    0 -0.91753694776E+01 -0.12760731600E+02 -0.61962421690E+01  0.16894291729E+02  0.00000000000E+00 0. -1.
</event>
<event>
 7    1  0.2455451E-009  0.4778727E+02  0.7816164E-02  0.1312668E+00
        -11   -1    0    0    0    0  0.00000000000E+00  0.00000000000E+00  0.45593999997E+02  0.45594000000E+02  0.51100000000E-03 0. -1.
         11   -1    0    0    0    0 -0.00000000000E+00 -0.00000000000E+00 -0.45593999997E+02  0.45594000000E+02  0.51100000000E-03 0.  1.
    9900012    2    1    2    0    0 -0.12380310700E+02  0.90065613323E+01 -0.40610752150E+02  0.47787269242E+02  0.19999991784E+02 0.  0.
         12    1    1    2    0    0  0.12380310700E+02 -0.90065613323E+01  0.40610752150E+02  0.43400730758E+02  0.00000000000E+00 0. -1.
         11    1    3    3    0    0 -0.19381080068E+01  0.15531099020E+01  0.10941708992E+01  0.27139681707E+01  0.51100000000E-03 0. -1.
        -11    1    3    3    0    0 -0.54284318239E+00  0.67199990422E+01 -0.21991628445E+02  0.23001843138E+02  0.51100000000E-03 0.  1.
         12    1    3    3    0    0 -0.98993595109E+01  0.73345238810E+00 -0.19713294605E+02  0.22071457934E+02  0.00000000000E+00 0. -1.
</event>
<event>
 7    1  0.2455451E-009  0.4778727E+02  0.7816164E-02  0.1312668E+00
        -11   -1    0    0    0    0  0.00000000000E+00  0.00000000000E+00  0.45593999997E+02  0.45594000000E+02  0.51100000000E-03 0.  1.
         11   -1    0    0    0    0 -0.00000000000E+00 -0.00000000000E+00 -0.45593999997E+02  0.45594000000E+02  0.51100000000E-03 0. -1.
    9900012    2    1    2    0    0 -0.31598294198E+02  0.29048463992E+02  0.64310249528E+01  0.47787267996E+02  0.19999986103E+02 0.  0.
         12    1    1    2    0    0  0.31598294198E+02 -0.29048463992E+02 -0.64310249528E+01  0.43400732004E+02  0.00000000000E+00 0. -1.
         11    1    3    3    0    0 -0.12076200843E+02  0.60617898977E+01  0.32391440475E+01  0.13895034293E+02  0.51100000000E-03 0. -1.
        -11    1    3    3    0    0 -0.14042014189E+02  0.66960914268E+01 -0.25633809692E+01  0.15766633285E+02  0.51100000000E-03 0.  1.
        -12    1    3    3    0    0 -0.54800791654E+01  0.16290582667E+02  0.57552618745E+01  0.18125600419E+02  0.00000000000E+00 0.  1.
</event>
<event>
 7    1  0.2455451E-009  0.4778727E+02  0.7816164E-02  0.1312668E+00
        -11   -1    0    0    0    0  0.00000000000E+00  0.00000000000E+00  0.45593999997E+02  0.45594000000E+02  0.51100000000E-03 0.  1.
         11   -1    0    0    0    0 -0.00000000000E+00 -0.00000000000E+00 -0.45593999997E+02  0.45594000000E+02  0.51100000000E-03 0. -1.
    9900012    2    1    2    0    0  0.18396101126E+02  0.70688482895E+01  0.38668305404E+02  0.47787274250E+02  0.20000014617E+02 0.  0.
         12    1    1    2    0    0 -0.18396101126E+02 -0.70688482895E+01 -0.38668305404E+02  0.43400725750E+02  0.00000000000E+00 0. -1.
         11    1    3    3    0    0  0.58371130860E+01  0.21316570963E+01  0.10951754810E+01  0.63099334981E+01  0.51100000000E-03 0. -1.
        -11    1    3    3    0    0 -0.11755357742E+01  0.13938396004E+01  0.12813591529E+02  0.12942673654E+02  0.51100000000E-03 0.  1.
        -12    1    3    3    0    0  0.13734523814E+02  0.35433515928E+01  0.24759538394E+02  0.28534667098E+02  0.00000000000E+00 0.  1.
</event>
<event>
 7    1  0.2455451E-009  0.4778727E+02  0.7816164E-02  0.1312668E+00
        -11   -1    0    0    0    0  0.00000000000E+00  0.00000000000E+00  0.45593999997E+02  0.45594000000E+02  0.51100000000E-03 0.  1.
         11   -1    0    0    0    0 -0.00000000000E+00 -0.00000000000E+00 -0.45593999997E+02  0.45594000000E+02  0.51100000000E-03 0. -1.
    9900012    2    1    2    0    0  0.20923621630E+01 -0.10587010620E+02  0.42037608673E+02  0.47787270557E+02  0.19999997776E+02 0.  0.
         12    1    1    2    0    0 -0.20923621630E+01  0.10587010620E+02 -0.42037608673E+02  0.43400729443E+02  0.00000000000E+00 0. -1.
         11    1    3    3    0    0  0.51809012861E+01 -0.72861911725E+00  0.71991119421E+01  0.88994290250E+01  0.51100000000E-03 0. -1.
        -11    1    3    3    0    0 -0.18716645590E+01 -0.98032025722E+01  0.35906565887E+02  0.37267779420E+02  0.51100000000E-03 0.  1.
        -12    1    3    3    0    0 -0.12168745641E+01 -0.55188930941E-01 -0.10680691558E+01  0.16200621113E+01  0.00000000000E+00 0.  1.
</event>
<event>
 7    1  0.2455451E-009  0.4778727E+02  0.7816164E-02  0.1312668E+00
        -11   -1    0    0    0    0  0.00000000000E+00  0.00000000000E+00  0.45593999997E+02  0.45594000000E+02  0.51100000000E-03 0.  1.
         11   -1    0    0    0    0 -0.00000000000E+00 -0.00000000000E+00 -0.45593999997E+02  0.45594000000E+02  0.51100000000E-03 0. -1.
    9900012    2    1    2    0    0  0.14516049971E+02  0.23616509202E+02  0.33394132348E+02  0.47787270871E+02  0.19999999211E+02 0.  0.
         12    1    1    2    0    0 -0.14516049971E+02 -0.23616509202E+02 -0.33394132348E+02  0.43400729129E+02  0.00000000000E+00 0. -1.
         11    1    3    3    0    0  0.51601793856E+01  0.56634889011E+01  0.23564728184E+01  0.80159542308E+01  0.51100000000E-03 0. -1.
        -11    1    3    3    0    0  0.85402103889E+01  0.20328573886E+02  0.25634626241E+02  0.33813017796E+02  0.51100000000E-03 0.  1.
        -12    1    3    3    0    0  0.81566019598E+00 -0.23755535858E+01  0.54030332890E+01  0.59582988442E+01  0.00000000000E+00 0.  1.
</event>
<event>
 7    1  0.2455451E-009  0.4778727E+02  0.7816164E-02  0.1312668E+00
        -11   -1    0    0    0    0  0.00000000000E+00  0.00000000000E+00  0.45593999997E+02  0.45594000000E+02  0.51100000000E-03 0.  1.
         11   -1    0    0    0    0 -0.00000000000E+00 -0.00000000000E+00 -0.45593999997E+02  0.45594000000E+02  0.51100000000E-03 0. -1.
    9900012    2    1    2    0    0 -0.16106918245E+02  0.94759831551E+01  0.39171372302E+02  0.47787268668E+02  0.19999989167E+02 0.  0.
         12    1    1    2    0    0  0.16106918245E+02 -0.94759831551E+01 -0.39171372302E+02  0.43400731332E+02  0.00000000000E+00 0. -1.
         11    1    3    3    0    0 -0.10072223572E+02  0.11600134205E+02  0.15579936947E+02  0.21880293343E+02  0.51100000000E-03 0. -1.
        -11    1    3    3    0    0  0.16959194865E+01 -0.10703673203E+01  0.10311593023E+02  0.10504797954E+02  0.51100000000E-03 0.  1.
        -12    1    3    3    0    0 -0.77306141596E+01 -0.10537837296E+01  0.13279842332E+02  0.15402177371E+02  0.00000000000E+00 0.  1.
</event>
<event>
 7    1  0.2455451E-009  0.4778728E+02  0.7816164E-02  0.1312668E+00
        -11   -1    0    0    0    0  0.00000000000E+00  0.00000000000E+00  0.45593999997E+02  0.45594000000E+02  0.51100000000E-03 0.  1.
         11   -1    0    0    0    0 -0.00000000000E+00 -0.00000000000E+00 -0.45593999997E+02  0.45594000000E+02  0.51100000000E-03 0. -1.
    9900012    2    1    2    0    0 -0.29692822120E+02 -0.13393736850E+02  0.28680420822E+02  0.47787280988E+02  0.20000045336E+02 0.  0.
         12    1    1    2    0    0  0.29692822120E+02  0.13393736850E+02 -0.28680420822E+02  0.43400719012E+02  0.00000000000E+00 0. -1.
         11    1    3    3    0    0  0.46451321770E+00 -0.40938550360E+00 -0.29702366502E+00  0.68672581040E+00  0.51100000000E-03 0. -1.
        -11    1    3    3    0    0 -0.11236341541E+02 -0.19551444775E+00  0.14472076500E+01  0.11330843189E+02  0.51100000000E-03 0.  1.
        -12    1    3    3    0    0 -0.18920993797E+02 -0.12788836898E+02  0.27530236837E+02  0.35769711989E+02  0.00000000000E+00 0.  1.
</event>
<event>
 7    1  0.2455451E-009  0.4778727E+02  0.7816164E-02  0.1312668E+00
        -11   -1    0    0    0    0  0.00000000000E+00  0.00000000000E+00  0.45593999997E+02  0.45594000000E+02  0.51100000000E-03 0. -1.
         11   -1    0    0    0    0 -0.00000000000E+00 -0.00000000000E+00 -0.45593999997E+02  0.45594000000E+02  0.51100000000E-03 0.  1.
    9900012    2    1    2    0    0 -0.29989826748E+02  0.16873668148E+01 -0.31327086267E+02  0.47787271329E+02  0.20000001298E+02 0.  0.
         12    1    1    2    0    0  0.29989826748E+02 -0.16873668148E+01  0.31327086267E+02  0.43400728671E+02  0.00000000000E+00 0. -1.
         11    1    3    3    0    0 -0.24988093581E+02  0.35036187975E+00 -0.32389264113E+02  0.40909558838E+02  0.51100000000E-03 0. -1.
        -11    1    3    3    0    0 -0.19735511463E+01  0.18775958789E+01 -0.12816439850E+01  0.30104620869E+01  0.51100000000E-03 0.  1.
         12    1    3    3    0    0 -0.30281820210E+01 -0.54059094380E+00  0.23438218304E+01  0.38672504048E+01  0.00000000000E+00 0. -1.
</event>
<event>
 7    1  0.2455451E-009  0.4778728E+02  0.7816164E-02  0.1312668E+00
        -11   -1    0    0    0    0  0.00000000000E+00  0.00000000000E+00  0.45593999997E+02  0.45594000000E+02  0.51100000000E-03 0.  1.
         11   -1    0    0    0    0 -0.00000000000E+00 -0.00000000000E+00 -0.45593999997E+02  0.45594000000E+02  0.51100000000E-03 0. -1.
    9900012    2    1    2    0    0 -0.37180630624E+02  0.30065405164E+01  0.22185208832E+02  0.47787284910E+02  0.20000063217E+02 0.  0.
         12    1    1    2    0    0  0.37180630624E+02 -0.30065405164E+01 -0.22185208832E+02  0.43400715090E+02  0.00000000000E+00 0. -1.
         11    1    3    3    0    0  0.18012968996E+01  0.17210151150E+01  0.10220124717E+01  0.26927817030E+01  0.51100000000E-03 0. -1.
        -11    1    3    3    0    0 -0.25264914528E+02 -0.29534670256E+01  0.14306203053E+02  0.29184007943E+02  0.51100000000E-03 0.  1.
        -12    1    3    3    0    0 -0.13717012995E+02  0.42389924270E+01  0.68569933071E+01  0.15910495263E+02  0.00000000000E+00 0.  1.
</event>
<event>
 7    1  0.2455451E-009  0.4778727E+02  0.7816164E-02  0.1312668E+00
        -11   -1    0    0    0    0  0.00000000000E+00  0.00000000000E+00  0.45593999997E+02  0.45594000000E+02  0.51100000000E-03 0.  1.
         11   -1    0    0    0    0 -0.00000000000E+00 -0.00000000000E+00 -0.45593999997E+02  0.45594000000E+02  0.51100000000E-03 0. -1.
    9900012    2    1    2    0    0  0.26830789884E+02  0.18894457261E+02  0.28403017064E+02  0.47787272133E+02  0.20000004965E+02 0.  0.
         12    1    1    2    0    0 -0.26830789884E+02 -0.18894457261E+02 -0.28403017064E+02  0.43400727867E+02  0.00000000000E+00 0. -1.
         11    1    3    3    0    0  0.15369438565E+02  0.25730562863E+01  0.21177881633E+02  0.26293400905E+02  0.51100000000E-03 0. -1.
        -11    1    3    3    0    0  0.77678872832E+01  0.81796168598E+01  0.45317203685E+01  0.12156590582E+02  0.51100000000E-03 0.  1.
         12    1    3    3    0    0  0.36934640364E+01  0.81417841153E+01  0.26934150631E+01  0.93372806464E+01  0.00000000000E+00 0. -1.
</event>
<event>
 7    1  0.2455451E-009  0.4778727E+02  0.7816164E-02  0.1312668E+00
        -11   -1    0    0    0    0  0.00000000000E+00  0.00000000000E+00  0.45593999997E+02  0.45594000000E+02  0.51100000000E-03 0.  1.
         11   -1    0    0    0    0 -0.00000000000E+00 -0.00000000000E+00 -0.45593999997E+02  0.45594000000E+02  0.51100000000E-03 0. -1.
    9900012    2    1    2    0    0  0.92546263446E+01 -0.27201683421E+02 -0.32527587256E+02  0.47787267029E+02  0.19999981694E+02 0.  0.
         12    1    1    2    0    0 -0.92546263446E+01  0.27201683421E+02  0.32527587256E+02  0.43400732971E+02  0.00000000000E+00 0. -1.
         11    1    3    3    0    0 -0.11924003120E+01  0.53536051062E+00 -0.24884841505E+01  0.28108687285E+01  0.51100000000E-03 0. -1.
        -11    1    3    3    0    0 -0.22261932515E+01 -0.15658976355E+02 -0.12133577746E+02  0.19934472304E+02  0.51100000000E-03 0.  1.
        -12    1    3    3    0    0  0.12673219908E+02 -0.12078067577E+02 -0.17905525359E+02  0.25041925997E+02  0.00000000000E+00 0.  1.
</event>
<event>
 7    1  0.2455451E-009  0.4778727E+02  0.7816164E-02  0.1312668E+00
        -11   -1    0    0    0    0  0.00000000000E+00  0.00000000000E+00  0.45593999997E+02  0.45594000000E+02  0.51100000000E-03 0.  1.
         11   -1    0    0    0    0 -0.00000000000E+00 -0.00000000000E+00 -0.45593999997E+02  0.45594000000E+02  0.51100000000E-03 0. -1.
    9900012    2    1    2    0    0  0.60978965701E+01 -0.26767852704E+02  0.33614300606E+02  0.47787268598E+02  0.19999988846E+02 0.  0.
         12    1    1    2    0    0 -0.60978965701E+01  0.26767852704E+02 -0.33614300606E+02  0.43400731402E+02  0.00000000000E+00 0. -1.
         11    1    3    3    0    0 -0.82747431640E+00  0.19532755079E+01  0.17923388241E+01  0.27771347961E+01  0.51100000000E-03 0. -1.
        -11    1    3    3    0    0  0.95156938834E+01 -0.20158634299E+02  0.26387764843E+02  0.34543206287E+02  0.51100000000E-03 0.  1.
        -12    1    3    3    0    0 -0.25903229969E+01 -0.85624939133E+01  0.54341969389E+01  0.10466927516E+02  0.00000000000E+00 0.  1.
</event>
<event>
 7    1  0.2455451E-009  0.4778727E+02  0.7816164E-02  0.1312668E+00
        -11   -1    0    0    0    0  0.00000000000E+00  0.00000000000E+00  0.45593999997E+02  0.45594000000E+02  0.51100000000E-03 0.  1.
         11   -1    0    0    0    0 -0.00000000000E+00 -0.00000000000E+00 -0.45593999997E+02  0.45594000000E+02  0.51100000000E-03 0. -1.
    9900012    2    1    2    0    0  0.13660673720E+02  0.14912894545E+02  0.38400715711E+02  0.47787269623E+02  0.19999993518E+02 0.  0.
         12    1    1    2    0    0 -0.13660673720E+02 -0.14912894545E+02 -0.38400715711E+02  0.43400730377E+02  0.00000000000E+00 0. -1.
         11    1    3    3    0    0 -0.49603047445E+00  0.35941131708E+01  0.50878326839E+01  0.62489789083E+01  0.51100000000E-03 0. -1.
        -11    1    3    3    0    0 -0.25529676941E+00  0.59972885445E+01  0.14655451059E+01  0.61790346370E+01  0.51100000000E-03 0.  1.
        -12    1    3    3    0    0  0.14412000964E+02  0.53214928297E+01  0.31847337921E+02  0.35359256077E+02  0.00000000000E+00 0.  1.
</event>
<event>
 7    1  0.2455451E-009  0.4778728E+02  0.7816164E-02  0.1312668E+00
        -11   -1    0    0    0    0  0.00000000000E+00  0.00000000000E+00  0.45593999997E+02  0.45594000000E+02  0.51100000000E-03 0.  1.
         11   -1    0    0    0    0 -0.00000000000E+00 -0.00000000000E+00 -0.45593999997E+02  0.45594000000E+02  0.51100000000E-03 0. -1.
    9900012    2    1    2    0    0 -0.73179064078E+01  0.32346738779E+02  0.27995707223E+02  0.47787275504E+02  0.20000020335E+02 0.  0.
         12    1    1    2    0    0  0.73179064078E+01 -0.32346738779E+02 -0.27995707223E+02  0.43400724496E+02  0.00000000000E+00 0. -1.
         11    1    3    3    0    0 -0.11506293657E+01  0.81449100174E+01 -0.73879955320E-01  0.82261148568E+01  0.51100000000E-03 0. -1.
        -11    1    3    3    0    0 -0.32202204169E+01  0.17532491794E+02  0.26759108919E+02  0.32152884761E+02  0.51100000000E-03 0.  1.
        -12    1    3    3    0    0 -0.29470566252E+01  0.66693369682E+01  0.13104782587E+01  0.74082758867E+01  0.00000000000E+00 0.  1.
</event>
<event>
 7    1  0.2455451E-009  0.4778727E+02  0.7816164E-02  0.1312668E+00
        -11   -1    0    0    0    0  0.00000000000E+00  0.00000000000E+00  0.45593999997E+02  0.45594000000E+02  0.51100000000E-03 0.  1.
         11   -1    0    0    0    0 -0.00000000000E+00 -0.00000000000E+00 -0.45593999997E+02  0.45594000000E+02  0.51100000000E-03 0. -1.
    9900012    2    1    2    0    0 -0.26668662538E+02 -0.17140191276E+02  0.29641521964E+02  0.47787267946E+02  0.19999985871E+02 0.  0.
         12    1    1    2    0    0  0.26668662538E+02  0.17140191276E+02 -0.29641521964E+02  0.43400732054E+02  0.00000000000E+00 0. -1.
         11    1    3    3    0    0 -0.21399461527E+01  0.10255967451E+00  0.41754105685E+01  0.46929672596E+01  0.51100000000E-03 0. -1.
        -11    1    3    3    0    0 -0.61560512073E+01 -0.28553730845E+01  0.16942051177E+02  0.18250567670E+02  0.51100000000E-03 0.  1.
        -12    1    3    3    0    0 -0.18372665178E+02 -0.14387377866E+02  0.85240602185E+01  0.24843733016E+02  0.00000000000E+00 0.  1.
</event>
<event>
 7    1  0.2455451E-009  0.4778727E+02  0.7816164E-02  0.1312668E+00
        -11   -1    0    0    0    0  0.00000000000E+00  0.00000000000E+00  0.45593999997E+02  0.45594000000E+02  0.51100000000E-03 0. -1.
         11   -1    0    0    0    0 -0.00000000000E+00 -0.00000000000E+00 -0.45593999997E+02  0.45594000000E+02  0.51100000000E-03 0.  1.
    9900012    2    1    2    0    0 -0.87419763809E+01  0.39636269007E+02  0.15367728782E+02  0.47787273511E+02  0.20000011247E+02 0.  0.
         12    1    1    2    0    0  0.87419763809E+01 -0.39636269007E+02 -0.15367728782E+02  0.43400726489E+02  0.00000000000E+00 0. -1.
         11    1    3    3    0    0 -0.13253909605E+01  0.62963323760E+01  0.10447891845E+02  0.12270244776E+02  0.51100000000E-03 0.  1.
        -11    1    3    3    0    0 -0.86196341156E+01  0.20245140199E+02  0.36720101867E+01  0.22308013203E+02  0.51100000000E-03 0. -1.
        -12    1    3    3    0    0  0.12030486952E+01  0.13094796432E+02  0.12478267505E+01  0.13209015533E+02  0.00000000000E+00 0.  1.
</event>
<event>
 7    1  0.2455451E-009  0.4778727E+02  0.7816164E-02  0.1312668E+00
        -11   -1    0    0    0    0  0.00000000000E+00  0.00000000000E+00  0.45593999997E+02  0.45594000000E+02  0.51100000000E-03 0. -1.
         11   -1    0    0    0    0 -0.00000000000E+00 -0.00000000000E+00 -0.45593999997E+02  0.45594000000E+02  0.51100000000E-03 0.  1.
    9900012    2    1    2    0    0  0.41345637714E+02  0.97694418976E+01 -0.88724212747E+01  0.47787267146E+02  0.19999982225E+02 0.  0.
         12    1    1    2    0    0 -0.41345637714E+02 -0.97694418976E+01  0.88724212747E+01  0.43400732854E+02  0.00000000000E+00 0. -1.
         11    1    3    3    0    0  0.11014482771E+02  0.94663133832E+01 -0.80918153831E+01  0.16625504390E+02  0.51100000000E-03 0. -1.
        -11    1    3    3    0    0  0.24909843796E+02 -0.56007954033E+00  0.20221538089E+01  0.24998062191E+02  0.51100000000E-03 0.  1.
        -12    1    3    3    0    0  0.54213111478E+01  0.86320805467E+00 -0.28027597005E+01  0.61637005642E+01  0.00000000000E+00 0.  1.
</event>
<event>
 7    1  0.2455451E-009  0.4778728E+02  0.7816164E-02  0.1312668E+00
        -11   -1    0    0    0    0  0.00000000000E+00  0.00000000000E+00  0.45593999997E+02  0.45594000000E+02  0.51100000000E-03 0. -1.
         11   -1    0    0    0    0 -0.00000000000E+00 -0.00000000000E+00 -0.45593999997E+02  0.45594000000E+02  0.51100000000E-03 0.  1.
    9900012    2    1    2    0    0 -0.22993044464E+02  0.95446012419E+01 -0.35550571512E+02  0.47787278331E+02  0.20000033221E+02 0.  0.
         12    1    1    2    0    0  0.22993044464E+02 -0.95446012419E+01  0.35550571512E+02  0.43400721669E+02  0.00000000000E+00 0. -1.
         11    1    3    3    0    0  0.32019179081E+00 -0.15491640380E+01 -0.25581660725E+01  0.30077642718E+01  0.51100000000E-03 0.  1.
        -11    1    3    3    0    0  0.13659969849E+01  0.44064444141E+01 -0.63908793789E+01  0.78820073354E+01  0.51100000000E-03 0. -1.
        -12    1    3    3    0    0 -0.24679233240E+02  0.66873208657E+01 -0.26601526061E+02  0.36897506723E+02  0.00000000000E+00 0.  1.
</event>
<event>
 7    1  0.2455451E-009  0.4778727E+02  0.7816164E-02  0.1312668E+00
        -11   -1    0    0    0    0  0.00000000000E+00  0.00000000000E+00  0.45593999997E+02  0.45594000000E+02  0.51100000000E-03 0.  1.
         11   -1    0    0    0    0 -0.00000000000E+00 -0.00000000000E+00 -0.45593999997E+02  0.45594000000E+02  0.51100000000E-03 0. -1.
    9900012    2    1    2    0    0  0.83585792723E+01  0.15789642767E+02  0.39553061021E+02  0.47787270717E+02  0.19999998506E+02 0.  0.
         12    1    1    2    0    0 -0.83585792723E+01 -0.15789642767E+02 -0.39553061021E+02  0.43400729283E+02  0.00000000000E+00 0. -1.
         11    1    3    3    0    0  0.95555903202E+01  0.81012595524E+00  0.12681052434E+02  0.15898889947E+02  0.51100000000E-03 0. -1.
        -11    1    3    3    0    0 -0.42568717561E+01  0.12511494299E+02  0.20018683622E+02  0.23987624746E+02  0.51100000000E-03 0.  1.
        -12    1    3    3    0    0  0.30598607082E+01  0.24680225126E+01  0.68533249648E+01  0.79007560239E+01  0.00000000000E+00 0.  1.
</event>
<event>
 7    1  0.2455451E-009  0.4778727E+02  0.7816164E-02  0.1312668E+00
        -11   -1    0    0    0    0  0.00000000000E+00  0.00000000000E+00  0.45593999997E+02  0.45594000000E+02  0.51100000000E-03 0. -1.
         11   -1    0    0    0    0 -0.00000000000E+00 -0.00000000000E+00 -0.45593999997E+02  0.45594000000E+02  0.51100000000E-03 0.  1.
    9900012    2    1    2    0    0  0.40168625559E+02  0.16380198411E+02 -0.13395080827E+01  0.47787266582E+02  0.19999979656E+02 0.  0.
         12    1    1    2    0    0 -0.40168625559E+02 -0.16380198411E+02  0.13395080827E+01  0.43400733418E+02  0.00000000000E+00 0. -1.
         11    1    3    3    0    0  0.56749838577E+01 -0.78049843030E+00 -0.45114208730E+01  0.72916073769E+01  0.51100000000E-03 0. -1.
        -11    1    3    3    0    0  0.12682665113E+02  0.38358902841E+01 -0.41911085733E+01  0.13897101855E+02  0.51100000000E-03 0.  1.
         12    1    3    3    0    0  0.21810976589E+02  0.13324806557E+02  0.73630213636E+01  0.26598557350E+02  0.00000000000E+00 0. -1.
</event>
<event>
 7    1  0.2455451E-009  0.4778726E+02  0.7816164E-02  0.1312668E+00
        -11   -1    0    0    0    0  0.00000000000E+00  0.00000000000E+00  0.45593999997E+02  0.45594000000E+02  0.51100000000E-03 0. -1.
         11   -1    0    0    0    0 -0.00000000000E+00 -0.00000000000E+00 -0.45593999997E+02  0.45594000000E+02  0.51100000000E-03 0.  1.
    9900012    2    1    2    0    0  0.19515638342E+02 -0.36518764412E+02 -0.13005527986E+02  0.47787262077E+02  0.19999959115E+02 0.  0.
         12    1    1    2    0    0 -0.19515638342E+02  0.36518764412E+02  0.13005527986E+02  0.43400737923E+02  0.00000000000E+00 0. -1.
         11    1    3    3    0    0 -0.29387900416E+00 -0.66880361762E+01 -0.23700309300E+01  0.71016364053E+01  0.51100000000E-03 0. -1.
        -11    1    3    3    0    0  0.68251784985E+00  0.17978548078E+01 -0.19037504082E+01  0.27059893576E+01  0.51100000000E-03 0.  1.
        -12    1    3    3    0    0  0.19126999496E+02 -0.31628583043E+02 -0.87317466478E+01  0.37979636314E+02  0.00000000000E+00 0.  1.
</event>
<event>
 7    1  0.2455451E-009  0.4778727E+02  0.7816164E-02  0.1312668E+00
        -11   -1    0    0    0    0  0.00000000000E+00  0.00000000000E+00  0.45593999997E+02  0.45594000000E+02  0.51100000000E-03 0.  1.
         11   -1    0    0    0    0 -0.00000000000E+00 -0.00000000000E+00 -0.45593999997E+02  0.45594000000E+02  0.51100000000E-03 0. -1.
    9900012    2    1    2    0    0  0.28884501130E+02 -0.30702842749E+02  0.10326871853E+02  0.47787271427E+02  0.20000001743E+02 0.  0.
         12    1    1    2    0    0 -0.28884501130E+02  0.30702842749E+02 -0.10326871853E+02  0.43400728573E+02  0.00000000000E+00 0. -1.
         11    1    3    3    0    0  0.12088426521E+01 -0.18052631876E+01 -0.20752461328E+01  0.30044837339E+01  0.51100000000E-03 0. -1.
        -11    1    3    3    0    0  0.27301550219E+02 -0.22058874779E+02  0.13934958279E+02  0.37764423250E+02  0.51100000000E-03 0.  1.
        -12    1    3    3    0    0  0.37410825853E+00 -0.68387047825E+01 -0.15328402925E+01  0.70183644429E+01  0.00000000000E+00 0.  1.
</event>
<event>
 7    1  0.2455451E-009  0.4778727E+02  0.7816164E-02  0.1312668E+00
        -11   -1    0    0    0    0  0.00000000000E+00  0.00000000000E+00  0.45593999997E+02  0.45594000000E+02  0.51100000000E-03 0. -1.
         11   -1    0    0    0    0 -0.00000000000E+00 -0.00000000000E+00 -0.45593999997E+02  0.45594000000E+02  0.51100000000E-03 0.  1.
    9900012    2    1    2    0    0 -0.26448601646E+02  0.32671695996E+02  0.10800692117E+02  0.47787271913E+02  0.20000003961E+02 0.  0.
         12    1    1    2    0    0  0.26448601646E+02 -0.32671695996E+02 -0.10800692117E+02  0.43400728087E+02  0.00000000000E+00 0. -1.
         11    1    3    3    0    0 -0.27056654196E+01  0.15080198890E-01  0.51955110815E+01  0.58578313764E+01  0.51100000000E-03 0. -1.
        -11    1    3    3    0    0 -0.17125850808E+02  0.24697973784E+02 -0.21423921372E+00  0.30055458300E+02  0.51100000000E-03 0.  1.
        -12    1    3    3    0    0 -0.66170854180E+01  0.79586420134E+01  0.58194202489E+01  0.11873982237E+02  0.00000000000E+00 0.  1.
</event>
<event>
 7    1  0.2455451E-009  0.4778729E+02  0.7816164E-02  0.1312668E+00
        -11   -1    0    0    0    0  0.00000000000E+00  0.00000000000E+00  0.45593999997E+02  0.45594000000E+02  0.51100000000E-03 0.  1.
         11   -1    0    0    0    0 -0.00000000000E+00 -0.00000000000E+00 -0.45593999997E+02  0.45594000000E+02  0.51100000000E-03 0. -1.
    9900012    2    1    2    0    0  0.17808721581E+02 -0.25111658875E+02  0.30592090013E+02  0.47787286328E+02  0.20000069685E+02 0.  0.
         12    1    1    2    0    0 -0.17808721581E+02  0.25111658875E+02 -0.30592090013E+02  0.43400713672E+02  0.00000000000E+00 0. -1.
         11    1    3    3    0    0  0.76571721986E+01 -0.66648609035E+01  0.54540573252E+00  0.10166126333E+02  0.51100000000E-03 0. -1.
        -11    1    3    3    0    0  0.74086473071E+01 -0.62042733990E+01  0.95272580034E+01  0.13570177178E+02  0.51100000000E-03 0.  1.
         12    1    3    3    0    0  0.27429020757E+01 -0.12242524573E+02  0.20519426277E+02  0.24050982817E+02  0.00000000000E+00 0. -1.
</event>
<event>
 7    1  0.2455451E-009  0.4778727E+02  0.7816164E-02  0.1312668E+00
        -11   -1    0    0    0    0  0.00000000000E+00  0.00000000000E+00  0.45593999997E+02  0.45594000000E+02  0.51100000000E-03 0.  1.
         11   -1    0    0    0    0 -0.00000000000E+00 -0.00000000000E+00 -0.45593999997E+02  0.45594000000E+02  0.51100000000E-03 0. -1.
    9900012    2    1    2    0    0 -0.36047610919E+02  0.11981590539E+02  0.20991296743E+02  0.47787270700E+02  0.19999998430E+02 0.  0.
         12    1    1    2    0    0  0.36047610919E+02 -0.11981590539E+02 -0.20991296743E+02  0.43400729300E+02  0.00000000000E+00 0. -1.
         11    1    3    3    0    0 -0.97085709910E+01  0.62638534117E+01 -0.16145796943E+01  0.11666150955E+02  0.51100000000E-03 0. -1.
        -11    1    3    3    0    0 -0.23264620370E+02  0.55322925790E+01  0.22792398723E+02  0.33035469755E+02  0.51100000000E-03 0.  1.
        -12    1    3    3    0    0 -0.30744195582E+01  0.18544454800E+00 -0.18652228531E+00  0.30856499904E+01  0.00000000000E+00 0.  1.
</event>
<event>
 7    1  0.2455451E-009  0.4778727E+02  0.7816164E-02  0.1312668E+00
        -11   -1    0    0    0    0  0.00000000000E+00  0.00000000000E+00  0.45593999997E+02  0.45594000000E+02  0.51100000000E-03 0.  1.
         11   -1    0    0    0    0 -0.00000000000E+00 -0.00000000000E+00 -0.45593999997E+02  0.45594000000E+02  0.51100000000E-03 0. -1.
    9900012    2    1    2    0    0 -0.41600417085E+02  0.99196246238E+01  0.73911972564E+01  0.47787269001E+02  0.19999990683E+02 0.  0.
         12    1    1    2    0    0  0.41600417085E+02 -0.99196246238E+01 -0.73911972564E+01  0.43400730999E+02  0.00000000000E+00 0. -1.
         11    1    3    3    0    0 -0.88374907133E+00  0.16861014129E+01  0.16715542752E+00  0.19109923060E+01  0.51100000000E-03 0. -1.
        -11    1    3    3    0    0 -0.38781769112E+02  0.10978527956E+02  0.29121589917E+01  0.40410819860E+02  0.51100000000E-03 0.  1.
        -12    1    3    3    0    0 -0.19348989022E+01 -0.27450047447E+01  0.43118828372E+01  0.54654568347E+01  0.00000000000E+00 0.  1.
</event>
<event>
 7    1  0.2455451E-009  0.4778727E+02  0.7816164E-02  0.1312668E+00
        -11   -1    0    0    0    0  0.00000000000E+00  0.00000000000E+00  0.45593999997E+02  0.45594000000E+02  0.51100000000E-03 0.  1.
         11   -1    0    0    0    0 -0.00000000000E+00 -0.00000000000E+00 -0.45593999997E+02  0.45594000000E+02  0.51100000000E-03 0. -1.
    9900012    2    1    2    0    0 -0.10666287935E+02 -0.10076230241E+02  0.40845114947E+02  0.47787268103E+02  0.19999986587E+02 0.  0.
         12    1    1    2    0    0  0.10666287935E+02  0.10076230241E+02 -0.40845114947E+02  0.43400731897E+02  0.00000000000E+00 0. -1.
         11    1    3    3    0    0 -0.13103393733E+02 -0.44990111895E+01  0.33418214769E+02  0.36176195317E+02  0.51100000000E-03 0. -1.
        -11    1    3    3    0    0  0.81384201694E+00 -0.68100352363E+01  0.61014651821E+01  0.91796947867E+01  0.51100000000E-03 0.  1.
         12    1    3    3    0    0  0.16232637803E+01  0.12328161849E+01  0.13254349962E+01  0.24313779993E+01  0.00000000000E+00 0. -1.
</event>
<event>
 7    1  0.2455451E-009  0.4778727E+02  0.7816164E-02  0.1312668E+00
        -11   -1    0    0    0    0  0.00000000000E+00  0.00000000000E+00  0.45593999997E+02  0.45594000000E+02  0.51100000000E-03 0.  1.
         11   -1    0    0    0    0 -0.00000000000E+00 -0.00000000000E+00 -0.45593999997E+02  0.45594000000E+02  0.51100000000E-03 0. -1.
    9900012    2    1    2    0    0  0.14337733694E+02 -0.37829518159E+01  0.40788989150E+02  0.47787274570E+02  0.20000016077E+02 0.  0.
         12    1    1    2    0    0 -0.14337733694E+02  0.37829518159E+01 -0.40788989150E+02  0.43400725430E+02  0.00000000000E+00 0. -1.
         11    1    3    3    0    0 -0.16406140532E+01 -0.91935755007E+00  0.20561247591E+02  0.20647075714E+02  0.51100000000E-03 0. -1.
        -11    1    3    3    0    0  0.10696066668E+02 -0.55637653727E+01  0.14896963218E+02  0.19164572541E+02  0.51100000000E-03 0.  1.
         12    1    3    3    0    0  0.52822810793E+01  0.27001711069E+01  0.53307783405E+01  0.79756263154E+01  0.00000000000E+00 0. -1.
</event>
<event>
 7    1  0.2455451E-009  0.4778727E+02  0.7816164E-02  0.1312668E+00
        -11   -1    0    0    0    0  0.00000000000E+00  0.00000000000E+00  0.45593999997E+02  0.45594000000E+02  0.51100000000E-03 0.  1.
         11   -1    0    0    0    0 -0.00000000000E+00 -0.00000000000E+00 -0.45593999997E+02  0.45594000000E+02  0.51100000000E-03 0. -1.
    9900012    2    1    2    0    0  0.32611147106E+02 -0.32822220842E+00  0.28636142665E+02  0.47787270604E+02  0.19999997990E+02 0.  0.
         12    1    1    2    0    0 -0.32611147106E+02  0.32822220842E+00 -0.28636142665E+02  0.43400729396E+02  0.00000000000E+00 0. -1.
         11    1    3    3    0    0 -0.10942353671E+01  0.73990641398E+00 -0.63360517089E+00  0.14650147828E+01  0.51100000000E-03 0. -1.
        -11    1    3    3    0    0  0.21577465771E+02 -0.58488532597E+01  0.22139451305E+02  0.31463493415E+02  0.51100000000E-03 0.  1.
        -12    1    3    3    0    0  0.12127916703E+02  0.47807246373E+01  0.71302965311E+01  0.14858762406E+02  0.00000000000E+00 0.  1.
</event>
<event>
 7    1  0.2455451E-009  0.4778726E+02  0.7816164E-02  0.1312668E+00
        -11   -1    0    0    0    0  0.00000000000E+00  0.00000000000E+00  0.45593999997E+02  0.45594000000E+02  0.51100000000E-03 0.  1.
         11   -1    0    0    0    0 -0.00000000000E+00 -0.00000000000E+00 -0.45593999997E+02  0.45594000000E+02  0.51100000000E-03 0. -1.
    9900012    2    1    2    0    0 -0.80999472586E+01 -0.93814843048E+01  0.41593298040E+02  0.47787264578E+02  0.19999970515E+02 0.  0.
         12    1    1    2    0    0  0.80999472586E+01  0.93814843048E+01 -0.41593298040E+02  0.43400735422E+02  0.00000000000E+00 0. -1.
         11    1    3    3    0    0  0.24779695129E+01 -0.19406581161E+01  0.26172935594E+02  0.26361506875E+02  0.51100000000E-03 0.  1.
        -11    1    3    3    0    0 -0.42073188351E+01 -0.66824009231E+01  0.55434384166E+01  0.96480942998E+01  0.51100000000E-03 0. -1.
        -12    1    3    3    0    0 -0.63705979363E+01 -0.75842526560E+00  0.98769240292E+01  0.11777663403E+02  0.00000000000E+00 0.  1.
</event>
<event>
 7    1  0.2455451E-009  0.4778727E+02  0.7816164E-02  0.1312668E+00
        -11   -1    0    0    0    0  0.00000000000E+00  0.00000000000E+00  0.45593999997E+02  0.45594000000E+02  0.51100000000E-03 0.  1.
         11   -1    0    0    0    0 -0.00000000000E+00 -0.00000000000E+00 -0.45593999997E+02  0.45594000000E+02  0.51100000000E-03 0. -1.
    9900012    2    1    2    0    0  0.17016950886E+02 -0.15755872534E+02  0.36685135513E+02  0.47787270693E+02  0.19999998398E+02 0.  0.
         12    1    1    2    0    0 -0.17016950886E+02  0.15755872534E+02 -0.36685135513E+02  0.43400729307E+02  0.00000000000E+00 0. -1.
         11    1    3    3    0    0  0.51197548043E+01 -0.13329567810E+01  0.16410746799E+00  0.52929759643E+01  0.51100000000E-03 0. -1.
        -11    1    3    3    0    0  0.47047475610E+01 -0.13700572479E+02  0.23732084924E+02  0.27803816122E+02  0.51100000000E-03 0.  1.
         12    1    3    3    0    0  0.71924485204E+01 -0.72234327401E+00  0.12788943121E+02  0.14690478606E+02  0.00000000000E+00 0. -1.
</event>
<event>
 7    1  0.2455451E-009  0.4778727E+02  0.7816164E-02  0.1312668E+00
        -11   -1    0    0    0    0  0.00000000000E+00  0.00000000000E+00  0.45593999997E+02  0.45594000000E+02  0.51100000000E-03 0.  1.
         11   -1    0    0    0    0 -0.00000000000E+00 -0.00000000000E+00 -0.45593999997E+02  0.45594000000E+02  0.51100000000E-03 0. -1.
    9900012    2    1    2    0    0 -0.23762528012E+02  0.35841034260E+02 -0.58639385618E+01  0.47787271322E+02  0.20000001265E+02 0.  0.
         12    1    1    2    0    0  0.23762528012E+02 -0.35841034260E+02  0.58639385618E+01  0.43400728678E+02  0.00000000000E+00 0. -1.
         11    1    3    3    0    0 -0.18105185312E+02  0.22440133307E+02  0.31832459330E+01  0.29008453474E+02  0.51100000000E-03 0.  1.
        -11    1    3    3    0    0 -0.53066214905E+01  0.31628980588E+01 -0.39930908513E+01  0.73558772816E+01  0.51100000000E-03 0. -1.
         12    1    3    3    0    0 -0.35072120945E+00  0.10238002894E+02 -0.50540936436E+01  0.11422940567E+02  0.00000000000E+00 0. -1.
</event>
<event>
 7    1  0.2455451E-009  0.4778727E+02  0.7816164E-02  0.1312668E+00
        -11   -1    0    0    0    0  0.00000000000E+00  0.00000000000E+00  0.45593999997E+02  0.45594000000E+02  0.51100000000E-03 0.  1.
         11   -1    0    0    0    0 -0.00000000000E+00 -0.00000000000E+00 -0.45593999997E+02  0.45594000000E+02  0.51100000000E-03 0. -1.
    9900012    2    1    2    0    0  0.77270635866E+01  0.32161155273E+02  0.28099390588E+02  0.47787272223E+02  0.20000005374E+02 0.  0.
         12    1    1    2    0    0 -0.77270635866E+01 -0.32161155273E+02 -0.28099390588E+02  0.43400727777E+02  0.00000000000E+00 0. -1.
         11    1    3    3    0    0  0.13645466015E+01  0.22565961998E+02  0.26268198561E+02  0.34656931258E+02  0.51100000000E-03 0. -1.
        -11    1    3    3    0    0  0.41076692777E+01  0.15047869318E+01 -0.52841601305E+00  0.44064219441E+01  0.51100000000E-03 0.  1.
         12    1    3    3    0    0  0.22548477074E+01  0.80904063432E+01  0.23596080397E+01  0.87239190209E+01  0.00000000000E+00 0. -1.
</event>
<event>
 7    1  0.2455451E-009  0.4778727E+02  0.7816164E-02  0.1312668E+00
        -11   -1    0    0    0    0  0.00000000000E+00  0.00000000000E+00  0.45593999997E+02  0.45594000000E+02  0.51100000000E-03 0. -1.
         11   -1    0    0    0    0 -0.00000000000E+00 -0.00000000000E+00 -0.45593999997E+02  0.45594000000E+02  0.51100000000E-03 0.  1.
    9900012    2    1    2    0    0 -0.11355605625E+02 -0.92728623910E+01 -0.40849569335E+02  0.47787273383E+02  0.20000010664E+02 0.  0.
         12    1    1    2    0    0  0.11355605625E+02  0.92728623910E+01  0.40849569335E+02  0.43400726617E+02  0.00000000000E+00 0. -1.
         11    1    3    3    0    0 -0.33788995226E+01 -0.51193519633E+00 -0.17050314559E+01  0.38191847502E+01  0.51100000000E-03 0. -1.
        -11    1    3    3    0    0  0.39184331057E+01 -0.69575936514E+01 -0.16156614177E+02  0.18022164391E+02  0.51100000000E-03 0.  1.
        -12    1    3    3    0    0 -0.11895139208E+02 -0.18033335433E+01 -0.22987923702E+02  0.25945924242E+02  0.00000000000E+00 0.  1.
</event>
<event>
 7    1  0.2455451E-009  0.4778727E+02  0.7816164E-02  0.1312668E+00
        -11   -1    0    0    0    0  0.00000000000E+00  0.00000000000E+00  0.45593999997E+02  0.45594000000E+02  0.51100000000E-03 0.  1.
         11   -1    0    0    0    0 -0.00000000000E+00 -0.00000000000E+00 -0.45593999997E+02  0.45594000000E+02  0.51100000000E-03 0. -1.
    9900012    2    1    2    0    0 -0.34071201964E+02  0.47279760787E+00  0.26880351350E+02  0.47787266947E+02  0.19999981319E+02 0.  0.
         12    1    1    2    0    0  0.34071201964E+02 -0.47279760787E+00 -0.26880351350E+02  0.43400733053E+02  0.00000000000E+00 0. -1.
         11    1    3    3    0    0 -0.15955161928E+00 -0.33429251527E+01  0.17998272814E+01  0.37999978684E+01  0.51100000000E-03 0. -1.
        -11    1    3    3    0    0 -0.18313345195E+02  0.54597433148E+01  0.77735679816E+01  0.20630457308E+02  0.51100000000E-03 0.  1.
        -12    1    3    3    0    0 -0.15598305149E+02 -0.16440205543E+01  0.17306956087E+02  0.23356811771E+02  0.00000000000E+00 0.  1.
</event>
<event>
 7    1  0.2455451E-009  0.4778727E+02  0.7816164E-02  0.1312668E+00
        -11   -1    0    0    0    0  0.00000000000E+00  0.00000000000E+00  0.45593999997E+02  0.45594000000E+02  0.51100000000E-03 0. -1.
         11   -1    0    0    0    0 -0.00000000000E+00 -0.00000000000E+00 -0.45593999997E+02  0.45594000000E+02  0.51100000000E-03 0.  1.
    9900012    2    1    2    0    0  0.38018060446E+02  0.43636162090E+01  0.20474605961E+02  0.47787267797E+02  0.19999985193E+02 0.  0.
         12    1    1    2    0    0 -0.38018060446E+02 -0.43636162090E+01 -0.20474605961E+02  0.43400732203E+02  0.00000000000E+00 0. -1.
         11    1    3    3    0    0  0.99411598132E+01  0.13324241688E+01  0.14030212921E+02  0.17246706569E+02  0.51100000000E-03 0. -1.
        -11    1    3    3    0    0  0.61274294168E+01  0.10565244540E+01 -0.25727114670E+01  0.67290771830E+01  0.51100000000E-03 0.  1.
        -12    1    3    3    0    0  0.21949471216E+02  0.19746675862E+01  0.90171045064E+01  0.23811484045E+02  0.00000000000E+00 0.  1.
</event>
<event>
 7    1  0.2455451E-009  0.4778727E+02  0.7816164E-02  0.1312668E+00
        -11   -1    0    0    0    0  0.00000000000E+00  0.00000000000E+00  0.45593999997E+02  0.45594000000E+02  0.51100000000E-03 0. -1.
         11   -1    0    0    0    0 -0.00000000000E+00 -0.00000000000E+00 -0.45593999997E+02  0.45594000000E+02  0.51100000000E-03 0.  1.
    9900012    2    1    2    0    0 -0.36831299552E+02  0.22937996828E+02  0.96278676164E+00  0.47787270933E+02  0.19999999493E+02 0.  0.
         12    1    1    2    0    0  0.36831299552E+02 -0.22937996828E+02 -0.96278676164E+00  0.43400729067E+02  0.00000000000E+00 0. -1.
         11    1    3    3    0    0 -0.50838729204E+01  0.51949051530E+01  0.52908041212E+01  0.89902954306E+01  0.51100000000E-03 0. -1.
        -11    1    3    3    0    0 -0.16415167950E+02  0.12917530647E+02 -0.78980431925E+01  0.22331579062E+02  0.51100000000E-03 0.  1.
        -12    1    3    3    0    0 -0.15332258682E+02  0.48255610275E+01  0.35700258329E+01  0.16465396441E+02  0.00000000000E+00 0.  1.
</event>
<event>
 7    1  0.2455451E-009  0.4778727E+02  0.7816164E-02  0.1312668E+00
        -11   -1    0    0    0    0  0.00000000000E+00  0.00000000000E+00  0.45593999997E+02  0.45594000000E+02  0.51100000000E-03 0.  1.
         11   -1    0    0    0    0 -0.00000000000E+00 -0.00000000000E+00 -0.45593999997E+02  0.45594000000E+02  0.51100000000E-03 0. -1.
    9900012    2    1    2    0    0  0.29543688530E+02  0.26579206509E+02  0.17445337773E+02  0.47787267741E+02  0.19999984939E+02 0.  0.
         12    1    1    2    0    0 -0.29543688530E+02 -0.26579206509E+02 -0.17445337773E+02  0.43400732259E+02  0.00000000000E+00 0. -1.
         11    1    3    3    0    0  0.30082685741E+02  0.24064623981E+02  0.10201749312E+02  0.39851597182E+02  0.51100000000E-03 0. -1.
        -11    1    3    3    0    0 -0.13102884920E+00  0.18981935216E+01  0.68270034797E+01  0.70871915437E+01  0.51100000000E-03 0.  1.
         12    1    3    3    0    0 -0.40796836184E+00  0.61638900698E+00  0.41658498131E+00  0.84847901496E+00  0.00000000000E+00 0. -1.
</event>
<event>
 7    1  0.2455451E-009  0.4778728E+02  0.7816164E-02  0.1312668E+00
        -11   -1    0    0    0    0  0.00000000000E+00  0.00000000000E+00  0.45593999997E+02  0.45594000000E+02  0.51100000000E-03 0. -1.
         11   -1    0    0    0    0 -0.00000000000E+00 -0.00000000000E+00 -0.45593999997E+02  0.45594000000E+02  0.51100000000E-03 0.  1.
    9900012    2    1    2    0    0  0.41437306418E+02  0.12181009996E+02 -0.42656226439E+01  0.47787275302E+02  0.20000019414E+02 0.  0.
         12    1    1    2    0    0 -0.41437306418E+02 -0.12181009996E+02  0.42656226439E+01  0.43400724698E+02  0.00000000000E+00 0. -1.
         11    1    3    3    0    0  0.50368096448E+01 -0.16851971527E+01 -0.40190310253E+01  0.66604768212E+01  0.51100000000E-03 0. -1.
        -11    1    3    3    0    0  0.30939584559E+02  0.11437135738E+02  0.47633352446E+01  0.33327996182E+02  0.51100000000E-03 0.  1.
        -12    1    3    3    0    0  0.54609122145E+01  0.24290714107E+01 -0.50099268632E+01  0.77988022995E+01  0.00000000000E+00 0.  1.
</event>
<event>
 7    1  0.2455451E-009  0.4778727E+02  0.7816164E-02  0.1312668E+00
        -11   -1    0    0    0    0  0.00000000000E+00  0.00000000000E+00  0.45593999997E+02  0.45594000000E+02  0.51100000000E-03 0.  1.
         11   -1    0    0    0    0 -0.00000000000E+00 -0.00000000000E+00 -0.45593999997E+02  0.45594000000E+02  0.51100000000E-03 0. -1.
    9900012    2    1    2    0    0  0.31519603629E+02  0.80982046527E+01  0.28715104543E+02  0.47787267743E+02  0.19999984947E+02 0.  0.
         12    1    1    2    0    0 -0.31519603629E+02 -0.80982046527E+01 -0.28715104543E+02  0.43400732257E+02  0.00000000000E+00 0. -1.
         11    1    3    3    0    0  0.47753259314E+01  0.83009625843E+01  0.10771817587E+02  0.14413249875E+02  0.51100000000E-03 0. -1.
        -11    1    3    3    0    0  0.20080684146E+02 -0.38647798813E+01  0.14223054563E+02  0.24909148534E+02  0.51100000000E-03 0.  1.
         12    1    3    3    0    0  0.66635935513E+01  0.36620219497E+01  0.37202323926E+01  0.84648693334E+01  0.00000000000E+00 0. -1.
</event>
<event>
 7    1  0.2455451E-009  0.4778727E+02  0.7816164E-02  0.1312668E+00
        -11   -1    0    0    0    0  0.00000000000E+00  0.00000000000E+00  0.45593999997E+02  0.45594000000E+02  0.51100000000E-03 0. -1.
         11   -1    0    0    0    0 -0.00000000000E+00 -0.00000000000E+00 -0.45593999997E+02  0.45594000000E+02  0.51100000000E-03 0.  1.
    9900012    2    1    2    0    0 -0.24583520345E+02 -0.58054257351E+01 -0.35292649511E+02  0.47787267863E+02  0.19999985495E+02 0.  0.
         12    1    1    2    0    0  0.24583520345E+02  0.58054257351E+01  0.35292649511E+02  0.43400732137E+02  0.00000000000E+00 0. -1.
         11    1    3    3    0    0 -0.28757289920E+01 -0.66912251538E+01 -0.28245015778E+01  0.78115376668E+01  0.51100000000E-03 0. -1.
        -11    1    3    3    0    0 -0.20819992865E+02  0.27393196857E+01 -0.31028171414E+02  0.37466296812E+02  0.51100000000E-03 0.  1.
        -12    1    3    3    0    0 -0.88779848769E+00 -0.18535202669E+01 -0.14399765189E+01  0.25094333842E+01  0.00000000000E+00 0.  1.
</event>
<event>
 7    1  0.2455451E-009  0.4778727E+02  0.7816164E-02  0.1312668E+00
        -11   -1    0    0    0    0  0.00000000000E+00  0.00000000000E+00  0.45593999997E+02  0.45594000000E+02  0.51100000000E-03 0. -1.
         11   -1    0    0    0    0 -0.00000000000E+00 -0.00000000000E+00 -0.45593999997E+02  0.45594000000E+02  0.51100000000E-03 0.  1.
    9900012    2    1    2    0    0 -0.76232022763E+01 -0.72110442688E+01 -0.42113075677E+02  0.47787268262E+02  0.19999987316E+02 0.  0.
         12    1    1    2    0    0  0.76232022763E+01  0.72110442688E+01  0.42113075677E+02  0.43400731738E+02  0.00000000000E+00 0. -1.
         11    1    3    3    0    0 -0.14611971841E+01 -0.81193512561E+01 -0.34719421010E+02  0.35686091934E+02  0.51100000000E-03 0.  1.
        -11    1    3    3    0    0 -0.37049438205E+00 -0.24213564756E+01 -0.49689196727E+00  0.24994269658E+01  0.51100000000E-03 0. -1.
         12    1    3    3    0    0 -0.57915107102E+01  0.33296634628E+01 -0.68967626999E+01  0.96017493625E+01  0.00000000000E+00 0. -1.
</event>
<event>
 7    1  0.2455451E-009  0.4778727E+02  0.7816164E-02  0.1312668E+00
        -11   -1    0    0    0    0  0.00000000000E+00  0.00000000000E+00  0.45593999997E+02  0.45594000000E+02  0.51100000000E-03 0.  1.
         11   -1    0    0    0    0 -0.00000000000E+00 -0.00000000000E+00 -0.45593999997E+02  0.45594000000E+02  0.51100000000E-03 0. -1.
    9900012    2    1    2    0    0 -0.13032964206E+02  0.60033734182E+01  0.40960036921E+02  0.47787271055E+02  0.20000000049E+02 0.  0.
         12    1    1    2    0    0  0.13032964206E+02 -0.60033734182E+01 -0.40960036921E+02  0.43400728945E+02  0.00000000000E+00 0. -1.
         11    1    3    3    0    0 -0.26951397660E+01  0.89003683860E+00 -0.21837130452E+00  0.28466875874E+01  0.51100000000E-03 0. -1.
        -11    1    3    3    0    0  0.45218622058E+00  0.35942375540E+01  0.17291198525E+01  0.40140841668E+01  0.51100000000E-03 0.  1.
         12    1    3    3    0    0 -0.10790010661E+02  0.15190990257E+01  0.39449288373E+02  0.40926499301E+02  0.00000000000E+00 0. -1.
</event>
<event>
 7    1  0.2455451E-009  0.4778727E+02  0.7816164E-02  0.1312668E+00
        -11   -1    0    0    0    0  0.00000000000E+00  0.00000000000E+00  0.45593999997E+02  0.45594000000E+02  0.51100000000E-03 0.  1.
         11   -1    0    0    0    0 -0.00000000000E+00 -0.00000000000E+00 -0.45593999997E+02  0.45594000000E+02  0.51100000000E-03 0. -1.
    9900012    2    1    2    0    0  0.42290691182E+02  0.16992126541E+01  0.96038273623E+01  0.47787269772E+02  0.19999994200E+02 0.  0.
         12    1    1    2    0    0 -0.42290691182E+02 -0.16992126541E+01 -0.96038273623E+01  0.43400730228E+02  0.00000000000E+00 0. -1.
         11    1    3    3    0    0  0.64170292643E+00 -0.33872522822E+01 -0.20443997696E+01  0.40080957259E+01  0.51100000000E-03 0. -1.
        -11    1    3    3    0    0  0.22712950699E+02  0.21129490306E+01  0.85582752848E+01  0.24363636001E+02  0.51100000000E-03 0.  1.
         12    1    3    3    0    0  0.18936037557E+02  0.29735159056E+01  0.30899518471E+01  0.19415538046E+02  0.00000000000E+00 0. -1.
</event>
<event>
 7    1  0.2455451E-009  0.4778728E+02  0.7816164E-02  0.1312668E+00
        -11   -1    0    0    0    0  0.00000000000E+00  0.00000000000E+00  0.45593999997E+02  0.45594000000E+02  0.51100000000E-03 0.  1.
         11   -1    0    0    0    0 -0.00000000000E+00 -0.00000000000E+00 -0.45593999997E+02  0.45594000000E+02  0.51100000000E-03 0. -1.
    9900012    2    1    2    0    0  0.99976395890E+00 -0.24664257101E+02  0.35697305109E+02  0.47787277675E+02  0.20000030231E+02 0.  0.
         12    1    1    2    0    0 -0.99976395890E+00  0.24664257101E+02 -0.35697305109E+02  0.43400722325E+02  0.00000000000E+00 0. -1.
         11    1    3    3    0    0  0.25584410906E+01  0.11874342652E+01  0.25341172781E+01  0.37917504650E+01  0.51100000000E-03 0. -1.
        -11    1    3    3    0    0 -0.26155015301E+01 -0.14235638563E+01  0.95514382851E+01  0.10004866610E+02  0.51100000000E-03 0.  1.
        -12    1    3    3    0    0  0.10568243985E+01 -0.24428127510E+02  0.23611749546E+02  0.33990660600E+02  0.00000000000E+00 0.  1.
</event>
<event>
 7    1  0.2455451E-009  0.4778727E+02  0.7816164E-02  0.1312668E+00
        -11   -1    0    0    0    0  0.00000000000E+00  0.00000000000E+00  0.45593999997E+02  0.45594000000E+02  0.51100000000E-03 0. -1.
         11   -1    0    0    0    0 -0.00000000000E+00 -0.00000000000E+00 -0.45593999997E+02  0.45594000000E+02  0.51100000000E-03 0.  1.
    9900012    2    1    2    0    0  0.42986324377E+02 -0.57030918175E+01  0.18093287014E+01  0.47787274084E+02  0.20000013857E+02 0.  0.
         12    1    1    2    0    0 -0.42986324377E+02  0.57030918175E+01 -0.18093287014E+01  0.43400725916E+02  0.00000000000E+00 0. -1.
         11    1    3    3    0    0  0.30458451348E+02  0.44700006708E+01 -0.10055026606E+00  0.30784870880E+02  0.51100000000E-03 0. -1.
        -11    1    3    3    0    0  0.11766119763E+02 -0.71316052527E+01  0.16147821354E+01  0.13853118398E+02  0.51100000000E-03 0.  1.
         12    1    3    3    0    0  0.76175326670E+00 -0.30414872356E+01  0.29509683200E+00  0.31492848051E+01  0.00000000000E+00 0. -1.
</event>
<event>
 7    1  0.2455451E-009  0.4778727E+02  0.7816164E-02  0.1312668E+00
        -11   -1    0    0    0    0  0.00000000000E+00  0.00000000000E+00  0.45593999997E+02  0.45594000000E+02  0.51100000000E-03 0.  1.
         11   -1    0    0    0    0 -0.00000000000E+00 -0.00000000000E+00 -0.45593999997E+02  0.45594000000E+02  0.51100000000E-03 0. -1.
    9900012    2    1    2    0    0 -0.19502704606E+02 -0.38246290170E+02  0.63631132747E+01  0.47787269485E+02  0.19999992889E+02 0.  0.
         12    1    1    2    0    0  0.19502704606E+02  0.38246290170E+02 -0.63631132747E+01  0.43400730515E+02  0.00000000000E+00 0. -1.
         11    1    3    3    0    0 -0.27051356033E+00 -0.21160892459E+01  0.52578766872E+01  0.56741764866E+01  0.51100000000E-03 0. -1.
        -11    1    3    3    0    0 -0.59865546119E+01 -0.21071007430E+02 -0.11255363275E+01  0.21933832828E+02  0.51100000000E-03 0.  1.
        -12    1    3    3    0    0 -0.13245636434E+02 -0.15059193494E+02  0.22307729151E+01  0.20179260170E+02  0.00000000000E+00 0.  1.
</event>
<event>
 7    1  0.2455451E-009  0.4778728E+02  0.7816164E-02  0.1312668E+00
        -11   -1    0    0    0    0  0.00000000000E+00  0.00000000000E+00  0.45593999997E+02  0.45594000000E+02  0.51100000000E-03 0.  1.
         11   -1    0    0    0    0 -0.00000000000E+00 -0.00000000000E+00 -0.45593999997E+02  0.45594000000E+02  0.51100000000E-03 0. -1.
    9900012    2    1    2    0    0  0.66718918456E+01 -0.36268307230E+02  0.22884895354E+02  0.47787277823E+02  0.20000030905E+02 0.  0.
         12    1    1    2    0    0 -0.66718918456E+01  0.36268307230E+02 -0.22884895354E+02  0.43400722177E+02  0.00000000000E+00 0. -1.
         11    1    3    3    0    0  0.37474672217E+01 -0.44857872864E+01 -0.87792885865E+00  0.59107154811E+01  0.51100000000E-03 0. -1.
        -11    1    3    3    0    0 -0.45603071425E+01 -0.17158563700E+02  0.95840454665E+01  0.20175892477E+02  0.51100000000E-03 0.  1.
        -12    1    3    3    0    0  0.74847317664E+01 -0.14623956244E+02  0.14178778746E+02  0.21700669865E+02  0.00000000000E+00 0.  1.
</event>
<event>
 7    1  0.2455451E-009  0.4778728E+02  0.7816164E-02  0.1312668E+00
        -11   -1    0    0    0    0  0.00000000000E+00  0.00000000000E+00  0.45593999997E+02  0.45594000000E+02  0.51100000000E-03 0.  1.
         11   -1    0    0    0    0 -0.00000000000E+00 -0.00000000000E+00 -0.45593999997E+02  0.45594000000E+02  0.51100000000E-03 0. -1.
    9900012    2    1    2    0    0  0.26285183493E+02  0.32959197982E+02 -0.10315188518E+02  0.47787277459E+02  0.20000029247E+02 0.  0.
         12    1    1    2    0    0 -0.26285183493E+02 -0.32959197982E+02  0.10315188518E+02  0.43400722541E+02  0.00000000000E+00 0. -1.
         11    1    3    3    0    0  0.31807965517E+01 -0.18180701144E+01 -0.12144550444E+01  0.38597599615E+01  0.51100000000E-03 0. -1.
        -11    1    3    3    0    0  0.84162246645E+01  0.50470647867E+01 -0.21446551960E+01  0.10045160364E+02  0.51100000000E-03 0.  1.
         12    1    3    3    0    0  0.14688162277E+02  0.29730203310E+02 -0.69560782777E+01  0.33882357134E+02  0.00000000000E+00 0. -1.
</event>
<event>
 7    1  0.2455451E-009  0.4778728E+02  0.7816164E-02  0.1312668E+00
        -11   -1    0    0    0    0  0.00000000000E+00  0.00000000000E+00  0.45593999997E+02  0.45594000000E+02  0.51100000000E-03 0.  1.
         11   -1    0    0    0    0 -0.00000000000E+00 -0.00000000000E+00 -0.45593999997E+02  0.45594000000E+02  0.51100000000E-03 0. -1.
    9900012    2    1    2    0    0  0.43133649715E+02  0.46256603298E+01  0.13093508263E+01  0.47787275688E+02  0.20000021171E+02 0.  0.
         12    1    1    2    0    0 -0.43133649715E+02 -0.46256603298E+01 -0.13093508263E+01  0.43400724312E+02  0.00000000000E+00 0. -1.
         11    1    3    3    0    0  0.63778081393E+01 -0.74227947364E+00  0.55060073099E+01  0.84583409860E+01  0.51100000000E-03 0. -1.
        -11    1    3    3    0    0  0.37174042888E+02  0.47424304563E+01 -0.54475335023E+01  0.37869192397E+02  0.51100000000E-03 0.  1.
        -12    1    3    3    0    0 -0.41820131224E+00  0.62550934709E+00  0.12508770187E+01  0.14597423049E+01  0.00000000000E+00 0.  1.
</event>
<event>
 7    1  0.2455451E-009  0.4778727E+02  0.7816164E-02  0.1312668E+00
        -11   -1    0    0    0    0  0.00000000000E+00  0.00000000000E+00  0.45593999997E+02  0.45594000000E+02  0.51100000000E-03 0.  1.
         11   -1    0    0    0    0 -0.00000000000E+00 -0.00000000000E+00 -0.45593999997E+02  0.45594000000E+02  0.51100000000E-03 0. -1.
    9900012    2    1    2    0    0  0.97394623282E+01  0.20274728221E+02  0.37117401868E+02  0.47787271293E+02  0.20000001135E+02 0.  0.
         12    1    1    2    0    0 -0.97394623282E+01 -0.20274728221E+02 -0.37117401868E+02  0.43400728707E+02  0.00000000000E+00 0. -1.
         11    1    3    3    0    0  0.49455541424E+00 -0.29905706555E+01  0.30480458466E+01  0.42986837110E+01  0.51100000000E-03 0. -1.
        -11    1    3    3    0    0  0.49902848175E+00  0.78229723115E+01  0.17644264973E+02  0.19307201038E+02  0.51100000000E-03 0.  1.
         12    1    3    3    0    0  0.87458784322E+01  0.15442326565E+02  0.16425091048E+02  0.24181386545E+02  0.00000000000E+00 0. -1.
</event>
<event>
 7    1  0.2455451E-009  0.4778727E+02  0.7816164E-02  0.1312668E+00
        -11   -1    0    0    0    0  0.00000000000E+00  0.00000000000E+00  0.45593999997E+02  0.45594000000E+02  0.51100000000E-03 0. -1.
         11   -1    0    0    0    0 -0.00000000000E+00 -0.00000000000E+00 -0.45593999997E+02  0.45594000000E+02  0.51100000000E-03 0.  1.
    9900012    2    1    2    0    0 -0.42802410411E+00  0.42993548707E+02  0.59156449464E+01  0.47787270856E+02  0.19999999143E+02 0.  0.
         12    1    1    2    0    0  0.42802410411E+00 -0.42993548707E+02 -0.59156449464E+01  0.43400729144E+02  0.00000000000E+00 0. -1.
         11    1    3    3    0    0  0.68924305224E+00  0.68615882412E+01 -0.41487129014E+01  0.80478735189E+01  0.51100000000E-03 0. -1.
        -11    1    3    3    0    0 -0.59631340199E+01  0.28533159159E+02  0.56032507722E+01  0.29683270683E+02  0.51100000000E-03 0.  1.
        -12    1    3    3    0    0  0.48458668635E+01  0.75988013063E+01  0.44611070757E+01  0.10056126655E+02  0.00000000000E+00 0.  1.
</event>
<event>
 7    1  0.2455451E-009  0.4778727E+02  0.7816164E-02  0.1312668E+00
        -11   -1    0    0    0    0  0.00000000000E+00  0.00000000000E+00  0.45593999997E+02  0.45594000000E+02  0.51100000000E-03 0. -1.
         11   -1    0    0    0    0 -0.00000000000E+00 -0.00000000000E+00 -0.45593999997E+02  0.45594000000E+02  0.51100000000E-03 0.  1.
    9900012    2    1    2    0    0 -0.64827015519E+00 -0.25257625113E+02 -0.35288175437E+02  0.47787271824E+02  0.20000003554E+02 0.  0.
         12    1    1    2    0    0  0.64827015519E+00  0.25257625113E+02  0.35288175437E+02  0.43400728176E+02  0.00000000000E+00 0. -1.
         11    1    3    3    0    0  0.13530132782E+01 -0.31185691503E+01 -0.31346229403E+00  0.34138508092E+01  0.51100000000E-03 0. -1.
        -11    1    3    3    0    0 -0.30124540250E+01 -0.22815942953E+02 -0.36036626101E+02  0.42758397457E+02  0.51100000000E-03 0.  1.
        -12    1    3    3    0    0  0.10111705916E+01  0.67688699001E+00  0.10619129578E+01  0.16150235579E+01  0.00000000000E+00 0.  1.
</event>
<event>
 7    1  0.2455451E-009  0.4778728E+02  0.7816164E-02  0.1312668E+00
        -11   -1    0    0    0    0  0.00000000000E+00  0.00000000000E+00  0.45593999997E+02  0.45594000000E+02  0.51100000000E-03 0.  1.
         11   -1    0    0    0    0 -0.00000000000E+00 -0.00000000000E+00 -0.45593999997E+02  0.45594000000E+02  0.51100000000E-03 0. -1.
    9900012    2    1    2    0    0  0.90256450051E+01  0.41605163485E+02  0.84362836741E+01  0.47787276751E+02  0.20000026016E+02 0.  0.
         12    1    1    2    0    0 -0.90256450051E+01 -0.41605163485E+02 -0.84362836741E+01  0.43400723249E+02  0.00000000000E+00 0. -1.
         11    1    3    3    0    0 -0.18122646099E+01 -0.81135767049E+00  0.26704911320E+01  0.33277811576E+01  0.51100000000E-03 0. -1.
        -11    1    3    3    0    0  0.87988093205E+01  0.26561719699E+02  0.21044410192E+01  0.28060161637E+02  0.51100000000E-03 0.  1.
         12    1    3    3    0    0  0.20391002944E+01  0.15854801456E+02  0.36613515230E+01  0.16399333956E+02  0.00000000000E+00 0. -1.
</event>
<event>
 7    1  0.2455451E-009  0.4778727E+02  0.7816164E-02  0.1312668E+00
        -11   -1    0    0    0    0  0.00000000000E+00  0.00000000000E+00  0.45593999997E+02  0.45594000000E+02  0.51100000000E-03 0.  1.
         11   -1    0    0    0    0 -0.00000000000E+00 -0.00000000000E+00 -0.45593999997E+02  0.45594000000E+02  0.51100000000E-03 0. -1.
    9900012    2    1    2    0    0  0.80327266805E+01  0.16864390384E+02  0.39175135366E+02  0.47787267381E+02  0.19999983296E+02 0.  0.
         12    1    1    2    0    0 -0.80327266805E+01 -0.16864390384E+02 -0.39175135366E+02  0.43400732619E+02  0.00000000000E+00 0. -1.
         11    1    3    3    0    0 -0.50162875205E+01  0.23191131280E+01  0.87406208769E+01  0.10341174003E+02  0.51100000000E-03 0. -1.
        -11    1    3    3    0    0  0.97786666021E+01  0.14578220682E+02  0.28945753626E+02  0.33852673336E+02  0.51100000000E-03 0.  1.
        -12    1    3    3    0    0  0.32703475989E+01 -0.32943426664E-01  0.14887608635E+01  0.35934200417E+01  0.00000000000E+00 0.  1.
</event>
<event>
 7    1  0.2455451E-009  0.4778727E+02  0.7816164E-02  0.1312668E+00
        -11   -1    0    0    0    0  0.00000000000E+00  0.00000000000E+00  0.45593999997E+02  0.45594000000E+02  0.51100000000E-03 0. -1.
         11   -1    0    0    0    0 -0.00000000000E+00 -0.00000000000E+00 -0.45593999997E+02  0.45594000000E+02  0.51100000000E-03 0.  1.
    9900012    2    1    2    0    0 -0.89892167518E+01  0.34430137355E+02  0.24847191937E+02  0.47787270476E+02  0.19999997409E+02 0.  0.
         12    1    1    2    0    0  0.89892167518E+01 -0.34430137355E+02 -0.24847191937E+02  0.43400729524E+02  0.00000000000E+00 0. -1.
         11    1    3    3    0    0 -0.59934790803E+01  0.34505351672E+01 -0.33000151152E+00  0.69236468486E+01  0.51100000000E-03 0. -1.
        -11    1    3    3    0    0 -0.23475787240E+01  0.25720066334E+02  0.16347954130E+02  0.30566133916E+02  0.51100000000E-03 0.  1.
         12    1    3    3    0    0 -0.64815894751E+00  0.52595358535E+01  0.88292393182E+01  0.10297489711E+02  0.00000000000E+00 0. -1.
</event>
<event>
 7    1  0.2455451E-009  0.4778725E+02  0.7816164E-02  0.1312668E+00
        -11   -1    0    0    0    0  0.00000000000E+00  0.00000000000E+00  0.45593999997E+02  0.45594000000E+02  0.51100000000E-03 0.  1.
         11   -1    0    0    0    0 -0.00000000000E+00 -0.00000000000E+00 -0.45593999997E+02  0.45594000000E+02  0.51100000000E-03 0. -1.
    9900012    2    1    2    0    0  0.16253162788E+02 -0.19571951078E+02  0.35162457951E+02  0.47787250942E+02  0.19999908345E+02 0.  0.
         12    1    1    2    0    0 -0.16253162788E+02  0.19571951078E+02 -0.35162457951E+02  0.43400749058E+02  0.00000000000E+00 0. -1.
         11    1    3    3    0    0 -0.72942084272E+00 -0.15757017422E+00  0.23959249262E+01  0.25094500670E+01  0.51100000000E-03 0. -1.
        -11    1    3    3    0    0  0.73085307233E+01 -0.15511193243E+02  0.29886117602E+02  0.34455649213E+02  0.51100000000E-03 0.  1.
        -12    1    3    3    0    0  0.96740529079E+01 -0.39031876601E+01  0.28804154235E+01  0.10822151662E+02  0.00000000000E+00 0.  1.
</event>
<event>
 7    1  0.2455451E-009  0.4778727E+02  0.7816164E-02  0.1312668E+00
        -11   -1    0    0    0    0  0.00000000000E+00  0.00000000000E+00  0.45593999997E+02  0.45594000000E+02  0.51100000000E-03 0. -1.
         11   -1    0    0    0    0 -0.00000000000E+00 -0.00000000000E+00 -0.45593999997E+02  0.45594000000E+02  0.51100000000E-03 0.  1.
    9900012    2    1    2    0    0  0.81665169581E+01 -0.37621319467E+02 -0.20039151995E+02  0.47787270855E+02  0.19999999135E+02 0.  0.
         12    1    1    2    0    0 -0.81665169581E+01  0.37621319467E+02  0.20039151995E+02  0.43400729145E+02  0.00000000000E+00 0. -1.
         11    1    3    3    0    0  0.43393788767E+01 -0.31105019854E+02 -0.10586477645E+02  0.33142510139E+02  0.51100000000E-03 0.  1.
        -11    1    3    3    0    0  0.37535586663E+01 -0.35553753131E+01 -0.47586259193E+00  0.51919497056E+01  0.51100000000E-03 0. -1.
         12    1    3    3    0    0  0.73579415024E-01 -0.29609242997E+01 -0.89768117586E+01  0.94528110099E+01  0.00000000000E+00 0. -1.
</event>
<event>
 7    1  0.2455451E-009  0.4778727E+02  0.7816164E-02  0.1312668E+00
        -11   -1    0    0    0    0  0.00000000000E+00  0.00000000000E+00  0.45593999997E+02  0.45594000000E+02  0.51100000000E-03 0.  1.
         11   -1    0    0    0    0 -0.00000000000E+00 -0.00000000000E+00 -0.45593999997E+02  0.45594000000E+02  0.51100000000E-03 0. -1.
    9900012    2    1    2    0    0 -0.15603933116E+02  0.32632081779E+02  0.23985160593E+02  0.47787269377E+02  0.19999992399E+02 0.  0.
         12    1    1    2    0    0  0.15603933116E+02 -0.32632081779E+02 -0.23985160593E+02  0.43400730623E+02  0.00000000000E+00 0. -1.
         11    1    3    3    0    0 -0.53888534104E+01  0.16762254362E+02  0.16178151599E+01  0.17681352848E+02  0.51100000000E-03 0. -1.
        -11    1    3    3    0    0 -0.57199454530E+01  0.14273707594E+02  0.16817837821E+02  0.22788070864E+02  0.51100000000E-03 0.  1.
         12    1    3    3    0    0 -0.44951342530E+01  0.15961198220E+01  0.55495076124E+01  0.73178456651E+01  0.00000000000E+00 0. -1.
</event>
<event>
 7    1  0.2455451E-009  0.4778727E+02  0.7816164E-02  0.1312668E+00
        -11   -1    0    0    0    0  0.00000000000E+00  0.00000000000E+00  0.45593999997E+02  0.45594000000E+02  0.51100000000E-03 0.  1.
         11   -1    0    0    0    0 -0.00000000000E+00 -0.00000000000E+00 -0.45593999997E+02  0.45594000000E+02  0.51100000000E-03 0. -1.
    9900012    2    1    2    0    0 -0.40439647490E+02 -0.57245417598E+01  0.14679497473E+02  0.47787272891E+02  0.20000008420E+02 0.  0.
         12    1    1    2    0    0  0.40439647490E+02  0.57245417598E+01 -0.14679497473E+02  0.43400727109E+02  0.00000000000E+00 0. -1.
         11    1    3    3    0    0  0.12283435935E+01  0.63515190792E+00 -0.10020452133E+01  0.17077297212E+01  0.51100000000E-03 0. -1.
        -11    1    3    3    0    0 -0.18471215572E+02 -0.21967257354E+01  0.12227649243E+02  0.22260431598E+02  0.51100000000E-03 0.  1.
         12    1    3    3    0    0 -0.23196775512E+02 -0.41629679323E+01  0.34538934432E+01  0.23819111572E+02  0.00000000000E+00 0. -1.
</event>
<event>
 7    1  0.2455451E-009  0.4778727E+02  0.7816164E-02  0.1312668E+00
        -11   -1    0    0    0    0  0.00000000000E+00  0.00000000000E+00  0.45593999997E+02  0.45594000000E+02  0.51100000000E-03 0.  1.
         11   -1    0    0    0    0 -0.00000000000E+00 -0.00000000000E+00 -0.45593999997E+02  0.45594000000E+02  0.51100000000E-03 0. -1.
    9900012    2    1    2    0    0 -0.12747823616E+02 -0.31103316199E+02  0.27453606030E+02  0.47787265334E+02  0.19999973965E+02 0.  0.
         12    1    1    2    0    0  0.12747823616E+02  0.31103316199E+02 -0.27453606030E+02  0.43400734666E+02  0.00000000000E+00 0. -1.
         11    1    3    3    0    0 -0.10910120278E+02 -0.18943987283E+02  0.25234297919E+02  0.33386751420E+02  0.51100000000E-03 0. -1.
        -11    1    3    3    0    0 -0.15325089561E+01 -0.30389517072E+01  0.38410958291E+01  0.51320394200E+01  0.51100000000E-03 0.  1.
         12    1    3    3    0    0 -0.30519438181E+00 -0.91203772090E+01 -0.16217877187E+01  0.92684744942E+01  0.00000000000E+00 0. -1.
</event>
<event>
 7    1  0.2455451E-009  0.4778729E+02  0.7816164E-02  0.1312668E+00
        -11   -1    0    0    0    0  0.00000000000E+00  0.00000000000E+00  0.45593999997E+02  0.45594000000E+02  0.51100000000E-03 0. -1.
         11   -1    0    0    0    0 -0.00000000000E+00 -0.00000000000E+00 -0.45593999997E+02  0.45594000000E+02  0.51100000000E-03 0.  1.
    9900012    2    1    2    0    0 -0.31416552766E+02  0.42547682456E+01 -0.29639818612E+02  0.47787289316E+02  0.20000083307E+02 0.  0.
         12    1    1    2    0    0  0.31416552766E+02 -0.42547682456E+01  0.29639818612E+02  0.43400710684E+02  0.00000000000E+00 0. -1.
         11    1    3    3    0    0 -0.58979356902E+01 -0.30300650084E+01 -0.26691427193E+01  0.71478152241E+01  0.51100000000E-03 0. -1.
        -11    1    3    3    0    0 -0.24365391509E+02  0.10760272115E+02 -0.24733702044E+02  0.36348476948E+02  0.51100000000E-03 0.  1.
        -12    1    3    3    0    0 -0.11532255665E+01 -0.34754388612E+01 -0.22369738486E+01  0.42909971433E+01  0.00000000000E+00 0.  1.
</event>
<event>
 7    1  0.2455451E-009  0.4778727E+02  0.7816164E-02  0.1312668E+00
        -11   -1    0    0    0    0  0.00000000000E+00  0.00000000000E+00  0.45593999997E+02  0.45594000000E+02  0.51100000000E-03 0. -1.
         11   -1    0    0    0    0 -0.00000000000E+00 -0.00000000000E+00 -0.45593999997E+02  0.45594000000E+02  0.51100000000E-03 0.  1.
    9900012    2    1    2    0    0 -0.79473005402E+01 -0.12287391621E+02 -0.40859316320E+02  0.47787270642E+02  0.19999998164E+02 0.  0.
         12    1    1    2    0    0  0.79473005402E+01  0.12287391621E+02  0.40859316320E+02  0.43400729358E+02  0.00000000000E+00 0. -1.
         11    1    3    3    0    0 -0.30327073861E+01  0.58749113935E+00 -0.20434061151E+01  0.37037776311E+01  0.51100000000E-03 0. -1.
        -11    1    3    3    0    0 -0.19665977262E+01 -0.12067723548E+02 -0.12129871444E+02  0.17222985797E+02  0.51100000000E-03 0.  1.
        -12    1    3    3    0    0 -0.29479954280E+01 -0.80715921195E+00 -0.26686038761E+02  0.26860507214E+02  0.00000000000E+00 0.  1.
</event>
<event>
 7    1  0.2455451E-009  0.4778727E+02  0.7816164E-02  0.1312668E+00
        -11   -1    0    0    0    0  0.00000000000E+00  0.00000000000E+00  0.45593999997E+02  0.45594000000E+02  0.51100000000E-03 0.  1.
         11   -1    0    0    0    0 -0.00000000000E+00 -0.00000000000E+00 -0.45593999997E+02  0.45594000000E+02  0.51100000000E-03 0. -1.
    9900012    2    1    2    0    0  0.16818108323E+02 -0.24369248601E+02  0.31731912067E+02  0.47787270878E+02  0.19999999239E+02 0.  0.
         12    1    1    2    0    0 -0.16818108323E+02  0.24369248601E+02 -0.31731912067E+02  0.43400729122E+02  0.00000000000E+00 0. -1.
         11    1    3    3    0    0  0.29551386712E+01 -0.28989085484E+01  0.32232590052E+00  0.41521572207E+01  0.51100000000E-03 0. -1.
        -11    1    3    3    0    0 -0.37428555312E+01 -0.33305824747E+01  0.53055621280E+01  0.72973102513E+01  0.51100000000E-03 0.  1.
        -12    1    3    3    0    0  0.17605825183E+02 -0.18139757578E+02  0.26104024038E+02  0.36337803406E+02  0.00000000000E+00 0.  1.
</event>
<event>
 7    1  0.2455451E-009  0.4778726E+02  0.7816164E-02  0.1312668E+00
        -11   -1    0    0    0    0  0.00000000000E+00  0.00000000000E+00  0.45593999997E+02  0.45594000000E+02  0.51100000000E-03 0.  1.
         11   -1    0    0    0    0 -0.00000000000E+00 -0.00000000000E+00 -0.45593999997E+02  0.45594000000E+02  0.51100000000E-03 0. -1.
    9900012    2    1    2    0    0 -0.29414276700E+01 -0.41361231815E+02  0.12814851299E+02  0.47787263741E+02  0.19999966700E+02 0.  0.
         12    1    1    2    0    0  0.29414276700E+01  0.41361231815E+02 -0.12814851299E+02  0.43400736259E+02  0.00000000000E+00 0. -1.
         11    1    3    3    0    0 -0.82564696912E+01 -0.18057413640E+02  0.10298646463E+02  0.22367422702E+02  0.51100000000E-03 0. -1.
        -11    1    3    3    0    0  0.45974131794E+01 -0.23071261939E+02  0.38979178740E+01  0.23845609647E+02  0.51100000000E-03 0.  1.
        -12    1    3    3    0    0  0.71762884178E+00 -0.23255623619E+00 -0.13817130374E+01  0.15742313919E+01  0.00000000000E+00 0.  1.
</event>
<event>
 7    1  0.2455451E-009  0.4778729E+02  0.7816164E-02  0.1312668E+00
        -11   -1    0    0    0    0  0.00000000000E+00  0.00000000000E+00  0.45593999997E+02  0.45594000000E+02  0.51100000000E-03 0. -1.
         11   -1    0    0    0    0 -0.00000000000E+00 -0.00000000000E+00 -0.45593999997E+02  0.45594000000E+02  0.51100000000E-03 0.  1.
    9900012    2    1    2    0    0 -0.38027084353E+02 -0.18720399300E+02 -0.93332430979E+01  0.47787286630E+02  0.20000071061E+02 0.  0.
         12    1    1    2    0    0  0.38027084353E+02  0.18720399300E+02  0.93332430979E+01  0.43400713370E+02  0.00000000000E+00 0. -1.
         11    1    3    3    0    0 -0.32278544255E+02 -0.16305003412E+02 -0.84677037232E+00  0.36172843070E+02  0.51100000000E-03 0.  1.
        -11    1    3    3    0    0 -0.40372754040E+01  0.64570336905E+00 -0.62041780136E+01  0.74302322046E+01  0.51100000000E-03 0. -1.
        -12    1    3    3    0    0 -0.17112646940E+01 -0.30610992568E+01 -0.22822947120E+01  0.41842113552E+01  0.00000000000E+00 0.  1.
</event>
<event>
 7    1  0.2455451E-009  0.4778728E+02  0.7816164E-02  0.1312668E+00
        -11   -1    0    0    0    0  0.00000000000E+00  0.00000000000E+00  0.45593999997E+02  0.45594000000E+02  0.51100000000E-03 0. -1.
         11   -1    0    0    0    0 -0.00000000000E+00 -0.00000000000E+00 -0.45593999997E+02  0.45594000000E+02  0.51100000000E-03 0.  1.
    9900012    2    1    2    0    0  0.41250097816E+02 -0.76033857444E+01 -0.11146327784E+02  0.47787278028E+02  0.20000031842E+02 0.  0.
         12    1    1    2    0    0 -0.41250097816E+02  0.76033857444E+01  0.11146327784E+02  0.43400721972E+02  0.00000000000E+00 0. -1.
         11    1    3    3    0    0  0.89392882335E+01 -0.65982457809E+01 -0.44439192623E+00  0.11119586591E+02  0.51100000000E-03 0. -1.
        -11    1    3    3    0    0  0.31331541747E+02 -0.29319484624E+01 -0.12496033027E+02  0.33858716333E+02  0.51100000000E-03 0.  1.
        -12    1    3    3    0    0  0.97926783556E+00  0.19268084989E+01  0.17940971696E+01  0.28089751048E+01  0.00000000000E+00 0.  1.
</event>
<event>
 7    1  0.2455451E-009  0.4778727E+02  0.7816164E-02  0.1312668E+00
        -11   -1    0    0    0    0  0.00000000000E+00  0.00000000000E+00  0.45593999997E+02  0.45594000000E+02  0.51100000000E-03 0. -1.
         11   -1    0    0    0    0 -0.00000000000E+00 -0.00000000000E+00 -0.45593999997E+02  0.45594000000E+02  0.51100000000E-03 0.  1.
    9900012    2    1    2    0    0 -0.39653046942E+02 -0.15625672095E+02 -0.81913216762E+01  0.47787268312E+02  0.19999987543E+02 0.  0.
         12    1    1    2    0    0  0.39653046942E+02  0.15625672095E+02  0.81913216762E+01  0.43400731688E+02  0.00000000000E+00 0. -1.
         11    1    3    3    0    0 -0.58096049377E+01 -0.60806410328E+00  0.44432066058E+01  0.73391645770E+01  0.51100000000E-03 0. -1.
        -11    1    3    3    0    0 -0.14670798747E+02 -0.65861867702E+01 -0.10909252023E+02  0.19432497833E+02  0.51100000000E-03 0.  1.
        -12    1    3    3    0    0 -0.19172643257E+02 -0.84314212212E+01 -0.17252762586E+01  0.21015605902E+02  0.00000000000E+00 0.  1.
</event>
<event>
 7    1  0.2455451E-009  0.4778727E+02  0.7816164E-02  0.1312668E+00
        -11   -1    0    0    0    0  0.00000000000E+00  0.00000000000E+00  0.45593999997E+02  0.45594000000E+02  0.51100000000E-03 0. -1.
         11   -1    0    0    0    0 -0.00000000000E+00 -0.00000000000E+00 -0.45593999997E+02  0.45594000000E+02  0.51100000000E-03 0.  1.
    9900012    2    1    2    0    0 -0.31267609111E+02 -0.30017651311E+02 -0.22137234085E+01  0.47787270270E+02  0.19999996470E+02 0.  0.
         12    1    1    2    0    0  0.31267609111E+02  0.30017651311E+02  0.22137234085E+01  0.43400729730E+02  0.00000000000E+00 0. -1.
         11    1    3    3    0    0 -0.10234519384E+02 -0.12246225577E+01 -0.17862555212E+01  0.10461156555E+02  0.51100000000E-03 0. -1.
        -11    1    3    3    0    0 -0.12411959599E+02 -0.17231512526E+02  0.51690209875E+01  0.21856361620E+02  0.51100000000E-03 0.  1.
        -12    1    3    3    0    0 -0.86211301282E+01 -0.11561516227E+02 -0.55964888749E+01  0.15469752095E+02  0.00000000000E+00 0.  1.
</event>
<event>
 7    1  0.2455451E-009  0.4778727E+02  0.7816164E-02  0.1312668E+00
        -11   -1    0    0    0    0  0.00000000000E+00  0.00000000000E+00  0.45593999997E+02  0.45594000000E+02  0.51100000000E-03 0. -1.
         11   -1    0    0    0    0 -0.00000000000E+00 -0.00000000000E+00 -0.45593999997E+02  0.45594000000E+02  0.51100000000E-03 0.  1.
    9900012    2    1    2    0    0  0.36247286669E+02 -0.23863203479E+02 -0.55225683638E+00  0.47787271219E+02  0.20000000794E+02 0.  0.
         12    1    1    2    0    0 -0.36247286669E+02  0.23863203479E+02  0.55225683638E+00  0.43400728781E+02  0.00000000000E+00 0. -1.
         11    1    3    3    0    0  0.11860869085E+02 -0.18270403613E+01 -0.58350473238E+00  0.12014939449E+02  0.51100000000E-03 0. -1.
        -11    1    3    3    0    0  0.92404434399E+01 -0.14326390535E+02 -0.54779087388E+01  0.17906388389E+02  0.51100000000E-03 0.  1.
        -12    1    3    3    0    0  0.15145974144E+02 -0.77097725827E+01  0.55091566348E+01  0.17865943381E+02  0.00000000000E+00 0.  1.
</event>
<event>
 7    1  0.2455451E-009  0.4778727E+02  0.7816164E-02  0.1312668E+00
        -11   -1    0    0    0    0  0.00000000000E+00  0.00000000000E+00  0.45593999997E+02  0.45594000000E+02  0.51100000000E-03 0. -1.
         11   -1    0    0    0    0 -0.00000000000E+00 -0.00000000000E+00 -0.45593999997E+02  0.45594000000E+02  0.51100000000E-03 0.  1.
    9900012    2    1    2    0    0  0.32278094761E+02  0.28942284725E+02  0.20229189205E+01  0.47787269045E+02  0.19999990883E+02 0.  0.
         12    1    1    2    0    0 -0.32278094761E+02 -0.28942284725E+02 -0.20229189205E+01  0.43400730955E+02  0.00000000000E+00 0. -1.
         11    1    3    3    0    0  0.15302168897E+02  0.12637917558E+02  0.73238026155E+01  0.21154465679E+02  0.51100000000E-03 0. -1.
        -11    1    3    3    0    0  0.18468753178E+02  0.16241728211E+02 -0.51777559165E+01  0.25133597749E+02  0.51100000000E-03 0.  1.
         12    1    3    3    0    0 -0.14928273143E+01  0.62638955378E-01 -0.12312777847E+00  0.14992056159E+01  0.00000000000E+00 0. -1.
</event>
<event>
 7    1  0.2455451E-009  0.4778727E+02  0.7816164E-02  0.1312668E+00
        -11   -1    0    0    0    0  0.00000000000E+00  0.00000000000E+00  0.45593999997E+02  0.45594000000E+02  0.51100000000E-03 0.  1.
         11   -1    0    0    0    0 -0.00000000000E+00 -0.00000000000E+00 -0.45593999997E+02  0.45594000000E+02  0.51100000000E-03 0. -1.
    9900012    2    1    2    0    0  0.85802017764E+01  0.21738646744E+02  0.36570952906E+02  0.47787271651E+02  0.20000002764E+02 0.  0.
         12    1    1    2    0    0 -0.85802017764E+01 -0.21738646744E+02 -0.36570952906E+02  0.43400728349E+02  0.00000000000E+00 0. -1.
         11    1    3    3    0    0  0.43497456773E+01  0.14079378525E+02  0.16640208575E+02  0.22227139465E+02  0.51100000000E-03 0. -1.
        -11    1    3    3    0    0  0.11124036151E+00 -0.19395367183E+01 -0.98727044902E+00  0.21791925799E+01  0.51100000000E-03 0.  1.
        -12    1    3    3    0    0  0.41192157376E+01  0.95988049371E+01  0.20918014780E+02  0.23380939606E+02  0.00000000000E+00 0.  1.
</event>
<event>
 7    1  0.2455451E-009  0.4778727E+02  0.7816164E-02  0.1312668E+00
        -11   -1    0    0    0    0  0.00000000000E+00  0.00000000000E+00  0.45593999997E+02  0.45594000000E+02  0.51100000000E-03 0.  1.
         11   -1    0    0    0    0 -0.00000000000E+00 -0.00000000000E+00 -0.45593999997E+02  0.45594000000E+02  0.51100000000E-03 0. -1.
    9900012    2    1    2    0    0 -0.79276872054E+01 -0.22957021072E+02  0.35968737322E+02  0.47787272985E+02  0.20000008846E+02 0.  0.
         12    1    1    2    0    0  0.79276872054E+01  0.22957021072E+02 -0.35968737322E+02  0.43400727015E+02  0.00000000000E+00 0. -1.
         11    1    3    3    0    0 -0.53650480219E+00 -0.14417620405E+02  0.12393902105E+02  0.19020105815E+02  0.51100000000E-03 0. -1.
        -11    1    3    3    0    0 -0.24590235433E+01  0.19132423708E+01  0.78337661955E+00  0.32126270162E+01  0.51100000000E-03 0.  1.
        -12    1    3    3    0    0 -0.49321588599E+01 -0.10452643038E+02  0.22791458597E+02  0.25554540154E+02  0.00000000000E+00 0.  1.
</event>
<event>
 7    1  0.2455451E-009  0.4778728E+02  0.7816164E-02  0.1312668E+00
        -11   -1    0    0    0    0  0.00000000000E+00  0.00000000000E+00  0.45593999997E+02  0.45594000000E+02  0.51100000000E-03 0.  1.
         11   -1    0    0    0    0 -0.00000000000E+00 -0.00000000000E+00 -0.45593999997E+02  0.45594000000E+02  0.51100000000E-03 0. -1.
    9900012    2    1    2    0    0 -0.27965151663E+01 -0.14957965588E+02  0.40645561114E+02  0.47787275699E+02  0.20000021222E+02 0.  0.
         12    1    1    2    0    0  0.27965151663E+01  0.14957965588E+02 -0.40645561114E+02  0.43400724301E+02  0.00000000000E+00 0. -1.
         11    1    3    3    0    0  0.54038731160E+01 -0.11165459119E+02  0.15218602876E+02  0.19633522245E+02  0.51100000000E-03 0. -1.
        -11    1    3    3    0    0 -0.52739707231E+01 -0.12178877155E+01  0.22847146010E+02  0.23479567687E+02  0.51100000000E-03 0.  1.
         12    1    3    3    0    0 -0.29264175592E+01 -0.25746187539E+01  0.25798122273E+01  0.46741857673E+01  0.00000000000E+00 0. -1.
</event>
<event>
 7    1  0.2455451E-009  0.4778727E+02  0.7816164E-02  0.1312668E+00
        -11   -1    0    0    0    0  0.00000000000E+00  0.00000000000E+00  0.45593999997E+02  0.45594000000E+02  0.51100000000E-03 0.  1.
         11   -1    0    0    0    0 -0.00000000000E+00 -0.00000000000E+00 -0.45593999997E+02  0.45594000000E+02  0.51100000000E-03 0. -1.
    9900012    2    1    2    0    0  0.38604589026E+02 -0.17334609750E+02  0.96343246446E+01  0.47787271891E+02  0.20000003859E+02 0.  0.
         12    1    1    2    0    0 -0.38604589026E+02  0.17334609750E+02 -0.96343246446E+01  0.43400728109E+02  0.00000000000E+00 0. -1.
         11    1    3    3    0    0  0.73796089909E+01 -0.87749899196E+01 -0.22847841636E+00  0.11467836744E+02  0.51100000000E-03 0. -1.
        -11    1    3    3    0    0  0.95928386800E+01  0.28924649202E+01  0.55882725658E+01  0.11472475661E+02  0.51100000000E-03 0.  1.
        -12    1    3    3    0    0  0.21632141355E+02 -0.11452084750E+02  0.42745304952E+01  0.24846959486E+02  0.00000000000E+00 0.  1.
</event>
<event>
 7    1  0.2455451E-009  0.4778727E+02  0.7816164E-02  0.1312668E+00
        -11   -1    0    0    0    0  0.00000000000E+00  0.00000000000E+00  0.45593999997E+02  0.45594000000E+02  0.51100000000E-03 0. -1.
         11   -1    0    0    0    0 -0.00000000000E+00 -0.00000000000E+00 -0.45593999997E+02  0.45594000000E+02  0.51100000000E-03 0.  1.
    9900012    2    1    2    0    0 -0.11430216128E+02  0.12388000790E+02 -0.39993890745E+02  0.47787266121E+02  0.19999977553E+02 0.  0.
         12    1    1    2    0    0  0.11430216128E+02 -0.12388000790E+02  0.39993890745E+02  0.43400733879E+02  0.00000000000E+00 0. -1.
         11    1    3    3    0    0 -0.59726152982E+01 -0.37750480501E+01 -0.20881725536E+02  0.22044717800E+02  0.51100000000E-03 0. -1.
        -11    1    3    3    0    0 -0.51747739429E+01  0.12685835529E+02 -0.14361041389E+02  0.19848128841E+02  0.51100000000E-03 0.  1.
         12    1    3    3    0    0 -0.28282688663E+00  0.34772133111E+01 -0.47511238199E+01  0.58944194804E+01  0.00000000000E+00 0. -1.
</event>
<event>
 7    1  0.2455451E-009  0.4778727E+02  0.7816164E-02  0.1312668E+00
        -11   -1    0    0    0    0  0.00000000000E+00  0.00000000000E+00  0.45593999997E+02  0.45594000000E+02  0.51100000000E-03 0.  1.
         11   -1    0    0    0    0 -0.00000000000E+00 -0.00000000000E+00 -0.45593999997E+02  0.45594000000E+02  0.51100000000E-03 0. -1.
    9900012    2    1    2    0    0 -0.13638664956E+02  0.39462240779E+02  0.11846603694E+02  0.47787266732E+02  0.19999980338E+02 0.  0.
         12    1    1    2    0    0  0.13638664956E+02 -0.39462240779E+02 -0.11846603694E+02  0.43400733268E+02  0.00000000000E+00 0. -1.
         11    1    3    3    0    0 -0.13344884374E+02  0.17926312400E+02 -0.42113491520E+00  0.22352090956E+02  0.51100000000E-03 0.  1.
        -11    1    3    3    0    0  0.75935315515E+00  0.84604566084E+01  0.18738582813E+01  0.86986946352E+01  0.51100000000E-03 0. -1.
         12    1    3    3    0    0 -0.10531337368E+01  0.13075471771E+02  0.10393880328E+02  0.16736481141E+02  0.00000000000E+00 0. -1.
</event>
<event>
 7    1  0.2455451E-009  0.4778727E+02  0.7816164E-02  0.1312668E+00
        -11   -1    0    0    0    0  0.00000000000E+00  0.00000000000E+00  0.45593999997E+02  0.45594000000E+02  0.51100000000E-03 0. -1.
         11   -1    0    0    0    0 -0.00000000000E+00 -0.00000000000E+00 -0.45593999997E+02  0.45594000000E+02  0.51100000000E-03 0.  1.
    9900012    2    1    2    0    0 -0.99057000449E+00  0.31604249473E+02 -0.29729002571E+02  0.47787269505E+02  0.19999992979E+02 0.  0.
         12    1    1    2    0    0  0.99057000449E+00 -0.31604249473E+02  0.29729002571E+02  0.43400730495E+02  0.00000000000E+00 0. -1.
         11    1    3    3    0    0  0.37765444872E+01  0.75455855663E+01  0.31666899010E+00  0.84438397256E+01  0.51100000000E-03 0. -1.
        -11    1    3    3    0    0 -0.59948118159E+01  0.22543656119E+02 -0.28649182483E+02  0.36944957127E+02  0.51100000000E-03 0.  1.
        -12    1    3    3    0    0  0.12276973242E+01  0.15150077873E+01 -0.13964890788E+01  0.23984726520E+01  0.00000000000E+00 0.  1.
</event>
<event>
 7    1  0.2455451E-009  0.4778726E+02  0.7816164E-02  0.1312668E+00
        -11   -1    0    0    0    0  0.00000000000E+00  0.00000000000E+00  0.45593999997E+02  0.45594000000E+02  0.51100000000E-03 0.  1.
         11   -1    0    0    0    0 -0.00000000000E+00 -0.00000000000E+00 -0.45593999997E+02  0.45594000000E+02  0.51100000000E-03 0. -1.
    9900012    2    1    2    0    0 -0.12717132201E+02  0.40882626984E+02  0.71070357929E+01  0.47787255786E+02  0.19999930432E+02 0.  0.
         12    1    1    2    0    0  0.12717132201E+02 -0.40882626984E+02 -0.71070357929E+01  0.43400744214E+02  0.00000000000E+00 0. -1.
         11    1    3    3    0    0 -0.11935557787E+02  0.32365941433E+02  0.11931475816E+02  0.36501668728E+02  0.51100000000E-03 0. -1.
        -11    1    3    3    0    0 -0.16715562645E+01  0.88057409836E+01 -0.50970744069E+01  0.10310933148E+02  0.51100000000E-03 0.  1.
         12    1    3    3    0    0  0.88998185073E+00 -0.28905543223E+00  0.27263438430E+00  0.97465391039E+00  0.00000000000E+00 0. -1.
</event>
<event>
 7    1  0.2455451E-009  0.4778727E+02  0.7816164E-02  0.1312668E+00
        -11   -1    0    0    0    0  0.00000000000E+00  0.00000000000E+00  0.45593999997E+02  0.45594000000E+02  0.51100000000E-03 0. -1.
         11   -1    0    0    0    0 -0.00000000000E+00 -0.00000000000E+00 -0.45593999997E+02  0.45594000000E+02  0.51100000000E-03 0.  1.
    9900012    2    1    2    0    0  0.38629488032E+02 -0.11820909142E+02  0.15863546118E+02  0.47787270352E+02  0.19999996843E+02 0.  0.
         12    1    1    2    0    0 -0.38629488032E+02  0.11820909142E+02 -0.15863546118E+02  0.43400729648E+02  0.00000000000E+00 0. -1.
         11    1    3    3    0    0  0.25457587586E+02 -0.94161951922E+01  0.14163534986E+02  0.30616322790E+02  0.51100000000E-03 0. -1.
        -11    1    3    3    0    0  0.11092121746E+02 -0.42685247312E+00  0.55166362588E+01  0.12395589689E+02  0.51100000000E-03 0.  1.
         12    1    3    3    0    0  0.20797786988E+01 -0.19778614766E+01 -0.38166251264E+01  0.47753578727E+01  0.00000000000E+00 0. -1.
</event>
<event>
 7    1  0.2455451E-009  0.4778727E+02  0.7816164E-02  0.1312668E+00
        -11   -1    0    0    0    0  0.00000000000E+00  0.00000000000E+00  0.45593999997E+02  0.45594000000E+02  0.51100000000E-03 0.  1.
         11   -1    0    0    0    0 -0.00000000000E+00 -0.00000000000E+00 -0.45593999997E+02  0.45594000000E+02  0.51100000000E-03 0. -1.
    9900012    2    1    2    0    0 -0.11276757573E+01 -0.15133782610E+02  0.40661046167E+02  0.47787266088E+02  0.19999977404E+02 0.  0.
         12    1    1    2    0    0  0.11276757573E+01  0.15133782610E+02 -0.40661046167E+02  0.43400733912E+02  0.00000000000E+00 0. -1.
         11    1    3    3    0    0  0.22075109641E+01 -0.44940311197E+01  0.40048936535E+01  0.64115983809E+01  0.51100000000E-03 0. -1.
        -11    1    3    3    0    0  0.15004335681E+01  0.36463709748E+01  0.99857448103E+01  0.10736033805E+02  0.51100000000E-03 0.  1.
        -12    1    3    3    0    0 -0.48356202895E+01 -0.14286122465E+02  0.26670407703E+02  0.30639633903E+02  0.00000000000E+00 0.  1.
</event>
<event>
 7    1  0.2455451E-009  0.4778727E+02  0.7816164E-02  0.1312668E+00
        -11   -1    0    0    0    0  0.00000000000E+00  0.00000000000E+00  0.45593999997E+02  0.45594000000E+02  0.51100000000E-03 0.  1.
         11   -1    0    0    0    0 -0.00000000000E+00 -0.00000000000E+00 -0.45593999997E+02  0.45594000000E+02  0.51100000000E-03 0. -1.
    9900012    2    1    2    0    0 -0.26513674543E+02  0.32336781840E+01  0.34208063427E+02  0.47787271714E+02  0.20000003052E+02 0.  0.
         12    1    1    2    0    0  0.26513674543E+02 -0.32336781840E+01 -0.34208063427E+02  0.43400728286E+02  0.00000000000E+00 0. -1.
         11    1    3    3    0    0 -0.22438273821E+00  0.76806866480E+00 -0.50828503976E+00  0.94796151284E+00  0.51100000000E-03 0.  1.
        -11    1    3    3    0    0 -0.19435379426E+02 -0.18450784241E+01  0.12470402401E+02  0.23165690669E+02  0.51100000000E-03 0. -1.
        -12    1    3    3    0    0 -0.68539123784E+01  0.43106879434E+01  0.22245946065E+02  0.23673619532E+02  0.00000000000E+00 0.  1.
</event>
<event>
 7    1  0.2455451E-009  0.4778727E+02  0.7816164E-02  0.1312668E+00
        -11   -1    0    0    0    0  0.00000000000E+00  0.00000000000E+00  0.45593999997E+02  0.45594000000E+02  0.51100000000E-03 0.  1.
         11   -1    0    0    0    0 -0.00000000000E+00 -0.00000000000E+00 -0.45593999997E+02  0.45594000000E+02  0.51100000000E-03 0. -1.
    9900012    2    1    2    0    0  0.12472882777E+02  0.20641646756E+02  0.36082863747E+02  0.47787269111E+02  0.19999991183E+02 0.  0.
         12    1    1    2    0    0 -0.12472882777E+02 -0.20641646756E+02 -0.36082863747E+02  0.43400730889E+02  0.00000000000E+00 0. -1.
         11    1    3    3    0    0  0.21596819793E+01  0.18184657781E+02  0.26362563956E+02  0.32098766074E+02  0.51100000000E-03 0. -1.
        -11    1    3    3    0    0  0.18183272018E+01  0.27863533729E+01  0.48786844324E+01  0.59052215017E+01  0.51100000000E-03 0.  1.
         12    1    3    3    0    0  0.84948735956E+01 -0.32936439811E+00  0.48416153583E+01  0.97832815348E+01  0.00000000000E+00 0. -1.
</event>
<event>
 7    1  0.2455451E-009  0.4778725E+02  0.7816164E-02  0.1312668E+00
        -11   -1    0    0    0    0  0.00000000000E+00  0.00000000000E+00  0.45593999997E+02  0.45594000000E+02  0.51100000000E-03 0.  1.
         11   -1    0    0    0    0 -0.00000000000E+00 -0.00000000000E+00 -0.45593999997E+02  0.45594000000E+02  0.51100000000E-03 0. -1.
    9900012    2    1    2    0    0  0.25675734087E+02  0.34603081851E+02  0.51969294523E+01  0.47787254958E+02  0.19999926655E+02 0.  0.
         12    1    1    2    0    0 -0.25675734087E+02 -0.34603081851E+02 -0.51969294523E+01  0.43400745042E+02  0.00000000000E+00 0. -1.
         11    1    3    3    0    0 -0.22440650017E+01  0.25824352440E+01 -0.24851016558E+01  0.42285375749E+01  0.51100000000E-03 0. -1.
        -11    1    3    3    0    0  0.15899806836E+02  0.15024510926E+02  0.19238880365E+01  0.21959989331E+02  0.51100000000E-03 0.  1.
         12    1    3    3    0    0  0.12019992253E+02  0.16996135681E+02  0.57581430716E+01  0.21598728052E+02  0.00000000000E+00 0. -1.
</event>
<event>
 7    1  0.2455451E-009  0.4778726E+02  0.7816164E-02  0.1312668E+00
        -11   -1    0    0    0    0  0.00000000000E+00  0.00000000000E+00  0.45593999997E+02  0.45594000000E+02  0.51100000000E-03 0.  1.
         11   -1    0    0    0    0 -0.00000000000E+00 -0.00000000000E+00 -0.45593999997E+02  0.45594000000E+02  0.51100000000E-03 0. -1.
    9900012    2    1    2    0    0  0.27970791059E+02  0.12727881162E+02  0.30647346733E+02  0.47787262989E+02  0.19999963272E+02 0.  0.
         12    1    1    2    0    0 -0.27970791059E+02 -0.12727881162E+02 -0.30647346733E+02  0.43400737011E+02  0.00000000000E+00 0. -1.
         11    1    3    3    0    0  0.14112357508E+02  0.32397930435E+01  0.32504511293E+01  0.14839822310E+02  0.51100000000E-03 0. -1.
        -11    1    3    3    0    0  0.13804020715E+02  0.64598352623E+01  0.23548095312E+02  0.28049835162E+02  0.51100000000E-03 0.  1.
         12    1    3    3    0    0  0.54412836267E-01  0.30282528564E+01  0.38488002915E+01  0.48976055172E+01  0.00000000000E+00 0. -1.
</event>
<event>
 7    1  0.2455451E-009  0.4778727E+02  0.7816164E-02  0.1312668E+00
        -11   -1    0    0    0    0  0.00000000000E+00  0.00000000000E+00  0.45593999997E+02  0.45594000000E+02  0.51100000000E-03 0.  1.
         11   -1    0    0    0    0 -0.00000000000E+00 -0.00000000000E+00 -0.45593999997E+02  0.45594000000E+02  0.51100000000E-03 0. -1.
    9900012    2    1    2    0    0  0.25834113120E+02  0.91944579290E+01  0.33640508288E+02  0.47787271260E+02  0.20000000981E+02 0.  0.
         12    1    1    2    0    0 -0.25834113120E+02 -0.91944579290E+01 -0.33640508288E+02  0.43400728740E+02  0.00000000000E+00 0. -1.
         11    1    3    3    0    0  0.11480518901E+01 -0.17472521175E+01  0.27682822814E+01  0.34690488833E+01  0.51100000000E-03 0. -1.
        -11    1    3    3    0    0 -0.24131908790E+00  0.25898301443E+01 -0.11863614611E+01  0.28588299802E+01  0.51100000000E-03 0.  1.
        -12    1    3    3    0    0  0.24927380318E+02  0.83518799022E+01  0.32058587468E+02  0.41459392396E+02  0.00000000000E+00 0.  1.
</event>
<event>
 7    1  0.2455451E-009  0.4778727E+02  0.7816164E-02  0.1312668E+00
        -11   -1    0    0    0    0  0.00000000000E+00  0.00000000000E+00  0.45593999997E+02  0.45594000000E+02  0.51100000000E-03 0.  1.
         11   -1    0    0    0    0 -0.00000000000E+00 -0.00000000000E+00 -0.45593999997E+02  0.45594000000E+02  0.51100000000E-03 0. -1.
    9900012    2    1    2    0    0 -0.16919330511E+02 -0.22828637852E+02  0.32805688698E+02  0.47787266573E+02  0.19999979612E+02 0.  0.
         12    1    1    2    0    0  0.16919330511E+02  0.22828637852E+02 -0.32805688698E+02  0.43400733427E+02  0.00000000000E+00 0. -1.
         11    1    3    3    0    0 -0.13291428592E+02 -0.15747256847E+02  0.14055800061E+02  0.24944011062E+02  0.51100000000E-03 0. -1.
        -11    1    3    3    0    0 -0.55761498459E+01 -0.75207151060E+01  0.93431104901E+01  0.13226802966E+02  0.51100000000E-03 0.  1.
         12    1    3    3    0    0  0.19482479277E+01  0.43933410163E+00  0.94067781472E+01  0.96164525450E+01  0.00000000000E+00 0. -1.
</event>
<event>
 7    1  0.2455451E-009  0.4778727E+02  0.7816164E-02  0.1312668E+00
        -11   -1    0    0    0    0  0.00000000000E+00  0.00000000000E+00  0.45593999997E+02  0.45594000000E+02  0.51100000000E-03 0. -1.
         11   -1    0    0    0    0 -0.00000000000E+00 -0.00000000000E+00 -0.45593999997E+02  0.45594000000E+02  0.51100000000E-03 0.  1.
    9900012    2    1    2    0    0  0.31537494234E+01  0.21633868601E+02 -0.37492037966E+02  0.47787270549E+02  0.19999997740E+02 0.  0.
         12    1    1    2    0    0 -0.31537494234E+01 -0.21633868601E+02  0.37492037966E+02  0.43400729451E+02  0.00000000000E+00 0. -1.
         11    1    3    3    0    0  0.67094598528E+01  0.15588056476E+01 -0.30131139823E+01  0.75183497321E+01  0.51100000000E-03 0. -1.
        -11    1    3    3    0    0 -0.31066378941E+00  0.77542901381E+01 -0.98525855363E+01  0.12541888596E+02  0.51100000000E-03 0.  1.
         12    1    3    3    0    0 -0.32450466400E+01  0.12320772815E+02 -0.24626338447E+02  0.27727032221E+02  0.00000000000E+00 0. -1.
</event>
<event>
 7    1  0.2455451E-009  0.4778727E+02  0.7816164E-02  0.1312668E+00
        -11   -1    0    0    0    0  0.00000000000E+00  0.00000000000E+00  0.45593999997E+02  0.45594000000E+02  0.51100000000E-03 0.  1.
         11   -1    0    0    0    0 -0.00000000000E+00 -0.00000000000E+00 -0.45593999997E+02  0.45594000000E+02  0.51100000000E-03 0. -1.
    9900012    2    1    2    0    0 -0.42488942776E+02 -0.63707926412E+01  0.61421382774E+01  0.47787272820E+02  0.20000008097E+02 0.  0.
         12    1    1    2    0    0  0.42488942776E+02  0.63707926412E+01 -0.61421382774E+01  0.43400727180E+02  0.00000000000E+00 0. -1.
         11    1    3    3    0    0 -0.19575267716E+02  0.20931710616E+01 -0.39636944622E+01  0.20081915877E+02  0.51100000000E-03 0. -1.
        -11    1    3    3    0    0 -0.22491965979E+02 -0.94515268480E+01  0.86264285271E+01  0.25877309805E+02  0.51100000000E-03 0.  1.
         12    1    3    3    0    0 -0.42170908099E+00  0.98756314513E+00  0.14794042125E+01  0.18280471380E+01  0.00000000000E+00 0. -1.
</event>
<event>
 7    1  0.2455451E-009  0.4778726E+02  0.7816164E-02  0.1312668E+00
        -11   -1    0    0    0    0  0.00000000000E+00  0.00000000000E+00  0.45593999997E+02  0.45594000000E+02  0.51100000000E-03 0.  1.
         11   -1    0    0    0    0 -0.00000000000E+00 -0.00000000000E+00 -0.45593999997E+02  0.45594000000E+02  0.51100000000E-03 0. -1.
    9900012    2    1    2    0    0  0.26129555478E+02 -0.33203452180E+02  0.99197376249E+01  0.47787261519E+02  0.19999956569E+02 0.  0.
         12    1    1    2    0    0 -0.26129555478E+02  0.33203452180E+02 -0.99197376249E+01  0.43400738481E+02  0.00000000000E+00 0. -1.
         11    1    3    3    0    0  0.12398757335E+02 -0.26178125355E+02  0.30149859816E+01  0.29122389519E+02  0.51100000000E-03 0. -1.
        -11    1    3    3    0    0 -0.24650312294E-01 -0.28193115003E+01  0.20412606281E+01  0.34807858576E+01  0.51100000000E-03 0.  1.
         12    1    3    3    0    0  0.13755448455E+02 -0.42060153248E+01  0.48634910152E+01  0.15184086142E+02  0.00000000000E+00 0. -1.
</event>
<event>
 7    1  0.2455451E-009  0.4778727E+02  0.7816164E-02  0.1312668E+00
        -11   -1    0    0    0    0  0.00000000000E+00  0.00000000000E+00  0.45593999997E+02  0.45594000000E+02  0.51100000000E-03 0. -1.
         11   -1    0    0    0    0 -0.00000000000E+00 -0.00000000000E+00 -0.45593999997E+02  0.45594000000E+02  0.51100000000E-03 0.  1.
    9900012    2    1    2    0    0  0.92866334519E+01 -0.34377088040E+02 -0.24811236333E+02  0.47787271996E+02  0.20000004336E+02 0.  0.
         12    1    1    2    0    0 -0.92866334519E+01  0.34377088040E+02  0.24811236333E+02  0.43400728004E+02  0.00000000000E+00 0. -1.
         11    1    3    3    0    0  0.53295539279E+01 -0.15347815860E+02 -0.27096390658E+01  0.16471239810E+02  0.51100000000E-03 0. -1.
        -11    1    3    3    0    0  0.70180292721E+01 -0.15793890834E+02 -0.19868853860E+02  0.26333839000E+02  0.51100000000E-03 0.  1.
         12    1    3    3    0    0 -0.30609497482E+01 -0.32353813458E+01 -0.22327434075E+01  0.49821931854E+01  0.00000000000E+00 0. -1.
</event>
<event>
 7    1  0.2455451E-009  0.4778727E+02  0.7816164E-02  0.1312668E+00
        -11   -1    0    0    0    0  0.00000000000E+00  0.00000000000E+00  0.45593999997E+02  0.45594000000E+02  0.51100000000E-03 0.  1.
         11   -1    0    0    0    0 -0.00000000000E+00 -0.00000000000E+00 -0.45593999997E+02  0.45594000000E+02  0.51100000000E-03 0. -1.
    9900012    2    1    2    0    0  0.26329983384E+02  0.34444632318E+02  0.19804827841E+01  0.47787273824E+02  0.20000012675E+02 0.  0.
         12    1    1    2    0    0 -0.26329983384E+02 -0.34444632318E+02 -0.19804827841E+01  0.43400726176E+02  0.00000000000E+00 0. -1.
         11    1    3    3    0    0  0.79679160192E+01  0.17889921177E+02 -0.71943699333E+01  0.20863746653E+02  0.51100000000E-03 0. -1.
        -11    1    3    3    0    0  0.16369037949E+02  0.16193735800E+02  0.72779721405E+01  0.24148527104E+02  0.51100000000E-03 0.  1.
         12    1    3    3    0    0  0.19930294161E+01  0.36097533999E+00  0.18968805769E+01  0.27750000672E+01  0.00000000000E+00 0. -1.
</event>
<event>
 7    1  0.2455451E-009  0.4778728E+02  0.7816164E-02  0.1312668E+00
        -11   -1    0    0    0    0  0.00000000000E+00  0.00000000000E+00  0.45593999997E+02  0.45594000000E+02  0.51100000000E-03 0.  1.
         11   -1    0    0    0    0 -0.00000000000E+00 -0.00000000000E+00 -0.45593999997E+02  0.45594000000E+02  0.51100000000E-03 0. -1.
    9900012    2    1    2    0    0  0.17758168508E+02  0.19214882082E+02  0.34627417448E+02  0.47787282479E+02  0.20000052136E+02 0.  0.
         12    1    1    2    0    0 -0.17758168508E+02 -0.19214882082E+02 -0.34627417448E+02  0.43400717521E+02  0.00000000000E+00 0. -1.
         11    1    3    3    0    0 -0.27245007335E+00  0.10791570995E+02  0.19385242201E+02  0.22188281796E+02  0.51100000000E-03 0. -1.
        -11    1    3    3    0    0  0.15329576630E+02  0.67640519890E+01  0.10117847432E+02  0.19573429844E+02  0.51100000000E-03 0.  1.
         12    1    3    3    0    0  0.27010419518E+01  0.16592590978E+01  0.51243278157E+01  0.60255708395E+01  0.00000000000E+00 0. -1.
</event>
<event>
 7    1  0.2455451E-009  0.4778729E+02  0.7816164E-02  0.1312668E+00
        -11   -1    0    0    0    0  0.00000000000E+00  0.00000000000E+00  0.45593999997E+02  0.45594000000E+02  0.51100000000E-03 0.  1.
         11   -1    0    0    0    0 -0.00000000000E+00 -0.00000000000E+00 -0.45593999997E+02  0.45594000000E+02  0.51100000000E-03 0. -1.
    9900012    2    1    2    0    0 -0.81928244492E+01 -0.17702843485E+00  0.42620044709E+02  0.47787286612E+02  0.20000070980E+02 0.  0.
         12    1    1    2    0    0  0.81928244492E+01  0.17702843485E+00 -0.42620044709E+02  0.43400713388E+02  0.00000000000E+00 0. -1.
         11    1    3    3    0    0  0.83388876481E+00  0.44211699437E+00  0.22552564094E+02  0.22572305717E+02  0.51100000000E-03 0. -1.
        -11    1    3    3    0    0 -0.58778404258E+01 -0.55066830313E+01  0.61562397857E+01  0.10137645419E+02  0.51100000000E-03 0.  1.
        -12    1    3    3    0    0 -0.31488727882E+01  0.48875376021E+01  0.13911240830E+02  0.15077335477E+02  0.00000000000E+00 0.  1.
</event>
<event>
 7    1  0.2455451E-009  0.4778728E+02  0.7816164E-02  0.1312668E+00
        -11   -1    0    0    0    0  0.00000000000E+00  0.00000000000E+00  0.45593999997E+02  0.45594000000E+02  0.51100000000E-03 0. -1.
         11   -1    0    0    0    0 -0.00000000000E+00 -0.00000000000E+00 -0.45593999997E+02  0.45594000000E+02  0.51100000000E-03 0.  1.
    9900012    2    1    2    0    0  0.16072504611E+02  0.13696913198E+02  0.37916909578E+02  0.47787275725E+02  0.20000021341E+02 0.  0.
         12    1    1    2    0    0 -0.16072504611E+02 -0.13696913198E+02 -0.37916909578E+02  0.43400724275E+02  0.00000000000E+00 0. -1.
         11    1    3    3    0    0  0.10147701425E+02 -0.24248549904E+01  0.14507037508E+02  0.17869244625E+02  0.51100000000E-03 0. -1.
        -11    1    3    3    0    0  0.21471210899E+01  0.10687788842E+01  0.86898677948E+00  0.25509910941E+01  0.51100000000E-03 0.  1.
         12    1    3    3    0    0  0.37776820963E+01  0.15052989304E+02  0.22540885291E+02  0.27367040006E+02  0.00000000000E+00 0. -1.
</event>
<event>
 7    1  0.2455451E-009  0.4778727E+02  0.7816164E-02  0.1312668E+00
        -11   -1    0    0    0    0  0.00000000000E+00  0.00000000000E+00  0.45593999997E+02  0.45594000000E+02  0.51100000000E-03 0.  1.
         11   -1    0    0    0    0 -0.00000000000E+00 -0.00000000000E+00 -0.45593999997E+02  0.45594000000E+02  0.51100000000E-03 0. -1.
    9900012    2    1    2    0    0 -0.10297054055E+02  0.11722237930E+02  0.40499175843E+02  0.47787269266E+02  0.19999991890E+02 0.  0.
         12    1    1    2    0    0  0.10297054055E+02 -0.11722237930E+02 -0.40499175843E+02  0.43400730734E+02  0.00000000000E+00 0. -1.
         11    1    3    3    0    0 -0.86775914704E+00 -0.29864509055E+00 -0.16768704654E+01  0.19115673271E+01  0.51100000000E-03 0. -1.
        -11    1    3    3    0    0 -0.77860010607E+01  0.86931281756E+01  0.39783799083E+02  0.41460136996E+02  0.51100000000E-03 0.  1.
        -12    1    3    3    0    0 -0.16432938472E+01  0.33277548447E+01  0.23922472256E+01  0.44155649427E+01  0.00000000000E+00 0.  1.
</event>
<event>
 7    1  0.2455451E-009  0.4778724E+02  0.7816164E-02  0.1312668E+00
        -11   -1    0    0    0    0  0.00000000000E+00  0.00000000000E+00  0.45593999997E+02  0.45594000000E+02  0.51100000000E-03 0. -1.
         11   -1    0    0    0    0 -0.00000000000E+00 -0.00000000000E+00 -0.45593999997E+02  0.45594000000E+02  0.51100000000E-03 0.  1.
    9900012    2    1    2    0    0  0.34575877868E+02  0.25043938740E+02 -0.78061375635E+01  0.47787239849E+02  0.19999857769E+02 0.  0.
         12    1    1    2    0    0 -0.34575877868E+02 -0.25043938740E+02  0.78061375635E+01  0.43400760151E+02  0.00000000000E+00 0. -1.
         11    1    3    3    0    0  0.40769384652E+01  0.24331247946E+01  0.45390834805E+01  0.65684703409E+01  0.51100000000E-03 0. -1.
        -11    1    3    3    0    0  0.30835054452E+02  0.20246855426E+02 -0.11078454167E+02  0.38515813437E+02  0.51100000000E-03 0.  1.
        -12    1    3    3    0    0 -0.33611504856E+00  0.23639585191E+01 -0.12667668774E+01  0.27029560720E+01  0.00000000000E+00 0.  1.
</event>
<event>
 7    1  0.2455451E-009  0.4778728E+02  0.7816164E-02  0.1312668E+00
        -11   -1    0    0    0    0  0.00000000000E+00  0.00000000000E+00  0.45593999997E+02  0.45594000000E+02  0.51100000000E-03 0.  1.
         11   -1    0    0    0    0 -0.00000000000E+00 -0.00000000000E+00 -0.45593999997E+02  0.45594000000E+02  0.51100000000E-03 0. -1.
    9900012    2    1    2    0    0  0.27620371326E+02 -0.20993247861E+02  0.26077210903E+02  0.47787282305E+02  0.20000051340E+02 0.  0.
         12    1    1    2    0    0 -0.27620371326E+02  0.20993247861E+02 -0.26077210903E+02  0.43400717695E+02  0.00000000000E+00 0. -1.
         11    1    3    3    0    0  0.36897351036E+01 -0.17888324528E+00 -0.95437253465E-01  0.36953014600E+01  0.51100000000E-03 0. -1.
        -11    1    3    3    0    0 -0.22303704519E+01 -0.14472001868E+01  0.36249534560E+01  0.44954675566E+01  0.51100000000E-03 0.  1.
        -12    1    3    3    0    0  0.26161006674E+02 -0.19367164429E+02  0.22547694701E+02  0.39596513288E+02  0.00000000000E+00 0.  1.
</event>
<event>
 7    1  0.2455451E-009  0.4778727E+02  0.7816164E-02  0.1312668E+00
        -11   -1    0    0    0    0  0.00000000000E+00  0.00000000000E+00  0.45593999997E+02  0.45594000000E+02  0.51100000000E-03 0.  1.
         11   -1    0    0    0    0 -0.00000000000E+00 -0.00000000000E+00 -0.45593999997E+02  0.45594000000E+02  0.51100000000E-03 0. -1.
    9900012    2    1    2    0    0  0.27270235100E+02 -0.10021369910E+01  0.33748383373E+02  0.47787269807E+02  0.19999994359E+02 0.  0.
         12    1    1    2    0    0 -0.27270235100E+02  0.10021369910E+01 -0.33748383373E+02  0.43400730193E+02  0.00000000000E+00 0. -1.
         11    1    3    3    0    0  0.17956177965E+02  0.83429443505E+00  0.79604965776E+01  0.19659345878E+02  0.51100000000E-03 0. -1.
        -11    1    3    3    0    0  0.94864808374E+01 -0.18279060285E+01  0.26067023309E+02  0.27799716969E+02  0.51100000000E-03 0.  1.
         12    1    3    3    0    0 -0.17242370259E+00 -0.85253975350E-02 -0.27913651327E+00  0.32820696010E+00  0.00000000000E+00 0. -1.
</event>
<event>
 7    1  0.2455451E-009  0.4778727E+02  0.7816164E-02  0.1312668E+00
        -11   -1    0    0    0    0  0.00000000000E+00  0.00000000000E+00  0.45593999997E+02  0.45594000000E+02  0.51100000000E-03 0.  1.
         11   -1    0    0    0    0 -0.00000000000E+00 -0.00000000000E+00 -0.45593999997E+02  0.45594000000E+02  0.51100000000E-03 0. -1.
    9900012    2    1    2    0    0 -0.29322413001E+02 -0.12742163332E+02  0.29350583416E+02  0.47787269851E+02  0.19999994561E+02 0.  0.
         12    1    1    2    0    0  0.29322413001E+02  0.12742163332E+02 -0.29350583416E+02  0.43400730149E+02  0.00000000000E+00 0. -1.
         11    1    3    3    0    0 -0.43725512948E+01 -0.57622455833E-01  0.37608745081E+01  0.57677294059E+01  0.51100000000E-03 0. -1.
        -11    1    3    3    0    0 -0.10365769921E+02  0.29924504081E+01  0.13991795417E+02  0.17668454509E+02  0.51100000000E-03 0.  1.
        -12    1    3    3    0    0 -0.14584091785E+02 -0.15676991284E+02  0.11597913491E+02  0.24351085936E+02  0.00000000000E+00 0.  1.
</event>
<event>
 7    1  0.2455451E-009  0.4778728E+02  0.7816164E-02  0.1312668E+00
        -11   -1    0    0    0    0  0.00000000000E+00  0.00000000000E+00  0.45593999997E+02  0.45594000000E+02  0.51100000000E-03 0.  1.
         11   -1    0    0    0    0 -0.00000000000E+00 -0.00000000000E+00 -0.45593999997E+02  0.45594000000E+02  0.51100000000E-03 0. -1.
    9900012    2    1    2    0    0  0.79066181108E+01 -0.54663413316E+01  0.42322892358E+02  0.47787277482E+02  0.20000029354E+02 0.  0.
         12    1    1    2    0    0 -0.79066181108E+01  0.54663413316E+01 -0.42322892358E+02  0.43400722518E+02  0.00000000000E+00 0. -1.
         11    1    3    3    0    0  0.37170143372E+01 -0.43599729516E+01  0.57151365810E+01  0.80924870171E+01  0.51100000000E-03 0. -1.
        -11    1    3    3    0    0 -0.22634406662E+01  0.55999390470E+01  0.14597224020E+02  0.15797513422E+02  0.51100000000E-03 0.  1.
        -12    1    3    3    0    0  0.64530444398E+01 -0.67063074270E+01  0.22010531757E+02  0.23897277043E+02  0.00000000000E+00 0.  1.
</event>
<event>
 7    1  0.2455451E-009  0.4778728E+02  0.7816164E-02  0.1312668E+00
        -11   -1    0    0    0    0  0.00000000000E+00  0.00000000000E+00  0.45593999997E+02  0.45594000000E+02  0.51100000000E-03 0.  1.
         11   -1    0    0    0    0 -0.00000000000E+00 -0.00000000000E+00 -0.45593999997E+02  0.45594000000E+02  0.51100000000E-03 0. -1.
    9900012    2    1    2    0    0 -0.34581827767E+02  0.26090637886E+02  0.26454846722E+01  0.47787276663E+02  0.20000025616E+02 0.  0.
         12    1    1    2    0    0  0.34581827767E+02 -0.26090637886E+02 -0.26454846722E+01  0.43400723337E+02  0.00000000000E+00 0. -1.
         11    1    3    3    0    0  0.26680359762E+00  0.44528411923E+00  0.11736478092E+01  0.12833205163E+01  0.51100000000E-03 0. -1.
        -11    1    3    3    0    0 -0.15576200446E+02  0.15933283696E+01  0.71448803027E+00  0.15673774562E+02  0.51100000000E-03 0.  1.
        -12    1    3    3    0    0 -0.19272430919E+02  0.24052025398E+02  0.75734883275E+00  0.30830181584E+02  0.00000000000E+00 0.  1.
</event>
<event>
 7    1  0.2455451E-009  0.4778727E+02  0.7816164E-02  0.1312668E+00
        -11   -1    0    0    0    0  0.00000000000E+00  0.00000000000E+00  0.45593999997E+02  0.45594000000E+02  0.51100000000E-03 0. -1.
         11   -1    0    0    0    0 -0.00000000000E+00 -0.00000000000E+00 -0.45593999997E+02  0.45594000000E+02  0.51100000000E-03 0.  1.
    9900012    2    1    2    0    0 -0.45281270619E+01  0.81272491707E+01 -0.42391829813E+02  0.47787270183E+02  0.19999996073E+02 0.  0.
         12    1    1    2    0    0  0.45281270619E+01 -0.81272491707E+01  0.42391829813E+02  0.43400729817E+02  0.00000000000E+00 0. -1.
         11    1    3    3    0    0 -0.32214882249E+01  0.35619557401E+01 -0.10873566290E+02  0.11886965937E+02  0.51100000000E-03 0. -1.
        -11    1    3    3    0    0 -0.74525277112E+01  0.26698507160E+00 -0.24569108889E+02  0.25675914047E+02  0.51100000000E-03 0.  1.
        -12    1    3    3    0    0  0.61458888742E+01  0.42983083590E+01 -0.69491546341E+01  0.10224390199E+02  0.00000000000E+00 0.  1.
</event>
<event>
 7    1  0.2455451E-009  0.4778727E+02  0.7816164E-02  0.1312668E+00
        -11   -1    0    0    0    0  0.00000000000E+00  0.00000000000E+00  0.45593999997E+02  0.45594000000E+02  0.51100000000E-03 0.  1.
         11   -1    0    0    0    0 -0.00000000000E+00 -0.00000000000E+00 -0.45593999997E+02  0.45594000000E+02  0.51100000000E-03 0. -1.
    9900012    2    1    2    0    0 -0.48258152639E+01  0.53560093450E+01  0.42797754321E+02  0.47787273002E+02  0.20000008924E+02 0.  0.
         12    1    1    2    0    0  0.48258152639E+01 -0.53560093450E+01 -0.42797754321E+02  0.43400726998E+02  0.00000000000E+00 0. -1.
         11    1    3    3    0    0 -0.26839614627E+01 -0.63094397762E+01  0.12264266414E+02  0.14050797499E+02  0.51100000000E-03 0. -1.
        -11    1    3    3    0    0 -0.50172705313E+01  0.90951467732E+01  0.20362808527E+02  0.22859104745E+02  0.51100000000E-03 0.  1.
        -12    1    3    3    0    0  0.28754167300E+01  0.25703023480E+01  0.10170679381E+02  0.10877370758E+02  0.00000000000E+00 0.  1.
</event>
<event>
 7    1  0.2455451E-009  0.4778727E+02  0.7816164E-02  0.1312668E+00
        -11   -1    0    0    0    0  0.00000000000E+00  0.00000000000E+00  0.45593999997E+02  0.45594000000E+02  0.51100000000E-03 0.  1.
         11   -1    0    0    0    0 -0.00000000000E+00 -0.00000000000E+00 -0.45593999997E+02  0.45594000000E+02  0.51100000000E-03 0. -1.
    9900012    2    1    2    0    0  0.92720421949E+00 -0.21869187054E+02  0.37476689753E+02  0.47787270456E+02  0.19999997318E+02 0.  0.
         12    1    1    2    0    0 -0.92720421949E+00  0.21869187054E+02 -0.37476689753E+02  0.43400729544E+02  0.00000000000E+00 0. -1.
         11    1    3    3    0    0 -0.58438895330E+01 -0.10183639332E+02  0.14367804588E+02  0.18555089972E+02  0.51100000000E-03 0. -1.
        -11    1    3    3    0    0  0.80274794932E+01 -0.61423947852E+01  0.20744921540E+02  0.23076421097E+02  0.51100000000E-03 0.  1.
         12    1    3    3    0    0 -0.12563857407E+01 -0.55431529364E+01  0.23639636250E+01  0.61557593867E+01  0.00000000000E+00 0. -1.
</event>
<event>
 7    1  0.2455451E-009  0.4778727E+02  0.7816164E-02  0.1312668E+00
        -11   -1    0    0    0    0  0.00000000000E+00  0.00000000000E+00  0.45593999997E+02  0.45594000000E+02  0.51100000000E-03 0.  1.
         11   -1    0    0    0    0 -0.00000000000E+00 -0.00000000000E+00 -0.45593999997E+02  0.45594000000E+02  0.51100000000E-03 0. -1.
    9900012    2    1    2    0    0  0.10613361747E+01  0.20130031275E+02  0.38435382692E+02  0.47787271477E+02  0.20000001973E+02 0.  0.
         12    1    1    2    0    0 -0.10613361747E+01 -0.20130031275E+02 -0.38435382692E+02  0.43400728523E+02  0.00000000000E+00 0. -1.
         11    1    3    3    0    0 -0.36839359627E+01 -0.86813082181E+00  0.24390097027E+01  0.45026441001E+01  0.51100000000E-03 0. -1.
        -11    1    3    3    0    0  0.25844373697E+01  0.21503560327E+02  0.33924340146E+02  0.40248518952E+02  0.51100000000E-03 0.  1.
        -12    1    3    3    0    0  0.21608347677E+01 -0.50539822958E+00  0.20720328435E+01  0.30361084250E+01  0.00000000000E+00 0.  1.
</event>
<event>
 7    1  0.2455451E-009  0.4778727E+02  0.7816164E-02  0.1312668E+00
        -11   -1    0    0    0    0  0.00000000000E+00  0.00000000000E+00  0.45593999997E+02  0.45594000000E+02  0.51100000000E-03 0. -1.
         11   -1    0    0    0    0 -0.00000000000E+00 -0.00000000000E+00 -0.45593999997E+02  0.45594000000E+02  0.51100000000E-03 0.  1.
    9900012    2    1    2    0    0 -0.31439346644E+02 -0.22231070837E+02 -0.20024245413E+02  0.47787269219E+02  0.19999991675E+02 0.  0.
         12    1    1    2    0    0  0.31439346644E+02  0.22231070837E+02  0.20024245413E+02  0.43400730781E+02  0.00000000000E+00 0. -1.
         11    1    3    3    0    0 -0.14252897320E+02  0.28533416333E+00 -0.61839961329E+01  0.15539250498E+02  0.51100000000E-03 0. -1.
        -11    1    3    3    0    0 -0.58431507677E+01 -0.13242659219E+02 -0.67577624134E+01  0.15974285185E+02  0.51100000000E-03 0.  1.
        -12    1    3    3    0    0 -0.11343298557E+02 -0.92737457815E+01 -0.70824868670E+01  0.16273733536E+02  0.00000000000E+00 0.  1.
</event>
<event>
 7    1  0.2455451E-009  0.4778728E+02  0.7816164E-02  0.1312668E+00
        -11   -1    0    0    0    0  0.00000000000E+00  0.00000000000E+00  0.45593999997E+02  0.45594000000E+02  0.51100000000E-03 0.  1.
         11   -1    0    0    0    0 -0.00000000000E+00 -0.00000000000E+00 -0.45593999997E+02  0.45594000000E+02  0.51100000000E-03 0. -1.
    9900012    2    1    2    0    0  0.41868653500E+02 -0.39402891703E+01  0.10729051368E+02  0.47787279178E+02  0.20000037082E+02 0.  0.
         12    1    1    2    0    0 -0.41868653500E+02  0.39402891703E+01 -0.10729051368E+02  0.43400720822E+02  0.00000000000E+00 0. -1.
         11    1    3    3    0    0 -0.62146296424E+00 -0.97866347698E-01 -0.10992195093E+01  0.12665219417E+01  0.51100000000E-03 0. -1.
        -11    1    3    3    0    0  0.27491429521E+02 -0.92050097869E+01  0.63712879434E+01  0.29683399614E+02  0.51100000000E-03 0.  1.
        -12    1    3    3    0    0  0.14998686943E+02  0.53625869643E+01  0.54569829344E+01  0.16837357622E+02  0.00000000000E+00 0.  1.
</event>
<event>
 7    1  0.2455451E-009  0.4778727E+02  0.7816164E-02  0.1312668E+00
        -11   -1    0    0    0    0  0.00000000000E+00  0.00000000000E+00  0.45593999997E+02  0.45594000000E+02  0.51100000000E-03 0.  1.
         11   -1    0    0    0    0 -0.00000000000E+00 -0.00000000000E+00 -0.45593999997E+02  0.45594000000E+02  0.51100000000E-03 0. -1.
    9900012    2    1    2    0    0 -0.10094583765E+01  0.14766356670E+02  0.40799007354E+02  0.47787270783E+02  0.19999998806E+02 0.  0.
         12    1    1    2    0    0  0.10094583765E+01 -0.14766356670E+02 -0.40799007354E+02  0.43400729217E+02  0.00000000000E+00 0. -1.
         11    1    3    3    0    0 -0.19868825099E+01  0.11421968552E+02  0.16589107506E+02  0.20238763693E+02  0.51100000000E-03 0. -1.
        -11    1    3    3    0    0  0.67221865036E+01  0.28360965555E+01  0.15031467727E+02  0.16708568382E+02  0.51100000000E-03 0.  1.
        -12    1    3    3    0    0 -0.57447623702E+01  0.50829156263E+00  0.91784321204E+01  0.10839938708E+02  0.00000000000E+00 0.  1.
</event>
<event>
 7    1  0.2455451E-009  0.4778727E+02  0.7816164E-02  0.1312668E+00
        -11   -1    0    0    0    0  0.00000000000E+00  0.00000000000E+00  0.45593999997E+02  0.45594000000E+02  0.51100000000E-03 0. -1.
         11   -1    0    0    0    0 -0.00000000000E+00 -0.00000000000E+00 -0.45593999997E+02  0.45594000000E+02  0.51100000000E-03 0.  1.
    9900012    2    1    2    0    0  0.23234202754E+01  0.43290534219E+02  0.20382849484E+01  0.47787271432E+02  0.20000001767E+02 0.  0.
         12    1    1    2    0    0 -0.23234202754E+01 -0.43290534219E+02 -0.20382849484E+01  0.43400728568E+02  0.00000000000E+00 0. -1.
         11    1    3    3    0    0  0.34181420621E+01  0.87141474141E+01 -0.55701936591E+01  0.10892525785E+02  0.51100000000E-03 0. -1.
        -11    1    3    3    0    0 -0.27230107904E+01  0.26830158442E+02  0.17080260139E+01  0.27022019593E+02  0.51100000000E-03 0.  1.
         12    1    3    3    0    0  0.16282890037E+01  0.77462283628E+01  0.59004525935E+01  0.98727260539E+01  0.00000000000E+00 0. -1.
</event>
<event>
 7    1  0.2455451E-009  0.4778727E+02  0.7816164E-02  0.1312668E+00
        -11   -1    0    0    0    0  0.00000000000E+00  0.00000000000E+00  0.45593999997E+02  0.45594000000E+02  0.51100000000E-03 0. -1.
         11   -1    0    0    0    0 -0.00000000000E+00 -0.00000000000E+00 -0.45593999997E+02  0.45594000000E+02  0.51100000000E-03 0.  1.
    9900012    2    1    2    0    0  0.98929976813E+01 -0.42240818761E+02  0.12103713661E+01  0.47787272223E+02  0.20000005373E+02 0.  0.
         12    1    1    2    0    0 -0.98929976813E+01  0.42240818761E+02 -0.12103713661E+01  0.43400727777E+02  0.00000000000E+00 0. -1.
         11    1    3    3    0    0  0.45491185687E+00 -0.16516241200E+01  0.36632563865E+01  0.40440393972E+01  0.51100000000E-03 0. -1.
        -11    1    3    3    0    0 -0.45542343329E+00 -0.26245256198E+02 -0.14071381524E+01  0.26286896383E+02  0.51100000000E-03 0.  1.
        -12    1    3    3    0    0  0.98935092577E+01 -0.14343938443E+02 -0.10457468679E+01  0.17456336443E+02  0.00000000000E+00 0.  1.
</event>
<event>
 7    1  0.2455451E-009  0.4778727E+02  0.7816164E-02  0.1312668E+00
        -11   -1    0    0    0    0  0.00000000000E+00  0.00000000000E+00  0.45593999997E+02  0.45594000000E+02  0.51100000000E-03 0.  1.
         11   -1    0    0    0    0 -0.00000000000E+00 -0.00000000000E+00 -0.45593999997E+02  0.45594000000E+02  0.51100000000E-03 0. -1.
    9900012    2    1    2    0    0  0.24324074905E+02 -0.19973372866E+02 -0.29883552517E+02  0.47787274722E+02  0.20000016768E+02 0.  0.
         12    1    1    2    0    0 -0.24324074905E+02  0.19973372866E+02  0.29883552517E+02  0.43400725278E+02  0.00000000000E+00 0. -1.
         11    1    3    3    0    0 -0.27006586776E+00  0.17701496852E+00  0.68446945547E+00  0.75681475183E+00  0.51100000000E-03 0. -1.
        -11    1    3    3    0    0  0.17315506952E+01 -0.54994116433E+01 -0.14196954571E+02  0.15323032193E+02  0.51100000000E-03 0.  1.
        -12    1    3    3    0    0  0.22862590077E+02 -0.14650976192E+02 -0.16371067402E+02  0.31707427778E+02  0.00000000000E+00 0.  1.
</event>
<event>
 7    1  0.2455451E-009  0.4778727E+02  0.7816164E-02  0.1312668E+00
        -11   -1    0    0    0    0  0.00000000000E+00  0.00000000000E+00  0.45593999997E+02  0.45594000000E+02  0.51100000000E-03 0.  1.
         11   -1    0    0    0    0 -0.00000000000E+00 -0.00000000000E+00 -0.45593999997E+02  0.45594000000E+02  0.51100000000E-03 0. -1.
    9900012    2    1    2    0    0 -0.30034835020E+02  0.18413997584E+02  0.25346728663E+02  0.47787271024E+02  0.19999999906E+02 0.  0.
         12    1    1    2    0    0  0.30034835020E+02 -0.18413997584E+02 -0.25346728663E+02  0.43400728976E+02  0.00000000000E+00 0. -1.
         11    1    3    3    0    0 -0.65788174479E+01  0.14955062423E+02  0.84149186910E+01  0.18377855912E+02  0.51100000000E-03 0. -1.
        -11    1    3    3    0    0 -0.78628364289E+01  0.52265159567E+00  0.78691227637E+01  0.11136447132E+02  0.51100000000E-03 0.  1.
         12    1    3    3    0    0 -0.15593181143E+02  0.29362835657E+01  0.90626872088E+01  0.18272967980E+02  0.00000000000E+00 0. -1.
</event>
<event>
 7    1  0.2455451E-009  0.4778726E+02  0.7816164E-02  0.1312668E+00
        -11   -1    0    0    0    0  0.00000000000E+00  0.00000000000E+00  0.45593999997E+02  0.45594000000E+02  0.51100000000E-03 0.  1.
         11   -1    0    0    0    0 -0.00000000000E+00 -0.00000000000E+00 -0.45593999997E+02  0.45594000000E+02  0.51100000000E-03 0. -1.
    9900012    2    1    2    0    0 -0.26649433943E+02 -0.23464940027E+02  0.24956524983E+02  0.47787264071E+02  0.19999968206E+02 0.  0.
         12    1    1    2    0    0  0.26649433943E+02  0.23464940027E+02 -0.24956524983E+02  0.43400735929E+02  0.00000000000E+00 0. -1.
         11    1    3    3    0    0 -0.50768189639E+01  0.27609176830E+01  0.28854913933E+01  0.64593202495E+01  0.51100000000E-03 0. -1.
        -11    1    3    3    0    0 -0.96136858641E+01 -0.16940974249E+02  0.15170596658E+02  0.24689401929E+02  0.51100000000E-03 0.  1.
        -12    1    3    3    0    0 -0.11958929115E+02 -0.92848834606E+01  0.69004369312E+01  0.16638541892E+02  0.00000000000E+00 0.  1.
</event>
<event>
 7    1  0.2455451E-009  0.4778727E+02  0.7816164E-02  0.1312668E+00
        -11   -1    0    0    0    0  0.00000000000E+00  0.00000000000E+00  0.45593999997E+02  0.45594000000E+02  0.51100000000E-03 0.  1.
         11   -1    0    0    0    0 -0.00000000000E+00 -0.00000000000E+00 -0.45593999997E+02  0.45594000000E+02  0.51100000000E-03 0. -1.
    9900012    2    1    2    0    0 -0.31109618540E+02 -0.84027810687E+01  0.29072465350E+02  0.47787270318E+02  0.19999996689E+02 0.  0.
         12    1    1    2    0    0  0.31109618540E+02  0.84027810687E+01 -0.29072465350E+02  0.43400729682E+02  0.00000000000E+00 0. -1.
         11    1    3    3    0    0 -0.32463292186E+01  0.28535147626E+01  0.62628542068E+01  0.76095034643E+01  0.51100000000E-03 0. -1.
        -11    1    3    3    0    0 -0.28881669164E+02 -0.11724209189E+02  0.23337422021E+02  0.38938967137E+02  0.51100000000E-03 0.  1.
        -12    1    3    3    0    0  0.10183798435E+01  0.46791335759E+00 -0.52781087805E+00  0.12387997170E+01  0.00000000000E+00 0.  1.
</event>
<event>
 7    1  0.2455451E-009  0.4778727E+02  0.7816164E-02  0.1312668E+00
        -11   -1    0    0    0    0  0.00000000000E+00  0.00000000000E+00  0.45593999997E+02  0.45594000000E+02  0.51100000000E-03 0. -1.
         11   -1    0    0    0    0 -0.00000000000E+00 -0.00000000000E+00 -0.45593999997E+02  0.45594000000E+02  0.51100000000E-03 0.  1.
    9900012    2    1    2    0    0 -0.35552984367E+02  0.23807762235E+02 -0.72662789914E+01  0.47787273619E+02  0.20000011740E+02 0.  0.
         12    1    1    2    0    0  0.35552984367E+02 -0.23807762235E+02  0.72662789914E+01  0.43400726381E+02  0.00000000000E+00 0. -1.
         11    1    3    3    0    0 -0.79491482105E+01  0.13091689026E+02 -0.17509014360E+01  0.15415801469E+02  0.51100000000E-03 0.  1.
        -11    1    3    3    0    0 -0.19150387893E+02  0.34065761119E+01 -0.78144143005E+01  0.20962041609E+02  0.51100000000E-03 0. -1.
        -12    1    3    3    0    0 -0.84534482626E+01  0.73094970968E+01  0.22990367451E+01  0.11409430542E+02  0.00000000000E+00 0.  1.
</event>
<event>
 7    1  0.2455451E-009  0.4778727E+02  0.7816164E-02  0.1312668E+00
        -11   -1    0    0    0    0  0.00000000000E+00  0.00000000000E+00  0.45593999997E+02  0.45594000000E+02  0.51100000000E-03 0. -1.
         11   -1    0    0    0    0 -0.00000000000E+00 -0.00000000000E+00 -0.45593999997E+02  0.45594000000E+02  0.51100000000E-03 0.  1.
    9900012    2    1    2    0    0 -0.27661162891E+02 -0.11812723862E+02 -0.31288060993E+02  0.47787272608E+02  0.20000007128E+02 0.  0.
         12    1    1    2    0    0  0.27661162891E+02  0.11812723862E+02  0.31288060993E+02  0.43400727392E+02  0.00000000000E+00 0. -1.
         11    1    3    3    0    0 -0.71993594927E+00 -0.17460639303E+01 -0.12727754671E+00  0.18929466064E+01  0.51100000000E-03 0.  1.
        -11    1    3    3    0    0 -0.36667514135E+00 -0.24346375894E+01 -0.12012759074E+02  0.12262474941E+02  0.51100000000E-03 0. -1.
        -12    1    3    3    0    0 -0.26574551800E+02 -0.76320223420E+01 -0.19148024372E+02  0.33631851060E+02  0.00000000000E+00 0.  1.
</event>
<event>
 7    1  0.2455451E-009  0.4778727E+02  0.7816164E-02  0.1312668E+00
        -11   -1    0    0    0    0  0.00000000000E+00  0.00000000000E+00  0.45593999997E+02  0.45594000000E+02  0.51100000000E-03 0. -1.
         11   -1    0    0    0    0 -0.00000000000E+00 -0.00000000000E+00 -0.45593999997E+02  0.45594000000E+02  0.51100000000E-03 0.  1.
    9900012    2    1    2    0    0 -0.23787336355E+01 -0.24742143446E+02 -0.35577958801E+02  0.47787272029E+02  0.20000004488E+02 0.  0.
         12    1    1    2    0    0  0.23787336355E+01  0.24742143446E+02  0.35577958801E+02  0.43400727971E+02  0.00000000000E+00 0. -1.
         11    1    3    3    0    0  0.19286273630E+00 -0.77887084199E+01 -0.70513342168E+01  0.10508210570E+02  0.51100000000E-03 0. -1.
        -11    1    3    3    0    0  0.79682960986E-01 -0.13926919094E+02 -0.29934939459E+02  0.33016147951E+02  0.51100000000E-03 0.  1.
        -12    1    3    3    0    0 -0.26512793327E+01 -0.30265159322E+01  0.14083148755E+01  0.42629135080E+01  0.00000000000E+00 0.  1.
</event>
<event>
 7    1  0.2455451E-009  0.4778728E+02  0.7816164E-02  0.1312668E+00
        -11   -1    0    0    0    0  0.00000000000E+00  0.00000000000E+00  0.45593999997E+02  0.45594000000E+02  0.51100000000E-03 0. -1.
         11   -1    0    0    0    0 -0.00000000000E+00 -0.00000000000E+00 -0.45593999997E+02  0.45594000000E+02  0.51100000000E-03 0.  1.
    9900012    2    1    2    0    0  0.37870744022E+02 -0.17395874326E+02 -0.12116645619E+02  0.47787276533E+02  0.20000025027E+02 0.  0.
         12    1    1    2    0    0 -0.37870744022E+02  0.17395874326E+02  0.12116645619E+02  0.43400723467E+02  0.00000000000E+00 0. -1.
         11    1    3    3    0    0  0.17811860412E+02 -0.96882967727E+01 -0.13975430146E+02  0.24625964219E+02  0.51100000000E-03 0. -1.
        -11    1    3    3    0    0  0.52026324356E+01 -0.61587241167E+01  0.16166394819E+01  0.82225780921E+01  0.51100000000E-03 0.  1.
         12    1    3    3    0    0  0.14856251175E+02 -0.15488534367E+01  0.24214504538E+00  0.14938734222E+02  0.00000000000E+00 0. -1.
</event>
<event>
 7    1  0.2455451E-009  0.4778727E+02  0.7816164E-02  0.1312668E+00
        -11   -1    0    0    0    0  0.00000000000E+00  0.00000000000E+00  0.45593999997E+02  0.45594000000E+02  0.51100000000E-03 0.  1.
         11   -1    0    0    0    0 -0.00000000000E+00 -0.00000000000E+00 -0.45593999997E+02  0.45594000000E+02  0.51100000000E-03 0. -1.
    9900012    2    1    2    0    0 -0.27399166015E+02  0.26147960957E+02  0.21194176378E+02  0.47787271056E+02  0.20000000053E+02 0.  0.
         12    1    1    2    0    0  0.27399166015E+02 -0.26147960957E+02 -0.21194176378E+02  0.43400728944E+02  0.00000000000E+00 0. -1.
         11    1    3    3    0    0 -0.56430875556E+01  0.71946223018E+01 -0.31488979053E+01  0.96707076010E+01  0.51100000000E-03 0. -1.
        -11    1    3    3    0    0 -0.71087425163E+01  0.69648928775E+01  0.11672212990E+02  0.15338986580E+02  0.51100000000E-03 0.  1.
         12    1    3    3    0    0 -0.14647335943E+02  0.11988445778E+02  0.12670861293E+02  0.22777576875E+02  0.00000000000E+00 0. -1.
</event>
<event>
 7    1  0.2455451E-009  0.4778722E+02  0.7816164E-02  0.1312668E+00
        -11   -1    0    0    0    0  0.00000000000E+00  0.00000000000E+00  0.45593999997E+02  0.45594000000E+02  0.51100000000E-03 0.  1.
         11   -1    0    0    0    0 -0.00000000000E+00 -0.00000000000E+00 -0.45593999997E+02  0.45594000000E+02  0.51100000000E-03 0. -1.
    9900012    2    1    2    0    0 -0.50495762155E+01 -0.28451412883E+02  0.32382817365E+02  0.47787216880E+02  0.19999753039E+02 0.  0.
         12    1    1    2    0    0  0.50495762155E+01  0.28451412883E+02 -0.32382817365E+02  0.43400783120E+02  0.00000000000E+00 0. -1.
         11    1    3    3    0    0 -0.16752714667E+01 -0.15808776968E+00  0.11102326120E+00  0.16863726325E+01  0.51100000000E-03 0. -1.
        -11    1    3    3    0    0 -0.96349059905E+01 -0.13421094297E+02  0.19234881634E+02  0.25356219302E+02  0.51100000000E-03 0.  1.
        -12    1    3    3    0    0  0.62606012417E+01 -0.14872230816E+02  0.13036912470E+02  0.20744624945E+02  0.00000000000E+00 0.  1.
</event>
<event>
 7    1  0.2455451E-009  0.4778727E+02  0.7816164E-02  0.1312668E+00
        -11   -1    0    0    0    0  0.00000000000E+00  0.00000000000E+00  0.45593999997E+02  0.45594000000E+02  0.51100000000E-03 0.  1.
         11   -1    0    0    0    0 -0.00000000000E+00 -0.00000000000E+00 -0.45593999997E+02  0.45594000000E+02  0.51100000000E-03 0. -1.
    9900012    2    1    2    0    0 -0.42219991437E+02 -0.29692347022E+01  0.96062183600E+01  0.47787268867E+02  0.19999990073E+02 0.  0.
         12    1    1    2    0    0  0.42219991437E+02  0.29692347022E+01 -0.96062183600E+01  0.43400731133E+02  0.00000000000E+00 0. -1.
         11    1    3    3    0    0 -0.69338994112E+01  0.37865342635E+01 -0.57957645572E+00  0.79216609307E+01  0.51100000000E-03 0. -1.
        -11    1    3    3    0    0 -0.35437103738E+02 -0.44643822682E+01  0.11087510880E+02  0.37398555161E+02  0.51100000000E-03 0.  1.
        -12    1    3    3    0    0  0.15101171193E+00 -0.22913866975E+01 -0.90171606397E+00  0.24670527750E+01  0.00000000000E+00 0.  1.
</event>
<event>
 7    1  0.2455451E-009  0.4778727E+02  0.7816164E-02  0.1312668E+00
        -11   -1    0    0    0    0  0.00000000000E+00  0.00000000000E+00  0.45593999997E+02  0.45594000000E+02  0.51100000000E-03 0.  1.
         11   -1    0    0    0    0 -0.00000000000E+00 -0.00000000000E+00 -0.45593999997E+02  0.45594000000E+02  0.51100000000E-03 0. -1.
    9900012    2    1    2    0    0  0.11509330580E+02  0.39593677815E+02  0.13546187651E+02  0.47787271744E+02  0.20000003188E+02 0.  0.
         12    1    1    2    0    0 -0.11509330580E+02 -0.39593677815E+02 -0.13546187651E+02  0.43400728256E+02  0.00000000000E+00 0. -1.
         11    1    3    3    0    0  0.11147804790E+02  0.11276848648E+02  0.53572038137E+01  0.16737398246E+02  0.51100000000E-03 0. -1.
        -11    1    3    3    0    0  0.14687344101E+01  0.18245088533E+02  0.98438443451E+01  0.20783207358E+02  0.51100000000E-03 0.  1.
         12    1    3    3    0    0 -0.11072086201E+01  0.10071740634E+02 -0.16548605076E+01  0.10266666140E+02  0.00000000000E+00 0. -1.
</event>
<event>
 7    1  0.2455451E-009  0.4778727E+02  0.7816164E-02  0.1312668E+00
        -11   -1    0    0    0    0  0.00000000000E+00  0.00000000000E+00  0.45593999997E+02  0.45594000000E+02  0.51100000000E-03 0.  1.
         11   -1    0    0    0    0 -0.00000000000E+00 -0.00000000000E+00 -0.45593999997E+02  0.45594000000E+02  0.51100000000E-03 0. -1.
    9900012    2    1    2    0    0 -0.45320266151E+01  0.43012225239E+02 -0.36100747925E+01  0.47787269300E+02  0.19999992046E+02 0.  0.
         12    1    1    2    0    0  0.45320266151E+01 -0.43012225239E+02  0.36100747925E+01  0.43400730700E+02  0.00000000000E+00 0. -1.
         11    1    3    3    0    0  0.19070421956E+01  0.16528098513E+01  0.16218018972E+01  0.29998053262E+01  0.51100000000E-03 0. -1.
        -11    1    3    3    0    0 -0.61817280253E+01  0.39758475639E+02 -0.85135915097E+01  0.41127015297E+02  0.51100000000E-03 0.  1.
        -12    1    3    3    0    0 -0.25734078536E+00  0.16009397487E+01  0.32817148199E+01  0.36604486772E+01  0.00000000000E+00 0.  1.
</event>
<event>
 7    1  0.2455451E-009  0.4778728E+02  0.7816164E-02  0.1312668E+00
        -11   -1    0    0    0    0  0.00000000000E+00  0.00000000000E+00  0.45593999997E+02  0.45594000000E+02  0.51100000000E-03 0.  1.
         11   -1    0    0    0    0 -0.00000000000E+00 -0.00000000000E+00 -0.45593999997E+02  0.45594000000E+02  0.51100000000E-03 0. -1.
    9900012    2    1    2    0    0 -0.14839697611E+02 -0.40703407952E+02  0.25765743437E+01  0.47787276741E+02  0.20000025971E+02 0.  0.
         12    1    1    2    0    0  0.14839697611E+02  0.40703407952E+02 -0.25765743437E+01  0.43400723259E+02  0.00000000000E+00 0. -1.
         11    1    3    3    0    0  0.38527398836E+01 -0.10296400471E+02  0.18095163487E+01  0.11141535664E+02  0.51100000000E-03 0. -1.
        -11    1    3    3    0    0 -0.16116835823E+02 -0.29107792484E+02  0.23509141274E+01  0.33354801420E+02  0.51100000000E-03 0.  1.
         12    1    3    3    0    0 -0.25756016716E+01 -0.12992149964E+01 -0.15838561324E+01  0.32909396570E+01  0.00000000000E+00 0. -1.
</event>
<event>
 7    1  0.2455451E-009  0.4778727E+02  0.7816164E-02  0.1312668E+00
        -11   -1    0    0    0    0  0.00000000000E+00  0.00000000000E+00  0.45593999997E+02  0.45594000000E+02  0.51100000000E-03 0. -1.
         11   -1    0    0    0    0 -0.00000000000E+00 -0.00000000000E+00 -0.45593999997E+02  0.45594000000E+02  0.51100000000E-03 0.  1.
    9900012    2    1    2    0    0  0.33656797029E+02 -0.24474222826E+02 -0.12322978217E+02  0.47787270038E+02  0.19999995409E+02 0.  0.
         12    1    1    2    0    0 -0.33656797029E+02  0.24474222826E+02  0.12322978217E+02  0.43400729962E+02  0.00000000000E+00 0. -1.
         11    1    3    3    0    0  0.17041980677E+02 -0.13191782777E+01 -0.51796150532E+01  0.17860508086E+02  0.51100000000E-03 0. -1.
        -11    1    3    3    0    0  0.43408262730E+01 -0.10665169769E+02 -0.21106830996E+01  0.11706562362E+02  0.51100000000E-03 0.  1.
        -12    1    3    3    0    0  0.12273990078E+02 -0.12489874779E+02 -0.50326800638E+01  0.18220199589E+02  0.00000000000E+00 0.  1.
</event>
<event>
 7    1  0.2455451E-009  0.4778727E+02  0.7816164E-02  0.1312668E+00
        -11   -1    0    0    0    0  0.00000000000E+00  0.00000000000E+00  0.45593999997E+02  0.45594000000E+02  0.51100000000E-03 0.  1.
         11   -1    0    0    0    0 -0.00000000000E+00 -0.00000000000E+00 -0.45593999997E+02  0.45594000000E+02  0.51100000000E-03 0. -1.
    9900012    2    1    2    0    0  0.33960760427E+01  0.26226204614E+02  0.34413314343E+02  0.47787270225E+02  0.19999996262E+02 0.  0.
         12    1    1    2    0    0 -0.33960760427E+01 -0.26226204614E+02 -0.34413314343E+02  0.43400729775E+02  0.00000000000E+00 0. -1.
         11    1    3    3    0    0 -0.56605560975E+01  0.45318029367E+01  0.24940277930E+01  0.76680706884E+01  0.51100000000E-03 0. -1.
        -11    1    3    3    0    0  0.56336169214E+01  0.18956218207E+02  0.24310835592E+02  0.31338356303E+02  0.51100000000E-03 0.  1.
         12    1    3    3    0    0  0.34230152188E+01  0.27381834707E+01  0.76084509581E+01  0.87808432334E+01  0.00000000000E+00 0. -1.
</event>
<event>
 7    1  0.2455451E-009  0.4778725E+02  0.7816164E-02  0.1312668E+00
        -11   -1    0    0    0    0  0.00000000000E+00  0.00000000000E+00  0.45593999997E+02  0.45594000000E+02  0.51100000000E-03 0.  1.
         11   -1    0    0    0    0 -0.00000000000E+00 -0.00000000000E+00 -0.45593999997E+02  0.45594000000E+02  0.51100000000E-03 0. -1.
    9900012    2    1    2    0    0  0.24482016966E+02  0.35268372352E+02  0.63559371107E+01  0.47787249090E+02  0.19999899899E+02 0.  0.
         12    1    1    2    0    0 -0.24482016966E+02 -0.35268372352E+02 -0.63559371107E+01  0.43400750910E+02  0.00000000000E+00 0. -1.
         11    1    3    3    0    0  0.31505910576E+01  0.40958872115E+01 -0.44769961908E+01  0.68371054705E+01  0.51100000000E-03 0. -1.
        -11    1    3    3    0    0  0.13044237365E+01  0.49078712028E+01  0.55130917689E+01  0.74955254746E+01  0.51100000000E-03 0.  1.
        -12    1    3    3    0    0  0.20027002172E+02  0.26264613937E+02  0.53198415326E+01  0.33454618144E+02  0.00000000000E+00 0.  1.
</event>
<event>
 7    1  0.2455451E-009  0.4778727E+02  0.7816164E-02  0.1312668E+00
        -11   -1    0    0    0    0  0.00000000000E+00  0.00000000000E+00  0.45593999997E+02  0.45594000000E+02  0.51100000000E-03 0.  1.
         11   -1    0    0    0    0 -0.00000000000E+00 -0.00000000000E+00 -0.45593999997E+02  0.45594000000E+02  0.51100000000E-03 0. -1.
    9900012    2    1    2    0    0 -0.18113240573E+02  0.39381293273E+02  0.21557805433E+01  0.47787272659E+02  0.20000007363E+02 0.  0.
         12    1    1    2    0    0  0.18113240573E+02 -0.39381293273E+02 -0.21557805433E+01  0.43400727341E+02  0.00000000000E+00 0. -1.
         11    1    3    3    0    0 -0.54766596549E+01  0.15088453460E+01  0.43639988822E+01  0.71634420329E+01  0.51100000000E-03 0. -1.
        -11    1    3    3    0    0 -0.11766168061E+02  0.34706898544E+02  0.35830313772E-01  0.36647139063E+02  0.51100000000E-03 0.  1.
         12    1    3    3    0    0 -0.87041285756E+00  0.31655493831E+01 -0.22440486527E+01  0.39766915640E+01  0.00000000000E+00 0. -1.
</event>
<event>
 7    1  0.2455451E-009  0.4778727E+02  0.7816164E-02  0.1312668E+00
        -11   -1    0    0    0    0  0.00000000000E+00  0.00000000000E+00  0.45593999997E+02  0.45594000000E+02  0.51100000000E-03 0.  1.
         11   -1    0    0    0    0 -0.00000000000E+00 -0.00000000000E+00 -0.45593999997E+02  0.45594000000E+02  0.51100000000E-03 0. -1.
    9900012    2    1    2    0    0 -0.25559080096E+02 -0.16770504853E+02  0.30807579286E+02  0.47787270169E+02  0.19999996009E+02 0.  0.
         12    1    1    2    0    0  0.25559080096E+02  0.16770504853E+02 -0.30807579286E+02  0.43400729831E+02  0.00000000000E+00 0. -1.
         11    1    3    3    0    0 -0.16484716743E+02 -0.15646565000E+02  0.29073951776E+02  0.36903327148E+02  0.51100000000E-03 0. -1.
        -11    1    3    3    0    0 -0.84031385091E+01 -0.92130484510E+00  0.33724976696E+01  0.91013889167E+01  0.51100000000E-03 0.  1.
         12    1    3    3    0    0 -0.67122484338E+00 -0.20263500768E+00 -0.16388701594E+01  0.17825541047E+01  0.00000000000E+00 0. -1.
</event>
<event>
 7    1  0.2455451E-009  0.4778728E+02  0.7816164E-02  0.1312668E+00
        -11   -1    0    0    0    0  0.00000000000E+00  0.00000000000E+00  0.45593999997E+02  0.45594000000E+02  0.51100000000E-03 0.  1.
         11   -1    0    0    0    0 -0.00000000000E+00 -0.00000000000E+00 -0.45593999997E+02  0.45594000000E+02  0.51100000000E-03 0. -1.
    9900012    2    1    2    0    0  0.46269039001E+01 -0.31455089914E+02  0.29543044124E+02  0.47787281373E+02  0.20000047093E+02 0.  0.
         12    1    1    2    0    0 -0.46269039001E+01  0.31455089914E+02 -0.29543044124E+02  0.43400718627E+02  0.00000000000E+00 0. -1.
         11    1    3    3    0    0  0.65324932291E+01 -0.79774567575E+01  0.27243043241E+01  0.10664666822E+02  0.51100000000E-03 0. -1.
        -11    1    3    3    0    0  0.37744204323E+01 -0.12281623695E+02  0.10901224250E+02  0.16849962035E+02  0.51100000000E-03 0.  1.
         12    1    3    3    0    0 -0.56800097613E+01 -0.11196009461E+02  0.15917515550E+02  0.20272652516E+02  0.00000000000E+00 0. -1.
</event>
<event>
 7    1  0.2455451E-009  0.4778728E+02  0.7816164E-02  0.1312668E+00
        -11   -1    0    0    0    0  0.00000000000E+00  0.00000000000E+00  0.45593999997E+02  0.45594000000E+02  0.51100000000E-03 0.  1.
         11   -1    0    0    0    0 -0.00000000000E+00 -0.00000000000E+00 -0.45593999997E+02  0.45594000000E+02  0.51100000000E-03 0. -1.
    9900012    2    1    2    0    0  0.38829738260E+01  0.39774236658E+02 -0.16927949333E+02  0.47787275857E+02  0.20000021945E+02 0.  0.
         12    1    1    2    0    0 -0.38829738260E+01 -0.39774236658E+02  0.16927949333E+02  0.43400724143E+02  0.00000000000E+00 0. -1.
         11    1    3    3    0    0 -0.51787727739E+01  0.13414244403E+02 -0.85605895283E+01  0.16734555078E+02  0.51100000000E-03 0. -1.
        -11    1    3    3    0    0  0.10831659448E+02  0.24115552850E+02 -0.93332591776E+01  0.28035592785E+02  0.51100000000E-03 0.  1.
        -12    1    3    3    0    0 -0.17699128482E+01  0.22444394058E+01  0.96589937281E+00  0.30171279945E+01  0.00000000000E+00 0.  1.
</event>
<event>
 7    1  0.2455451E-009  0.4778727E+02  0.7816164E-02  0.1312668E+00
        -11   -1    0    0    0    0  0.00000000000E+00  0.00000000000E+00  0.45593999997E+02  0.45594000000E+02  0.51100000000E-03 0. -1.
         11   -1    0    0    0    0 -0.00000000000E+00 -0.00000000000E+00 -0.45593999997E+02  0.45594000000E+02  0.51100000000E-03 0.  1.
    9900012    2    1    2    0    0  0.65118702168E+01 -0.25228396392E+02 -0.34709462986E+02  0.47787271216E+02  0.20000000782E+02 0.  0.
         12    1    1    2    0    0 -0.65118702168E+01  0.25228396392E+02  0.34709462986E+02  0.43400728784E+02  0.00000000000E+00 0. -1.
         11    1    3    3    0    0  0.10742428827E+02 -0.12870324576E+02 -0.23409132752E+02  0.28792924968E+02  0.51100000000E-03 0.  1.
        -11    1    3    3    0    0 -0.40255612957E+01 -0.80054693862E+01 -0.27089913574E+01  0.93611600924E+01  0.51100000000E-03 0. -1.
        -12    1    3    3    0    0 -0.20499731402E+00 -0.43526024299E+01 -0.85913388768E+01  0.96331861555E+01  0.00000000000E+00 0.  1.
</event>
<event>
 7    1  0.2455451E-009  0.4778727E+02  0.7816164E-02  0.1312668E+00
        -11   -1    0    0    0    0  0.00000000000E+00  0.00000000000E+00  0.45593999997E+02  0.45594000000E+02  0.51100000000E-03 0. -1.
         11   -1    0    0    0    0 -0.00000000000E+00 -0.00000000000E+00 -0.45593999997E+02  0.45594000000E+02  0.51100000000E-03 0.  1.
    9900012    2    1    2    0    0 -0.18794914657E+02 -0.29910669426E+02 -0.25213618369E+02  0.47787268282E+02  0.19999987403E+02 0.  0.
         12    1    1    2    0    0  0.18794914657E+02  0.29910669426E+02  0.25213618369E+02  0.43400731718E+02  0.00000000000E+00 0. -1.
         11    1    3    3    0    0 -0.82249846960E+01 -0.24901912467E+02 -0.17413650705E+02  0.31480007130E+02  0.51100000000E-03 0. -1.
        -11    1    3    3    0    0 -0.15721305137E+00 -0.28951615885E+01 -0.41705987168E+01  0.50794261964E+01  0.51100000000E-03 0.  1.
         12    1    3    3    0    0 -0.10412716909E+02 -0.21135953698E+01 -0.36293689466E+01  0.11227834955E+02  0.00000000000E+00 0. -1.
</event>
<event>
 7    1  0.2455451E-009  0.4778727E+02  0.7816164E-02  0.1312668E+00
        -11   -1    0    0    0    0  0.00000000000E+00  0.00000000000E+00  0.45593999997E+02  0.45594000000E+02  0.51100000000E-03 0. -1.
         11   -1    0    0    0    0 -0.00000000000E+00 -0.00000000000E+00 -0.45593999997E+02  0.45594000000E+02  0.51100000000E-03 0.  1.
    9900012    2    1    2    0    0 -0.43096031253E+02  0.13664269456E+01  0.49485700634E+01  0.47787269844E+02  0.19999994528E+02 0.  0.
         12    1    1    2    0    0  0.43096031253E+02 -0.13664269456E+01 -0.49485700634E+01  0.43400730156E+02  0.00000000000E+00 0. -1.
         11    1    3    3    0    0 -0.31727606004E+01 -0.11819565741E+01 -0.25496827513E+01  0.42384329137E+01  0.51100000000E-03 0. -1.
        -11    1    3    3    0    0 -0.18917000611E+01  0.39502758733E+01  0.28099419753E+01  0.52037469925E+01  0.51100000000E-03 0.  1.
        -12    1    3    3    0    0 -0.38031570592E+02 -0.14018923536E+01  0.46883108394E+01  0.38345089938E+02  0.00000000000E+00 0.  1.
</event>
<event>
 7    1  0.2455451E-009  0.4778728E+02  0.7816164E-02  0.1312668E+00
        -11   -1    0    0    0    0  0.00000000000E+00  0.00000000000E+00  0.45593999997E+02  0.45594000000E+02  0.51100000000E-03 0.  1.
         11   -1    0    0    0    0 -0.00000000000E+00 -0.00000000000E+00 -0.45593999997E+02  0.45594000000E+02  0.51100000000E-03 0. -1.
    9900012    2    1    2    0    0  0.68149751773E+01 -0.96330320715E+01  0.41765818949E+02  0.47787276204E+02  0.20000023523E+02 0.  0.
         12    1    1    2    0    0 -0.68149751773E+01  0.96330320715E+01 -0.41765818949E+02  0.43400723796E+02  0.00000000000E+00 0. -1.
         11    1    3    3    0    0 -0.25096696732E+01  0.36160106346E+00  0.21961409263E+01  0.33544347403E+01  0.51100000000E-03 0. -1.
        -11    1    3    3    0    0  0.12663148273E+02 -0.10245417902E+02  0.28049662664E+02  0.32436206437E+02  0.51100000000E-03 0.  1.
        -12    1    3    3    0    0 -0.33385034224E+01  0.25078476657E+00  0.11520015359E+02  0.11996635027E+02  0.00000000000E+00 0.  1.
</event>
<event>
 7    1  0.2455451E-009  0.4778727E+02  0.7816164E-02  0.1312668E+00
        -11   -1    0    0    0    0  0.00000000000E+00  0.00000000000E+00  0.45593999997E+02  0.45594000000E+02  0.51100000000E-03 0.  1.
         11   -1    0    0    0    0 -0.00000000000E+00 -0.00000000000E+00 -0.45593999997E+02  0.45594000000E+02  0.51100000000E-03 0. -1.
    9900012    2    1    2    0    0 -0.14740801389E+02 -0.19085778059E+02  0.36084142944E+02  0.47787268189E+02  0.19999986983E+02 0.  0.
         12    1    1    2    0    0  0.14740801389E+02  0.19085778059E+02 -0.36084142944E+02  0.43400731811E+02  0.00000000000E+00 0. -1.
         11    1    3    3    0    0 -0.76293876970E+01 -0.18235438676E+02  0.21070017355E+02  0.28890905350E+02  0.51100000000E-03 0. -1.
        -11    1    3    3    0    0 -0.61988858653E+01 -0.39307313641E+01  0.13451401049E+02  0.15323740584E+02  0.51100000000E-03 0.  1.
         12    1    3    3    0    0 -0.91252782678E+00  0.30803919815E+01  0.15627245397E+01  0.35726222557E+01  0.00000000000E+00 0. -1.
</event>
<event>
 7    1  0.2455451E-009  0.4778727E+02  0.7816164E-02  0.1312668E+00
        -11   -1    0    0    0    0  0.00000000000E+00  0.00000000000E+00  0.45593999997E+02  0.45594000000E+02  0.51100000000E-03 0. -1.
         11   -1    0    0    0    0 -0.00000000000E+00 -0.00000000000E+00 -0.45593999997E+02  0.45594000000E+02  0.51100000000E-03 0.  1.
    9900012    2    1    2    0    0  0.34523977120E+02  0.25550057610E+02 -0.62380304936E+01  0.47787268848E+02  0.19999989988E+02 0.  0.
         12    1    1    2    0    0 -0.34523977120E+02 -0.25550057610E+02  0.62380304936E+01  0.43400731152E+02  0.00000000000E+00 0. -1.
         11    1    3    3    0    0  0.24049048601E+01 -0.11281422705E+01  0.30374721526E+01  0.40351591923E+01  0.51100000000E-03 0. -1.
        -11    1    3    3    0    0  0.24282856874E+02  0.15332573631E+02 -0.40320145063E+01  0.29000036092E+02  0.51100000000E-03 0.  1.
         12    1    3    3    0    0  0.78362153860E+01  0.11345626249E+02 -0.52434881398E+01  0.14752073564E+02  0.00000000000E+00 0. -1.
</event>
<event>
 7    1  0.2455451E-009  0.4778726E+02  0.7816164E-02  0.1312668E+00
        -11   -1    0    0    0    0  0.00000000000E+00  0.00000000000E+00  0.45593999997E+02  0.45594000000E+02  0.51100000000E-03 0.  1.
         11   -1    0    0    0    0 -0.00000000000E+00 -0.00000000000E+00 -0.45593999997E+02  0.45594000000E+02  0.51100000000E-03 0. -1.
    9900012    2    1    2    0    0  0.36643187955E+01 -0.40536777161E+02  0.15065399625E+02  0.47787264975E+02  0.19999972328E+02 0.  0.
         12    1    1    2    0    0 -0.36643187955E+01  0.40536777161E+02 -0.15065399625E+02  0.43400735025E+02  0.00000000000E+00 0. -1.
         11    1    3    3    0    0  0.15745692666E+01 -0.17991431624E+01  0.51912535167E+01  0.57153563169E+01  0.51100000000E-03 0. -1.
        -11    1    3    3    0    0 -0.35804850028E+01 -0.31098738053E+02  0.86701080154E+01  0.32482643898E+02  0.51100000000E-03 0.  1.
        -12    1    3    3    0    0  0.56702345317E+01 -0.76388959463E+01  0.12040380927E+01  0.95892647607E+01  0.00000000000E+00 0.  1.
</event>
<event>
 7    1  0.2455451E-009  0.4778727E+02  0.7816164E-02  0.1312668E+00
        -11   -1    0    0    0    0  0.00000000000E+00  0.00000000000E+00  0.45593999997E+02  0.45594000000E+02  0.51100000000E-03 0.  1.
         11   -1    0    0    0    0 -0.00000000000E+00 -0.00000000000E+00 -0.45593999997E+02  0.45594000000E+02  0.51100000000E-03 0. -1.
    9900012    2    1    2    0    0  0.18448012939E+02  0.16862440291E+01  0.39248571944E+02  0.47787274200E+02  0.20000014388E+02 0.  0.
         12    1    1    2    0    0 -0.18448012939E+02 -0.16862440291E+01 -0.39248571944E+02  0.43400725800E+02  0.00000000000E+00 0. -1.
         11    1    3    3    0    0  0.57083488434E+01 -0.53998847963E+01  0.98135826922E+01  0.12571810047E+02  0.51100000000E-03 0. -1.
        -11    1    3    3    0    0 -0.10909386824E+01  0.42574928313E+01  0.12014516311E+02  0.12793162036E+02  0.51100000000E-03 0.  1.
        -12    1    3    3    0    0  0.13830602778E+02  0.28286359941E+01  0.17420472940E+02  0.22422302118E+02  0.00000000000E+00 0.  1.
</event>
<event>
 7    1  0.2455451E-009  0.4778727E+02  0.7816164E-02  0.1312668E+00
        -11   -1    0    0    0    0  0.00000000000E+00  0.00000000000E+00  0.45593999997E+02  0.45594000000E+02  0.51100000000E-03 0.  1.
         11   -1    0    0    0    0 -0.00000000000E+00 -0.00000000000E+00 -0.45593999997E+02  0.45594000000E+02  0.51100000000E-03 0. -1.
    9900012    2    1    2    0    0 -0.16408588209E+02 -0.28213968056E+02  0.28606878716E+02  0.47787271085E+02  0.20000000183E+02 0.  0.
         12    1    1    2    0    0  0.16408588209E+02  0.28213968056E+02 -0.28606878716E+02  0.43400728915E+02  0.00000000000E+00 0. -1.
         11    1    3    3    0    0 -0.21891945116E+01 -0.42008853558E+01  0.12849877562E+01  0.49082791462E+01  0.51100000000E-03 0. -1.
        -11    1    3    3    0    0  0.12228902357E+01 -0.14281094849E+02  0.15605864072E+02  0.21189339874E+02  0.51100000000E-03 0.  1.
        -12    1    3    3    0    0 -0.15442283934E+02 -0.97319878519E+01  0.11716026888E+02  0.21689652064E+02  0.00000000000E+00 0.  1.
</event>
<event>
 7    1  0.2455451E-009  0.4778727E+02  0.7816164E-02  0.1312668E+00
        -11   -1    0    0    0    0  0.00000000000E+00  0.00000000000E+00  0.45593999997E+02  0.45594000000E+02  0.51100000000E-03 0. -1.
         11   -1    0    0    0    0 -0.00000000000E+00 -0.00000000000E+00 -0.45593999997E+02  0.45594000000E+02  0.51100000000E-03 0.  1.
    9900012    2    1    2    0    0  0.19144908962E+02 -0.38416621502E+02 -0.64233073172E+01  0.47787271623E+02  0.20000002638E+02 0.  0.
         12    1    1    2    0    0 -0.19144908962E+02  0.38416621502E+02  0.64233073172E+01  0.43400728377E+02  0.00000000000E+00 0. -1.
         11    1    3    3    0    0 -0.76096255995E+00  0.63914344226E+00 -0.30331569288E+01  0.31918034985E+01  0.51100000000E-03 0. -1.
        -11    1    3    3    0    0  0.18596390445E+02 -0.32520282701E+02 -0.87739257508E+00  0.37472180915E+02  0.51100000000E-03 0.  1.
        -12    1    3    3    0    0  0.13094810769E+01 -0.65354822431E+01 -0.25127578134E+01  0.71232872095E+01  0.00000000000E+00 0.  1.
</event>
<event>
 7    1  0.2455451E-009  0.4778730E+02  0.7816164E-02  0.1312668E+00
        -11   -1    0    0    0    0  0.00000000000E+00  0.00000000000E+00  0.45593999997E+02  0.45594000000E+02  0.51100000000E-03 0.  1.
         11   -1    0    0    0    0 -0.00000000000E+00 -0.00000000000E+00 -0.45593999997E+02  0.45594000000E+02  0.51100000000E-03 0. -1.
    9900012    2    1    2    0    0 -0.11025670307E+02 -0.32448844431E+02  0.26629454319E+02  0.47787300145E+02  0.20000132679E+02 0.  0.
         12    1    1    2    0    0  0.11025670307E+02  0.32448844431E+02 -0.26629454319E+02  0.43400699855E+02  0.00000000000E+00 0. -1.
         11    1    3    3    0    0 -0.41392124843E+01 -0.12017757291E+02  0.19076991207E+02  0.22923594048E+02  0.51100000000E-03 0. -1.
        -11    1    3    3    0    0  0.51279270406E-01 -0.75465956892E+01  0.68839880759E+01  0.10214843521E+02  0.51100000000E-03 0.  1.
         12    1    3    3    0    0 -0.69377370931E+01 -0.12884491450E+02  0.66847503617E+00  0.14648862576E+02  0.00000000000E+00 0. -1.
</event>
<event>
 7    1  0.2455451E-009  0.4778727E+02  0.7816164E-02  0.1312668E+00
        -11   -1    0    0    0    0  0.00000000000E+00  0.00000000000E+00  0.45593999997E+02  0.45594000000E+02  0.51100000000E-03 0.  1.
         11   -1    0    0    0    0 -0.00000000000E+00 -0.00000000000E+00 -0.45593999997E+02  0.45594000000E+02  0.51100000000E-03 0. -1.
    9900012    2    1    2    0    0  0.28994631965E+02 -0.21996828572E+02  0.23644750394E+02  0.47787269924E+02  0.19999994890E+02 0.  0.
         12    1    1    2    0    0 -0.28994631965E+02  0.21996828572E+02 -0.23644750394E+02  0.43400730076E+02  0.00000000000E+00 0. -1.
         11    1    3    3    0    0  0.12663090596E+02 -0.36729106144E+01  0.17080131710E+02  0.21577187845E+02  0.51100000000E-03 0. -1.
        -11    1    3    3    0    0  0.46656154509E+01 -0.96430128657E+01  0.40524073269E+01  0.11453282065E+02  0.51100000000E-03 0.  1.
        -12    1    3    3    0    0  0.11665925918E+02 -0.86809050917E+01  0.25122113568E+01  0.14756800013E+02  0.00000000000E+00 0.  1.
</event>
<event>
 7    1  0.2455451E-009  0.4778723E+02  0.7816164E-02  0.1312668E+00
        -11   -1    0    0    0    0  0.00000000000E+00  0.00000000000E+00  0.45593999997E+02  0.45594000000E+02  0.51100000000E-03 0.  1.
         11   -1    0    0    0    0 -0.00000000000E+00 -0.00000000000E+00 -0.45593999997E+02  0.45594000000E+02  0.51100000000E-03 0. -1.
    9900012    2    1    2    0    0  0.16849081860E+02 -0.18961858058E+01  0.39951718119E+02  0.47787229721E+02  0.19999811588E+02 0.  0.
         12    1    1    2    0    0 -0.16849081860E+02  0.18961858058E+01 -0.39951718119E+02  0.43400770279E+02  0.00000000000E+00 0. -1.
         11    1    3    3    0    0  0.25688257881E+01 -0.11461581470E+01 -0.18447106106E+01  0.33638522449E+01  0.51100000000E-03 0. -1.
        -11    1    3    3    0    0  0.82328328599E+01  0.18960522886E+01  0.23627164961E+02  0.25092179569E+02  0.51100000000E-03 0.  1.
        -12    1    3    3    0    0  0.60474232124E+01 -0.26460799474E+01  0.18169263769E+02  0.19331197907E+02  0.00000000000E+00 0.  1.
</event>
<event>
 7    1  0.2455451E-009  0.4778727E+02  0.7816164E-02  0.1312668E+00
        -11   -1    0    0    0    0  0.00000000000E+00  0.00000000000E+00  0.45593999997E+02  0.45594000000E+02  0.51100000000E-03 0. -1.
         11   -1    0    0    0    0 -0.00000000000E+00 -0.00000000000E+00 -0.45593999997E+02  0.45594000000E+02  0.51100000000E-03 0.  1.
    9900012    2    1    2    0    0 -0.31493893078E+02  0.24584361271E+02 -0.16951908777E+02  0.47787270380E+02  0.19999996973E+02 0.  0.
         12    1    1    2    0    0  0.31493893078E+02 -0.24584361271E+02  0.16951908777E+02  0.43400729620E+02  0.00000000000E+00 0. -1.
         11    1    3    3    0    0 -0.90631547509E+01  0.16354291876E+01 -0.10370809542E+02  0.13869718579E+02  0.51100000000E-03 0. -1.
        -11    1    3    3    0    0 -0.12388348269E+02  0.17567454661E+02 -0.18324932303E+01  0.21574166677E+02  0.51100000000E-03 0.  1.
        -12    1    3    3    0    0 -0.10042390058E+02  0.53814774226E+01 -0.47486060047E+01  0.12343385124E+02  0.00000000000E+00 0.  1.
</event>
<event>
 7    1  0.2455451E-009  0.4778727E+02  0.7816164E-02  0.1312668E+00
        -11   -1    0    0    0    0  0.00000000000E+00  0.00000000000E+00  0.45593999997E+02  0.45594000000E+02  0.51100000000E-03 0.  1.
         11   -1    0    0    0    0 -0.00000000000E+00 -0.00000000000E+00 -0.45593999997E+02  0.45594000000E+02  0.51100000000E-03 0. -1.
    9900012    2    1    2    0    0 -0.39911054243E+02 -0.16717594846E+02  0.33545598824E+01  0.47787270741E+02  0.19999998617E+02 0.  0.
         12    1    1    2    0    0  0.39911054243E+02  0.16717594846E+02 -0.33545598824E+01  0.43400729259E+02  0.00000000000E+00 0. -1.
         11    1    3    3    0    0 -0.48587051343E+01 -0.76542100466E+00 -0.61128150128E+01  0.78459793868E+01  0.51100000000E-03 0. -1.
        -11    1    3    3    0    0 -0.25614930582E+02 -0.11876396423E+02  0.47514923591E+01  0.28631279060E+02  0.51100000000E-03 0.  1.
         12    1    3    3    0    0 -0.94374185262E+01 -0.40757774175E+01  0.47158825360E+01  0.11310012294E+02  0.00000000000E+00 0. -1.
</event>
<event>
 7    1  0.2455451E-009  0.4778728E+02  0.7816164E-02  0.1312668E+00
        -11   -1    0    0    0    0  0.00000000000E+00  0.00000000000E+00  0.45593999997E+02  0.45594000000E+02  0.51100000000E-03 0.  1.
         11   -1    0    0    0    0 -0.00000000000E+00 -0.00000000000E+00 -0.45593999997E+02  0.45594000000E+02  0.51100000000E-03 0. -1.
    9900012    2    1    2    0    0  0.25187166261E+02  0.24672412645E+02  0.25308124958E+02  0.47787280203E+02  0.20000041758E+02 0.  0.
         12    1    1    2    0    0 -0.25187166261E+02 -0.24672412645E+02 -0.25308124958E+02  0.43400719797E+02  0.00000000000E+00 0. -1.
         11    1    3    3    0    0  0.12098264874E+02  0.13773087376E+02  0.20207607746E+02  0.27283939597E+02  0.51100000000E-03 0.  1.
        -11    1    3    3    0    0  0.85573628957E+01  0.12383960295E+02  0.33311282216E+01  0.15417112175E+02  0.51100000000E-03 0. -1.
        -12    1    3    3    0    0  0.45315384912E+01 -0.14846350262E+01  0.17693889905E+01  0.50862284316E+01  0.00000000000E+00 0.  1.
</event>
<event>
 7    1  0.2455451E-009  0.4778727E+02  0.7816164E-02  0.1312668E+00
        -11   -1    0    0    0    0  0.00000000000E+00  0.00000000000E+00  0.45593999997E+02  0.45594000000E+02  0.51100000000E-03 0. -1.
         11   -1    0    0    0    0 -0.00000000000E+00 -0.00000000000E+00 -0.45593999997E+02  0.45594000000E+02  0.51100000000E-03 0.  1.
    9900012    2    1    2    0    0  0.19966442198E+02 -0.10220296482E+02 -0.37155215765E+02  0.47787270366E+02  0.19999996909E+02 0.  0.
         12    1    1    2    0    0 -0.19966442198E+02  0.10220296482E+02  0.37155215765E+02  0.43400729634E+02  0.00000000000E+00 0. -1.
         11    1    3    3    0    0  0.67625194577E+01 -0.59396051512E+00 -0.10627150945E+00  0.67893852744E+01  0.51100000000E-03 0. -1.
        -11    1    3    3    0    0  0.90722613291E+01 -0.27549830195E+01 -0.18426373321E+02  0.20722622689E+02  0.51100000000E-03 0.  1.
         12    1    3    3    0    0  0.41316614108E+01 -0.68713529471E+01 -0.18622570934E+02  0.20275262403E+02  0.00000000000E+00 0. -1.
</event>
<event>
 7    1  0.2455451E-009  0.4778727E+02  0.7816164E-02  0.1312668E+00
        -11   -1    0    0    0    0  0.00000000000E+00  0.00000000000E+00  0.45593999997E+02  0.45594000000E+02  0.51100000000E-03 0.  1.
         11   -1    0    0    0    0 -0.00000000000E+00 -0.00000000000E+00 -0.45593999997E+02  0.45594000000E+02  0.51100000000E-03 0. -1.
    9900012    2    1    2    0    0  0.39373251692E+02  0.14894995085E+02 -0.10559797871E+02  0.47787272374E+02  0.20000006060E+02 0.  0.
         12    1    1    2    0    0 -0.39373251692E+02 -0.14894995085E+02  0.10559797871E+02  0.43400727626E+02  0.00000000000E+00 0. -1.
         11    1    3    3    0    0  0.62436916090E+01  0.48012144846E+00  0.90668003779E+00  0.63274221027E+01  0.51100000000E-03 0. -1.
        -11    1    3    3    0    0  0.44015218195E+01 -0.37702496155E+01 -0.23917348148E+01  0.62696548690E+01  0.51100000000E-03 0.  1.
        -12    1    3    3    0    0  0.28728038264E+02  0.18185123252E+02 -0.90747430944E+01  0.35190195402E+02  0.00000000000E+00 0.  1.
</event>
<event>
 7    1  0.2455451E-009  0.4778727E+02  0.7816164E-02  0.1312668E+00
        -11   -1    0    0    0    0  0.00000000000E+00  0.00000000000E+00  0.45593999997E+02  0.45594000000E+02  0.51100000000E-03 0.  1.
         11   -1    0    0    0    0 -0.00000000000E+00 -0.00000000000E+00 -0.45593999997E+02  0.45594000000E+02  0.51100000000E-03 0. -1.
    9900012    2    1    2    0    0 -0.23663933070E+02 -0.10673624994E+02  0.34780963038E+02  0.47787269722E+02  0.19999993968E+02 0.  0.
         12    1    1    2    0    0  0.23663933070E+02  0.10673624994E+02 -0.34780963038E+02  0.43400730278E+02  0.00000000000E+00 0. -1.
         11    1    3    3    0    0 -0.86247329140E+01 -0.41229101662E+01  0.15473014848E+02  0.18187869441E+02  0.51100000000E-03 0.  1.
        -11    1    3    3    0    0 -0.16256715162E+02 -0.70333886023E+00  0.12339516430E+02  0.20421536166E+02  0.51100000000E-03 0. -1.
        -12    1    3    3    0    0  0.12175150058E+01 -0.58473759678E+01  0.69684317609E+01  0.91778641145E+01  0.00000000000E+00 0.  1.
</event>
<event>
 7    1  0.2455451E-009  0.4778727E+02  0.7816164E-02  0.1312668E+00
        -11   -1    0    0    0    0  0.00000000000E+00  0.00000000000E+00  0.45593999997E+02  0.45594000000E+02  0.51100000000E-03 0.  1.
         11   -1    0    0    0    0 -0.00000000000E+00 -0.00000000000E+00 -0.45593999997E+02  0.45594000000E+02  0.51100000000E-03 0. -1.
    9900012    2    1    2    0    0 -0.98369872279E+01 -0.47717275569E+01  0.42001040840E+02  0.47787272664E+02  0.20000007386E+02 0.  0.
         12    1    1    2    0    0  0.98369872279E+01  0.47717275569E+01 -0.42001040840E+02  0.43400727336E+02  0.00000000000E+00 0. -1.
         11    1    3    3    0    0  0.17408681188E+01  0.47668326741E+01  0.75016011104E+01  0.90568943369E+01  0.51100000000E-03 0. -1.
        -11    1    3    3    0    0 -0.10138568765E+02 -0.85583175395E+01  0.34527290354E+02  0.36988770664E+02  0.51100000000E-03 0.  1.
        -12    1    3    3    0    0 -0.14392865816E+01 -0.98024269147E+00 -0.27850624694E-01  0.17416076640E+01  0.00000000000E+00 0.  1.
</event>
<event>
 7    1  0.2455451E-009  0.4778727E+02  0.7816164E-02  0.1312668E+00
        -11   -1    0    0    0    0  0.00000000000E+00  0.00000000000E+00  0.45593999997E+02  0.45594000000E+02  0.51100000000E-03 0.  1.
         11   -1    0    0    0    0 -0.00000000000E+00 -0.00000000000E+00 -0.45593999997E+02  0.45594000000E+02  0.51100000000E-03 0. -1.
    9900012    2    1    2    0    0 -0.29922908822E+01 -0.37295280026E+02  0.21993893271E+02  0.47787273530E+02  0.20000011331E+02 0.  0.
         12    1    1    2    0    0  0.29922908822E+01  0.37295280026E+02 -0.21993893271E+02  0.43400726470E+02  0.00000000000E+00 0. -1.
         11    1    3    3    0    0  0.32647066555E+01 -0.11258962473E+01  0.43723755814E+01  0.55716802127E+01  0.51100000000E-03 0. -1.
        -11    1    3    3    0    0 -0.17278154769E+01 -0.32084730815E+02  0.13485508935E+02  0.34846438115E+02  0.51100000000E-03 0.  1.
        -12    1    3    3    0    0 -0.45291820609E+01 -0.40846529634E+01  0.41360087542E+01  0.73691552017E+01  0.00000000000E+00 0.  1.
</event>
<event>
 7    1  0.2455451E-009  0.4778727E+02  0.7816164E-02  0.1312668E+00
        -11   -1    0    0    0    0  0.00000000000E+00  0.00000000000E+00  0.45593999997E+02  0.45594000000E+02  0.51100000000E-03 0.  1.
         11   -1    0    0    0    0 -0.00000000000E+00 -0.00000000000E+00 -0.45593999997E+02  0.45594000000E+02  0.51100000000E-03 0. -1.
    9900012    2    1    2    0    0  0.19360374584E+02  0.33177321087E+02  0.20200610419E+02  0.47787269593E+02  0.19999993382E+02 0.  0.
         12    1    1    2    0    0 -0.19360374584E+02 -0.33177321087E+02 -0.20200610419E+02  0.43400730407E+02  0.00000000000E+00 0. -1.
         11    1    3    3    0    0  0.38853672056E+00  0.93593793468E+01  0.65751810666E+00  0.93904884252E+01  0.51100000000E-03 0. -1.
        -11    1    3    3    0    0  0.15450549057E+02  0.22265189160E+02  0.20996731755E+02  0.34282952894E+02  0.51100000000E-03 0.  1.
        -12    1    3    3    0    0  0.35212888066E+01  0.15527525801E+01 -0.14536394427E+01  0.41138282735E+01  0.00000000000E+00 0.  1.
</event>
<event>
 7    1  0.2455451E-009  0.4778727E+02  0.7816164E-02  0.1312668E+00
        -11   -1    0    0    0    0  0.00000000000E+00  0.00000000000E+00  0.45593999997E+02  0.45594000000E+02  0.51100000000E-03 0. -1.
         11   -1    0    0    0    0 -0.00000000000E+00 -0.00000000000E+00 -0.45593999997E+02  0.45594000000E+02  0.51100000000E-03 0.  1.
    9900012    2    1    2    0    0 -0.41848640600E+02  0.80101563250E+01 -0.82554048085E+01  0.47787273820E+02  0.20000012654E+02 0.  0.
         12    1    1    2    0    0  0.41848640600E+02 -0.80101563250E+01  0.82554048085E+01  0.43400726180E+02  0.00000000000E+00 0. -1.
         11    1    3    3    0    0 -0.27388801293E+01  0.46314873166E+00 -0.59514619775E+01  0.65677904230E+01  0.51100000000E-03 0. -1.
        -11    1    3    3    0    0 -0.38940429326E+02  0.87197542677E+01 -0.18405935690E+01  0.39947201849E+02  0.51100000000E-03 0.  1.
        -12    1    3    3    0    0 -0.16933114426E+00 -0.11727466744E+01 -0.46334926211E+00  0.12722815480E+01  0.00000000000E+00 0.  1.
</event>
<event>
 7    1  0.2455451E-009  0.4778727E+02  0.7816164E-02  0.1312668E+00
        -11   -1    0    0    0    0  0.00000000000E+00  0.00000000000E+00  0.45593999997E+02  0.45594000000E+02  0.51100000000E-03 0.  1.
         11   -1    0    0    0    0 -0.00000000000E+00 -0.00000000000E+00 -0.45593999997E+02  0.45594000000E+02  0.51100000000E-03 0. -1.
    9900012    2    1    2    0    0 -0.37317566239E+02  0.13594199686E+02  0.17499163886E+02  0.47787265538E+02  0.19999974893E+02 0.  0.
         12    1    1    2    0    0  0.37317566239E+02 -0.13594199686E+02 -0.17499163886E+02  0.43400734462E+02  0.00000000000E+00 0. -1.
         11    1    3    3    0    0  0.12622228035E+01  0.21262373417E+01  0.35258016646E+01  0.43064334754E+01  0.51100000000E-03 0. -1.
        -11    1    3    3    0    0 -0.57354031888E+01  0.41080537516E+01  0.47912982656E-01  0.70550160368E+01  0.51100000000E-03 0.  1.
         12    1    3    3    0    0 -0.32844385854E+02  0.73599085929E+01  0.13925449239E+02  0.36425816026E+02  0.00000000000E+00 0. -1.
</event>
<event>
 7    1  0.2455451E-009  0.4778727E+02  0.7816164E-02  0.1312668E+00
        -11   -1    0    0    0    0  0.00000000000E+00  0.00000000000E+00  0.45593999997E+02  0.45594000000E+02  0.51100000000E-03 0. -1.
         11   -1    0    0    0    0 -0.00000000000E+00 -0.00000000000E+00 -0.45593999997E+02  0.45594000000E+02  0.51100000000E-03 0.  1.
    9900012    2    1    2    0    0  0.31303932465E+02 -0.29953635923E+02  0.25429962914E+01  0.47787270479E+02  0.19999997422E+02 0.  0.
         12    1    1    2    0    0 -0.31303932465E+02  0.29953635923E+02 -0.25429962914E+01  0.43400729521E+02  0.00000000000E+00 0. -1.
         11    1    3    3    0    0  0.16372839663E+01  0.22285196209E+01  0.11974893661E+01  0.30134663645E+01  0.51100000000E-03 0. -1.
        -11    1    3    3    0    0  0.25459960351E+02 -0.21726997086E+02  0.14820095037E+01  0.33503258586E+02  0.51100000000E-03 0.  1.
         12    1    3    3    0    0  0.42066881485E+01 -0.10455158458E+02 -0.13650257836E+00  0.11270545529E+02  0.00000000000E+00 0. -1.
</event>
<event>
 7    1  0.2510254E-009  0.4778727E+02  0.7816164E-02  0.1312668E+00
        -11   -1    0    0    0    0  0.00000000000E+00  0.00000000000E+00  0.45593999997E+02  0.45594000000E+02  0.51100000000E-03 0. -1.
         11   -1    0    0    0    0 -0.00000000000E+00 -0.00000000000E+00 -0.45593999997E+02  0.45594000000E+02  0.51100000000E-03 0.  1.
    9900012    2    1    2    0    0  0.30701790424E+02  0.35855163287E+01 -0.30465842575E+02  0.47787269288E+02  0.19999991990E+02 0.  0.
         12    1    1    2    0    0 -0.30701790424E+02 -0.35855163287E+01  0.30465842575E+02  0.43400730712E+02  0.00000000000E+00 0. -1.
         11    1    3    3    0    0  0.10250968169E+02 -0.51015353240E+01 -0.12304856132E+02  0.16808256774E+02  0.51100000000E-03 0. -1.
        -11    1    3    3    0    0  0.21845883352E+02  0.75663259298E+01 -0.15740331757E+02  0.27968731676E+02  0.51100000000E-03 0.  1.
         12    1    3    3    0    0 -0.13950610977E+01  0.11207257229E+01 -0.24206546859E+01  0.30102808375E+01  0.00000000000E+00 0. -1.
</event>
<event>
 7    1  0.2455451E-009  0.4778727E+02  0.7816164E-02  0.1312668E+00
        -11   -1    0    0    0    0  0.00000000000E+00  0.00000000000E+00  0.45593999997E+02  0.45594000000E+02  0.51100000000E-03 0.  1.
         11   -1    0    0    0    0 -0.00000000000E+00 -0.00000000000E+00 -0.45593999997E+02  0.45594000000E+02  0.51100000000E-03 0. -1.
    9900012    2    1    2    0    0  0.42656497301E+01  0.42834214238E+02  0.55369659209E+01  0.47787266497E+02  0.19999979265E+02 0.  0.
         12    1    1    2    0    0 -0.42656497301E+01 -0.42834214238E+02 -0.55369659209E+01  0.43400733503E+02  0.00000000000E+00 0. -1.
         11    1    3    3    0    0 -0.38846464097E+01  0.81101150479E+01 -0.29454970870E+01  0.94625787800E+01  0.51100000000E-03 0. -1.
        -11    1    3    3    0    0  0.59099874437E+01  0.17733985228E+02  0.98569440397E+01  0.21132475712E+02  0.51100000000E-03 0.  1.
        -12    1    3    3    0    0  0.22403086960E+01  0.16990113963E+02 -0.13744810318E+01  0.17192212005E+02  0.00000000000E+00 0.  1.
</event>
<event>
 7    1  0.2455451E-009  0.4778728E+02  0.7816164E-02  0.1312668E+00
        -11   -1    0    0    0    0  0.00000000000E+00  0.00000000000E+00  0.45593999997E+02  0.45594000000E+02  0.51100000000E-03 0.  1.
         11   -1    0    0    0    0 -0.00000000000E+00 -0.00000000000E+00 -0.45593999997E+02  0.45594000000E+02  0.51100000000E-03 0. -1.
    9900012    2    1    2    0    0 -0.80370313709E+01  0.42291528458E+02  0.55186393491E+01  0.47787278430E+02  0.20000033673E+02 0.  0.
         12    1    1    2    0    0  0.80370313709E+01 -0.42291528458E+02 -0.55186393491E+01  0.43400721570E+02  0.00000000000E+00 0. -1.
         11    1    3    3    0    0  0.47525647750E+01  0.10816114420E+02  0.42073616448E+01  0.12541016520E+02  0.51100000000E-03 0. -1.
        -11    1    3    3    0    0 -0.11616220651E+02  0.16690643830E+02  0.17351944854E+01  0.20408945927E+02  0.51100000000E-03 0.  1.
         12    1    3    3    0    0 -0.11733754952E+01  0.14784770208E+02 -0.42391678114E+00  0.14837315983E+02  0.00000000000E+00 0. -1.
</event>
<event>
 7    1  0.2455451E-009  0.4778727E+02  0.7816164E-02  0.1312668E+00
        -11   -1    0    0    0    0  0.00000000000E+00  0.00000000000E+00  0.45593999997E+02  0.45594000000E+02  0.51100000000E-03 0. -1.
         11   -1    0    0    0    0 -0.00000000000E+00 -0.00000000000E+00 -0.45593999997E+02  0.45594000000E+02  0.51100000000E-03 0.  1.
    9900012    2    1    2    0    0  0.32394638680E+02 -0.19908120854E+02 -0.20925528630E+02  0.47787266831E+02  0.19999980790E+02 0.  0.
         12    1    1    2    0    0 -0.32394638680E+02  0.19908120854E+02  0.20925528630E+02  0.43400733169E+02  0.00000000000E+00 0. -1.
         11    1    3    3    0    0  0.95896791549E+01 -0.12853971872E+02 -0.41769649610E+01  0.16572072162E+02  0.51100000000E-03 0. -1.
        -11    1    3    3    0    0  0.21148107931E+02 -0.92011816086E+01 -0.16748978728E+02  0.28503201588E+02  0.51100000000E-03 0.  1.
        -12    1    3    3    0    0  0.16568515935E+01  0.21470326268E+01  0.41505829832E-03  0.27119930818E+01  0.00000000000E+00 0.  1.
</event>
<event>
 7    1  0.3556861E-009  0.4778727E+02  0.7816164E-02  0.1312668E+00
        -11   -1    0    0    0    0  0.00000000000E+00  0.00000000000E+00  0.45593999997E+02  0.45594000000E+02  0.51100000000E-03 0. -1.
         11   -1    0    0    0    0 -0.00000000000E+00 -0.00000000000E+00 -0.45593999997E+02  0.45594000000E+02  0.51100000000E-03 0.  1.
    9900012    2    1    2    0    0 -0.13752101120E+02 -0.30580072550E+02 -0.27556530081E+02  0.47787268756E+02  0.19999989566E+02 0.  0.
         12    1    1    2    0    0  0.13752101120E+02  0.30580072550E+02  0.27556530081E+02  0.43400731244E+02  0.00000000000E+00 0. -1.
         11    1    3    3    0    0 -0.77322088442E+01 -0.42922438314E+01 -0.11360759519E+02  0.14397127068E+02  0.51100000000E-03 0. -1.
        -11    1    3    3    0    0 -0.14385440150E+01 -0.20230877906E+02 -0.15931864603E+02  0.25791125212E+02  0.51100000000E-03 0.  1.
         12    1    3    3    0    0 -0.45813482612E+01 -0.60569508130E+01 -0.26390595981E+00  0.75990164756E+01  0.00000000000E+00 0. -1.
</event>
<event>
 7    1  0.2455451E-009  0.4778728E+02  0.7816164E-02  0.1312668E+00
        -11   -1    0    0    0    0  0.00000000000E+00  0.00000000000E+00  0.45593999997E+02  0.45594000000E+02  0.51100000000E-03 0.  1.
         11   -1    0    0    0    0 -0.00000000000E+00 -0.00000000000E+00 -0.45593999997E+02  0.45594000000E+02  0.51100000000E-03 0. -1.
    9900012    2    1    2    0    0  0.78701013726E+01 -0.39883267883E+02 -0.15198987866E+02  0.47787276679E+02  0.20000025691E+02 0.  0.
         12    1    1    2    0    0 -0.78701013726E+01  0.39883267883E+02  0.15198987866E+02  0.43400723321E+02  0.00000000000E+00 0. -1.
         11    1    3    3    0    0  0.14824658589E+01 -0.27793898919E+02 -0.11649954547E+02  0.30173166280E+02  0.51100000000E-03 0. -1.
        -11    1    3    3    0    0 -0.11416629192E+01 -0.11403267263E+01  0.25306282103E+01  0.30013028278E+01  0.51100000000E-03 0.  1.
         12    1    3    3    0    0  0.75292984329E+01 -0.10949042237E+02 -0.60796615298E+01  0.14612807571E+02  0.00000000000E+00 0. -1.
</event>
<event>
 7    1  0.2455451E-009  0.4778729E+02  0.7816164E-02  0.1312668E+00
        -11   -1    0    0    0    0  0.00000000000E+00  0.00000000000E+00  0.45593999997E+02  0.45594000000E+02  0.51100000000E-03 0.  1.
         11   -1    0    0    0    0 -0.00000000000E+00 -0.00000000000E+00 -0.45593999997E+02  0.45594000000E+02  0.51100000000E-03 0. -1.
    9900012    2    1    2    0    0 -0.16527212043E+02 -0.39877532872E+02  0.45006267106E+01  0.47787285643E+02  0.20000066563E+02 0.  0.
         12    1    1    2    0    0  0.16527212043E+02  0.39877532872E+02 -0.45006267106E+01  0.43400714357E+02  0.00000000000E+00 0. -1.
         11    1    3    3    0    0 -0.97612317628E+01 -0.25000276470E+02 -0.31960641809E+01  0.27027953966E+02  0.51100000000E-03 0. -1.
        -11    1    3    3    0    0 -0.21205079779E+01 -0.49432696617E+01  0.81710469619E+01  0.97825598770E+01  0.51100000000E-03 0.  1.
        -12    1    3    3    0    0 -0.46454723024E+01 -0.99339867403E+01 -0.47435607039E+00  0.10976771800E+02  0.00000000000E+00 0.  1.
</event>
<event>
 7    1  0.2455451E-009  0.4778728E+02  0.7816164E-02  0.1312668E+00
        -11   -1    0    0    0    0  0.00000000000E+00  0.00000000000E+00  0.45593999997E+02  0.45594000000E+02  0.51100000000E-03 0.  1.
         11   -1    0    0    0    0 -0.00000000000E+00 -0.00000000000E+00 -0.45593999997E+02  0.45594000000E+02  0.51100000000E-03 0. -1.
    9900012    2    1    2    0    0  0.14469168946E+02  0.77943668979E+01  0.40168566415E+02  0.47787277274E+02  0.20000028403E+02 0.  0.
         12    1    1    2    0    0 -0.14469168946E+02 -0.77943668979E+01 -0.40168566415E+02  0.43400722726E+02  0.00000000000E+00 0. -1.
         11    1    3    3    0    0  0.97232377217E+01 -0.36898987996E+01  0.79806837263E+01  0.13109081507E+02  0.51100000000E-03 0. -1.
        -11    1    3    3    0    0  0.16136786305E+01  0.86292544665E+00  0.46902125608E+01  0.50345499476E+01  0.51100000000E-03 0.  1.
         12    1    3    3    0    0  0.31322525937E+01  0.10621340251E+02  0.27497670128E+02  0.29643645820E+02  0.00000000000E+00 0. -1.
</event>
<event>
 7    1  0.2455451E-009  0.4778727E+02  0.7816164E-02  0.1312668E+00
        -11   -1    0    0    0    0  0.00000000000E+00  0.00000000000E+00  0.45593999997E+02  0.45594000000E+02  0.51100000000E-03 0.  1.
         11   -1    0    0    0    0 -0.00000000000E+00 -0.00000000000E+00 -0.45593999997E+02  0.45594000000E+02  0.51100000000E-03 0. -1.
    9900012    2    1    2    0    0  0.36409178108E+02 -0.23473043299E+02  0.26479432682E+01  0.47787267106E+02  0.19999982042E+02 0.  0.
         12    1    1    2    0    0 -0.36409178108E+02  0.23473043299E+02 -0.26479432682E+01  0.43400732894E+02  0.00000000000E+00 0. -1.
         11    1    3    3    0    0  0.12604856658E+01 -0.87601794512E+01  0.31731598187E+01  0.94020482677E+01  0.51100000000E-03 0. -1.
        -11    1    3    3    0    0  0.21287945922E+02 -0.10732325135E+02 -0.17990657502E+01  0.23908075670E+02  0.51100000000E-03 0.  1.
        -12    1    3    3    0    0  0.13860746520E+02 -0.39805387123E+01  0.12738491997E+01  0.14477143168E+02  0.00000000000E+00 0.  1.
</event>
<event>
 7    1  0.2455451E-009  0.4778727E+02  0.7816164E-02  0.1312668E+00
        -11   -1    0    0    0    0  0.00000000000E+00  0.00000000000E+00  0.45593999997E+02  0.45594000000E+02  0.51100000000E-03 0.  1.
         11   -1    0    0    0    0 -0.00000000000E+00 -0.00000000000E+00 -0.45593999997E+02  0.45594000000E+02  0.51100000000E-03 0. -1.
    9900012    2    1    2    0    0  0.27621881750E+02  0.13976857117E+02  0.30418783002E+02  0.47787271370E+02  0.20000001487E+02 0.  0.
         12    1    1    2    0    0 -0.27621881750E+02 -0.13976857117E+02 -0.30418783002E+02  0.43400728630E+02  0.00000000000E+00 0. -1.
         11    1    3    3    0    0  0.18417472384E+01 -0.23187264658E+01  0.20057565623E+01  0.35765325333E+01  0.51100000000E-03 0. -1.
        -11    1    3    3    0    0  0.20782937782E+01  0.14781582965E+01  0.10969667735E+02  0.11262231904E+02  0.51100000000E-03 0.  1.
        -12    1    3    3    0    0  0.23701840733E+02  0.14817425286E+02  0.17443358705E+02  0.32948506933E+02  0.00000000000E+00 0.  1.
</event>
<event>
 7    1  0.2455451E-009  0.4778726E+02  0.7816164E-02  0.1312668E+00
        -11   -1    0    0    0    0  0.00000000000E+00  0.00000000000E+00  0.45593999997E+02  0.45594000000E+02  0.51100000000E-03 0. -1.
         11   -1    0    0    0    0 -0.00000000000E+00 -0.00000000000E+00 -0.45593999997E+02  0.45594000000E+02  0.51100000000E-03 0.  1.
    9900012    2    1    2    0    0 -0.35344890584E+02 -0.25138544472E+02  0.15544449748E+01  0.47787262590E+02  0.19999961451E+02 0.  0.
         12    1    1    2    0    0  0.35344890584E+02  0.25138544472E+02 -0.15544449748E+01  0.43400737410E+02  0.00000000000E+00 0. -1.
         11    1    3    3    0    0 -0.18009894358E+02 -0.36199453695E+01 -0.59436097306E+00  0.18379705234E+02  0.51100000000E-03 0. -1.
        -11    1    3    3    0    0 -0.72570129186E+01 -0.33520162312E+01 -0.19596252035E+01  0.82304544537E+01  0.51100000000E-03 0.  1.
         12    1    3    3    0    0 -0.10077983307E+02 -0.18166582872E+02  0.41084311513E+01  0.21177102902E+02  0.00000000000E+00 0. -1.
</event>
<event>
 7    1  0.2455451E-009  0.4778727E+02  0.7816164E-02  0.1312668E+00
        -11   -1    0    0    0    0  0.00000000000E+00  0.00000000000E+00  0.45593999997E+02  0.45594000000E+02  0.51100000000E-03 0.  1.
         11   -1    0    0    0    0 -0.00000000000E+00 -0.00000000000E+00 -0.45593999997E+02  0.45594000000E+02  0.51100000000E-03 0. -1.
    9900012    2    1    2    0    0  0.20340565750E+02  0.51509560837E+01  0.37991475564E+02  0.47787272136E+02  0.20000004978E+02 0.  0.
         12    1    1    2    0    0 -0.20340565750E+02 -0.51509560837E+01 -0.37991475564E+02  0.43400727864E+02  0.00000000000E+00 0. -1.
         11    1    3    3    0    0 -0.35732576875E+00 -0.53773019779E+01  0.10480897378E+02  0.11785256398E+02  0.51100000000E-03 0. -1.
        -11    1    3    3    0    0  0.71384301408E+01  0.37684182390E+01  0.95725620362E+01  0.12521665428E+02  0.51100000000E-03 0.  1.
         12    1    3    3    0    0  0.13559461378E+02  0.67598398226E+01  0.17938016149E+02  0.23480350310E+02  0.00000000000E+00 0. -1.
</event>
<event>
 7    1  0.2455451E-009  0.4778726E+02  0.7816164E-02  0.1312668E+00
        -11   -1    0    0    0    0  0.00000000000E+00  0.00000000000E+00  0.45593999997E+02  0.45594000000E+02  0.51100000000E-03 0.  1.
         11   -1    0    0    0    0 -0.00000000000E+00 -0.00000000000E+00 -0.45593999997E+02  0.45594000000E+02  0.51100000000E-03 0. -1.
    9900012    2    1    2    0    0  0.49656349556E+01  0.43111702246E+02 -0.58943355795E+00  0.47787264603E+02  0.19999970633E+02 0.  0.
         12    1    1    2    0    0 -0.49656349556E+01 -0.43111702246E+02  0.58943355795E+00  0.43400735397E+02  0.00000000000E+00 0. -1.
         11    1    3    3    0    0 -0.16730645416E+01  0.33818891747E+01  0.39426499223E+01  0.54571794933E+01  0.51100000000E-03 0. -1.
        -11    1    3    3    0    0  0.10679729337E+01  0.34036168248E+02 -0.27227798293E+01  0.34161598989E+02  0.51100000000E-03 0.  1.
        -12    1    3    3    0    0  0.55707265635E+01  0.56936448227E+01 -0.18093036509E+01  0.81684861213E+01  0.00000000000E+00 0.  1.
</event>
<event>
 7    1  0.2455451E-009  0.4778727E+02  0.7816164E-02  0.1312668E+00
        -11   -1    0    0    0    0  0.00000000000E+00  0.00000000000E+00  0.45593999997E+02  0.45594000000E+02  0.51100000000E-03 0. -1.
         11   -1    0    0    0    0 -0.00000000000E+00 -0.00000000000E+00 -0.45593999997E+02  0.45594000000E+02  0.51100000000E-03 0.  1.
    9900012    2    1    2    0    0 -0.94438725952E+01 -0.29116241832E+02 -0.30768182821E+02  0.47787270258E+02  0.19999996414E+02 0.  0.
         12    1    1    2    0    0  0.94438725952E+01  0.29116241832E+02  0.30768182821E+02  0.43400729742E+02  0.00000000000E+00 0. -1.
         11    1    3    3    0    0 -0.41154776314E+01 -0.26659558204E+00 -0.12433611533E+02  0.13099729973E+02  0.51100000000E-03 0. -1.
        -11    1    3    3    0    0  0.11280969855E+00 -0.87142762869E+00 -0.98495217147E+00  0.13199405977E+01  0.51100000000E-03 0.  1.
         12    1    3    3    0    0 -0.54412046623E+01 -0.27978218621E+02 -0.17349619116E+02  0.33367599687E+02  0.00000000000E+00 0. -1.
</event>
<event>
 7    1  0.2455451E-009  0.4778727E+02  0.7816164E-02  0.1312668E+00
        -11   -1    0    0    0    0  0.00000000000E+00  0.00000000000E+00  0.45593999997E+02  0.45594000000E+02  0.51100000000E-03 0.  1.
         11   -1    0    0    0    0 -0.00000000000E+00 -0.00000000000E+00 -0.45593999997E+02  0.45594000000E+02  0.51100000000E-03 0. -1.
    9900012    2    1    2    0    0  0.16505103568E+02  0.77168656824E+00  0.40132395929E+02  0.47787272507E+02  0.20000006669E+02 0.  0.
         12    1    1    2    0    0 -0.16505103568E+02 -0.77168656824E+00 -0.40132395929E+02  0.43400727493E+02  0.00000000000E+00 0. -1.
         11    1    3    3    0    0 -0.16745001853E+01 -0.22941230062E+01  0.95690610853E+01  0.99816772916E+01  0.51100000000E-03 0. -1.
        -11    1    3    3    0    0  0.13023712500E+02  0.16312494344E+01  0.98454392417E+01  0.16407642613E+02  0.51100000000E-03 0.  1.
        -12    1    3    3    0    0  0.51558912527E+01  0.14345601400E+01  0.20717895602E+02  0.21397952602E+02  0.00000000000E+00 0.  1.
</event>
<event>
 7    1  0.2455451E-009  0.4778727E+02  0.7816164E-02  0.1312668E+00
        -11   -1    0    0    0    0  0.00000000000E+00  0.00000000000E+00  0.45593999997E+02  0.45594000000E+02  0.51100000000E-03 0. -1.
         11   -1    0    0    0    0 -0.00000000000E+00 -0.00000000000E+00 -0.45593999997E+02  0.45594000000E+02  0.51100000000E-03 0.  1.
    9900012    2    1    2    0    0 -0.10508054609E+02  0.71327810512E+01 -0.41500932950E+02  0.47787271746E+02  0.20000003201E+02 0.  0.
         12    1    1    2    0    0  0.10508054609E+02 -0.71327810512E+01  0.41500932950E+02  0.43400728254E+02  0.00000000000E+00 0. -1.
         11    1    3    3    0    0 -0.63794994507E+01  0.10382065318E+02 -0.30917787956E+02  0.33232437556E+02  0.51100000000E-03 0. -1.
        -11    1    3    3    0    0 -0.45169911159E+01 -0.23542695396E+00 -0.10590586793E+02  0.11516039400E+02  0.51100000000E-03 0.  1.
         12    1    3    3    0    0  0.38843595791E+00 -0.30138573132E+01  0.74417989811E-02  0.30387947904E+01  0.00000000000E+00 0. -1.
</event>
<event>
 7    1  0.2455451E-009  0.4778727E+02  0.7816164E-02  0.1312668E+00
        -11   -1    0    0    0    0  0.00000000000E+00  0.00000000000E+00  0.45593999997E+02  0.45594000000E+02  0.51100000000E-03 0.  1.
         11   -1    0    0    0    0 -0.00000000000E+00 -0.00000000000E+00 -0.45593999997E+02  0.45594000000E+02  0.51100000000E-03 0. -1.
    9900012    2    1    2    0    0  0.11735622678E+02 -0.24224415202E+02  0.34045212187E+02  0.47787267237E+02  0.19999982640E+02 0.  0.
         12    1    1    2    0    0 -0.11735622678E+02  0.24224415202E+02 -0.34045212187E+02  0.43400732763E+02  0.00000000000E+00 0. -1.
         11    1    3    3    0    0  0.88257619254E+01 -0.15506431332E+02  0.99620530739E+01  0.20434920796E+02  0.51100000000E-03 0. -1.
        -11    1    3    3    0    0  0.52964419583E+00 -0.72397264883E+01  0.71503762446E+01  0.10189310247E+02  0.51100000000E-03 0.  1.
         12    1    3    3    0    0  0.23802165570E+01 -0.14782573810E+01  0.16932782868E+02  0.17163036195E+02  0.00000000000E+00 0. -1.
</event>
<event>
 7    1  0.2455451E-009  0.4778727E+02  0.7816164E-02  0.1312668E+00
        -11   -1    0    0    0    0  0.00000000000E+00  0.00000000000E+00  0.45593999997E+02  0.45594000000E+02  0.51100000000E-03 0.  1.
         11   -1    0    0    0    0 -0.00000000000E+00 -0.00000000000E+00 -0.45593999997E+02  0.45594000000E+02  0.51100000000E-03 0. -1.
    9900012    2    1    2    0    0  0.13263822161E+02  0.26418699774E+02  0.31776509865E+02  0.47787271259E+02  0.20000000977E+02 0.  0.
         12    1    1    2    0    0 -0.13263822161E+02 -0.26418699774E+02 -0.31776509865E+02  0.43400728741E+02  0.00000000000E+00 0. -1.
         11    1    3    3    0    0 -0.18254986577E+01  0.28659267101E+01  0.32999258859E+01  0.47366119084E+01  0.51100000000E-03 0. -1.
        -11    1    3    3    0    0 -0.29348371269E+01  0.78537351023E+01  0.73277637001E+01  0.11135104181E+02  0.51100000000E-03 0.  1.
        -12    1    3    3    0    0  0.18024157946E+02  0.15699037961E+02  0.21148820279E+02  0.31915555169E+02  0.00000000000E+00 0.  1.
</event>
<event>
 7    1  0.2455451E-009  0.4778726E+02  0.7816164E-02  0.1312668E+00
        -11   -1    0    0    0    0  0.00000000000E+00  0.00000000000E+00  0.45593999997E+02  0.45594000000E+02  0.51100000000E-03 0. -1.
         11   -1    0    0    0    0 -0.00000000000E+00 -0.00000000000E+00 -0.45593999997E+02  0.45594000000E+02  0.51100000000E-03 0.  1.
    9900012    2    1    2    0    0  0.16996488732E+02 -0.98259947092E+01 -0.38706500192E+02  0.47787263159E+02  0.19999964045E+02 0.  0.
         12    1    1    2    0    0 -0.16996488732E+02  0.98259947092E+01  0.38706500192E+02  0.43400736841E+02  0.00000000000E+00 0. -1.
         11    1    3    3    0    0  0.13988980721E+02 -0.10146710215E+02 -0.33769955399E+02  0.37934907377E+02  0.51100000000E-03 0. -1.
        -11    1    3    3    0    0  0.36123598012E+01 -0.10809562376E+00 -0.68804598100E+01  0.77718437616E+01  0.51100000000E-03 0.  1.
         12    1    3    3    0    0 -0.60485179014E+00  0.42881112954E+00  0.19439150167E+01  0.20805120199E+01  0.00000000000E+00 0. -1.
</event>
<event>
 7    1  0.2455451E-009  0.4778727E+02  0.7816164E-02  0.1312668E+00
        -11   -1    0    0    0    0  0.00000000000E+00  0.00000000000E+00  0.45593999997E+02  0.45594000000E+02  0.51100000000E-03 0. -1.
         11   -1    0    0    0    0 -0.00000000000E+00 -0.00000000000E+00 -0.45593999997E+02  0.45594000000E+02  0.51100000000E-03 0.  1.
    9900012    2    1    2    0    0 -0.23006426428E+02 -0.98337355094E+01 -0.35463013274E+02  0.47787270496E+02  0.19999997499E+02 0.  0.
         12    1    1    2    0    0  0.23006426428E+02  0.98337355094E+01  0.35463013274E+02  0.43400729504E+02  0.00000000000E+00 0. -1.
         11    1    3    3    0    0 -0.11866061948E+02  0.10822109781E+01 -0.72491539173E+01  0.13947216193E+02  0.51100000000E-03 0. -1.
        -11    1    3    3    0    0 -0.10189880157E+02 -0.66164964823E+01 -0.26430759986E+02  0.29089461271E+02  0.51100000000E-03 0.  1.
        -12    1    3    3    0    0 -0.95048432318E+00 -0.42994500053E+01 -0.17830993702E+01  0.47505930325E+01  0.00000000000E+00 0.  1.
</event>
<event>
 7    1  0.2455451E-009  0.4778727E+02  0.7816164E-02  0.1312668E+00
        -11   -1    0    0    0    0  0.00000000000E+00  0.00000000000E+00  0.45593999997E+02  0.45594000000E+02  0.51100000000E-03 0.  1.
         11   -1    0    0    0    0 -0.00000000000E+00 -0.00000000000E+00 -0.45593999997E+02  0.45594000000E+02  0.51100000000E-03 0. -1.
    9900012    2    1    2    0    0 -0.25744795784E+02  0.18965462106E+02  0.29345191577E+02  0.47787268076E+02  0.19999986466E+02 0.  0.
         12    1    1    2    0    0  0.25744795784E+02 -0.18965462106E+02 -0.29345191577E+02  0.43400731924E+02  0.00000000000E+00 0. -1.
         11    1    3    3    0    0 -0.11993453437E+02  0.46596348438E+01  0.12927989358E+01  0.12931606689E+02  0.51100000000E-03 0. -1.
        -11    1    3    3    0    0 -0.12947023747E+02  0.13353678420E+02  0.27991731981E+02  0.33607784973E+02  0.51100000000E-03 0.  1.
        -12    1    3    3    0    0 -0.80431860001E+00  0.95214884216E+00  0.60660660155E-01  0.12478764136E+01  0.00000000000E+00 0.  1.
</event>
<event>
 7    1  0.2455451E-009  0.4778727E+02  0.7816164E-02  0.1312668E+00
        -11   -1    0    0    0    0  0.00000000000E+00  0.00000000000E+00  0.45593999997E+02  0.45594000000E+02  0.51100000000E-03 0.  1.
         11   -1    0    0    0    0 -0.00000000000E+00 -0.00000000000E+00 -0.45593999997E+02  0.45594000000E+02  0.51100000000E-03 0. -1.
    9900012    2    1    2    0    0  0.31018334649E+01  0.10136890891E+02  0.42086165861E+02  0.47787270920E+02  0.19999999433E+02 0.  0.
         12    1    1    2    0    0 -0.31018334649E+01 -0.10136890891E+02 -0.42086165861E+02  0.43400729080E+02  0.00000000000E+00 0. -1.
         11    1    3    3    0    0  0.83375041778E+01  0.90252725242E-01  0.10265623237E+02  0.13225170780E+02  0.51100000000E-03 0. -1.
        -11    1    3    3    0    0  0.80298010172E+00  0.59410848660E+01  0.11490303598E+02  0.12960260162E+02  0.51100000000E-03 0.  1.
         12    1    3    3    0    0 -0.60386508146E+01  0.41055532994E+01  0.20330239027E+02  0.21601839978E+02  0.00000000000E+00 0. -1.
</event>
<event>
 7    1  0.2455451E-009  0.4778727E+02  0.7816164E-02  0.1312668E+00
        -11   -1    0    0    0    0  0.00000000000E+00  0.00000000000E+00  0.45593999997E+02  0.45594000000E+02  0.51100000000E-03 0.  1.
         11   -1    0    0    0    0 -0.00000000000E+00 -0.00000000000E+00 -0.45593999997E+02  0.45594000000E+02  0.51100000000E-03 0. -1.
    9900012    2    1    2    0    0 -0.25956089753E+02 -0.34705045081E+01  0.34610119800E+02  0.47787269713E+02  0.19999993932E+02 0.  0.
         12    1    1    2    0    0  0.25956089753E+02  0.34705045081E+01 -0.34610119800E+02  0.43400730287E+02  0.00000000000E+00 0. -1.
         11    1    3    3    0    0  0.83701966418E+00  0.33557731486E+01  0.13124327729E+01  0.36992290261E+01  0.51100000000E-03 0. -1.
        -11    1    3    3    0    0 -0.83837028185E+00  0.13814705257E+01  0.25796598445E+01  0.30440057026E+01  0.51100000000E-03 0.  1.
         12    1    3    3    0    0 -0.25954739135E+02 -0.82077481825E+01  0.30718027183E+02  0.41044034985E+02  0.00000000000E+00 0. -1.
</event>
<event>
 7    1  0.2455451E-009  0.4778726E+02  0.7816164E-02  0.1312668E+00
        -11   -1    0    0    0    0  0.00000000000E+00  0.00000000000E+00  0.45593999997E+02  0.45594000000E+02  0.51100000000E-03 0. -1.
         11   -1    0    0    0    0 -0.00000000000E+00 -0.00000000000E+00 -0.45593999997E+02  0.45594000000E+02  0.51100000000E-03 0.  1.
    9900012    2    1    2    0    0 -0.50768403878E+01  0.33899740032E+02  0.26620627374E+02  0.47787257100E+02  0.19999936420E+02 0.  0.
         12    1    1    2    0    0  0.50768403878E+01 -0.33899740032E+02 -0.26620627374E+02  0.43400742900E+02  0.00000000000E+00 0. -1.
         11    1    3    3    0    0  0.16466054942E+01  0.57038123321E+01  0.43439493429E+01  0.73562681386E+01  0.51100000000E-03 0. -1.
        -11    1    3    3    0    0 -0.59820795244E+00  0.26573270119E+02  0.21210013540E+02  0.34005311529E+02  0.51100000000E-03 0.  1.
        -12    1    3    3    0    0 -0.61252379296E+01  0.16226575805E+01  0.10666644907E+01  0.64256774314E+01  0.00000000000E+00 0.  1.
</event>
<event>
 7    1  0.2455451E-009  0.4778727E+02  0.7816164E-02  0.1312668E+00
        -11   -1    0    0    0    0  0.00000000000E+00  0.00000000000E+00  0.45593999997E+02  0.45594000000E+02  0.51100000000E-03 0. -1.
         11   -1    0    0    0    0 -0.00000000000E+00 -0.00000000000E+00 -0.45593999997E+02  0.45594000000E+02  0.51100000000E-03 0.  1.
    9900012    2    1    2    0    0  0.32980375556E+01 -0.16597780402E+02 -0.39965732584E+02  0.47787272506E+02  0.20000006665E+02 0.  0.
         12    1    1    2    0    0 -0.32980375556E+01  0.16597780402E+02  0.39965732584E+02  0.43400727494E+02  0.00000000000E+00 0. -1.
         11    1    3    3    0    0 -0.50952726406E+01 -0.86145069781E+01 -0.20242774100E+02  0.22581882944E+02  0.51100000000E-03 0. -1.
        -11    1    3    3    0    0  0.88086927031E+01 -0.94880315723E+01 -0.19783431950E+02  0.23643180629E+02  0.51100000000E-03 0.  1.
         12    1    3    3    0    0 -0.41538250694E+00  0.15047581481E+01  0.60473466731E-01  0.15622089334E+01  0.00000000000E+00 0. -1.
</event>
<event>
 7    1  0.2455451E-009  0.4778727E+02  0.7816164E-02  0.1312668E+00
        -11   -1    0    0    0    0  0.00000000000E+00  0.00000000000E+00  0.45593999997E+02  0.45594000000E+02  0.51100000000E-03 0.  1.
         11   -1    0    0    0    0 -0.00000000000E+00 -0.00000000000E+00 -0.45593999997E+02  0.45594000000E+02  0.51100000000E-03 0. -1.
    9900012    2    1    2    0    0 -0.24723030774E+02 -0.30037579071E+02  0.19238997473E+02  0.47787269236E+02  0.19999991755E+02 0.  0.
         12    1    1    2    0    0  0.24723030774E+02  0.30037579071E+02 -0.19238997473E+02  0.43400730764E+02  0.00000000000E+00 0. -1.
         11    1    3    3    0    0 -0.46543414823E+01 -0.13654640685E+02  0.16050612000E+01  0.14515106909E+02  0.51100000000E-03 0. -1.
        -11    1    3    3    0    0 -0.29793740711E+01 -0.87510082105E+01  0.79840787058E+01  0.12214840466E+02  0.51100000000E-03 0.  1.
         12    1    3    3    0    0 -0.17089315221E+02 -0.76319301751E+01  0.96498575667E+01  0.21057321861E+02  0.00000000000E+00 0. -1.
</event>
<event>
 7    1  0.2455451E-009  0.4778727E+02  0.7816164E-02  0.1312668E+00
        -11   -1    0    0    0    0  0.00000000000E+00  0.00000000000E+00  0.45593999997E+02  0.45594000000E+02  0.51100000000E-03 0.  1.
         11   -1    0    0    0    0 -0.00000000000E+00 -0.00000000000E+00 -0.45593999997E+02  0.45594000000E+02  0.51100000000E-03 0. -1.
    9900012    2    1    2    0    0 -0.17291870635E+02  0.46247405064E+00  0.39804528652E+02  0.47787272201E+02  0.20000005273E+02 0.  0.
         12    1    1    2    0    0  0.17291870635E+02 -0.46247405064E+00 -0.39804528652E+02  0.43400727799E+02  0.00000000000E+00 0. -1.
         11    1    3    3    0    0 -0.11442071698E+02 -0.80983968908E+01  0.18772091340E+02  0.23428539231E+02  0.51100000000E-03 0. -1.
        -11    1    3    3    0    0  0.86070677342E-01  0.56161495858E+01  0.86221523616E+01  0.10290289400E+02  0.51100000000E-03 0.  1.
         12    1    3    3    0    0 -0.59358696139E+01  0.29447213557E+01  0.12410284950E+02  0.14068443570E+02  0.00000000000E+00 0. -1.
</event>
<event>
 7    1  0.2455451E-009  0.4778727E+02  0.7816164E-02  0.1312668E+00
        -11   -1    0    0    0    0  0.00000000000E+00  0.00000000000E+00  0.45593999997E+02  0.45594000000E+02  0.51100000000E-03 0. -1.
         11   -1    0    0    0    0 -0.00000000000E+00 -0.00000000000E+00 -0.45593999997E+02  0.45594000000E+02  0.51100000000E-03 0.  1.
    9900012    2    1    2    0    0 -0.17480923099E+02  0.31049490721E+02 -0.24778412995E+02  0.47787270778E+02  0.19999998787E+02 0.  0.
         12    1    1    2    0    0  0.17480923099E+02 -0.31049490721E+02  0.24778412995E+02  0.43400729222E+02  0.00000000000E+00 0. -1.
         11    1    3    3    0    0 -0.62384263150E+01  0.16155310816E+02 -0.11050444062E+01  0.17353188578E+02  0.51100000000E-03 0. -1.
        -11    1    3    3    0    0 -0.25556305151E+01  0.32893052731E+01 -0.84040530240E+01  0.93797059656E+01  0.51100000000E-03 0.  1.
         12    1    3    3    0    0 -0.86868662689E+01  0.11604874632E+02 -0.15269315565E+02  0.21054376234E+02  0.00000000000E+00 0. -1.
</event>
<event>
 7    1  0.2455451E-009  0.4778727E+02  0.7816164E-02  0.1312668E+00
        -11   -1    0    0    0    0  0.00000000000E+00  0.00000000000E+00  0.45593999997E+02  0.45594000000E+02  0.51100000000E-03 0.  1.
         11   -1    0    0    0    0 -0.00000000000E+00 -0.00000000000E+00 -0.45593999997E+02  0.45594000000E+02  0.51100000000E-03 0. -1.
    9900012    2    1    2    0    0  0.41978346353E+02  0.44121876754E+01  0.10098219891E+02  0.47787274112E+02  0.20000013986E+02 0.  0.
         12    1    1    2    0    0 -0.41978346353E+02 -0.44121876754E+01 -0.10098219891E+02  0.43400725888E+02  0.00000000000E+00 0. -1.
         11    1    3    3    0    0  0.15753441893E+02 -0.52853480168E+01  0.31264070189E+01  0.16907993856E+02  0.51100000000E-03 0. -1.
        -11    1    3    3    0    0  0.37327724101E+01  0.60141014559E+01  0.11806725145E+00  0.70793323360E+01  0.51100000000E-03 0.  1.
        -12    1    3    3    0    0  0.22492132050E+02  0.36834342363E+01  0.68537456210E+01  0.23799947920E+02  0.00000000000E+00 0.  1.
</event>
<event>
 7    1  0.2455451E-009  0.4778727E+02  0.7816164E-02  0.1312668E+00
        -11   -1    0    0    0    0  0.00000000000E+00  0.00000000000E+00  0.45593999997E+02  0.45594000000E+02  0.51100000000E-03 0.  1.
         11   -1    0    0    0    0 -0.00000000000E+00 -0.00000000000E+00 -0.45593999997E+02  0.45594000000E+02  0.51100000000E-03 0. -1.
    9900012    2    1    2    0    0  0.26714814418E+02 -0.22645188594E+02 -0.25634688805E+02  0.47787272518E+02  0.20000006717E+02 0.  0.
         12    1    1    2    0    0 -0.26714814418E+02  0.22645188594E+02  0.25634688805E+02  0.43400727482E+02  0.00000000000E+00 0. -1.
         11    1    3    3    0    0  0.88427828668E+01 -0.46352347472E+01  0.52169660032E+00  0.99976185962E+01  0.51100000000E-03 0. -1.
        -11    1    3    3    0    0  0.12272453450E+02 -0.17855957693E+02 -0.21102743562E+02  0.30245233094E+02  0.51100000000E-03 0.  1.
        -12    1    3    3    0    0  0.55995781019E+01 -0.15399615298E+00 -0.50536418436E+01  0.75444208272E+01  0.00000000000E+00 0.  1.
</event>
<event>
 7    1  0.2455451E-009  0.4778727E+02  0.7816164E-02  0.1312668E+00
        -11   -1    0    0    0    0  0.00000000000E+00  0.00000000000E+00  0.45593999997E+02  0.45594000000E+02  0.51100000000E-03 0. -1.
         11   -1    0    0    0    0 -0.00000000000E+00 -0.00000000000E+00 -0.45593999997E+02  0.45594000000E+02  0.51100000000E-03 0.  1.
    9900012    2    1    2    0    0  0.20380718893E+02 -0.86033572343E+01 -0.37339414260E+02  0.47787270564E+02  0.19999997809E+02 0.  0.
         12    1    1    2    0    0 -0.20380718893E+02  0.86033572343E+01  0.37339414260E+02  0.43400729436E+02  0.00000000000E+00 0. -1.
         11    1    3    3    0    0  0.19549267282E+01  0.30201079875E+01 -0.11234494941E+02  0.11796468438E+02  0.51100000000E-03 0. -1.
        -11    1    3    3    0    0  0.30133401637E+01 -0.15443610624E+01 -0.12882386573E+02  0.13319953232E+02  0.51100000000E-03 0.  1.
         12    1    3    3    0    0  0.15412452001E+02 -0.10079104159E+02 -0.13222532747E+02  0.22670848894E+02  0.00000000000E+00 0. -1.
</event>
<event>
 7    1  0.2455451E-009  0.4778726E+02  0.7816164E-02  0.1312668E+00
        -11   -1    0    0    0    0  0.00000000000E+00  0.00000000000E+00  0.45593999997E+02  0.45594000000E+02  0.51100000000E-03 0. -1.
         11   -1    0    0    0    0 -0.00000000000E+00 -0.00000000000E+00 -0.45593999997E+02  0.45594000000E+02  0.51100000000E-03 0.  1.
    9900012    2    1    2    0    0  0.27317434475E+02 -0.27957730708E+02  0.18861261773E+02  0.47787261201E+02  0.19999955121E+02 0.  0.
         12    1    1    2    0    0 -0.27317434475E+02  0.27957730708E+02 -0.18861261773E+02  0.43400738799E+02  0.00000000000E+00 0. -1.
         11    1    3    3    0    0  0.15613867017E+01 -0.70151356332E+01  0.36655758930E+01  0.80676206699E+01  0.51100000000E-03 0. -1.
        -11    1    3    3    0    0  0.11671897755E+02 -0.11068461362E+02  0.15746874927E+02  0.22510177795E+02  0.51100000000E-03 0.  1.
        -12    1    3    3    0    0  0.14084150018E+02 -0.98741337130E+01 -0.55118904791E+00  0.17209462737E+02  0.00000000000E+00 0.  1.
</event>
<event>
 7    1  0.2455451E-009  0.4778727E+02  0.7816164E-02  0.1312668E+00
        -11   -1    0    0    0    0  0.00000000000E+00  0.00000000000E+00  0.45593999997E+02  0.45594000000E+02  0.51100000000E-03 0.  1.
         11   -1    0    0    0    0 -0.00000000000E+00 -0.00000000000E+00 -0.45593999997E+02  0.45594000000E+02  0.51100000000E-03 0. -1.
    9900012    2    1    2    0    0  0.30546721953E+02 -0.25390604312E+02 -0.17488225859E+02  0.47787273588E+02  0.20000011596E+02 0.  0.
         12    1    1    2    0    0 -0.30546721953E+02  0.25390604312E+02  0.17488225859E+02  0.43400726412E+02  0.00000000000E+00 0. -1.
         11    1    3    3    0    0  0.38127982388E+01 -0.12929705752E+01 -0.72692222058E+01  0.83096808035E+01  0.51100000000E-03 0. -1.
        -11    1    3    3    0    0  0.17358995647E+02 -0.17163233322E+02 -0.69425519703E+00  0.24421164970E+02  0.51100000000E-03 0.  1.
        -12    1    3    3    0    0  0.93749280671E+01 -0.69344004149E+01 -0.95247484558E+01  0.15056427814E+02  0.00000000000E+00 0.  1.
</event>
<event>
 7    1  0.2455451E-009  0.4778729E+02  0.7816164E-02  0.1312668E+00
        -11   -1    0    0    0    0  0.00000000000E+00  0.00000000000E+00  0.45593999997E+02  0.45594000000E+02  0.51100000000E-03 0.  1.
         11   -1    0    0    0    0 -0.00000000000E+00 -0.00000000000E+00 -0.45593999997E+02  0.45594000000E+02  0.51100000000E-03 0. -1.
    9900012    2    1    2    0    0  0.81088819554E+01  0.17454608809E+02  0.38899927911E+02  0.47787288868E+02  0.20000081266E+02 0.  0.
         12    1    1    2    0    0 -0.81088819554E+01 -0.17454608809E+02 -0.38899927911E+02  0.43400711132E+02  0.00000000000E+00 0. -1.
         11    1    3    3    0    0  0.41562050865E+01 -0.13789177169E+01  0.27403422579E+01  0.51657459038E+01  0.51100000000E-03 0. -1.
        -11    1    3    3    0    0  0.75461025168E+01  0.16713782304E+02  0.30535079459E+02  0.35618608338E+02  0.51100000000E-03 0.  1.
         12    1    3    3    0    0 -0.35934256479E+01  0.21197442214E+01  0.56245061947E+01  0.70029346267E+01  0.00000000000E+00 0. -1.
</event>
<event>
 7    1  0.2455451E-009  0.4778727E+02  0.7816164E-02  0.1312668E+00
        -11   -1    0    0    0    0  0.00000000000E+00  0.00000000000E+00  0.45593999997E+02  0.45594000000E+02  0.51100000000E-03 0.  1.
         11   -1    0    0    0    0 -0.00000000000E+00 -0.00000000000E+00 -0.45593999997E+02  0.45594000000E+02  0.51100000000E-03 0. -1.
    9900012    2    1    2    0    0 -0.27919088293E+02  0.32393102459E+02 -0.74050443906E+01  0.47787271199E+02  0.20000000705E+02 0.  0.
         12    1    1    2    0    0  0.27919088293E+02 -0.32393102459E+02  0.74050443906E+01  0.43400728801E+02  0.00000000000E+00 0. -1.
         11    1    3    3    0    0 -0.92368781947E-01  0.54306323932E+01 -0.95797578303E+00  0.55152532167E+01  0.51100000000E-03 0. -1.
        -11    1    3    3    0    0 -0.21729340380E+02  0.26496678971E+02 -0.93253121125E+01  0.35513373201E+02  0.51100000000E-03 0.  1.
        -12    1    3    3    0    0 -0.60973791311E+01  0.46579109494E+00  0.28782435049E+01  0.67586447817E+01  0.00000000000E+00 0.  1.
</event>
<event>
 7    1  0.2455451E-009  0.4778727E+02  0.7816164E-02  0.1312668E+00
        -11   -1    0    0    0    0  0.00000000000E+00  0.00000000000E+00  0.45593999997E+02  0.45594000000E+02  0.51100000000E-03 0.  1.
         11   -1    0    0    0    0 -0.00000000000E+00 -0.00000000000E+00 -0.45593999997E+02  0.45594000000E+02  0.51100000000E-03 0. -1.
    9900012    2    1    2    0    0 -0.68211878402E+01 -0.42861062914E+02 -0.15537711262E+00  0.47787268903E+02  0.19999990238E+02 0.  0.
         12    1    1    2    0    0  0.68211878402E+01  0.42861062914E+02  0.15537711262E+00  0.43400731097E+02  0.00000000000E+00 0. -1.
         11    1    3    3    0    0  0.31684659443E+01  0.29870482684E+00  0.12278311535E+01  0.34111538541E+01  0.51100000000E-03 0. -1.
        -11    1    3    3    0    0 -0.43850596017E+01 -0.18445150010E+02  0.48279588975E+00  0.18965373678E+02  0.51100000000E-03 0.  1.
         12    1    3    3    0    0 -0.56045941828E+01 -0.24714617731E+02 -0.18660041559E+01  0.25410741371E+02  0.00000000000E+00 0. -1.
</event>
<event>
 7    1  0.2455451E-009  0.4778727E+02  0.7816164E-02  0.1312668E+00
        -11   -1    0    0    0    0  0.00000000000E+00  0.00000000000E+00  0.45593999997E+02  0.45594000000E+02  0.51100000000E-03 0.  1.
         11   -1    0    0    0    0 -0.00000000000E+00 -0.00000000000E+00 -0.45593999997E+02  0.45594000000E+02  0.51100000000E-03 0. -1.
    9900012    2    1    2    0    0 -0.38575560653E+02  0.18686113182E+02  0.68101655711E+01  0.47787273501E+02  0.20000011200E+02 0.  0.
         12    1    1    2    0    0  0.38575560653E+02 -0.18686113182E+02 -0.68101655711E+01  0.43400726499E+02  0.00000000000E+00 0. -1.
         11    1    3    3    0    0 -0.14479056316E+02 -0.26767003124E+01  0.48727337546E+01  0.15509717305E+02  0.51100000000E-03 0. -1.
        -11    1    3    3    0    0 -0.12212297216E+02  0.11198252888E+02  0.55835538204E+00  0.16578686076E+02  0.51100000000E-03 0.  1.
         12    1    3    3    0    0 -0.11884207121E+02  0.10164560607E+02  0.13790764345E+01  0.15698870120E+02  0.00000000000E+00 0. -1.
</event>
<event>
 7    1  0.2455451E-009  0.4778726E+02  0.7816164E-02  0.1312668E+00
        -11   -1    0    0    0    0  0.00000000000E+00  0.00000000000E+00  0.45593999997E+02  0.45594000000E+02  0.51100000000E-03 0.  1.
         11   -1    0    0    0    0 -0.00000000000E+00 -0.00000000000E+00 -0.45593999997E+02  0.45594000000E+02  0.51100000000E-03 0. -1.
    9900012    2    1    2    0    0  0.76178794855E+01 -0.30810755151E+02  0.29602180539E+02  0.47787264828E+02  0.19999971655E+02 0.  0.
         12    1    1    2    0    0 -0.76178794855E+01  0.30810755151E+02 -0.29602180539E+02  0.43400735172E+02  0.00000000000E+00 0. -1.
         11    1    3    3    0    0  0.68741852405E+01 -0.77948739934E+01  0.17352111500E+02  0.20226474163E+02  0.51100000000E-03 0. -1.
        -11    1    3    3    0    0  0.80423154027E-01 -0.19548757184E+02  0.13564478725E+02  0.23794021490E+02  0.51100000000E-03 0.  1.
         12    1    3    3    0    0  0.66327109097E+00 -0.34671239741E+01 -0.13144096865E+01  0.37667691748E+01  0.00000000000E+00 0. -1.
</event>
<event>
 7    1  0.2455451E-009  0.4778732E+02  0.7816164E-02  0.1312668E+00
        -11   -1    0    0    0    0  0.00000000000E+00  0.00000000000E+00  0.45593999997E+02  0.45594000000E+02  0.51100000000E-03 0.  1.
         11   -1    0    0    0    0 -0.00000000000E+00 -0.00000000000E+00 -0.45593999997E+02  0.45594000000E+02  0.51100000000E-03 0. -1.
    9900012    2    1    2    0    0  0.40932948442E+02 -0.34575999426E+01  0.14005623861E+02  0.47787322986E+02  0.20000236820E+02 0.  0.
         12    1    1    2    0    0 -0.40932948442E+02  0.34575999426E+01 -0.14005623861E+02  0.43400677014E+02  0.00000000000E+00 0. -1.
         11    1    3    3    0    0  0.36817056709E+01  0.35726088979E+01 -0.50477001743E+00  0.51549281291E+01  0.51100000000E-03 0. -1.
        -11    1    3    3    0    0  0.36530181483E+02 -0.93030536179E+01  0.13465143203E+02  0.40028877670E+02  0.51100000000E-03 0.  1.
        -12    1    3    3    0    0  0.72106128832E+00  0.22728447775E+01  0.10452506760E+01  0.26035171864E+01  0.00000000000E+00 0.  1.
</event>
<event>
 7    1  0.2455451E-009  0.4778727E+02  0.7816164E-02  0.1312668E+00
        -11   -1    0    0    0    0  0.00000000000E+00  0.00000000000E+00  0.45593999997E+02  0.45594000000E+02  0.51100000000E-03 0. -1.
         11   -1    0    0    0    0 -0.00000000000E+00 -0.00000000000E+00 -0.45593999997E+02  0.45594000000E+02  0.51100000000E-03 0.  1.
    9900012    2    1    2    0    0 -0.10941321066E+02  0.24569592078E+02 -0.34062382942E+02  0.47787270822E+02  0.19999998984E+02 0.  0.
         12    1    1    2    0    0  0.10941321066E+02 -0.24569592078E+02  0.34062382942E+02  0.43400729178E+02  0.00000000000E+00 0. -1.
         11    1    3    3    0    0 -0.50336148399E+01  0.25930882112E+02 -0.28090233381E+02  0.38559164113E+02  0.51100000000E-03 0. -1.
        -11    1    3    3    0    0 -0.40950117379E+01 -0.37588452330E-01 -0.56235464019E+01  0.69566377238E+01  0.51100000000E-03 0.  1.
         12    1    3    3    0    0 -0.18126944882E+01 -0.13237015818E+01 -0.34860315939E+00  0.22714689846E+01  0.00000000000E+00 0. -1.
</event>
<event>
 7    1  0.2455451E-009  0.4778727E+02  0.7816164E-02  0.1312668E+00
        -11   -1    0    0    0    0  0.00000000000E+00  0.00000000000E+00  0.45593999997E+02  0.45594000000E+02  0.51100000000E-03 0.  1.
         11   -1    0    0    0    0 -0.00000000000E+00 -0.00000000000E+00 -0.45593999997E+02  0.45594000000E+02  0.51100000000E-03 0. -1.
    9900012    2    1    2    0    0 -0.20340095152E+02  0.16103173372E+02  0.34793557479E+02  0.47787270681E+02  0.19999998341E+02 0.  0.
         12    1    1    2    0    0  0.20340095152E+02 -0.16103173372E+02 -0.34793557479E+02  0.43400729319E+02  0.00000000000E+00 0. -1.
         11    1    3    3    0    0 -0.17418635348E+02  0.10194075873E+02  0.11958952247E+02  0.23459424107E+02  0.51100000000E-03 0. -1.
        -11    1    3    3    0    0 -0.17314813071E+01  0.39886593659E+01  0.63921969296E+01  0.77309516169E+01  0.51100000000E-03 0.  1.
         12    1    3    3    0    0 -0.11899784963E+01  0.19204381329E+01  0.16442408302E+02  0.16596894957E+02  0.00000000000E+00 0. -1.
</event>
<event>
 7    1  0.2455451E-009  0.4778727E+02  0.7816164E-02  0.1312668E+00
        -11   -1    0    0    0    0  0.00000000000E+00  0.00000000000E+00  0.45593999997E+02  0.45594000000E+02  0.51100000000E-03 0.  1.
         11   -1    0    0    0    0 -0.00000000000E+00 -0.00000000000E+00 -0.45593999997E+02  0.45594000000E+02  0.51100000000E-03 0. -1.
    9900012    2    1    2    0    0 -0.10155246058E+02  0.29188092551E+02  0.30472110589E+02  0.47787270824E+02  0.19999998995E+02 0.  0.
         12    1    1    2    0    0  0.10155246058E+02 -0.29188092551E+02 -0.30472110589E+02  0.43400729176E+02  0.00000000000E+00 0. -1.
         11    1    3    3    0    0 -0.33035304519E+01 -0.72983642214E+00  0.76451236647E+01  0.83602566204E+01  0.51100000000E-03 0. -1.
        -11    1    3    3    0    0 -0.53694485805E-01  0.20658808438E+02  0.14504098574E+02  0.25241991302E+02  0.51100000000E-03 0.  1.
        -12    1    3    3    0    0 -0.67980211203E+01  0.92591205357E+01  0.83228883496E+01  0.14185022902E+02  0.00000000000E+00 0.  1.
</event>
<event>
 7    1  0.2455451E-009  0.4778727E+02  0.7816164E-02  0.1312668E+00
        -11   -1    0    0    0    0  0.00000000000E+00  0.00000000000E+00  0.45593999997E+02  0.45594000000E+02  0.51100000000E-03 0. -1.
         11   -1    0    0    0    0 -0.00000000000E+00 -0.00000000000E+00 -0.45593999997E+02  0.45594000000E+02  0.51100000000E-03 0.  1.
    9900012    2    1    2    0    0 -0.16901886094E+02  0.38417163383E+02 -0.11048573684E+02  0.47787272168E+02  0.20000005122E+02 0.  0.
         12    1    1    2    0    0  0.16901886094E+02 -0.38417163383E+02  0.11048573684E+02  0.43400727832E+02  0.00000000000E+00 0. -1.
         11    1    3    3    0    0 -0.47341153170E+01  0.24213412555E+01  0.22262154840E+01  0.57646142068E+01  0.51100000000E-03 0. -1.
        -11    1    3    3    0    0 -0.46623075535E+01  0.29655070953E+02 -0.93405564912E+01  0.31438930337E+02  0.51100000000E-03 0.  1.
        -12    1    3    3    0    0 -0.75054632232E+01  0.63407511746E+01 -0.39342326768E+01  0.10583727624E+02  0.00000000000E+00 0.  1.
</event>
<event>
 7    1  0.2455451E-009  0.4778728E+02  0.7816164E-02  0.1312668E+00
        -11   -1    0    0    0    0  0.00000000000E+00  0.00000000000E+00  0.45593999997E+02  0.45594000000E+02  0.51100000000E-03 0.  1.
         11   -1    0    0    0    0 -0.00000000000E+00 -0.00000000000E+00 -0.45593999997E+02  0.45594000000E+02  0.51100000000E-03 0. -1.
    9900012    2    1    2    0    0 -0.40520613194E+01  0.41142574868E+02  0.13209551797E+02  0.47787275047E+02  0.20000018251E+02 0.  0.
         12    1    1    2    0    0  0.40520613194E+01 -0.41142574868E+02 -0.13209551797E+02  0.43400724953E+02  0.00000000000E+00 0. -1.
         11    1    3    3    0    0 -0.51743606965E+01  0.36063665698E+02  0.86995148830E+01  0.37457222957E+02  0.51100000000E-03 0. -1.
        -11    1    3    3    0    0  0.22402850839E+01  0.47569637609E+01  0.62933181455E+01  0.82008191677E+01  0.51100000000E-03 0.  1.
         12    1    3    3    0    0 -0.11179857068E+01  0.32194540904E+00 -0.17832812313E+01  0.21292329222E+01  0.00000000000E+00 0. -1.
</event>
<event>
 7    1  0.2455451E-009  0.4778727E+02  0.7816164E-02  0.1312668E+00
        -11   -1    0    0    0    0  0.00000000000E+00  0.00000000000E+00  0.45593999997E+02  0.45594000000E+02  0.51100000000E-03 0.  1.
         11   -1    0    0    0    0 -0.00000000000E+00 -0.00000000000E+00 -0.45593999997E+02  0.45594000000E+02  0.51100000000E-03 0. -1.
    9900012    2    1    2    0    0  0.24966645298E+02 -0.93675571933E+01  0.34242353814E+02  0.47787270745E+02  0.19999998634E+02 0.  0.
         12    1    1    2    0    0 -0.24966645298E+02  0.93675571933E+01 -0.34242353814E+02  0.43400729255E+02  0.00000000000E+00 0. -1.
         11    1    3    3    0    0 -0.80791402627E-01 -0.21479873611E+00 -0.60673923148E+00  0.64868983645E+00  0.51100000000E-03 0. -1.
        -11    1    3    3    0    0  0.12073677169E+02 -0.13267056870E+02  0.17211396320E+02  0.24860020955E+02  0.51100000000E-03 0.  1.
        -12    1    3    3    0    0  0.12973759532E+02  0.41142984124E+01  0.17637696725E+02  0.22278559953E+02  0.00000000000E+00 0.  1.
</event>
<event>
 7    1  0.2455451E-009  0.4778727E+02  0.7816164E-02  0.1312668E+00
        -11   -1    0    0    0    0  0.00000000000E+00  0.00000000000E+00  0.45593999997E+02  0.45594000000E+02  0.51100000000E-03 0.  1.
         11   -1    0    0    0    0 -0.00000000000E+00 -0.00000000000E+00 -0.45593999997E+02  0.45594000000E+02  0.51100000000E-03 0. -1.
    9900012    2    1    2    0    0  0.34710230527E+02 -0.25980650466E+02  0.19567084427E+01  0.47787274087E+02  0.20000013873E+02 0.  0.
         12    1    1    2    0    0 -0.34710230527E+02  0.25980650466E+02 -0.19567084427E+01  0.43400725913E+02  0.00000000000E+00 0. -1.
         11    1    3    3    0    0  0.19036143932E+02 -0.48892934199E+01 -0.55682053910E+00  0.19661892465E+02  0.51100000000E-03 0. -1.
        -11    1    3    3    0    0  0.14928511792E+02 -0.21874022321E+02  0.13206651896E+01  0.26515608114E+02  0.51100000000E-03 0.  1.
         12    1    3    3    0    0  0.74557480318E+00  0.78266527572E+00  0.11928637922E+01  0.16097735082E+01  0.00000000000E+00 0. -1.
</event>
<event>
 7    1  0.2455451E-009  0.4778727E+02  0.7816164E-02  0.1312668E+00
        -11   -1    0    0    0    0  0.00000000000E+00  0.00000000000E+00  0.45593999997E+02  0.45594000000E+02  0.51100000000E-03 0.  1.
         11   -1    0    0    0    0 -0.00000000000E+00 -0.00000000000E+00 -0.45593999997E+02  0.45594000000E+02  0.51100000000E-03 0. -1.
    9900012    2    1    2    0    0  0.38919918883E+00 -0.43392789673E+02  0.73320741209E+00  0.47787271150E+02  0.20000000482E+02 0.  0.
         12    1    1    2    0    0 -0.38919918883E+00  0.43392789673E+02 -0.73320741209E+00  0.43400728850E+02  0.00000000000E+00 0. -1.
         11    1    3    3    0    0  0.30280397292E+01 -0.19515235822E+01  0.36354220126E+01  0.51179842091E+01  0.51100000000E-03 0. -1.
        -11    1    3    3    0    0  0.23272737503E+01 -0.99366574213E+01 -0.34442022449E+01  0.10771067411E+02  0.51100000000E-03 0.  1.
         12    1    3    3    0    0 -0.49661142907E+01 -0.31504608669E+02  0.54198764435E+00  0.31898219530E+02  0.00000000000E+00 0. -1.
</event>
<event>
 7    1  0.2455451E-009  0.4778727E+02  0.7816164E-02  0.1312668E+00
        -11   -1    0    0    0    0  0.00000000000E+00  0.00000000000E+00  0.45593999997E+02  0.45594000000E+02  0.51100000000E-03 0. -1.
         11   -1    0    0    0    0 -0.00000000000E+00 -0.00000000000E+00 -0.45593999997E+02  0.45594000000E+02  0.51100000000E-03 0.  1.
    9900012    2    1    2    0    0  0.28003588877E+02 -0.24475328353E+02 -0.22369187624E+02  0.47787271401E+02  0.20000001624E+02 0.  0.
         12    1    1    2    0    0 -0.28003588877E+02  0.24475328353E+02  0.22369187624E+02  0.43400728599E+02  0.00000000000E+00 0. -1.
         11    1    3    3    0    0 -0.62058389809E+00 -0.11917218742E+01  0.51720232971E+00  0.14397304994E+01  0.51100000000E-03 0. -1.
        -11    1    3    3    0    0  0.17284915655E+02 -0.18777077724E+02 -0.72843610505E+01  0.26540702200E+02  0.51100000000E-03 0.  1.
        -12    1    3    3    0    0  0.11339257120E+02 -0.45065287548E+01 -0.15602028903E+02  0.19806838702E+02  0.00000000000E+00 0.  1.
</event>
<event>
 7    1  0.2455451E-009  0.4778727E+02  0.7816164E-02  0.1312668E+00
        -11   -1    0    0    0    0  0.00000000000E+00  0.00000000000E+00  0.45593999997E+02  0.45594000000E+02  0.51100000000E-03 0.  1.
         11   -1    0    0    0    0 -0.00000000000E+00 -0.00000000000E+00 -0.45593999997E+02  0.45594000000E+02  0.51100000000E-03 0. -1.
    9900012    2    1    2    0    0 -0.26562843261E+02  0.33837838465E+02  0.57480033211E+01  0.47787268483E+02  0.19999988321E+02 0.  0.
         12    1    1    2    0    0  0.26562843261E+02 -0.33837838465E+02 -0.57480033211E+01  0.43400731517E+02  0.00000000000E+00 0. -1.
         11    1    3    3    0    0 -0.18075552777E+01  0.50332051805E+01 -0.27512698150E+01  0.60141413623E+01  0.51100000000E-03 0. -1.
        -11    1    3    3    0    0 -0.24256088339E+02  0.20568624381E+02  0.31924572640E+01  0.31962758237E+02  0.51100000000E-03 0.  1.
        -12    1    3    3    0    0 -0.49919964340E+00  0.82360089033E+01  0.53068158721E+01  0.98103688840E+01  0.00000000000E+00 0.  1.
</event>
<event>
 7    1  0.2455451E-009  0.4778727E+02  0.7816164E-02  0.1312668E+00
        -11   -1    0    0    0    0  0.00000000000E+00  0.00000000000E+00  0.45593999997E+02  0.45594000000E+02  0.51100000000E-03 0.  1.
         11   -1    0    0    0    0 -0.00000000000E+00 -0.00000000000E+00 -0.45593999997E+02  0.45594000000E+02  0.51100000000E-03 0. -1.
    9900012    2    1    2    0    0 -0.37739145887E+02  0.20626807758E+02  0.58236528521E+01  0.47787271168E+02  0.20000000564E+02 0.  0.
         12    1    1    2    0    0  0.37739145887E+02 -0.20626807758E+02 -0.58236528521E+01  0.43400728832E+02  0.00000000000E+00 0. -1.
         11    1    3    3    0    0 -0.93348455824E+01  0.64744303500E+01 -0.59631146047E+01  0.12830289414E+02  0.51100000000E-03 0. -1.
        -11    1    3    3    0    0 -0.93204168144E+01  0.88712370765E+01  0.25950459177E+01  0.13126434415E+02  0.51100000000E-03 0.  1.
         12    1    3    3    0    0 -0.19083883490E+02  0.52811403319E+01  0.91917215391E+01  0.21830547339E+02  0.00000000000E+00 0. -1.
</event>
<event>
 7    1  0.2455451E-009  0.4778726E+02  0.7816164E-02  0.1312668E+00
        -11   -1    0    0    0    0  0.00000000000E+00  0.00000000000E+00  0.45593999997E+02  0.45594000000E+02  0.51100000000E-03 0.  1.
         11   -1    0    0    0    0 -0.00000000000E+00 -0.00000000000E+00 -0.45593999997E+02  0.45594000000E+02  0.51100000000E-03 0. -1.
    9900012    2    1    2    0    0  0.18603347267E+01 -0.16408771603E+02  0.40136217183E+02  0.47787256221E+02  0.19999932414E+02 0.  0.
         12    1    1    2    0    0 -0.18603347267E+01  0.16408771603E+02 -0.40136217183E+02  0.43400743779E+02  0.00000000000E+00 0. -1.
         11    1    3    3    0    0 -0.11860859647E+01 -0.11016838151E+02  0.13418480635E+02  0.17402101757E+02  0.51100000000E-03 0. -1.
        -11    1    3    3    0    0  0.77639358485E+01 -0.39341020790E+01  0.21532411813E+02  0.23224999844E+02  0.51100000000E-03 0.  1.
        -12    1    3    3    0    0 -0.47175151571E+01 -0.14578313733E+01  0.51853247355E+01  0.71601546200E+01  0.00000000000E+00 0.  1.
</event>
<event>
 7    1  0.2455451E-009  0.4778727E+02  0.7816164E-02  0.1312668E+00
        -11   -1    0    0    0    0  0.00000000000E+00  0.00000000000E+00  0.45593999997E+02  0.45594000000E+02  0.51100000000E-03 0.  1.
         11   -1    0    0    0    0 -0.00000000000E+00 -0.00000000000E+00 -0.45593999997E+02  0.45594000000E+02  0.51100000000E-03 0. -1.
    9900012    2    1    2    0    0 -0.23363774969E+02  0.65444136668E+01  0.35985108157E+02  0.47787270281E+02  0.19999996520E+02 0.  0.
         12    1    1    2    0    0  0.23363774969E+02 -0.65444136668E+01 -0.35985108157E+02  0.43400729719E+02  0.00000000000E+00 0. -1.
         11    1    3    3    0    0 -0.31188192112E+01  0.19358617801E+01 -0.76975153320E+00  0.37506148546E+01  0.51100000000E-03 0. -1.
        -11    1    3    3    0    0 -0.15683089662E+02  0.18308200749E+01  0.35029871349E+02  0.38423991079E+02  0.51100000000E-03 0.  1.
        -12    1    3    3    0    0 -0.45618660964E+01  0.27777318118E+01  0.17249883416E+01  0.56126643476E+01  0.00000000000E+00 0.  1.
</event>
<event>
 7    1  0.2455451E-009  0.4778730E+02  0.7816164E-02  0.1312668E+00
        -11   -1    0    0    0    0  0.00000000000E+00  0.00000000000E+00  0.45593999997E+02  0.45594000000E+02  0.51100000000E-03 0.  1.
         11   -1    0    0    0    0 -0.00000000000E+00 -0.00000000000E+00 -0.45593999997E+02  0.45594000000E+02  0.51100000000E-03 0. -1.
    9900012    2    1    2    0    0  0.28760973222E+02  0.83725644060E+01  0.31405848700E+02  0.47787300144E+02  0.20000132677E+02 0.  0.
         12    1    1    2    0    0 -0.28760973222E+02 -0.83725644060E+01 -0.31405848700E+02  0.43400699856E+02  0.00000000000E+00 0. -1.
         11    1    3    3    0    0  0.46957369657E+01  0.46290240844E+01 -0.35331656359E+00  0.66032297007E+01  0.51100000000E-03 0. -1.
        -11    1    3    3    0    0  0.11909947601E+02 -0.11300510047E+01  0.91711582894E+01  0.15074283126E+02  0.51100000000E-03 0.  1.
         12    1    3    3    0    0  0.12155288656E+02  0.48735913263E+01  0.22588006974E+02  0.26109787318E+02  0.00000000000E+00 0. -1.
</event>
<event>
 7    1  0.2455451E-009  0.4778726E+02  0.7816164E-02  0.1312668E+00
        -11   -1    0    0    0    0  0.00000000000E+00  0.00000000000E+00  0.45593999997E+02  0.45594000000E+02  0.51100000000E-03 0.  1.
         11   -1    0    0    0    0 -0.00000000000E+00 -0.00000000000E+00 -0.45593999997E+02  0.45594000000E+02  0.51100000000E-03 0. -1.
    9900012    2    1    2    0    0 -0.27690601281E+02  0.33419243535E+02 -0.93367402998E-01  0.47787263195E+02  0.19999964211E+02 0.  0.
         12    1    1    2    0    0  0.27690601281E+02 -0.33419243535E+02  0.93367402998E-01  0.43400736805E+02  0.00000000000E+00 0. -1.
         11    1    3    3    0    0 -0.55974421555E+01  0.44075711308E+01 -0.14918502949E+01  0.72789875340E+01  0.51100000000E-03 0. -1.
        -11    1    3    3    0    0 -0.55591478492E+01  0.53444717108E+01 -0.70274732838E+01  0.10433258537E+02  0.51100000000E-03 0.  1.
        -12    1    3    3    0    0 -0.16534011276E+02  0.23667200694E+02  0.84259561757E+01  0.30075017124E+02  0.00000000000E+00 0.  1.
</event>
<event>
 7    1  0.2455451E-009  0.4778727E+02  0.7816164E-02  0.1312668E+00
        -11   -1    0    0    0    0  0.00000000000E+00  0.00000000000E+00  0.45593999997E+02  0.45594000000E+02  0.51100000000E-03 0.  1.
         11   -1    0    0    0    0 -0.00000000000E+00 -0.00000000000E+00 -0.45593999997E+02  0.45594000000E+02  0.51100000000E-03 0. -1.
    9900012    2    1    2    0    0  0.24587371255E+01  0.30217892314E+02  0.31055702951E+02  0.47787273163E+02  0.20000009660E+02 0.  0.
         12    1    1    2    0    0 -0.24587371255E+01 -0.30217892314E+02 -0.31055702951E+02  0.43400726837E+02  0.00000000000E+00 0. -1.
         11    1    3    3    0    0  0.84057966873E+01  0.52865405074E+01  0.90209943440E+01  0.13415784275E+02  0.51100000000E-03 0. -1.
        -11    1    3    3    0    0 -0.54978266269E+01  0.10714072509E+02  0.11691162119E+02  0.16783942305E+02  0.51100000000E-03 0.  1.
        -12    1    3    3    0    0 -0.44923293492E+00  0.14217279298E+02  0.10343546488E+02  0.17587546583E+02  0.00000000000E+00 0.  1.
</event>
<event>
 7    1  0.2455451E-009  0.4778726E+02  0.7816164E-02  0.1312668E+00
        -11   -1    0    0    0    0  0.00000000000E+00  0.00000000000E+00  0.45593999997E+02  0.45594000000E+02  0.51100000000E-03 0. -1.
         11   -1    0    0    0    0 -0.00000000000E+00 -0.00000000000E+00 -0.45593999997E+02  0.45594000000E+02  0.51100000000E-03 0.  1.
    9900012    2    1    2    0    0 -0.11313576973E+02 -0.17298743679E+01 -0.41864476801E+02  0.47787263749E+02  0.19999966738E+02 0.  0.
         12    1    1    2    0    0  0.11313576973E+02  0.17298743679E+01  0.41864476801E+02  0.43400736251E+02  0.00000000000E+00 0. -1.
         11    1    3    3    0    0 -0.23212547256E+01  0.13157845046E+01  0.85890401694E+00  0.28030748715E+01  0.51100000000E-03 0. -1.
        -11    1    3    3    0    0 -0.86712921009E+01 -0.50026486255E+01 -0.41416373235E+02  0.42609080865E+02  0.51100000000E-03 0.  1.
        -12    1    3    3    0    0 -0.32103014691E+00  0.19569897531E+01 -0.13070075831E+01  0.23751080125E+01  0.00000000000E+00 0.  1.
</event>
<event>
 7    1  0.2455451E-009  0.4778727E+02  0.7816164E-02  0.1312668E+00
        -11   -1    0    0    0    0  0.00000000000E+00  0.00000000000E+00  0.45593999997E+02  0.45594000000E+02  0.51100000000E-03 0. -1.
         11   -1    0    0    0    0 -0.00000000000E+00 -0.00000000000E+00 -0.45593999997E+02  0.45594000000E+02  0.51100000000E-03 0.  1.
    9900012    2    1    2    0    0  0.31115810147E+02 -0.29331772981E+02 -0.74213914245E+01  0.47787267311E+02  0.19999982976E+02 0.  0.
         12    1    1    2    0    0 -0.31115810147E+02  0.29331772981E+02  0.74213914245E+01  0.43400732689E+02  0.00000000000E+00 0. -1.
         11    1    3    3    0    0  0.29439131791E+02 -0.16730383143E+02 -0.25997571596E+01  0.33960667518E+02  0.51100000000E-03 0. -1.
        -11    1    3    3    0    0  0.31357715659E+00 -0.14969156737E+01  0.23809099784E+00  0.15478290447E+01  0.51100000000E-03 0.  1.
         12    1    3    3    0    0  0.13631011993E+01 -0.11104474165E+02 -0.50597252628E+01  0.12278770748E+02  0.00000000000E+00 0. -1.
</event>
<event>
 7    1  0.2455451E-009  0.4778726E+02  0.7816164E-02  0.1312668E+00
        -11   -1    0    0    0    0  0.00000000000E+00  0.00000000000E+00  0.45593999997E+02  0.45594000000E+02  0.51100000000E-03 0. -1.
         11   -1    0    0    0    0 -0.00000000000E+00 -0.00000000000E+00 -0.45593999997E+02  0.45594000000E+02  0.51100000000E-03 0.  1.
    9900012    2    1    2    0    0  0.29178729477E+02  0.14747914988E+02 -0.28543381347E+02  0.47787264187E+02  0.19999968735E+02 0.  0.
         12    1    1    2    0    0 -0.29178729477E+02 -0.14747914988E+02  0.28543381347E+02  0.43400735813E+02  0.00000000000E+00 0. -1.
         11    1    3    3    0    0  0.16997147313E+00  0.33706820581E+01 -0.73714091738E+01  0.81072844595E+01  0.51100000000E-03 0. -1.
        -11    1    3    3    0    0  0.15259647908E+02  0.15534420384E+01 -0.46035684546E+01  0.16014458443E+02  0.51100000000E-03 0.  1.
        -12    1    3    3    0    0  0.13749110096E+02  0.98237908914E+01 -0.16568403718E+02  0.23665521284E+02  0.00000000000E+00 0.  1.
</event>
<event>
 7    1  0.2455451E-009  0.4778727E+02  0.7816164E-02  0.1312668E+00
        -11   -1    0    0    0    0  0.00000000000E+00  0.00000000000E+00  0.45593999997E+02  0.45594000000E+02  0.51100000000E-03 0.  1.
         11   -1    0    0    0    0 -0.00000000000E+00 -0.00000000000E+00 -0.45593999997E+02  0.45594000000E+02  0.51100000000E-03 0. -1.
    9900012    2    1    2    0    0  0.39446302537E+02 -0.80309300427E+01 -0.16220871929E+02  0.47787270659E+02  0.19999998242E+02 0.  0.
         12    1    1    2    0    0 -0.39446302537E+02  0.80309300427E+01  0.16220871929E+02  0.43400729341E+02  0.00000000000E+00 0. -1.
         11    1    3    3    0    0  0.20166394823E+02 -0.10594836247E+02 -0.51010090782E+01  0.23344256877E+02  0.51100000000E-03 0. -1.
        -11    1    3    3    0    0  0.75070460783E+01 -0.75993537290E+00  0.51178211043E+00  0.75627484278E+01  0.51100000000E-03 0.  1.
         12    1    3    3    0    0  0.11772861636E+02  0.33238415771E+01 -0.11631644961E+02  0.16880265354E+02  0.00000000000E+00 0. -1.
</event>
<event>
 7    1  0.2455451E-009  0.4778728E+02  0.7816164E-02  0.1312668E+00
        -11   -1    0    0    0    0  0.00000000000E+00  0.00000000000E+00  0.45593999997E+02  0.45594000000E+02  0.51100000000E-03 0.  1.
         11   -1    0    0    0    0 -0.00000000000E+00 -0.00000000000E+00 -0.45593999997E+02  0.45594000000E+02  0.51100000000E-03 0. -1.
    9900012    2    1    2    0    0 -0.11383857575E+02 -0.22204663585E+02  0.35510326662E+02  0.47787278832E+02  0.20000035509E+02 0.  0.
         12    1    1    2    0    0  0.11383857575E+02  0.22204663585E+02 -0.35510326662E+02  0.43400721168E+02  0.00000000000E+00 0. -1.
         11    1    3    3    0    0  0.47153724307E+01 -0.87032177962E+01  0.11913793838E+02  0.15489326036E+02  0.51100000000E-03 0. -1.
        -11    1    3    3    0    0 -0.13884089437E+02 -0.13853747909E+02  0.22335132509E+02  0.29724609587E+02  0.51100000000E-03 0.  1.
        -12    1    3    3    0    0 -0.22151405686E+01  0.35230211984E+00  0.12614003151E+01  0.25733432102E+01  0.00000000000E+00 0.  1.
</event>
<event>
 7    1  0.2455451E-009  0.4778727E+02  0.7816164E-02  0.1312668E+00
        -11   -1    0    0    0    0  0.00000000000E+00  0.00000000000E+00  0.45593999997E+02  0.45594000000E+02  0.51100000000E-03 0.  1.
         11   -1    0    0    0    0 -0.00000000000E+00 -0.00000000000E+00 -0.45593999997E+02  0.45594000000E+02  0.51100000000E-03 0. -1.
    9900012    2    1    2    0    0  0.24718270866E+01 -0.15091523443E+02  0.40617226047E+02  0.47787273500E+02  0.20000011195E+02 0.  0.
         12    1    1    2    0    0 -0.24718270866E+01  0.15091523443E+02 -0.40617226047E+02  0.43400726500E+02  0.00000000000E+00 0. -1.
         11    1    3    3    0    0  0.59809907992E+01  0.16811749979E+01  0.18098348298E+02  0.19135015330E+02  0.51100000000E-03 0. -1.
        -11    1    3    3    0    0 -0.27765010921E+01 -0.15631920187E+02  0.22140626271E+02  0.27244691574E+02  0.51100000000E-03 0.  1.
         12    1    3    3    0    0 -0.73266262053E+00 -0.11407782540E+01  0.37825147853E+00  0.14075665957E+01  0.00000000000E+00 0. -1.
</event>
<event>
 7    1  0.2455451E-009  0.4778727E+02  0.7816164E-02  0.1312668E+00
        -11   -1    0    0    0    0  0.00000000000E+00  0.00000000000E+00  0.45593999997E+02  0.45594000000E+02  0.51100000000E-03 0.  1.
         11   -1    0    0    0    0 -0.00000000000E+00 -0.00000000000E+00 -0.45593999997E+02  0.45594000000E+02  0.51100000000E-03 0. -1.
    9900012    2    1    2    0    0  0.11992837606E+02 -0.38842960236E+02  0.15199318959E+02  0.47787274078E+02  0.20000013832E+02 0.  0.
         12    1    1    2    0    0 -0.11992837606E+02  0.38842960236E+02 -0.15199318959E+02  0.43400725922E+02  0.00000000000E+00 0. -1.
         11    1    3    3    0    0  0.23868698360E+01 -0.43634857841E+00  0.20649812995E+01  0.31861725823E+01  0.51100000000E-03 0. -1.
        -11    1    3    3    0    0 -0.35048867670E+00 -0.11248614988E+02  0.10773186343E+02  0.15579336497E+02  0.51100000000E-03 0.  1.
        -12    1    3    3    0    0  0.99564564466E+01 -0.27157996670E+02  0.23611513166E+01  0.29021764999E+02  0.00000000000E+00 0.  1.
</event>
<event>
 7    1  0.2455451E-009  0.4778727E+02  0.7816164E-02  0.1312668E+00
        -11   -1    0    0    0    0  0.00000000000E+00  0.00000000000E+00  0.45593999997E+02  0.45594000000E+02  0.51100000000E-03 0.  1.
         11   -1    0    0    0    0 -0.00000000000E+00 -0.00000000000E+00 -0.45593999997E+02  0.45594000000E+02  0.51100000000E-03 0. -1.
    9900012    2    1    2    0    0 -0.92461880570E+01  0.40139283970E+02  0.13673676442E+02  0.47787267994E+02  0.19999986092E+02 0.  0.
         12    1    1    2    0    0  0.92461880570E+01 -0.40139283970E+02 -0.13673676442E+02  0.43400732006E+02  0.00000000000E+00 0. -1.
         11    1    3    3    0    0  0.45112080242E-01 -0.62493698249E+00  0.36468571079E+01  0.37002903073E+01  0.51100000000E-03 0. -1.
        -11    1    3    3    0    0 -0.19333284704E+01  0.23108079984E+02  0.17801831624E+01  0.23257045640E+02  0.51100000000E-03 0.  1.
        -12    1    3    3    0    0 -0.73579716668E+01  0.17656140968E+02  0.82466361714E+01  0.20829932047E+02  0.00000000000E+00 0.  1.
</event>
<event>
 7    1  0.2455451E-009  0.4778727E+02  0.7816164E-02  0.1312668E+00
        -11   -1    0    0    0    0  0.00000000000E+00  0.00000000000E+00  0.45593999997E+02  0.45594000000E+02  0.51100000000E-03 0.  1.
         11   -1    0    0    0    0 -0.00000000000E+00 -0.00000000000E+00 -0.45593999997E+02  0.45594000000E+02  0.51100000000E-03 0. -1.
    9900012    2    1    2    0    0  0.29644098050E+02  0.31528054485E+02  0.32912264353E+01  0.47787274888E+02  0.20000017524E+02 0.  0.
         12    1    1    2    0    0 -0.29644098050E+02 -0.31528054485E+02 -0.32912264353E+01  0.43400725112E+02  0.00000000000E+00 0. -1.
         11    1    3    3    0    0  0.11361816711E+02  0.16013005306E+02 -0.55075348561E+01  0.20392159237E+02  0.51100000000E-03 0. -1.
        -11    1    3    3    0    0 -0.39521780917E+00  0.31854859298E+01  0.27117576357E+01  0.42020408686E+01  0.51100000000E-03 0.  1.
         12    1    3    3    0    0  0.18677499148E+02  0.12329563249E+02  0.60870036557E+01  0.23193074782E+02  0.00000000000E+00 0. -1.
</event>
<event>
 7    1  0.2455451E-009  0.4778727E+02  0.7816164E-02  0.1312668E+00
        -11   -1    0    0    0    0  0.00000000000E+00  0.00000000000E+00  0.45593999997E+02  0.45594000000E+02  0.51100000000E-03 0.  1.
         11   -1    0    0    0    0 -0.00000000000E+00 -0.00000000000E+00 -0.45593999997E+02  0.45594000000E+02  0.51100000000E-03 0. -1.
    9900012    2    1    2    0    0  0.24507904042E+02 -0.33194468925E+02  0.13457834522E+02  0.47787269156E+02  0.19999991389E+02 0.  0.
         12    1    1    2    0    0 -0.24507904042E+02  0.33194468925E+02 -0.13457834522E+02  0.43400730844E+02  0.00000000000E+00 0. -1.
         11    1    3    3    0    0  0.16589958674E+02 -0.18643891648E+02  0.33717123962E+01  0.25183126679E+02  0.51100000000E-03 0. -1.
        -11    1    3    3    0    0  0.53855203973E+00 -0.12458475711E+02  0.52068593675E+01  0.13513513240E+02  0.51100000000E-03 0.  1.
         12    1    3    3    0    0  0.73793933286E+01 -0.20921015661E+01  0.48792627582E+01  0.90906292370E+01  0.00000000000E+00 0. -1.
</event>
<event>
 7    1  0.2455451E-009  0.4778727E+02  0.7816164E-02  0.1312668E+00
        -11   -1    0    0    0    0  0.00000000000E+00  0.00000000000E+00  0.45593999997E+02  0.45594000000E+02  0.51100000000E-03 0. -1.
         11   -1    0    0    0    0 -0.00000000000E+00 -0.00000000000E+00 -0.45593999997E+02  0.45594000000E+02  0.51100000000E-03 0.  1.
    9900012    2    1    2    0    0 -0.14252458289E+02 -0.31119092874E+02 -0.26685066938E+02  0.47787270674E+02  0.19999998309E+02 0.  0.
         12    1    1    2    0    0  0.14252458289E+02  0.31119092874E+02  0.26685066938E+02  0.43400729326E+02  0.00000000000E+00 0. -1.
         11    1    3    3    0    0 -0.89332458196E+01 -0.19918959146E+02 -0.10966012705E+02  0.24429925281E+02  0.51100000000E-03 0.  1.
        -11    1    3    3    0    0 -0.84562645332E+00  0.24915632002E+01 -0.11549407303E+01  0.28734751836E+01  0.51100000000E-03 0. -1.
         12    1    3    3    0    0 -0.44735860158E+01 -0.13691696928E+02 -0.14564113503E+02  0.20483870209E+02  0.00000000000E+00 0. -1.
</event>
<event>
 7    1  0.2455451E-009  0.4778726E+02  0.7816164E-02  0.1312668E+00
        -11   -1    0    0    0    0  0.00000000000E+00  0.00000000000E+00  0.45593999997E+02  0.45594000000E+02  0.51100000000E-03 0.  1.
         11   -1    0    0    0    0 -0.00000000000E+00 -0.00000000000E+00 -0.45593999997E+02  0.45594000000E+02  0.51100000000E-03 0. -1.
    9900012    2    1    2    0    0 -0.21019953818E+02  0.34032407544E+02  0.16839856258E+02  0.47787262903E+02  0.19999962880E+02 0.  0.
         12    1    1    2    0    0  0.21019953818E+02 -0.34032407544E+02 -0.16839856258E+02  0.43400737097E+02  0.00000000000E+00 0. -1.
         11    1    3    3    0    0 -0.51378456537E+01  0.21221682031E+02  0.11784132518E+02  0.24811751765E+02  0.51100000000E-03 0. -1.
        -11    1    3    3    0    0 -0.93216838482E+01  0.85748115226E+01  0.75895873205E+01  0.14765602540E+02  0.51100000000E-03 0.  1.
         12    1    3    3    0    0 -0.65604243157E+01  0.42359139904E+01 -0.25338635806E+01  0.82099085976E+01  0.00000000000E+00 0. -1.
</event>
<event>
 7    1  0.2455451E-009  0.4778727E+02  0.7816164E-02  0.1312668E+00
        -11   -1    0    0    0    0  0.00000000000E+00  0.00000000000E+00  0.45593999997E+02  0.45594000000E+02  0.51100000000E-03 0.  1.
         11   -1    0    0    0    0 -0.00000000000E+00 -0.00000000000E+00 -0.45593999997E+02  0.45594000000E+02  0.51100000000E-03 0. -1.
    9900012    2    1    2    0    0  0.30897073061E+02  0.26508164837E+02  0.15043647639E+02  0.47787271192E+02  0.20000000675E+02 0.  0.
         12    1    1    2    0    0 -0.30897073061E+02 -0.26508164837E+02 -0.15043647639E+02  0.43400728808E+02  0.00000000000E+00 0. -1.
         11    1    3    3    0    0  0.11878964007E+02  0.16499227237E+02  0.28540205417E+00  0.20332627472E+02  0.51100000000E-03 0. -1.
        -11    1    3    3    0    0  0.17952373534E+02  0.60346488089E+01  0.13046079474E+02  0.22997932335E+02  0.51100000000E-03 0.  1.
        -12    1    3    3    0    0  0.10657355197E+01  0.39742887907E+01  0.17121661104E+01  0.44567113861E+01  0.00000000000E+00 0.  1.
</event>
<event>
 7    1  0.2455451E-009  0.4778728E+02  0.7816164E-02  0.1312668E+00
        -11   -1    0    0    0    0  0.00000000000E+00  0.00000000000E+00  0.45593999997E+02  0.45594000000E+02  0.51100000000E-03 0. -1.
         11   -1    0    0    0    0 -0.00000000000E+00 -0.00000000000E+00 -0.45593999997E+02  0.45594000000E+02  0.51100000000E-03 0.  1.
    9900012    2    1    2    0    0 -0.16727620626E+02 -0.36843899204E+02 -0.15695116062E+02  0.47787275714E+02  0.20000021289E+02 0.  0.
         12    1    1    2    0    0  0.16727620626E+02  0.36843899204E+02  0.15695116062E+02  0.43400724286E+02  0.00000000000E+00 0. -1.
         11    1    3    3    0    0 -0.13209919491E+02 -0.19995198273E+02 -0.11643546271E+00  0.23965047140E+02  0.51100000000E-03 0.  1.
        -11    1    3    3    0    0 -0.37471511823E+01 -0.11452191626E+02 -0.13337035067E+02  0.17974157551E+02  0.51100000000E-03 0. -1.
        -12    1    3    3    0    0  0.22945004684E+00 -0.53965093040E+01 -0.22416455326E+01  0.58480710227E+01  0.00000000000E+00 0.  1.
</event>
<event>
 7    1  0.2455451E-009  0.4778730E+02  0.7816164E-02  0.1312668E+00
        -11   -1    0    0    0    0  0.00000000000E+00  0.00000000000E+00  0.45593999997E+02  0.45594000000E+02  0.51100000000E-03 0. -1.
         11   -1    0    0    0    0 -0.00000000000E+00 -0.00000000000E+00 -0.45593999997E+02  0.45594000000E+02  0.51100000000E-03 0.  1.
    9900012    2    1    2    0    0  0.19085199969E+02  0.25019251260E+02 -0.29890021635E+02  0.47787295111E+02  0.20000109730E+02 0.  0.
         12    1    1    2    0    0 -0.19085199969E+02 -0.25019251260E+02  0.29890021635E+02  0.43400704889E+02  0.00000000000E+00 0. -1.
         11    1    3    3    0    0 -0.26231648634E+01 -0.34760717608E+00 -0.44543502073E+01  0.51810289210E+01  0.51100000000E-03 0. -1.
        -11    1    3    3    0    0  0.14631330661E+02  0.14397174567E+02 -0.19325203108E+02  0.28192515813E+02  0.51100000000E-03 0.  1.
         12    1    3    3    0    0  0.70770341710E+01  0.10969683869E+02 -0.61104683201E+01  0.14413750377E+02  0.00000000000E+00 0. -1.
</event>
<event>
 7    1  0.2455451E-009  0.4778727E+02  0.7816164E-02  0.1312668E+00
        -11   -1    0    0    0    0  0.00000000000E+00  0.00000000000E+00  0.45593999997E+02  0.45594000000E+02  0.51100000000E-03 0.  1.
         11   -1    0    0    0    0 -0.00000000000E+00 -0.00000000000E+00 -0.45593999997E+02  0.45594000000E+02  0.51100000000E-03 0. -1.
    9900012    2    1    2    0    0 -0.35712387225E+02 -0.18468854899E+02  0.16344740059E+02  0.47787265787E+02  0.19999976030E+02 0.  0.
         12    1    1    2    0    0  0.35712387225E+02  0.18468854899E+02 -0.16344740059E+02  0.43400734213E+02  0.00000000000E+00 0. -1.
         11    1    3    3    0    0 -0.14524035346E+02 -0.10948632981E+02  0.11485760190E+02  0.21511458674E+02  0.51100000000E-03 0. -1.
        -11    1    3    3    0    0 -0.72874920434E+01  0.31432176632E+01  0.35884516079E+01  0.87100139360E+01  0.51100000000E-03 0.  1.
        -12    1    3    3    0    0 -0.13900859836E+02 -0.10663439581E+02  0.12705282616E+01  0.17565793177E+02  0.00000000000E+00 0.  1.
</event>
<event>
 7    1  0.2455451E-009  0.4778725E+02  0.7816164E-02  0.1312668E+00
        -11   -1    0    0    0    0  0.00000000000E+00  0.00000000000E+00  0.45593999997E+02  0.45594000000E+02  0.51100000000E-03 0. -1.
         11   -1    0    0    0    0 -0.00000000000E+00 -0.00000000000E+00 -0.45593999997E+02  0.45594000000E+02  0.51100000000E-03 0.  1.
    9900012    2    1    2    0    0 -0.35796911583E+02 -0.58822918040E+00 -0.24532837776E+02  0.47787250908E+02  0.19999908189E+02 0.  0.
         12    1    1    2    0    0  0.35796911583E+02  0.58822918040E+00  0.24532837776E+02  0.43400749092E+02  0.00000000000E+00 0. -1.
         11    1    3    3    0    0 -0.10269695030E+02 -0.32281722251E+01  0.15519079044E+01  0.10876403373E+02  0.51100000000E-03 0. -1.
        -11    1    3    3    0    0 -0.20214895158E+02  0.10036050854E+01 -0.22655131327E+02  0.30379338128E+02  0.51100000000E-03 0.  1.
        -12    1    3    3    0    0 -0.53123213947E+01  0.16363379593E+01 -0.34296143530E+01  0.65315094066E+01  0.00000000000E+00 0.  1.
</event>
<event>
 7    1  0.2455451E-009  0.4778729E+02  0.7816164E-02  0.1312668E+00
        -11   -1    0    0    0    0  0.00000000000E+00  0.00000000000E+00  0.45593999997E+02  0.45594000000E+02  0.51100000000E-03 0.  1.
         11   -1    0    0    0    0 -0.00000000000E+00 -0.00000000000E+00 -0.45593999997E+02  0.45594000000E+02  0.51100000000E-03 0. -1.
    9900012    2    1    2    0    0  0.30689926074E+02 -0.11512761948E+02  0.28446558376E+02  0.47787286486E+02  0.20000070402E+02 0.  0.
         12    1    1    2    0    0 -0.30689926074E+02  0.11512761948E+02 -0.28446558376E+02  0.43400713514E+02  0.00000000000E+00 0. -1.
         11    1    3    3    0    0  0.24574016983E+02 -0.73620456785E+01  0.22243762487E+02  0.33953895169E+02  0.51100000000E-03 0. -1.
        -11    1    3    3    0    0  0.10225760908E-01 -0.31973774831E+01  0.69095078493E+01  0.76134503556E+01  0.51100000000E-03 0.  1.
         12    1    3    3    0    0  0.61056833300E+01 -0.95333878637E+00 -0.70671196034E+00  0.62199409614E+01  0.00000000000E+00 0. -1.
</event>
<event>
 7    1  0.2455451E-009  0.4778727E+02  0.7816164E-02  0.1312668E+00
        -11   -1    0    0    0    0  0.00000000000E+00  0.00000000000E+00  0.45593999997E+02  0.45594000000E+02  0.51100000000E-03 0.  1.
         11   -1    0    0    0    0 -0.00000000000E+00 -0.00000000000E+00 -0.45593999997E+02  0.45594000000E+02  0.51100000000E-03 0. -1.
    9900012    2    1    2    0    0  0.89308836405E+01 -0.55850397736E+01  0.42103087560E+02  0.47787270353E+02  0.19999996846E+02 0.  0.
         12    1    1    2    0    0 -0.89308836405E+01  0.55850397736E+01 -0.42103087560E+02  0.43400729647E+02  0.00000000000E+00 0. -1.
         11    1    3    3    0    0  0.50390415609E+01  0.72325921074E+00  0.14200166497E+01  0.52850251924E+01  0.51100000000E-03 0. -1.
        -11    1    3    3    0    0  0.41612008083E+01 -0.85813164832E+01  0.27134920966E+02  0.28762102164E+02  0.51100000000E-03 0.  1.
        -12    1    3    3    0    0 -0.26935872869E+00  0.22730174989E+01  0.13548149943E+02  0.13740142997E+02  0.00000000000E+00 0.  1.
</event>
<event>
 7    1  0.2455451E-009  0.4778727E+02  0.7816164E-02  0.1312668E+00
        -11   -1    0    0    0    0  0.00000000000E+00  0.00000000000E+00  0.45593999997E+02  0.45594000000E+02  0.51100000000E-03 0.  1.
         11   -1    0    0    0    0 -0.00000000000E+00 -0.00000000000E+00 -0.45593999997E+02  0.45594000000E+02  0.51100000000E-03 0. -1.
    9900012    2    1    2    0    0  0.32341544460E+02 -0.25762225072E+02  0.13189226256E+02  0.47787269270E+02  0.19999991908E+02 0.  0.
         12    1    1    2    0    0 -0.32341544460E+02  0.25762225072E+02 -0.13189226256E+02  0.43400730730E+02  0.00000000000E+00 0. -1.
         11    1    3    3    0    0  0.18907127803E+02 -0.21405097468E+02  0.12234674878E+02  0.31070000789E+02  0.51100000000E-03 0. -1.
        -11    1    3    3    0    0  0.73479388749E+01 -0.68396054405E+01  0.13663662492E+01  0.10131108788E+02  0.51100000000E-03 0.  1.
         12    1    3    3    0    0  0.60864777827E+01  0.24824778369E+01 -0.41181487173E+00  0.65861596927E+01  0.00000000000E+00 0. -1.
</event>
<event>
 7    1  0.2455451E-009  0.4778727E+02  0.7816164E-02  0.1312668E+00
        -11   -1    0    0    0    0  0.00000000000E+00  0.00000000000E+00  0.45593999997E+02  0.45594000000E+02  0.51100000000E-03 0.  1.
         11   -1    0    0    0    0 -0.00000000000E+00 -0.00000000000E+00 -0.45593999997E+02  0.45594000000E+02  0.51100000000E-03 0. -1.
    9900012    2    1    2    0    0 -0.40385318276E+02 -0.23762430630E+01  0.15716336305E+02  0.47787266248E+02  0.19999978130E+02 0.  0.
         12    1    1    2    0    0  0.40385318276E+02  0.23762430630E+01 -0.15716336305E+02  0.43400733752E+02  0.00000000000E+00 0. -1.
         11    1    3    3    0    0 -0.16303893722E+02 -0.55768751628E+01  0.14636587621E+02  0.22608586522E+02  0.51100000000E-03 0. -1.
        -11    1    3    3    0    0 -0.10120369513E+02  0.41700615171E+01 -0.11553755330E+01  0.11006642768E+02  0.51100000000E-03 0.  1.
         12    1    3    3    0    0 -0.13961055041E+02 -0.96942941731E+00  0.22351242166E+01  0.14172036957E+02  0.00000000000E+00 0. -1.
</event>
<event>
 7    1  0.2455451E-009  0.4778728E+02  0.7816164E-02  0.1312668E+00
        -11   -1    0    0    0    0  0.00000000000E+00  0.00000000000E+00  0.45593999997E+02  0.45594000000E+02  0.51100000000E-03 0.  1.
         11   -1    0    0    0    0 -0.00000000000E+00 -0.00000000000E+00 -0.45593999997E+02  0.45594000000E+02  0.51100000000E-03 0. -1.
    9900012    2    1    2    0    0  0.11553422479E+02 -0.32864761242E+02  0.25885289550E+02  0.47787282062E+02  0.20000050232E+02 0.  0.
         12    1    1    2    0    0 -0.11553422479E+02  0.32864761242E+02 -0.25885289550E+02  0.43400717938E+02  0.00000000000E+00 0. -1.
         11    1    3    3    0    0 -0.14333777755E+01 -0.11482573214E+02  0.76115451483E+01  0.13850620176E+02  0.51100000000E-03 0. -1.
        -11    1    3    3    0    0  0.46334822200E+01 -0.41369639561E+01  0.12443152554E+02  0.13907396378E+02  0.51100000000E-03 0.  1.
        -12    1    3    3    0    0  0.83533180349E+01 -0.17245224072E+02  0.58305918472E+01  0.20029265508E+02  0.00000000000E+00 0.  1.
</event>
<event>
 7    1  0.2455451E-009  0.4778727E+02  0.7816164E-02  0.1312668E+00
        -11   -1    0    0    0    0  0.00000000000E+00  0.00000000000E+00  0.45593999997E+02  0.45594000000E+02  0.51100000000E-03 0.  1.
         11   -1    0    0    0    0 -0.00000000000E+00 -0.00000000000E+00 -0.45593999997E+02  0.45594000000E+02  0.51100000000E-03 0. -1.
    9900012    2    1    2    0    0 -0.11833549295E+02  0.26410066213E+02  0.32343451250E+02  0.47787270455E+02  0.19999997311E+02 0.  0.
         12    1    1    2    0    0  0.11833549295E+02 -0.26410066213E+02 -0.32343451250E+02  0.43400729545E+02  0.00000000000E+00 0. -1.
         11    1    3    3    0    0 -0.72721908345E+01  0.37826442010E+01  0.77051424991E+01  0.11249994572E+02  0.51100000000E-03 0. -1.
        -11    1    3    3    0    0 -0.45562539591E+01  0.48888217259E+01  0.66638781083E+00  0.67159586793E+01  0.51100000000E-03 0.  1.
        -12    1    3    3    0    0 -0.51045015411E-02  0.17738600287E+02  0.23971920940E+02  0.29821317203E+02  0.00000000000E+00 0.  1.
</event>
<event>
 7    1  0.2455451E-009  0.4778727E+02  0.7816164E-02  0.1312668E+00
        -11   -1    0    0    0    0  0.00000000000E+00  0.00000000000E+00  0.45593999997E+02  0.45594000000E+02  0.51100000000E-03 0. -1.
         11   -1    0    0    0    0 -0.00000000000E+00 -0.00000000000E+00 -0.45593999997E+02  0.45594000000E+02  0.51100000000E-03 0.  1.
    9900012    2    1    2    0    0  0.41598450293E+02  0.12355782853E+02 -0.72580130490E+00  0.47787271616E+02  0.20000002608E+02 0.  0.
         12    1    1    2    0    0 -0.41598450293E+02 -0.12355782853E+02  0.72580130490E+00  0.43400728384E+02  0.00000000000E+00 0. -1.
         11    1    3    3    0    0  0.29462217323E+01 -0.44176979857E+00  0.10988998384E+01  0.31753683514E+01  0.51100000000E-03 0. -1.
        -11    1    3    3    0    0  0.17436551890E+02  0.10415547143E+02  0.70394700517E+01  0.21495839202E+02  0.51100000000E-03 0.  1.
        -12    1    3    3    0    0  0.21215676670E+02  0.23820055090E+01 -0.88641711949E+01  0.23116064063E+02  0.00000000000E+00 0.  1.
</event>
<event>
 7    1  0.2455451E-009  0.4778730E+02  0.7816164E-02  0.1312668E+00
        -11   -1    0    0    0    0  0.00000000000E+00  0.00000000000E+00  0.45593999997E+02  0.45594000000E+02  0.51100000000E-03 0.  1.
         11   -1    0    0    0    0 -0.00000000000E+00 -0.00000000000E+00 -0.45593999997E+02  0.45594000000E+02  0.51100000000E-03 0. -1.
    9900012    2    1    2    0    0  0.91640050024E+01 -0.25083723903E+02  0.34211814884E+02  0.47787303345E+02  0.20000147270E+02 0.  0.
         12    1    1    2    0    0 -0.91640050024E+01  0.25083723903E+02 -0.34211814884E+02  0.43400696655E+02  0.00000000000E+00 0. -1.
         11    1    3    3    0    0  0.13138740544E+01 -0.18314980015E+02  0.15012424109E+02  0.23717875872E+02  0.51100000000E-03 0. -1.
        -11    1    3    3    0    0  0.84033889529E+01 -0.52196919244E+01  0.19944924851E+02  0.22263471365E+02  0.51100000000E-03 0.  1.
         12    1    3    3    0    0 -0.55325800498E+00 -0.15490519630E+01 -0.74553407561E+00  0.18059561075E+01  0.00000000000E+00 0. -1.
</event>
<event>
 7    1  0.2455451E-009  0.4778727E+02  0.7816164E-02  0.1312668E+00
        -11   -1    0    0    0    0  0.00000000000E+00  0.00000000000E+00  0.45593999997E+02  0.45594000000E+02  0.51100000000E-03 0.  1.
         11   -1    0    0    0    0 -0.00000000000E+00 -0.00000000000E+00 -0.45593999997E+02  0.45594000000E+02  0.51100000000E-03 0. -1.
    9900012    2    1    2    0    0 -0.16393535100E+01 -0.12445743320E+02  0.41545629034E+02  0.47787270760E+02  0.19999998704E+02 0.  0.
         12    1    1    2    0    0  0.16393535100E+01  0.12445743320E+02 -0.41545629034E+02  0.43400729240E+02  0.00000000000E+00 0. -1.
         11    1    3    3    0    0  0.39198589145E+01 -0.40114119587E+01  0.74242647577E+01  0.93046454670E+01  0.51100000000E-03 0. -1.
        -11    1    3    3    0    0 -0.10126093854E+02 -0.31540630056E+01  0.17628022012E+02  0.20572628673E+02  0.51100000000E-03 0.  1.
        -12    1    3    3    0    0  0.45668814297E+01 -0.52802683556E+01  0.16493342264E+02  0.17909996621E+02  0.00000000000E+00 0.  1.
</event>
<event>
 7    1  0.2455451E-009  0.4778727E+02  0.7816164E-02  0.1312668E+00
        -11   -1    0    0    0    0  0.00000000000E+00  0.00000000000E+00  0.45593999997E+02  0.45594000000E+02  0.51100000000E-03 0.  1.
         11   -1    0    0    0    0 -0.00000000000E+00 -0.00000000000E+00 -0.45593999997E+02  0.45594000000E+02  0.51100000000E-03 0. -1.
    9900012    2    1    2    0    0  0.69942639587E+01 -0.38230444782E+02  0.19316744725E+02  0.47787271166E+02  0.20000000555E+02 0.  0.
         12    1    1    2    0    0 -0.69942639587E+01  0.38230444782E+02 -0.19316744725E+02  0.43400728834E+02  0.00000000000E+00 0. -1.
         11    1    3    3    0    0 -0.28173474276E+01 -0.84729399984E+01 -0.16467680276E+01  0.90796477874E+01  0.51100000000E-03 0. -1.
        -11    1    3    3    0    0  0.91202579685E+01 -0.26897376078E+02  0.15144656222E+02  0.32187086815E+02  0.51100000000E-03 0.  1.
        -12    1    3    3    0    0  0.69135341782E+00 -0.28601287054E+01  0.58188565301E+01  0.65205365637E+01  0.00000000000E+00 0.  1.
</event>
<event>
 7    1  0.2455451E-009  0.4778727E+02  0.7816164E-02  0.1312668E+00
        -11   -1    0    0    0    0  0.00000000000E+00  0.00000000000E+00  0.45593999997E+02  0.45594000000E+02  0.51100000000E-03 0.  1.
         11   -1    0    0    0    0 -0.00000000000E+00 -0.00000000000E+00 -0.45593999997E+02  0.45594000000E+02  0.51100000000E-03 0. -1.
    9900012    2    1    2    0    0  0.30979045650E+01  0.76135220958E+01  0.42615258214E+02  0.47787274614E+02  0.20000016276E+02 0.  0.
         12    1    1    2    0    0 -0.30979045650E+01 -0.76135220958E+01 -0.42615258214E+02  0.43400725386E+02  0.00000000000E+00 0. -1.
         11    1    3    3    0    0  0.18206774906E+01 -0.38747762070E+01  0.17031273875E+02  0.17561123177E+02  0.51100000000E-03 0. -1.
        -11    1    3    3    0    0 -0.18379449580E+01  0.90174511806E+01  0.79866110888E+01  0.12185172318E+02  0.51100000000E-03 0.  1.
        -12    1    3    3    0    0  0.31151720323E+01  0.24708471222E+01  0.17597373250E+02  0.18040979120E+02  0.00000000000E+00 0.  1.
</event>
<event>
 7    1  0.2455451E-009  0.4778727E+02  0.7816164E-02  0.1312668E+00
        -11   -1    0    0    0    0  0.00000000000E+00  0.00000000000E+00  0.45593999997E+02  0.45594000000E+02  0.51100000000E-03 0.  1.
         11   -1    0    0    0    0 -0.00000000000E+00 -0.00000000000E+00 -0.45593999997E+02  0.45594000000E+02  0.51100000000E-03 0. -1.
    9900012    2    1    2    0    0  0.31758850207E+02 -0.13491520681E+01  0.29549594814E+02  0.47787270381E+02  0.19999996975E+02 0.  0.
         12    1    1    2    0    0 -0.31758850207E+02  0.13491520681E+01 -0.29549594814E+02  0.43400729619E+02  0.00000000000E+00 0. -1.
         11    1    3    3    0    0  0.17644928244E+02 -0.59855913132E+01  0.20247798919E+02  0.27516252605E+02  0.51100000000E-03 0. -1.
        -11    1    3    3    0    0  0.12597792733E+02  0.68672270297E+01  0.99950545745E+01  0.17486117495E+02  0.51100000000E-03 0.  1.
         12    1    3    3    0    0  0.15161292299E+01 -0.22307877847E+01 -0.69325867905E+00  0.27849002815E+01  0.00000000000E+00 0. -1.
</event>
<event>
 7    1  0.2455451E-009  0.4778727E+02  0.7816164E-02  0.1312668E+00
        -11   -1    0    0    0    0  0.00000000000E+00  0.00000000000E+00  0.45593999997E+02  0.45594000000E+02  0.51100000000E-03 0.  1.
         11   -1    0    0    0    0 -0.00000000000E+00 -0.00000000000E+00 -0.45593999997E+02  0.45594000000E+02  0.51100000000E-03 0. -1.
    9900012    2    1    2    0    0  0.20403407435E+02  0.25531612895E+02  0.28556276994E+02  0.47787271346E+02  0.20000001374E+02 0.  0.
         12    1    1    2    0    0 -0.20403407435E+02 -0.25531612895E+02 -0.28556276994E+02  0.43400728654E+02  0.00000000000E+00 0. -1.
         11    1    3    3    0    0 -0.40476965041E+00  0.43064329819E+01  0.45196931114E+00  0.43489630968E+01  0.51100000000E-03 0. -1.
        -11    1    3    3    0    0  0.16795047112E+01  0.11569580221E+02  0.10209699783E+02  0.15521401112E+02  0.51100000000E-03 0.  1.
         12    1    3    3    0    0  0.19128672374E+02  0.96555996921E+01  0.17894607900E+02  0.27916907137E+02  0.00000000000E+00 0. -1.
</event>
<event>
 7    1  0.2455451E-009  0.4778727E+02  0.7816164E-02  0.1312668E+00
        -11   -1    0    0    0    0  0.00000000000E+00  0.00000000000E+00  0.45593999997E+02  0.45594000000E+02  0.51100000000E-03 0. -1.
         11   -1    0    0    0    0 -0.00000000000E+00 -0.00000000000E+00 -0.45593999997E+02  0.45594000000E+02  0.51100000000E-03 0.  1.
    9900012    2    1    2    0    0 -0.85209494463E+01  0.20324865116E+02 -0.37388719228E+02  0.47787273659E+02  0.20000011920E+02 0.  0.
         12    1    1    2    0    0  0.85209494463E+01 -0.20324865116E+02  0.37388719228E+02  0.43400726341E+02  0.00000000000E+00 0. -1.
         11    1    3    3    0    0 -0.28713774028E+01  0.14772697034E+02 -0.27300648446E+02  0.31173751646E+02  0.51100000000E-03 0. -1.
        -11    1    3    3    0    0 -0.42658868383E+01  0.42840885918E+01 -0.12304277068E+02  0.13709355929E+02  0.51100000000E-03 0.  1.
         12    1    3    3    0    0 -0.13836852052E+01  0.12680794903E+01  0.22162062856E+01  0.29041660836E+01  0.00000000000E+00 0. -1.
</event>
<event>
 7    1  0.2455451E-009  0.4778727E+02  0.7816164E-02  0.1312668E+00
        -11   -1    0    0    0    0  0.00000000000E+00  0.00000000000E+00  0.45593999997E+02  0.45594000000E+02  0.51100000000E-03 0.  1.
         11   -1    0    0    0    0 -0.00000000000E+00 -0.00000000000E+00 -0.45593999997E+02  0.45594000000E+02  0.51100000000E-03 0. -1.
    9900012    2    1    2    0    0  0.37453356615E+02 -0.12182746682E+02  0.18233216162E+02  0.47787269475E+02  0.19999992846E+02 0.  0.
         12    1    1    2    0    0 -0.37453356615E+02  0.12182746682E+02 -0.18233216162E+02  0.43400730525E+02  0.00000000000E+00 0. -1.
         11    1    3    3    0    0  0.26427106648E+02 -0.21340396525E+01  0.16346170665E+02  0.31147124855E+02  0.51100000000E-03 0. -1.
        -11    1    3    3    0    0  0.84606391656E+01 -0.37044224202E+01  0.29908979955E+01  0.97082764505E+01  0.51100000000E-03 0.  1.
         12    1    3    3    0    0  0.25656108018E+01 -0.63442846094E+01 -0.11038524994E+01  0.69318681704E+01  0.00000000000E+00 0. -1.
</event>
<event>
 7    1  0.2455451E-009  0.4778727E+02  0.7816164E-02  0.1312668E+00
        -11   -1    0    0    0    0  0.00000000000E+00  0.00000000000E+00  0.45593999997E+02  0.45594000000E+02  0.51100000000E-03 0.  1.
         11   -1    0    0    0    0 -0.00000000000E+00 -0.00000000000E+00 -0.45593999997E+02  0.45594000000E+02  0.51100000000E-03 0. -1.
    9900012    2    1    2    0    0  0.89413881497E+01 -0.22268784654E+02  0.36163187563E+02  0.47787270435E+02  0.19999997223E+02 0.  0.
         12    1    1    2    0    0 -0.89413881497E+01  0.22268784654E+02 -0.36163187563E+02  0.43400729565E+02  0.00000000000E+00 0. -1.
         11    1    3    3    0    0  0.93083455342E+01 -0.16108447920E+02  0.15864185571E+02  0.24449944275E+02  0.51100000000E-03 0. -1.
        -11    1    3    3    0    0 -0.30801720137E+00 -0.18782580443E+00  0.15937493510E+02  0.15941576232E+02  0.51100000000E-03 0.  1.
         12    1    3    3    0    0 -0.58940183080E-01 -0.59725109297E+01  0.43615084818E+01  0.73957499273E+01  0.00000000000E+00 0. -1.
</event>
<event>
 7    1  0.2455451E-009  0.4778728E+02  0.7816164E-02  0.1312668E+00
        -11   -1    0    0    0    0  0.00000000000E+00  0.00000000000E+00  0.45593999997E+02  0.45594000000E+02  0.51100000000E-03 0. -1.
         11   -1    0    0    0    0 -0.00000000000E+00 -0.00000000000E+00 -0.45593999997E+02  0.45594000000E+02  0.51100000000E-03 0.  1.
    9900012    2    1    2    0    0 -0.24697282226E+01  0.43078632047E+02 -0.46641666867E+01  0.47787279413E+02  0.20000038156E+02 0.  0.
         12    1    1    2    0    0  0.24697282226E+01 -0.43078632047E+02  0.46641666867E+01  0.43400720587E+02  0.00000000000E+00 0. -1.
         11    1    3    3    0    0 -0.10416206198E+01  0.18866552076E+00 -0.68104612848E+00  0.12587264535E+01  0.51100000000E-03 0. -1.
        -11    1    3    3    0    0  0.34134356656E+00  0.10089335776E+01  0.37539290962E+01  0.39021079322E+01  0.51100000000E-03 0.  1.
        -12    1    3    3    0    0 -0.17694511694E+01  0.41881032949E+02 -0.77370496544E+01  0.42626445027E+02  0.00000000000E+00 0.  1.
</event>
<event>
 7    1  0.2455451E-009  0.4778727E+02  0.7816164E-02  0.1312668E+00
        -11   -1    0    0    0    0  0.00000000000E+00  0.00000000000E+00  0.45593999997E+02  0.45594000000E+02  0.51100000000E-03 0.  1.
         11   -1    0    0    0    0 -0.00000000000E+00 -0.00000000000E+00 -0.45593999997E+02  0.45594000000E+02  0.51100000000E-03 0. -1.
    9900012    2    1    2    0    0  0.24395652001E+02 -0.94901911293E+00  0.35882787843E+02  0.47787274923E+02  0.20000017684E+02 0.  0.
         12    1    1    2    0    0 -0.24395652001E+02  0.94901911293E+00 -0.35882787843E+02  0.43400725077E+02  0.00000000000E+00 0. -1.
         11    1    3    3    0    0  0.18769603302E+02  0.19326406097E+01  0.24115984308E+02  0.30620480193E+02  0.51100000000E-03 0.  1.
        -11    1    3    3    0    0  0.16225714604E+01 -0.32254685944E+01 -0.10294478276E+01  0.37544838378E+01  0.51100000000E-03 0. -1.
        -12    1    3    3    0    0  0.40034772379E+01  0.34380887170E+00  0.12796251362E+02  0.13412310892E+02  0.00000000000E+00 0.  1.
</event>
<event>
 7    1  0.2455451E-009  0.4778726E+02  0.7816164E-02  0.1312668E+00
        -11   -1    0    0    0    0  0.00000000000E+00  0.00000000000E+00  0.45593999997E+02  0.45594000000E+02  0.51100000000E-03 0. -1.
         11   -1    0    0    0    0 -0.00000000000E+00 -0.00000000000E+00 -0.45593999997E+02  0.45594000000E+02  0.51100000000E-03 0.  1.
    9900012    2    1    2    0    0 -0.30545332000E+02 -0.27966098454E+02 -0.12980928285E+02  0.47787257277E+02  0.19999937230E+02 0.  0.
         12    1    1    2    0    0  0.30545332000E+02  0.27966098454E+02  0.12980928285E+02  0.43400742723E+02  0.00000000000E+00 0. -1.
         11    1    3    3    0    0 -0.89777945641E+01 -0.97749248911E+00 -0.13711885424E+01  0.91343552089E+01  0.51100000000E-03 0. -1.
        -11    1    3    3    0    0 -0.13962912903E+02 -0.22843169666E+02 -0.13195429685E+02  0.29847825749E+02  0.51100000000E-03 0.  1.
        -12    1    3    3    0    0 -0.76046245327E+01 -0.41454362992E+01  0.15856899426E+01  0.88050763192E+01  0.00000000000E+00 0.  1.
</event>
<event>
 7    1  0.2455451E-009  0.4778725E+02  0.7816164E-02  0.1312668E+00
        -11   -1    0    0    0    0  0.00000000000E+00  0.00000000000E+00  0.45593999997E+02  0.45594000000E+02  0.51100000000E-03 0.  1.
         11   -1    0    0    0    0 -0.00000000000E+00 -0.00000000000E+00 -0.45593999997E+02  0.45594000000E+02  0.51100000000E-03 0. -1.
    9900012    2    1    2    0    0  0.94950802470E+01 -0.38664688191E+02  0.17277459736E+02  0.47787247971E+02  0.19999894797E+02 0.  0.
         12    1    1    2    0    0 -0.94950802470E+01  0.38664688191E+02 -0.17277459736E+02  0.43400752029E+02  0.00000000000E+00 0. -1.
         11    1    3    3    0    0  0.24925684452E+01 -0.17222617003E+01 -0.14916637056E+01  0.33770021750E+01  0.51100000000E-03 0. -1.
        -11    1    3    3    0    0  0.85309923197E+01 -0.30881547375E+02  0.98486705935E+01  0.33517817813E+02  0.51100000000E-03 0.  1.
        -12    1    3    3    0    0 -0.15284805179E+01 -0.60608791152E+01  0.89204528477E+01  0.10892427982E+02  0.00000000000E+00 0.  1.
</event>
<event>
 7    1  0.2455451E-009  0.4778727E+02  0.7816164E-02  0.1312668E+00
        -11   -1    0    0    0    0  0.00000000000E+00  0.00000000000E+00  0.45593999997E+02  0.45594000000E+02  0.51100000000E-03 0.  1.
         11   -1    0    0    0    0 -0.00000000000E+00 -0.00000000000E+00 -0.45593999997E+02  0.45594000000E+02  0.51100000000E-03 0. -1.
    9900012    2    1    2    0    0 -0.26490202795E+02  0.76216552390E+01  0.33523170157E+02  0.47787269476E+02  0.19999992847E+02 0.  0.
         12    1    1    2    0    0  0.26490202795E+02 -0.76216552390E+01 -0.33523170157E+02  0.43400730524E+02  0.00000000000E+00 0. -1.
         11    1    3    3    0    0 -0.14882399734E+02 -0.14177224156E+01  0.12894504656E+02  0.19742441827E+02  0.51100000000E-03 0. -1.
        -11    1    3    3    0    0 -0.81528100590E+01 -0.61345087881E+00  0.58297719919E+01  0.10041457841E+02  0.51100000000E-03 0.  1.
         12    1    3    3    0    0 -0.34549930013E+01  0.96528285334E+01  0.14798893508E+02  0.18003369807E+02  0.00000000000E+00 0. -1.
</event>
<event>
 7    1  0.2455451E-009  0.4778727E+02  0.7816164E-02  0.1312668E+00
        -11   -1    0    0    0    0  0.00000000000E+00  0.00000000000E+00  0.45593999997E+02  0.45594000000E+02  0.51100000000E-03 0.  1.
         11   -1    0    0    0    0 -0.00000000000E+00 -0.00000000000E+00 -0.45593999997E+02  0.45594000000E+02  0.51100000000E-03 0. -1.
    9900012    2    1    2    0    0 -0.33523202659E+02  0.17843582735E+02  0.21010119480E+02  0.47787266344E+02  0.19999978567E+02 0.  0.
         12    1    1    2    0    0  0.33523202659E+02 -0.17843582735E+02 -0.21010119480E+02  0.43400733656E+02  0.00000000000E+00 0. -1.
         11    1    3    3    0    0  0.25344840256E+00 -0.91566560463E+00 -0.51624583985E+00  0.10812907197E+01  0.51100000000E-03 0. -1.
        -11    1    3    3    0    0 -0.28620868150E+01  0.70488724837E+01  0.78465565523E+01  0.10929162558E+02  0.51100000000E-03 0.  1.
        -12    1    3    3    0    0 -0.30914564247E+02  0.11710375856E+02  0.13679808768E+02  0.35776813066E+02  0.00000000000E+00 0.  1.
</event>
<event>
 7    1  0.2455451E-009  0.4778727E+02  0.7816164E-02  0.1312668E+00
        -11   -1    0    0    0    0  0.00000000000E+00  0.00000000000E+00  0.45593999997E+02  0.45594000000E+02  0.51100000000E-03 0. -1.
         11   -1    0    0    0    0 -0.00000000000E+00 -0.00000000000E+00 -0.45593999997E+02  0.45594000000E+02  0.51100000000E-03 0.  1.
    9900012    2    1    2    0    0  0.39933754551E+02  0.16964319547E+02 -0.10631902211E+01  0.47787271162E+02  0.20000000535E+02 0.  0.
         12    1    1    2    0    0 -0.39933754551E+02 -0.16964319547E+02  0.10631902211E+01  0.43400728838E+02  0.00000000000E+00 0. -1.
         11    1    3    3    0    0  0.20745276973E+01  0.18186950898E+01 -0.49865164144E+01  0.56988299859E+01  0.51100000000E-03 0. -1.
        -11    1    3    3    0    0  0.37573568595E+02  0.16111698224E+02  0.36516461739E+01  0.41045028891E+02  0.51100000000E-03 0.  1.
        -12    1    3    3    0    0  0.28565825912E+00 -0.96607376681E+00  0.27168001934E+00  0.10434122852E+01  0.00000000000E+00 0.  1.
</event>
<event>
 7    1  0.2455451E-009  0.4778727E+02  0.7816164E-02  0.1312668E+00
        -11   -1    0    0    0    0  0.00000000000E+00  0.00000000000E+00  0.45593999997E+02  0.45594000000E+02  0.51100000000E-03 0.  1.
         11   -1    0    0    0    0 -0.00000000000E+00 -0.00000000000E+00 -0.45593999997E+02  0.45594000000E+02  0.51100000000E-03 0. -1.
    9900012    2    1    2    0    0 -0.12231757243E+02  0.38648605770E+02  0.15501388186E+02  0.47787266724E+02  0.19999980301E+02 0.  0.
         12    1    1    2    0    0  0.12231757243E+02 -0.38648605770E+02 -0.15501388186E+02  0.43400733276E+02  0.00000000000E+00 0. -1.
         11    1    3    3    0    0 -0.54049363501E+01  0.45880284269E+01  0.54688992905E+01  0.89538930921E+01  0.51100000000E-03 0. -1.
        -11    1    3    3    0    0  0.47497402780E+00  0.28056312329E+02  0.76444149941E+01  0.29082973416E+02  0.51100000000E-03 0.  1.
        -12    1    3    3    0    0 -0.73017949202E+01  0.60042650140E+01  0.23880739013E+01  0.97504002160E+01  0.00000000000E+00 0.  1.
</event>
<event>
 7    1  0.2455451E-009  0.4778727E+02  0.7816164E-02  0.1312668E+00
        -11   -1    0    0    0    0  0.00000000000E+00  0.00000000000E+00  0.45593999997E+02  0.45594000000E+02  0.51100000000E-03 0.  1.
         11   -1    0    0    0    0 -0.00000000000E+00 -0.00000000000E+00 -0.45593999997E+02  0.45594000000E+02  0.51100000000E-03 0. -1.
    9900012    2    1    2    0    0  0.76038111178E+01  0.32930655391E+02 -0.27228242664E+02  0.47787271820E+02  0.20000003534E+02 0.  0.
         12    1    1    2    0    0 -0.76038111178E+01 -0.32930655391E+02  0.27228242664E+02  0.43400728180E+02  0.00000000000E+00 0. -1.
         11    1    3    3    0    0  0.95203282142E+00  0.68315578060E+00 -0.40698229210E+00  0.12404447432E+01  0.51100000000E-03 0. -1.
        -11    1    3    3    0    0  0.18661341027E+01  0.18314745573E+00 -0.97086004636E+01  0.98880191496E+01  0.51100000000E-03 0.  1.
        -12    1    3    3    0    0  0.47856441936E+01  0.32064352155E+02 -0.17112659908E+02  0.36658807927E+02  0.00000000000E+00 0.  1.
</event>
<event>
 7    1  0.2455451E-009  0.4778727E+02  0.7816164E-02  0.1312668E+00
        -11   -1    0    0    0    0  0.00000000000E+00  0.00000000000E+00  0.45593999997E+02  0.45594000000E+02  0.51100000000E-03 0.  1.
         11   -1    0    0    0    0 -0.00000000000E+00 -0.00000000000E+00 -0.45593999997E+02  0.45594000000E+02  0.51100000000E-03 0. -1.
    9900012    2    1    2    0    0  0.40230197946E+01 -0.14696855926E+02  0.40637923630E+02  0.47787273056E+02  0.20000009170E+02 0.  0.
         12    1    1    2    0    0 -0.40230197946E+01  0.14696855926E+02 -0.40637923630E+02  0.43400726944E+02  0.00000000000E+00 0. -1.
         11    1    3    3    0    0  0.72952371624E+00 -0.14449526134E+02  0.13045869615E+02  0.19481163328E+02  0.51100000000E-03 0. -1.
        -11    1    3    3    0    0  0.16965704127E+01 -0.11125096706E+01  0.28548110330E+01  0.35022814318E+01  0.51100000000E-03 0.  1.
         12    1    3    3    0    0  0.15969256657E+01  0.86517987800E+00  0.24737242981E+02  0.24803828296E+02  0.00000000000E+00 0. -1.
</event>
<event>
 7    1  0.2455451E-009  0.4778727E+02  0.7816164E-02  0.1312668E+00
        -11   -1    0    0    0    0  0.00000000000E+00  0.00000000000E+00  0.45593999997E+02  0.45594000000E+02  0.51100000000E-03 0. -1.
         11   -1    0    0    0    0 -0.00000000000E+00 -0.00000000000E+00 -0.45593999997E+02  0.45594000000E+02  0.51100000000E-03 0.  1.
    9900012    2    1    2    0    0  0.34712069220E+02 -0.29432207789E+01 -0.25884997835E+02  0.47787269465E+02  0.19999992797E+02 0.  0.
         12    1    1    2    0    0 -0.34712069220E+02  0.29432207789E+01  0.25884997835E+02  0.43400730535E+02  0.00000000000E+00 0. -1.
         11    1    3    3    0    0  0.75876458357E+00 -0.48542326243E+01 -0.65638572361E+01  0.81989950690E+01  0.51100000000E-03 0. -1.
        -11    1    3    3    0    0  0.18985869774E+02  0.23124001857E+01 -0.13982327193E+02  0.23692106696E+02  0.51100000000E-03 0.  1.
         12    1    3    3    0    0  0.14967434862E+02 -0.40138834033E+00 -0.53388134060E+01  0.15896167700E+02  0.00000000000E+00 0. -1.
</event>
<event>
 7    1  0.2455451E-009  0.4778727E+02  0.7816164E-02  0.1312668E+00
        -11   -1    0    0    0    0  0.00000000000E+00  0.00000000000E+00  0.45593999997E+02  0.45594000000E+02  0.51100000000E-03 0. -1.
         11   -1    0    0    0    0 -0.00000000000E+00 -0.00000000000E+00 -0.45593999997E+02  0.45594000000E+02  0.51100000000E-03 0.  1.
    9900012    2    1    2    0    0  0.81523853464E+01  0.42433016475E+02  0.40743967390E+01  0.47787274398E+02  0.20000015290E+02 0.  0.
         12    1    1    2    0    0 -0.81523853464E+01 -0.42433016475E+02 -0.40743967390E+01  0.43400725602E+02  0.00000000000E+00 0. -1.
         11    1    3    3    0    0  0.16653544971E+01  0.46387583937E+01 -0.31834907809E+01  0.58673758060E+01  0.51100000000E-03 0. -1.
        -11    1    3    3    0    0  0.80973311048E+01  0.31655307899E+02  0.11090958259E+02  0.34505574109E+02  0.51100000000E-03 0.  1.
        -12    1    3    3    0    0 -0.16103002555E+01  0.61389501820E+01 -0.38330707392E+01  0.74143244832E+01  0.00000000000E+00 0.  1.
</event>
<event>
 7    1  0.2455451E-009  0.4778726E+02  0.7816164E-02  0.1312668E+00
        -11   -1    0    0    0    0  0.00000000000E+00  0.00000000000E+00  0.45593999997E+02  0.45594000000E+02  0.51100000000E-03 0.  1.
         11   -1    0    0    0    0 -0.00000000000E+00 -0.00000000000E+00 -0.45593999997E+02  0.45594000000E+02  0.51100000000E-03 0. -1.
    9900012    2    1    2    0    0  0.13318586575E+02  0.35418404503E+02  0.21255019691E+02  0.47787262818E+02  0.19999962493E+02 0.  0.
         12    1    1    2    0    0 -0.13318586575E+02 -0.35418404503E+02 -0.21255019691E+02  0.43400737182E+02  0.00000000000E+00 0. -1.
         11    1    3    3    0    0 -0.11227168695E+00 -0.11199214017E+01  0.33987472909E+01  0.35802670692E+01  0.51100000000E-03 0. -1.
        -11    1    3    3    0    0  0.14741414079E+02  0.36199118752E+02  0.17206055168E+02  0.42705196665E+02  0.51100000000E-03 0.  1.
         12    1    3    3    0    0 -0.13105558168E+01  0.33920715272E+00  0.65021723154E+00  0.15017990843E+01  0.00000000000E+00 0. -1.
</event>
<event>
 7    1  0.2455451E-009  0.4778727E+02  0.7816164E-02  0.1312668E+00
        -11   -1    0    0    0    0  0.00000000000E+00  0.00000000000E+00  0.45593999997E+02  0.45594000000E+02  0.51100000000E-03 0.  1.
         11   -1    0    0    0    0 -0.00000000000E+00 -0.00000000000E+00 -0.45593999997E+02  0.45594000000E+02  0.51100000000E-03 0. -1.
    9900012    2    1    2    0    0  0.25816327322E+02  0.31026099401E+02  0.15953728754E+02  0.47787273490E+02  0.20000011151E+02 0.  0.
         12    1    1    2    0    0 -0.25816327322E+02 -0.31026099401E+02 -0.15953728754E+02  0.43400726510E+02  0.00000000000E+00 0. -1.
         11    1    3    3    0    0  0.62024044174E+00  0.47599307903E-01 -0.27388403061E+01  0.28085958027E+01  0.51100000000E-03 0. -1.
        -11    1    3    3    0    0  0.17575208963E+02  0.16034787500E+02  0.80645214999E+01  0.25120487407E+02  0.51100000000E-03 0.  1.
         12    1    3    3    0    0  0.76208779170E+01  0.14943712593E+02  0.10628047560E+02  0.19858190281E+02  0.00000000000E+00 0. -1.
</event>
<event>
 7    1  0.2455451E-009  0.4778727E+02  0.7816164E-02  0.1312668E+00
        -11   -1    0    0    0    0  0.00000000000E+00  0.00000000000E+00  0.45593999997E+02  0.45594000000E+02  0.51100000000E-03 0.  1.
         11   -1    0    0    0    0 -0.00000000000E+00 -0.00000000000E+00 -0.45593999997E+02  0.45594000000E+02  0.51100000000E-03 0. -1.
    9900012    2    1    2    0    0  0.83057166738E+01 -0.26833930636E+02  0.33084410263E+02  0.47787274599E+02  0.20000016207E+02 0.  0.
         12    1    1    2    0    0 -0.83057166738E+01  0.26833930636E+02 -0.33084410263E+02  0.43400725401E+02  0.00000000000E+00 0. -1.
         11    1    3    3    0    0 -0.13779991411E+01 -0.29548802628E+01  0.15305272208E+02  0.15648691850E+02  0.51100000000E-03 0. -1.
        -11    1    3    3    0    0  0.10736708265E+02 -0.20754016974E+02  0.14569617992E+02  0.27536882424E+02  0.51100000000E-03 0.  1.
         12    1    3    3    0    0 -0.10529924501E+01 -0.31250333991E+01  0.32095200632E+01  0.46017003251E+01  0.00000000000E+00 0. -1.
</event>
<event>
 7    1  0.2455451E-009  0.4778727E+02  0.7816164E-02  0.1312668E+00
        -11   -1    0    0    0    0  0.00000000000E+00  0.00000000000E+00  0.45593999997E+02  0.45594000000E+02  0.51100000000E-03 0. -1.
         11   -1    0    0    0    0 -0.00000000000E+00 -0.00000000000E+00 -0.45593999997E+02  0.45594000000E+02  0.51100000000E-03 0.  1.
    9900012    2    1    2    0    0 -0.41806960488E+02 -0.62761052488E+01 -0.98189502832E+01  0.47787271584E+02  0.20000002461E+02 0.  0.
         12    1    1    2    0    0  0.41806960488E+02  0.62761052488E+01  0.98189502832E+01  0.43400728416E+02  0.00000000000E+00 0. -1.
         11    1    3    3    0    0 -0.11652590895E+02 -0.84805247941E+01  0.16952117009E+01  0.14511234210E+02  0.51100000000E-03 0. -1.
        -11    1    3    3    0    0 -0.24529667081E+02  0.32266299877E+01 -0.62813096029E+01  0.25525880176E+02  0.51100000000E-03 0.  1.
        -12    1    3    3    0    0 -0.56247025130E+01 -0.10222104424E+01 -0.52328523811E+01  0.77501571979E+01  0.00000000000E+00 0.  1.
</event>
<event>
 7    1  0.2455451E-009  0.4778727E+02  0.7816164E-02  0.1312668E+00
        -11   -1    0    0    0    0  0.00000000000E+00  0.00000000000E+00  0.45593999997E+02  0.45594000000E+02  0.51100000000E-03 0.  1.
         11   -1    0    0    0    0 -0.00000000000E+00 -0.00000000000E+00 -0.45593999997E+02  0.45594000000E+02  0.51100000000E-03 0. -1.
    9900012    2    1    2    0    0  0.26560389308E+02 -0.30929115280E+02  0.14884848827E+02  0.47787272163E+02  0.20000005101E+02 0.  0.
         12    1    1    2    0    0 -0.26560389308E+02  0.30929115280E+02 -0.14884848827E+02  0.43400727837E+02  0.00000000000E+00 0. -1.
         11    1    3    3    0    0 -0.42365312630E+00 -0.46875124956E+01 -0.16619150702E+01  0.49914143617E+01  0.51100000000E-03 0. -1.
        -11    1    3    3    0    0  0.14733226046E+02 -0.65207821534E+01  0.85581598684E+01  0.18243646845E+02  0.51100000000E-03 0.  1.
        -12    1    3    3    0    0  0.12250816388E+02 -0.19720820631E+02  0.79886040285E+01  0.24552210956E+02  0.00000000000E+00 0.  1.
</event>
<event>
 7    1  0.2455451E-009  0.4778727E+02  0.7816164E-02  0.1312668E+00
        -11   -1    0    0    0    0  0.00000000000E+00  0.00000000000E+00  0.45593999997E+02  0.45594000000E+02  0.51100000000E-03 0. -1.
         11   -1    0    0    0    0 -0.00000000000E+00 -0.00000000000E+00 -0.45593999997E+02  0.45594000000E+02  0.51100000000E-03 0.  1.
    9900012    2    1    2    0    0 -0.14209168601E+02 -0.52456135147E+01 -0.40671937417E+02  0.47787269283E+02  0.19999991970E+02 0.  0.
         12    1    1    2    0    0  0.14209168601E+02  0.52456135147E+01  0.40671937417E+02  0.43400730717E+02  0.00000000000E+00 0. -1.
         11    1    3    3    0    0 -0.94131620909E+01 -0.73369404563E+01 -0.11013667152E+02  0.16240048652E+02  0.51100000000E-03 0. -1.
        -11    1    3    3    0    0  0.24615054293E+00  0.49231348827E+01 -0.12298332551E+02  0.13249408702E+02  0.51100000000E-03 0.  1.
        -12    1    3    3    0    0 -0.50421570529E+01 -0.28318079412E+01 -0.17359937714E+02  0.18297811930E+02  0.00000000000E+00 0.  1.
</event>
<event>
 7    1  0.2455451E-009  0.4778727E+02  0.7816164E-02  0.1312668E+00
        -11   -1    0    0    0    0  0.00000000000E+00  0.00000000000E+00  0.45593999997E+02  0.45594000000E+02  0.51100000000E-03 0. -1.
         11   -1    0    0    0    0 -0.00000000000E+00 -0.00000000000E+00 -0.45593999997E+02  0.45594000000E+02  0.51100000000E-03 0.  1.
    9900012    2    1    2    0    0 -0.13313342610E+02  0.78585577676E+01 -0.40553930115E+02  0.47787271095E+02  0.20000000233E+02 0.  0.
         12    1    1    2    0    0  0.13313342610E+02 -0.78585577676E+01  0.40553930115E+02  0.43400728905E+02  0.00000000000E+00 0. -1.
         11    1    3    3    0    0 -0.11075562898E+01  0.11378947120E+01 -0.70246088617E+00  0.17363573562E+01  0.51100000000E-03 0. -1.
        -11    1    3    3    0    0 -0.89173556011E+01 -0.54519552524E+01 -0.17209430470E+02  0.20134734773E+02  0.51100000000E-03 0.  1.
        -12    1    3    3    0    0 -0.32884307190E+01  0.12172618308E+02 -0.22642038759E+02  0.25916178967E+02  0.00000000000E+00 0.  1.
</event>
<event>
 7    1  0.2455451E-009  0.4778727E+02  0.7816164E-02  0.1312668E+00
        -11   -1    0    0    0    0  0.00000000000E+00  0.00000000000E+00  0.45593999997E+02  0.45594000000E+02  0.51100000000E-03 0.  1.
         11   -1    0    0    0    0 -0.00000000000E+00 -0.00000000000E+00 -0.45593999997E+02  0.45594000000E+02  0.51100000000E-03 0. -1.
    9900012    2    1    2    0    0 -0.34513598563E+02  0.20117348590E+02 -0.16962528589E+02  0.47787267561E+02  0.19999984119E+02 0.  0.
         12    1    1    2    0    0  0.34513598563E+02 -0.20117348590E+02  0.16962528589E+02  0.43400732439E+02  0.00000000000E+00 0. -1.
         11    1    3    3    0    0 -0.31444313864E+01 -0.23573961257E+01  0.23825993546E+01  0.45958182278E+01  0.51100000000E-03 0. -1.
        -11    1    3    3    0    0 -0.15513705582E+02  0.11993462063E+02 -0.99893574517E+01  0.22006941080E+02  0.51100000000E-03 0.  1.
         12    1    3    3    0    0 -0.15855461595E+02  0.10481282652E+02 -0.93557704922E+01  0.21184508254E+02  0.00000000000E+00 0. -1.
</event>
<event>
 7    1  0.2455451E-009  0.4778727E+02  0.7816164E-02  0.1312668E+00
        -11   -1    0    0    0    0  0.00000000000E+00  0.00000000000E+00  0.45593999997E+02  0.45594000000E+02  0.51100000000E-03 0.  1.
         11   -1    0    0    0    0 -0.00000000000E+00 -0.00000000000E+00 -0.45593999997E+02  0.45594000000E+02  0.51100000000E-03 0. -1.
    9900012    2    1    2    0    0 -0.26076435218E+01  0.35808417305E+02  0.24384029902E+02  0.47787268798E+02  0.19999989757E+02 0.  0.
         12    1    1    2    0    0  0.26076435218E+01 -0.35808417305E+02 -0.24384029902E+02  0.43400731202E+02  0.00000000000E+00 0. -1.
         11    1    3    3    0    0  0.34105872462E+01  0.69534621400E+01  0.50871156128E+01  0.92661473448E+01  0.51100000000E-03 0. -1.
        -11    1    3    3    0    0 -0.17674429117E+01  0.17746976632E+02  0.19760274257E+02  0.26618555051E+02  0.51100000000E-03 0.  1.
        -12    1    3    3    0    0 -0.42507878563E+01  0.11107978533E+02 -0.46335996829E+00  0.11902566402E+02  0.00000000000E+00 0.  1.
</event>
<event>
 7    1  0.2455451E-009  0.4778727E+02  0.7816164E-02  0.1312668E+00
        -11   -1    0    0    0    0  0.00000000000E+00  0.00000000000E+00  0.45593999997E+02  0.45594000000E+02  0.51100000000E-03 0.  1.
         11   -1    0    0    0    0 -0.00000000000E+00 -0.00000000000E+00 -0.45593999997E+02  0.45594000000E+02  0.51100000000E-03 0. -1.
    9900012    2    1    2    0    0 -0.11536382177E+02  0.37962284725E+02  0.17589771580E+02  0.47787271440E+02  0.20000001805E+02 0.  0.
         12    1    1    2    0    0  0.11536382177E+02 -0.37962284725E+02 -0.17589771580E+02  0.43400728560E+02  0.00000000000E+00 0. -1.
         11    1    3    3    0    0 -0.11068054087E+01  0.17551821995E+02  0.14626625303E+02  0.22874213464E+02  0.51100000000E-03 0. -1.
        -11    1    3    3    0    0 -0.10107002746E+02  0.20289641252E+02  0.75707900246E+00  0.22680260482E+02  0.51100000000E-03 0.  1.
         12    1    3    3    0    0 -0.32257402215E+00  0.12082147670E+00  0.22060672748E+01  0.22327974941E+01  0.00000000000E+00 0. -1.
</event>
<event>
 7    1  0.2455451E-009  0.4778726E+02  0.7816164E-02  0.1312668E+00
        -11   -1    0    0    0    0  0.00000000000E+00  0.00000000000E+00  0.45593999997E+02  0.45594000000E+02  0.51100000000E-03 0.  1.
         11   -1    0    0    0    0 -0.00000000000E+00 -0.00000000000E+00 -0.45593999997E+02  0.45594000000E+02  0.51100000000E-03 0. -1.
    9900012    2    1    2    0    0 -0.20965374890E+02  0.36630629145E+02  0.10113060149E+02  0.47787263584E+02  0.19999965985E+02 0.  0.
         12    1    1    2    0    0  0.20965374890E+02 -0.36630629145E+02 -0.10113060149E+02  0.43400736416E+02  0.00000000000E+00 0. -1.
         11    1    3    3    0    0 -0.39278504981E+01  0.17236257653E+01 -0.39169387310E+00  0.43072403771E+01  0.51100000000E-03 0. -1.
        -11    1    3    3    0    0  0.29724995215E+01  0.51918425703E+01 -0.49999175538E+00  0.60034135870E+01  0.51100000000E-03 0.  1.
        -12    1    3    3    0    0 -0.20010023914E+02  0.29715160810E+02  0.11004745778E+02  0.37476609620E+02  0.00000000000E+00 0.  1.
</event>
<event>
 7    1  0.2455451E-009  0.4778727E+02  0.7816164E-02  0.1312668E+00
        -11   -1    0    0    0    0  0.00000000000E+00  0.00000000000E+00  0.45593999997E+02  0.45594000000E+02  0.51100000000E-03 0.  1.
         11   -1    0    0    0    0 -0.00000000000E+00 -0.00000000000E+00 -0.45593999997E+02  0.45594000000E+02  0.51100000000E-03 0. -1.
    9900012    2    1    2    0    0 -0.22373205097E+02 -0.23419995030E+02  0.28888871037E+02  0.47787270244E+02  0.19999996351E+02 0.  0.
         12    1    1    2    0    0  0.22373205097E+02  0.23419995030E+02 -0.28888871037E+02  0.43400729756E+02  0.00000000000E+00 0. -1.
         11    1    3    3    0    0 -0.65933429122E+00  0.20929855141E+01  0.26301260592E+01  0.34253282205E+01  0.51100000000E-03 0. -1.
        -11    1    3    3    0    0 -0.23156469073E+02 -0.21959178457E+02  0.23159526401E+02  0.39430841252E+02  0.51100000000E-03 0.  1.
        -12    1    3    3    0    0  0.14425982668E+01 -0.35538020874E+01  0.30992185769E+01  0.49311007720E+01  0.00000000000E+00 0.  1.
</event>
<event>
 7    1  0.2455451E-009  0.4778727E+02  0.7816164E-02  0.1312668E+00
        -11   -1    0    0    0    0  0.00000000000E+00  0.00000000000E+00  0.45593999997E+02  0.45594000000E+02  0.51100000000E-03 0.  1.
         11   -1    0    0    0    0 -0.00000000000E+00 -0.00000000000E+00 -0.45593999997E+02  0.45594000000E+02  0.51100000000E-03 0. -1.
    9900012    2    1    2    0    0  0.39694579436E+01 -0.35703303320E+02  0.24354484610E+02  0.47787269765E+02  0.19999994168E+02 0.  0.
         12    1    1    2    0    0 -0.39694579436E+01  0.35703303320E+02 -0.24354484610E+02  0.43400730235E+02  0.00000000000E+00 0. -1.
         11    1    3    3    0    0 -0.73859100595E+00  0.72288287441E+00  0.58837928274E+01  0.59738676434E+01  0.51100000000E-03 0. -1.
        -11    1    3    3    0    0  0.65165327480E+01 -0.32243372706E+02  0.16976981924E+02  0.37017809200E+02  0.51100000000E-03 0.  1.
         12    1    3    3    0    0 -0.18084837984E+01 -0.41828134885E+01  0.14937098588E+01  0.47955929217E+01  0.00000000000E+00 0. -1.
</event>
<event>
 7    1  0.2455451E-009  0.4778727E+02  0.7816164E-02  0.1312668E+00
        -11   -1    0    0    0    0  0.00000000000E+00  0.00000000000E+00  0.45593999997E+02  0.45594000000E+02  0.51100000000E-03 0.  1.
         11   -1    0    0    0    0 -0.00000000000E+00 -0.00000000000E+00 -0.45593999997E+02  0.45594000000E+02  0.51100000000E-03 0. -1.
    9900012    2    1    2    0    0  0.16508175490E+02  0.19423905666E+02  0.35125704978E+02  0.47787272823E+02  0.20000008108E+02 0.  0.
         12    1    1    2    0    0 -0.16508175490E+02 -0.19423905666E+02 -0.35125704978E+02  0.43400727177E+02  0.00000000000E+00 0. -1.
         11    1    3    3    0    0 -0.15073848575E+01 -0.10416190377E+01  0.94758053235E+01  0.96513245784E+01  0.51100000000E-03 0. -1.
        -11    1    3    3    0    0  0.10393873051E+02  0.12052085872E+02  0.99774460105E+01  0.18783897360E+02  0.51100000000E-03 0.  1.
         12    1    3    3    0    0  0.76216872969E+01  0.84134388314E+01  0.15672453644E+02  0.19352050885E+02  0.00000000000E+00 0. -1.
</event>
<event>
 7    1  0.2455451E-009  0.4778727E+02  0.7816164E-02  0.1312668E+00
        -11   -1    0    0    0    0  0.00000000000E+00  0.00000000000E+00  0.45593999997E+02  0.45594000000E+02  0.51100000000E-03 0.  1.
         11   -1    0    0    0    0 -0.00000000000E+00 -0.00000000000E+00 -0.45593999997E+02  0.45594000000E+02  0.51100000000E-03 0. -1.
    9900012    2    1    2    0    0 -0.12183990354E+02 -0.71063623066E+01  0.41044768186E+02  0.47787274181E+02  0.20000014301E+02 0.  0.
         12    1    1    2    0    0  0.12183990354E+02  0.71063623066E+01 -0.41044768186E+02  0.43400725819E+02  0.00000000000E+00 0. -1.
         11    1    3    3    0    0 -0.45420250776E+01  0.44920035183E+01  0.56273765016E+01  0.85132516681E+01  0.51100000000E-03 0. -1.
        -11    1    3    3    0    0 -0.52209913879E+01 -0.92801091827E+01  0.34011278005E+02  0.35639110670E+02  0.51100000000E-03 0.  1.
        -12    1    3    3    0    0 -0.24209738889E+01 -0.23182566423E+01  0.14061136792E+01  0.36349118434E+01  0.00000000000E+00 0.  1.
</event>
<event>
 7    1  0.2455451E-009  0.4778729E+02  0.7816164E-02  0.1312668E+00
        -11   -1    0    0    0    0  0.00000000000E+00  0.00000000000E+00  0.45593999997E+02  0.45594000000E+02  0.51100000000E-03 0.  1.
         11   -1    0    0    0    0 -0.00000000000E+00 -0.00000000000E+00 -0.45593999997E+02  0.45594000000E+02  0.51100000000E-03 0. -1.
    9900012    2    1    2    0    0 -0.55246889847E+01  0.19306584807E+02  0.38475389269E+02  0.47787285896E+02  0.20000067715E+02 0.  0.
         12    1    1    2    0    0  0.55246889847E+01 -0.19306584807E+02 -0.38475389269E+02  0.43400714104E+02  0.00000000000E+00 0. -1.
         11    1    3    3    0    0 -0.49652948927E+01  0.22999390383E+01  0.24081063532E+02  0.24694969003E+02  0.51100000000E-03 0. -1.
        -11    1    3    3    0    0 -0.28838056854E+01  0.13747745290E+02  0.11470288445E+02  0.18135168956E+02  0.51100000000E-03 0.  1.
         12    1    3    3    0    0  0.23244115934E+01  0.32589004788E+01  0.29240372923E+01  0.49571479374E+01  0.00000000000E+00 0. -1.
</event>
<event>
 7    1  0.2455451E-009  0.4778727E+02  0.7816164E-02  0.1312668E+00
        -11   -1    0    0    0    0  0.00000000000E+00  0.00000000000E+00  0.45593999997E+02  0.45594000000E+02  0.51100000000E-03 0.  1.
         11   -1    0    0    0    0 -0.00000000000E+00 -0.00000000000E+00 -0.45593999997E+02  0.45594000000E+02  0.51100000000E-03 0. -1.
    9900012    2    1    2    0    0  0.11935785664E+02  0.35729229066E+02  0.21554178312E+02  0.47787269686E+02  0.19999993808E+02 0.  0.
         12    1    1    2    0    0 -0.11935785664E+02 -0.35729229066E+02 -0.21554178312E+02  0.43400730314E+02  0.00000000000E+00 0. -1.
         11    1    3    3    0    0  0.86376223969E+01  0.14335785583E+02  0.30371161154E+01  0.17010212918E+02  0.51100000000E-03 0. -1.
        -11    1    3    3    0    0 -0.42888601084E+01  0.82342297941E+01  0.84525872723E+01  0.12555600073E+02  0.51100000000E-03 0.  1.
        -12    1    3    3    0    0  0.75870233754E+01  0.13159213689E+02  0.10064474925E+02  0.18221456696E+02  0.00000000000E+00 0.  1.
</event>
<event>
 7    1  0.2455451E-009  0.4778727E+02  0.7816164E-02  0.1312668E+00
        -11   -1    0    0    0    0  0.00000000000E+00  0.00000000000E+00  0.45593999997E+02  0.45594000000E+02  0.51100000000E-03 0.  1.
         11   -1    0    0    0    0 -0.00000000000E+00 -0.00000000000E+00 -0.45593999997E+02  0.45594000000E+02  0.51100000000E-03 0. -1.
    9900012    2    1    2    0    0  0.20206628558E+02  0.70600382911E+01  0.37755413996E+02  0.47787271155E+02  0.20000000502E+02 0.  0.
         12    1    1    2    0    0 -0.20206628558E+02 -0.70600382911E+01 -0.37755413996E+02  0.43400728845E+02  0.00000000000E+00 0. -1.
         11    1    3    3    0    0  0.60426181276E+01  0.64151532899E+01  0.27638284948E+02  0.29009347127E+02  0.51100000000E-03 0. -1.
        -11    1    3    3    0    0  0.13473491637E+02  0.25613493099E+01  0.93615394491E+01  0.16605237375E+02  0.51100000000E-03 0.  1.
         12    1    3    3    0    0  0.69051879337E+00 -0.19164643087E+01  0.75558959822E+00  0.21726866529E+01  0.00000000000E+00 0. -1.
</event>
<event>
 7    1  0.2455451E-009  0.4778727E+02  0.7816164E-02  0.1312668E+00
        -11   -1    0    0    0    0  0.00000000000E+00  0.00000000000E+00  0.45593999997E+02  0.45594000000E+02  0.51100000000E-03 0.  1.
         11   -1    0    0    0    0 -0.00000000000E+00 -0.00000000000E+00 -0.45593999997E+02  0.45594000000E+02  0.51100000000E-03 0. -1.
    9900012    2    1    2    0    0  0.25263778612E+01  0.38418866485E+02  0.20030763117E+02  0.47787270074E+02  0.19999995573E+02 0.  0.
         12    1    1    2    0    0 -0.25263778612E+01 -0.38418866485E+02 -0.20030763117E+02  0.43400729926E+02  0.00000000000E+00 0. -1.
         11    1    3    3    0    0  0.58505175548E+01  0.24586031758E+02  0.15016866195E+02  0.29397411176E+02  0.51100000000E-03 0.  1.
        -11    1    3    3    0    0 -0.70904704685E+01  0.99431003005E+01  0.27311637074E+01  0.12513963022E+02  0.51100000000E-03 0. -1.
         12    1    3    3    0    0  0.37663307750E+01  0.38897344265E+01  0.22827332147E+01  0.58758958759E+01  0.00000000000E+00 0. -1.
</event>
<event>
 7    1  0.2455451E-009  0.4778727E+02  0.7816164E-02  0.1312668E+00
        -11   -1    0    0    0    0  0.00000000000E+00  0.00000000000E+00  0.45593999997E+02  0.45594000000E+02  0.51100000000E-03 0. -1.
         11   -1    0    0    0    0 -0.00000000000E+00 -0.00000000000E+00 -0.45593999997E+02  0.45594000000E+02  0.51100000000E-03 0.  1.
    9900012    2    1    2    0    0 -0.26693622301E+02 -0.19176678813E+02 -0.28343053835E+02  0.47787272097E+02  0.20000004798E+02 0.  0.
         12    1    1    2    0    0  0.26693622301E+02  0.19176678813E+02  0.28343053835E+02  0.43400727903E+02  0.00000000000E+00 0. -1.
         11    1    3    3    0    0 -0.97143024825E+01 -0.11142590534E+02 -0.17293995760E+02  0.22750984289E+02  0.51100000000E-03 0. -1.
        -11    1    3    3    0    0 -0.81022623509E+01 -0.19601743568E+01 -0.11578509242E+02  0.14267123580E+02  0.51100000000E-03 0.  1.
         12    1    3    3    0    0 -0.88770574676E+01 -0.60739139226E+01  0.52945116752E+00  0.10769164228E+02  0.00000000000E+00 0. -1.
</event>
<event>
 7    1  0.2455451E-009  0.4778727E+02  0.7816164E-02  0.1312668E+00
        -11   -1    0    0    0    0  0.00000000000E+00  0.00000000000E+00  0.45593999997E+02  0.45594000000E+02  0.51100000000E-03 0. -1.
         11   -1    0    0    0    0 -0.00000000000E+00 -0.00000000000E+00 -0.45593999997E+02  0.45594000000E+02  0.51100000000E-03 0.  1.
    9900012    2    1    2    0    0  0.17633515466E+02 -0.26407537205E+02  0.29585878548E+02  0.47787273066E+02  0.20000009217E+02 0.  0.
         12    1    1    2    0    0 -0.17633515466E+02  0.26407537205E+02 -0.29585878548E+02  0.43400726934E+02  0.00000000000E+00 0. -1.
         11    1    3    3    0    0  0.18186353813E+02 -0.21222604121E+02  0.22165804928E+02  0.35671631573E+02  0.51100000000E-03 0. -1.
        -11    1    3    3    0    0 -0.20298651700E+01 -0.69427985499E+01  0.50930158882E+01  0.88465595240E+01  0.51100000000E-03 0.  1.
         12    1    3    3    0    0  0.14770268229E+01  0.17578654660E+01  0.23270577326E+01  0.32690819694E+01  0.00000000000E+00 0. -1.
</event>
<event>
 7    1  0.2455451E-009  0.4778726E+02  0.7816164E-02  0.1312668E+00
        -11   -1    0    0    0    0  0.00000000000E+00  0.00000000000E+00  0.45593999997E+02  0.45594000000E+02  0.51100000000E-03 0. -1.
         11   -1    0    0    0    0 -0.00000000000E+00 -0.00000000000E+00 -0.45593999997E+02  0.45594000000E+02  0.51100000000E-03 0.  1.
    9900012    2    1    2    0    0 -0.80362341303E+00 -0.42056975752E+02  0.10685926387E+02  0.47787262187E+02  0.19999959616E+02 0.  0.
         12    1    1    2    0    0  0.80362341303E+00  0.42056975752E+02 -0.10685926387E+02  0.43400737813E+02  0.00000000000E+00 0. -1.
         11    1    3    3    0    0 -0.33620482081E+01  0.18668451851E+00  0.69099955595E-02  0.33672343655E+01  0.51100000000E-03 0. -1.
        -11    1    3    3    0    0 -0.26859923308E+00 -0.23814090000E+02  0.98031934327E+01  0.25754332253E+02  0.51100000000E-03 0.  1.
        -12    1    3    3    0    0  0.28270240282E+01 -0.18429570270E+02  0.87582295864E+00  0.18665695568E+02  0.00000000000E+00 0.  1.
</event>
<event>
 7    1  0.2455451E-009  0.4778727E+02  0.7816164E-02  0.1312668E+00
        -11   -1    0    0    0    0  0.00000000000E+00  0.00000000000E+00  0.45593999997E+02  0.45594000000E+02  0.51100000000E-03 0.  1.
         11   -1    0    0    0    0 -0.00000000000E+00 -0.00000000000E+00 -0.45593999997E+02  0.45594000000E+02  0.51100000000E-03 0. -1.
    9900012    2    1    2    0    0  0.25375097566E+02  0.35205632331E+02  0.53963578308E+00  0.47787270386E+02  0.19999996996E+02 0.  0.
         12    1    1    2    0    0 -0.25375097566E+02 -0.35205632331E+02 -0.53963578308E+00  0.43400729614E+02  0.00000000000E+00 0. -1.
         11    1    3    3    0    0  0.19907340710E+01  0.72819064615E+01 -0.40511734570E+01  0.85674494744E+01  0.51100000000E-03 0. -1.
        -11    1    3    3    0    0  0.22707635565E+02  0.18190388529E+02  0.22239524364E+01  0.29180008782E+02  0.51100000000E-03 0.  1.
        -12    1    3    3    0    0  0.67672792958E+00  0.97333373403E+01  0.23668568037E+01  0.10039812130E+02  0.00000000000E+00 0.  1.
</event>
<event>
 7    1  0.2455451E-009  0.4778727E+02  0.7816164E-02  0.1312668E+00
        -11   -1    0    0    0    0  0.00000000000E+00  0.00000000000E+00  0.45593999997E+02  0.45594000000E+02  0.51100000000E-03 0. -1.
         11   -1    0    0    0    0 -0.00000000000E+00 -0.00000000000E+00 -0.45593999997E+02  0.45594000000E+02  0.51100000000E-03 0.  1.
    9900012    2    1    2    0    0  0.19125206850E+02 -0.34911707447E+02 -0.17292262622E+02  0.47787271889E+02  0.20000003853E+02 0.  0.
         12    1    1    2    0    0 -0.19125206850E+02  0.34911707447E+02  0.17292262622E+02  0.43400728111E+02  0.00000000000E+00 0. -1.
         11    1    3    3    0    0  0.33849510216E+01 -0.23429822834E+01 -0.81809728338E+01  0.91583719168E+01  0.51100000000E-03 0. -1.
        -11    1    3    3    0    0  0.16835909763E+02 -0.28682716080E+02 -0.94554343105E+01  0.34576745040E+02  0.51100000000E-03 0.  1.
         12    1    3    3    0    0 -0.10956539355E+01 -0.38860090836E+01  0.34414452198E+00  0.40521549324E+01  0.00000000000E+00 0. -1.
</event>
<event>
 7    1  0.2455451E-009  0.4778721E+02  0.7816164E-02  0.1312668E+00
        -11   -1    0    0    0    0  0.00000000000E+00  0.00000000000E+00  0.45593999997E+02  0.45594000000E+02  0.51100000000E-03 0.  1.
         11   -1    0    0    0    0 -0.00000000000E+00 -0.00000000000E+00 -0.45593999997E+02  0.45594000000E+02  0.51100000000E-03 0. -1.
    9900012    2    1    2    0    0  0.39938455731E+02  0.89625136865E+01  0.14429899680E+02  0.47787206199E+02  0.19999704344E+02 0.  0.
         12    1    1    2    0    0 -0.39938455731E+02 -0.89625136865E+01 -0.14429899680E+02  0.43400793801E+02  0.00000000000E+00 0. -1.
         11    1    3    3    0    0 -0.10341890965E+01 -0.85929109145E+00  0.12562523456E+01  0.18401354526E+01  0.51100000000E-03 0. -1.
        -11    1    3    3    0    0  0.30997787371E+02  0.69961803187E+01  0.38609171804E+01  0.32011186212E+02  0.51100000000E-03 0.  1.
         12    1    3    3    0    0  0.99748574566E+01  0.28256244593E+01  0.93127301538E+01  0.13935884535E+02  0.00000000000E+00 0. -1.
</event>
<event>
 7    1  0.2455451E-009  0.4778726E+02  0.7816164E-02  0.1312668E+00
        -11   -1    0    0    0    0  0.00000000000E+00  0.00000000000E+00  0.45593999997E+02  0.45594000000E+02  0.51100000000E-03 0. -1.
         11   -1    0    0    0    0 -0.00000000000E+00 -0.00000000000E+00 -0.45593999997E+02  0.45594000000E+02  0.51100000000E-03 0.  1.
    9900012    2    1    2    0    0  0.15561771929E+02  0.44849021951E+01 -0.40265878595E+02  0.47787261846E+02  0.19999958060E+02 0.  0.
         12    1    1    2    0    0 -0.15561771929E+02 -0.44849021951E+01  0.40265878595E+02  0.43400738154E+02  0.00000000000E+00 0. -1.
         11    1    3    3    0    0 -0.40049063423E+01  0.16653619850E+01 -0.14857363372E+02  0.15477530552E+02  0.51100000000E-03 0. -1.
        -11    1    3    3    0    0  0.17561717346E+02  0.16646715310E+01 -0.22254246388E+02  0.28397826149E+02  0.51100000000E-03 0.  1.
         12    1    3    3    0    0  0.20049609247E+01  0.11548686791E+01 -0.31542688355E+01  0.39119051448E+01  0.00000000000E+00 0. -1.
</event>
<event>
 7    1  0.2455451E-009  0.4778728E+02  0.7816164E-02  0.1312668E+00
        -11   -1    0    0    0    0  0.00000000000E+00  0.00000000000E+00  0.45593999997E+02  0.45594000000E+02  0.51100000000E-03 0.  1.
         11   -1    0    0    0    0 -0.00000000000E+00 -0.00000000000E+00 -0.45593999997E+02  0.45594000000E+02  0.51100000000E-03 0. -1.
    9900012    2    1    2    0    0 -0.22345908190E+02  0.37090920773E+02 -0.29234545264E+01  0.47787278773E+02  0.20000035238E+02 0.  0.
         12    1    1    2    0    0  0.22345908190E+02 -0.37090920773E+02  0.29234545264E+01  0.43400721227E+02  0.00000000000E+00 0. -1.
         11    1    3    3    0    0 -0.16401949538E+02  0.16502155959E+02  0.20375209515E+01  0.23355868467E+02  0.51100000000E-03 0. -1.
        -11    1    3    3    0    0 -0.90556085727E+01  0.15012755845E+02 -0.38458139313E+01  0.17949294408E+02  0.51100000000E-03 0.  1.
         12    1    3    3    0    0  0.31116499202E+01  0.55760089692E+01 -0.11151615467E+01  0.64821158988E+01  0.00000000000E+00 0. -1.
</event>
<event>
 7    1  0.2455451E-009  0.4778727E+02  0.7816164E-02  0.1312668E+00
        -11   -1    0    0    0    0  0.00000000000E+00  0.00000000000E+00  0.45593999997E+02  0.45594000000E+02  0.51100000000E-03 0. -1.
         11   -1    0    0    0    0 -0.00000000000E+00 -0.00000000000E+00 -0.45593999997E+02  0.45594000000E+02  0.51100000000E-03 0.  1.
    9900012    2    1    2    0    0  0.31239037159E+02 -0.65182184411E+01 -0.29415280225E+02  0.47787270455E+02  0.19999997314E+02 0.  0.
         12    1    1    2    0    0 -0.31239037159E+02  0.65182184411E+01  0.29415280225E+02  0.43400729545E+02  0.00000000000E+00 0. -1.
         11    1    3    3    0    0  0.84001712566E+01  0.45447820787E+01 -0.18456001328E+01  0.97274951243E+01  0.51100000000E-03 0.  1.
        -11    1    3    3    0    0  0.11898674092E+02 -0.65362419182E+01 -0.19386760971E+02  0.23667433422E+02  0.51100000000E-03 0. -1.
        -12    1    3    3    0    0  0.10940191811E+02 -0.45267586015E+01 -0.81829191216E+01  0.14392341909E+02  0.00000000000E+00 0.  1.
</event>
<event>
 7    1  0.2455451E-009  0.4778728E+02  0.7816164E-02  0.1312668E+00
        -11   -1    0    0    0    0  0.00000000000E+00  0.00000000000E+00  0.45593999997E+02  0.45594000000E+02  0.51100000000E-03 0.  1.
         11   -1    0    0    0    0 -0.00000000000E+00 -0.00000000000E+00 -0.45593999997E+02  0.45594000000E+02  0.51100000000E-03 0. -1.
    9900012    2    1    2    0    0 -0.13654040646E+02  0.62686904072E+01  0.40717238373E+02  0.47787276433E+02  0.20000024568E+02 0.  0.
         12    1    1    2    0    0  0.13654040646E+02 -0.62686904072E+01 -0.40717238373E+02  0.43400723567E+02  0.00000000000E+00 0. -1.
         11    1    3    3    0    0 -0.73915836358E+01 -0.23932711420E+01  0.15952679104E+02  0.17744047629E+02  0.51100000000E-03 0.  1.
        -11    1    3    3    0    0 -0.48993319370E+01  0.10814154166E+02  0.24800180028E+02  0.27495423500E+02  0.51100000000E-03 0. -1.
        -12    1    3    3    0    0 -0.13631250734E+01 -0.21521926172E+01 -0.35620758875E-01  0.25478053037E+01  0.00000000000E+00 0.  1.
</event>
<event>
 7    1  0.2455451E-009  0.4778727E+02  0.7816164E-02  0.1312668E+00
        -11   -1    0    0    0    0  0.00000000000E+00  0.00000000000E+00  0.45593999997E+02  0.45594000000E+02  0.51100000000E-03 0.  1.
         11   -1    0    0    0    0 -0.00000000000E+00 -0.00000000000E+00 -0.45593999997E+02  0.45594000000E+02  0.51100000000E-03 0. -1.
    9900012    2    1    2    0    0 -0.27281639246E+02  0.24856774498E+02 -0.22835859763E+02  0.47787267638E+02  0.19999984469E+02 0.  0.
         12    1    1    2    0    0  0.27281639246E+02 -0.24856774498E+02  0.22835859763E+02  0.43400732362E+02  0.00000000000E+00 0. -1.
         11    1    3    3    0    0 -0.45849669428E+01 -0.14420932762E+01 -0.49036718142E+01  0.68664075328E+01  0.51100000000E-03 0. -1.
        -11    1    3    3    0    0  0.81324817972E+00  0.31766670841E+01  0.20765966008E+00  0.32856824497E+01  0.51100000000E-03 0.  1.
         12    1    3    3    0    0 -0.23509920483E+02  0.23122200690E+02 -0.18139847609E+02  0.37635177656E+02  0.00000000000E+00 0. -1.
</event>
<event>
 7    1  0.2455451E-009  0.4778727E+02  0.7816164E-02  0.1312668E+00
        -11   -1    0    0    0    0  0.00000000000E+00  0.00000000000E+00  0.45593999997E+02  0.45594000000E+02  0.51100000000E-03 0.  1.
         11   -1    0    0    0    0 -0.00000000000E+00 -0.00000000000E+00 -0.45593999997E+02  0.45594000000E+02  0.51100000000E-03 0. -1.
    9900012    2    1    2    0    0  0.41705457426E+01 -0.13294250917E+01  0.43179421894E+02  0.47787270767E+02  0.19999998734E+02 0.  0.
         12    1    1    2    0    0 -0.41705457426E+01  0.13294250917E+01 -0.43179421894E+02  0.43400729233E+02  0.00000000000E+00 0. -1.
         11    1    3    3    0    0 -0.78639063068E+00  0.71118967891E+01  0.19217658767E+02  0.20506484216E+02  0.51100000000E-03 0. -1.
        -11    1    3    3    0    0  0.15487626404E+01 -0.17711362776E+01  0.16642649630E+02  0.16808134233E+02  0.51100000000E-03 0.  1.
         12    1    3    3    0    0  0.34081737328E+01 -0.66701856032E+01  0.73191134970E+01  0.10472652317E+02  0.00000000000E+00 0. -1.
</event>
<event>
 7    1  0.2455451E-009  0.4778727E+02  0.7816164E-02  0.1312668E+00
        -11   -1    0    0    0    0  0.00000000000E+00  0.00000000000E+00  0.45593999997E+02  0.45594000000E+02  0.51100000000E-03 0.  1.
         11   -1    0    0    0    0 -0.00000000000E+00 -0.00000000000E+00 -0.45593999997E+02  0.45594000000E+02  0.51100000000E-03 0. -1.
    9900012    2    1    2    0    0 -0.11793960686E+02 -0.37546917521E+02  0.18296301406E+02  0.47787272252E+02  0.20000005504E+02 0.  0.
         12    1    1    2    0    0  0.11793960686E+02  0.37546917521E+02 -0.18296301406E+02  0.43400727748E+02  0.00000000000E+00 0. -1.
         11    1    3    3    0    0 -0.30938842698E+01 -0.84286615377E+01  0.12935861793E+02  0.15746459151E+02  0.51100000000E-03 0. -1.
        -11    1    3    3    0    0  0.49963254533E-01 -0.14704664451E+02  0.31050580981E+01  0.15029006587E+02  0.51100000000E-03 0.  1.
         12    1    3    3    0    0 -0.87500396704E+01 -0.14413591532E+02  0.22553815148E+01  0.17011806514E+02  0.00000000000E+00 0. -1.
</event>
<event>
 7    1  0.2455451E-009  0.4778727E+02  0.7816164E-02  0.1312668E+00
        -11   -1    0    0    0    0  0.00000000000E+00  0.00000000000E+00  0.45593999997E+02  0.45594000000E+02  0.51100000000E-03 0.  1.
         11   -1    0    0    0    0 -0.00000000000E+00 -0.00000000000E+00 -0.45593999997E+02  0.45594000000E+02  0.51100000000E-03 0. -1.
    9900012    2    1    2    0    0 -0.10918148001E+02 -0.37962603131E+02  0.17979387721E+02  0.47787267574E+02  0.19999984177E+02 0.  0.
         12    1    1    2    0    0  0.10918148001E+02  0.37962603131E+02 -0.17979387721E+02  0.43400732426E+02  0.00000000000E+00 0. -1.
         11    1    3    3    0    0  0.12751250081E+01 -0.35511808715E+01  0.59106757185E+01  0.70123403425E+01  0.51100000000E-03 0. -1.
        -11    1    3    3    0    0 -0.95516683791E+01 -0.27049180016E+02  0.30668642759E+01  0.28849578248E+02  0.51100000000E-03 0.  1.
        -12    1    3    3    0    0 -0.26416046305E+01 -0.73622422439E+01  0.90018477264E+01  0.11925348983E+02  0.00000000000E+00 0.  1.
</event>
<event>
 7    1  0.2455451E-009  0.4778727E+02  0.7816164E-02  0.1312668E+00
        -11   -1    0    0    0    0  0.00000000000E+00  0.00000000000E+00  0.45593999997E+02  0.45594000000E+02  0.51100000000E-03 0.  1.
         11   -1    0    0    0    0 -0.00000000000E+00 -0.00000000000E+00 -0.45593999997E+02  0.45594000000E+02  0.51100000000E-03 0. -1.
    9900012    2    1    2    0    0  0.36705113956E+02 -0.22943089332E+02 -0.31579512530E+01  0.47787269652E+02  0.19999993651E+02 0.  0.
         12    1    1    2    0    0 -0.36705113956E+02  0.22943089332E+02  0.31579512530E+01  0.43400730348E+02  0.00000000000E+00 0. -1.
         11    1    3    3    0    0  0.66666360481E+01 -0.74294534334E+01 -0.30791732069E+01  0.10446153475E+02  0.51100000000E-03 0. -1.
        -11    1    3    3    0    0  0.58699034960E+01 -0.96359650084E+01 -0.43716350975E+01  0.12100362903E+02  0.51100000000E-03 0.  1.
        -12    1    3    3    0    0  0.24168574412E+02 -0.58776708906E+01  0.42928570514E+01  0.25240753274E+02  0.00000000000E+00 0.  1.
</event>
<event>
 7    1  0.2455451E-009  0.4778727E+02  0.7816164E-02  0.1312668E+00
        -11   -1    0    0    0    0  0.00000000000E+00  0.00000000000E+00  0.45593999997E+02  0.45594000000E+02  0.51100000000E-03 0. -1.
         11   -1    0    0    0    0 -0.00000000000E+00 -0.00000000000E+00 -0.45593999997E+02  0.45594000000E+02  0.51100000000E-03 0.  1.
    9900012    2    1    2    0    0  0.40527826883E+02 -0.15151334681E+02  0.33993617905E+01  0.47787270109E+02  0.19999995737E+02 0.  0.
         12    1    1    2    0    0 -0.40527826883E+02  0.15151334681E+02 -0.33993617905E+01  0.43400729891E+02  0.00000000000E+00 0. -1.
         11    1    3    3    0    0  0.10423729681E+02  0.61408551369E+00  0.51530545376E+01  0.11644106355E+02  0.51100000000E-03 0.  1.
        -11    1    3    3    0    0  0.50484334777E+01 -0.71193788488E+01 -0.38826156890E+01  0.95523264507E+01  0.51100000000E-03 0. -1.
        -12    1    3    3    0    0  0.25055663724E+02 -0.86460413457E+01  0.21289229419E+01  0.26590837303E+02  0.00000000000E+00 0.  1.
</event>
<event>
 7    1  0.2455451E-009  0.4778727E+02  0.7816164E-02  0.1312668E+00
        -11   -1    0    0    0    0  0.00000000000E+00  0.00000000000E+00  0.45593999997E+02  0.45594000000E+02  0.51100000000E-03 0.  1.
         11   -1    0    0    0    0 -0.00000000000E+00 -0.00000000000E+00 -0.45593999997E+02  0.45594000000E+02  0.51100000000E-03 0. -1.
    9900012    2    1    2    0    0 -0.11065642970E+02 -0.10211534183E+02  0.40705029747E+02  0.47787270382E+02  0.19999996979E+02 0.  0.
         12    1    1    2    0    0  0.11065642970E+02  0.10211534183E+02 -0.40705029747E+02  0.43400729618E+02  0.00000000000E+00 0. -1.
         11    1    3    3    0    0  0.10614275153E+01 -0.90243166104E+01  0.91396753394E+01  0.12887923969E+02  0.51100000000E-03 0. -1.
        -11    1    3    3    0    0 -0.83018944757E+01  0.29769867931E+01  0.23029484364E+02  0.24660516065E+02  0.51100000000E-03 0.  1.
        -12    1    3    3    0    0 -0.38251760097E+01 -0.41642043658E+01  0.85358700429E+01  0.10238830348E+02  0.00000000000E+00 0.  1.
</event>
<event>
 7    1  0.2455451E-009  0.4778728E+02  0.7816164E-02  0.1312668E+00
        -11   -1    0    0    0    0  0.00000000000E+00  0.00000000000E+00  0.45593999997E+02  0.45594000000E+02  0.51100000000E-03 0.  1.
         11   -1    0    0    0    0 -0.00000000000E+00 -0.00000000000E+00 -0.45593999997E+02  0.45594000000E+02  0.51100000000E-03 0. -1.
    9900012    2    1    2    0    0 -0.51001075938E+01  0.26649110997E+02  0.33873826538E+02  0.47787281818E+02  0.20000049121E+02 0.  0.
         12    1    1    2    0    0  0.51001075938E+01 -0.26649110997E+02 -0.33873826538E+02  0.43400718182E+02  0.00000000000E+00 0. -1.
         11    1    3    3    0    0 -0.45667103288E+00 -0.10250871016E-01  0.27501741228E+00  0.53318697547E+00  0.51100000000E-03 0. -1.
        -11    1    3    3    0    0 -0.20161294581E+00  0.20893367292E+02  0.11209280091E+02  0.23711208425E+02  0.51100000000E-03 0.  1.
        -12    1    3    3    0    0 -0.44418236151E+01  0.57659945768E+01  0.22389529034E+02  0.23542886417E+02  0.00000000000E+00 0.  1.
</event>
<event>
 7    1  0.2455451E-009  0.4778727E+02  0.7816164E-02  0.1312668E+00
        -11   -1    0    0    0    0  0.00000000000E+00  0.00000000000E+00  0.45593999997E+02  0.45594000000E+02  0.51100000000E-03 0.  1.
         11   -1    0    0    0    0 -0.00000000000E+00 -0.00000000000E+00 -0.45593999997E+02  0.45594000000E+02  0.51100000000E-03 0. -1.
    9900012    2    1    2    0    0 -0.15071821152E+02  0.35073336028E+02  0.20647630712E+02  0.47787270202E+02  0.19999996161E+02 0.  0.
         12    1    1    2    0    0  0.15071821152E+02 -0.35073336028E+02 -0.20647630712E+02  0.43400729798E+02  0.00000000000E+00 0. -1.
         11    1    3    3    0    0 -0.89438911355E+01  0.29655620474E+01  0.22221711768E+01  0.96812081840E+01  0.51100000000E-03 0. -1.
        -11    1    3    3    0    0 -0.39642538046E+01  0.14598812885E+02  0.12074950996E+02  0.19355750765E+02  0.51100000000E-03 0.  1.
         12    1    3    3    0    0 -0.21636762118E+01  0.17508961096E+02  0.63505085394E+01  0.18750311254E+02  0.00000000000E+00 0. -1.
</event>
<event>
 7    1  0.2455451E-009  0.4778724E+02  0.7816164E-02  0.1312668E+00
        -11   -1    0    0    0    0  0.00000000000E+00  0.00000000000E+00  0.45593999997E+02  0.45594000000E+02  0.51100000000E-03 0. -1.
         11   -1    0    0    0    0 -0.00000000000E+00 -0.00000000000E+00 -0.45593999997E+02  0.45594000000E+02  0.51100000000E-03 0.  1.
    9900012    2    1    2    0    0  0.45557020635E+01  0.42699199333E+02 -0.62967858978E+01  0.47787244734E+02  0.19999880041E+02 0.  0.
         12    1    1    2    0    0 -0.45557020635E+01 -0.42699199333E+02  0.62967858978E+01  0.43400755266E+02  0.00000000000E+00 0. -1.
         11    1    3    3    0    0 -0.12205040312E+01 -0.13633090189E+01  0.65894064312E+00  0.19448507921E+01  0.51100000000E-03 0. -1.
        -11    1    3    3    0    0  0.61431513527E+01  0.42831055913E+02 -0.50768972275E+01  0.43566185796E+02  0.51100000000E-03 0.  1.
        -12    1    3    3    0    0 -0.36694525803E+00  0.12314524396E+01 -0.18788293134E+01  0.22762081456E+01  0.00000000000E+00 0.  1.
</event>
<event>
 7    1  0.2455451E-009  0.4778728E+02  0.7816164E-02  0.1312668E+00
        -11   -1    0    0    0    0  0.00000000000E+00  0.00000000000E+00  0.45593999997E+02  0.45594000000E+02  0.51100000000E-03 0.  1.
         11   -1    0    0    0    0 -0.00000000000E+00 -0.00000000000E+00 -0.45593999997E+02  0.45594000000E+02  0.51100000000E-03 0. -1.
    9900012    2    1    2    0    0 -0.29004638046E+02 -0.32266620821E+02 -0.11039061734E+01  0.47787280464E+02  0.20000042949E+02 0.  0.
         12    1    1    2    0    0  0.29004638046E+02  0.32266620821E+02  0.11039061734E+01  0.43400719536E+02  0.00000000000E+00 0. -1.
         11    1    3    3    0    0 -0.46954691743E+01 -0.63673900145E+01 -0.35170842031E+01  0.86580002262E+01  0.51100000000E-03 0. -1.
        -11    1    3    3    0    0 -0.12408851459E+02 -0.20765312545E+02 -0.42425701302E+01  0.24559666146E+02  0.51100000000E-03 0.  1.
        -12    1    3    3    0    0 -0.11900317412E+02 -0.51339182614E+01  0.66557481599E+01  0.14569614092E+02  0.00000000000E+00 0.  1.
</event>
<event>
 7    1  0.2455451E-009  0.4778724E+02  0.7816164E-02  0.1312668E+00
        -11   -1    0    0    0    0  0.00000000000E+00  0.00000000000E+00  0.45593999997E+02  0.45594000000E+02  0.51100000000E-03 0. -1.
         11   -1    0    0    0    0 -0.00000000000E+00 -0.00000000000E+00 -0.45593999997E+02  0.45594000000E+02  0.51100000000E-03 0.  1.
    9900012    2    1    2    0    0 -0.22679997643E+02  0.26552322637E+02 -0.25772419105E+02  0.47787242898E+02  0.19999871669E+02 0.  0.
         12    1    1    2    0    0  0.22679997643E+02 -0.26552322637E+02  0.25772419105E+02  0.43400757102E+02  0.00000000000E+00 0. -1.
         11    1    3    3    0    0  0.19159875374E+01  0.34915488671E+00 -0.29244096079E+01  0.35135579111E+01  0.51100000000E-03 0. -1.
        -11    1    3    3    0    0 -0.24068174943E+02  0.23386876096E+02 -0.23923088234E+02  0.41213313014E+02  0.51100000000E-03 0.  1.
        -12    1    3    3    0    0 -0.52781023667E+00  0.28162916538E+01  0.10750787367E+01  0.30603719733E+01  0.00000000000E+00 0.  1.
</event>
<event>
 7    1  0.2455451E-009  0.4778727E+02  0.7816164E-02  0.1312668E+00
        -11   -1    0    0    0    0  0.00000000000E+00  0.00000000000E+00  0.45593999997E+02  0.45594000000E+02  0.51100000000E-03 0.  1.
         11   -1    0    0    0    0 -0.00000000000E+00 -0.00000000000E+00 -0.45593999997E+02  0.45594000000E+02  0.51100000000E-03 0. -1.
    9900012    2    1    2    0    0  0.17306416041E+02  0.36747766036E+02  0.15287662565E+02  0.47787274528E+02  0.20000015881E+02 0.  0.
         12    1    1    2    0    0 -0.17306416041E+02 -0.36747766036E+02 -0.15287662565E+02  0.43400725472E+02  0.00000000000E+00 0. -1.
         11    1    3    3    0    0  0.17594798200E+02  0.34348921839E+02  0.13200077289E+02  0.40788079090E+02  0.51100000000E-03 0.  1.
        -11    1    3    3    0    0 -0.16881483852E+01  0.33700124201E+01  0.32168042341E+01  0.49552657268E+01  0.51100000000E-03 0. -1.
         12    1    3    3    0    0  0.13997662265E+01 -0.97116822269E+00 -0.11292189584E+01  0.20439297105E+01  0.00000000000E+00 0. -1.
</event>
<event>
 7    1  0.2455451E-009  0.4778725E+02  0.7816164E-02  0.1312668E+00
        -11   -1    0    0    0    0  0.00000000000E+00  0.00000000000E+00  0.45593999997E+02  0.45594000000E+02  0.51100000000E-03 0. -1.
         11   -1    0    0    0    0 -0.00000000000E+00 -0.00000000000E+00 -0.45593999997E+02  0.45594000000E+02  0.51100000000E-03 0.  1.
    9900012    2    1    2    0    0 -0.11345171095E+02  0.37839737718E+02 -0.17974051545E+02  0.47787249008E+02  0.19999899526E+02 0.  0.
         12    1    1    2    0    0  0.11345171095E+02 -0.37839737718E+02  0.17974051545E+02  0.43400750992E+02  0.00000000000E+00 0. -1.
         11    1    3    3    0    0 -0.83749760166E+01  0.17669163788E+02 -0.18538307802E+02  0.26944543579E+02  0.51100000000E-03 0. -1.
        -11    1    3    3    0    0 -0.35966046705E+01  0.18607207287E+02 -0.29089219522E+00  0.18953847808E+02  0.51100000000E-03 0.  1.
         12    1    3    3    0    0  0.62640959234E+00  0.15633666424E+01  0.85514845248E+00  0.18888576208E+01  0.00000000000E+00 0. -1.
</event>
<event>
 7    1  0.2455451E-009  0.4778727E+02  0.7816164E-02  0.1312668E+00
        -11   -1    0    0    0    0  0.00000000000E+00  0.00000000000E+00  0.45593999997E+02  0.45594000000E+02  0.51100000000E-03 0.  1.
         11   -1    0    0    0    0 -0.00000000000E+00 -0.00000000000E+00 -0.45593999997E+02  0.45594000000E+02  0.51100000000E-03 0. -1.
    9900012    2    1    2    0    0 -0.15526555694E+02 -0.29013891684E+02  0.28297413043E+02  0.47787269277E+02  0.19999991939E+02 0.  0.
         12    1    1    2    0    0  0.15526555694E+02  0.29013891684E+02 -0.28297413043E+02  0.43400730723E+02  0.00000000000E+00 0. -1.
         11    1    3    3    0    0  0.18821934606E+01 -0.90682457537E+00  0.10536864800E+01  0.23399227536E+01  0.51100000000E-03 0. -1.
        -11    1    3    3    0    0 -0.14869050841E+02 -0.10456513385E+02  0.16966752845E+02  0.24865599680E+02  0.51100000000E-03 0.  1.
        -12    1    3    3    0    0 -0.25396983132E+01 -0.17650553724E+02  0.10276973718E+02  0.20581746843E+02  0.00000000000E+00 0.  1.
</event>
<event>
 7    1  0.2455451E-009  0.4778727E+02  0.7816164E-02  0.1312668E+00
        -11   -1    0    0    0    0  0.00000000000E+00  0.00000000000E+00  0.45593999997E+02  0.45594000000E+02  0.51100000000E-03 0. -1.
         11   -1    0    0    0    0 -0.00000000000E+00 -0.00000000000E+00 -0.45593999997E+02  0.45594000000E+02  0.51100000000E-03 0.  1.
    9900012    2    1    2    0    0 -0.22536821529E+02 -0.17865211572E+02 -0.32504610112E+02  0.47787265125E+02  0.19999973012E+02 0.  0.
         12    1    1    2    0    0  0.22536821529E+02  0.17865211572E+02  0.32504610112E+02  0.43400734875E+02  0.00000000000E+00 0. -1.
         11    1    3    3    0    0  0.10891414203E+01 -0.55859341965E+01 -0.27692573376E+01  0.63291133932E+01  0.51100000000E-03 0.  1.
        -11    1    3    3    0    0 -0.21799337322E+02 -0.70877511400E+01 -0.20739555287E+02  0.30912400063E+02  0.51100000000E-03 0. -1.
         12    1    3    3    0    0 -0.18266256276E+01 -0.51915262356E+01 -0.89957974870E+01  0.10545751669E+02  0.00000000000E+00 0. -1.
</event>
<event>
 7    1  0.2455451E-009  0.4778727E+02  0.7816164E-02  0.1312668E+00
        -11   -1    0    0    0    0  0.00000000000E+00  0.00000000000E+00  0.45593999997E+02  0.45594000000E+02  0.51100000000E-03 0. -1.
         11   -1    0    0    0    0 -0.00000000000E+00 -0.00000000000E+00 -0.45593999997E+02  0.45594000000E+02  0.51100000000E-03 0.  1.
    9900012    2    1    2    0    0 -0.30755986687E+02  0.30413872755E+02 -0.35621142714E+01  0.47787273841E+02  0.20000012752E+02 0.  0.
         12    1    1    2    0    0  0.30755986687E+02 -0.30413872755E+02  0.35621142714E+01  0.43400726159E+02  0.00000000000E+00 0. -1.
         11    1    3    3    0    0 -0.83543796806E+01  0.56185780807E+01  0.48035134164E+01  0.11155170142E+02  0.51100000000E-03 0. -1.
        -11    1    3    3    0    0 -0.24574128908E+01  0.87986199901E+01 -0.60576422748E+01  0.10961278303E+02  0.51100000000E-03 0.  1.
        -12    1    3    3    0    0 -0.19944194115E+02  0.15996674684E+02 -0.23079854130E+01  0.25670825396E+02  0.00000000000E+00 0.  1.
</event>
<event>
 7    1  0.2455451E-009  0.4778730E+02  0.7816164E-02  0.1312668E+00
        -11   -1    0    0    0    0  0.00000000000E+00  0.00000000000E+00  0.45593999997E+02  0.45594000000E+02  0.51100000000E-03 0.  1.
         11   -1    0    0    0    0 -0.00000000000E+00 -0.00000000000E+00 -0.45593999997E+02  0.45594000000E+02  0.51100000000E-03 0. -1.
    9900012    2    1    2    0    0  0.27758363242E+02  0.30350243551E+02  0.13854856858E+02  0.47787296411E+02  0.20000115655E+02 0.  0.
         12    1    1    2    0    0 -0.27758363242E+02 -0.30350243551E+02 -0.13854856858E+02  0.43400703589E+02  0.00000000000E+00 0. -1.
         11    1    3    3    0    0 -0.21567144793E+01 -0.72497698890E+00  0.16403494626E+01  0.28049519783E+01  0.51100000000E-03 0. -1.
        -11    1    3    3    0    0  0.13636782055E+02  0.13033267349E+02  0.36231618998E+01  0.19208206190E+02  0.51100000000E-03 0.  1.
         12    1    3    3    0    0  0.16278295666E+02  0.18041953191E+02  0.85913454951E+01  0.25774138243E+02  0.00000000000E+00 0. -1.
</event>
<event>
 7    1  0.2455451E-009  0.4778727E+02  0.7816164E-02  0.1312668E+00
        -11   -1    0    0    0    0  0.00000000000E+00  0.00000000000E+00  0.45593999997E+02  0.45594000000E+02  0.51100000000E-03 0.  1.
         11   -1    0    0    0    0 -0.00000000000E+00 -0.00000000000E+00 -0.45593999997E+02  0.45594000000E+02  0.51100000000E-03 0. -1.
    9900012    2    1    2    0    0  0.23067141961E+02  0.36684378422E+02  0.24055558093E+01  0.47787270084E+02  0.19999995621E+02 0.  0.
         12    1    1    2    0    0 -0.23067141961E+02 -0.36684378422E+02 -0.24055558093E+01  0.43400729916E+02  0.00000000000E+00 0. -1.
         11    1    3    3    0    0 -0.28691726118E+01  0.19253362071E+01  0.87837879152E+00  0.35651957239E+01  0.51100000000E-03 0. -1.
        -11    1    3    3    0    0  0.16918240164E+02  0.24120856696E+02 -0.28626169162E+01  0.29601303246E+02  0.51100000000E-03 0.  1.
         12    1    3    3    0    0  0.90180744094E+01  0.10638185519E+02  0.43897939340E+01  0.14620771114E+02  0.00000000000E+00 0. -1.
</event>
<event>
 7    1  0.2536206E-009  0.4778727E+02  0.7816164E-02  0.1312668E+00
        -11   -1    0    0    0    0  0.00000000000E+00  0.00000000000E+00  0.45593999997E+02  0.45594000000E+02  0.51100000000E-03 0. -1.
         11   -1    0    0    0    0 -0.00000000000E+00 -0.00000000000E+00 -0.45593999997E+02  0.45594000000E+02  0.51100000000E-03 0.  1.
    9900012    2    1    2    0    0 -0.26470763645E+01 -0.11340875035E+02 -0.41809103591E+02  0.47787267254E+02  0.19999982717E+02 0.  0.
         12    1    1    2    0    0  0.26470763645E+01  0.11340875035E+02  0.41809103591E+02  0.43400732746E+02  0.00000000000E+00 0. -1.
         11    1    3    3    0    0  0.25996413953E+01  0.35638153052E+01 -0.34814674576E+01  0.56195667834E+01  0.51100000000E-03 0. -1.
        -11    1    3    3    0    0 -0.43703657519E+01 -0.57279792630E+01 -0.24589705671E+02  0.25623494463E+02  0.51100000000E-03 0.  1.
         12    1    3    3    0    0 -0.87635200781E+00 -0.91767110768E+01 -0.13737930462E+02  0.16544206008E+02  0.00000000000E+00 0. -1.
</event>
<event>
 7    1  0.2455451E-009  0.4778727E+02  0.7816164E-02  0.1312668E+00
        -11   -1    0    0    0    0  0.00000000000E+00  0.00000000000E+00  0.45593999997E+02  0.45594000000E+02  0.51100000000E-03 0.  1.
         11   -1    0    0    0    0 -0.00000000000E+00 -0.00000000000E+00 -0.45593999997E+02  0.45594000000E+02  0.51100000000E-03 0. -1.
    9900012    2    1    2    0    0 -0.15074201388E+02  0.13199222154E+02  0.38498993666E+02  0.47787268136E+02  0.19999986740E+02 0.  0.
         12    1    1    2    0    0  0.15074201388E+02 -0.13199222154E+02 -0.38498993666E+02  0.43400731864E+02  0.00000000000E+00 0. -1.
         11    1    3    3    0    0  0.57208008220E+00 -0.32786430076E+01  0.93553932936E+01  0.99297613028E+01  0.51100000000E-03 0. -1.
        -11    1    3    3    0    0 -0.13829774755E+02  0.10069161708E+02  0.17696366627E+02  0.24613250077E+02  0.51100000000E-03 0.  1.
         12    1    3    3    0    0 -0.18165067156E+01  0.64087034543E+01  0.11447233746E+02  0.13244256757E+02  0.00000000000E+00 0. -1.
</event>
<event>
 7    1  0.2455451E-009  0.4778727E+02  0.7816164E-02  0.1312668E+00
        -11   -1    0    0    0    0  0.00000000000E+00  0.00000000000E+00  0.45593999997E+02  0.45594000000E+02  0.51100000000E-03 0.  1.
         11   -1    0    0    0    0 -0.00000000000E+00 -0.00000000000E+00 -0.45593999997E+02  0.45594000000E+02  0.51100000000E-03 0. -1.
    9900012    2    1    2    0    0  0.21521753851E+02  0.79702780539E+01  0.36836287332E+02  0.47787270911E+02  0.19999999392E+02 0.  0.
         12    1    1    2    0    0 -0.21521753851E+02 -0.79702780539E+01 -0.36836287332E+02  0.43400729089E+02  0.00000000000E+00 0. -1.
         11    1    3    3    0    0  0.14002400127E+02  0.77310095505E+01  0.16769274529E+02  0.23174215984E+02  0.51100000000E-03 0. -1.
        -11    1    3    3    0    0  0.68833507021E+01 -0.47018420437E+01  0.79810464924E+01  0.11540577926E+02  0.51100000000E-03 0.  1.
         12    1    3    3    0    0  0.63600302144E+00  0.49411105470E+01  0.12085966311E+02  0.13072477001E+02  0.00000000000E+00 0. -1.
</event>
<event>
 7    1  0.2455451E-009  0.4778727E+02  0.7816164E-02  0.1312668E+00
        -11   -1    0    0    0    0  0.00000000000E+00  0.00000000000E+00  0.45593999997E+02  0.45594000000E+02  0.51100000000E-03 0. -1.
         11   -1    0    0    0    0 -0.00000000000E+00 -0.00000000000E+00 -0.45593999997E+02  0.45594000000E+02  0.51100000000E-03 0.  1.
    9900012    2    1    2    0    0  0.10096875271E+02  0.80044920021E+01 -0.41443989755E+02  0.47787273402E+02  0.20000010749E+02 0.  0.
         12    1    1    2    0    0 -0.10096875271E+02 -0.80044920021E+01  0.41443989755E+02  0.43400726598E+02  0.00000000000E+00 0. -1.
         11    1    3    3    0    0  0.16096958114E+01 -0.25409413612E+01 -0.15256500988E+01  0.33727010083E+01  0.51100000000E-03 0. -1.
        -11    1    3    3    0    0 -0.22990412483E+01  0.70955157106E+01 -0.21877040398E+02  0.23113563782E+02  0.51100000000E-03 0.  1.
        -12    1    3    3    0    0  0.10786220708E+02  0.34499176527E+01 -0.18041299257E+02  0.21301008611E+02  0.00000000000E+00 0.  1.
</event>
<event>
 7    1  0.2455451E-009  0.4778727E+02  0.7816164E-02  0.1312668E+00
        -11   -1    0    0    0    0  0.00000000000E+00  0.00000000000E+00  0.45593999997E+02  0.45594000000E+02  0.51100000000E-03 0.  1.
         11   -1    0    0    0    0 -0.00000000000E+00 -0.00000000000E+00 -0.45593999997E+02  0.45594000000E+02  0.51100000000E-03 0. -1.
    9900012    2    1    2    0    0 -0.41102256395E+02 -0.81843843747E+01 -0.11280229870E+02  0.47787271731E+02  0.20000003132E+02 0.  0.
         12    1    1    2    0    0  0.41102256395E+02  0.81843843747E+01  0.11280229870E+02  0.43400728269E+02  0.00000000000E+00 0. -1.
         11    1    3    3    0    0 -0.28777492629E+01  0.40595712972E+01  0.67734885911E-01  0.49765598774E+01  0.51100000000E-03 0. -1.
        -11    1    3    3    0    0 -0.12315667132E+02  0.16603638797E+00 -0.13387312210E+01  0.12389327122E+02  0.51100000000E-03 0.  1.
         12    1    3    3    0    0 -0.25908840000E+02 -0.12409992060E+02 -0.10009233535E+02  0.30421384732E+02  0.00000000000E+00 0. -1.
</event>
<event>
 7    1  0.2455451E-009  0.4778727E+02  0.7816164E-02  0.1312668E+00
        -11   -1    0    0    0    0  0.00000000000E+00  0.00000000000E+00  0.45593999997E+02  0.45594000000E+02  0.51100000000E-03 0.  1.
         11   -1    0    0    0    0 -0.00000000000E+00 -0.00000000000E+00 -0.45593999997E+02  0.45594000000E+02  0.51100000000E-03 0. -1.
    9900012    2    1    2    0    0 -0.10432236604E+01  0.24194535979E+02  0.36016103869E+02  0.47787267002E+02  0.19999981568E+02 0.  0.
         12    1    1    2    0    0  0.10432236604E+01 -0.24194535979E+02 -0.36016103869E+02  0.43400732998E+02  0.00000000000E+00 0. -1.
         11    1    3    3    0    0  0.15367019556E+01  0.15196369145E+02  0.97507772132E+01  0.18120947674E+02  0.51100000000E-03 0. -1.
        -11    1    3    3    0    0  0.23101234631E+01  0.49481299208E+01  0.47631381922E+01  0.72462504667E+01  0.51100000000E-03 0.  1.
         12    1    3    3    0    0 -0.48900490791E+01  0.40500369136E+01  0.21502188464E+02  0.22420068861E+02  0.00000000000E+00 0. -1.
</event>
<event>
 7    1  0.2455451E-009  0.4778727E+02  0.7816164E-02  0.1312668E+00
        -11   -1    0    0    0    0  0.00000000000E+00  0.00000000000E+00  0.45593999997E+02  0.45594000000E+02  0.51100000000E-03 0.  1.
         11   -1    0    0    0    0 -0.00000000000E+00 -0.00000000000E+00 -0.45593999997E+02  0.45594000000E+02  0.51100000000E-03 0. -1.
    9900012    2    1    2    0    0  0.14798084859E+02  0.12313867075E+02  0.38897418430E+02  0.47787265002E+02  0.19999972449E+02 0.  0.
         12    1    1    2    0    0 -0.14798084859E+02 -0.12313867075E+02 -0.38897418430E+02  0.43400734998E+02  0.00000000000E+00 0. -1.
         11    1    3    3    0    0  0.27482714648E+01  0.11626432779E+02  0.11613028455E+02  0.16661013335E+02  0.51100000000E-03 0. -1.
        -11    1    3    3    0    0  0.12981973937E+02  0.19459836118E+01  0.25896790968E+02  0.29033812740E+02  0.51100000000E-03 0.  1.
         12    1    3    3    0    0 -0.93216054242E+00 -0.12585493154E+01  0.13875990070E+01  0.20924389263E+01  0.00000000000E+00 0. -1.
</event>
<event>
 7    1  0.2455451E-009  0.4778727E+02  0.7816164E-02  0.1312668E+00
        -11   -1    0    0    0    0  0.00000000000E+00  0.00000000000E+00  0.45593999997E+02  0.45594000000E+02  0.51100000000E-03 0. -1.
         11   -1    0    0    0    0 -0.00000000000E+00 -0.00000000000E+00 -0.45593999997E+02  0.45594000000E+02  0.51100000000E-03 0.  1.
    9900012    2    1    2    0    0 -0.18873117715E+02  0.31793518538E+01 -0.38952795194E+02  0.47787273003E+02  0.20000008928E+02 0.  0.
         12    1    1    2    0    0  0.18873117715E+02 -0.31793518538E+01  0.38952795194E+02  0.43400726997E+02  0.00000000000E+00 0. -1.
         11    1    3    3    0    0 -0.59394890902E+01  0.39625461134E+01 -0.31016409047E+02  0.31827612741E+02  0.51100000000E-03 0. -1.
        -11    1    3    3    0    0 -0.94574767183E+01 -0.19203739851E+01 -0.36321503535E+01  0.10311363565E+02  0.51100000000E-03 0.  1.
         12    1    3    3    0    0 -0.34761519065E+01  0.11371797256E+01 -0.43042357929E+01  0.56482966960E+01  0.00000000000E+00 0. -1.
</event>
<event>
 7    1  0.2455451E-009  0.4778727E+02  0.7816164E-02  0.1312668E+00
        -11   -1    0    0    0    0  0.00000000000E+00  0.00000000000E+00  0.45593999997E+02  0.45594000000E+02  0.51100000000E-03 0. -1.
         11   -1    0    0    0    0 -0.00000000000E+00 -0.00000000000E+00 -0.45593999997E+02  0.45594000000E+02  0.51100000000E-03 0.  1.
    9900012    2    1    2    0    0  0.35581342753E+01 -0.40361330062E+02  0.15553966830E+02  0.47787272263E+02  0.20000005558E+02 0.  0.
         12    1    1    2    0    0 -0.35581342753E+01  0.40361330062E+02 -0.15553966830E+02  0.43400727737E+02  0.00000000000E+00 0. -1.
         11    1    3    3    0    0  0.20052387454E+01 -0.69273417809E+01  0.12002970663E+02  0.14002869405E+02  0.51100000000E-03 0. -1.
        -11    1    3    3    0    0  0.10238304924E+01 -0.19786288454E+02  0.35395535158E+01  0.20126447252E+02  0.51100000000E-03 0.  1.
        -12    1    3    3    0    0  0.52906503752E+00 -0.13647699828E+02  0.11442651322E-01  0.13657955606E+02  0.00000000000E+00 0.  1.
</event>
<event>
 7    1  0.2455451E-009  0.4778727E+02  0.7816164E-02  0.1312668E+00
        -11   -1    0    0    0    0  0.00000000000E+00  0.00000000000E+00  0.45593999997E+02  0.45594000000E+02  0.51100000000E-03 0.  1.
         11   -1    0    0    0    0 -0.00000000000E+00 -0.00000000000E+00 -0.45593999997E+02  0.45594000000E+02  0.51100000000E-03 0. -1.
    9900012    2    1    2    0    0 -0.97031384072E+01  0.61325992603E+01  0.41855270126E+02  0.47787270674E+02  0.19999998313E+02 0.  0.
         12    1    1    2    0    0  0.97031384072E+01 -0.61325992603E+01 -0.41855270126E+02  0.43400729326E+02  0.00000000000E+00 0. -1.
         11    1    3    3    0    0 -0.16939102217E+01 -0.16235813589E+01  0.35364952131E+00  0.23728498716E+01  0.51100000000E-03 0.  1.
        -11    1    3    3    0    0  0.17799833024E+01  0.18037481205E+01  0.18739410576E+00  0.25410558142E+01  0.51100000000E-03 0. -1.
        -12    1    3    3    0    0 -0.97892114879E+01  0.59524324987E+01  0.41314226499E+02  0.42873364989E+02  0.00000000000E+00 0.  1.
</event>
<event>
 7    1  0.2455451E-009  0.4778728E+02  0.7816164E-02  0.1312668E+00
        -11   -1    0    0    0    0  0.00000000000E+00  0.00000000000E+00  0.45593999997E+02  0.45594000000E+02  0.51100000000E-03 0.  1.
         11   -1    0    0    0    0 -0.00000000000E+00 -0.00000000000E+00 -0.45593999997E+02  0.45594000000E+02  0.51100000000E-03 0. -1.
    9900012    2    1    2    0    0  0.38350066734E+02  0.17224983444E+02  0.10779384142E+02  0.47787276554E+02  0.20000025122E+02 0.  0.
         12    1    1    2    0    0 -0.38350066734E+02 -0.17224983444E+02 -0.10779384142E+02  0.43400723446E+02  0.00000000000E+00 0. -1.
         11    1    3    3    0    0 -0.98572652943E+00  0.27841722090E+01  0.10209376981E+01  0.31249937159E+01  0.51100000000E-03 0. -1.
        -11    1    3    3    0    0  0.27208214157E+02  0.42755672963E+01  0.40422992397E+01  0.27837161794E+02  0.51100000000E-03 0.  1.
        -12    1    3    3    0    0  0.12127579106E+02  0.10165243939E+02  0.57161472039E+01  0.16825121045E+02  0.00000000000E+00 0.  1.
</event>
<event>
 7    1  0.2455451E-009  0.4778727E+02  0.7816164E-02  0.1312668E+00
        -11   -1    0    0    0    0  0.00000000000E+00  0.00000000000E+00  0.45593999997E+02  0.45594000000E+02  0.51100000000E-03 0.  1.
         11   -1    0    0    0    0 -0.00000000000E+00 -0.00000000000E+00 -0.45593999997E+02  0.45594000000E+02  0.51100000000E-03 0. -1.
    9900012    2    1    2    0    0 -0.31944315751E+02  0.12206184340E+02  0.26724392254E+02  0.47787269750E+02  0.19999994097E+02 0.  0.
         12    1    1    2    0    0  0.31944315751E+02 -0.12206184340E+02 -0.26724392254E+02  0.43400730250E+02  0.00000000000E+00 0. -1.
         11    1    3    3    0    0 -0.10822575448E+02  0.46981898825E+01  0.20805392316E+02  0.23917890316E+02  0.51100000000E-03 0. -1.
        -11    1    3    3    0    0 -0.11738028166E+02  0.69738509415E+01  0.25803212628E+01  0.13895105622E+02  0.51100000000E-03 0.  1.
         12    1    3    3    0    0 -0.93837121370E+01  0.53414351592E+00  0.33386786748E+01  0.99742738111E+01  0.00000000000E+00 0. -1.
</event>
<event>
 7    1  0.2455451E-009  0.4778727E+02  0.7816164E-02  0.1312668E+00
        -11   -1    0    0    0    0  0.00000000000E+00  0.00000000000E+00  0.45593999997E+02  0.45594000000E+02  0.51100000000E-03 0.  1.
         11   -1    0    0    0    0 -0.00000000000E+00 -0.00000000000E+00 -0.45593999997E+02  0.45594000000E+02  0.51100000000E-03 0. -1.
    9900012    2    1    2    0    0 -0.35621761642E+02  0.15970282268E+02  0.18964791078E+02  0.47787272831E+02  0.20000008144E+02 0.  0.
         12    1    1    2    0    0  0.35621761642E+02 -0.15970282268E+02 -0.18964791078E+02  0.43400727169E+02  0.00000000000E+00 0. -1.
         11    1    3    3    0    0 -0.12473929736E+00  0.48902040184E+01  0.58341003466E+01  0.76135656791E+01  0.51100000000E-03 0. -1.
        -11    1    3    3    0    0 -0.34151311956E+02  0.10984861830E+02  0.10772661960E+02  0.37457035971E+02  0.51100000000E-03 0.  1.
        -12    1    3    3    0    0 -0.13457103881E+01  0.95216420317E-01  0.23580287717E+01  0.27166711806E+01  0.00000000000E+00 0.  1.
</event>
<event>
 7    1  0.2455451E-009  0.4778726E+02  0.7816164E-02  0.1312668E+00
        -11   -1    0    0    0    0  0.00000000000E+00  0.00000000000E+00  0.45593999997E+02  0.45594000000E+02  0.51100000000E-03 0.  1.
         11   -1    0    0    0    0 -0.00000000000E+00 -0.00000000000E+00 -0.45593999997E+02  0.45594000000E+02  0.51100000000E-03 0. -1.
    9900012    2    1    2    0    0 -0.25305414592E+02  0.27905810694E+02  0.21552856593E+02  0.47787263768E+02  0.19999966822E+02 0.  0.
         12    1    1    2    0    0  0.25305414592E+02 -0.27905810694E+02 -0.21552856593E+02  0.43400736232E+02  0.00000000000E+00 0. -1.
         11    1    3    3    0    0 -0.17960896484E+02  0.56382946124E+01  0.81304640340E+01  0.20505819035E+02  0.51100000000E-03 0. -1.
        -11    1    3    3    0    0 -0.33718803512E+01  0.12160394351E+02  0.51494619543E+01  0.13629443369E+02  0.51100000000E-03 0.  1.
         12    1    3    3    0    0 -0.39726377575E+01  0.10107121731E+02  0.82729306049E+01  0.13652001364E+02  0.00000000000E+00 0. -1.
</event>
<event>
 7    1  0.2455451E-009  0.4778728E+02  0.7816164E-02  0.1312668E+00
        -11   -1    0    0    0    0  0.00000000000E+00  0.00000000000E+00  0.45593999997E+02  0.45594000000E+02  0.51100000000E-03 0.  1.
         11   -1    0    0    0    0 -0.00000000000E+00 -0.00000000000E+00 -0.45593999997E+02  0.45594000000E+02  0.51100000000E-03 0. -1.
    9900012    2    1    2    0    0 -0.32550124558E+02  0.23110940193E+02  0.17029280306E+02  0.47787279348E+02  0.20000037860E+02 0.  0.
         12    1    1    2    0    0  0.32550124558E+02 -0.23110940193E+02 -0.17029280306E+02  0.43400720652E+02  0.00000000000E+00 0. -1.
         11    1    3    3    0    0 -0.57083781767E+01  0.44438639916E+01  0.10547369041E+02  0.12789859363E+02  0.51100000000E-03 0. -1.
        -11    1    3    3    0    0 -0.22284914077E+02  0.18184058270E+02  0.84974238646E+01  0.29991391818E+02  0.51100000000E-03 0.  1.
         12    1    3    3    0    0 -0.45568323043E+01  0.48301793178E+00 -0.20155125992E+01  0.50060281671E+01  0.00000000000E+00 0. -1.
</event>
<event>
 7    1  0.2455451E-009  0.4778727E+02  0.7816164E-02  0.1312668E+00
        -11   -1    0    0    0    0  0.00000000000E+00  0.00000000000E+00  0.45593999997E+02  0.45594000000E+02  0.51100000000E-03 0.  1.
         11   -1    0    0    0    0 -0.00000000000E+00 -0.00000000000E+00 -0.45593999997E+02  0.45594000000E+02  0.51100000000E-03 0. -1.
    9900012    2    1    2    0    0  0.28980675391E+02  0.31160880697E+02 -0.85289668297E+01  0.47787270661E+02  0.19999998253E+02 0.  0.
         12    1    1    2    0    0 -0.28980675391E+02 -0.31160880697E+02  0.85289668297E+01  0.43400729339E+02  0.00000000000E+00 0. -1.
         11    1    3    3    0    0  0.17974236155E+02  0.11220195237E+02 -0.76007513987E+01  0.22510827808E+02  0.51100000000E-03 0. -1.
        -11    1    3    3    0    0  0.67577945256E+01  0.17721843925E+02  0.28418036859E+01  0.19178305123E+02  0.51100000000E-03 0.  1.
        -12    1    3    3    0    0  0.42486447105E+01  0.22188415359E+01 -0.37700191169E+01  0.60981377304E+01  0.00000000000E+00 0.  1.
</event>
<event>
 7    1  0.2455451E-009  0.4778727E+02  0.7816164E-02  0.1312668E+00
        -11   -1    0    0    0    0  0.00000000000E+00  0.00000000000E+00  0.45593999997E+02  0.45594000000E+02  0.51100000000E-03 0. -1.
         11   -1    0    0    0    0 -0.00000000000E+00 -0.00000000000E+00 -0.45593999997E+02  0.45594000000E+02  0.51100000000E-03 0.  1.
    9900012    2    1    2    0    0  0.48199967061E+01  0.13164705561E+02 -0.41074099406E+02  0.47787268638E+02  0.19999989027E+02 0.  0.
         12    1    1    2    0    0 -0.48199967061E+01 -0.13164705561E+02  0.41074099406E+02  0.43400731362E+02  0.00000000000E+00 0. -1.
         11    1    3    3    0    0  0.30384383666E+01  0.11723755136E+02 -0.27078245685E+02  0.29663275811E+02  0.51100000000E-03 0. -1.
        -11    1    3    3    0    0  0.43591111138E+01 -0.36553904609E+01 -0.82621248351E+01  0.10031272909E+02  0.51100000000E-03 0.  1.
        -12    1    3    3    0    0 -0.25775527743E+01  0.50963408859E+01 -0.57337288858E+01  0.80927199176E+01  0.00000000000E+00 0.  1.
</event>
<event>
 7    1  0.2455451E-009  0.4778727E+02  0.7816164E-02  0.1312668E+00
        -11   -1    0    0    0    0  0.00000000000E+00  0.00000000000E+00  0.45593999997E+02  0.45594000000E+02  0.51100000000E-03 0.  1.
         11   -1    0    0    0    0 -0.00000000000E+00 -0.00000000000E+00 -0.45593999997E+02  0.45594000000E+02  0.51100000000E-03 0. -1.
    9900012    2    1    2    0    0  0.34248698103E+02  0.26207783228E+02  0.48787131011E+01  0.47787273451E+02  0.20000010973E+02 0.  0.
         12    1    1    2    0    0 -0.34248698103E+02 -0.26207783228E+02 -0.48787131011E+01  0.43400726549E+02  0.00000000000E+00 0. -1.
         11    1    3    3    0    0  0.75586122993E+01  0.80869147801E+01 -0.60203640143E+01  0.12600618782E+02  0.51100000000E-03 0. -1.
        -11    1    3    3    0    0  0.17295622227E+02  0.91218693790E+01  0.10447346392E+02  0.22169666125E+02  0.51100000000E-03 0.  1.
        -12    1    3    3    0    0  0.93944635769E+01  0.89989990686E+01  0.45173072356E+00  0.13016988545E+02  0.00000000000E+00 0.  1.
</event>
<event>
 7    1  0.2455451E-009  0.4778728E+02  0.7816164E-02  0.1312668E+00
        -11   -1    0    0    0    0  0.00000000000E+00  0.00000000000E+00  0.45593999997E+02  0.45594000000E+02  0.51100000000E-03 0. -1.
         11   -1    0    0    0    0 -0.00000000000E+00 -0.00000000000E+00 -0.45593999997E+02  0.45594000000E+02  0.51100000000E-03 0.  1.
    9900012    2    1    2    0    0  0.24481275852E+02 -0.35833278969E+02 -0.51590823040E+00  0.47787275233E+02  0.20000019097E+02 0.  0.
         12    1    1    2    0    0 -0.24481275852E+02  0.35833278969E+02  0.51590823040E+00  0.43400724767E+02  0.00000000000E+00 0. -1.
         11    1    3    3    0    0  0.10913223480E+02 -0.11845324950E+02  0.37345288475E+01  0.16533507670E+02  0.51100000000E-03 0. -1.
        -11    1    3    3    0    0  0.27870003662E+01 -0.10069523137E+02 -0.81146890552E+01  0.13229166488E+02  0.51100000000E-03 0.  1.
        -12    1    3    3    0    0  0.10781052007E+02 -0.13918430881E+02  0.38642519773E+01  0.18024601075E+02  0.00000000000E+00 0.  1.
</event>
<event>
 7    1  0.2455451E-009  0.4778727E+02  0.7816164E-02  0.1312668E+00
        -11   -1    0    0    0    0  0.00000000000E+00  0.00000000000E+00  0.45593999997E+02  0.45594000000E+02  0.51100000000E-03 0. -1.
         11   -1    0    0    0    0 -0.00000000000E+00 -0.00000000000E+00 -0.45593999997E+02  0.45594000000E+02  0.51100000000E-03 0.  1.
    9900012    2    1    2    0    0  0.31839247862E+02 -0.23395102478E+02 -0.17959808543E+02  0.47787271351E+02  0.20000001397E+02 0.  0.
         12    1    1    2    0    0 -0.31839247862E+02  0.23395102478E+02  0.17959808543E+02  0.43400728649E+02  0.00000000000E+00 0. -1.
         11    1    3    3    0    0  0.93045608763E+00 -0.64190489164E+01  0.15402433789E+00  0.64879627989E+01  0.51100000000E-03 0. -1.
        -11    1    3    3    0    0  0.14596687860E+02 -0.33812273686E+01 -0.12016996319E+02  0.19206878867E+02  0.51100000000E-03 0.  1.
        -12    1    3    3    0    0  0.16312103914E+02 -0.13594826193E+02 -0.60968365615E+01  0.22092429685E+02  0.00000000000E+00 0.  1.
</event>
<event>
 7    1  0.2455451E-009  0.4778727E+02  0.7816164E-02  0.1312668E+00
        -11   -1    0    0    0    0  0.00000000000E+00  0.00000000000E+00  0.45593999997E+02  0.45594000000E+02  0.51100000000E-03 0.  1.
         11   -1    0    0    0    0 -0.00000000000E+00 -0.00000000000E+00 -0.45593999997E+02  0.45594000000E+02  0.51100000000E-03 0. -1.
    9900012    2    1    2    0    0 -0.24743546454E+02 -0.43219516916E+01  0.35393515880E+02  0.47787270468E+02  0.19999997372E+02 0.  0.
         12    1    1    2    0    0  0.24743546454E+02  0.43219516916E+01 -0.35393515880E+02  0.43400729532E+02  0.00000000000E+00 0. -1.
         11    1    3    3    0    0 -0.20189749960E+02 -0.40054043270E+01  0.30095489475E+02  0.36461044339E+02  0.51100000000E-03 0.  1.
        -11    1    3    3    0    0 -0.38414468233E+01  0.34878403249E+01  0.57579405117E+00  0.52204676878E+01  0.51100000000E-03 0. -1.
         12    1    3    3    0    0 -0.71234967125E+00 -0.38043876896E+01  0.47222323536E+01  0.61057584416E+01  0.00000000000E+00 0. -1.
</event>
<event>
 7    1  0.2455451E-009  0.4778727E+02  0.7816164E-02  0.1312668E+00
        -11   -1    0    0    0    0  0.00000000000E+00  0.00000000000E+00  0.45593999997E+02  0.45594000000E+02  0.51100000000E-03 0. -1.
         11   -1    0    0    0    0 -0.00000000000E+00 -0.00000000000E+00 -0.45593999997E+02  0.45594000000E+02  0.51100000000E-03 0.  1.
    9900012    2    1    2    0    0  0.33921861470E+02 -0.25546477505E+02 -0.89614832173E+01  0.47787269822E+02  0.19999994428E+02 0.  0.
         12    1    1    2    0    0 -0.33921861470E+02  0.25546477505E+02  0.89614832173E+01  0.43400730178E+02  0.00000000000E+00 0. -1.
         11    1    3    3    0    0  0.32812017982E+00 -0.50319247490E+01  0.60538914271E+00  0.50788213010E+01  0.51100000000E-03 0. -1.
        -11    1    3    3    0    0  0.19013713312E+02 -0.41039499321E+01 -0.23104443731E+01  0.19588309075E+02  0.51100000000E-03 0.  1.
        -12    1    3    3    0    0  0.14580027978E+02 -0.16410602824E+02 -0.72564279869E+01  0.23120139446E+02  0.00000000000E+00 0.  1.
</event>
<event>
 7    1  0.2455451E-009  0.4778727E+02  0.7816164E-02  0.1312668E+00
        -11   -1    0    0    0    0  0.00000000000E+00  0.00000000000E+00  0.45593999997E+02  0.45594000000E+02  0.51100000000E-03 0. -1.
         11   -1    0    0    0    0 -0.00000000000E+00 -0.00000000000E+00 -0.45593999997E+02  0.45594000000E+02  0.51100000000E-03 0.  1.
    9900012    2    1    2    0    0  0.69419706608E+01 -0.15199494304E+02 -0.40055060990E+02  0.47787268501E+02  0.19999988403E+02 0.  0.
         12    1    1    2    0    0 -0.69419706608E+01  0.15199494304E+02  0.40055060990E+02  0.43400731499E+02  0.00000000000E+00 0. -1.
         11    1    3    3    0    0  0.36122106976E+01 -0.76104537965E+01 -0.14075690275E+02  0.16404027862E+02  0.51100000000E-03 0.  1.
        -11    1    3    3    0    0 -0.45553421249E+01 -0.81465798783E+01 -0.10841949221E+02  0.14306144441E+02  0.51100000000E-03 0. -1.
        -12    1    3    3    0    0  0.78851020881E+01  0.55753937067E+00 -0.15137421494E+02  0.17077096198E+02  0.00000000000E+00 0.  1.
</event>
<event>
 7    1  0.2455451E-009  0.4778727E+02  0.7816164E-02  0.1312668E+00
        -11   -1    0    0    0    0  0.00000000000E+00  0.00000000000E+00  0.45593999997E+02  0.45594000000E+02  0.51100000000E-03 0. -1.
         11   -1    0    0    0    0 -0.00000000000E+00 -0.00000000000E+00 -0.45593999997E+02  0.45594000000E+02  0.51100000000E-03 0.  1.
    9900012    2    1    2    0    0  0.22800877325E+02 -0.33217083846E+02 -0.16135946633E+02  0.47787269133E+02  0.19999991285E+02 0.  0.
         12    1    1    2    0    0 -0.22800877325E+02  0.33217083846E+02  0.16135946633E+02  0.43400730867E+02  0.00000000000E+00 0. -1.
         11    1    3    3    0    0  0.13600479119E+02 -0.22030795856E+02 -0.83006285772E+01  0.27188774032E+02  0.51100000000E-03 0. -1.
        -11    1    3    3    0    0 -0.14995001106E+01 -0.19370118043E+01 -0.58170430187E+01  0.63117751112E+01  0.51100000000E-03 0.  1.
         12    1    3    3    0    0  0.10699898317E+02 -0.92492761861E+01 -0.20182750373E+01  0.14286719990E+02  0.00000000000E+00 0. -1.
</event>
<event>
 7    1  0.2455451E-009  0.4778727E+02  0.7816164E-02  0.1312668E+00
        -11   -1    0    0    0    0  0.00000000000E+00  0.00000000000E+00  0.45593999997E+02  0.45594000000E+02  0.51100000000E-03 0. -1.
         11   -1    0    0    0    0 -0.00000000000E+00 -0.00000000000E+00 -0.45593999997E+02  0.45594000000E+02  0.51100000000E-03 0.  1.
    9900012    2    1    2    0    0 -0.80760219437E+01  0.36857170526E+02 -0.21446443774E+02  0.47787273046E+02  0.20000009125E+02 0.  0.
         12    1    1    2    0    0  0.80760219437E+01 -0.36857170526E+02  0.21446443774E+02  0.43400726954E+02  0.00000000000E+00 0. -1.
         11    1    3    3    0    0 -0.25188822594E+01  0.54358311017E+01  0.14320673935E+01  0.61598575376E+01  0.51100000000E-03 0. -1.
        -11    1    3    3    0    0  0.42516896329E+01  0.74380642055E+01 -0.81379847586E+01  0.11816448707E+02  0.51100000000E-03 0.  1.
        -12    1    3    3    0    0 -0.98088293172E+01  0.23983275219E+02 -0.14740526409E+02  0.29810966801E+02  0.00000000000E+00 0.  1.
</event>
<event>
 7    1  0.2455451E-009  0.4778727E+02  0.7816164E-02  0.1312668E+00
        -11   -1    0    0    0    0  0.00000000000E+00  0.00000000000E+00  0.45593999997E+02  0.45594000000E+02  0.51100000000E-03 0. -1.
         11   -1    0    0    0    0 -0.00000000000E+00 -0.00000000000E+00 -0.45593999997E+02  0.45594000000E+02  0.51100000000E-03 0.  1.
    9900012    2    1    2    0    0  0.43093285657E+02 -0.47274578441E+01  0.20598819883E+01  0.47787271432E+02  0.20000001769E+02 0.  0.
         12    1    1    2    0    0 -0.43093285657E+02  0.47274578441E+01 -0.20598819883E+01  0.43400728568E+02  0.00000000000E+00 0. -1.
         11    1    3    3    0    0  0.13373477174E+02  0.33965952797E+00  0.71572014067E+01  0.15172039828E+02  0.51100000000E-03 0. -1.
        -11    1    3    3    0    0  0.93147585608E+01 -0.90202661549E+00 -0.70231769599E+01  0.11700572376E+02  0.51100000000E-03 0.  1.
         12    1    3    3    0    0  0.20405049923E+02 -0.41650907566E+01  0.19258575415E+01  0.20914659228E+02  0.00000000000E+00 0. -1.
</event>
<event>
 7    1  0.2455451E-009  0.4778728E+02  0.7816164E-02  0.1312668E+00
        -11   -1    0    0    0    0  0.00000000000E+00  0.00000000000E+00  0.45593999997E+02  0.45594000000E+02  0.51100000000E-03 0.  1.
         11   -1    0    0    0    0 -0.00000000000E+00 -0.00000000000E+00 -0.45593999997E+02  0.45594000000E+02  0.51100000000E-03 0. -1.
    9900012    2    1    2    0    0 -0.11787884433E+02 -0.68594551845E+01  0.41202142466E+02  0.47787275482E+02  0.20000020235E+02 0.  0.
         12    1    1    2    0    0  0.11787884433E+02  0.68594551845E+01 -0.41202142466E+02  0.43400724518E+02  0.00000000000E+00 0. -1.
         11    1    3    3    0    0 -0.26909462336E+01 -0.74329177865E+01  0.43784286672E+01  0.90365976069E+01  0.51100000000E-03 0. -1.
        -11    1    3    3    0    0 -0.10024347208E+02  0.17475305597E+01  0.34639738828E+02  0.36103364197E+02  0.51100000000E-03 0.  1.
        -12    1    3    3    0    0  0.92740900852E+00 -0.11740679577E+01  0.21839749707E+01  0.26473136783E+01  0.00000000000E+00 0.  1.
</event>
<event>
 7    1  0.2455451E-009  0.4778727E+02  0.7816164E-02  0.1312668E+00
        -11   -1    0    0    0    0  0.00000000000E+00  0.00000000000E+00  0.45593999997E+02  0.45594000000E+02  0.51100000000E-03 0.  1.
         11   -1    0    0    0    0 -0.00000000000E+00 -0.00000000000E+00 -0.45593999997E+02  0.45594000000E+02  0.51100000000E-03 0. -1.
    9900012    2    1    2    0    0  0.42099027867E+02  0.10194366775E+02  0.27147772767E+01  0.47787271009E+02  0.19999999840E+02 0.  0.
         12    1    1    2    0    0 -0.42099027867E+02 -0.10194366775E+02 -0.27147772767E+01  0.43400728991E+02  0.00000000000E+00 0. -1.
         11    1    3    3    0    0  0.27171499300E+01  0.20892014523E+01 -0.23935876531E+01  0.41805416593E+01  0.51100000000E-03 0. -1.
        -11    1    3    3    0    0  0.10655236237E+02  0.97470908016E+01  0.36991032998E+00  0.14445645444E+02  0.51100000000E-03 0.  1.
        -12    1    3    3    0    0  0.28726641699E+02 -0.16419254791E+01  0.47384545999E+01  0.29161083906E+02  0.00000000000E+00 0.  1.
</event>
<event>
 7    1  0.2455451E-009  0.4778727E+02  0.7816164E-02  0.1312668E+00
        -11   -1    0    0    0    0  0.00000000000E+00  0.00000000000E+00  0.45593999997E+02  0.45594000000E+02  0.51100000000E-03 0.  1.
         11   -1    0    0    0    0 -0.00000000000E+00 -0.00000000000E+00 -0.45593999997E+02  0.45594000000E+02  0.51100000000E-03 0. -1.
    9900012    2    1    2    0    0  0.10890863667E+02  0.42006012041E+02  0.71231277787E+00  0.47787270185E+02  0.19999996082E+02 0.  0.
         12    1    1    2    0    0 -0.10890863667E+02 -0.42006012041E+02 -0.71231277787E+00  0.43400729815E+02  0.00000000000E+00 0. -1.
         11    1    3    3    0    0  0.10940115526E+02  0.13008356924E+02  0.45123606840E+01  0.17585928375E+02  0.51100000000E-03 0. -1.
        -11    1    3    3    0    0 -0.36470610406E+01  0.15701316138E+02 -0.10384111187E+01  0.16152729819E+02  0.51100000000E-03 0.  1.
         12    1    3    3    0    0  0.35978091812E+01  0.13296338979E+02 -0.27616367875E+01  0.14048611991E+02  0.00000000000E+00 0. -1.
</event>
<event>
 7    1  0.2455451E-009  0.4778727E+02  0.7816164E-02  0.1312668E+00
        -11   -1    0    0    0    0  0.00000000000E+00  0.00000000000E+00  0.45593999997E+02  0.45594000000E+02  0.51100000000E-03 0.  1.
         11   -1    0    0    0    0 -0.00000000000E+00 -0.00000000000E+00 -0.45593999997E+02  0.45594000000E+02  0.51100000000E-03 0. -1.
    9900012    2    1    2    0    0 -0.36057634714E+02 -0.14698582182E+02  0.19168251136E+02  0.47787272000E+02  0.20000004355E+02 0.  0.
         12    1    1    2    0    0  0.36057634714E+02  0.14698582182E+02 -0.19168251136E+02  0.43400728000E+02  0.00000000000E+00 0. -1.
         11    1    3    3    0    0 -0.31475297254E+01 -0.54006122007E+01  0.94340379433E+01  0.11317006128E+02  0.51100000000E-03 0. -1.
        -11    1    3    3    0    0 -0.15968632207E+02 -0.12084647729E+01  0.18967122107E+01  0.16126224578E+02  0.51100000000E-03 0.  1.
        -12    1    3    3    0    0 -0.16941472782E+02 -0.80895052085E+01  0.78375009820E+01  0.20344041294E+02  0.00000000000E+00 0.  1.
</event>
<event>
 7    1  0.2455451E-009  0.4778727E+02  0.7816164E-02  0.1312668E+00
        -11   -1    0    0    0    0  0.00000000000E+00  0.00000000000E+00  0.45593999997E+02  0.45594000000E+02  0.51100000000E-03 0. -1.
         11   -1    0    0    0    0 -0.00000000000E+00 -0.00000000000E+00 -0.45593999997E+02  0.45594000000E+02  0.51100000000E-03 0.  1.
    9900012    2    1    2    0    0 -0.27088570979E+01 -0.19550623809E+02  0.38653049850E+02  0.47787273499E+02  0.20000011193E+02 0.  0.
         12    1    1    2    0    0  0.27088570979E+01  0.19550623809E+02 -0.38653049850E+02  0.43400726501E+02  0.00000000000E+00 0. -1.
         11    1    3    3    0    0  0.26563969353E+00 -0.15544062697E+02  0.12921408828E+02  0.20215124436E+02  0.51100000000E-03 0. -1.
        -11    1    3    3    0    0  0.14088803792E+01 -0.47153757113E+01  0.89590731802E+01  0.10221775997E+02  0.51100000000E-03 0.  1.
         12    1    3    3    0    0 -0.43833771707E+01  0.70881460006E+00  0.16772567841E+02  0.17350373067E+02  0.00000000000E+00 0. -1.
</event>
<event>
 7    1  0.2455451E-009  0.4778727E+02  0.7816164E-02  0.1312668E+00
        -11   -1    0    0    0    0  0.00000000000E+00  0.00000000000E+00  0.45593999997E+02  0.45594000000E+02  0.51100000000E-03 0. -1.
         11   -1    0    0    0    0 -0.00000000000E+00 -0.00000000000E+00 -0.45593999997E+02  0.45594000000E+02  0.51100000000E-03 0.  1.
    9900012    2    1    2    0    0 -0.35434498519E+02  0.15714058265E+02 -0.19521470021E+02  0.47787272999E+02  0.20000008913E+02 0.  0.
         12    1    1    2    0    0  0.35434498519E+02 -0.15714058265E+02  0.19521470021E+02  0.43400727001E+02  0.00000000000E+00 0. -1.
         11    1    3    3    0    0 -0.22296862280E+02  0.17251287533E+02 -0.14174609566E+02  0.31554342739E+02  0.51100000000E-03 0. -1.
        -11    1    3    3    0    0 -0.74203485632E+01 -0.30127053144E+01  0.36605775831E+00  0.80169797714E+01  0.51100000000E-03 0.  1.
        -12    1    3    3    0    0 -0.57172876752E+01  0.14754760463E+01 -0.57129182137E+01  0.82159504891E+01  0.00000000000E+00 0.  1.
</event>
<event>
 7    1  0.2455451E-009  0.4778727E+02  0.7816164E-02  0.1312668E+00
        -11   -1    0    0    0    0  0.00000000000E+00  0.00000000000E+00  0.45593999997E+02  0.45594000000E+02  0.51100000000E-03 0. -1.
         11   -1    0    0    0    0 -0.00000000000E+00 -0.00000000000E+00 -0.45593999997E+02  0.45594000000E+02  0.51100000000E-03 0.  1.
    9900012    2    1    2    0    0 -0.92879075924E+01 -0.11889532155E+02 -0.40693945285E+02  0.47787269762E+02  0.19999994152E+02 0.  0.
         12    1    1    2    0    0  0.92879075924E+01  0.11889532155E+02  0.40693945285E+02  0.43400730238E+02  0.00000000000E+00 0. -1.
         11    1    3    3    0    0  0.28245409487E+01 -0.51856438696E+01 -0.15704005198E+02  0.16777506174E+02  0.51100000000E-03 0. -1.
        -11    1    3    3    0    0 -0.93733013502E+01 -0.19552297140E+01 -0.61298853065E+01  0.11369133457E+02  0.51100000000E-03 0.  1.
        -12    1    3    3    0    0 -0.27391471909E+01 -0.47486585717E+01 -0.18860054781E+02  0.19640630130E+02  0.00000000000E+00 0.  1.
</event>
<event>
 7    1  0.2455451E-009  0.4778726E+02  0.7816164E-02  0.1312668E+00
        -11   -1    0    0    0    0  0.00000000000E+00  0.00000000000E+00  0.45593999997E+02  0.45594000000E+02  0.51100000000E-03 0. -1.
         11   -1    0    0    0    0 -0.00000000000E+00 -0.00000000000E+00 -0.45593999997E+02  0.45594000000E+02  0.51100000000E-03 0.  1.
    9900012    2    1    2    0    0 -0.35212908497E+02 -0.20333883755E+02  0.15172628171E+02  0.47787258082E+02  0.19999940899E+02 0.  0.
         12    1    1    2    0    0  0.35212908497E+02  0.20333883755E+02 -0.15172628171E+02  0.43400741918E+02  0.00000000000E+00 0. -1.
         11    1    3    3    0    0 -0.14940406551E+02 -0.35537495304E+00  0.68707437179E+01  0.16448378606E+02  0.51100000000E-03 0. -1.
        -11    1    3    3    0    0 -0.18375182418E+02 -0.14270631825E+02  0.96283094956E+01  0.25179408364E+02  0.51100000000E-03 0.  1.
        -12    1    3    3    0    0 -0.18973195276E+01 -0.57078769774E+01 -0.13264250421E+01  0.61594711113E+01  0.00000000000E+00 0.  1.
</event>
<event>
 7    1  0.2455451E-009  0.4778727E+02  0.7816164E-02  0.1312668E+00
        -11   -1    0    0    0    0  0.00000000000E+00  0.00000000000E+00  0.45593999997E+02  0.45594000000E+02  0.51100000000E-03 0.  1.
         11   -1    0    0    0    0 -0.00000000000E+00 -0.00000000000E+00 -0.45593999997E+02  0.45594000000E+02  0.51100000000E-03 0. -1.
    9900012    2    1    2    0    0  0.22787769301E+01 -0.16272784052E+02  0.40169976991E+02  0.47787269862E+02  0.19999994607E+02 0.  0.
         12    1    1    2    0    0 -0.22787769301E+01  0.16272784052E+02 -0.40169976991E+02  0.43400730138E+02  0.00000000000E+00 0. -1.
         11    1    3    3    0    0  0.70697260108E+01 -0.10917737813E+02  0.34975449631E+02  0.37315681716E+02  0.51100000000E-03 0. -1.
        -11    1    3    3    0    0 -0.19555777017E+01  0.70131694305E+00  0.25284816170E+01  0.32725141941E+01  0.51100000000E-03 0.  1.
         12    1    3    3    0    0 -0.28353713789E+01 -0.60563631819E+01  0.26660457432E+01  0.71990739510E+01  0.00000000000E+00 0. -1.
</event>
<event>
 7    1  0.2455451E-009  0.4778727E+02  0.7816164E-02  0.1312668E+00
        -11   -1    0    0    0    0  0.00000000000E+00  0.00000000000E+00  0.45593999997E+02  0.45594000000E+02  0.51100000000E-03 0. -1.
         11   -1    0    0    0    0 -0.00000000000E+00 -0.00000000000E+00 -0.45593999997E+02  0.45594000000E+02  0.51100000000E-03 0.  1.
    9900012    2    1    2    0    0 -0.86494737469E+01  0.37380246885E+02 -0.20286128092E+02  0.47787271363E+02  0.20000001450E+02 0.  0.
         12    1    1    2    0    0  0.86494737469E+01 -0.37380246885E+02  0.20286128092E+02  0.43400728637E+02  0.00000000000E+00 0. -1.
         11    1    3    3    0    0 -0.63583437486E+01  0.23654877730E+02 -0.39806810379E+01  0.24815873901E+02  0.51100000000E-03 0. -1.
        -11    1    3    3    0    0 -0.35021367634E+01  0.12522362942E+02 -0.16752721812E+02  0.21206796645E+02  0.51100000000E-03 0.  1.
        -12    1    3    3    0    0  0.12110067651E+01  0.12030062130E+01  0.44727475848E+00  0.17646008170E+01  0.00000000000E+00 0.  1.
</event>
<event>
 7    1  0.2455451E-009  0.4778727E+02  0.7816164E-02  0.1312668E+00
        -11   -1    0    0    0    0  0.00000000000E+00  0.00000000000E+00  0.45593999997E+02  0.45594000000E+02  0.51100000000E-03 0.  1.
         11   -1    0    0    0    0 -0.00000000000E+00 -0.00000000000E+00 -0.45593999997E+02  0.45594000000E+02  0.51100000000E-03 0. -1.
    9900012    2    1    2    0    0  0.33685225380E+02  0.27119358340E+02  0.36700655640E+01  0.47787269742E+02  0.19999994063E+02 0.  0.
         12    1    1    2    0    0 -0.33685225380E+02 -0.27119358340E+02 -0.36700655640E+01  0.43400730258E+02  0.00000000000E+00 0. -1.
         11    1    3    3    0    0 -0.48468100162E+00 -0.12561867503E+01  0.23221511364E+01  0.26842702893E+01  0.51100000000E-03 0. -1.
        -11    1    3    3    0    0  0.32586186150E+02  0.26279447756E+02  0.30487359505E+01  0.41973368858E+02  0.51100000000E-03 0.  1.
        -12    1    3    3    0    0  0.15837202318E+01  0.20960973338E+01 -0.17008215229E+01  0.31296305945E+01  0.00000000000E+00 0.  1.
</event>
<event>
 7    1  0.2455451E-009  0.4778727E+02  0.7816164E-02  0.1312668E+00
        -11   -1    0    0    0    0  0.00000000000E+00  0.00000000000E+00  0.45593999997E+02  0.45594000000E+02  0.51100000000E-03 0.  1.
         11   -1    0    0    0    0 -0.00000000000E+00 -0.00000000000E+00 -0.45593999997E+02  0.45594000000E+02  0.51100000000E-03 0. -1.
    9900012    2    1    2    0    0  0.19390984040E+01  0.22142611219E+02  0.37276908999E+02  0.47787270988E+02  0.19999999743E+02 0.  0.
         12    1    1    2    0    0 -0.19390984040E+01 -0.22142611219E+02 -0.37276908999E+02  0.43400729012E+02  0.00000000000E+00 0. -1.
         11    1    3    3    0    0 -0.45422397102E+01  0.19044960628E+02  0.26443405188E+02  0.32902828832E+02  0.51100000000E-03 0.  1.
        -11    1    3    3    0    0  0.51397460888E+01  0.48101043004E+01  0.10560948601E+02  0.12692034071E+02  0.51100000000E-03 0. -1.
         12    1    3    3    0    0  0.13415920254E+01 -0.17124537099E+01  0.27255521015E+00  0.21924080856E+01  0.00000000000E+00 0. -1.
</event>
<event>
 7    1  0.2455451E-009  0.4778727E+02  0.7816164E-02  0.1312668E+00
        -11   -1    0    0    0    0  0.00000000000E+00  0.00000000000E+00  0.45593999997E+02  0.45594000000E+02  0.51100000000E-03 0.  1.
         11   -1    0    0    0    0 -0.00000000000E+00 -0.00000000000E+00 -0.45593999997E+02  0.45594000000E+02  0.51100000000E-03 0. -1.
    9900012    2    1    2    0    0  0.26009831699E+02 -0.31488489156E+02  0.14682880177E+02  0.47787271151E+02  0.20000000484E+02 0.  0.
         12    1    1    2    0    0 -0.26009831699E+02  0.31488489156E+02 -0.14682880177E+02  0.43400728849E+02  0.00000000000E+00 0. -1.
         11    1    3    3    0    0  0.10768841936E+02 -0.93357146157E+01  0.13631588233E+02  0.19721656169E+02  0.51100000000E-03 0. -1.
        -11    1    3    3    0    0  0.12765680898E+02 -0.12909887148E+02  0.27021854948E+01  0.18355642230E+02  0.51100000000E-03 0.  1.
         12    1    3    3    0    0  0.24753088657E+01 -0.92428873924E+01 -0.16508935506E+01  0.97099727520E+01  0.00000000000E+00 0. -1.
</event>
<event>
 7    1  0.2455451E-009  0.4778728E+02  0.7816164E-02  0.1312668E+00
        -11   -1    0    0    0    0  0.00000000000E+00  0.00000000000E+00  0.45593999997E+02  0.45594000000E+02  0.51100000000E-03 0.  1.
         11   -1    0    0    0    0 -0.00000000000E+00 -0.00000000000E+00 -0.45593999997E+02  0.45594000000E+02  0.51100000000E-03 0. -1.
    9900012    2    1    2    0    0 -0.59732466793E+01  0.85899530865E+00  0.42979126674E+02  0.47787275599E+02  0.20000020767E+02 0.  0.
         12    1    1    2    0    0  0.59732466793E+01 -0.85899530865E+00 -0.42979126674E+02  0.43400724401E+02  0.00000000000E+00 0. -1.
         11    1    3    3    0    0 -0.61819645354E+01  0.64962263267E+01  0.15764260765E+02  0.18136415294E+02  0.51100000000E-03 0. -1.
        -11    1    3    3    0    0 -0.17040068383E+01  0.24550118484E+01  0.11375852569E+02  0.11761834228E+02  0.51100000000E-03 0.  1.
         12    1    3    3    0    0  0.19127246945E+01 -0.80922428665E+01  0.15839013341E+02  0.17889026077E+02  0.00000000000E+00 0. -1.
</event>
<event>
 7    1  0.2455451E-009  0.4778726E+02  0.7816164E-02  0.1312668E+00
        -11   -1    0    0    0    0  0.00000000000E+00  0.00000000000E+00  0.45593999997E+02  0.45594000000E+02  0.51100000000E-03 0.  1.
         11   -1    0    0    0    0 -0.00000000000E+00 -0.00000000000E+00 -0.45593999997E+02  0.45594000000E+02  0.51100000000E-03 0. -1.
    9900012    2    1    2    0    0 -0.29112940871E+02  0.52738152646E+01  0.31752918103E+02  0.47787259665E+02  0.19999948116E+02 0.  0.
         12    1    1    2    0    0  0.29112940871E+02 -0.52738152646E+01 -0.31752918103E+02  0.43400740335E+02  0.00000000000E+00 0. -1.
         11    1    3    3    0    0 -0.61012961392E+01  0.77446414552E+01  0.10998118650E+02  0.14770372370E+02  0.51100000000E-03 0. -1.
        -11    1    3    3    0    0 -0.54191127717E+01 -0.32380445733E+01  0.73638075598E+00  0.63556252855E+01  0.51100000000E-03 0.  1.
        -12    1    3    3    0    0 -0.17592531960E+02  0.76721838269E+00  0.20018418697E+02  0.26661262010E+02  0.00000000000E+00 0.  1.
</event>
<event>
 7    1  0.2455451E-009  0.4778727E+02  0.7816164E-02  0.1312668E+00
        -11   -1    0    0    0    0  0.00000000000E+00  0.00000000000E+00  0.45593999997E+02  0.45594000000E+02  0.51100000000E-03 0. -1.
         11   -1    0    0    0    0 -0.00000000000E+00 -0.00000000000E+00 -0.45593999997E+02  0.45594000000E+02  0.51100000000E-03 0.  1.
    9900012    2    1    2    0    0  0.41198099902E+02  0.11016134726E+02 -0.80613148112E+01  0.47787268943E+02  0.19999990418E+02 0.  0.
         12    1    1    2    0    0 -0.41198099902E+02 -0.11016134726E+02  0.80613148112E+01  0.43400731057E+02  0.00000000000E+00 0. -1.
         11    1    3    3    0    0 -0.11959826753E+01 -0.18513007750E+00 -0.15642147584E+01  0.19777299554E+01  0.51100000000E-03 0. -1.
        -11    1    3    3    0    0  0.30731294457E+02  0.27312106118E+01 -0.31560813258E+01  0.31013429672E+02  0.51100000000E-03 0.  1.
         12    1    3    3    0    0  0.11662788120E+02  0.84700541916E+01 -0.33410187271E+01  0.14796109315E+02  0.00000000000E+00 0. -1.
</event>
<event>
 7    1  0.2455451E-009  0.4778723E+02  0.7816164E-02  0.1312668E+00
        -11   -1    0    0    0    0  0.00000000000E+00  0.00000000000E+00  0.45593999997E+02  0.45594000000E+02  0.51100000000E-03 0.  1.
         11   -1    0    0    0    0 -0.00000000000E+00 -0.00000000000E+00 -0.45593999997E+02  0.45594000000E+02  0.51100000000E-03 0. -1.
    9900012    2    1    2    0    0  0.21784088456E+02  0.52904804283E+01  0.37163029567E+02  0.47787234344E+02  0.19999832665E+02 0.  0.
         12    1    1    2    0    0 -0.21784088456E+02 -0.52904804283E+01 -0.37163029567E+02  0.43400765656E+02  0.00000000000E+00 0. -1.
         11    1    3    3    0    0  0.68225583176E+01  0.91927374990E+01  0.24670226088E+02  0.27196944317E+02  0.51100000000E-03 0. -1.
        -11    1    3    3    0    0  0.13559173360E+02 -0.19311059910E+01  0.11788715361E+02  0.18070809685E+02  0.51100000000E-03 0.  1.
        -12    1    3    3    0    0  0.14023567784E+01 -0.19711510796E+01  0.70408811790E+00  0.25194803413E+01  0.00000000000E+00 0.  1.
</event>
<event>
 7    1  0.2455451E-009  0.4778728E+02  0.7816164E-02  0.1312668E+00
        -11   -1    0    0    0    0  0.00000000000E+00  0.00000000000E+00  0.45593999997E+02  0.45594000000E+02  0.51100000000E-03 0.  1.
         11   -1    0    0    0    0 -0.00000000000E+00 -0.00000000000E+00 -0.45593999997E+02  0.45594000000E+02  0.51100000000E-03 0. -1.
    9900012    2    1    2    0    0 -0.28946214625E+01 -0.30857504043E+02  0.30381877054E+02  0.47787276014E+02  0.20000022657E+02 0.  0.
         12    1    1    2    0    0  0.28946214625E+01  0.30857504043E+02 -0.30381877054E+02  0.43400723986E+02  0.00000000000E+00 0. -1.
         11    1    3    3    0    0  0.46284096500E+01 -0.50187406347E+01  0.10296889498E+02  0.12354588906E+02  0.51100000000E-03 0. -1.
        -11    1    3    3    0    0 -0.59951499832E+01 -0.23362897749E+02  0.12203401900E+02  0.27031275086E+02  0.51100000000E-03 0.  1.
        -12    1    3    3    0    0 -0.15278811293E+01 -0.24758656593E+01  0.78815856560E+01  0.84014120219E+01  0.00000000000E+00 0.  1.
</event>
<event>
 7    1  0.2455451E-009  0.4778727E+02  0.7816164E-02  0.1312668E+00
        -11   -1    0    0    0    0  0.00000000000E+00  0.00000000000E+00  0.45593999997E+02  0.45594000000E+02  0.51100000000E-03 0.  1.
         11   -1    0    0    0    0 -0.00000000000E+00 -0.00000000000E+00 -0.45593999997E+02  0.45594000000E+02  0.51100000000E-03 0. -1.
    9900012    2    1    2    0    0  0.26080834729E+02  0.33743333657E+02  0.80499054205E+01  0.47787268627E+02  0.19999988979E+02 0.  0.
         12    1    1    2    0    0 -0.26080834729E+02 -0.33743333657E+02 -0.80499054205E+01  0.43400731373E+02  0.00000000000E+00 0. -1.
         11    1    3    3    0    0  0.37336642017E+01 -0.12442391280E+01 -0.16401872492E+01  0.42636362242E+01  0.51100000000E-03 0. -1.
        -11    1    3    3    0    0  0.16690855993E+02  0.27606969253E+02  0.37218355327E+01  0.32474320394E+02  0.51100000000E-03 0.  1.
        -12    1    3    3    0    0  0.56563145346E+01  0.73806035318E+01  0.59682571370E+01  0.11049312009E+02  0.00000000000E+00 0.  1.
</event>
<event>
 7    1  0.2455451E-009  0.4778728E+02  0.7816164E-02  0.1312668E+00
        -11   -1    0    0    0    0  0.00000000000E+00  0.00000000000E+00  0.45593999997E+02  0.45594000000E+02  0.51100000000E-03 0.  1.
         11   -1    0    0    0    0 -0.00000000000E+00 -0.00000000000E+00 -0.45593999997E+02  0.45594000000E+02  0.51100000000E-03 0. -1.
    9900012    2    1    2    0    0 -0.12667912703E+02 -0.28902602675E+02  0.29795745332E+02  0.47787275426E+02  0.20000019979E+02 0.  0.
         12    1    1    2    0    0  0.12667912703E+02  0.28902602675E+02 -0.29795745332E+02  0.43400724574E+02  0.00000000000E+00 0. -1.
         11    1    3    3    0    0 -0.85345231227E+01 -0.21535126331E+02  0.16398228632E+02  0.28381361024E+02  0.51100000000E-03 0. -1.
        -11    1    3    3    0    0 -0.68526246376E+01 -0.85540817321E+01  0.11487205877E+02  0.15877237727E+02  0.51100000000E-03 0.  1.
         12    1    3    3    0    0  0.27192350573E+01  0.11866053882E+01  0.19103108220E+01  0.35286766756E+01  0.00000000000E+00 0. -1.
</event>
<event>
 7    1  0.2455451E-009  0.4778726E+02  0.7816164E-02  0.1312668E+00
        -11   -1    0    0    0    0  0.00000000000E+00  0.00000000000E+00  0.45593999997E+02  0.45594000000E+02  0.51100000000E-03 0. -1.
         11   -1    0    0    0    0 -0.00000000000E+00 -0.00000000000E+00 -0.45593999997E+02  0.45594000000E+02  0.51100000000E-03 0.  1.
    9900012    2    1    2    0    0 -0.29495536124E+01  0.43166341464E+02  0.34045646786E+01  0.47787263111E+02  0.19999963827E+02 0.  0.
         12    1    1    2    0    0  0.29495536124E+01 -0.43166341464E+02 -0.34045646786E+01  0.43400736889E+02  0.00000000000E+00 0. -1.
         11    1    3    3    0    0  0.13038799743E+01  0.51874133821E+01  0.20180842552E+01  0.57168194747E+01  0.51100000000E-03 0. -1.
        -11    1    3    3    0    0  0.48723017160E+01  0.23218658213E+02  0.52355233880E+01  0.24295187149E+02  0.51100000000E-03 0.  1.
        -12    1    3    3    0    0 -0.91257353027E+01  0.14760269869E+02 -0.38490429646E+01  0.17775256487E+02  0.00000000000E+00 0.  1.
</event>
<event>
 7    1  0.2455451E-009  0.4778727E+02  0.7816164E-02  0.1312668E+00
        -11   -1    0    0    0    0  0.00000000000E+00  0.00000000000E+00  0.45593999997E+02  0.45594000000E+02  0.51100000000E-03 0.  1.
         11   -1    0    0    0    0 -0.00000000000E+00 -0.00000000000E+00 -0.45593999997E+02  0.45594000000E+02  0.51100000000E-03 0. -1.
    9900012    2    1    2    0    0  0.32810055764E+02 -0.28007272997E+02 -0.47661893509E+01  0.47787266586E+02  0.19999979673E+02 0.  0.
         12    1    1    2    0    0 -0.32810055764E+02  0.28007272997E+02  0.47661893509E+01  0.43400733414E+02  0.00000000000E+00 0. -1.
         11    1    3    3    0    0  0.27270802238E+02 -0.16926255912E+02 -0.66504403973E+01  0.32778394586E+02  0.51100000000E-03 0. -1.
        -11    1    3    3    0    0  0.10832137357E+01  0.81789732071E+00  0.18604212840E+01  0.23029276236E+01  0.51100000000E-03 0.  1.
         12    1    3    3    0    0  0.44560397902E+01 -0.11898914406E+02  0.23829762342E-01  0.12705944377E+02  0.00000000000E+00 0. -1.
</event>
<event>
 7    1  0.2455451E-009  0.4778730E+02  0.7816164E-02  0.1312668E+00
        -11   -1    0    0    0    0  0.00000000000E+00  0.00000000000E+00  0.45593999997E+02  0.45594000000E+02  0.51100000000E-03 0.  1.
         11   -1    0    0    0    0 -0.00000000000E+00 -0.00000000000E+00 -0.45593999997E+02  0.45594000000E+02  0.51100000000E-03 0. -1.
    9900012    2    1    2    0    0 -0.19752979768E+02  0.17517397712E+02  0.34446788342E+02  0.47787301165E+02  0.20000137329E+02 0.  0.
         12    1    1    2    0    0  0.19752979768E+02 -0.17517397712E+02 -0.34446788342E+02  0.43400698835E+02  0.00000000000E+00 0. -1.
         11    1    3    3    0    0 -0.99091336853E+01  0.10915385050E+01  0.40872993368E+01  0.10774432831E+02  0.51100000000E-03 0. -1.
        -11    1    3    3    0    0 -0.46678097469E+01  0.69959240529E+01  0.21468493361E+02  0.23057051170E+02  0.51100000000E-03 0.  1.
         12    1    3    3    0    0 -0.51760363362E+01  0.94299351542E+01  0.88909956438E+01  0.13955817164E+02  0.00000000000E+00 0. -1.
</event>
<event>
 7    1  0.2455451E-009  0.4778727E+02  0.7816164E-02  0.1312668E+00
        -11   -1    0    0    0    0  0.00000000000E+00  0.00000000000E+00  0.45593999997E+02  0.45594000000E+02  0.51100000000E-03 0. -1.
         11   -1    0    0    0    0 -0.00000000000E+00 -0.00000000000E+00 -0.45593999997E+02  0.45594000000E+02  0.51100000000E-03 0.  1.
    9900012    2    1    2    0    0 -0.13384157591E+02 -0.30089658345E+02 -0.28268358446E+02  0.47787270709E+02  0.19999998472E+02 0.  0.
         12    1    1    2    0    0  0.13384157591E+02  0.30089658345E+02  0.28268358446E+02  0.43400729291E+02  0.00000000000E+00 0. -1.
         11    1    3    3    0    0 -0.12564771461E+02 -0.98824821361E+01 -0.52941210621E+01  0.16839378050E+02  0.51100000000E-03 0. -1.
        -11    1    3    3    0    0  0.33552749953E-01 -0.12424368268E+02 -0.17206674606E+02  0.21223470590E+02  0.51100000000E-03 0.  1.
        -12    1    3    3    0    0 -0.85293888045E+00 -0.77828079412E+01 -0.57675627774E+01  0.97244220690E+01  0.00000000000E+00 0.  1.
</event>
<event>
 7    1  0.2455451E-009  0.4778725E+02  0.7816164E-02  0.1312668E+00
        -11   -1    0    0    0    0  0.00000000000E+00  0.00000000000E+00  0.45593999997E+02  0.45594000000E+02  0.51100000000E-03 0.  1.
         11   -1    0    0    0    0 -0.00000000000E+00 -0.00000000000E+00 -0.45593999997E+02  0.45594000000E+02  0.51100000000E-03 0. -1.
    9900012    2    1    2    0    0  0.32746062581E+02  0.32187362528E+01  0.28301246624E+02  0.47787246112E+02  0.19999886321E+02 0.  0.
         12    1    1    2    0    0 -0.32746062581E+02 -0.32187362528E+01 -0.28301246624E+02  0.43400753888E+02  0.00000000000E+00 0. -1.
         11    1    3    3    0    0  0.40137709469E+01 -0.15503010725E+01  0.30506068171E+00  0.43135661477E+01  0.51100000000E-03 0. -1.
        -11    1    3    3    0    0  0.35377390035E+01 -0.50492058713E+01  0.61899212196E+01  0.87364295998E+01  0.51100000000E-03 0.  1.
        -12    1    3    3    0    0  0.25194552631E+02  0.98182431966E+01  0.21806264722E+02  0.34737250364E+02  0.00000000000E+00 0.  1.
</event>
<event>
 7    1  0.2455451E-009  0.4778727E+02  0.7816164E-02  0.1312668E+00
        -11   -1    0    0    0    0  0.00000000000E+00  0.00000000000E+00  0.45593999997E+02  0.45594000000E+02  0.51100000000E-03 0. -1.
         11   -1    0    0    0    0 -0.00000000000E+00 -0.00000000000E+00 -0.45593999997E+02  0.45594000000E+02  0.51100000000E-03 0.  1.
    9900012    2    1    2    0    0  0.12527650555E+02  0.34900218886E+02 -0.22553407551E+02  0.47787268452E+02  0.19999988180E+02 0.  0.
         12    1    1    2    0    0 -0.12527650555E+02 -0.34900218886E+02  0.22553407551E+02  0.43400731548E+02  0.00000000000E+00 0. -1.
         11    1    3    3    0    0 -0.40688826616E+01  0.85148798224E+01 -0.72988438769E+01  0.11930302037E+02  0.51100000000E-03 0. -1.
        -11    1    3    3    0    0  0.13967218907E+02  0.15116767978E+02 -0.12052471811E+02  0.23850827137E+02  0.51100000000E-03 0.  1.
        -12    1    3    3    0    0  0.26293143103E+01  0.11268571086E+02 -0.32020918628E+01  0.12006139278E+02  0.00000000000E+00 0.  1.
</event>
<event>
 7    1  0.2455451E-009  0.4778727E+02  0.7816164E-02  0.1312668E+00
        -11   -1    0    0    0    0  0.00000000000E+00  0.00000000000E+00  0.45593999997E+02  0.45594000000E+02  0.51100000000E-03 0.  1.
         11   -1    0    0    0    0 -0.00000000000E+00 -0.00000000000E+00 -0.45593999997E+02  0.45594000000E+02  0.51100000000E-03 0. -1.
    9900012    2    1    2    0    0 -0.12822107207E+02 -0.31655214498E+02  0.26779922800E+02  0.47787270705E+02  0.19999998453E+02 0.  0.
         12    1    1    2    0    0  0.12822107207E+02  0.31655214498E+02 -0.26779922800E+02  0.43400729295E+02  0.00000000000E+00 0. -1.
         11    1    3    3    0    0 -0.11522665602E+02 -0.15234115821E+02  0.10386780503E+02  0.21742477249E+02  0.51100000000E-03 0.  1.
        -11    1    3    3    0    0  0.33173495142E+01 -0.23320047629E+01  0.15740287960E+00  0.40580574098E+01  0.51100000000E-03 0. -1.
        -12    1    3    3    0    0 -0.46167911189E+01 -0.14089093914E+02  0.16235739418E+02  0.21986736047E+02  0.00000000000E+00 0.  1.
</event>
<event>
 7    1  0.2455451E-009  0.4778727E+02  0.7816164E-02  0.1312668E+00
        -11   -1    0    0    0    0  0.00000000000E+00  0.00000000000E+00  0.45593999997E+02  0.45594000000E+02  0.51100000000E-03 0.  1.
         11   -1    0    0    0    0 -0.00000000000E+00 -0.00000000000E+00 -0.45593999997E+02  0.45594000000E+02  0.51100000000E-03 0. -1.
    9900012    2    1    2    0    0 -0.58598116795E+01  0.41540137379E+02  0.11122174399E+02  0.47787272244E+02  0.20000005469E+02 0.  0.
         12    1    1    2    0    0  0.58598116795E+01 -0.41540137379E+02 -0.11122174399E+02  0.43400727756E+02  0.00000000000E+00 0. -1.
         11    1    3    3    0    0 -0.41027009050E+00  0.11099096081E+02  0.92199779061E+01  0.14434896889E+02  0.51100000000E-03 0.  1.
        -11    1    3    3    0    0 -0.37570902091E+01  0.28948195780E+02 -0.15453578611E+01  0.29231864411E+02  0.51100000000E-03 0. -1.
         12    1    3    3    0    0 -0.16924513799E+01  0.14928455188E+01  0.34475543540E+01  0.41205109440E+01  0.00000000000E+00 0. -1.
</event>
<event>
 7    1  0.2455451E-009  0.4778727E+02  0.7816164E-02  0.1312668E+00
        -11   -1    0    0    0    0  0.00000000000E+00  0.00000000000E+00  0.45593999997E+02  0.45594000000E+02  0.51100000000E-03 0.  1.
         11   -1    0    0    0    0 -0.00000000000E+00 -0.00000000000E+00 -0.45593999997E+02  0.45594000000E+02  0.51100000000E-03 0. -1.
    9900012    2    1    2    0    0  0.33409612863E+02 -0.15301298950E+02  0.23093105384E+02  0.47787268468E+02  0.19999988254E+02 0.  0.
         12    1    1    2    0    0 -0.33409612863E+02  0.15301298950E+02 -0.23093105384E+02  0.43400731532E+02  0.00000000000E+00 0. -1.
         11    1    3    3    0    0  0.93341856075E+01  0.82718428736E+00 -0.57591942205E+00  0.93884470623E+01  0.51100000000E-03 0. -1.
        -11    1    3    3    0    0  0.13614291048E+02 -0.74746227880E+01  0.17756828870E+02  0.23590758325E+02  0.51100000000E-03 0.  1.
         12    1    3    3    0    0  0.10461136208E+02 -0.86538604489E+01  0.59121959362E+01  0.14808063081E+02  0.00000000000E+00 0. -1.
</event>
<event>
 7    1  0.2455451E-009  0.4778727E+02  0.7816164E-02  0.1312668E+00
        -11   -1    0    0    0    0  0.00000000000E+00  0.00000000000E+00  0.45593999997E+02  0.45594000000E+02  0.51100000000E-03 0.  1.
         11   -1    0    0    0    0 -0.00000000000E+00 -0.00000000000E+00 -0.45593999997E+02  0.45594000000E+02  0.51100000000E-03 0. -1.
    9900012    2    1    2    0    0 -0.14005115167E+02  0.37028843655E+02  0.17786088050E+02  0.47787269114E+02  0.19999991201E+02 0.  0.
         12    1    1    2    0    0  0.14005115167E+02 -0.37028843655E+02 -0.17786088050E+02  0.43400730886E+02  0.00000000000E+00 0. -1.
         11    1    3    3    0    0 -0.14985044131E+02  0.22127209063E+02  0.13381570329E+02  0.29886976315E+02  0.51100000000E-03 0. -1.
        -11    1    3    3    0    0  0.33941800728E+01  0.11199906827E+02  0.60626182697E+01  0.13180049766E+02  0.51100000000E-03 0.  1.
         12    1    3    3    0    0 -0.24142511082E+01  0.37017277653E+01 -0.16581005484E+01  0.47202430330E+01  0.00000000000E+00 0. -1.
</event>
<event>
 7    1  0.2455451E-009  0.4778727E+02  0.7816164E-02  0.1312668E+00
        -11   -1    0    0    0    0  0.00000000000E+00  0.00000000000E+00  0.45593999997E+02  0.45594000000E+02  0.51100000000E-03 0.  1.
         11   -1    0    0    0    0 -0.00000000000E+00 -0.00000000000E+00 -0.45593999997E+02  0.45594000000E+02  0.51100000000E-03 0. -1.
    9900012    2    1    2    0    0 -0.48485048239E+01 -0.42864601589E+02  0.47687536869E+01  0.47787273276E+02  0.20000010177E+02 0.  0.
         12    1    1    2    0    0  0.48485048239E+01  0.42864601589E+02 -0.47687536869E+01  0.43400726724E+02  0.00000000000E+00 0. -1.
         11    1    3    3    0    0 -0.88723104511E+01 -0.20966087164E+02 -0.21728554491E+01  0.22869543169E+02  0.51100000000E-03 0. -1.
        -11    1    3    3    0    0 -0.17497183440E+01 -0.13287573302E+02  0.24738947589E+01  0.13628693044E+02  0.51100000000E-03 0.  1.
         12    1    3    3    0    0  0.57735239711E+01 -0.86109411230E+01  0.44677143771E+01  0.11289037064E+02  0.00000000000E+00 0. -1.
</event>
<event>
 7    1  0.2455451E-009  0.4778727E+02  0.7816164E-02  0.1312668E+00
        -11   -1    0    0    0    0  0.00000000000E+00  0.00000000000E+00  0.45593999997E+02  0.45594000000E+02  0.51100000000E-03 0.  1.
         11   -1    0    0    0    0 -0.00000000000E+00 -0.00000000000E+00 -0.45593999997E+02  0.45594000000E+02  0.51100000000E-03 0. -1.
    9900012    2    1    2    0    0 -0.29577054991E+01  0.43128592196E+02  0.38470510445E+01  0.47787270877E+02  0.19999999239E+02 0.  0.
         12    1    1    2    0    0  0.29577054991E+01 -0.43128592196E+02 -0.38470510445E+01  0.43400729123E+02  0.00000000000E+00 0. -1.
         11    1    3    3    0    0 -0.49679971533E+01  0.37044745643E+01  0.23802685104E+01  0.66385093172E+01  0.51100000000E-03 0. -1.
        -11    1    3    3    0    0  0.24643951965E+01  0.18466824221E+02 -0.48573898246E+01  0.19253339364E+02  0.51100000000E-03 0.  1.
        -12    1    3    3    0    0 -0.45410354240E+00  0.20957293411E+02  0.63241723587E+01  0.21895422196E+02  0.00000000000E+00 0.  1.
</event>
<event>
 7    1  0.2455451E-009  0.4778727E+02  0.7816164E-02  0.1312668E+00
        -11   -1    0    0    0    0  0.00000000000E+00  0.00000000000E+00  0.45593999997E+02  0.45594000000E+02  0.51100000000E-03 0. -1.
         11   -1    0    0    0    0 -0.00000000000E+00 -0.00000000000E+00 -0.45593999997E+02  0.45594000000E+02  0.51100000000E-03 0.  1.
    9900012    2    1    2    0    0  0.23603870269E+02 -0.30349932766E+02 -0.20133611762E+02  0.47787269209E+02  0.19999991632E+02 0.  0.
         12    1    1    2    0    0 -0.23603870269E+02  0.30349932766E+02  0.20133611762E+02  0.43400730791E+02  0.00000000000E+00 0. -1.
         11    1    3    3    0    0 -0.28724130536E+00 -0.78718265554E+01 -0.35890687064E+01  0.86561871125E+01  0.51100000000E-03 0. -1.
        -11    1    3    3    0    0  0.21266501907E+02 -0.12523152110E+02 -0.86294458449E+01  0.26144995276E+02  0.51100000000E-03 0.  1.
        -12    1    3    3    0    0  0.26246096675E+01 -0.99549541002E+01 -0.79150972112E+01  0.12986086820E+02  0.00000000000E+00 0.  1.
</event>
<event>
 7    1  0.2455451E-009  0.4778727E+02  0.7816164E-02  0.1312668E+00
        -11   -1    0    0    0    0  0.00000000000E+00  0.00000000000E+00  0.45593999997E+02  0.45594000000E+02  0.51100000000E-03 0. -1.
         11   -1    0    0    0    0 -0.00000000000E+00 -0.00000000000E+00 -0.45593999997E+02  0.45594000000E+02  0.51100000000E-03 0.  1.
    9900012    2    1    2    0    0 -0.19396574853E+02  0.37113512323E+01 -0.38647411936E+02  0.47787266212E+02  0.19999977969E+02 0.  0.
         12    1    1    2    0    0  0.19396574853E+02 -0.37113512323E+01  0.38647411936E+02  0.43400733788E+02  0.00000000000E+00 0. -1.
         11    1    3    3    0    0 -0.21906554015E+01 -0.18803384320E+01 -0.12506277294E+00  0.28896859112E+01  0.51100000000E-03 0. -1.
        -11    1    3    3    0    0 -0.18823951964E+02  0.75892284967E+01 -0.32080635109E+02  0.37961884911E+02  0.51100000000E-03 0.  1.
        -12    1    3    3    0    0  0.16180325130E+01 -0.19975388324E+01 -0.64417140531E+01  0.69356953900E+01  0.00000000000E+00 0.  1.
</event>
<event>
 7    1  0.2455451E-009  0.4778727E+02  0.7816164E-02  0.1312668E+00
        -11   -1    0    0    0    0  0.00000000000E+00  0.00000000000E+00  0.45593999997E+02  0.45594000000E+02  0.51100000000E-03 0. -1.
         11   -1    0    0    0    0 -0.00000000000E+00 -0.00000000000E+00 -0.45593999997E+02  0.45594000000E+02  0.51100000000E-03 0.  1.
    9900012    2    1    2    0    0 -0.41133451133E+02  0.10796189894E+02 -0.86663255985E+01  0.47787265931E+02  0.19999976686E+02 0.  0.
         12    1    1    2    0    0  0.41133451133E+02 -0.10796189894E+02  0.86663255985E+01  0.43400734069E+02  0.00000000000E+00 0. -1.
         11    1    3    3    0    0 -0.92822086083E+01  0.93947687400E+01 -0.75021783241E+00  0.13228148146E+02  0.51100000000E-03 0. -1.
        -11    1    3    3    0    0 -0.18082455764E+02 -0.45406957702E+01 -0.43363338998E+01  0.19141497238E+02  0.51100000000E-03 0.  1.
        -12    1    3    3    0    0 -0.13768786761E+02  0.59421169241E+01 -0.35797738663E+01  0.15417620547E+02  0.00000000000E+00 0.  1.
</event>
<event>
 7    1  0.2455451E-009  0.4778721E+02  0.7816164E-02  0.1312668E+00
        -11   -1    0    0    0    0  0.00000000000E+00  0.00000000000E+00  0.45593999997E+02  0.45594000000E+02  0.51100000000E-03 0.  1.
         11   -1    0    0    0    0 -0.00000000000E+00 -0.00000000000E+00 -0.45593999997E+02  0.45594000000E+02  0.51100000000E-03 0. -1.
    9900012    2    1    2    0    0  0.59526747593E+01  0.40726866681E+02  0.13766489020E+02  0.47787213989E+02  0.19999739858E+02 0.  0.
         12    1    1    2    0    0 -0.59526747593E+01 -0.40726866681E+02 -0.13766489020E+02  0.43400786011E+02  0.00000000000E+00 0. -1.
         11    1    3    3    0    0  0.23152164137E+00  0.24300883441E+02  0.12489729344E+02  0.27323613920E+02  0.51100000000E-03 0.  1.
        -11    1    3    3    0    0  0.35267934395E+01  0.86207059692E+00 -0.23603408422E+01  0.43304326379E+01  0.51100000000E-03 0. -1.
        -12    1    3    3    0    0  0.21943596784E+01  0.15563912644E+02  0.36371005178E+01  0.16133167431E+02  0.00000000000E+00 0.  1.
</event>
<event>
 7    1  0.2455451E-009  0.4778727E+02  0.7816164E-02  0.1312668E+00
        -11   -1    0    0    0    0  0.00000000000E+00  0.00000000000E+00  0.45593999997E+02  0.45594000000E+02  0.51100000000E-03 0.  1.
         11   -1    0    0    0    0 -0.00000000000E+00 -0.00000000000E+00 -0.45593999997E+02  0.45594000000E+02  0.51100000000E-03 0. -1.
    9900012    2    1    2    0    0  0.36106902885E+02  0.18020335821E+02  0.15974430367E+02  0.47787270000E+02  0.19999995236E+02 0.  0.
         12    1    1    2    0    0 -0.36106902885E+02 -0.18020335821E+02 -0.15974430367E+02  0.43400730000E+02  0.00000000000E+00 0. -1.
         11    1    3    3    0    0  0.23181317273E+02  0.11377278805E+02  0.47602422282E+01  0.26257872150E+02  0.51100000000E-03 0. -1.
        -11    1    3    3    0    0  0.14200165791E+02  0.37613412345E+01  0.11035728363E+02  0.18373342024E+02  0.51100000000E-03 0.  1.
         12    1    3    3    0    0 -0.12745801794E+01  0.28817157819E+01  0.17845977540E+00  0.31560558253E+01  0.00000000000E+00 0. -1.
</event>
<event>
 7    1  0.2455451E-009  0.4778727E+02  0.7816164E-02  0.1312668E+00
        -11   -1    0    0    0    0  0.00000000000E+00  0.00000000000E+00  0.45593999997E+02  0.45594000000E+02  0.51100000000E-03 0.  1.
         11   -1    0    0    0    0 -0.00000000000E+00 -0.00000000000E+00 -0.45593999997E+02  0.45594000000E+02  0.51100000000E-03 0. -1.
    9900012    2    1    2    0    0  0.42069595345E+01  0.35554599859E+02  0.24531514733E+02  0.47787270803E+02  0.19999998901E+02 0.  0.
         12    1    1    2    0    0 -0.42069595345E+01 -0.35554599859E+02 -0.24531514733E+02  0.43400729197E+02  0.00000000000E+00 0. -1.
         11    1    3    3    0    0  0.26693440359E+01  0.26018571713E+02  0.19972347140E+02  0.32908754490E+02  0.51100000000E-03 0.  1.
        -11    1    3    3    0    0 -0.39166229924E+01  0.38362345423E+01  0.43301525588E+01  0.69861901328E+01  0.51100000000E-03 0. -1.
         12    1    3    3    0    0  0.54542384911E+01  0.56997936045E+01  0.22901503456E+00  0.78923261804E+01  0.00000000000E+00 0. -1.
</event>
<event>
 7    1  0.2455451E-009  0.4778728E+02  0.7816164E-02  0.1312668E+00
        -11   -1    0    0    0    0  0.00000000000E+00  0.00000000000E+00  0.45593999997E+02  0.45594000000E+02  0.51100000000E-03 0.  1.
         11   -1    0    0    0    0 -0.00000000000E+00 -0.00000000000E+00 -0.45593999997E+02  0.45594000000E+02  0.51100000000E-03 0. -1.
    9900012    2    1    2    0    0 -0.38099649715E+02 -0.19639809265E+02  0.68056379115E+01  0.47787284295E+02  0.20000060414E+02 0.  0.
         12    1    1    2    0    0  0.38099649715E+02  0.19639809265E+02 -0.68056379115E+01  0.43400715705E+02  0.00000000000E+00 0. -1.
         11    1    3    3    0    0 -0.82491892553E+00 -0.16045670253E+01  0.16045041733E+01  0.24144482756E+01  0.51100000000E-03 0. -1.
        -11    1    3    3    0    0 -0.35507496082E+01  0.15522799552E+01 -0.37134658019E+01  0.53672361940E+01  0.51100000000E-03 0.  1.
        -12    1    3    3    0    0 -0.33723981181E+02 -0.19587522194E+02  0.89145995401E+01  0.40005599825E+02  0.00000000000E+00 0.  1.
</event>
<event>
 7    1  0.2455451E-009  0.4778727E+02  0.7816164E-02  0.1312668E+00
        -11   -1    0    0    0    0  0.00000000000E+00  0.00000000000E+00  0.45593999997E+02  0.45594000000E+02  0.51100000000E-03 0. -1.
         11   -1    0    0    0    0 -0.00000000000E+00 -0.00000000000E+00 -0.45593999997E+02  0.45594000000E+02  0.51100000000E-03 0.  1.
    9900012    2    1    2    0    0 -0.29362057226E+02  0.24230706330E+02 -0.20841443876E+02  0.47787270552E+02  0.19999997755E+02 0.  0.
         12    1    1    2    0    0  0.29362057226E+02 -0.24230706330E+02  0.20841443876E+02  0.43400729448E+02  0.00000000000E+00 0. -1.
         11    1    3    3    0    0 -0.20353032870E+02  0.17496090039E+02 -0.16928260571E+02  0.31732083447E+02  0.51100000000E-03 0. -1.
        -11    1    3    3    0    0 -0.96682321835E+01  0.43775284031E+01 -0.65388247779E+01  0.12465700871E+02  0.51100000000E-03 0.  1.
         12    1    3    3    0    0  0.65920782817E+00  0.23570878883E+01  0.26256414735E+01  0.35894862336E+01  0.00000000000E+00 0. -1.
</event>
<event>
 7    1  0.2455451E-009  0.4778727E+02  0.7816164E-02  0.1312668E+00
        -11   -1    0    0    0    0  0.00000000000E+00  0.00000000000E+00  0.45593999997E+02  0.45594000000E+02  0.51100000000E-03 0.  1.
         11   -1    0    0    0    0 -0.00000000000E+00 -0.00000000000E+00 -0.45593999997E+02  0.45594000000E+02  0.51100000000E-03 0. -1.
    9900012    2    1    2    0    0 -0.59681336940E+01 -0.10535209157E+02  0.41677500436E+02  0.47787270809E+02  0.19999998924E+02 0.  0.
         12    1    1    2    0    0  0.59681336940E+01  0.10535209157E+02 -0.41677500436E+02  0.43400729191E+02  0.00000000000E+00 0. -1.
         11    1    3    3    0    0 -0.46464218594E+01  0.98579666474E+00  0.45817214822E+01  0.65994850679E+01  0.51100000000E-03 0. -1.
        -11    1    3    3    0    0  0.35709663807E+01 -0.68096333554E+01  0.31386792552E+02  0.32314913806E+02  0.51100000000E-03 0.  1.
        -12    1    3    3    0    0 -0.48926782153E+01 -0.47113724662E+01  0.57089864020E+01  0.88728719348E+01  0.00000000000E+00 0.  1.
</event>
<event>
 7    1  0.2455451E-009  0.4778728E+02  0.7816164E-02  0.1312668E+00
        -11   -1    0    0    0    0  0.00000000000E+00  0.00000000000E+00  0.45593999997E+02  0.45594000000E+02  0.51100000000E-03 0.  1.
         11   -1    0    0    0    0 -0.00000000000E+00 -0.00000000000E+00 -0.45593999997E+02  0.45594000000E+02  0.51100000000E-03 0. -1.
    9900012    2    1    2    0    0  0.38070782901E+01  0.13515849172E+02  0.41066419982E+02  0.47787275650E+02  0.20000021001E+02 0.  0.
         12    1    1    2    0    0 -0.38070782901E+01 -0.13515849172E+02 -0.41066419982E+02  0.43400724350E+02  0.00000000000E+00 0. -1.
         11    1    3    3    0    0  0.51013588685E+01 -0.24741643394E+01  0.13412374937E+02  0.14561495568E+02  0.51100000000E-03 0. -1.
        -11    1    3    3    0    0  0.12513481294E+01  0.12369038482E+02  0.25353108858E+02  0.28237193808E+02  0.51100000000E-03 0.  1.
         12    1    3    3    0    0 -0.25456287078E+01  0.36209750294E+01  0.23009361872E+01  0.49885862746E+01  0.00000000000E+00 0. -1.
</event>
<event>
 7    1  0.2455451E-009  0.4778727E+02  0.7816164E-02  0.1312668E+00
        -11   -1    0    0    0    0  0.00000000000E+00  0.00000000000E+00  0.45593999997E+02  0.45594000000E+02  0.51100000000E-03 0. -1.
         11   -1    0    0    0    0 -0.00000000000E+00 -0.00000000000E+00 -0.45593999997E+02  0.45594000000E+02  0.51100000000E-03 0.  1.
    9900012    2    1    2    0    0 -0.17678045806E+02 -0.29513626239E+02 -0.26458568852E+02  0.47787270709E+02  0.19999998473E+02 0.  0.
         12    1    1    2    0    0  0.17678045806E+02  0.29513626239E+02  0.26458568852E+02  0.43400729291E+02  0.00000000000E+00 0. -1.
         11    1    3    3    0    0 -0.46378848223E+01 -0.36045413835E+01  0.14602963158E+01  0.60526985553E+01  0.51100000000E-03 0. -1.
        -11    1    3    3    0    0 -0.59506433542E+01 -0.19783295703E+02 -0.23754974532E+02  0.31481546348E+02  0.51100000000E-03 0.  1.
         12    1    3    3    0    0 -0.70895176292E+01 -0.61257891519E+01 -0.41638906358E+01  0.10253025806E+02  0.00000000000E+00 0. -1.
</event>
<event>
 7    1  0.2455451E-009  0.4778727E+02  0.7816164E-02  0.1312668E+00
        -11   -1    0    0    0    0  0.00000000000E+00  0.00000000000E+00  0.45593999997E+02  0.45594000000E+02  0.51100000000E-03 0.  1.
         11   -1    0    0    0    0 -0.00000000000E+00 -0.00000000000E+00 -0.45593999997E+02  0.45594000000E+02  0.51100000000E-03 0. -1.
    9900012    2    1    2    0    0 -0.39269954811E+01  0.24597257308E+02  0.35541204060E+02  0.47787267902E+02  0.19999985674E+02 0.  0.
         12    1    1    2    0    0  0.39269954811E+01 -0.24597257308E+02 -0.35541204060E+02  0.43400732098E+02  0.00000000000E+00 0. -1.
         11    1    3    3    0    0 -0.30812620032E+01  0.67673536929E+01  0.28699917139E+01  0.79704519468E+01  0.51100000000E-03 0. -1.
        -11    1    3    3    0    0 -0.54494563747E+01  0.94528022213E+01  0.25894940290E+02  0.28099821663E+02  0.51100000000E-03 0.  1.
        -12    1    3    3    0    0  0.46037228968E+01  0.83771013941E+01  0.67762720559E+01  0.11716994293E+02  0.00000000000E+00 0.  1.
</event>
<event>
 7    1  0.2455451E-009  0.4778726E+02  0.7816164E-02  0.1312668E+00
        -11   -1    0    0    0    0  0.00000000000E+00  0.00000000000E+00  0.45593999997E+02  0.45594000000E+02  0.51100000000E-03 0.  1.
         11   -1    0    0    0    0 -0.00000000000E+00 -0.00000000000E+00 -0.45593999997E+02  0.45594000000E+02  0.51100000000E-03 0. -1.
    9900012    2    1    2    0    0 -0.64171626646E+01  0.30835815549E+02  0.29859613892E+02  0.47787262229E+02  0.19999959809E+02 0.  0.
         12    1    1    2    0    0  0.64171626646E+01 -0.30835815549E+02 -0.29859613892E+02  0.43400737771E+02  0.00000000000E+00 0. -1.
         11    1    3    3    0    0 -0.84125449127E+01  0.54330481824E+01  0.69159639684E+01  0.12170434764E+02  0.51100000000E-03 0.  1.
        -11    1    3    3    0    0  0.56127645980E+01  0.17553658084E+02  0.13709847261E+02  0.22969413374E+02  0.51100000000E-03 0. -1.
         12    1    3    3    0    0 -0.36173823499E+01  0.78491092826E+01  0.92338026625E+01  0.12647414092E+02  0.00000000000E+00 0. -1.
</event>
<event>
 7    1  0.2455451E-009  0.4778727E+02  0.7816164E-02  0.1312668E+00
        -11   -1    0    0    0    0  0.00000000000E+00  0.00000000000E+00  0.45593999997E+02  0.45594000000E+02  0.51100000000E-03 0.  1.
         11   -1    0    0    0    0 -0.00000000000E+00 -0.00000000000E+00 -0.45593999997E+02  0.45594000000E+02  0.51100000000E-03 0. -1.
    9900012    2    1    2    0    0 -0.25588019326E+02 -0.28443989000E+02  0.20489414537E+02  0.47787270152E+02  0.19999995931E+02 0.  0.
         12    1    1    2    0    0  0.25588019326E+02  0.28443989000E+02 -0.20489414537E+02  0.43400729848E+02  0.00000000000E+00 0. -1.
         11    1    3    3    0    0 -0.11484633117E+00  0.50899478236E+00  0.41104372503E+01  0.41434237073E+01  0.51100000000E-03 0. -1.
        -11    1    3    3    0    0 -0.24752774670E+02 -0.24826381478E+02  0.17671734206E+02  0.39259893802E+02  0.51100000000E-03 0.  1.
        -12    1    3    3    0    0 -0.72039832389E+00 -0.41266023043E+01 -0.12927569194E+01  0.43839526430E+01  0.00000000000E+00 0.  1.
</event>
<event>
 7    1  0.2455451E-009  0.4778727E+02  0.7816164E-02  0.1312668E+00
        -11   -1    0    0    0    0  0.00000000000E+00  0.00000000000E+00  0.45593999997E+02  0.45594000000E+02  0.51100000000E-03 0. -1.
         11   -1    0    0    0    0 -0.00000000000E+00 -0.00000000000E+00 -0.45593999997E+02  0.45594000000E+02  0.51100000000E-03 0.  1.
    9900012    2    1    2    0    0 -0.12856963095E+02 -0.24371693317E+02 -0.33531213587E+02  0.47787271668E+02  0.20000002841E+02 0.  0.
         12    1    1    2    0    0  0.12856963095E+02  0.24371693317E+02  0.33531213587E+02  0.43400728332E+02  0.00000000000E+00 0. -1.
         11    1    3    3    0    0 -0.14074760299E+01 -0.19077883652E+00 -0.38047001457E+01  0.40611733278E+01  0.51100000000E-03 0. -1.
        -11    1    3    3    0    0 -0.81707646432E+01 -0.60151517217E+01 -0.18829045611E+01  0.10319339850E+02  0.51100000000E-03 0.  1.
        -12    1    3    3    0    0 -0.32787224217E+01 -0.18165762759E+02 -0.27843608880E+02  0.33406758490E+02  0.00000000000E+00 0.  1.
</event>
<event>
 7    1  0.2455451E-009  0.4778727E+02  0.7816164E-02  0.1312668E+00
        -11   -1    0    0    0    0  0.00000000000E+00  0.00000000000E+00  0.45593999997E+02  0.45594000000E+02  0.51100000000E-03 0.  1.
         11   -1    0    0    0    0 -0.00000000000E+00 -0.00000000000E+00 -0.45593999997E+02  0.45594000000E+02  0.51100000000E-03 0. -1.
    9900012    2    1    2    0    0 -0.78952092080E+01 -0.42666739444E+02 -0.91556646375E+00  0.47787271375E+02  0.20000001508E+02 0.  0.
         12    1    1    2    0    0  0.78952092080E+01  0.42666739444E+02  0.91556646375E+00  0.43400728625E+02  0.00000000000E+00 0. -1.
         11    1    3    3    0    0  0.44004463025E+00 -0.82726716739E+01  0.35703651256E+01  0.90209890418E+01  0.51100000000E-03 0. -1.
        -11    1    3    3    0    0 -0.72088998708E+01 -0.20317279960E+02  0.45067572463E+01  0.22024326629E+02  0.51100000000E-03 0.  1.
         12    1    3    3    0    0 -0.11263539674E+01 -0.14076787810E+02 -0.89926888356E+01  0.16741955704E+02  0.00000000000E+00 0. -1.
</event>
<event>
 7    1  0.2455451E-009  0.4778726E+02  0.7816164E-02  0.1312668E+00
        -11   -1    0    0    0    0  0.00000000000E+00  0.00000000000E+00  0.45593999997E+02  0.45594000000E+02  0.51100000000E-03 0.  1.
         11   -1    0    0    0    0 -0.00000000000E+00 -0.00000000000E+00 -0.45593999997E+02  0.45594000000E+02  0.51100000000E-03 0. -1.
    9900012    2    1    2    0    0  0.25052211717E+02 -0.46012012062E+01  0.35140290158E+02  0.47787258568E+02  0.19999943115E+02 0.  0.
         12    1    1    2    0    0 -0.25052211717E+02  0.46012012062E+01 -0.35140290158E+02  0.43400741432E+02  0.00000000000E+00 0. -1.
         11    1    3    3    0    0  0.37571201843E+01 -0.66071977598E+01  0.16016162369E+01  0.77676372950E+01  0.51100000000E-03 0. -1.
        -11    1    3    3    0    0  0.11740265521E+02 -0.10839128203E+01  0.17850835655E+02  0.21393013704E+02  0.51100000000E-03 0.  1.
         12    1    3    3    0    0  0.95548260126E+01  0.30899093738E+01  0.15687838266E+02  0.18626607569E+02  0.00000000000E+00 0. -1.
</event>
<event>
 7    1  0.2455451E-009  0.4778725E+02  0.7816164E-02  0.1312668E+00
        -11   -1    0    0    0    0  0.00000000000E+00  0.00000000000E+00  0.45593999997E+02  0.45594000000E+02  0.51100000000E-03 0. -1.
         11   -1    0    0    0    0 -0.00000000000E+00 -0.00000000000E+00 -0.45593999997E+02  0.45594000000E+02  0.51100000000E-03 0.  1.
    9900012    2    1    2    0    0  0.27921484304E+02 -0.81985978511E+01 -0.32199365497E+02  0.47787246195E+02  0.19999886700E+02 0.  0.
         12    1    1    2    0    0 -0.27921484304E+02  0.81985978511E+01  0.32199365497E+02  0.43400753805E+02  0.00000000000E+00 0. -1.
         11    1    3    3    0    0  0.44924092953E+01 -0.65711344144E+01 -0.56821399629E+01  0.97799930259E+01  0.51100000000E-03 0. -1.
        -11    1    3    3    0    0  0.22409760142E+02 -0.17462653746E+01 -0.16366633463E+02  0.27804918334E+02  0.51100000000E-03 0.  1.
        -12    1    3    3    0    0  0.10193148670E+01  0.11880193783E+00 -0.10150592071E+02  0.10202334835E+02  0.00000000000E+00 0.  1.
</event>
<event>
 7    1  0.2455451E-009  0.4778727E+02  0.7816164E-02  0.1312668E+00
        -11   -1    0    0    0    0  0.00000000000E+00  0.00000000000E+00  0.45593999997E+02  0.45594000000E+02  0.51100000000E-03 0.  1.
         11   -1    0    0    0    0 -0.00000000000E+00 -0.00000000000E+00 -0.45593999997E+02  0.45594000000E+02  0.51100000000E-03 0. -1.
    9900012    2    1    2    0    0 -0.31131835238E+02 -0.73195294165E+01  0.29340360223E+02  0.47787269428E+02  0.19999992631E+02 0.  0.
         12    1    1    2    0    0  0.31131835238E+02  0.73195294165E+01 -0.29340360223E+02  0.43400730572E+02  0.00000000000E+00 0. -1.
         11    1    3    3    0    0  0.38353214556E+00  0.19294771924E+01  0.10292461048E+01  0.22202087622E+01  0.51100000000E-03 0. -1.
        -11    1    3    3    0    0 -0.27523661982E+02 -0.26004613695E+01  0.24437679734E+02  0.36898706743E+02  0.51100000000E-03 0.  1.
        -12    1    3    3    0    0 -0.39917054014E+01 -0.66485452394E+01  0.38734343842E+01  0.86683539234E+01  0.00000000000E+00 0.  1.
</event>
<event>
 7    1  0.2455451E-009  0.4778727E+02  0.7816164E-02  0.1312668E+00
        -11   -1    0    0    0    0  0.00000000000E+00  0.00000000000E+00  0.45593999997E+02  0.45594000000E+02  0.51100000000E-03 0. -1.
         11   -1    0    0    0    0 -0.00000000000E+00 -0.00000000000E+00 -0.45593999997E+02  0.45594000000E+02  0.51100000000E-03 0.  1.
    9900012    2    1    2    0    0  0.31368091413E+02 -0.25232251123E+02 -0.16217256709E+02  0.47787273384E+02  0.20000010668E+02 0.  0.
         12    1    1    2    0    0 -0.31368091413E+02  0.25232251123E+02  0.16217256709E+02  0.43400726616E+02  0.00000000000E+00 0. -1.
         11    1    3    3    0    0  0.12554162650E+02 -0.14270179232E+02  0.10908103442E+01  0.19037722622E+02  0.51100000000E-03 0. -1.
        -11    1    3    3    0    0  0.20402215289E+01 -0.28646542166E+01 -0.30534448137E+00  0.35301534217E+01  0.51100000000E-03 0.  1.
         12    1    3    3    0    0  0.16773707234E+02 -0.80974176742E+01 -0.17002722572E+02  0.25219397340E+02  0.00000000000E+00 0. -1.
</event>
<event>
 7    1  0.2455451E-009  0.4778727E+02  0.7816164E-02  0.1312668E+00
        -11   -1    0    0    0    0  0.00000000000E+00  0.00000000000E+00  0.45593999997E+02  0.45594000000E+02  0.51100000000E-03 0. -1.
         11   -1    0    0    0    0 -0.00000000000E+00 -0.00000000000E+00 -0.45593999997E+02  0.45594000000E+02  0.51100000000E-03 0.  1.
    9900012    2    1    2    0    0 -0.42821950162E+02  0.62147337295E+01 -0.33586611571E+01  0.47787274939E+02  0.20000017757E+02 0.  0.
         12    1    1    2    0    0  0.42821950162E+02 -0.62147337295E+01  0.33586611571E+01  0.43400725061E+02  0.00000000000E+00 0. -1.
         11    1    3    3    0    0 -0.31623096073E+02  0.51635416843E+01  0.38736552313E+01  0.32275185098E+02  0.51100000000E-03 0. -1.
        -11    1    3    3    0    0 -0.10865477452E+02  0.33196815093E+01 -0.65759018927E+01  0.13127123506E+02  0.51100000000E-03 0.  1.
         12    1    3    3    0    0 -0.33337663752E+00 -0.22684894641E+01 -0.65641449572E+00  0.23849663355E+01  0.00000000000E+00 0. -1.
</event>
<event>
 7    1  0.2455451E-009  0.4778727E+02  0.7816164E-02  0.1312668E+00
        -11   -1    0    0    0    0  0.00000000000E+00  0.00000000000E+00  0.45593999997E+02  0.45594000000E+02  0.51100000000E-03 0.  1.
         11   -1    0    0    0    0 -0.00000000000E+00 -0.00000000000E+00 -0.45593999997E+02  0.45594000000E+02  0.51100000000E-03 0. -1.
    9900012    2    1    2    0    0 -0.17956436689E+02 -0.25895881043E+02  0.29842805093E+02  0.47787270865E+02  0.19999999184E+02 0.  0.
         12    1    1    2    0    0  0.17956436689E+02  0.25895881043E+02 -0.29842805093E+02  0.43400729135E+02  0.00000000000E+00 0. -1.
         11    1    3    3    0    0 -0.16230852778E+01 -0.16042526100E+02  0.14907460223E+02  0.21959722677E+02  0.51100000000E-03 0. -1.
        -11    1    3    3    0    0 -0.58546441252E+01  0.88449307727E+00  0.56438088706E+01  0.81799611652E+01  0.51100000000E-03 0.  1.
         12    1    3    3    0    0 -0.10478707286E+02 -0.10737848021E+02  0.92915359994E+01  0.17647587023E+02  0.00000000000E+00 0. -1.
</event>
<event>
 7    1  0.2455451E-009  0.4778727E+02  0.7816164E-02  0.1312668E+00
        -11   -1    0    0    0    0  0.00000000000E+00  0.00000000000E+00  0.45593999997E+02  0.45594000000E+02  0.51100000000E-03 0. -1.
         11   -1    0    0    0    0 -0.00000000000E+00 -0.00000000000E+00 -0.45593999997E+02  0.45594000000E+02  0.51100000000E-03 0.  1.
    9900012    2    1    2    0    0  0.26998393876E+01 -0.42967065294E+02 -0.54923208316E+01  0.47787269352E+02  0.19999992282E+02 0.  0.
         12    1    1    2    0    0 -0.26998393876E+01  0.42967065294E+02  0.54923208316E+01  0.43400730648E+02  0.00000000000E+00 0. -1.
         11    1    3    3    0    0  0.52273009679E+01 -0.25742681379E+02 -0.14999646962E+01  0.26310838344E+02  0.51100000000E-03 0.  1.
        -11    1    3    3    0    0 -0.46535302452E+01 -0.15589222723E+02 -0.67644070731E+01  0.17619205776E+02  0.51100000000E-03 0. -1.
         12    1    3    3    0    0  0.21260686649E+01 -0.16351611913E+01  0.27720509376E+01  0.38572252320E+01  0.00000000000E+00 0. -1.
</event>
<event>
 7    1  0.2455451E-009  0.4778727E+02  0.7816164E-02  0.1312668E+00
        -11   -1    0    0    0    0  0.00000000000E+00  0.00000000000E+00  0.45593999997E+02  0.45594000000E+02  0.51100000000E-03 0. -1.
         11   -1    0    0    0    0 -0.00000000000E+00 -0.00000000000E+00 -0.45593999997E+02  0.45594000000E+02  0.51100000000E-03 0.  1.
    9900012    2    1    2    0    0 -0.89192541536E+01 -0.25436791103E+02 -0.34015287248E+02  0.47787271862E+02  0.20000003729E+02 0.  0.
         12    1    1    2    0    0  0.89192541536E+01  0.25436791103E+02  0.34015287248E+02  0.43400728138E+02  0.00000000000E+00 0. -1.
         11    1    3    3    0    0 -0.39133694911E+01 -0.18031383867E+02 -0.12495746035E+02  0.22284275491E+02  0.51100000000E-03 0.  1.
        -11    1    3    3    0    0 -0.63516795821E+01 -0.78809383287E+01 -0.21811886543E+02  0.24046027059E+02  0.51100000000E-03 0. -1.
         12    1    3    3    0    0  0.13457949196E+01  0.47553109254E+00  0.29234532982E+00  0.14569693125E+01  0.00000000000E+00 0. -1.
</event>
<event>
 7    1  0.2455451E-009  0.4778727E+02  0.7816164E-02  0.1312668E+00
        -11   -1    0    0    0    0  0.00000000000E+00  0.00000000000E+00  0.45593999997E+02  0.45594000000E+02  0.51100000000E-03 0. -1.
         11   -1    0    0    0    0 -0.00000000000E+00 -0.00000000000E+00 -0.45593999997E+02  0.45594000000E+02  0.51100000000E-03 0.  1.
    9900012    2    1    2    0    0  0.30248987146E+02 -0.30838761455E+02 -0.41943623257E+01  0.47787272970E+02  0.20000008778E+02 0.  0.
         12    1    1    2    0    0 -0.30248987146E+02  0.30838761455E+02  0.41943623257E+01  0.43400727030E+02  0.00000000000E+00 0. -1.
         11    1    3    3    0    0  0.29303767324E+01 -0.77584642995E+01  0.53299703804E+01  0.98584715143E+01  0.51100000000E-03 0. -1.
        -11    1    3    3    0    0  0.17688651140E+02 -0.18436932627E+02 -0.38917847574E+01  0.25844822551E+02  0.51100000000E-03 0.  1.
         12    1    3    3    0    0  0.96299592739E+01 -0.46433645283E+01 -0.56325479487E+01  0.12083978904E+02  0.00000000000E+00 0. -1.
</event>
<event>
 7    1  0.2455451E-009  0.4778727E+02  0.7816164E-02  0.1312668E+00
        -11   -1    0    0    0    0  0.00000000000E+00  0.00000000000E+00  0.45593999997E+02  0.45594000000E+02  0.51100000000E-03 0.  1.
         11   -1    0    0    0    0 -0.00000000000E+00 -0.00000000000E+00 -0.45593999997E+02  0.45594000000E+02  0.51100000000E-03 0. -1.
    9900012    2    1    2    0    0  0.46753140630E+01  0.86014119872E+01  0.42282152620E+02  0.47787270975E+02  0.19999999683E+02 0.  0.
         12    1    1    2    0    0 -0.46753140630E+01 -0.86014119872E+01 -0.42282152620E+02  0.43400729025E+02  0.00000000000E+00 0. -1.
         11    1    3    3    0    0 -0.34634292454E+01  0.50463921717E+01  0.26256878705E+01  0.66600039897E+01  0.51100000000E-03 0. -1.
        -11    1    3    3    0    0  0.51676484607E+01 -0.11598365027E+01  0.20880685158E+02  0.21541885346E+02  0.51100000000E-03 0.  1.
         12    1    3    3    0    0  0.29710948477E+01  0.47148563182E+01  0.18775779591E+02  0.19585381639E+02  0.00000000000E+00 0. -1.
</event>
<event>
 7    1  0.2455451E-009  0.4778727E+02  0.7816164E-02  0.1312668E+00
        -11   -1    0    0    0    0  0.00000000000E+00  0.00000000000E+00  0.45593999997E+02  0.45594000000E+02  0.51100000000E-03 0.  1.
         11   -1    0    0    0    0 -0.00000000000E+00 -0.00000000000E+00 -0.45593999997E+02  0.45594000000E+02  0.51100000000E-03 0. -1.
    9900012    2    1    2    0    0  0.28645617988E+02 -0.32565627873E+02  0.15911668958E+01  0.47787270044E+02  0.19999995439E+02 0.  0.
         12    1    1    2    0    0 -0.28645617988E+02  0.32565627873E+02 -0.15911668958E+01  0.43400729956E+02  0.00000000000E+00 0. -1.
         11    1    3    3    0    0  0.66445646484E+01 -0.11308866778E+02 -0.54052078419E+01  0.14186506943E+02  0.51100000000E-03 0. -1.
        -11    1    3    3    0    0  0.16241287790E+02 -0.10276548987E+02  0.86785022426E+01  0.21087989226E+02  0.51100000000E-03 0.  1.
        -12    1    3    3    0    0  0.57597655496E+01 -0.10980212108E+02 -0.16821275050E+01  0.12512773875E+02  0.00000000000E+00 0.  1.
</event>
<event>
 7    1  0.2455451E-009  0.4778730E+02  0.7816164E-02  0.1312668E+00
        -11   -1    0    0    0    0  0.00000000000E+00  0.00000000000E+00  0.45593999997E+02  0.45594000000E+02  0.51100000000E-03 0.  1.
         11   -1    0    0    0    0 -0.00000000000E+00 -0.00000000000E+00 -0.45593999997E+02  0.45594000000E+02  0.51100000000E-03 0. -1.
    9900012    2    1    2    0    0 -0.21030229318E+02 -0.34542886625E+00  0.37963542098E+02  0.47787304212E+02  0.20000151224E+02 0.  0.
         12    1    1    2    0    0  0.21030229318E+02  0.34542886625E+00 -0.37963542098E+02  0.43400695788E+02  0.00000000000E+00 0. -1.
         11    1    3    3    0    0 -0.10237806861E+02  0.94089838559E+01  0.21798243058E+02  0.25855464938E+02  0.51100000000E-03 0. -1.
        -11    1    3    3    0    0 -0.87085081943E+01 -0.61648664115E+01  0.11495543732E+02  0.15684107204E+02  0.51100000000E-03 0.  1.
         12    1    3    3    0    0 -0.20839142633E+01 -0.35895463107E+01  0.46697553080E+01  0.62477320693E+01  0.00000000000E+00 0. -1.
</event>
<event>
 7    1  0.2455451E-009  0.4778727E+02  0.7816164E-02  0.1312668E+00
        -11   -1    0    0    0    0  0.00000000000E+00  0.00000000000E+00  0.45593999997E+02  0.45594000000E+02  0.51100000000E-03 0. -1.
         11   -1    0    0    0    0 -0.00000000000E+00 -0.00000000000E+00 -0.45593999997E+02  0.45594000000E+02  0.51100000000E-03 0.  1.
    9900012    2    1    2    0    0 -0.37483263846E+01  0.37139303914E+02  0.22141496101E+02  0.47787266187E+02  0.19999977855E+02 0.  0.
         12    1    1    2    0    0  0.37483263846E+01 -0.37139303914E+02 -0.22141496101E+02  0.43400733813E+02  0.00000000000E+00 0. -1.
         11    1    3    3    0    0 -0.54840327225E+01  0.28920232417E+02  0.15785189367E+02  0.33400997913E+02  0.51100000000E-03 0. -1.
        -11    1    3    3    0    0  0.38161862095E+01  0.31537329497E+01 -0.11619142540E+01  0.50852093072E+01  0.51100000000E-03 0.  1.
        -12    1    3    3    0    0 -0.20804798716E+01  0.50653385471E+01  0.75182209882E+01  0.93010589677E+01  0.00000000000E+00 0.  1.
</event>
<event>
 7    1  0.2455451E-009  0.4778725E+02  0.7816164E-02  0.1312668E+00
        -11   -1    0    0    0    0  0.00000000000E+00  0.00000000000E+00  0.45593999997E+02  0.45594000000E+02  0.51100000000E-03 0.  1.
         11   -1    0    0    0    0 -0.00000000000E+00 -0.00000000000E+00 -0.45593999997E+02  0.45594000000E+02  0.51100000000E-03 0. -1.
    9900012    2    1    2    0    0  0.69967861389E+01 -0.13970338898E+01  0.42810256519E+02  0.47787253656E+02  0.19999920720E+02 0.  0.
         12    1    1    2    0    0 -0.69967861389E+01  0.13970338898E+01 -0.42810256519E+02  0.43400746344E+02  0.00000000000E+00 0. -1.
         11    1    3    3    0    0 -0.79579414013E+00  0.83484634640E+01  0.20493749496E+02  0.22143258549E+02  0.51100000000E-03 0. -1.
        -11    1    3    3    0    0  0.58828067850E+01 -0.60774274018E+01  0.15911610810E+02  0.18020041574E+02  0.51100000000E-03 0.  1.
         12    1    3    3    0    0  0.19097734940E+01 -0.36680699519E+01  0.64048962136E+01  0.76239535333E+01  0.00000000000E+00 0. -1.
</event>
<event>
 7    1  0.2455451E-009  0.4778727E+02  0.7816164E-02  0.1312668E+00
        -11   -1    0    0    0    0  0.00000000000E+00  0.00000000000E+00  0.45593999997E+02  0.45594000000E+02  0.51100000000E-03 0.  1.
         11   -1    0    0    0    0 -0.00000000000E+00 -0.00000000000E+00 -0.45593999997E+02  0.45594000000E+02  0.51100000000E-03 0. -1.
    9900012    2    1    2    0    0  0.25171252461E+02  0.82876275035E+00  0.35346067655E+02  0.47787270780E+02  0.19999998794E+02 0.  0.
         12    1    1    2    0    0 -0.25171252461E+02 -0.82876275035E+00 -0.35346067655E+02  0.43400729220E+02  0.00000000000E+00 0. -1.
         11    1    3    3    0    0 -0.94888272813E+00  0.16248584318E+01  0.53146684030E+01  0.56379290391E+01  0.51100000000E-03 0. -1.
        -11    1    3    3    0    0  0.25077436173E+02  0.73880313809E+00  0.20384796145E+02  0.32325895954E+02  0.51100000000E-03 0.  1.
        -12    1    3    3    0    0  0.10426990165E+01 -0.15348988195E+01  0.96466031072E+01  0.98234457871E+01  0.00000000000E+00 0.  1.
</event>
<event>
 7    1  0.2455451E-009  0.4778727E+02  0.7816164E-02  0.1312668E+00
        -11   -1    0    0    0    0  0.00000000000E+00  0.00000000000E+00  0.45593999997E+02  0.45594000000E+02  0.51100000000E-03 0.  1.
         11   -1    0    0    0    0 -0.00000000000E+00 -0.00000000000E+00 -0.45593999997E+02  0.45594000000E+02  0.51100000000E-03 0. -1.
    9900012    2    1    2    0    0  0.12128902518E+02 -0.34963357506E+01  0.41524555001E+02  0.47787270651E+02  0.19999998205E+02 0.  0.
         12    1    1    2    0    0 -0.12128902518E+02  0.34963357506E+01 -0.41524555001E+02  0.43400729349E+02  0.00000000000E+00 0. -1.
         11    1    3    3    0    0  0.31605532702E+00 -0.42846329466E+01  0.28131246128E+02  0.28457423978E+02  0.51100000000E-03 0. -1.
        -11    1    3    3    0    0  0.70483595346E+01  0.29226981524E+01  0.11449298454E+02  0.13758923358E+02  0.51100000000E-03 0.  1.
         12    1    3    3    0    0  0.47644876565E+01 -0.21344009564E+01  0.19440104191E+01  0.55709233150E+01  0.00000000000E+00 0. -1.
</event>
<event>
 7    1  0.2455451E-009  0.4778727E+02  0.7816164E-02  0.1312668E+00
        -11   -1    0    0    0    0  0.00000000000E+00  0.00000000000E+00  0.45593999997E+02  0.45594000000E+02  0.51100000000E-03 0.  1.
         11   -1    0    0    0    0 -0.00000000000E+00 -0.00000000000E+00 -0.45593999997E+02  0.45594000000E+02  0.51100000000E-03 0. -1.
    9900012    2    1    2    0    0 -0.39879981809E+02  0.15947998248E+02  0.62347246612E+01  0.47787269720E+02  0.19999993962E+02 0.  0.
         12    1    1    2    0    0  0.39879981809E+02 -0.15947998248E+02 -0.62347246612E+01  0.43400730280E+02  0.00000000000E+00 0. -1.
         11    1    3    3    0    0 -0.65536566230E+01  0.73650678791E+01 -0.34467493665E+01  0.10443884404E+02  0.51100000000E-03 0. -1.
        -11    1    3    3    0    0 -0.22953621434E+02  0.93286509826E+01  0.10503950024E+02  0.26911436834E+02  0.51100000000E-03 0.  1.
         12    1    3    3    0    0 -0.10372703752E+02 -0.74572061359E+00 -0.82247599651E+00  0.10431948482E+02  0.00000000000E+00 0. -1.
</event>
<event>
 7    1  0.2455451E-009  0.4778728E+02  0.7816164E-02  0.1312668E+00
        -11   -1    0    0    0    0  0.00000000000E+00  0.00000000000E+00  0.45593999997E+02  0.45594000000E+02  0.51100000000E-03 0. -1.
         11   -1    0    0    0    0 -0.00000000000E+00 -0.00000000000E+00 -0.45593999997E+02  0.45594000000E+02  0.51100000000E-03 0.  1.
    9900012    2    1    2    0    0 -0.15621885549E+01  0.13519042638E+02 -0.41211865963E+02  0.47787276008E+02  0.20000022629E+02 0.  0.
         12    1    1    2    0    0  0.15621885549E+01 -0.13519042638E+02  0.41211865963E+02  0.43400723992E+02  0.00000000000E+00 0. -1.
         11    1    3    3    0    0 -0.10498723921E+02  0.92144850901E+01 -0.24363510934E+02  0.28083991966E+02  0.51100000000E-03 0. -1.
        -11    1    3    3    0    0  0.70324580980E+01  0.39404579013E+01 -0.14978154216E+02  0.17009637837E+02  0.51100000000E-03 0.  1.
         12    1    3    3    0    0  0.19040772683E+01  0.36409964631E+00 -0.18702008134E+01  0.26936462052E+01  0.00000000000E+00 0. -1.
</event>
<event>
 7    1  0.2455451E-009  0.4778727E+02  0.7816164E-02  0.1312668E+00
        -11   -1    0    0    0    0  0.00000000000E+00  0.00000000000E+00  0.45593999997E+02  0.45594000000E+02  0.51100000000E-03 0.  1.
         11   -1    0    0    0    0 -0.00000000000E+00 -0.00000000000E+00 -0.45593999997E+02  0.45594000000E+02  0.51100000000E-03 0. -1.
    9900012    2    1    2    0    0  0.15421977395E+02 -0.12671876174E+00  0.40568085771E+02  0.47787273882E+02  0.20000012938E+02 0.  0.
         12    1    1    2    0    0 -0.15421977395E+02  0.12671876174E+00 -0.40568085771E+02  0.43400726118E+02  0.00000000000E+00 0. -1.
         11    1    3    3    0    0  0.14831135964E+02  0.10076884308E+01  0.22130789450E+02  0.26659892571E+02  0.51100000000E-03 0. -1.
        -11    1    3    3    0    0 -0.45549111957E+01 -0.30068112459E+00  0.12032785122E+02  0.12869558780E+02  0.51100000000E-03 0.  1.
        -12    1    3    3    0    0  0.51457526269E+01 -0.83372606795E+00  0.64045111994E+01  0.82578225312E+01  0.00000000000E+00 0.  1.
</event>
<event>
 7    1  0.2455451E-009  0.4778727E+02  0.7816164E-02  0.1312668E+00
        -11   -1    0    0    0    0  0.00000000000E+00  0.00000000000E+00  0.45593999997E+02  0.45594000000E+02  0.51100000000E-03 0.  1.
         11   -1    0    0    0    0 -0.00000000000E+00 -0.00000000000E+00 -0.45593999997E+02  0.45594000000E+02  0.51100000000E-03 0. -1.
    9900012    2    1    2    0    0  0.22639739670E+01  0.40668393023E+01  0.43150417154E+02  0.47787271198E+02  0.20000000699E+02 0.  0.
         12    1    1    2    0    0 -0.22639739670E+01 -0.40668393023E+01 -0.43150417154E+02  0.43400728802E+02  0.00000000000E+00 0. -1.
         11    1    3    3    0    0  0.27811080530E+01  0.14405552360E+01  0.38308104765E+01  0.49482189279E+01  0.51100000000E-03 0. -1.
        -11    1    3    3    0    0  0.46390085097E+01  0.75384096467E+01  0.28847574158E+02  0.30174998841E+02  0.51100000000E-03 0.  1.
        -12    1    3    3    0    0 -0.51561425957E+01 -0.49121255803E+01  0.10472032519E+02  0.12664053429E+02  0.00000000000E+00 0.  1.
</event>
<event>
 7    1  0.2455451E-009  0.4778732E+02  0.7816164E-02  0.1312668E+00
        -11   -1    0    0    0    0  0.00000000000E+00  0.00000000000E+00  0.45593999997E+02  0.45594000000E+02  0.51100000000E-03 0.  1.
         11   -1    0    0    0    0 -0.00000000000E+00 -0.00000000000E+00 -0.45593999997E+02  0.45594000000E+02  0.51100000000E-03 0. -1.
    9900012    2    1    2    0    0 -0.24088404756E+02 -0.27708750146E+02  0.23142876750E+02  0.47787322325E+02  0.20000233807E+02 0.  0.
         12    1    1    2    0    0  0.24088404756E+02  0.27708750146E+02 -0.23142876750E+02  0.43400677675E+02  0.00000000000E+00 0. -1.
         11    1    3    3    0    0 -0.15478073825E+02 -0.17311657913E+02  0.53960051912E+01  0.23840745402E+02  0.51100000000E-03 0. -1.
        -11    1    3    3    0    0 -0.98120716760E+01 -0.79748770764E+01  0.16913076489E+02  0.21116997219E+02  0.51100000000E-03 0.  1.
        -12    1    3    3    0    0  0.12017407447E+01 -0.24222151571E+01  0.83379507006E+00  0.28295797044E+01  0.00000000000E+00 0.  1.
</event>
<event>
 7    1  0.2455451E-009  0.4778727E+02  0.7816164E-02  0.1312668E+00
        -11   -1    0    0    0    0  0.00000000000E+00  0.00000000000E+00  0.45593999997E+02  0.45594000000E+02  0.51100000000E-03 0. -1.
         11   -1    0    0    0    0 -0.00000000000E+00 -0.00000000000E+00 -0.45593999997E+02  0.45594000000E+02  0.51100000000E-03 0.  1.
    9900012    2    1    2    0    0  0.20920072583E+02 -0.51200901416E+01 -0.37679682038E+02  0.47787271913E+02  0.20000003961E+02 0.  0.
         12    1    1    2    0    0 -0.20920072583E+02  0.51200901416E+01  0.37679682038E+02  0.43400728087E+02  0.00000000000E+00 0. -1.
         11    1    3    3    0    0  0.10678832861E+00 -0.47614282049E+01 -0.13982937101E+02  0.14771768091E+02  0.51100000000E-03 0. -1.
        -11    1    3    3    0    0  0.79326632840E+01 -0.36084826667E+01 -0.14290731727E+02  0.16738378281E+02  0.51100000000E-03 0.  1.
         12    1    3    3    0    0  0.12880620971E+02  0.32498207300E+01 -0.94060132107E+01  0.16277125541E+02  0.00000000000E+00 0. -1.
</event>
<event>
 7    1  0.2455451E-009  0.4778727E+02  0.7816164E-02  0.1312668E+00
        -11   -1    0    0    0    0  0.00000000000E+00  0.00000000000E+00  0.45593999997E+02  0.45594000000E+02  0.51100000000E-03 0.  1.
         11   -1    0    0    0    0 -0.00000000000E+00 -0.00000000000E+00 -0.45593999997E+02  0.45594000000E+02  0.51100000000E-03 0. -1.
    9900012    2    1    2    0    0 -0.43153206968E+02 -0.26258854890E+01  0.38116370320E+01  0.47787272782E+02  0.20000007921E+02 0.  0.
         12    1    1    2    0    0  0.43153206968E+02  0.26258854890E+01 -0.38116370320E+01  0.43400727218E+02  0.00000000000E+00 0. -1.
         11    1    3    3    0    0 -0.21370880000E+02  0.39373573317E+01  0.58211268280E+01  0.22496728929E+02  0.51100000000E-03 0.  1.
        -11    1    3    3    0    0 -0.21602684853E+02 -0.80264116900E+01 -0.31929702718E+00  0.23047803113E+02  0.51100000000E-03 0. -1.
         12    1    3    3    0    0 -0.17964211554E+00  0.14631688693E+01 -0.16901927688E+01  0.22427407397E+01  0.00000000000E+00 0. -1.
</event>
<event>
 7    1  0.2455451E-009  0.4778727E+02  0.7816164E-02  0.1312668E+00
        -11   -1    0    0    0    0  0.00000000000E+00  0.00000000000E+00  0.45593999997E+02  0.45594000000E+02  0.51100000000E-03 0. -1.
         11   -1    0    0    0    0 -0.00000000000E+00 -0.00000000000E+00 -0.45593999997E+02  0.45594000000E+02  0.51100000000E-03 0.  1.
    9900012    2    1    2    0    0  0.25506891311E+02  0.21994263704E+02 -0.27372869599E+02  0.47787272698E+02  0.20000007538E+02 0.  0.
         12    1    1    2    0    0 -0.25506891311E+02 -0.21994263704E+02  0.27372869599E+02  0.43400727302E+02  0.00000000000E+00 0. -1.
         11    1    3    3    0    0  0.33327107701E+01  0.11917737372E+02 -0.62873424024E+01  0.13880565547E+02  0.51100000000E-03 0. -1.
        -11    1    3    3    0    0  0.15643031058E+02  0.91814549097E+01 -0.20370813410E+02  0.27275878981E+02  0.51100000000E-03 0.  1.
         12    1    3    3    0    0  0.65311494832E+01  0.89507142236E+00 -0.71471378720E+00  0.66308281701E+01  0.00000000000E+00 0. -1.
</event>
<event>
 7    1  0.2455451E-009  0.4778727E+02  0.7816164E-02  0.1312668E+00
        -11   -1    0    0    0    0  0.00000000000E+00  0.00000000000E+00  0.45593999997E+02  0.45594000000E+02  0.51100000000E-03 0.  1.
         11   -1    0    0    0    0 -0.00000000000E+00 -0.00000000000E+00 -0.45593999997E+02  0.45594000000E+02  0.51100000000E-03 0. -1.
    9900012    2    1    2    0    0  0.20282992373E+02 -0.37504165838E+02 -0.81031566942E+01  0.47787269785E+02  0.19999994256E+02 0.  0.
         12    1    1    2    0    0 -0.20282992373E+02  0.37504165838E+02  0.81031566942E+01  0.43400730215E+02  0.00000000000E+00 0. -1.
         11    1    3    3    0    0  0.30430321469E+01 -0.48223419422E+01 -0.63268443685E+01  0.85172757605E+01  0.51100000000E-03 0. -1.
        -11    1    3    3    0    0  0.93973699061E+01 -0.21275696367E+02  0.51040725834E+01  0.23812126622E+02  0.51100000000E-03 0.  1.
        -12    1    3    3    0    0  0.78425903195E+01 -0.11406127529E+02 -0.68803849090E+01  0.15457867402E+02  0.00000000000E+00 0.  1.
</event>
<event>
 7    1  0.2455451E-009  0.4778727E+02  0.7816164E-02  0.1312668E+00
        -11   -1    0    0    0    0  0.00000000000E+00  0.00000000000E+00  0.45593999997E+02  0.45594000000E+02  0.51100000000E-03 0.  1.
         11   -1    0    0    0    0 -0.00000000000E+00 -0.00000000000E+00 -0.45593999997E+02  0.45594000000E+02  0.51100000000E-03 0. -1.
    9900012    2    1    2    0    0 -0.25387022397E+02  0.27063642161E+02  0.22509590104E+02  0.47787270975E+02  0.19999999685E+02 0.  0.
         12    1    1    2    0    0  0.25387022397E+02 -0.27063642161E+02 -0.22509590104E+02  0.43400729025E+02  0.00000000000E+00 0. -1.
         11    1    3    3    0    0 -0.48749953735E+01 -0.14999400979E+01  0.91537295139E+00  0.51820177624E+01  0.51100000000E-03 0. -1.
        -11    1    3    3    0    0 -0.15008681230E+02  0.27115254356E+02  0.18987773343E+02  0.36346018597E+02  0.51100000000E-03 0.  1.
        -12    1    3    3    0    0 -0.55033457943E+01  0.14483279024E+01  0.26064438094E+01  0.62592346158E+01  0.00000000000E+00 0.  1.
</event>
<event>
 7    1  0.2455451E-009  0.4778727E+02  0.7816164E-02  0.1312668E+00
        -11   -1    0    0    0    0  0.00000000000E+00  0.00000000000E+00  0.45593999997E+02  0.45594000000E+02  0.51100000000E-03 0.  1.
         11   -1    0    0    0    0 -0.00000000000E+00 -0.00000000000E+00 -0.45593999997E+02  0.45594000000E+02  0.51100000000E-03 0. -1.
    9900012    2    1    2    0    0 -0.10609250675E+02 -0.39685482069E+02  0.14004619850E+02  0.47787273461E+02  0.20000011019E+02 0.  0.
         12    1    1    2    0    0  0.10609250675E+02  0.39685482069E+02 -0.14004619850E+02  0.43400726539E+02  0.00000000000E+00 0. -1.
         11    1    3    3    0    0  0.15094163085E+01 -0.24631602617E+01  0.52372400659E+01  0.59811520492E+01  0.51100000000E-03 0. -1.
        -11    1    3    3    0    0 -0.33034196807E+01 -0.16333925529E+02 -0.18572928466E+01  0.16767803725E+02  0.51100000000E-03 0.  1.
        -12    1    3    3    0    0 -0.88152473023E+01 -0.20888396278E+02  0.10624672631E+02  0.25038317687E+02  0.00000000000E+00 0.  1.
</event>
<event>
 7    1  0.2455451E-009  0.4778727E+02  0.7816164E-02  0.1312668E+00
        -11   -1    0    0    0    0  0.00000000000E+00  0.00000000000E+00  0.45593999997E+02  0.45594000000E+02  0.51100000000E-03 0.  1.
         11   -1    0    0    0    0 -0.00000000000E+00 -0.00000000000E+00 -0.45593999997E+02  0.45594000000E+02  0.51100000000E-03 0. -1.
    9900012    2    1    2    0    0 -0.16103138297E+01 -0.45868795885E+01  0.43127612590E+02  0.47787267948E+02  0.19999985881E+02 0.  0.
         12    1    1    2    0    0  0.16103138297E+01  0.45868795885E+01 -0.43127612590E+02  0.43400732052E+02  0.00000000000E+00 0. -1.
         11    1    3    3    0    0 -0.51551946456E+01  0.47410101978E+00  0.10981572719E+02  0.12140664861E+02  0.51100000000E-03 0. -1.
        -11    1    3    3    0    0  0.74042383097E+01  0.58378617843E-01  0.24870765655E+02  0.25949588388E+02  0.51100000000E-03 0.  1.
        -12    1    3    3    0    0 -0.38593574938E+01 -0.51193592262E+01  0.72752742156E+01  0.96970146985E+01  0.00000000000E+00 0.  1.
</event>
<event>
 7    1  0.2455451E-009  0.4778727E+02  0.7816164E-02  0.1312668E+00
        -11   -1    0    0    0    0  0.00000000000E+00  0.00000000000E+00  0.45593999997E+02  0.45594000000E+02  0.51100000000E-03 0.  1.
         11   -1    0    0    0    0 -0.00000000000E+00 -0.00000000000E+00 -0.45593999997E+02  0.45594000000E+02  0.51100000000E-03 0. -1.
    9900012    2    1    2    0    0  0.26376984031E+01  0.23300248274E+01  0.43257796053E+02  0.47787269731E+02  0.19999994009E+02 0.  0.
         12    1    1    2    0    0 -0.26376984031E+01 -0.23300248274E+01 -0.43257796053E+02  0.43400730269E+02  0.00000000000E+00 0. -1.
         11    1    3    3    0    0 -0.57925719487E+01  0.76902781710E+01  0.19284425101E+02  0.21554194948E+02  0.51100000000E-03 0. -1.
        -11    1    3    3    0    0  0.58692828418E+01 -0.16875368634E+01  0.15259166931E+02  0.16435888702E+02  0.51100000000E-03 0.  1.
         12    1    3    3    0    0  0.25609875100E+01 -0.36727164802E+01  0.87142040212E+01  0.97971860803E+01  0.00000000000E+00 0. -1.
</event>
<event>
 7    1  0.2455451E-009  0.4778727E+02  0.7816164E-02  0.1312668E+00
        -11   -1    0    0    0    0  0.00000000000E+00  0.00000000000E+00  0.45593999997E+02  0.45594000000E+02  0.51100000000E-03 0.  1.
         11   -1    0    0    0    0 -0.00000000000E+00 -0.00000000000E+00 -0.45593999997E+02  0.45594000000E+02  0.51100000000E-03 0. -1.
    9900012    2    1    2    0    0  0.27741307995E+02  0.32240554685E+02 -0.86365649637E+01  0.47787265098E+02  0.19999972886E+02 0.  0.
         12    1    1    2    0    0 -0.27741307995E+02 -0.32240554685E+02  0.86365649637E+01  0.43400734902E+02  0.00000000000E+00 0. -1.
         11    1    3    3    0    0  0.91153135535E+01  0.23517631692E+02 -0.57356421902E+01  0.25866301111E+02  0.51100000000E-03 0. -1.
        -11    1    3    3    0    0  0.87750625550E+01  0.31208046066E+01  0.20787954080E+01  0.95426691678E+01  0.51100000000E-03 0.  1.
         12    1    3    3    0    0  0.98509318865E+01  0.56021183867E+01 -0.49797181814E+01  0.12378294819E+02  0.00000000000E+00 0. -1.
</event>
<event>
 7    1  0.2455451E-009  0.4778727E+02  0.7816164E-02  0.1312668E+00
        -11   -1    0    0    0    0  0.00000000000E+00  0.00000000000E+00  0.45593999997E+02  0.45594000000E+02  0.51100000000E-03 0.  1.
         11   -1    0    0    0    0 -0.00000000000E+00 -0.00000000000E+00 -0.45593999997E+02  0.45594000000E+02  0.51100000000E-03 0. -1.
    9900012    2    1    2    0    0 -0.29086269374E+02 -0.32046862268E+02 -0.32574600596E+01  0.47787268516E+02  0.19999988470E+02 0.  0.
         12    1    1    2    0    0  0.29086269374E+02  0.32046862268E+02  0.32574600596E+01  0.43400731484E+02  0.00000000000E+00 0. -1.
         11    1    3    3    0    0 -0.22835195874E+00 -0.34338995549E+00  0.24491830768E+01  0.24836584474E+01  0.51100000000E-03 0. -1.
        -11    1    3    3    0    0 -0.13385717414E+02 -0.21584582113E+02 -0.81078658199E+01  0.26661003433E+02  0.51100000000E-03 0.  1.
        -12    1    3    3    0    0 -0.15472200002E+02 -0.10118890200E+02  0.24012226836E+01  0.18642606635E+02  0.00000000000E+00 0.  1.
</event>
<event>
 7    1  0.2455451E-009  0.4778727E+02  0.7816164E-02  0.1312668E+00
        -11   -1    0    0    0    0  0.00000000000E+00  0.00000000000E+00  0.45593999997E+02  0.45594000000E+02  0.51100000000E-03 0.  1.
         11   -1    0    0    0    0 -0.00000000000E+00 -0.00000000000E+00 -0.45593999997E+02  0.45594000000E+02  0.51100000000E-03 0. -1.
    9900012    2    1    2    0    0 -0.35619669184E+01 -0.12115570953E+02  0.41522867655E+02  0.47787271825E+02  0.20000003558E+02 0.  0.
         12    1    1    2    0    0  0.35619669184E+01  0.12115570953E+02 -0.41522867655E+02  0.43400728175E+02  0.00000000000E+00 0. -1.
         11    1    3    3    0    0 -0.31842974453E+01  0.18910398304E+01  0.21239358575E+02  0.21559826874E+02  0.51100000000E-03 0. -1.
        -11    1    3    3    0    0  0.14206924855E+01 -0.67092367609E+01  0.32082367741E+01  0.75713280547E+01  0.51100000000E-03 0.  1.
        -12    1    3    3    0    0 -0.17983619587E+01 -0.72973740221E+01  0.17075272305E+02  0.18656116897E+02  0.00000000000E+00 0.  1.
</event>
<event>
 7    1  0.2455451E-009  0.4778727E+02  0.7816164E-02  0.1312668E+00
        -11   -1    0    0    0    0  0.00000000000E+00  0.00000000000E+00  0.45593999997E+02  0.45594000000E+02  0.51100000000E-03 0. -1.
         11   -1    0    0    0    0 -0.00000000000E+00 -0.00000000000E+00 -0.45593999997E+02  0.45594000000E+02  0.51100000000E-03 0.  1.
    9900012    2    1    2    0    0  0.35163608389E+01 -0.22572657469E+02 -0.36901674915E+02  0.47787271086E+02  0.20000000190E+02 0.  0.
         12    1    1    2    0    0 -0.35163608389E+01  0.22572657469E+02  0.36901674915E+02  0.43400728914E+02  0.00000000000E+00 0. -1.
         11    1    3    3    0    0 -0.24912124598E+01  0.19188076010E+01 -0.11578887316E+02  0.11998274620E+02  0.51100000000E-03 0. -1.
        -11    1    3    3    0    0  0.38053405170E+01 -0.15201921378E+02 -0.17032288631E+02  0.23144716164E+02  0.51100000000E-03 0.  1.
         12    1    3    3    0    0  0.22022327817E+01 -0.92895436912E+01 -0.82904989679E+01  0.12644280302E+02  0.00000000000E+00 0. -1.
</event>
<event>
 7    1  0.2455451E-009  0.4778727E+02  0.7816164E-02  0.1312668E+00
        -11   -1    0    0    0    0  0.00000000000E+00  0.00000000000E+00  0.45593999997E+02  0.45594000000E+02  0.51100000000E-03 0. -1.
         11   -1    0    0    0    0 -0.00000000000E+00 -0.00000000000E+00 -0.45593999997E+02  0.45594000000E+02  0.51100000000E-03 0.  1.
    9900012    2    1    2    0    0 -0.34561553194E+02 -0.26083473614E+02 -0.29622702275E+01  0.47787267289E+02  0.19999982876E+02 0.  0.
         12    1    1    2    0    0  0.34561553194E+02  0.26083473614E+02  0.29622702275E+01  0.43400732711E+02  0.00000000000E+00 0. -1.
         11    1    3    3    0    0 -0.10205379206E+02  0.42792878462E+00 -0.45683150188E+01  0.11189387390E+02  0.51100000000E-03 0. -1.
        -11    1    3    3    0    0 -0.23853323863E+02 -0.23608946736E+02  0.92298071642E+00  0.33574027446E+02  0.51100000000E-03 0.  1.
         12    1    3    3    0    0 -0.50285012477E+00 -0.29024556634E+01  0.68306407488E+00  0.30238524528E+01  0.00000000000E+00 0. -1.
</event>
<event>
 7    1  0.2455451E-009  0.4778726E+02  0.7816164E-02  0.1312668E+00
        -11   -1    0    0    0    0  0.00000000000E+00  0.00000000000E+00  0.45593999997E+02  0.45594000000E+02  0.51100000000E-03 0.  1.
         11   -1    0    0    0    0 -0.00000000000E+00 -0.00000000000E+00 -0.45593999997E+02  0.45594000000E+02  0.51100000000E-03 0. -1.
    9900012    2    1    2    0    0  0.25544596231E+02  0.18453890917E+02  0.29842109106E+02  0.47787263112E+02  0.19999963831E+02 0.  0.
         12    1    1    2    0    0 -0.25544596231E+02 -0.18453890917E+02 -0.29842109106E+02  0.43400736888E+02  0.00000000000E+00 0. -1.
         11    1    3    3    0    0  0.77772102084E+01  0.56759635711E+01  0.18780843217E+02  0.21105014411E+02  0.51100000000E-03 0. -1.
        -11    1    3    3    0    0  0.10021470944E+02  0.11950061175E+02  0.38438475089E+01  0.16062658743E+02  0.51100000000E-03 0.  1.
         12    1    3    3    0    0  0.77459150783E+01  0.82786617123E+00  0.72174183798E+01  0.10619589958E+02  0.00000000000E+00 0. -1.
</event>
<event>
 7    1  0.2455451E-009  0.4778727E+02  0.7816164E-02  0.1312668E+00
        -11   -1    0    0    0    0  0.00000000000E+00  0.00000000000E+00  0.45593999997E+02  0.45594000000E+02  0.51100000000E-03 0. -1.
         11   -1    0    0    0    0 -0.00000000000E+00 -0.00000000000E+00 -0.45593999997E+02  0.45594000000E+02  0.51100000000E-03 0.  1.
    9900012    2    1    2    0    0 -0.42578751180E+01  0.33796444450E+02 -0.26894124587E+02  0.47787273102E+02  0.20000009380E+02 0.  0.
         12    1    1    2    0    0  0.42578751180E+01 -0.33796444450E+02  0.26894124587E+02  0.43400726898E+02  0.00000000000E+00 0. -1.
         11    1    3    3    0    0  0.49256726171E+01  0.73229532068E+01 -0.36862623343E+01  0.95643308526E+01  0.51100000000E-03 0. -1.
        -11    1    3    3    0    0 -0.78681637944E+01  0.26064021327E+02 -0.24278194208E+02  0.36478376108E+02  0.51100000000E-03 0.  1.
        -12    1    3    3    0    0 -0.13153839406E+01  0.40946991656E+00  0.10703319557E+01  0.17445661407E+01  0.00000000000E+00 0.  1.
</event>
<event>
 7    1  0.2455451E-009  0.4778727E+02  0.7816164E-02  0.1312668E+00
        -11   -1    0    0    0    0  0.00000000000E+00  0.00000000000E+00  0.45593999997E+02  0.45594000000E+02  0.51100000000E-03 0. -1.
         11   -1    0    0    0    0 -0.00000000000E+00 -0.00000000000E+00 -0.45593999997E+02  0.45594000000E+02  0.51100000000E-03 0.  1.
    9900012    2    1    2    0    0  0.39847806063E+02 -0.81840085469E+01 -0.15126049722E+02  0.47787273922E+02  0.20000013120E+02 0.  0.
         12    1    1    2    0    0 -0.39847806063E+02  0.81840085469E+01  0.15126049722E+02  0.43400726078E+02  0.00000000000E+00 0. -1.
         11    1    3    3    0    0 -0.16824667556E+01 -0.23789785186E+00 -0.25227721188E-01  0.16993900290E+01  0.51100000000E-03 0. -1.
        -11    1    3    3    0    0  0.25896937808E+02 -0.71799712802E+01 -0.14236692966E+02  0.30411951635E+02  0.51100000000E-03 0.  1.
         12    1    3    3    0    0  0.15633335011E+02 -0.76613941477E+00 -0.86412903484E+00  0.15675932258E+02  0.00000000000E+00 0. -1.
</event>
<event>
 7    1  0.2455451E-009  0.4778727E+02  0.7816164E-02  0.1312668E+00
        -11   -1    0    0    0    0  0.00000000000E+00  0.00000000000E+00  0.45593999997E+02  0.45594000000E+02  0.51100000000E-03 0.  1.
         11   -1    0    0    0    0 -0.00000000000E+00 -0.00000000000E+00 -0.45593999997E+02  0.45594000000E+02  0.51100000000E-03 0. -1.
    9900012    2    1    2    0    0 -0.53789070180E+01 -0.41413232640E+02  0.11816712874E+02  0.47787272108E+02  0.20000004851E+02 0.  0.
         12    1    1    2    0    0  0.53789070180E+01  0.41413232640E+02 -0.11816712874E+02  0.43400727892E+02  0.00000000000E+00 0. -1.
         11    1    3    3    0    0 -0.96619273918E+01 -0.14027951615E+02  0.49970503355E+01  0.17751247273E+02  0.51100000000E-03 0. -1.
        -11    1    3    3    0    0 -0.21763963093E+01 -0.85272643412E+01  0.47353965462E+01  0.99937439806E+01  0.51100000000E-03 0.  1.
         12    1    3    3    0    0  0.64594166831E+01 -0.18858016684E+02  0.20842659927E+01  0.20042280855E+02  0.00000000000E+00 0. -1.
</event>
<event>
 7    1  0.2455451E-009  0.4778727E+02  0.7816164E-02  0.1312668E+00
        -11   -1    0    0    0    0  0.00000000000E+00  0.00000000000E+00  0.45593999997E+02  0.45594000000E+02  0.51100000000E-03 0.  1.
         11   -1    0    0    0    0 -0.00000000000E+00 -0.00000000000E+00 -0.45593999997E+02  0.45594000000E+02  0.51100000000E-03 0. -1.
    9900012    2    1    2    0    0  0.94017448656E+01 -0.24546409749E+02  0.34535550569E+02  0.47787270845E+02  0.19999999091E+02 0.  0.
         12    1    1    2    0    0 -0.94017448656E+01  0.24546409749E+02 -0.34535550569E+02  0.43400729155E+02  0.00000000000E+00 0. -1.
         11    1    3    3    0    0 -0.33813791718E+01  0.17135196183E+01  0.34267087849E+01  0.51100105620E+01  0.51100000000E-03 0. -1.
        -11    1    3    3    0    0  0.10729712728E+02 -0.22174962589E+02  0.26632928421E+02  0.36279037716E+02  0.51100000000E-03 0.  1.
         12    1    3    3    0    0  0.20534113096E+01 -0.40849667785E+01  0.44759133627E+01  0.63982225671E+01  0.00000000000E+00 0. -1.
</event>
<event>
 7    1  0.2455451E-009  0.4778727E+02  0.7816164E-02  0.1312668E+00
        -11   -1    0    0    0    0  0.00000000000E+00  0.00000000000E+00  0.45593999997E+02  0.45594000000E+02  0.51100000000E-03 0. -1.
         11   -1    0    0    0    0 -0.00000000000E+00 -0.00000000000E+00 -0.45593999997E+02  0.45594000000E+02  0.51100000000E-03 0.  1.
    9900012    2    1    2    0    0  0.42753994128E+02 -0.74408424445E+01 -0.59416614046E+00  0.47787272085E+02  0.20000004743E+02 0.  0.
         12    1    1    2    0    0 -0.42753994128E+02  0.74408424445E+01  0.59416614046E+00  0.43400727915E+02  0.00000000000E+00 0. -1.
         11    1    3    3    0    0 -0.81978421051E+00 -0.13703009031E+01  0.27533559001E+01  0.31828822929E+01  0.51100000000E-03 0. -1.
        -11    1    3    3    0    0  0.27240203451E+01 -0.20926716994E+01 -0.19831408059E+00  0.34407688702E+01  0.51100000000E-03 0.  1.
         12    1    3    3    0    0  0.40849757993E+02 -0.39778698419E+01 -0.31492079600E+01  0.41163620922E+02  0.00000000000E+00 0. -1.
</event>
<event>
 7    1  0.2455451E-009  0.4778727E+02  0.7816164E-02  0.1312668E+00
        -11   -1    0    0    0    0  0.00000000000E+00  0.00000000000E+00  0.45593999997E+02  0.45594000000E+02  0.51100000000E-03 0.  1.
         11   -1    0    0    0    0 -0.00000000000E+00 -0.00000000000E+00 -0.45593999997E+02  0.45594000000E+02  0.51100000000E-03 0. -1.
    9900012    2    1    2    0    0 -0.94807564445E+01 -0.12228909045E+02  0.40548638033E+02  0.47787274136E+02  0.20000014097E+02 0.  0.
         12    1    1    2    0    0  0.94807564445E+01  0.12228909045E+02 -0.40548638033E+02  0.43400725864E+02  0.00000000000E+00 0. -1.
         11    1    3    3    0    0 -0.45903335398E+01 -0.55280408678E+00  0.16643700880E+01  0.49139477425E+01  0.51100000000E-03 0. -1.
        -11    1    3    3    0    0  0.40790111890E+01 -0.65839263832E+01  0.16710190895E+02  0.18417841863E+02  0.51100000000E-03 0.  1.
        -12    1    3    3    0    0 -0.89694340937E+01 -0.50921785753E+01  0.22174077050E+02  0.24455484530E+02  0.00000000000E+00 0.  1.
</event>
<event>
 7    1  0.2455451E-009  0.4778727E+02  0.7816164E-02  0.1312668E+00
        -11   -1    0    0    0    0  0.00000000000E+00  0.00000000000E+00  0.45593999997E+02  0.45594000000E+02  0.51100000000E-03 0.  1.
         11   -1    0    0    0    0 -0.00000000000E+00 -0.00000000000E+00 -0.45593999997E+02  0.45594000000E+02  0.51100000000E-03 0. -1.
    9900012    2    1    2    0    0 -0.13584747844E+02 -0.44279123843E+01  0.40981355440E+02  0.47787271023E+02  0.19999999902E+02 0.  0.
         12    1    1    2    0    0  0.13584747844E+02  0.44279123843E+01 -0.40981355440E+02  0.43400728977E+02  0.00000000000E+00 0. -1.
         11    1    3    3    0    0  0.89404012854E+00  0.62934934851E+00  0.18234464186E+02  0.18267213054E+02  0.51100000000E-03 0. -1.
        -11    1    3    3    0    0 -0.12010763223E+02 -0.83976040304E+01  0.17392252051E+02  0.22743540145E+02  0.51100000000E-03 0.  1.
        -12    1    3    3    0    0 -0.24680247493E+01  0.33403422975E+01  0.53546392029E+01  0.67765178242E+01  0.00000000000E+00 0.  1.
</event>
<event>
 7    1  0.2455451E-009  0.4778727E+02  0.7816164E-02  0.1312668E+00
        -11   -1    0    0    0    0  0.00000000000E+00  0.00000000000E+00  0.45593999997E+02  0.45594000000E+02  0.51100000000E-03 0.  1.
         11   -1    0    0    0    0 -0.00000000000E+00 -0.00000000000E+00 -0.45593999997E+02  0.45594000000E+02  0.51100000000E-03 0. -1.
    9900012    2    1    2    0    0  0.20626073749E+02 -0.17732826256E+02  0.33819149999E+02  0.47787274753E+02  0.20000016908E+02 0.  0.
         12    1    1    2    0    0 -0.20626073749E+02  0.17732826256E+02 -0.33819149999E+02  0.43400725247E+02  0.00000000000E+00 0. -1.
         11    1    3    3    0    0  0.37108660904E+01 -0.17005319302E+01  0.38726140839E+01  0.56266754029E+01  0.51100000000E-03 0. -1.
        -11    1    3    3    0    0 -0.22176500691E+01 -0.59857498705E+01  0.17190509793E+01  0.66107722598E+01  0.51100000000E-03 0.  1.
        -12    1    3    3    0    0  0.19132857727E+02 -0.10046544455E+02  0.28227484936E+02  0.35549827090E+02  0.00000000000E+00 0.  1.
</event>
<event>
 7    1  0.2455451E-009  0.4778726E+02  0.7816164E-02  0.1312668E+00
        -11   -1    0    0    0    0  0.00000000000E+00  0.00000000000E+00  0.45593999997E+02  0.45594000000E+02  0.51100000000E-03 0.  1.
         11   -1    0    0    0    0 -0.00000000000E+00 -0.00000000000E+00 -0.45593999997E+02  0.45594000000E+02  0.51100000000E-03 0. -1.
    9900012    2    1    2    0    0  0.25012430077E+02 -0.98107101351E+01  0.34084493604E+02  0.47787258118E+02  0.19999941061E+02 0.  0.
         12    1    1    2    0    0 -0.25012430077E+02  0.98107101351E+01 -0.34084493604E+02  0.43400741882E+02  0.00000000000E+00 0. -1.
         11    1    3    3    0    0  0.11925043807E+02  0.25968237919E+01  0.63495603280E+01  0.13757437269E+02  0.51100000000E-03 0. -1.
        -11    1    3    3    0    0  0.93925043482E+01 -0.55082496538E+01  0.21204461849E+02  0.23836718624E+02  0.51100000000E-03 0.  1.
        -12    1    3    3    0    0  0.36948819217E+01 -0.68992842732E+01  0.65304714274E+01  0.10193102225E+02  0.00000000000E+00 0.  1.
</event>
<event>
 7    1  0.2455451E-009  0.4778727E+02  0.7816164E-02  0.1312668E+00
        -11   -1    0    0    0    0  0.00000000000E+00  0.00000000000E+00  0.45593999997E+02  0.45594000000E+02  0.51100000000E-03 0.  1.
         11   -1    0    0    0    0 -0.00000000000E+00 -0.00000000000E+00 -0.45593999997E+02  0.45594000000E+02  0.51100000000E-03 0. -1.
    9900012    2    1    2    0    0  0.29527121426E+02 -0.20554532349E+02  0.24275169961E+02  0.47787267559E+02  0.19999984108E+02 0.  0.
         12    1    1    2    0    0 -0.29527121426E+02  0.20554532349E+02 -0.24275169961E+02  0.43400732441E+02  0.00000000000E+00 0. -1.
         11    1    3    3    0    0  0.49651025758E+00 -0.75699908491E+00 -0.29794445826E+01  0.31139461030E+01  0.51100000000E-03 0. -1.
        -11    1    3    3    0    0  0.22201405968E+02 -0.16150317249E+02  0.19204750149E+02  0.33504590772E+02  0.51100000000E-03 0.  1.
        -12    1    3    3    0    0  0.68292052001E+01 -0.36472160145E+01  0.80498643947E+01  0.11168730684E+02  0.00000000000E+00 0.  1.
</event>
<event>
 7    1  0.2455451E-009  0.4778727E+02  0.7816164E-02  0.1312668E+00
        -11   -1    0    0    0    0  0.00000000000E+00  0.00000000000E+00  0.45593999997E+02  0.45594000000E+02  0.51100000000E-03 0.  1.
         11   -1    0    0    0    0 -0.00000000000E+00 -0.00000000000E+00 -0.45593999997E+02  0.45594000000E+02  0.51100000000E-03 0. -1.
    9900012    2    1    2    0    0  0.33864342451E+02 -0.25479207533E+02 -0.93615981378E+01  0.47787271598E+02  0.20000002522E+02 0.  0.
         12    1    1    2    0    0 -0.33864342451E+02  0.25479207533E+02  0.93615981378E+01  0.43400728402E+02  0.00000000000E+00 0. -1.
         11    1    3    3    0    0 -0.20326492828E+01 -0.48882315650E+01 -0.89790761630E+00  0.53696097892E+01  0.51100000000E-03 0. -1.
        -11    1    3    3    0    0  0.27735110841E+02 -0.14948260753E+02 -0.78831824389E+01  0.32478168645E+02  0.51100000000E-03 0.  1.
         12    1    3    3    0    0  0.81618808926E+01 -0.56427152153E+01 -0.58050808266E+00  0.99394931632E+01  0.00000000000E+00 0. -1.
</event>
<event>
 7    1  0.2455451E-009  0.4778727E+02  0.7816164E-02  0.1312668E+00
        -11   -1    0    0    0    0  0.00000000000E+00  0.00000000000E+00  0.45593999997E+02  0.45594000000E+02  0.51100000000E-03 0.  1.
         11   -1    0    0    0    0 -0.00000000000E+00 -0.00000000000E+00 -0.45593999997E+02  0.45594000000E+02  0.51100000000E-03 0. -1.
    9900012    2    1    2    0    0  0.10797029152E+00  0.43393901036E+02  0.76240257453E+00  0.47787267720E+02  0.19999984843E+02 0.  0.
         12    1    1    2    0    0 -0.10797029152E+00 -0.43393901036E+02 -0.76240257453E+00  0.43400732280E+02  0.00000000000E+00 0. -1.
         11    1    3    3    0    0  0.41472696652E+01  0.32563926910E+01 -0.36257173799E+01  0.63992004043E+01  0.51100000000E-03 0. -1.
        -11    1    3    3    0    0 -0.64665857224E+01  0.32351482972E+02  0.31978514078E+01  0.33146062138E+02  0.51100000000E-03 0.  1.
        -12    1    3    3    0    0  0.24272863488E+01  0.77860253737E+01  0.11902685466E+01  0.82420051779E+01  0.00000000000E+00 0.  1.
</event>
<event>
 7    1  0.2455451E-009  0.4778727E+02  0.7816164E-02  0.1312668E+00
        -11   -1    0    0    0    0  0.00000000000E+00  0.00000000000E+00  0.45593999997E+02  0.45594000000E+02  0.51100000000E-03 0. -1.
         11   -1    0    0    0    0 -0.00000000000E+00 -0.00000000000E+00 -0.45593999997E+02  0.45594000000E+02  0.51100000000E-03 0.  1.
    9900012    2    1    2    0    0 -0.17530134003E+02  0.34728808381E+02 -0.19241297243E+02  0.47787271327E+02  0.20000001288E+02 0.  0.
         12    1    1    2    0    0  0.17530134003E+02 -0.34728808381E+02  0.19241297243E+02  0.43400728673E+02  0.00000000000E+00 0. -1.
         11    1    3    3    0    0 -0.24053150164E+01  0.15964983974E+01  0.35053841524E+01  0.45411524724E+01  0.51100000000E-03 0. -1.
        -11    1    3    3    0    0 -0.98761019636E+01  0.24202906700E+02 -0.13800017086E+02  0.29559407209E+02  0.51100000000E-03 0.  1.
         12    1    3    3    0    0 -0.52487170229E+01  0.89294032842E+01 -0.89466643095E+01  0.13686711645E+02  0.00000000000E+00 0. -1.
</event>
<event>
 7    1  0.2455451E-009  0.4778727E+02  0.7816164E-02  0.1312668E+00
        -11   -1    0    0    0    0  0.00000000000E+00  0.00000000000E+00  0.45593999997E+02  0.45594000000E+02  0.51100000000E-03 0.  1.
         11   -1    0    0    0    0 -0.00000000000E+00 -0.00000000000E+00 -0.45593999997E+02  0.45594000000E+02  0.51100000000E-03 0. -1.
    9900012    2    1    2    0    0 -0.35886622107E+02  0.21829420212E+02  0.10920164197E+02  0.47787271675E+02  0.20000002876E+02 0.  0.
         12    1    1    2    0    0  0.35886622107E+02 -0.21829420212E+02 -0.10920164197E+02  0.43400728325E+02  0.00000000000E+00 0. -1.
         11    1    3    3    0    0 -0.95494036602E+01  0.15844344917E+02  0.47175449823E+01  0.19091610908E+02  0.51100000000E-03 0. -1.
        -11    1    3    3    0    0 -0.19453139650E+02  0.71027592474E+01  0.26789439677E+01  0.20881823967E+02  0.51100000000E-03 0.  1.
         12    1    3    3    0    0 -0.68840787968E+01 -0.11176839526E+01  0.35236752469E+01  0.78138368005E+01  0.00000000000E+00 0. -1.
</event>
<event>
 7    1  0.2455451E-009  0.4778727E+02  0.7816164E-02  0.1312668E+00
        -11   -1    0    0    0    0  0.00000000000E+00  0.00000000000E+00  0.45593999997E+02  0.45594000000E+02  0.51100000000E-03 0.  1.
         11   -1    0    0    0    0 -0.00000000000E+00 -0.00000000000E+00 -0.45593999997E+02  0.45594000000E+02  0.51100000000E-03 0. -1.
    9900012    2    1    2    0    0  0.41208516104E+02 -0.12826071544E+02  0.45796901402E+01  0.47787268756E+02  0.19999989566E+02 0.  0.
         12    1    1    2    0    0 -0.41208516104E+02  0.12826071544E+02 -0.45796901402E+01  0.43400731244E+02  0.00000000000E+00 0. -1.
         11    1    3    3    0    0  0.38941764374E+02 -0.11256958087E+02 -0.16991787537E+01  0.40571755282E+02  0.51100000000E-03 0. -1.
        -11    1    3    3    0    0  0.19076528846E+00 -0.36367654415E+00  0.35800621157E+01  0.36035395152E+01  0.51100000000E-03 0.  1.
         12    1    3    3    0    0  0.20759864410E+01 -0.12054369130E+01  0.26988067782E+01  0.36119739590E+01  0.00000000000E+00 0. -1.
</event>
<event>
 7    1  0.2455451E-009  0.4778727E+02  0.7816164E-02  0.1312668E+00
        -11   -1    0    0    0    0  0.00000000000E+00  0.00000000000E+00  0.45593999997E+02  0.45594000000E+02  0.51100000000E-03 0.  1.
         11   -1    0    0    0    0 -0.00000000000E+00 -0.00000000000E+00 -0.45593999997E+02  0.45594000000E+02  0.51100000000E-03 0. -1.
    9900012    2    1    2    0    0 -0.31465729255E+02  0.20425892539E+02  0.21824615084E+02  0.47787273887E+02  0.20000012961E+02 0.  0.
         12    1    1    2    0    0  0.31465729255E+02 -0.20425892539E+02 -0.21824615084E+02  0.43400726113E+02  0.00000000000E+00 0. -1.
         11    1    3    3    0    0 -0.17294239218E+02  0.72986012023E+01  0.13795766513E+02  0.23295567467E+02  0.51100000000E-03 0. -1.
        -11    1    3    3    0    0 -0.99610034270E+01  0.28123649361E+01  0.84214577695E+01  0.13343610345E+02  0.51100000000E-03 0.  1.
         12    1    3    3    0    0 -0.42104866099E+01  0.10314926400E+02 -0.39260919850E+00  0.11148096076E+02  0.00000000000E+00 0. -1.
</event>
<event>
 7    1  0.2455451E-009  0.4778728E+02  0.7816164E-02  0.1312668E+00
        -11   -1    0    0    0    0  0.00000000000E+00  0.00000000000E+00  0.45593999997E+02  0.45594000000E+02  0.51100000000E-03 0.  1.
         11   -1    0    0    0    0 -0.00000000000E+00 -0.00000000000E+00 -0.45593999997E+02  0.45594000000E+02  0.51100000000E-03 0. -1.
    9900012    2    1    2    0    0 -0.13161565287E+02 -0.31210936057E+02  0.27134360596E+02  0.47787275866E+02  0.20000021985E+02 0.  0.
         12    1    1    2    0    0  0.13161565287E+02  0.31210936057E+02 -0.27134360596E+02  0.43400724134E+02  0.00000000000E+00 0. -1.
         11    1    3    3    0    0 -0.25134644673E+01  0.11672560028E+01  0.78027946476E+00  0.28790322173E+01  0.51100000000E-03 0. -1.
        -11    1    3    3    0    0 -0.97684337779E+01 -0.23752514679E+02  0.12496271359E+02  0.28561530950E+02  0.51100000000E-03 0.  1.
        -12    1    3    3    0    0 -0.87966704181E+00 -0.86256773808E+01  0.13857809772E+02  0.16346712699E+02  0.00000000000E+00 0.  1.
</event>
<event>
 7    1  0.2455451E-009  0.4778727E+02  0.7816164E-02  0.1312668E+00
        -11   -1    0    0    0    0  0.00000000000E+00  0.00000000000E+00  0.45593999997E+02  0.45594000000E+02  0.51100000000E-03 0.  1.
         11   -1    0    0    0    0 -0.00000000000E+00 -0.00000000000E+00 -0.45593999997E+02  0.45594000000E+02  0.51100000000E-03 0. -1.
    9900012    2    1    2    0    0  0.33376697010E+01  0.23835397118E+01  0.43206505976E+02  0.47787268909E+02  0.19999990262E+02 0.  0.
         12    1    1    2    0    0 -0.33376697010E+01 -0.23835397118E+01 -0.43206505976E+02  0.43400731091E+02  0.00000000000E+00 0. -1.
         11    1    3    3    0    0 -0.93780184733E+00 -0.58049549737E+00 -0.15647475695E+00  0.11139712465E+01  0.51100000000E-03 0. -1.
        -11    1    3    3    0    0  0.73109901006E+01  0.76223959370E+01  0.19558086126E+02  0.22227690596E+02  0.51100000000E-03 0.  1.
        -12    1    3    3    0    0 -0.30355185522E+01 -0.46583607278E+01  0.23804894607E+02  0.24445607066E+02  0.00000000000E+00 0.  1.
</event>
<event>
 7    1  0.2455451E-009  0.4778727E+02  0.7816164E-02  0.1312668E+00
        -11   -1    0    0    0    0  0.00000000000E+00  0.00000000000E+00  0.45593999997E+02  0.45594000000E+02  0.51100000000E-03 0. -1.
         11   -1    0    0    0    0 -0.00000000000E+00 -0.00000000000E+00 -0.45593999997E+02  0.45594000000E+02  0.51100000000E-03 0.  1.
    9900012    2    1    2    0    0 -0.36374417589E+02 -0.14852547918E+02  0.18437104692E+02  0.47787271158E+02  0.20000000520E+02 0.  0.
         12    1    1    2    0    0  0.36374417589E+02  0.14852547918E+02 -0.18437104692E+02  0.43400728842E+02  0.00000000000E+00 0. -1.
         11    1    3    3    0    0 -0.15812830436E+02  0.17309983768E+01  0.31866318223E+01  0.16223334565E+02  0.51100000000E-03 0. -1.
        -11    1    3    3    0    0 -0.18824692876E+02 -0.12124930921E+02  0.14609711225E+02  0.26736242706E+02  0.51100000000E-03 0.  1.
         12    1    3    3    0    0 -0.17368942763E+01 -0.44586153742E+01  0.64076164436E+00  0.48276938870E+01  0.00000000000E+00 0. -1.
</event>
<event>
 7    1  0.2455451E-009  0.4778727E+02  0.7816164E-02  0.1312668E+00
        -11   -1    0    0    0    0  0.00000000000E+00  0.00000000000E+00  0.45593999997E+02  0.45594000000E+02  0.51100000000E-03 0.  1.
         11   -1    0    0    0    0 -0.00000000000E+00 -0.00000000000E+00 -0.45593999997E+02  0.45594000000E+02  0.51100000000E-03 0. -1.
    9900012    2    1    2    0    0  0.40086655567E+01 -0.56806027330E+00  0.43211474421E+02  0.47787267130E+02  0.19999982154E+02 0.  0.
         12    1    1    2    0    0 -0.40086655567E+01  0.56806027330E+00 -0.43211474421E+02  0.43400732870E+02  0.00000000000E+00 0. -1.
         11    1    3    3    0    0  0.74678696036E+01 -0.65817804295E+01  0.16335535141E+02  0.19129522175E+02  0.51100000000E-03 0. -1.
        -11    1    3    3    0    0 -0.49923651212E+01  0.56780491111E+01  0.16326304133E+02  0.17992002615E+02  0.51100000000E-03 0.  1.
        -12    1    3    3    0    0  0.15331610743E+01  0.33567104508E+00  0.10549635147E+02  0.10665742340E+02  0.00000000000E+00 0.  1.
</event>
<event>
 7    1  0.2455451E-009  0.4778723E+02  0.7816164E-02  0.1312668E+00
        -11   -1    0    0    0    0  0.00000000000E+00  0.00000000000E+00  0.45593999997E+02  0.45594000000E+02  0.51100000000E-03 0. -1.
         11   -1    0    0    0    0 -0.00000000000E+00 -0.00000000000E+00 -0.45593999997E+02  0.45594000000E+02  0.51100000000E-03 0.  1.
    9900012    2    1    2    0    0  0.33236772934E+02 -0.10568531147E+02 -0.25831178372E+02  0.47787231554E+02  0.19999819945E+02 0.  0.
         12    1    1    2    0    0 -0.33236772934E+02  0.10568531147E+02  0.25831178372E+02  0.43400768446E+02  0.00000000000E+00 0. -1.
         11    1    3    3    0    0  0.29439487275E+02 -0.43734787293E+01 -0.18305752632E+02  0.34941541279E+02  0.51100000000E-03 0. -1.
        -11    1    3    3    0    0  0.48813437875E-01 -0.33587347947E+01  0.64416929921E+00  0.34202977239E+01  0.51100000000E-03 0.  1.
        -12    1    3    3    0    0  0.37484722207E+01 -0.28363176228E+01 -0.81695950388E+01  0.94253925512E+01  0.00000000000E+00 0.  1.
</event>
<event>
 7    1  0.2455451E-009  0.4778727E+02  0.7816164E-02  0.1312668E+00
        -11   -1    0    0    0    0  0.00000000000E+00  0.00000000000E+00  0.45593999997E+02  0.45594000000E+02  0.51100000000E-03 0.  1.
         11   -1    0    0    0    0 -0.00000000000E+00 -0.00000000000E+00 -0.45593999997E+02  0.45594000000E+02  0.51100000000E-03 0. -1.
    9900012    2    1    2    0    0  0.35513840492E+01  0.22147150905E+02  0.37155276571E+02  0.47787271908E+02  0.20000003936E+02 0.  0.
         12    1    1    2    0    0 -0.35513840492E+01 -0.22147150905E+02 -0.37155276571E+02  0.43400728092E+02  0.00000000000E+00 0. -1.
         11    1    3    3    0    0 -0.20132550697E+01  0.87420228105E+01  0.60149670472E+01  0.10800740143E+02  0.51100000000E-03 0. -1.
        -11    1    3    3    0    0  0.31108422080E+01  0.38388487304E+01  0.24715672579E+02  0.25204733090E+02  0.51100000000E-03 0.  1.
        -12    1    3    3    0    0  0.24537969108E+01  0.95662793643E+01  0.64246369442E+01  0.11781798675E+02  0.00000000000E+00 0.  1.
</event>
<event>
 7    1  0.2455451E-009  0.4778727E+02  0.7816164E-02  0.1312668E+00
        -11   -1    0    0    0    0  0.00000000000E+00  0.00000000000E+00  0.45593999997E+02  0.45594000000E+02  0.51100000000E-03 0.  1.
         11   -1    0    0    0    0 -0.00000000000E+00 -0.00000000000E+00 -0.45593999997E+02  0.45594000000E+02  0.51100000000E-03 0. -1.
    9900012    2    1    2    0    0  0.26166588713E+02 -0.95817689421E+01  0.33273447600E+02  0.47787274474E+02  0.20000015638E+02 0.  0.
         12    1    1    2    0    0 -0.26166588713E+02  0.95817689421E+01 -0.33273447600E+02  0.43400725526E+02  0.00000000000E+00 0. -1.
         11    1    3    3    0    0  0.25765833135E+01 -0.50179787329E+01  0.26516491364E+01  0.62329876896E+01  0.51100000000E-03 0. -1.
        -11    1    3    3    0    0  0.13607802110E+02  0.47127086332E+01  0.17115557244E+02  0.22367927954E+02  0.51100000000E-03 0.  1.
        -12    1    3    3    0    0  0.99822032891E+01 -0.92764988424E+01  0.13506241220E+02  0.19186358831E+02  0.00000000000E+00 0.  1.
</event>
<event>
 7    1  0.2455451E-009  0.4778727E+02  0.7816164E-02  0.1312668E+00
        -11   -1    0    0    0    0  0.00000000000E+00  0.00000000000E+00  0.45593999997E+02  0.45594000000E+02  0.51100000000E-03 0.  1.
         11   -1    0    0    0    0 -0.00000000000E+00 -0.00000000000E+00 -0.45593999997E+02  0.45594000000E+02  0.51100000000E-03 0. -1.
    9900012    2    1    2    0    0 -0.22938215083E+02 -0.13333735438E+02  0.34346366011E+02  0.47787273392E+02  0.20000010702E+02 0.  0.
         12    1    1    2    0    0  0.22938215083E+02  0.13333735438E+02 -0.34346366011E+02  0.43400726608E+02  0.00000000000E+00 0. -1.
         11    1    3    3    0    0 -0.10003289958E+02  0.41168352438E+01  0.10900455162E+02  0.15356889836E+02  0.51100000000E-03 0. -1.
        -11    1    3    3    0    0 -0.88438209612E+01 -0.14155111047E+02  0.20399988834E+02  0.26357918784E+02  0.51100000000E-03 0.  1.
         12    1    3    3    0    0 -0.40911041639E+01 -0.32954596357E+01  0.30459220150E+01  0.60724647724E+01  0.00000000000E+00 0. -1.
</event>
<event>
 7    1  0.2455451E-009  0.4778727E+02  0.7816164E-02  0.1312668E+00
        -11   -1    0    0    0    0  0.00000000000E+00  0.00000000000E+00  0.45593999997E+02  0.45594000000E+02  0.51100000000E-03 0.  1.
         11   -1    0    0    0    0 -0.00000000000E+00 -0.00000000000E+00 -0.45593999997E+02  0.45594000000E+02  0.51100000000E-03 0. -1.
    9900012    2    1    2    0    0  0.19095670348E+01 -0.15215915724E+01  0.43331989511E+02  0.47787274174E+02  0.20000014271E+02 0.  0.
         12    1    1    2    0    0 -0.19095670348E+01  0.15215915724E+01 -0.43331989511E+02  0.43400725826E+02  0.00000000000E+00 0. -1.
         11    1    3    3    0    0 -0.45342455166E+01  0.34424989021E+01  0.42607358051E+01  0.71108403834E+01  0.51100000000E-03 0. -1.
        -11    1    3    3    0    0  0.27465801360E+01 -0.65890412303E+01  0.21788879543E+02  0.22928463507E+02  0.51100000000E-03 0.  1.
        -12    1    3    3    0    0  0.36972324154E+01  0.16249507558E+01  0.17282374163E+02  0.17747970284E+02  0.00000000000E+00 0.  1.
</event>
<event>
 7    1  0.2455451E-009  0.4778727E+02  0.7816164E-02  0.1312668E+00
        -11   -1    0    0    0    0  0.00000000000E+00  0.00000000000E+00  0.45593999997E+02  0.45594000000E+02  0.51100000000E-03 0.  1.
         11   -1    0    0    0    0 -0.00000000000E+00 -0.00000000000E+00 -0.45593999997E+02  0.45594000000E+02  0.51100000000E-03 0. -1.
    9900012    2    1    2    0    0 -0.30113658642E+02  0.21649552032E+02  0.22540805615E+02  0.47787268926E+02  0.19999990340E+02 0.  0.
         12    1    1    2    0    0  0.30113658642E+02 -0.21649552032E+02 -0.22540805615E+02  0.43400731074E+02  0.00000000000E+00 0. -1.
         11    1    3    3    0    0 -0.38200638759E+01 -0.27500868135E+01  0.44544335777E+01  0.64805743771E+01  0.51100000000E-03 0. -1.
        -11    1    3    3    0    0 -0.23406206063E+02  0.23143821204E+02  0.19027787042E+02  0.38020305393E+02  0.51100000000E-03 0.  1.
        -12    1    3    3    0    0 -0.28873887033E+01  0.12558176411E+01 -0.94141500453E+00  0.32863891557E+01  0.00000000000E+00 0.  1.
</event>
<event>
 7    1  0.2455451E-009  0.4778728E+02  0.7816164E-02  0.1312668E+00
        -11   -1    0    0    0    0  0.00000000000E+00  0.00000000000E+00  0.45593999997E+02  0.45594000000E+02  0.51100000000E-03 0.  1.
         11   -1    0    0    0    0 -0.00000000000E+00 -0.00000000000E+00 -0.45593999997E+02  0.45594000000E+02  0.51100000000E-03 0. -1.
    9900012    2    1    2    0    0  0.13656135353E+02 -0.21550612734E+02  0.35109878460E+02  0.47787279874E+02  0.20000040256E+02 0.  0.
         12    1    1    2    0    0 -0.13656135353E+02  0.21550612734E+02 -0.35109878460E+02  0.43400720126E+02  0.00000000000E+00 0. -1.
         11    1    3    3    0    0 -0.28916847316E+01  0.54591429764E+00  0.26612622389E+01  0.39676416135E+01  0.51100000000E-03 0. -1.
        -11    1    3    3    0    0  0.16606233616E+02 -0.23096878243E+02  0.31347727036E+02  0.42330990657E+02  0.51100000000E-03 0.  1.
         12    1    3    3    0    0 -0.58413531354E-01  0.10003512111E+01  0.11008891856E+01  0.14886476028E+01  0.00000000000E+00 0. -1.
</event>
<event>
 7    1  0.2455451E-009  0.4778728E+02  0.7816164E-02  0.1312668E+00
        -11   -1    0    0    0    0  0.00000000000E+00  0.00000000000E+00  0.45593999997E+02  0.45594000000E+02  0.51100000000E-03 0.  1.
         11   -1    0    0    0    0 -0.00000000000E+00 -0.00000000000E+00 -0.45593999997E+02  0.45594000000E+02  0.51100000000E-03 0. -1.
    9900012    2    1    2    0    0 -0.42233093926E+02  0.74797159388E+00  0.99714081880E+01  0.47787278055E+02  0.20000031963E+02 0.  0.
         12    1    1    2    0    0  0.42233093926E+02 -0.74797159388E+00 -0.99714081880E+01  0.43400721945E+02  0.00000000000E+00 0. -1.
         11    1    3    3    0    0 -0.14883724530E+02 -0.55373051919E+01  0.46093487588E+01  0.16535812678E+02  0.51100000000E-03 0. -1.
        -11    1    3    3    0    0 -0.17058311184E+02  0.92692834780E+01  0.33766255320E+00  0.19416992890E+02  0.51100000000E-03 0.  1.
        -12    1    3    3    0    0 -0.10291058213E+02 -0.29840066923E+01  0.50243968760E+01  0.11834472487E+02  0.00000000000E+00 0.  1.
</event>
<event>
 7    1  0.2455451E-009  0.4778727E+02  0.7816164E-02  0.1312668E+00
        -11   -1    0    0    0    0  0.00000000000E+00  0.00000000000E+00  0.45593999997E+02  0.45594000000E+02  0.51100000000E-03 0.  1.
         11   -1    0    0    0    0 -0.00000000000E+00 -0.00000000000E+00 -0.45593999997E+02  0.45594000000E+02  0.51100000000E-03 0. -1.
    9900012    2    1    2    0    0  0.41350262413E+02  0.56343262681E+01  0.11917779966E+02  0.47787270589E+02  0.19999997924E+02 0.  0.
         12    1    1    2    0    0 -0.41350262413E+02 -0.56343262681E+01 -0.11917779966E+02  0.43400729411E+02  0.00000000000E+00 0. -1.
         11    1    3    3    0    0  0.67718984744E+01 -0.48961496073E+00 -0.38621960629E+00  0.68005512719E+01  0.51100000000E-03 0. -1.
        -11    1    3    3    0    0  0.16743699318E+02  0.93344807272E+01  0.15640074822E+00  0.19170510133E+02  0.51100000000E-03 0.  1.
        -12    1    3    3    0    0  0.17834664620E+02 -0.32105394984E+01  0.12147598824E+02  0.21816209184E+02  0.00000000000E+00 0.  1.
</event>
<event>
 7    1  0.2455451E-009  0.4778727E+02  0.7816164E-02  0.1312668E+00
        -11   -1    0    0    0    0  0.00000000000E+00  0.00000000000E+00  0.45593999997E+02  0.45594000000E+02  0.51100000000E-03 0.  1.
         11   -1    0    0    0    0 -0.00000000000E+00 -0.00000000000E+00 -0.45593999997E+02  0.45594000000E+02  0.51100000000E-03 0. -1.
    9900012    2    1    2    0    0 -0.18656523291E+02 -0.35416567513E+02  0.16769744845E+02  0.47787268924E+02  0.19999990334E+02 0.  0.
         12    1    1    2    0    0  0.18656523291E+02  0.35416567513E+02 -0.16769744845E+02  0.43400731076E+02  0.00000000000E+00 0. -1.
         11    1    3    3    0    0 -0.39748725481E+01 -0.53416952067E+01  0.11348029669E+01  0.67543391601E+01  0.51100000000E-03 0. -1.
        -11    1    3    3    0    0 -0.96457765158E+01 -0.25983235387E+01  0.46053534960E+01  0.11000071404E+02  0.51100000000E-03 0.  1.
        -12    1    3    3    0    0 -0.50358742270E+01 -0.27476548768E+02  0.11029588382E+02  0.30032858361E+02  0.00000000000E+00 0.  1.
</event>
<event>
 7    1  0.2455451E-009  0.4778727E+02  0.7816164E-02  0.1312668E+00
        -11   -1    0    0    0    0  0.00000000000E+00  0.00000000000E+00  0.45593999997E+02  0.45594000000E+02  0.51100000000E-03 0.  1.
         11   -1    0    0    0    0 -0.00000000000E+00 -0.00000000000E+00 -0.45593999997E+02  0.45594000000E+02  0.51100000000E-03 0. -1.
    9900012    2    1    2    0    0  0.71641944372E+01  0.38922162281E+02  0.17814682467E+02  0.47787270628E+02  0.19999998103E+02 0.  0.
         12    1    1    2    0    0 -0.71641944372E+01 -0.38922162281E+02 -0.17814682467E+02  0.43400729372E+02  0.00000000000E+00 0. -1.
         11    1    3    3    0    0  0.31874039911E+01  0.26593537806E+01  0.47056465899E+00  0.41776953087E+01  0.51100000000E-03 0.  1.
        -11    1    3    3    0    0  0.79858521693E+00  0.26388221678E+02  0.39905093891E+01  0.26700190020E+02  0.51100000000E-03 0. -1.
        -12    1    3    3    0    0  0.31782052291E+01  0.98745868226E+01  0.13353608419E+02  0.16909385300E+02  0.00000000000E+00 0.  1.
</event>
<event>
 7    1  0.2455451E-009  0.4778727E+02  0.7816164E-02  0.1312668E+00
        -11   -1    0    0    0    0  0.00000000000E+00  0.00000000000E+00  0.45593999997E+02  0.45594000000E+02  0.51100000000E-03 0.  1.
         11   -1    0    0    0    0 -0.00000000000E+00 -0.00000000000E+00 -0.45593999997E+02  0.45594000000E+02  0.51100000000E-03 0. -1.
    9900012    2    1    2    0    0 -0.33033609950E+02  0.11754493881E+02  0.25578030719E+02  0.47787272262E+02  0.20000005554E+02 0.  0.
         12    1    1    2    0    0  0.33033609950E+02 -0.11754493881E+02 -0.25578030719E+02  0.43400727738E+02  0.00000000000E+00 0. -1.
         11    1    3    3    0    0 -0.22635983427E+02  0.92315734608E+01  0.78697163517E+01  0.25681552329E+02  0.51100000000E-03 0. -1.
        -11    1    3    3    0    0 -0.10290516295E+02  0.38024297653E+01  0.17697159131E+02  0.20821686755E+02  0.51100000000E-03 0.  1.
         12    1    3    3    0    0 -0.10711022682E+00 -0.12795093453E+01  0.11155235781E-01  0.12840331789E+01  0.00000000000E+00 0. -1.
</event>
<event>
 7    1  0.2455451E-009  0.4778727E+02  0.7816164E-02  0.1312668E+00
        -11   -1    0    0    0    0  0.00000000000E+00  0.00000000000E+00  0.45593999997E+02  0.45594000000E+02  0.51100000000E-03 0.  1.
         11   -1    0    0    0    0 -0.00000000000E+00 -0.00000000000E+00 -0.45593999997E+02  0.45594000000E+02  0.51100000000E-03 0. -1.
    9900012    2    1    2    0    0 -0.21728659189E+02 -0.65015248519E+01  0.37002956976E+02  0.47787270968E+02  0.19999999653E+02 0.  0.
         12    1    1    2    0    0  0.21728659189E+02  0.65015248519E+01 -0.37002956976E+02  0.43400729032E+02  0.00000000000E+00 0. -1.
         11    1    3    3    0    0 -0.43295212460E+01 -0.35987001710E+01  0.33671821188E+01  0.65599781114E+01  0.51100000000E-03 0. -1.
        -11    1    3    3    0    0 -0.12804097832E+02 -0.75905431554E+01  0.30530216897E+02  0.33965503246E+02  0.51100000000E-03 0.  1.
        -12    1    3    3    0    0 -0.45950401106E+01  0.46877184745E+01  0.31055579598E+01  0.72617896111E+01  0.00000000000E+00 0.  1.
</event>
<event>
 7    1  0.2455451E-009  0.4778728E+02  0.7816164E-02  0.1312668E+00
        -11   -1    0    0    0    0  0.00000000000E+00  0.00000000000E+00  0.45593999997E+02  0.45594000000E+02  0.51100000000E-03 0.  1.
         11   -1    0    0    0    0 -0.00000000000E+00 -0.00000000000E+00 -0.45593999997E+02  0.45594000000E+02  0.51100000000E-03 0. -1.
    9900012    2    1    2    0    0  0.65519178310E+01 -0.40044130548E+01  0.42716037244E+02  0.47787276630E+02  0.20000025466E+02 0.  0.
         12    1    1    2    0    0 -0.65519178310E+01  0.40044130548E+01 -0.42716037244E+02  0.43400723370E+02  0.00000000000E+00 0. -1.
         11    1    3    3    0    0  0.10367786847E+01 -0.10410297405E+02  0.18543003876E+02  0.21290659809E+02  0.51100000000E-03 0. -1.
        -11    1    3    3    0    0  0.58788881464E+01  0.37172178164E+01  0.10763096721E+02  0.12814963340E+02  0.51100000000E-03 0.  1.
         12    1    3    3    0    0 -0.36374900007E+00  0.26886665337E+01  0.13409936648E+02  0.13681653481E+02  0.00000000000E+00 0. -1.
</event>
<event>
 7    1  0.2455451E-009  0.4778727E+02  0.7816164E-02  0.1312668E+00
        -11   -1    0    0    0    0  0.00000000000E+00  0.00000000000E+00  0.45593999997E+02  0.45594000000E+02  0.51100000000E-03 0.  1.
         11   -1    0    0    0    0 -0.00000000000E+00 -0.00000000000E+00 -0.45593999997E+02  0.45594000000E+02  0.51100000000E-03 0. -1.
    9900012    2    1    2    0    0  0.98405598660E+01  0.32445973380E+02  0.27093273523E+02  0.47787271006E+02  0.19999999824E+02 0.  0.
         12    1    1    2    0    0 -0.98405598660E+01 -0.32445973380E+02 -0.27093273523E+02  0.43400728994E+02  0.00000000000E+00 0. -1.
         11    1    3    3    0    0  0.69481781537E+01  0.23638116656E+02  0.11143378758E+02  0.27040943569E+02  0.51100000000E-03 0. -1.
        -11    1    3    3    0    0  0.48731529251E+01  0.32779779201E+01  0.12795559901E+02  0.14079030937E+02  0.51100000000E-03 0.  1.
         12    1    3    3    0    0 -0.19807712128E+01  0.55298788039E+01  0.31543348634E+01  0.66672964996E+01  0.00000000000E+00 0. -1.
</event>
<event>
 7    1  0.2455451E-009  0.4778727E+02  0.7816164E-02  0.1312668E+00
        -11   -1    0    0    0    0  0.00000000000E+00  0.00000000000E+00  0.45593999997E+02  0.45594000000E+02  0.51100000000E-03 0. -1.
         11   -1    0    0    0    0 -0.00000000000E+00 -0.00000000000E+00 -0.45593999997E+02  0.45594000000E+02  0.51100000000E-03 0.  1.
    9900012    2    1    2    0    0  0.22315803511E+02  0.29950930145E+02 -0.22103616399E+02  0.47787272347E+02  0.20000005939E+02 0.  0.
         12    1    1    2    0    0 -0.22315803511E+02 -0.29950930145E+02  0.22103616399E+02  0.43400727653E+02  0.00000000000E+00 0. -1.
         11    1    3    3    0    0  0.12310041494E+01  0.14992953107E+02 -0.13854612006E+02  0.20451266175E+02  0.51100000000E-03 0. -1.
        -11    1    3    3    0    0  0.65290342024E+01  0.30608350757E+01 -0.15247350587E+01  0.73703335228E+01  0.51100000000E-03 0.  1.
         12    1    3    3    0    0  0.14555765159E+02  0.11897141962E+02 -0.67242693350E+01  0.19965672649E+02  0.00000000000E+00 0. -1.
</event>
<event>
 7    1  0.2455451E-009  0.4778726E+02  0.7816164E-02  0.1312668E+00
        -11   -1    0    0    0    0  0.00000000000E+00  0.00000000000E+00  0.45593999997E+02  0.45594000000E+02  0.51100000000E-03 0.  1.
         11   -1    0    0    0    0 -0.00000000000E+00 -0.00000000000E+00 -0.45593999997E+02  0.45594000000E+02  0.51100000000E-03 0. -1.
    9900012    2    1    2    0    0 -0.24102426183E+02  0.35847055719E+02 -0.42054145936E+01  0.47787264251E+02  0.19999969028E+02 0.  0.
         12    1    1    2    0    0  0.24102426183E+02 -0.35847055719E+02  0.42054145936E+01  0.43400735749E+02  0.00000000000E+00 0. -1.
         11    1    3    3    0    0 -0.71468313899E+00 -0.50817162663E+00 -0.79204543090E+00  0.11816711120E+01  0.51100000000E-03 0. -1.
        -11    1    3    3    0    0 -0.34496307044E+01  0.66606994302E+01 -0.74980204081E+01  0.10605903035E+02  0.51100000000E-03 0.  1.
        -12    1    3    3    0    0 -0.19938112339E+02  0.29694527915E+02  0.40846512455E+01  0.35999690104E+02  0.00000000000E+00 0.  1.
</event>
<event>
 7    1  0.2455451E-009  0.4778727E+02  0.7816164E-02  0.1312668E+00
        -11   -1    0    0    0    0  0.00000000000E+00  0.00000000000E+00  0.45593999997E+02  0.45594000000E+02  0.51100000000E-03 0.  1.
         11   -1    0    0    0    0 -0.00000000000E+00 -0.00000000000E+00 -0.45593999997E+02  0.45594000000E+02  0.51100000000E-03 0. -1.
    9900012    2    1    2    0    0 -0.25199182758E+02 -0.31764350824E+02  0.15480644636E+02  0.47787272433E+02  0.20000006332E+02 0.  0.
         12    1    1    2    0    0  0.25199182758E+02  0.31764350824E+02 -0.15480644636E+02  0.43400727567E+02  0.00000000000E+00 0. -1.
         11    1    3    3    0    0 -0.96215688393E+01 -0.17102120111E+02  0.13930069146E+02  0.24064578240E+02  0.51100000000E-03 0. -1.
        -11    1    3    3    0    0 -0.16647469609E+02 -0.11244648422E+02  0.12192646918E+01  0.20126275591E+02  0.51100000000E-03 0.  1.
         12    1    3    3    0    0  0.10698556898E+01 -0.34175822915E+01  0.33131079840E+00  0.35964186021E+01  0.00000000000E+00 0. -1.
</event>
<event>
 7    1  0.2455451E-009  0.4778727E+02  0.7816164E-02  0.1312668E+00
        -11   -1    0    0    0    0  0.00000000000E+00  0.00000000000E+00  0.45593999997E+02  0.45594000000E+02  0.51100000000E-03 0. -1.
         11   -1    0    0    0    0 -0.00000000000E+00 -0.00000000000E+00 -0.45593999997E+02  0.45594000000E+02  0.51100000000E-03 0.  1.
    9900012    2    1    2    0    0  0.15749506567E+02  0.39004878569E+02  0.10686237084E+02  0.47787272214E+02  0.20000005333E+02 0.  0.
         12    1    1    2    0    0 -0.15749506567E+02 -0.39004878569E+02 -0.10686237084E+02  0.43400727786E+02  0.00000000000E+00 0. -1.
         11    1    3    3    0    0  0.43871357914E+01  0.23540812501E+01 -0.29790249086E+01  0.58020038479E+01  0.51100000000E-03 0. -1.
        -11    1    3    3    0    0  0.12029359553E+02  0.26120654111E+02  0.73254971852E+01  0.29675865138E+02  0.51100000000E-03 0.  1.
         12    1    3    3    0    0 -0.66698877675E+00  0.10530143208E+02  0.63397648077E+01  0.12309403228E+02  0.00000000000E+00 0. -1.
</event>
<event>
 7    1  0.2455451E-009  0.4778727E+02  0.7816164E-02  0.1312668E+00
        -11   -1    0    0    0    0  0.00000000000E+00  0.00000000000E+00  0.45593999997E+02  0.45594000000E+02  0.51100000000E-03 0.  1.
         11   -1    0    0    0    0 -0.00000000000E+00 -0.00000000000E+00 -0.45593999997E+02  0.45594000000E+02  0.51100000000E-03 0. -1.
    9900012    2    1    2    0    0  0.40648810380E+02  0.12130573813E+02  0.91731627280E+01  0.47787268200E+02  0.19999987032E+02 0.  0.
         12    1    1    2    0    0 -0.40648810380E+02 -0.12130573813E+02 -0.91731627280E+01  0.43400731800E+02  0.00000000000E+00 0. -1.
         11    1    3    3    0    0  0.21142920194E+02  0.11226466476E+02  0.11100756214E+02  0.26387182734E+02  0.51100000000E-03 0. -1.
        -11    1    3    3    0    0  0.41933391683E+01  0.25943318612E+01  0.22766038290E+01  0.54311671344E+01  0.51100000000E-03 0.  1.
         12    1    3    3    0    0  0.15312551018E+02 -0.16902245245E+01 -0.42041973152E+01  0.15968918332E+02  0.00000000000E+00 0. -1.
</event>
<event>
 7    1  0.2455451E-009  0.4778727E+02  0.7816164E-02  0.1312668E+00
        -11   -1    0    0    0    0  0.00000000000E+00  0.00000000000E+00  0.45593999997E+02  0.45594000000E+02  0.51100000000E-03 0.  1.
         11   -1    0    0    0    0 -0.00000000000E+00 -0.00000000000E+00 -0.45593999997E+02  0.45594000000E+02  0.51100000000E-03 0. -1.
    9900012    2    1    2    0    0  0.22803654209E+02  0.29026768848E+02  0.22826809794E+02  0.47787271891E+02  0.20000003859E+02 0.  0.
         12    1    1    2    0    0 -0.22803654209E+02 -0.29026768848E+02 -0.22826809794E+02  0.43400728109E+02  0.00000000000E+00 0. -1.
         11    1    3    3    0    0 -0.32025100915E-01  0.67284546815E+01  0.41198651953E+01  0.78896398838E+01  0.51100000000E-03 0. -1.
        -11    1    3    3    0    0  0.10009528985E+02  0.34794056455E+01  0.12308360658E+02  0.16241695616E+02  0.51100000000E-03 0.  1.
        -12    1    3    3    0    0  0.12826150325E+02  0.18818908521E+02  0.63985839410E+01  0.23655936391E+02  0.00000000000E+00 0.  1.
</event>
<event>
 7    1  0.2455451E-009  0.4778727E+02  0.7816164E-02  0.1312668E+00
        -11   -1    0    0    0    0  0.00000000000E+00  0.00000000000E+00  0.45593999997E+02  0.45594000000E+02  0.51100000000E-03 0.  1.
         11   -1    0    0    0    0 -0.00000000000E+00 -0.00000000000E+00 -0.45593999997E+02  0.45594000000E+02  0.51100000000E-03 0. -1.
    9900012    2    1    2    0    0 -0.13407927761E+02 -0.36750694134E+02  0.18794607834E+02  0.47787270400E+02  0.19999997064E+02 0.  0.
         12    1    1    2    0    0  0.13407927761E+02  0.36750694134E+02 -0.18794607834E+02  0.43400729600E+02  0.00000000000E+00 0. -1.
         11    1    3    3    0    0 -0.53097452327E+01 -0.11737271204E+02  0.99286902273E+00  0.12920631521E+02  0.51100000000E-03 0. -1.
        -11    1    3    3    0    0 -0.61595384850E+01 -0.10014029219E+02  0.15674463412E+02  0.19593608628E+02  0.51100000000E-03 0.  1.
        -12    1    3    3    0    0 -0.19386440433E+01 -0.14999393711E+02  0.21272753987E+01  0.15273030251E+02  0.00000000000E+00 0.  1.
</event>
<event>
 7    1  0.2455451E-009  0.4778727E+02  0.7816164E-02  0.1312668E+00
        -11   -1    0    0    0    0  0.00000000000E+00  0.00000000000E+00  0.45593999997E+02  0.45594000000E+02  0.51100000000E-03 0. -1.
         11   -1    0    0    0    0 -0.00000000000E+00 -0.00000000000E+00 -0.45593999997E+02  0.45594000000E+02  0.51100000000E-03 0.  1.
    9900012    2    1    2    0    0  0.28222320795E+02 -0.32435756394E+02  0.59199460898E+01  0.47787269065E+02  0.19999990976E+02 0.  0.
         12    1    1    2    0    0 -0.28222320795E+02  0.32435756394E+02 -0.59199460898E+01  0.43400730935E+02  0.00000000000E+00 0. -1.
         11    1    3    3    0    0  0.13931701435E+02 -0.13305248297E+02 -0.53131039553E+01  0.19983768689E+02  0.51100000000E-03 0. -1.
        -11    1    3    3    0    0  0.10808305019E+01 -0.76947557095E+01  0.50616326904E+01  0.92734883273E+01  0.51100000000E-03 0.  1.
        -12    1    3    3    0    0  0.13209788859E+02 -0.11435752387E+02  0.61714173547E+01  0.18530012049E+02  0.00000000000E+00 0.  1.
</event>
<event>
 7    1  0.2455451E-009  0.4778727E+02  0.7816164E-02  0.1312668E+00
        -11   -1    0    0    0    0  0.00000000000E+00  0.00000000000E+00  0.45593999997E+02  0.45594000000E+02  0.51100000000E-03 0.  1.
         11   -1    0    0    0    0 -0.00000000000E+00 -0.00000000000E+00 -0.45593999997E+02  0.45594000000E+02  0.51100000000E-03 0. -1.
    9900012    2    1    2    0    0 -0.81248583203E+01 -0.16044558360E+02  0.39499140408E+02  0.47787271105E+02  0.20000000274E+02 0.  0.
         12    1    1    2    0    0  0.81248583203E+01  0.16044558360E+02 -0.39499140408E+02  0.43400728895E+02  0.00000000000E+00 0. -1.
         11    1    3    3    0    0 -0.77228755057E+01 -0.11283410336E+02  0.12498790960E+02  0.18525062230E+02  0.51100000000E-03 0. -1.
        -11    1    3    3    0    0  0.24089053652E+01  0.23819582487E+01  0.58256837300E+01  0.67390757037E+01  0.51100000000E-03 0.  1.
        -12    1    3    3    0    0 -0.28108881797E+01 -0.71431062722E+01  0.21174665718E+02  0.22523133171E+02  0.00000000000E+00 0.  1.
</event>
<event>
 7    1  0.2455451E-009  0.4778727E+02  0.7816164E-02  0.1312668E+00
        -11   -1    0    0    0    0  0.00000000000E+00  0.00000000000E+00  0.45593999997E+02  0.45594000000E+02  0.51100000000E-03 0. -1.
         11   -1    0    0    0    0 -0.00000000000E+00 -0.00000000000E+00 -0.45593999997E+02  0.45594000000E+02  0.51100000000E-03 0.  1.
    9900012    2    1    2    0    0  0.24735335905E+02  0.29748170077E+02 -0.19668071211E+02  0.47787268550E+02  0.19999988625E+02 0.  0.
         12    1    1    2    0    0 -0.24735335905E+02 -0.29748170077E+02  0.19668071211E+02  0.43400731450E+02  0.00000000000E+00 0. -1.
         11    1    3    3    0    0  0.10815851831E+02  0.94941921452E+01 -0.16015727374E+01  0.14480585997E+02  0.51100000000E-03 0. -1.
        -11    1    3    3    0    0  0.76082951793E+01  0.18546436164E+02 -0.17726458737E+02  0.26759741956E+02  0.51100000000E-03 0.  1.
        -12    1    3    3    0    0  0.63111888948E+01  0.17075417672E+01 -0.34003973648E+00  0.65469405966E+01  0.00000000000E+00 0.  1.
</event>
<event>
 7    1  0.2455451E-009  0.4778727E+02  0.7816164E-02  0.1312668E+00
        -11   -1    0    0    0    0  0.00000000000E+00  0.00000000000E+00  0.45593999997E+02  0.45594000000E+02  0.51100000000E-03 0.  1.
         11   -1    0    0    0    0 -0.00000000000E+00 -0.00000000000E+00 -0.45593999997E+02  0.45594000000E+02  0.51100000000E-03 0. -1.
    9900012    2    1    2    0    0  0.35335662327E+02  0.24892724616E+02  0.39199741466E+01  0.47787274566E+02  0.20000016058E+02 0.  0.
         12    1    1    2    0    0 -0.35335662327E+02 -0.24892724616E+02 -0.39199741466E+01  0.43400725434E+02  0.00000000000E+00 0. -1.
         11    1    3    3    0    0  0.54421520049E+00  0.52652062095E+01  0.11234457142E+00  0.52944488076E+01  0.51100000000E-03 0. -1.
        -11    1    3    3    0    0  0.15459888909E+02  0.59764850912E+01  0.80885144944E+01  0.18443172344E+02  0.51100000000E-03 0.  1.
        -12    1    3    3    0    0  0.19331558217E+02  0.13651033315E+02 -0.42808849192E+01  0.24049653415E+02  0.00000000000E+00 0.  1.
</event>
<event>
 7    1  0.2455451E-009  0.4778727E+02  0.7816164E-02  0.1312668E+00
        -11   -1    0    0    0    0  0.00000000000E+00  0.00000000000E+00  0.45593999997E+02  0.45594000000E+02  0.51100000000E-03 0.  1.
         11   -1    0    0    0    0 -0.00000000000E+00 -0.00000000000E+00 -0.45593999997E+02  0.45594000000E+02  0.51100000000E-03 0. -1.
    9900012    2    1    2    0    0  0.27719993136E+02 -0.85516555478E+01  0.32281491572E+02  0.47787268091E+02  0.19999986536E+02 0.  0.
         12    1    1    2    0    0 -0.27719993136E+02  0.85516555478E+01 -0.32281491572E+02  0.43400731909E+02  0.00000000000E+00 0. -1.
         11    1    3    3    0    0  0.90280482504E+00  0.14595131514E+01  0.53732928510E+00  0.17983209427E+01  0.51100000000E-03 0.  1.
        -11    1    3    3    0    0  0.17005380496E+02 -0.41064261666E+01  0.72249766203E+01  0.18927387276E+02  0.51100000000E-03 0. -1.
        -12    1    3    3    0    0  0.98118078150E+01 -0.59047425326E+01  0.24519185667E+02  0.27061559872E+02  0.00000000000E+00 0.  1.
</event>
<event>
 7    1  0.2455451E-009  0.4778726E+02  0.7816164E-02  0.1312668E+00
        -11   -1    0    0    0    0  0.00000000000E+00  0.00000000000E+00  0.45593999997E+02  0.45594000000E+02  0.51100000000E-03 0.  1.
         11   -1    0    0    0    0 -0.00000000000E+00 -0.00000000000E+00 -0.45593999997E+02  0.45594000000E+02  0.51100000000E-03 0. -1.
    9900012    2    1    2    0    0  0.72704671027E+01 -0.22048090495E+01  0.42730589279E+02  0.47787261124E+02  0.19999954768E+02 0.  0.
         12    1    1    2    0    0 -0.72704671027E+01  0.22048090495E+01 -0.42730589279E+02  0.43400738876E+02  0.00000000000E+00 0. -1.
         11    1    3    3    0    0  0.45785912279E-01 -0.54556563018E+00 -0.15785943141E+01  0.16708376570E+01  0.51100000000E-03 0. -1.
        -11    1    3    3    0    0  0.37148533706E+01  0.22432544863E+01  0.36184780869E+02  0.36444076240E+02  0.51100000000E-03 0.  1.
        -12    1    3    3    0    0  0.35098278198E+01 -0.39024979056E+01  0.81244027249E+01  0.96723472262E+01  0.00000000000E+00 0.  1.
</event>
<event>
 7    1  0.2455451E-009  0.4778727E+02  0.7816164E-02  0.1312668E+00
        -11   -1    0    0    0    0  0.00000000000E+00  0.00000000000E+00  0.45593999997E+02  0.45594000000E+02  0.51100000000E-03 0.  1.
         11   -1    0    0    0    0 -0.00000000000E+00 -0.00000000000E+00 -0.45593999997E+02  0.45594000000E+02  0.51100000000E-03 0. -1.
    9900012    2    1    2    0    0 -0.28485910147E+02  0.43036542096E+01  0.32460056090E+02  0.47787265469E+02  0.19999974579E+02 0.  0.
         12    1    1    2    0    0  0.28485910147E+02 -0.43036542096E+01 -0.32460056090E+02  0.43400734531E+02  0.00000000000E+00 0. -1.
         11    1    3    3    0    0 -0.68003141084E+01 -0.26413020612E+01  0.16332937307E+02  0.17888141041E+02  0.51100000000E-03 0. -1.
        -11    1    3    3    0    0 -0.19421650612E+02  0.95525684997E+01  0.14693442659E+02  0.26160071385E+02  0.51100000000E-03 0.  1.
         12    1    3    3    0    0 -0.22639454275E+01 -0.26076122290E+01  0.14336761241E+01  0.37390530438E+01  0.00000000000E+00 0. -1.
</event>
<event>
 7    1  0.2455451E-009  0.4778727E+02  0.7816164E-02  0.1312668E+00
        -11   -1    0    0    0    0  0.00000000000E+00  0.00000000000E+00  0.45593999997E+02  0.45594000000E+02  0.51100000000E-03 0.  1.
         11   -1    0    0    0    0 -0.00000000000E+00 -0.00000000000E+00 -0.45593999997E+02  0.45594000000E+02  0.51100000000E-03 0. -1.
    9900012    2    1    2    0    0  0.12780217077E+02  0.21212144679E+02  0.35641747583E+02  0.47787271882E+02  0.20000003818E+02 0.  0.
         12    1    1    2    0    0 -0.12780217077E+02 -0.21212144679E+02 -0.35641747583E+02  0.43400728118E+02  0.00000000000E+00 0. -1.
         11    1    3    3    0    0  0.15130936145E+02  0.18243817895E+02  0.25581314085E+02  0.34873854828E+02  0.51100000000E-03 0. -1.
        -11    1    3    3    0    0 -0.21638304520E+01  0.23040973846E+01  0.11168994559E+02  0.11607646906E+02  0.51100000000E-03 0.  1.
        -12    1    3    3    0    0 -0.18688861615E+00  0.66422940000E+00 -0.11085610614E+01  0.13057701473E+01  0.00000000000E+00 0.  1.
</event>
<event>
 7    1  0.2455451E-009  0.4778727E+02  0.7816164E-02  0.1312668E+00
        -11   -1    0    0    0    0  0.00000000000E+00  0.00000000000E+00  0.45593999997E+02  0.45594000000E+02  0.51100000000E-03 0.  1.
         11   -1    0    0    0    0 -0.00000000000E+00 -0.00000000000E+00 -0.45593999997E+02  0.45594000000E+02  0.51100000000E-03 0. -1.
    9900012    2    1    2    0    0  0.14567015326E+01 -0.43316976882E+02  0.22673861157E+01  0.47787268378E+02  0.19999987842E+02 0.  0.
         12    1    1    2    0    0 -0.14567015326E+01  0.43316976882E+02 -0.22673861157E+01  0.43400731622E+02  0.00000000000E+00 0. -1.
         11    1    3    3    0    0 -0.64213975135E+01 -0.78463023052E+01 -0.38931648174E+01  0.10860733790E+02  0.51100000000E-03 0. -1.
        -11    1    3    3    0    0  0.53731839746E+01 -0.23745739224E+02  0.30211642115E+01  0.24532808049E+02  0.51100000000E-03 0.  1.
         12    1    3    3    0    0  0.25049150715E+01 -0.11724935353E+02  0.31393867216E+01  0.12393726539E+02  0.00000000000E+00 0. -1.
</event>
<event>
 7    1  0.2455451E-009  0.4778727E+02  0.7816164E-02  0.1312668E+00
        -11   -1    0    0    0    0  0.00000000000E+00  0.00000000000E+00  0.45593999997E+02  0.45594000000E+02  0.51100000000E-03 0. -1.
         11   -1    0    0    0    0 -0.00000000000E+00 -0.00000000000E+00 -0.45593999997E+02  0.45594000000E+02  0.51100000000E-03 0.  1.
    9900012    2    1    2    0    0  0.38314281639E+02 -0.12904219268E+02  0.15783548689E+02  0.47787268881E+02  0.19999990138E+02 0.  0.
         12    1    1    2    0    0 -0.38314281639E+02  0.12904219268E+02 -0.15783548689E+02  0.43400731119E+02  0.00000000000E+00 0. -1.
         11    1    3    3    0    0  0.17654436341E+02 -0.11516520477E+01  0.61356986534E+01  0.18725710218E+02  0.51100000000E-03 0. -1.
        -11    1    3    3    0    0  0.18508632746E+02 -0.61408634778E+01  0.24027197493E+01  0.19648225183E+02  0.51100000000E-03 0.  1.
         12    1    3    3    0    0  0.21512125518E+01 -0.56117037428E+01  0.72451302868E+01  0.94133334804E+01  0.00000000000E+00 0. -1.
</event>
<event>
 7    1  0.2455451E-009  0.4778727E+02  0.7816164E-02  0.1312668E+00
        -11   -1    0    0    0    0  0.00000000000E+00  0.00000000000E+00  0.45593999997E+02  0.45594000000E+02  0.51100000000E-03 0. -1.
         11   -1    0    0    0    0 -0.00000000000E+00 -0.00000000000E+00 -0.45593999997E+02  0.45594000000E+02  0.51100000000E-03 0.  1.
    9900012    2    1    2    0    0  0.33836848702E+02  0.21666705622E+02 -0.16408681636E+02  0.47787270794E+02  0.19999998858E+02 0.  0.
         12    1    1    2    0    0 -0.33836848702E+02 -0.21666705622E+02  0.16408681636E+02  0.43400729206E+02  0.00000000000E+00 0. -1.
         11    1    3    3    0    0 -0.13221476414E+01  0.95121783524E+00  0.41570200445E+00  0.16809813126E+01  0.51100000000E-03 0. -1.
        -11    1    3    3    0    0  0.35180340281E+02  0.16956600258E+02 -0.16267998951E+02  0.42306387517E+02  0.51100000000E-03 0.  1.
        -12    1    3    3    0    0 -0.21343937786E-01  0.37588875286E+01 -0.55638469017E+00  0.37999019645E+01  0.00000000000E+00 0.  1.
</event>
<event>
 7    1  0.2455451E-009  0.4778727E+02  0.7816164E-02  0.1312668E+00
        -11   -1    0    0    0    0  0.00000000000E+00  0.00000000000E+00  0.45593999997E+02  0.45594000000E+02  0.51100000000E-03 0.  1.
         11   -1    0    0    0    0 -0.00000000000E+00 -0.00000000000E+00 -0.45593999997E+02  0.45594000000E+02  0.51100000000E-03 0. -1.
    9900012    2    1    2    0    0 -0.52912646256E+00 -0.40290806896E+02  0.16124337174E+02  0.47787270231E+02  0.19999996293E+02 0.  0.
         12    1    1    2    0    0  0.52912646256E+00  0.40290806896E+02 -0.16124337174E+02  0.43400729769E+02  0.00000000000E+00 0. -1.
         11    1    3    3    0    0  0.23713098730E+01 -0.42243008997E+00  0.48548272075E+01  0.54194930733E+01  0.51100000000E-03 0. -1.
        -11    1    3    3    0    0 -0.33165607174E+01 -0.13675174272E+02  0.73631322671E+01  0.15881614635E+02  0.51100000000E-03 0.  1.
         12    1    3    3    0    0  0.41612438184E+00 -0.26193202534E+02  0.39063776990E+01  0.26486162523E+02  0.00000000000E+00 0. -1.
</event>
<event>
 7    1  0.2455451E-009  0.4778727E+02  0.7816164E-02  0.1312668E+00
        -11   -1    0    0    0    0  0.00000000000E+00  0.00000000000E+00  0.45593999997E+02  0.45594000000E+02  0.51100000000E-03 0.  1.
         11   -1    0    0    0    0 -0.00000000000E+00 -0.00000000000E+00 -0.45593999997E+02  0.45594000000E+02  0.51100000000E-03 0. -1.
    9900012    2    1    2    0    0  0.22635897695E+02  0.32107299475E+01  0.36890791214E+02  0.47787272730E+02  0.20000007683E+02 0.  0.
         12    1    1    2    0    0 -0.22635897695E+02 -0.32107299475E+01 -0.36890791214E+02  0.43400727270E+02  0.00000000000E+00 0. -1.
         11    1    3    3    0    0  0.13627805261E+02  0.67670960535E+01  0.33476292096E+02  0.36771902289E+02  0.51100000000E-03 0. -1.
        -11    1    3    3    0    0  0.49718425654E+00  0.32875010921E+00  0.12905995679E+01  0.14215893658E+01  0.51100000000E-03 0.  1.
         12    1    3    3    0    0  0.85109081772E+01 -0.38851162153E+01  0.21238995499E+01  0.95937810745E+01  0.00000000000E+00 0. -1.
</event>
<event>
 7    1  0.2455451E-009  0.4778730E+02  0.7816164E-02  0.1312668E+00
        -11   -1    0    0    0    0  0.00000000000E+00  0.00000000000E+00  0.45593999997E+02  0.45594000000E+02  0.51100000000E-03 0.  1.
         11   -1    0    0    0    0 -0.00000000000E+00 -0.00000000000E+00 -0.45593999997E+02  0.45594000000E+02  0.51100000000E-03 0. -1.
    9900012    2    1    2    0    0 -0.39374099112E+02 -0.78437445893E+01  0.16485659838E+02  0.47787297352E+02  0.20000119944E+02 0.  0.
         12    1    1    2    0    0  0.39374099112E+02  0.78437445893E+01 -0.16485659838E+02  0.43400702648E+02  0.00000000000E+00 0. -1.
         11    1    3    3    0    0 -0.44441315281E+01 -0.24538432761E+01 -0.28574208044E+01  0.58255047659E+01  0.51100000000E-03 0. -1.
        -11    1    3    3    0    0 -0.23812926054E+02  0.11618394592E+01  0.92242952518E+01  0.25563508001E+02  0.51100000000E-03 0.  1.
        -12    1    3    3    0    0 -0.11117041531E+02 -0.65517407724E+01  0.10118785391E+02  0.16398284585E+02  0.00000000000E+00 0.  1.
</event>
<event>
 7    1  0.2455451E-009  0.4778727E+02  0.7816164E-02  0.1312668E+00
        -11   -1    0    0    0    0  0.00000000000E+00  0.00000000000E+00  0.45593999997E+02  0.45594000000E+02  0.51100000000E-03 0. -1.
         11   -1    0    0    0    0 -0.00000000000E+00 -0.00000000000E+00 -0.45593999997E+02  0.45594000000E+02  0.51100000000E-03 0.  1.
    9900012    2    1    2    0    0  0.55955086402E+01  0.36351463483E+02 -0.23040930744E+02  0.47787273003E+02  0.20000008932E+02 0.  0.
         12    1    1    2    0    0 -0.55955086402E+01 -0.36351463483E+02  0.23040930744E+02  0.43400726997E+02  0.00000000000E+00 0. -1.
         11    1    3    3    0    0  0.99155559047E+01  0.12143183072E+02 -0.73936317410E+01  0.17333232088E+02  0.51100000000E-03 0. -1.
        -11    1    3    3    0    0 -0.58200839769E+01  0.92190574351E+01 -0.49227994132E+01  0.11962372332E+02  0.51100000000E-03 0.  1.
        -12    1    3    3    0    0  0.15000367124E+01  0.14989222975E+02 -0.10724499590E+02  0.18491668583E+02  0.00000000000E+00 0.  1.
</event>
<event>
 7    1  0.2455451E-009  0.4778728E+02  0.7816164E-02  0.1312668E+00
        -11   -1    0    0    0    0  0.00000000000E+00  0.00000000000E+00  0.45593999997E+02  0.45594000000E+02  0.51100000000E-03 0.  1.
         11   -1    0    0    0    0 -0.00000000000E+00 -0.00000000000E+00 -0.45593999997E+02  0.45594000000E+02  0.51100000000E-03 0. -1.
    9900012    2    1    2    0    0  0.17287236578E+02 -0.11915001947E+02  0.37984298569E+02  0.47787276992E+02  0.20000027115E+02 0.  0.
         12    1    1    2    0    0 -0.17287236578E+02  0.11915001947E+02 -0.37984298569E+02  0.43400723008E+02  0.00000000000E+00 0. -1.
         11    1    3    3    0    0  0.43450222917E+01 -0.98293518637E+01  0.24395365378E+02  0.26657629845E+02  0.51100000000E-03 0.  1.
        -11    1    3    3    0    0  0.13581761516E+02 -0.28631340928E+01  0.14275498264E+02  0.19911093231E+02  0.51100000000E-03 0. -1.
        -12    1    3    3    0    0 -0.63954722974E+00  0.77748400939E+00 -0.68656507337E+00  0.12185539151E+01  0.00000000000E+00 0.  1.
</event>
<event>
 7    1  0.2455451E-009  0.4778727E+02  0.7816164E-02  0.1312668E+00
        -11   -1    0    0    0    0  0.00000000000E+00  0.00000000000E+00  0.45593999997E+02  0.45594000000E+02  0.51100000000E-03 0.  1.
         11   -1    0    0    0    0 -0.00000000000E+00 -0.00000000000E+00 -0.45593999997E+02  0.45594000000E+02  0.51100000000E-03 0. -1.
    9900012    2    1    2    0    0  0.25120215733E+02  0.12537801352E+02  0.33096854693E+02  0.47787268534E+02  0.19999988553E+02 0.  0.
         12    1    1    2    0    0 -0.25120215733E+02 -0.12537801352E+02 -0.33096854693E+02  0.43400731466E+02  0.00000000000E+00 0. -1.
         11    1    3    3    0    0 -0.13642919939E+01  0.20575639964E+01  0.73699423528E+01  0.77724457405E+01  0.51100000000E-03 0. -1.
        -11    1    3    3    0    0  0.15125002118E+02  0.85629447082E+01  0.21719066085E+02  0.27817396409E+02  0.51100000000E-03 0.  1.
         12    1    3    3    0    0  0.11359505609E+02  0.19172926471E+01  0.40078462557E+01  0.12197426384E+02  0.00000000000E+00 0. -1.
</event>
<event>
 7    1  0.2455451E-009  0.4778727E+02  0.7816164E-02  0.1312668E+00
        -11   -1    0    0    0    0  0.00000000000E+00  0.00000000000E+00  0.45593999997E+02  0.45594000000E+02  0.51100000000E-03 0. -1.
         11   -1    0    0    0    0 -0.00000000000E+00 -0.00000000000E+00 -0.45593999997E+02  0.45594000000E+02  0.51100000000E-03 0.  1.
    9900012    2    1    2    0    0 -0.38390447105E+02  0.11335773160E+02 -0.16771915410E+02  0.47787270414E+02  0.19999997126E+02 0.  0.
         12    1    1    2    0    0  0.38390447105E+02 -0.11335773160E+02  0.16771915410E+02  0.43400729586E+02  0.00000000000E+00 0. -1.
         11    1    3    3    0    0 -0.30129409076E+02  0.10065053881E+01 -0.10883513508E+02  0.32050666310E+02  0.51100000000E-03 0. -1.
        -11    1    3    3    0    0 -0.40082318507E+01  0.72107422770E+00 -0.19510050269E+01  0.45157824888E+01  0.51100000000E-03 0.  1.
         12    1    3    3    0    0 -0.42528061785E+01  0.96081935440E+01 -0.39373968743E+01  0.11220821615E+02  0.00000000000E+00 0. -1.
</event>
<event>
 7    1  0.2455451E-009  0.4778727E+02  0.7816164E-02  0.1312668E+00
        -11   -1    0    0    0    0  0.00000000000E+00  0.00000000000E+00  0.45593999997E+02  0.45594000000E+02  0.51100000000E-03 0.  1.
         11   -1    0    0    0    0 -0.00000000000E+00 -0.00000000000E+00 -0.45593999997E+02  0.45594000000E+02  0.51100000000E-03 0. -1.
    9900012    2    1    2    0    0 -0.19341297816E+02  0.36027655040E+02 -0.14544610423E+02  0.47787269346E+02  0.19999992258E+02 0.  0.
         12    1    1    2    0    0  0.19341297816E+02 -0.36027655040E+02  0.14544610423E+02  0.43400730654E+02  0.00000000000E+00 0. -1.
         11    1    3    3    0    0 -0.48627094682E+01  0.16429368847E+02 -0.22888793342E+01  0.17286094786E+02  0.51100000000E-03 0. -1.
        -11    1    3    3    0    0 -0.13897651103E+02  0.95170891241E+01 -0.11458225333E+02  0.20371809434E+02  0.51100000000E-03 0.  1.
        -12    1    3    3    0    0 -0.58093724433E+00  0.10081197069E+02 -0.79750575598E+00  0.10129365126E+02  0.00000000000E+00 0.  1.
</event>
<event>
 7    1  0.2455451E-009  0.4778727E+02  0.7816164E-02  0.1312668E+00
        -11   -1    0    0    0    0  0.00000000000E+00  0.00000000000E+00  0.45593999997E+02  0.45594000000E+02  0.51100000000E-03 0.  1.
         11   -1    0    0    0    0 -0.00000000000E+00 -0.00000000000E+00 -0.45593999997E+02  0.45594000000E+02  0.51100000000E-03 0. -1.
    9900012    2    1    2    0    0 -0.19025855814E+02  0.36574251882E+02 -0.13563358641E+02  0.47787265123E+02  0.19999973003E+02 0.  0.
         12    1    1    2    0    0  0.19025855814E+02 -0.36574251882E+02  0.13563358641E+02  0.43400734877E+02  0.00000000000E+00 0. -1.
         11    1    3    3    0    0 -0.17520847874E+02  0.27003092679E+02 -0.84894948357E+01  0.33289918103E+02  0.51100000000E-03 0. -1.
        -11    1    3    3    0    0  0.10004687034E+01  0.36641991044E-01  0.20857438395E+01  0.23135703765E+01  0.51100000000E-03 0.  1.
         12    1    3    3    0    0 -0.25054766432E+01  0.95345172123E+01 -0.71596076448E+01  0.12183776644E+02  0.00000000000E+00 0. -1.
</event>
<event>
 7    1  0.2455451E-009  0.4778727E+02  0.7816164E-02  0.1312668E+00
        -11   -1    0    0    0    0  0.00000000000E+00  0.00000000000E+00  0.45593999997E+02  0.45594000000E+02  0.51100000000E-03 0.  1.
         11   -1    0    0    0    0 -0.00000000000E+00 -0.00000000000E+00 -0.45593999997E+02  0.45594000000E+02  0.51100000000E-03 0. -1.
    9900012    2    1    2    0    0  0.95985525447E+01  0.40016853193E+02  0.13789216835E+02  0.47787271303E+02  0.20000001181E+02 0.  0.
         12    1    1    2    0    0 -0.95985525447E+01 -0.40016853193E+02 -0.13789216835E+02  0.43400728697E+02  0.00000000000E+00 0. -1.
         11    1    3    3    0    0  0.67964245763E+01  0.23866605395E+02 -0.19958721627E+01  0.24895576837E+02  0.51100000000E-03 0. -1.
        -11    1    3    3    0    0  0.24667251389E+01  0.15314210373E+02  0.15542985895E+02  0.21958920353E+02  0.51100000000E-03 0.  1.
        -12    1    3    3    0    0  0.33540282957E+00  0.83603742490E+00  0.24210310327E+00  0.93277411335E+00  0.00000000000E+00 0.  1.
</event>
<event>
 7    1  0.2455451E-009  0.4778727E+02  0.7816164E-02  0.1312668E+00
        -11   -1    0    0    0    0  0.00000000000E+00  0.00000000000E+00  0.45593999997E+02  0.45594000000E+02  0.51100000000E-03 0. -1.
         11   -1    0    0    0    0 -0.00000000000E+00 -0.00000000000E+00 -0.45593999997E+02  0.45594000000E+02  0.51100000000E-03 0.  1.
    9900012    2    1    2    0    0  0.42414309668E+02  0.58315427156E+01 -0.71163552729E+01  0.47787273423E+02  0.20000010845E+02 0.  0.
         12    1    1    2    0    0 -0.42414309668E+02 -0.58315427156E+01  0.71163552729E+01  0.43400726577E+02  0.00000000000E+00 0. -1.
         11    1    3    3    0    0  0.62833613936E+01 -0.14337612325E+01 -0.55288502176E+00  0.64685379943E+01  0.51100000000E-03 0. -1.
        -11    1    3    3    0    0  0.23222890790E+02  0.21345036719E+01  0.42633650528E+01  0.23707278300E+02  0.51100000000E-03 0.  1.
        -12    1    3    3    0    0  0.12908057484E+02  0.51308002762E+01 -0.10826835304E+02  0.17611457128E+02  0.00000000000E+00 0.  1.
</event>
<event>
 7    1  0.2455451E-009  0.4778727E+02  0.7816164E-02  0.1312668E+00
        -11   -1    0    0    0    0  0.00000000000E+00  0.00000000000E+00  0.45593999997E+02  0.45594000000E+02  0.51100000000E-03 0.  1.
         11   -1    0    0    0    0 -0.00000000000E+00 -0.00000000000E+00 -0.45593999997E+02  0.45594000000E+02  0.51100000000E-03 0. -1.
    9900012    2    1    2    0    0  0.11157407058E+01  0.31938360039E+02  0.29365278075E+02  0.47787271023E+02  0.19999999901E+02 0.  0.
         12    1    1    2    0    0 -0.11157407058E+01 -0.31938360039E+02 -0.29365278075E+02  0.43400728977E+02  0.00000000000E+00 0. -1.
         11    1    3    3    0    0  0.52360128222E+01  0.12883626419E+02  0.19348282450E+02  0.23827708535E+02  0.51100000000E-03 0. -1.
        -11    1    3    3    0    0  0.81020980198E+00  0.98701724811E+01  0.91767524371E+01  0.13501464005E+02  0.51100000000E-03 0.  1.
         12    1    3    3    0    0 -0.49304819184E+01  0.91845611392E+01  0.84024318802E+00  0.10458098483E+02  0.00000000000E+00 0. -1.
</event>
<event>
 7    1  0.2455451E-009  0.4778726E+02  0.7816164E-02  0.1312668E+00
        -11   -1    0    0    0    0  0.00000000000E+00  0.00000000000E+00  0.45593999997E+02  0.45594000000E+02  0.51100000000E-03 0.  1.
         11   -1    0    0    0    0 -0.00000000000E+00 -0.00000000000E+00 -0.45593999997E+02  0.45594000000E+02  0.51100000000E-03 0. -1.
    9900012    2    1    2    0    0 -0.13942580698E+02 -0.54770833407E+01  0.40733645563E+02  0.47787264069E+02  0.19999968198E+02 0.  0.
         12    1    1    2    0    0  0.13942580698E+02  0.54770833407E+01 -0.40733645563E+02  0.43400735931E+02  0.00000000000E+00 0. -1.
         11    1    3    3    0    0 -0.18007879251E+01 -0.71361789445E+01  0.24489144486E+02  0.25571196393E+02  0.51100000000E-03 0. -1.
        -11    1    3    3    0    0 -0.72886245972E+01  0.38219285755E+01  0.46275289113E+01  0.94416741440E+01  0.51100000000E-03 0.  1.
        -12    1    3    3    0    0 -0.48531681755E+01 -0.21628329718E+01  0.11616972166E+02  0.12774393532E+02  0.00000000000E+00 0.  1.
</event>
<event>
 7    1  0.2455451E-009  0.4778727E+02  0.7816164E-02  0.1312668E+00
        -11   -1    0    0    0    0  0.00000000000E+00  0.00000000000E+00  0.45593999997E+02  0.45594000000E+02  0.51100000000E-03 0.  1.
         11   -1    0    0    0    0 -0.00000000000E+00 -0.00000000000E+00 -0.45593999997E+02  0.45594000000E+02  0.51100000000E-03 0. -1.
    9900012    2    1    2    0    0  0.12047577368E+01 -0.27799899283E+02  0.33306718608E+02  0.47787270216E+02  0.19999996223E+02 0.  0.
         12    1    1    2    0    0 -0.12047577368E+01  0.27799899283E+02 -0.33306718608E+02  0.43400729784E+02  0.00000000000E+00 0. -1.
         11    1    3    3    0    0 -0.70547965561E+01 -0.11915192360E+02  0.20447719332E+02  0.24695165307E+02  0.51100000000E-03 0. -1.
        -11    1    3    3    0    0 -0.10976236790E+01 -0.33100844223E+01  0.27457511956E+01  0.44385342753E+01  0.51100000000E-03 0.  1.
         12    1    3    3    0    0  0.93571779719E+01 -0.12574622501E+02  0.10113248080E+02  0.18653570633E+02  0.00000000000E+00 0. -1.
</event>
<event>
 7    1  0.2455451E-009  0.4778728E+02  0.7816164E-02  0.1312668E+00
        -11   -1    0    0    0    0  0.00000000000E+00  0.00000000000E+00  0.45593999997E+02  0.45594000000E+02  0.51100000000E-03 0. -1.
         11   -1    0    0    0    0 -0.00000000000E+00 -0.00000000000E+00 -0.45593999997E+02  0.45594000000E+02  0.51100000000E-03 0.  1.
    9900012    2    1    2    0    0  0.12547922690E+02 -0.35189696190E+02 -0.22087504104E+02  0.47787275129E+02  0.20000018625E+02 0.  0.
         12    1    1    2    0    0 -0.12547922690E+02  0.35189696190E+02  0.22087504104E+02  0.43400724871E+02  0.00000000000E+00 0. -1.
         11    1    3    3    0    0  0.11317358618E+02 -0.17461954283E+02 -0.13478670520E+02  0.24792680628E+02  0.51100000000E-03 0. -1.
        -11    1    3    3    0    0 -0.42563999070E+01 -0.22666821699E+01 -0.28823166536E+01  0.56180546260E+01  0.51100000000E-03 0.  1.
        -12    1    3    3    0    0  0.54869639784E+01 -0.15461059737E+02 -0.57265169303E+01  0.17376539876E+02  0.00000000000E+00 0.  1.
</event>
<event>
 7    1  0.2455451E-009  0.4778728E+02  0.7816164E-02  0.1312668E+00
        -11   -1    0    0    0    0  0.00000000000E+00  0.00000000000E+00  0.45593999997E+02  0.45594000000E+02  0.51100000000E-03 0. -1.
         11   -1    0    0    0    0 -0.00000000000E+00 -0.00000000000E+00 -0.45593999997E+02  0.45594000000E+02  0.51100000000E-03 0.  1.
    9900012    2    1    2    0    0 -0.50418035521E+01  0.38915663296E+02  0.18541132082E+02  0.47787283281E+02  0.20000055793E+02 0.  0.
         12    1    1    2    0    0  0.50418035521E+01 -0.38915663296E+02 -0.18541132082E+02  0.43400716719E+02  0.00000000000E+00 0. -1.
         11    1    3    3    0    0  0.41555105144E+01  0.11438754460E+02  0.12059742868E+02  0.17133323365E+02  0.51100000000E-03 0. -1.
        -11    1    3    3    0    0 -0.91764547608E+01  0.27543687050E+02  0.72164851326E+01  0.29915542386E+02  0.51100000000E-03 0.  1.
        -12    1    3    3    0    0 -0.20859305696E-01 -0.66778214991E-01 -0.73509591794E+00  0.73841753040E+00  0.00000000000E+00 0.  1.
</event>
<event>
 7    1  0.2455451E-009  0.4778728E+02  0.7816164E-02  0.1312668E+00
        -11   -1    0    0    0    0  0.00000000000E+00  0.00000000000E+00  0.45593999997E+02  0.45594000000E+02  0.51100000000E-03 0.  1.
         11   -1    0    0    0    0 -0.00000000000E+00 -0.00000000000E+00 -0.45593999997E+02  0.45594000000E+02  0.51100000000E-03 0. -1.
    9900012    2    1    2    0    0  0.17206242913E+02 -0.79684589756E+01  0.39039358801E+02  0.47787278010E+02  0.20000031760E+02 0.  0.
         12    1    1    2    0    0 -0.17206242913E+02  0.79684589756E+01 -0.39039358801E+02  0.43400721990E+02  0.00000000000E+00 0. -1.
         11    1    3    3    0    0  0.86423579285E+01 -0.49437491270E+01  0.13270699340E+02  0.16590433003E+02  0.51100000000E-03 0. -1.
        -11    1    3    3    0    0  0.13766044326E+01 -0.43687159960E+01  0.22881739272E+02  0.23335696081E+02  0.51100000000E-03 0.  1.
        -12    1    3    3    0    0  0.71872805522E+01  0.13440061473E+01  0.28869201892E+01  0.78611489261E+01  0.00000000000E+00 0.  1.
</event>
<event>
 7    1  0.2455451E-009  0.4778727E+02  0.7816164E-02  0.1312668E+00
        -11   -1    0    0    0    0  0.00000000000E+00  0.00000000000E+00  0.45593999997E+02  0.45594000000E+02  0.51100000000E-03 0. -1.
         11   -1    0    0    0    0 -0.00000000000E+00 -0.00000000000E+00 -0.45593999997E+02  0.45594000000E+02  0.51100000000E-03 0.  1.
    9900012    2    1    2    0    0  0.30586651413E+02  0.13301563969E+02 -0.27769558237E+02  0.47787271742E+02  0.20000003179E+02 0.  0.
         12    1    1    2    0    0 -0.30586651413E+02 -0.13301563969E+02  0.27769558237E+02  0.43400728258E+02  0.00000000000E+00 0. -1.
         11    1    3    3    0    0  0.46557401601E+01 -0.28376326663E+01  0.36791165638E+00  0.54647447182E+01  0.51100000000E-03 0. -1.
        -11    1    3    3    0    0  0.21620636947E+02  0.10547094761E+02 -0.18358034321E+02  0.30260710076E+02  0.51100000000E-03 0.  1.
        -12    1    3    3    0    0  0.43102743057E+01  0.55921018740E+01 -0.97794355725E+01  0.12061816948E+02  0.00000000000E+00 0.  1.
</event>
<event>
 7    1  0.2455451E-009  0.4778727E+02  0.7816164E-02  0.1312668E+00
        -11   -1    0    0    0    0  0.00000000000E+00  0.00000000000E+00  0.45593999997E+02  0.45594000000E+02  0.51100000000E-03 0. -1.
         11   -1    0    0    0    0 -0.00000000000E+00 -0.00000000000E+00 -0.45593999997E+02  0.45594000000E+02  0.51100000000E-03 0.  1.
    9900012    2    1    2    0    0  0.15958318572E+02 -0.21817390774E+02 -0.33955214488E+02  0.47787273477E+02  0.20000011090E+02 0.  0.
         12    1    1    2    0    0 -0.15958318572E+02  0.21817390774E+02  0.33955214488E+02  0.43400726523E+02  0.00000000000E+00 0. -1.
         11    1    3    3    0    0  0.75468942572E+00 -0.14201057567E+02 -0.11095578112E+02  0.18037501103E+02  0.51100000000E-03 0. -1.
        -11    1    3    3    0    0  0.34751670891E+01 -0.10211909138E+00 -0.65500519860E+00  0.35378307870E+01  0.51100000000E-03 0.  1.
         12    1    3    3    0    0  0.11728462057E+02 -0.75142141152E+01 -0.22204631178E+02  0.26211941586E+02  0.00000000000E+00 0. -1.
</event>
<event>
 7    1  0.2455451E-009  0.4778727E+02  0.7816164E-02  0.1312668E+00
        -11   -1    0    0    0    0  0.00000000000E+00  0.00000000000E+00  0.45593999997E+02  0.45594000000E+02  0.51100000000E-03 0. -1.
         11   -1    0    0    0    0 -0.00000000000E+00 -0.00000000000E+00 -0.45593999997E+02  0.45594000000E+02  0.51100000000E-03 0.  1.
    9900012    2    1    2    0    0  0.27438722884E+02  0.33442028893E+02 -0.35172069546E+01  0.47787267809E+02  0.19999985249E+02 0.  0.
         12    1    1    2    0    0 -0.27438722884E+02 -0.33442028893E+02  0.35172069546E+01  0.43400732191E+02  0.00000000000E+00 0. -1.
         11    1    3    3    0    0  0.21987608142E+00  0.44207667902E+00  0.64430060400E+00  0.81172705435E+00  0.51100000000E-03 0. -1.
        -11    1    3    3    0    0  0.16317397856E+02  0.61981070091E+01 -0.45525041593E+01  0.18038827503E+02  0.51100000000E-03 0.  1.
        -12    1    3    3    0    0  0.10901448946E+02  0.26801845205E+02  0.39099660072E+00  0.28936713252E+02  0.00000000000E+00 0.  1.
</event>
<event>
 7    1  0.2988046E-009  0.4778727E+02  0.7816164E-02  0.1312668E+00
        -11   -1    0    0    0    0  0.00000000000E+00  0.00000000000E+00  0.45593999997E+02  0.45594000000E+02  0.51100000000E-03 0. -1.
         11   -1    0    0    0    0 -0.00000000000E+00 -0.00000000000E+00 -0.45593999997E+02  0.45594000000E+02  0.51100000000E-03 0.  1.
    9900012    2    1    2    0    0 -0.15701418702E+02 -0.37702792463E+02  0.14682925195E+02  0.47787269579E+02  0.19999993318E+02 0.  0.
         12    1    1    2    0    0  0.15701418702E+02  0.37702792463E+02 -0.14682925195E+02  0.43400730421E+02  0.00000000000E+00 0. -1.
         11    1    3    3    0    0 -0.37318689137E+01 -0.95449142492E+01 -0.30764129707E+01  0.10700306100E+02  0.51100000000E-03 0.  1.
        -11    1    3    3    0    0 -0.13637162440E+02 -0.27604546863E+02  0.17022958080E+02  0.35181874722E+02  0.51100000000E-03 0. -1.
         12    1    3    3    0    0  0.16676126512E+01 -0.55333135093E+00  0.73638008566E+00  0.19050887562E+01  0.00000000000E+00 0. -1.
</event>
<event>
 7    1  0.2455451E-009  0.4778728E+02  0.7816164E-02  0.1312668E+00
        -11   -1    0    0    0    0  0.00000000000E+00  0.00000000000E+00  0.45593999997E+02  0.45594000000E+02  0.51100000000E-03 0.  1.
         11   -1    0    0    0    0 -0.00000000000E+00 -0.00000000000E+00 -0.45593999997E+02  0.45594000000E+02  0.51100000000E-03 0. -1.
    9900012    2    1    2    0    0 -0.27447164521E+02  0.31247688506E+02  0.12403932875E+02  0.47787280790E+02  0.20000044432E+02 0.  0.
         12    1    1    2    0    0  0.27447164521E+02 -0.31247688506E+02 -0.12403932875E+02  0.43400719210E+02  0.00000000000E+00 0. -1.
         11    1    3    3    0    0 -0.86170264437E+01  0.22767906722E+01 -0.22203523439E+01  0.91851448159E+01  0.51100000000E-03 0. -1.
        -11    1    3    3    0    0 -0.19157414649E+02  0.27427510823E+02  0.12004762184E+02  0.35544186604E+02  0.51100000000E-03 0.  1.
         12    1    3    3    0    0  0.32727657114E+00  0.15433870102E+01  0.26195230348E+01  0.30579493696E+01  0.00000000000E+00 0. -1.
</event>
<event>
 7    1  0.2455451E-009  0.4778727E+02  0.7816164E-02  0.1312668E+00
        -11   -1    0    0    0    0  0.00000000000E+00  0.00000000000E+00  0.45593999997E+02  0.45594000000E+02  0.51100000000E-03 0.  1.
         11   -1    0    0    0    0 -0.00000000000E+00 -0.00000000000E+00 -0.45593999997E+02  0.45594000000E+02  0.51100000000E-03 0. -1.
    9900012    2    1    2    0    0  0.23235088269E+02  0.20355515536E+02  0.30486172719E+02  0.47787273431E+02  0.20000010883E+02 0.  0.
         12    1    1    2    0    0 -0.23235088269E+02 -0.20355515536E+02 -0.30486172719E+02  0.43400726569E+02  0.00000000000E+00 0. -1.
         11    1    3    3    0    0  0.14915581331E+02  0.50798101922E+01  0.80412221843E+01  0.17690118499E+02  0.51100000000E-03 0. -1.
        -11    1    3    3    0    0  0.97104898992E+01  0.15289176514E+02  0.18396322507E+02  0.25816219990E+02  0.51100000000E-03 0.  1.
         12    1    3    3    0    0 -0.13909829607E+01 -0.13471170050E-01  0.40486280283E+01  0.42809349424E+01  0.00000000000E+00 0. -1.
</event>
<event>
 7    1  0.2455451E-009  0.4778727E+02  0.7816164E-02  0.1312668E+00
        -11   -1    0    0    0    0  0.00000000000E+00  0.00000000000E+00  0.45593999997E+02  0.45594000000E+02  0.51100000000E-03 0. -1.
         11   -1    0    0    0    0 -0.00000000000E+00 -0.00000000000E+00 -0.45593999997E+02  0.45594000000E+02  0.51100000000E-03 0.  1.
    9900012    2    1    2    0    0  0.18862580001E+02  0.22274638226E+02 -0.32119570844E+02  0.47787271163E+02  0.20000000540E+02 0.  0.
         12    1    1    2    0    0 -0.18862580001E+02 -0.22274638226E+02  0.32119570844E+02  0.43400728837E+02  0.00000000000E+00 0. -1.
         11    1    3    3    0    0  0.10637431990E+01  0.35331508212E+01 -0.17404763855E+01  0.40797012915E+01  0.51100000000E-03 0. -1.
        -11    1    3    3    0    0  0.19391225076E+02  0.16670304103E+02 -0.18545035627E+02  0.31588557984E+02  0.51100000000E-03 0.  1.
        -12    1    3    3    0    0 -0.15923882742E+01  0.20711833012E+01 -0.11834058832E+02  0.12119011887E+02  0.00000000000E+00 0.  1.
</event>
<event>
 7    1  0.2455451E-009  0.4778727E+02  0.7816164E-02  0.1312668E+00
        -11   -1    0    0    0    0  0.00000000000E+00  0.00000000000E+00  0.45593999997E+02  0.45594000000E+02  0.51100000000E-03 0.  1.
         11   -1    0    0    0    0 -0.00000000000E+00 -0.00000000000E+00 -0.45593999997E+02  0.45594000000E+02  0.51100000000E-03 0. -1.
    9900012    2    1    2    0    0  0.26960212870E+02 -0.20584207195E+02  0.27075095507E+02  0.47787268894E+02  0.19999990195E+02 0.  0.
         12    1    1    2    0    0 -0.26960212870E+02  0.20584207195E+02 -0.27075095507E+02  0.43400731106E+02  0.00000000000E+00 0. -1.
         11    1    3    3    0    0  0.44805260521E+00  0.19477139055E+01  0.13622839404E+01  0.24187100674E+01  0.51100000000E-03 0. -1.
        -11    1    3    3    0    0  0.19017786778E+02 -0.22739861860E+02  0.18370438614E+02  0.34874783819E+02  0.51100000000E-03 0.  1.
        -12    1    3    3    0    0  0.74943734872E+01  0.20794075936E+00  0.73423729526E+01  0.10493775007E+02  0.00000000000E+00 0.  1.
</event>
<event>
 7    1  0.2455451E-009  0.4778729E+02  0.7816164E-02  0.1312668E+00
        -11   -1    0    0    0    0  0.00000000000E+00  0.00000000000E+00  0.45593999997E+02  0.45594000000E+02  0.51100000000E-03 0.  1.
         11   -1    0    0    0    0 -0.00000000000E+00 -0.00000000000E+00 -0.45593999997E+02  0.45594000000E+02  0.51100000000E-03 0. -1.
    9900012    2    1    2    0    0  0.47444792554E+01  0.36976548822E+02  0.22222651664E+02  0.47787291559E+02  0.20000093533E+02 0.  0.
         12    1    1    2    0    0 -0.47444792554E+01 -0.36976548822E+02 -0.22222651664E+02  0.43400708441E+02  0.00000000000E+00 0. -1.
         11    1    3    3    0    0  0.14326209075E+01  0.14737788902E+02  0.46606362636E+00  0.14814588754E+02  0.51100000000E-03 0. -1.
        -11    1    3    3    0    0  0.14260872986E+01  0.93697199714E+01  0.16326918011E+02  0.18878390539E+02  0.51100000000E-03 0.  1.
         12    1    3    3    0    0  0.18857710493E+01  0.12869039949E+02  0.54296700264E+01  0.14094312266E+02  0.00000000000E+00 0. -1.
</event>
<event>
 7    1  0.2455451E-009  0.4778727E+02  0.7816164E-02  0.1312668E+00
        -11   -1    0    0    0    0  0.00000000000E+00  0.00000000000E+00  0.45593999997E+02  0.45594000000E+02  0.51100000000E-03 0. -1.
         11   -1    0    0    0    0 -0.00000000000E+00 -0.00000000000E+00 -0.45593999997E+02  0.45594000000E+02  0.51100000000E-03 0.  1.
    9900012    2    1    2    0    0  0.11975429026E+02 -0.39635937463E+02 -0.13007871230E+02  0.47787272438E+02  0.20000006355E+02 0.  0.
         12    1    1    2    0    0 -0.11975429026E+02  0.39635937463E+02  0.13007871230E+02  0.43400727562E+02  0.00000000000E+00 0. -1.
         11    1    3    3    0    0  0.98033157406E+01 -0.33538755086E+02 -0.76271871324E+01  0.35764886076E+02  0.51100000000E-03 0.  1.
        -11    1    3    3    0    0  0.35972642399E+01 -0.51014107611E+01 -0.71842790810E+01  0.95172773386E+01  0.51100000000E-03 0. -1.
         12    1    3    3    0    0 -0.14251509545E+01 -0.99577161679E+00  0.18035949839E+01  0.25051090240E+01  0.00000000000E+00 0. -1.
</event>
<event>
 7    1  0.2455451E-009  0.4778727E+02  0.7816164E-02  0.1312668E+00
        -11   -1    0    0    0    0  0.00000000000E+00  0.00000000000E+00  0.45593999997E+02  0.45594000000E+02  0.51100000000E-03 0. -1.
         11   -1    0    0    0    0 -0.00000000000E+00 -0.00000000000E+00 -0.45593999997E+02  0.45594000000E+02  0.51100000000E-03 0.  1.
    9900012    2    1    2    0    0  0.39126839466E+02  0.71132580331E+01 -0.17381472616E+02  0.47787267325E+02  0.19999983040E+02 0.  0.
         12    1    1    2    0    0 -0.39126839466E+02 -0.71132580331E+01  0.17381472616E+02  0.43400732675E+02  0.00000000000E+00 0. -1.
         11    1    3    3    0    0  0.28031736472E+02  0.59981550074E+01 -0.11884296702E+02  0.31032122413E+02  0.51100000000E-03 0. -1.
        -11    1    3    3    0    0  0.13095464902E+02  0.94241442145E+00 -0.28541472856E+01  0.13435977930E+02  0.51100000000E-03 0.  1.
         12    1    3    3    0    0 -0.20003619080E+01  0.17268860427E+00 -0.26430286287E+01  0.33191669812E+01  0.00000000000E+00 0. -1.
</event>
<event>
 7    1  0.2455451E-009  0.4778728E+02  0.7816164E-02  0.1312668E+00
        -11   -1    0    0    0    0  0.00000000000E+00  0.00000000000E+00  0.45593999997E+02  0.45594000000E+02  0.51100000000E-03 0.  1.
         11   -1    0    0    0    0 -0.00000000000E+00 -0.00000000000E+00 -0.45593999997E+02  0.45594000000E+02  0.51100000000E-03 0. -1.
    9900012    2    1    2    0    0  0.28735725235E+02  0.10530847545E+02  0.30773075319E+02  0.47787276280E+02  0.20000023872E+02 0.  0.
         12    1    1    2    0    0 -0.28735725235E+02 -0.10530847545E+02 -0.30773075319E+02  0.43400723720E+02  0.00000000000E+00 0. -1.
         11    1    3    3    0    0  0.18518832530E+02 -0.18678727243E+01  0.92671982892E+01  0.20792235839E+02  0.51100000000E-03 0. -1.
        -11    1    3    3    0    0  0.59732895173E+01  0.92284212413E+01  0.13779050265E+02  0.17626859412E+02  0.51100000000E-03 0.  1.
         12    1    3    3    0    0  0.42436031878E+01  0.31702990283E+01  0.77268267648E+01  0.93681810294E+01  0.00000000000E+00 0. -1.
</event>
<event>
 7    1  0.2455451E-009  0.4778727E+02  0.7816164E-02  0.1312668E+00
        -11   -1    0    0    0    0  0.00000000000E+00  0.00000000000E+00  0.45593999997E+02  0.45594000000E+02  0.51100000000E-03 0.  1.
         11   -1    0    0    0    0 -0.00000000000E+00 -0.00000000000E+00 -0.45593999997E+02  0.45594000000E+02  0.51100000000E-03 0. -1.
    9900012    2    1    2    0    0  0.27675307072E+02  0.27446274798E+02  0.19089335719E+02  0.47787270052E+02  0.19999995476E+02 0.  0.
         12    1    1    2    0    0 -0.27675307072E+02 -0.27446274798E+02 -0.19089335719E+02  0.43400729948E+02  0.00000000000E+00 0. -1.
         11    1    3    3    0    0  0.18778935960E+02  0.16136101347E+02  0.36672439689E+01  0.25029400333E+02  0.51100000000E-03 0. -1.
        -11    1    3    3    0    0  0.36945386886E+01  0.36895990834E+01  0.11693463673E+02  0.12806242636E+02  0.51100000000E-03 0.  1.
         12    1    3    3    0    0  0.52018324233E+01  0.76205743679E+01  0.37286280767E+01  0.99516270826E+01  0.00000000000E+00 0. -1.
</event>
<event>
 7    1  0.2455451E-009  0.4778727E+02  0.7816164E-02  0.1312668E+00
        -11   -1    0    0    0    0  0.00000000000E+00  0.00000000000E+00  0.45593999997E+02  0.45594000000E+02  0.51100000000E-03 0.  1.
         11   -1    0    0    0    0 -0.00000000000E+00 -0.00000000000E+00 -0.45593999997E+02  0.45594000000E+02  0.51100000000E-03 0. -1.
    9900012    2    1    2    0    0 -0.58925517271E+01 -0.31772497084E+02  0.28972562559E+02  0.47787272840E+02  0.20000008188E+02 0.  0.
         12    1    1    2    0    0  0.58925517271E+01  0.31772497084E+02 -0.28972562559E+02  0.43400727160E+02  0.00000000000E+00 0. -1.
         11    1    3    3    0    0  0.47899587020E+01 -0.15728971357E+02  0.14713657095E+02  0.22064359263E+02  0.51100000000E-03 0. -1.
        -11    1    3    3    0    0 -0.22190818292E+01 -0.62323707934E+01  0.10176428258E+02  0.12137811262E+02  0.51100000000E-03 0.  1.
         12    1    3    3    0    0 -0.84634286000E+01 -0.98111549328E+01  0.40824772054E+01  0.13585102315E+02  0.00000000000E+00 0. -1.
</event>
<event>
 7    1  0.2455451E-009  0.4778727E+02  0.7816164E-02  0.1312668E+00
        -11   -1    0    0    0    0  0.00000000000E+00  0.00000000000E+00  0.45593999997E+02  0.45594000000E+02  0.51100000000E-03 0.  1.
         11   -1    0    0    0    0 -0.00000000000E+00 -0.00000000000E+00 -0.45593999997E+02  0.45594000000E+02  0.51100000000E-03 0. -1.
    9900012    2    1    2    0    0 -0.40773655499E+02  0.70816804529E+01  0.13076002802E+02  0.47787273853E+02  0.20000012804E+02 0.  0.
         12    1    1    2    0    0  0.40773655499E+02 -0.70816804529E+01 -0.13076002802E+02  0.43400726147E+02  0.00000000000E+00 0. -1.
         11    1    3    3    0    0 -0.20778263604E+02  0.11498040042E+02  0.11662428015E+02  0.26456632262E+02  0.51100000000E-03 0. -1.
        -11    1    3    3    0    0 -0.60182364062E+01  0.76350781316E-01  0.26926144713E+01  0.65935704921E+01  0.51100000000E-03 0.  1.
         12    1    3    3    0    0 -0.13977155489E+02 -0.44927103703E+01 -0.12790396841E+01  0.14737071098E+02  0.00000000000E+00 0. -1.
</event>
<event>
 7    1  0.2455451E-009  0.4778727E+02  0.7816164E-02  0.1312668E+00
        -11   -1    0    0    0    0  0.00000000000E+00  0.00000000000E+00  0.45593999997E+02  0.45594000000E+02  0.51100000000E-03 0.  1.
         11   -1    0    0    0    0 -0.00000000000E+00 -0.00000000000E+00 -0.45593999997E+02  0.45594000000E+02  0.51100000000E-03 0. -1.
    9900012    2    1    2    0    0  0.16471506435E+02  0.39918196586E+02  0.43417158223E+01  0.47787269139E+02  0.19999991313E+02 0.  0.
         12    1    1    2    0    0 -0.16471506435E+02 -0.39918196586E+02 -0.43417158223E+01  0.43400730861E+02  0.00000000000E+00 0. -1.
         11    1    3    3    0    0  0.11424294016E+02  0.70720051915E+01  0.37607636161E+01  0.13952458365E+02  0.51100000000E-03 0. -1.
        -11    1    3    3    0    0  0.36972344892E+01  0.23117244607E+02 -0.24916965775E+01  0.23543260037E+02  0.51100000000E-03 0.  1.
         12    1    3    3    0    0  0.13499779299E+01  0.97289467884E+01  0.30726487837E+01  0.10291550737E+02  0.00000000000E+00 0. -1.
</event>
<event>
 7    1  0.2455451E-009  0.4778727E+02  0.7816164E-02  0.1312668E+00
        -11   -1    0    0    0    0  0.00000000000E+00  0.00000000000E+00  0.45593999997E+02  0.45594000000E+02  0.51100000000E-03 0.  1.
         11   -1    0    0    0    0 -0.00000000000E+00 -0.00000000000E+00 -0.45593999997E+02  0.45594000000E+02  0.51100000000E-03 0. -1.
    9900012    2    1    2    0    0 -0.86521285774E+01  0.10904023570E+02  0.41107978858E+02  0.47787274375E+02  0.20000015187E+02 0.  0.
         12    1    1    2    0    0  0.86521285774E+01 -0.10904023570E+02 -0.41107978858E+02  0.43400725625E+02  0.00000000000E+00 0. -1.
         11    1    3    3    0    0  0.58064601069E+01  0.55048906994E+01  0.16667094418E+02  0.18488126925E+02  0.51100000000E-03 0. -1.
        -11    1    3    3    0    0 -0.77036714483E+01  0.53763038537E+01  0.14695134716E+02  0.17441278092E+02  0.51100000000E-03 0.  1.
         12    1    3    3    0    0 -0.67549172360E+01  0.22829016564E-01  0.97457497244E+01  0.11857869358E+02  0.00000000000E+00 0. -1.
</event>
<event>
 7    1  0.2455451E-009  0.4778727E+02  0.7816164E-02  0.1312668E+00
        -11   -1    0    0    0    0  0.00000000000E+00  0.00000000000E+00  0.45593999997E+02  0.45594000000E+02  0.51100000000E-03 0.  1.
         11   -1    0    0    0    0 -0.00000000000E+00 -0.00000000000E+00 -0.45593999997E+02  0.45594000000E+02  0.51100000000E-03 0. -1.
    9900012    2    1    2    0    0 -0.18801011353E+02 -0.31946757573E+02  0.22573215575E+02  0.47787269491E+02  0.19999992917E+02 0.  0.
         12    1    1    2    0    0  0.18801011353E+02  0.31946757573E+02 -0.22573215575E+02  0.43400730509E+02  0.00000000000E+00 0. -1.
         11    1    3    3    0    0 -0.87378141216E+01 -0.22451933967E+02  0.83689506704E+01  0.25504471570E+02  0.51100000000E-03 0. -1.
        -11    1    3    3    0    0 -0.32500979512E+01 -0.58832828487E+01  0.12782203220E+02  0.14441636790E+02  0.51100000000E-03 0.  1.
         12    1    3    3    0    0 -0.68130992800E+01 -0.36115407570E+01  0.14220616851E+01  0.78411611305E+01  0.00000000000E+00 0. -1.
</event>
<event>
 7    1  0.3809171E-009  0.4778727E+02  0.7816164E-02  0.1312668E+00
        -11   -1    0    0    0    0  0.00000000000E+00  0.00000000000E+00  0.45593999997E+02  0.45594000000E+02  0.51100000000E-03 0. -1.
         11   -1    0    0    0    0 -0.00000000000E+00 -0.00000000000E+00 -0.45593999997E+02  0.45594000000E+02  0.51100000000E-03 0.  1.
    9900012    2    1    2    0    0  0.17857343096E+02 -0.32778707386E+02 -0.22142599527E+02  0.47787273345E+02  0.20000010490E+02 0.  0.
         12    1    1    2    0    0 -0.17857343096E+02  0.32778707386E+02  0.22142599527E+02  0.43400726655E+02  0.00000000000E+00 0. -1.
         11    1    3    3    0    0  0.11300348338E+02 -0.57433001471E+01 -0.35584423199E+01  0.13166088300E+02  0.51100000000E-03 0. -1.
        -11    1    3    3    0    0 -0.10405269091E+01 -0.71212207051E+01 -0.16122517797E+01  0.73752177352E+01  0.51100000000E-03 0.  1.
         12    1    3    3    0    0  0.75975216678E+01 -0.19914186534E+02 -0.16971905428E+02  0.27245967310E+02  0.00000000000E+00 0. -1.
</event>
<event>
 7    1  0.2455451E-009  0.4778728E+02  0.7816164E-02  0.1312668E+00
        -11   -1    0    0    0    0  0.00000000000E+00  0.00000000000E+00  0.45593999997E+02  0.45594000000E+02  0.51100000000E-03 0. -1.
         11   -1    0    0    0    0 -0.00000000000E+00 -0.00000000000E+00 -0.45593999997E+02  0.45594000000E+02  0.51100000000E-03 0.  1.
    9900012    2    1    2    0    0 -0.40922604657E+02  0.12218562115E+02  0.77246169374E+01  0.47787279512E+02  0.20000038606E+02 0.  0.
         12    1    1    2    0    0  0.40922604657E+02 -0.12218562115E+02 -0.77246169374E+01  0.43400720488E+02  0.00000000000E+00 0. -1.
         11    1    3    3    0    0 -0.48554711001E+01  0.58364242833E+01  0.51196138127E+01  0.91569587675E+01  0.51100000000E-03 0. -1.
        -11    1    3    3    0    0 -0.23828572231E+02  0.88621246899E+01 -0.15486972060E+01  0.25470307652E+02  0.51100000000E-03 0.  1.
        -12    1    3    3    0    0 -0.12238561326E+02 -0.24799868586E+01  0.41537003306E+01  0.13160013092E+02  0.00000000000E+00 0.  1.
</event>
<event>
 7    1  0.2455451E-009  0.4778727E+02  0.7816164E-02  0.1312668E+00
        -11   -1    0    0    0    0  0.00000000000E+00  0.00000000000E+00  0.45593999997E+02  0.45594000000E+02  0.51100000000E-03 0.  1.
         11   -1    0    0    0    0 -0.00000000000E+00 -0.00000000000E+00 -0.45593999997E+02  0.45594000000E+02  0.51100000000E-03 0. -1.
    9900012    2    1    2    0    0 -0.15209549794E+02  0.26433816187E+02  0.30879544787E+02  0.47787270405E+02  0.19999997083E+02 0.  0.
         12    1    1    2    0    0  0.15209549794E+02 -0.26433816187E+02 -0.30879544787E+02  0.43400729595E+02  0.00000000000E+00 0. -1.
         11    1    3    3    0    0 -0.16289194052E+01  0.41000738791E+01 -0.10397522875E+01  0.45326669106E+01  0.51100000000E-03 0. -1.
        -11    1    3    3    0    0 -0.71056058836E+01  0.20097692547E+02  0.28523280422E+02  0.35608768681E+02  0.51100000000E-03 0.  1.
        -12    1    3    3    0    0 -0.64750245055E+01  0.22360497610E+01  0.33960166520E+01  0.76458348125E+01  0.00000000000E+00 0.  1.
</event>
<event>
 7    1  0.2455451E-009  0.4778727E+02  0.7816164E-02  0.1312668E+00
        -11   -1    0    0    0    0  0.00000000000E+00  0.00000000000E+00  0.45593999997E+02  0.45594000000E+02  0.51100000000E-03 0.  1.
         11   -1    0    0    0    0 -0.00000000000E+00 -0.00000000000E+00 -0.45593999997E+02  0.45594000000E+02  0.51100000000E-03 0. -1.
    9900012    2    1    2    0    0  0.48970035967E+01 -0.22051040100E+02  0.37059333390E+02  0.47787271838E+02  0.20000003616E+02 0.  0.
         12    1    1    2    0    0 -0.48970035967E+01  0.22051040100E+02 -0.37059333390E+02  0.43400728162E+02  0.00000000000E+00 0. -1.
         11    1    3    3    0    0 -0.49972750490E+01 -0.80276217188E+01  0.13522956841E+02  0.16501085733E+02  0.51100000000E-03 0. -1.
        -11    1    3    3    0    0  0.87787318490E+01 -0.10417572096E+02  0.23883598744E+02  0.27495785685E+02  0.51100000000E-03 0.  1.
         12    1    3    3    0    0  0.11155467967E+01 -0.36058462854E+01 -0.34722219439E+00  0.37904004197E+01  0.00000000000E+00 0. -1.
</event>
<event>
 7    1  0.2455451E-009  0.4778727E+02  0.7816164E-02  0.1312668E+00
        -11   -1    0    0    0    0  0.00000000000E+00  0.00000000000E+00  0.45593999997E+02  0.45594000000E+02  0.51100000000E-03 0. -1.
         11   -1    0    0    0    0 -0.00000000000E+00 -0.00000000000E+00 -0.45593999997E+02  0.45594000000E+02  0.51100000000E-03 0.  1.
    9900012    2    1    2    0    0 -0.34812299019E+02 -0.24932331604E+02  0.70785560347E+01  0.47787271000E+02  0.19999999795E+02 0.  0.
         12    1    1    2    0    0  0.34812299019E+02  0.24932331604E+02 -0.70785560347E+01  0.43400729000E+02  0.00000000000E+00 0. -1.
         11    1    3    3    0    0 -0.34256551505E+02 -0.20595498400E+02  0.25948041459E+01  0.40055197967E+02  0.51100000000E-03 0.  1.
        -11    1    3    3    0    0 -0.13834603332E+01 -0.40910247015E+01  0.50913712974E+01  0.66762644908E+01  0.51100000000E-03 0. -1.
         12    1    3    3    0    0  0.82771281905E+00 -0.24580850258E+00 -0.60761940858E+00  0.10558085416E+01  0.00000000000E+00 0. -1.
</event>
<event>
 7    1  0.2455451E-009  0.4778727E+02  0.7816164E-02  0.1312668E+00
        -11   -1    0    0    0    0  0.00000000000E+00  0.00000000000E+00  0.45593999997E+02  0.45594000000E+02  0.51100000000E-03 0.  1.
         11   -1    0    0    0    0 -0.00000000000E+00 -0.00000000000E+00 -0.45593999997E+02  0.45594000000E+02  0.51100000000E-03 0. -1.
    9900012    2    1    2    0    0  0.15850483664E+02  0.14305873736E+02  0.37785279869E+02  0.47787271545E+02  0.20000002280E+02 0.  0.
         12    1    1    2    0    0 -0.15850483664E+02 -0.14305873736E+02 -0.37785279869E+02  0.43400728455E+02  0.00000000000E+00 0. -1.
         11    1    3    3    0    0  0.61187163518E+01  0.16055327516E+02  0.20060487893E+02  0.26412788687E+02  0.51100000000E-03 0. -1.
        -11    1    3    3    0    0  0.25807414489E+01 -0.31748778777E+01  0.97225233349E+01  0.10548342819E+02  0.51100000000E-03 0.  1.
         12    1    3    3    0    0  0.71510258628E+01  0.14254240974E+01  0.80022686404E+01  0.10826140039E+02  0.00000000000E+00 0. -1.
</event>
<event>
 7    1  0.2455451E-009  0.4778729E+02  0.7816164E-02  0.1312668E+00
        -11   -1    0    0    0    0  0.00000000000E+00  0.00000000000E+00  0.45593999997E+02  0.45594000000E+02  0.51100000000E-03 0. -1.
         11   -1    0    0    0    0 -0.00000000000E+00 -0.00000000000E+00 -0.45593999997E+02  0.45594000000E+02  0.51100000000E-03 0.  1.
    9900012    2    1    2    0    0  0.14206759423E+02 -0.40116899500E+02 -0.85102371415E+01  0.47787288312E+02  0.20000078731E+02 0.  0.
         12    1    1    2    0    0 -0.14206759423E+02  0.40116899500E+02  0.85102371415E+01  0.43400711688E+02  0.00000000000E+00 0. -1.
         11    1    3    3    0    0  0.36388835823E+01 -0.21794675719E+02 -0.10670156662E+02  0.24537758799E+02  0.51100000000E-03 0. -1.
        -11    1    3    3    0    0  0.61837706087E+01 -0.72090714612E+01 -0.33793490437E+01  0.10081157200E+02  0.51100000000E-03 0.  1.
         12    1    3    3    0    0  0.43841052317E+01 -0.11113152319E+02  0.55392685638E+01  0.13168372313E+02  0.00000000000E+00 0. -1.
</event>
<event>
 7    1  0.2455451E-009  0.4778727E+02  0.7816164E-02  0.1312668E+00
        -11   -1    0    0    0    0  0.00000000000E+00  0.00000000000E+00  0.45593999997E+02  0.45594000000E+02  0.51100000000E-03 0. -1.
         11   -1    0    0    0    0 -0.00000000000E+00 -0.00000000000E+00 -0.45593999997E+02  0.45594000000E+02  0.51100000000E-03 0.  1.
    9900012    2    1    2    0    0  0.20847668689E+02 -0.93590242939E+01 -0.36897248221E+02  0.47787267843E+02  0.19999985403E+02 0.  0.
         12    1    1    2    0    0 -0.20847668689E+02  0.93590242939E+01  0.36897248221E+02  0.43400732157E+02  0.00000000000E+00 0. -1.
         11    1    3    3    0    0  0.63188013878E+01 -0.43544652796E+00 -0.11791340745E+01  0.64426098814E+01  0.51100000000E-03 0. -1.
        -11    1    3    3    0    0  0.11777303802E+02 -0.10215915593E+02 -0.34857454002E+02  0.38185231648E+02  0.51100000000E-03 0.  1.
        -12    1    3    3    0    0  0.27515634989E+01  0.12923378266E+01 -0.86066014407E+00  0.31594263135E+01  0.00000000000E+00 0.  1.
</event>
<event>
 7    1  0.2455451E-009  0.4778727E+02  0.7816164E-02  0.1312668E+00
        -11   -1    0    0    0    0  0.00000000000E+00  0.00000000000E+00  0.45593999997E+02  0.45594000000E+02  0.51100000000E-03 0. -1.
         11   -1    0    0    0    0 -0.00000000000E+00 -0.00000000000E+00 -0.45593999997E+02  0.45594000000E+02  0.51100000000E-03 0.  1.
    9900012    2    1    2    0    0  0.27378302247E+02  0.31861387080E+02 -0.10904307908E+02  0.47787270150E+02  0.19999995923E+02 0.  0.
         12    1    1    2    0    0 -0.27378302247E+02 -0.31861387080E+02  0.10904307908E+02  0.43400729850E+02  0.00000000000E+00 0. -1.
         11    1    3    3    0    0  0.25414859117E+02  0.16059101143E+02 -0.84474210763E+01  0.31227691502E+02  0.51100000000E-03 0. -1.
        -11    1    3    3    0    0 -0.88851602921E+00  0.17071248337E+01 -0.79809159791E+00  0.20834313983E+01  0.51100000000E-03 0.  1.
         12    1    3    3    0    0  0.28519591588E+01  0.14095161103E+02 -0.16587952337E+01  0.14476147250E+02  0.00000000000E+00 0. -1.
</event>
<event>
 7    1  0.2455451E-009  0.4778727E+02  0.7816164E-02  0.1312668E+00
        -11   -1    0    0    0    0  0.00000000000E+00  0.00000000000E+00  0.45593999997E+02  0.45594000000E+02  0.51100000000E-03 0.  1.
         11   -1    0    0    0    0 -0.00000000000E+00 -0.00000000000E+00 -0.45593999997E+02  0.45594000000E+02  0.51100000000E-03 0. -1.
    9900012    2    1    2    0    0  0.85757133777E+01  0.57352809770E+01  0.42156691943E+02  0.47787274391E+02  0.20000015258E+02 0.  0.
         12    1    1    2    0    0 -0.85757133777E+01 -0.57352809770E+01 -0.42156691943E+02  0.43400725609E+02  0.00000000000E+00 0. -1.
         11    1    3    3    0    0  0.14119944117E+02  0.18929868161E+01  0.32678127129E+02  0.35648509280E+02  0.51100000000E-03 0.  1.
        -11    1    3    3    0    0 -0.31245764026E+01  0.37401359102E+01  0.77809630343E+01  0.91812297829E+01  0.51100000000E-03 0. -1.
        -12    1    3    3    0    0 -0.24196543366E+01  0.10215825067E+00  0.16976017798E+01  0.29575353286E+01  0.00000000000E+00 0.  1.
</event>
<event>
 7    1  0.2455451E-009  0.4778727E+02  0.7816164E-02  0.1312668E+00
        -11   -1    0    0    0    0  0.00000000000E+00  0.00000000000E+00  0.45593999997E+02  0.45594000000E+02  0.51100000000E-03 0.  1.
         11   -1    0    0    0    0 -0.00000000000E+00 -0.00000000000E+00 -0.45593999997E+02  0.45594000000E+02  0.51100000000E-03 0. -1.
    9900012    2    1    2    0    0  0.26586802152E+02  0.21575804068E+02  0.26669270863E+02  0.47787269842E+02  0.19999994518E+02 0.  0.
         12    1    1    2    0    0 -0.26586802152E+02 -0.21575804068E+02 -0.26669270863E+02  0.43400730158E+02  0.00000000000E+00 0. -1.
         11    1    3    3    0    0  0.35135717202E+01 -0.10494045849E+01  0.54191039594E+00  0.37067645398E+01  0.51100000000E-03 0. -1.
        -11    1    3    3    0    0  0.41345409356E+01  0.32824258068E+01 -0.14113341760E+01  0.54644864666E+01  0.51100000000E-03 0.  1.
        -12    1    3    3    0    0  0.18938689496E+02  0.19342782846E+02  0.27538694643E+02  0.38616018836E+02  0.00000000000E+00 0.  1.
</event>
<event>
 7    1  0.2455451E-009  0.4778727E+02  0.7816164E-02  0.1312668E+00
        -11   -1    0    0    0    0  0.00000000000E+00  0.00000000000E+00  0.45593999997E+02  0.45594000000E+02  0.51100000000E-03 0.  1.
         11   -1    0    0    0    0 -0.00000000000E+00 -0.00000000000E+00 -0.45593999997E+02  0.45594000000E+02  0.51100000000E-03 0. -1.
    9900012    2    1    2    0    0  0.31457635709E+02  0.62134020477E+01  0.29247803418E+02  0.47787271732E+02  0.20000003137E+02 0.  0.
         12    1    1    2    0    0 -0.31457635709E+02 -0.62134020477E+01 -0.29247803418E+02  0.43400728268E+02  0.00000000000E+00 0. -1.
         11    1    3    3    0    0  0.24156520702E+02  0.96210521018E+01  0.12521985169E+02  0.28860045890E+02  0.51100000000E-03 0. -1.
        -11    1    3    3    0    0  0.45754611463E+01 -0.32789887632E+00  0.10587436643E+02  0.11538465119E+02  0.51100000000E-03 0.  1.
         12    1    3    3    0    0  0.27256538608E+01 -0.30797511778E+01  0.61383816057E+01  0.73887607231E+01  0.00000000000E+00 0. -1.
</event>
<event>
 7    1  0.2455451E-009  0.4778727E+02  0.7816164E-02  0.1312668E+00
        -11   -1    0    0    0    0  0.00000000000E+00  0.00000000000E+00  0.45593999997E+02  0.45594000000E+02  0.51100000000E-03 0.  1.
         11   -1    0    0    0    0 -0.00000000000E+00 -0.00000000000E+00 -0.45593999997E+02  0.45594000000E+02  0.51100000000E-03 0. -1.
    9900012    2    1    2    0    0  0.23226060781E+02  0.14402724416E+02  0.33715503558E+02  0.47787267862E+02  0.19999985488E+02 0.  0.
         12    1    1    2    0    0 -0.23226060781E+02 -0.14402724416E+02 -0.33715503558E+02  0.43400732138E+02  0.00000000000E+00 0. -1.
         11    1    3    3    0    0  0.63064899509E+01  0.10497519909E+02  0.16019746902E+02  0.20164375289E+02  0.51100000000E-03 0. -1.
        -11    1    3    3    0    0  0.12444867988E+02  0.29116908451E+01  0.43323818629E+01  0.13495266418E+02  0.51100000000E-03 0.  1.
        -12    1    3    3    0    0  0.44747028425E+01  0.99351366202E+00  0.13363374792E+02  0.14127626155E+02  0.00000000000E+00 0.  1.
</event>
<event>
 7    1  0.2455451E-009  0.4778727E+02  0.7816164E-02  0.1312668E+00
        -11   -1    0    0    0    0  0.00000000000E+00  0.00000000000E+00  0.45593999997E+02  0.45594000000E+02  0.51100000000E-03 0.  1.
         11   -1    0    0    0    0 -0.00000000000E+00 -0.00000000000E+00 -0.45593999997E+02  0.45594000000E+02  0.51100000000E-03 0. -1.
    9900012    2    1    2    0    0  0.33220052219E+02  0.44320156731E+01  0.27575509090E+02  0.47787270352E+02  0.19999996845E+02 0.  0.
         12    1    1    2    0    0 -0.33220052219E+02 -0.44320156731E+01 -0.27575509090E+02  0.43400729648E+02  0.00000000000E+00 0. -1.
         11    1    3    3    0    0  0.77468388550E+01 -0.17757537881E+01 -0.18726820814E+00  0.79499612203E+01  0.51100000000E-03 0. -1.
        -11    1    3    3    0    0  0.21799736566E+02  0.90875451927E+01  0.25094393207E+02  0.34460710420E+02  0.51100000000E-03 0.  1.
        -12    1    3    3    0    0  0.36734767985E+01 -0.28797757314E+01  0.26683840912E+01  0.53765987121E+01  0.00000000000E+00 0.  1.
</event>
<event>
 7    1  0.2455451E-009  0.4778731E+02  0.7816164E-02  0.1312668E+00
        -11   -1    0    0    0    0  0.00000000000E+00  0.00000000000E+00  0.45593999997E+02  0.45594000000E+02  0.51100000000E-03 0.  1.
         11   -1    0    0    0    0 -0.00000000000E+00 -0.00000000000E+00 -0.45593999997E+02  0.45594000000E+02  0.51100000000E-03 0. -1.
    9900012    2    1    2    0    0  0.21424876181E+01 -0.42522682542E+02  0.84173274801E+01  0.47787306622E+02  0.20000162214E+02 0.  0.
         12    1    1    2    0    0 -0.21424876181E+01  0.42522682542E+02 -0.84173274801E+01  0.43400693378E+02  0.00000000000E+00 0. -1.
         11    1    3    3    0    0  0.48833235492E+00 -0.28966401289E+01  0.34107812753E+01  0.45013799767E+01  0.51100000000E-03 0. -1.
        -11    1    3    3    0    0 -0.43751895339E+01 -0.19591919561E+01  0.12560456673E+01  0.49556399746E+01  0.51100000000E-03 0.  1.
        -12    1    3    3    0    0  0.60293447971E+01 -0.37666850457E+02  0.37505005375E+01  0.38330286671E+02  0.00000000000E+00 0.  1.
</event>
<event>
 7    1  0.2455451E-009  0.4778727E+02  0.7816164E-02  0.1312668E+00
        -11   -1    0    0    0    0  0.00000000000E+00  0.00000000000E+00  0.45593999997E+02  0.45594000000E+02  0.51100000000E-03 0.  1.
         11   -1    0    0    0    0 -0.00000000000E+00 -0.00000000000E+00 -0.45593999997E+02  0.45594000000E+02  0.51100000000E-03 0. -1.
    9900012    2    1    2    0    0 -0.35713035622E+02 -0.24018504006E+02  0.55958505414E+01  0.47787274300E+02  0.20000014845E+02 0.  0.
         12    1    1    2    0    0  0.35713035622E+02  0.24018504006E+02 -0.55958505414E+01  0.43400725700E+02  0.00000000000E+00 0. -1.
         11    1    3    3    0    0 -0.18993309860E+01 -0.59891894651E+01  0.20347522342E+01  0.66043974410E+01  0.51100000000E-03 0.  1.
        -11    1    3    3    0    0 -0.10205087760E+01 -0.37604760697E+01 -0.28788880490E+01  0.48446480876E+01  0.51100000000E-03 0. -1.
        -12    1    3    3    0    0 -0.32793195860E+02 -0.14268838471E+02  0.64399863562E+01  0.36338228772E+02  0.00000000000E+00 0.  1.
</event>
<event>
 7    1  0.2455451E-009  0.4778726E+02  0.7816164E-02  0.1312668E+00
        -11   -1    0    0    0    0  0.00000000000E+00  0.00000000000E+00  0.45593999997E+02  0.45594000000E+02  0.51100000000E-03 0.  1.
         11   -1    0    0    0    0 -0.00000000000E+00 -0.00000000000E+00 -0.45593999997E+02  0.45594000000E+02  0.51100000000E-03 0. -1.
    9900012    2    1    2    0    0 -0.31919250646E+02  0.27388882646E+02 -0.10706773790E+02  0.47787257386E+02  0.19999937728E+02 0.  0.
         12    1    1    2    0    0  0.31919250646E+02 -0.27388882646E+02  0.10706773790E+02  0.43400742614E+02  0.00000000000E+00 0. -1.
         11    1    3    3    0    0 -0.51287695064E+01  0.12929344818E+02  0.26315323026E+01  0.14156171678E+02  0.51100000000E-03 0. -1.
        -11    1    3    3    0    0 -0.19893474352E+02  0.13030632934E+02 -0.11068767377E+02  0.26230999370E+02  0.51100000000E-03 0.  1.
        -12    1    3    3    0    0 -0.68970067878E+01  0.14289048947E+01 -0.22695387159E+01  0.74000863381E+01  0.00000000000E+00 0.  1.
</event>
<event>
 7    1  0.2455451E-009  0.4778728E+02  0.7816164E-02  0.1312668E+00
        -11   -1    0    0    0    0  0.00000000000E+00  0.00000000000E+00  0.45593999997E+02  0.45594000000E+02  0.51100000000E-03 0.  1.
         11   -1    0    0    0    0 -0.00000000000E+00 -0.00000000000E+00 -0.45593999997E+02  0.45594000000E+02  0.51100000000E-03 0. -1.
    9900012    2    1    2    0    0  0.11073856551E+02  0.31274872826E+01  0.41847477881E+02  0.47787275575E+02  0.20000020658E+02 0.  0.
         12    1    1    2    0    0 -0.11073856551E+02 -0.31274872826E+01 -0.41847477881E+02  0.43400724425E+02  0.00000000000E+00 0. -1.
         11    1    3    3    0    0  0.18680186281E+01  0.91009817183E+01  0.15187166400E+02  0.17803577881E+02  0.51100000000E-03 0. -1.
        -11    1    3    3    0    0  0.25482848131E+01 -0.48115066618E+01  0.19017050461E+02  0.19781116256E+02  0.51100000000E-03 0.  1.
         12    1    3    3    0    0  0.66575531093E+01 -0.11619877739E+01  0.76432610196E+01  0.10202581438E+02  0.00000000000E+00 0. -1.
</event>
<event>
 7    1  0.2455451E-009  0.4778727E+02  0.7816164E-02  0.1312668E+00
        -11   -1    0    0    0    0  0.00000000000E+00  0.00000000000E+00  0.45593999997E+02  0.45594000000E+02  0.51100000000E-03 0.  1.
         11   -1    0    0    0    0 -0.00000000000E+00 -0.00000000000E+00 -0.45593999997E+02  0.45594000000E+02  0.51100000000E-03 0. -1.
    9900012    2    1    2    0    0 -0.64989552362E+01  0.27292353779E+02  0.33113655619E+02  0.47787272098E+02  0.20000004803E+02 0.  0.
         12    1    1    2    0    0  0.64989552362E+01 -0.27292353779E+02 -0.33113655619E+02  0.43400727902E+02  0.00000000000E+00 0. -1.
         11    1    3    3    0    0 -0.75220029862E+01  0.16849586107E+02  0.88348246700E+01  0.20458328576E+02  0.51100000000E-03 0. -1.
        -11    1    3    3    0    0 -0.13791665221E+01  0.31811109824E+01  0.14528833810E+02  0.14936819592E+02  0.51100000000E-03 0.  1.
         12    1    3    3    0    0  0.24022142720E+01  0.72616566897E+01  0.97499971393E+01  0.12392123930E+02  0.00000000000E+00 0. -1.
</event>
<event>
 7    1  0.2455451E-009  0.4778726E+02  0.7816164E-02  0.1312668E+00
        -11   -1    0    0    0    0  0.00000000000E+00  0.00000000000E+00  0.45593999997E+02  0.45594000000E+02  0.51100000000E-03 0. -1.
         11   -1    0    0    0    0 -0.00000000000E+00 -0.00000000000E+00 -0.45593999997E+02  0.45594000000E+02  0.51100000000E-03 0.  1.
    9900012    2    1    2    0    0 -0.24036689711E+02 -0.64921387569E+01 -0.35548749687E+02  0.47787263576E+02  0.19999965946E+02 0.  0.
         12    1    1    2    0    0  0.24036689711E+02  0.64921387569E+01  0.35548749687E+02  0.43400736424E+02  0.00000000000E+00 0. -1.
         11    1    3    3    0    0 -0.40114606659E+01 -0.50059993637E+01 -0.18637719981E+02  0.19710820700E+02  0.51100000000E-03 0.  1.
        -11    1    3    3    0    0 -0.20769800613E+02 -0.27401176472E+01 -0.15677028095E+02  0.26166048085E+02  0.51100000000E-03 0. -1.
         12    1    3    3    0    0  0.74457156828E+00  0.12539782541E+01 -0.12340016114E+01  0.19103947914E+01  0.00000000000E+00 0. -1.
</event>
<event>
 7    1  0.2455451E-009  0.4778727E+02  0.7816164E-02  0.1312668E+00
        -11   -1    0    0    0    0  0.00000000000E+00  0.00000000000E+00  0.45593999997E+02  0.45594000000E+02  0.51100000000E-03 0. -1.
         11   -1    0    0    0    0 -0.00000000000E+00 -0.00000000000E+00 -0.45593999997E+02  0.45594000000E+02  0.51100000000E-03 0.  1.
    9900012    2    1    2    0    0  0.31131475316E+01 -0.48913502135E+01 -0.43011699298E+02  0.47787271078E+02  0.20000000153E+02 0.  0.
         12    1    1    2    0    0 -0.31131475316E+01  0.48913502135E+01  0.43011699298E+02  0.43400728922E+02  0.00000000000E+00 0. -1.
         11    1    3    3    0    0 -0.49984817255E+01  0.25683983600E+01 -0.21116999203E+02  0.21851982640E+02  0.51100000000E-03 0. -1.
        -11    1    3    3    0    0 -0.16008028315E+01 -0.17471735027E+01 -0.60071331924E+01  0.64576183230E+01  0.51100000000E-03 0.  1.
         12    1    3    3    0    0  0.97124320887E+01 -0.57125750708E+01 -0.15887566902E+02  0.19477670114E+02  0.00000000000E+00 0. -1.
</event>
<event>
 7    1  0.2455451E-009  0.4778727E+02  0.7816164E-02  0.1312668E+00
        -11   -1    0    0    0    0  0.00000000000E+00  0.00000000000E+00  0.45593999997E+02  0.45594000000E+02  0.51100000000E-03 0. -1.
         11   -1    0    0    0    0 -0.00000000000E+00 -0.00000000000E+00 -0.45593999997E+02  0.45594000000E+02  0.51100000000E-03 0.  1.
    9900012    2    1    2    0    0 -0.32320975738E+02 -0.11846885753E+02 -0.26431597997E+02  0.47787267894E+02  0.19999985634E+02 0.  0.
         12    1    1    2    0    0  0.32320975738E+02  0.11846885753E+02  0.26431597997E+02  0.43400732106E+02  0.00000000000E+00 0. -1.
         11    1    3    3    0    0 -0.63485019509E+00 -0.17217680600E+01  0.28118480049E+01  0.33576791816E+01  0.51100000000E-03 0. -1.
        -11    1    3    3    0    0 -0.16180786505E+02 -0.59960416344E+01 -0.13070333556E+02  0.21647262800E+02  0.51100000000E-03 0.  1.
         12    1    3    3    0    0 -0.15505339037E+02 -0.41290760588E+01 -0.16173112446E+02  0.22782325912E+02  0.00000000000E+00 0. -1.
</event>
<event>
 7    1  0.2455451E-009  0.4778727E+02  0.7816164E-02  0.1312668E+00
        -11   -1    0    0    0    0  0.00000000000E+00  0.00000000000E+00  0.45593999997E+02  0.45594000000E+02  0.51100000000E-03 0.  1.
         11   -1    0    0    0    0 -0.00000000000E+00 -0.00000000000E+00 -0.45593999997E+02  0.45594000000E+02  0.51100000000E-03 0. -1.
    9900012    2    1    2    0    0  0.20856418136E+02  0.25358512140E+02  0.28382717757E+02  0.47787274399E+02  0.20000015293E+02 0.  0.
         12    1    1    2    0    0 -0.20856418136E+02 -0.25358512140E+02 -0.28382717757E+02  0.43400725601E+02  0.00000000000E+00 0. -1.
         11    1    3    3    0    0  0.14755265996E+02  0.11324442109E+02  0.52215771138E+01  0.19319050999E+02  0.51100000000E-03 0. -1.
        -11    1    3    3    0    0 -0.52763202468E+00  0.35807751274E+01  0.87620054653E+01  0.94801416710E+01  0.51100000000E-03 0.  1.
         12    1    3    3    0    0  0.66287841650E+01  0.10453294904E+02  0.14399135178E+02  0.18988081729E+02  0.00000000000E+00 0. -1.
</event>
<event>
 7    1  0.2455451E-009  0.4778730E+02  0.7816164E-02  0.1312668E+00
        -11   -1    0    0    0    0  0.00000000000E+00  0.00000000000E+00  0.45593999997E+02  0.45594000000E+02  0.51100000000E-03 0.  1.
         11   -1    0    0    0    0 -0.00000000000E+00 -0.00000000000E+00 -0.45593999997E+02  0.45594000000E+02  0.51100000000E-03 0. -1.
    9900012    2    1    2    0    0 -0.70231125035E+01  0.21004593699E+02  0.37324299155E+02  0.47787304463E+02  0.20000152366E+02 0.  0.
         12    1    1    2    0    0  0.70231125035E+01 -0.21004593699E+02 -0.37324299155E+02  0.43400695537E+02  0.00000000000E+00 0. -1.
         11    1    3    3    0    0 -0.37421508610E+01  0.66385264959E+01  0.23706545230E+02  0.24901285391E+02  0.51100000000E-03 0. -1.
        -11    1    3    3    0    0  0.11495953454E+01  0.13804189014E+02  0.93774660370E+01  0.16727643986E+02  0.51100000000E-03 0.  1.
        -12    1    3    3    0    0 -0.44305569878E+01  0.56187818881E+00  0.42402878884E+01  0.61583750858E+01  0.00000000000E+00 0.  1.
</event>
<event>
 7    1  0.2455451E-009  0.4778727E+02  0.7816164E-02  0.1312668E+00
        -11   -1    0    0    0    0  0.00000000000E+00  0.00000000000E+00  0.45593999997E+02  0.45594000000E+02  0.51100000000E-03 0. -1.
         11   -1    0    0    0    0 -0.00000000000E+00 -0.00000000000E+00 -0.45593999997E+02  0.45594000000E+02  0.51100000000E-03 0.  1.
    9900012    2    1    2    0    0  0.21630014688E+02  0.11392008677E+02 -0.35860669364E+02  0.47787274150E+02  0.20000014158E+02 0.  0.
         12    1    1    2    0    0 -0.21630014688E+02 -0.11392008677E+02  0.35860669364E+02  0.43400725850E+02  0.00000000000E+00 0. -1.
         11    1    3    3    0    0 -0.27861637164E+01  0.17149215536E+01 -0.10480264415E+02  0.10979053086E+02  0.51100000000E-03 0. -1.
        -11    1    3    3    0    0  0.34327375357E+01  0.14518449368E+01 -0.61002994771E+01  0.71487897354E+01  0.51100000000E-03 0.  1.
         12    1    3    3    0    0  0.20983440869E+02  0.82252421862E+01 -0.19280105472E+02  0.29659431328E+02  0.00000000000E+00 0. -1.
</event>
<event>
 7    1  0.2455451E-009  0.4778727E+02  0.7816164E-02  0.1312668E+00
        -11   -1    0    0    0    0  0.00000000000E+00  0.00000000000E+00  0.45593999997E+02  0.45594000000E+02  0.51100000000E-03 0.  1.
         11   -1    0    0    0    0 -0.00000000000E+00 -0.00000000000E+00 -0.45593999997E+02  0.45594000000E+02  0.51100000000E-03 0. -1.
    9900012    2    1    2    0    0 -0.22523182778E+02 -0.21095018196E+02  0.30517692868E+02  0.47787272666E+02  0.20000007392E+02 0.  0.
         12    1    1    2    0    0  0.22523182778E+02  0.21095018196E+02 -0.30517692868E+02  0.43400727334E+02  0.00000000000E+00 0. -1.
         11    1    3    3    0    0 -0.14217152767E+02 -0.36970454087E+01  0.63024884126E+01  0.15984897185E+02  0.51100000000E-03 0. -1.
        -11    1    3    3    0    0 -0.85451946820E+01 -0.15765570156E+02  0.24240275867E+02  0.30152355279E+02  0.51100000000E-03 0.  1.
         12    1    3    3    0    0  0.23916467104E+00 -0.16324026317E+01 -0.25071411268E-01  0.16500202021E+01  0.00000000000E+00 0. -1.
</event>
<event>
 7    1  0.2455451E-009  0.4778727E+02  0.7816164E-02  0.1312668E+00
        -11   -1    0    0    0    0  0.00000000000E+00  0.00000000000E+00  0.45593999997E+02  0.45594000000E+02  0.51100000000E-03 0.  1.
         11   -1    0    0    0    0 -0.00000000000E+00 -0.00000000000E+00 -0.45593999997E+02  0.45594000000E+02  0.51100000000E-03 0. -1.
    9900012    2    1    2    0    0  0.27326781709E+01 -0.30598523026E+01  0.43206400718E+02  0.47787270869E+02  0.19999999202E+02 0.  0.
         12    1    1    2    0    0 -0.27326781709E+01  0.30598523026E+01 -0.43206400718E+02  0.43400729131E+02  0.00000000000E+00 0. -1.
         11    1    3    3    0    0 -0.73384445088E+01 -0.92503288997E+00  0.10058524017E+02  0.12485285712E+02  0.51100000000E-03 0. -1.
        -11    1    3    3    0    0  0.89013538909E+01  0.55542105996E+00  0.27887477689E+02  0.29278900351E+02  0.51100000000E-03 0.  1.
        -12    1    3    3    0    0  0.11697687888E+01 -0.26902404726E+01  0.52603990118E+01  0.60230848062E+01  0.00000000000E+00 0.  1.
</event>
<event>
 7    1  0.2455451E-009  0.4778727E+02  0.7816164E-02  0.1312668E+00
        -11   -1    0    0    0    0  0.00000000000E+00  0.00000000000E+00  0.45593999997E+02  0.45594000000E+02  0.51100000000E-03 0. -1.
         11   -1    0    0    0    0 -0.00000000000E+00 -0.00000000000E+00 -0.45593999997E+02  0.45594000000E+02  0.51100000000E-03 0.  1.
    9900012    2    1    2    0    0  0.15181726220E+02  0.38916850792E+02  0.11773575361E+02  0.47787272317E+02  0.20000005803E+02 0.  0.
         12    1    1    2    0    0 -0.15181726220E+02 -0.38916850792E+02 -0.11773575361E+02  0.43400727683E+02  0.00000000000E+00 0. -1.
         11    1    3    3    0    0  0.39303688464E+01  0.24770753639E+01  0.62807423068E+01  0.78122612483E+01  0.51100000000E-03 0. -1.
        -11    1    3    3    0    0  0.79385480968E+00  0.20083620745E+02  0.15001792950E+01  0.20155211878E+02  0.51100000000E-03 0.  1.
         12    1    3    3    0    0  0.10457502564E+02  0.16356154683E+02  0.39926537596E+01  0.19819799190E+02  0.00000000000E+00 0. -1.
</event>
<event>
 7    1  0.2455451E-009  0.4778727E+02  0.7816164E-02  0.1312668E+00
        -11   -1    0    0    0    0  0.00000000000E+00  0.00000000000E+00  0.45593999997E+02  0.45594000000E+02  0.51100000000E-03 0. -1.
         11   -1    0    0    0    0 -0.00000000000E+00 -0.00000000000E+00 -0.45593999997E+02  0.45594000000E+02  0.51100000000E-03 0.  1.
    9900012    2    1    2    0    0  0.16598901967E+02  0.38840582723E+02  0.99754116941E+01  0.47787271305E+02  0.20000001190E+02 0.  0.
         12    1    1    2    0    0 -0.16598901967E+02 -0.38840582723E+02 -0.99754116941E+01  0.43400728695E+02  0.00000000000E+00 0. -1.
         11    1    3    3    0    0  0.21142951054E+01 -0.10202143098E+00  0.13542145635E+01  0.25128767399E+01  0.51100000000E-03 0. -1.
        -11    1    3    3    0    0 -0.15861694966E+01  0.13756159263E+02 -0.10085062256E+01  0.13883981288E+02  0.51100000000E-03 0.  1.
        -12    1    3    3    0    0  0.16070776359E+02  0.25186444891E+02  0.96297033562E+01  0.31390413278E+02  0.00000000000E+00 0.  1.
</event>
<event>
 7    1  0.2455451E-009  0.4778727E+02  0.7816164E-02  0.1312668E+00
        -11   -1    0    0    0    0  0.00000000000E+00  0.00000000000E+00  0.45593999997E+02  0.45594000000E+02  0.51100000000E-03 0.  1.
         11   -1    0    0    0    0 -0.00000000000E+00 -0.00000000000E+00 -0.45593999997E+02  0.45594000000E+02  0.51100000000E-03 0. -1.
    9900012    2    1    2    0    0  0.42570436045E+02  0.65342749493E+00  0.84234190825E+01  0.47787274411E+02  0.20000015351E+02 0.  0.
         12    1    1    2    0    0 -0.42570436045E+02 -0.65342749493E+00 -0.84234190825E+01  0.43400725589E+02  0.00000000000E+00 0. -1.
         11    1    3    3    0    0  0.62613112754E+01  0.62522203417E+01  0.53100816652E+01  0.10319459562E+02  0.51100000000E-03 0. -1.
        -11    1    3    3    0    0  0.61477629122E+01  0.93268284833E+00  0.21934745097E+01  0.65936497333E+01  0.51100000000E-03 0.  1.
         12    1    3    3    0    0  0.30161361858E+02 -0.65314756951E+01  0.91986290763E+00  0.30874165116E+02  0.00000000000E+00 0. -1.
</event>
<event>
 7    1  0.2455451E-009  0.4778727E+02  0.7816164E-02  0.1312668E+00
        -11   -1    0    0    0    0  0.00000000000E+00  0.00000000000E+00  0.45593999997E+02  0.45594000000E+02  0.51100000000E-03 0.  1.
         11   -1    0    0    0    0 -0.00000000000E+00 -0.00000000000E+00 -0.45593999997E+02  0.45594000000E+02  0.51100000000E-03 0. -1.
    9900012    2    1    2    0    0 -0.22531453346E+02  0.26057351306E+02  0.26400213046E+02  0.47787271944E+02  0.20000004100E+02 0.  0.
         12    1    1    2    0    0  0.22531453346E+02 -0.26057351306E+02 -0.26400213046E+02  0.43400728056E+02  0.00000000000E+00 0. -1.
         11    1    3    3    0    0 -0.33526803545E+01  0.60493795175E+01  0.48011226582E+01  0.84193964835E+01  0.51100000000E-03 0. -1.
        -11    1    3    3    0    0 -0.12271610703E+02  0.18054463953E+02  0.23364504195E+02  0.31975868313E+02  0.51100000000E-03 0.  1.
        -12    1    3    3    0    0 -0.69071622887E+01  0.19535078359E+01 -0.17654138076E+01  0.73920071468E+01  0.00000000000E+00 0.  1.
</event>
<event>
 7    1  0.2455451E-009  0.4778727E+02  0.7816164E-02  0.1312668E+00
        -11   -1    0    0    0    0  0.00000000000E+00  0.00000000000E+00  0.45593999997E+02  0.45594000000E+02  0.51100000000E-03 0. -1.
         11   -1    0    0    0    0 -0.00000000000E+00 -0.00000000000E+00 -0.45593999997E+02  0.45594000000E+02  0.51100000000E-03 0.  1.
    9900012    2    1    2    0    0 -0.49532920739E+01 -0.19755795005E+02 -0.38324884165E+02  0.47787270917E+02  0.19999999420E+02 0.  0.
         12    1    1    2    0    0  0.49532920739E+01  0.19755795005E+02  0.38324884165E+02  0.43400729083E+02  0.00000000000E+00 0. -1.
         11    1    3    3    0    0 -0.11144016340E+01  0.26779251772E+01 -0.60940708124E+01  0.67491387290E+01  0.51100000000E-03 0. -1.
        -11    1    3    3    0    0  0.16030140714E+01 -0.18676186872E+02 -0.24868767768E+02  0.31142016967E+02  0.51100000000E-03 0.  1.
        -12    1    3    3    0    0 -0.54419045113E+01 -0.37575333093E+01 -0.73620455851E+01  0.98961152215E+01  0.00000000000E+00 0.  1.
</event>
<event>
 7    1  0.2455451E-009  0.4778727E+02  0.7816164E-02  0.1312668E+00
        -11   -1    0    0    0    0  0.00000000000E+00  0.00000000000E+00  0.45593999997E+02  0.45594000000E+02  0.51100000000E-03 0.  1.
         11   -1    0    0    0    0 -0.00000000000E+00 -0.00000000000E+00 -0.45593999997E+02  0.45594000000E+02  0.51100000000E-03 0. -1.
    9900012    2    1    2    0    0 -0.25437687407E+02 -0.21611159294E+02  0.27739956599E+02  0.47787270298E+02  0.19999996595E+02 0.  0.
         12    1    1    2    0    0  0.25437687407E+02  0.21611159294E+02 -0.27739956599E+02  0.43400729702E+02  0.00000000000E+00 0. -1.
         11    1    3    3    0    0  0.14017763507E+01  0.10049353696E+01  0.33524721764E+01  0.37701381923E+01  0.51100000000E-03 0. -1.
        -11    1    3    3    0    0 -0.15863600395E+02 -0.11212372915E+02  0.19320897909E+02  0.27398325134E+02  0.51100000000E-03 0.  1.
        -12    1    3    3    0    0 -0.10975863362E+02 -0.11403721748E+02  0.50665865135E+01  0.16618806971E+02  0.00000000000E+00 0.  1.
</event>
<event>
 7    1  0.2455451E-009  0.4778727E+02  0.7816164E-02  0.1312668E+00
        -11   -1    0    0    0    0  0.00000000000E+00  0.00000000000E+00  0.45593999997E+02  0.45594000000E+02  0.51100000000E-03 0.  1.
         11   -1    0    0    0    0 -0.00000000000E+00 -0.00000000000E+00 -0.45593999997E+02  0.45594000000E+02  0.51100000000E-03 0. -1.
    9900012    2    1    2    0    0  0.41461514360E+01 -0.11562177140E+02  0.41626299040E+02  0.47787270931E+02  0.19999999484E+02 0.  0.
         12    1    1    2    0    0 -0.41461514360E+01  0.11562177140E+02 -0.41626299040E+02  0.43400729069E+02  0.00000000000E+00 0. -1.
         11    1    3    3    0    0  0.10500855463E+01 -0.51866776880E+01  0.64097029073E+00  0.53305861092E+01  0.51100000000E-03 0. -1.
        -11    1    3    3    0    0 -0.22504720966E+01 -0.63578132656E+00  0.18398943989E+02  0.18546966941E+02  0.51100000000E-03 0.  1.
        -12    1    3    3    0    0  0.53465379863E+01 -0.57397181251E+01  0.22586384761E+02  0.23909717881E+02  0.00000000000E+00 0.  1.
</event>
<event>
 7    1  0.2455451E-009  0.4778728E+02  0.7816164E-02  0.1312668E+00
        -11   -1    0    0    0    0  0.00000000000E+00  0.00000000000E+00  0.45593999997E+02  0.45594000000E+02  0.51100000000E-03 0. -1.
         11   -1    0    0    0    0 -0.00000000000E+00 -0.00000000000E+00 -0.45593999997E+02  0.45594000000E+02  0.51100000000E-03 0.  1.
    9900012    2    1    2    0    0 -0.10668603558E+02  0.32871759885E+02 -0.26253590877E+02  0.47787277267E+02  0.20000028369E+02 0.  0.
         12    1    1    2    0    0  0.10668603558E+02 -0.32871759885E+02  0.26253590877E+02  0.43400722733E+02  0.00000000000E+00 0. -1.
         11    1    3    3    0    0 -0.23586209654E+01  0.30062211825E+02 -0.19020104080E+02  0.35651984968E+02  0.51100000000E-03 0. -1.
        -11    1    3    3    0    0 -0.31385710171E+01  0.82899125601E+00 -0.29748606113E+00  0.32598086983E+01  0.51100000000E-03 0.  1.
         12    1    3    3    0    0 -0.51714115752E+01  0.19805568046E+01 -0.69360007357E+01  0.88754836005E+01  0.00000000000E+00 0. -1.
</event>
<event>
 7    1  0.2455451E-009  0.4778727E+02  0.7816164E-02  0.1312668E+00
        -11   -1    0    0    0    0  0.00000000000E+00  0.00000000000E+00  0.45593999997E+02  0.45594000000E+02  0.51100000000E-03 0.  1.
         11   -1    0    0    0    0 -0.00000000000E+00 -0.00000000000E+00 -0.45593999997E+02  0.45594000000E+02  0.51100000000E-03 0. -1.
    9900012    2    1    2    0    0  0.31725235277E+02 -0.23771997311E+02  0.17664225641E+02  0.47787271008E+02  0.19999999835E+02 0.  0.
         12    1    1    2    0    0 -0.31725235277E+02  0.23771997311E+02 -0.17664225641E+02  0.43400728992E+02  0.00000000000E+00 0. -1.
         11    1    3    3    0    0  0.59164841906E+01 -0.15073783970E+02  0.43250838815E+01  0.16760969519E+02  0.51100000000E-03 0. -1.
        -11    1    3    3    0    0  0.76163099800E+01 -0.16037414793E+01  0.70776523730E+01  0.10520139154E+02  0.51100000000E-03 0.  1.
         12    1    3    3    0    0  0.18192441106E+02 -0.70944718612E+01  0.62614893866E+01  0.20506162336E+02  0.00000000000E+00 0. -1.
</event>
<event>
 7    1  0.2455451E-009  0.4778727E+02  0.7816164E-02  0.1312668E+00
        -11   -1    0    0    0    0  0.00000000000E+00  0.00000000000E+00  0.45593999997E+02  0.45594000000E+02  0.51100000000E-03 0.  1.
         11   -1    0    0    0    0 -0.00000000000E+00 -0.00000000000E+00 -0.45593999997E+02  0.45594000000E+02  0.51100000000E-03 0. -1.
    9900012    2    1    2    0    0  0.68842796325E+01  0.10360354115E+02  0.41579957211E+02  0.47787273219E+02  0.20000009916E+02 0.  0.
         12    1    1    2    0    0 -0.68842796325E+01 -0.10360354115E+02 -0.41579957211E+02  0.43400726781E+02  0.00000000000E+00 0. -1.
         11    1    3    3    0    0  0.62438654762E+00 -0.44681228358E+01  0.54715882308E+01  0.70917034812E+01  0.51100000000E-03 0. -1.
        -11    1    3    3    0    0  0.86174648660E+01  0.89313576524E+01  0.24451854003E+02  0.27421214683E+02  0.51100000000E-03 0.  1.
         12    1    3    3    0    0 -0.23575717811E+01  0.58971192987E+01  0.11656514977E+02  0.13274355055E+02  0.00000000000E+00 0. -1.
</event>
<event>
 7    1  0.2455451E-009  0.4778727E+02  0.7816164E-02  0.1312668E+00
        -11   -1    0    0    0    0  0.00000000000E+00  0.00000000000E+00  0.45593999997E+02  0.45594000000E+02  0.51100000000E-03 0. -1.
         11   -1    0    0    0    0 -0.00000000000E+00 -0.00000000000E+00 -0.45593999997E+02  0.45594000000E+02  0.51100000000E-03 0.  1.
    9900012    2    1    2    0    0  0.30019555182E+02  0.87310710893E+01  0.30103460381E+02  0.47787267027E+02  0.19999981682E+02 0.  0.
         12    1    1    2    0    0 -0.30019555182E+02 -0.87310710893E+01 -0.30103460381E+02  0.43400732973E+02  0.00000000000E+00 0. -1.
         11    1    3    3    0    0 -0.11271490919E+01  0.18431346770E+01  0.48122110260E+00  0.22134101571E+01  0.51100000000E-03 0. -1.
        -11    1    3    3    0    0  0.30466417534E+02  0.94629072998E+01  0.28057036278E+02  0.42484661901E+02  0.51100000000E-03 0.  1.
        -12    1    3    3    0    0  0.68028674032E+00 -0.25749708875E+01  0.15652030002E+01  0.30891949683E+01  0.00000000000E+00 0.  1.
</event>
<event>
 7    1  0.2455451E-009  0.4778726E+02  0.7816164E-02  0.1312668E+00
        -11   -1    0    0    0    0  0.00000000000E+00  0.00000000000E+00  0.45593999997E+02  0.45594000000E+02  0.51100000000E-03 0. -1.
         11   -1    0    0    0    0 -0.00000000000E+00 -0.00000000000E+00 -0.45593999997E+02  0.45594000000E+02  0.51100000000E-03 0.  1.
    9900012    2    1    2    0    0  0.10962980231E+02  0.34262499310E+02 -0.24279993699E+02  0.47787263963E+02  0.19999967712E+02 0.  0.
         12    1    1    2    0    0 -0.10962980231E+02 -0.34262499310E+02  0.24279993699E+02  0.43400736037E+02  0.00000000000E+00 0. -1.
         11    1    3    3    0    0  0.56402637230E+01  0.23114664027E+01 -0.80434047027E+01  0.10092165836E+02  0.51100000000E-03 0. -1.
        -11    1    3    3    0    0  0.86446543547E+00  0.26282554028E+02 -0.15297492153E+02  0.30422577359E+02  0.51100000000E-03 0.  1.
        -12    1    3    3    0    0  0.44582510724E+01  0.56684788800E+01 -0.93909684313E+00  0.72725207678E+01  0.00000000000E+00 0.  1.
</event>
<event>
 7    1  0.2455451E-009  0.4778726E+02  0.7816164E-02  0.1312668E+00
        -11   -1    0    0    0    0  0.00000000000E+00  0.00000000000E+00  0.45593999997E+02  0.45594000000E+02  0.51100000000E-03 0.  1.
         11   -1    0    0    0    0 -0.00000000000E+00 -0.00000000000E+00 -0.45593999997E+02  0.45594000000E+02  0.51100000000E-03 0. -1.
    9900012    2    1    2    0    0 -0.54277684769E+01  0.13497395427E+02  0.40889901335E+02  0.47787258242E+02  0.19999941629E+02 0.  0.
         12    1    1    2    0    0  0.54277684769E+01 -0.13497395427E+02 -0.40889901335E+02  0.43400741758E+02  0.00000000000E+00 0. -1.
         11    1    3    3    0    0  0.42234305682E+01  0.56162373523E+01  0.10378309969E+02  0.12533507323E+02  0.51100000000E-03 0.  1.
        -11    1    3    3    0    0 -0.65429014461E+01  0.14767607575E+01  0.40145903095E+01  0.78171169419E+01  0.51100000000E-03 0. -1.
        -12    1    3    3    0    0 -0.31082975990E+01  0.64043973169E+01  0.26497001057E+02  0.27436633977E+02  0.00000000000E+00 0.  1.
</event>
<event>
 7    1  0.2455451E-009  0.4778727E+02  0.7816164E-02  0.1312668E+00
        -11   -1    0    0    0    0  0.00000000000E+00  0.00000000000E+00  0.45593999997E+02  0.45594000000E+02  0.51100000000E-03 0.  1.
         11   -1    0    0    0    0 -0.00000000000E+00 -0.00000000000E+00 -0.45593999997E+02  0.45594000000E+02  0.51100000000E-03 0. -1.
    9900012    2    1    2    0    0 -0.79029490045E+01 -0.67754240247E+01  0.42133837732E+02  0.47787271254E+02  0.20000000955E+02 0.  0.
         12    1    1    2    0    0  0.79029490045E+01  0.67754240247E+01 -0.42133837732E+02  0.43400728746E+02  0.00000000000E+00 0. -1.
         11    1    3    3    0    0 -0.85273916576E+01 -0.29415650983E+01  0.66851226502E+01  0.11227647965E+02  0.51100000000E-03 0. -1.
        -11    1    3    3    0    0  0.32871830947E+01 -0.10260531258E+01  0.27545549631E+02  0.27759965102E+02  0.51100000000E-03 0.  1.
        -12    1    3    3    0    0 -0.26627404416E+01 -0.28078058007E+01  0.79031654504E+01  0.87996581871E+01  0.00000000000E+00 0.  1.
</event>
<event>
 7    1  0.2455451E-009  0.4778727E+02  0.7816164E-02  0.1312668E+00
        -11   -1    0    0    0    0  0.00000000000E+00  0.00000000000E+00  0.45593999997E+02  0.45594000000E+02  0.51100000000E-03 0.  1.
         11   -1    0    0    0    0 -0.00000000000E+00 -0.00000000000E+00 -0.45593999997E+02  0.45594000000E+02  0.51100000000E-03 0. -1.
    9900012    2    1    2    0    0  0.14537092546E+01 -0.26836790966E+02  0.34077803799E+02  0.47787270378E+02  0.19999996963E+02 0.  0.
         12    1    1    2    0    0 -0.14537092546E+01  0.26836790966E+02 -0.34077803799E+02  0.43400729622E+02  0.00000000000E+00 0. -1.
         11    1    3    3    0    0  0.22012112436E+01 -0.20996432678E+02  0.13792903431E+02  0.25217844901E+02  0.51100000000E-03 0. -1.
        -11    1    3    3    0    0  0.10032953111E+01 -0.67595124946E+01  0.19048814981E+02  0.20237464344E+02  0.51100000000E-03 0.  1.
        -12    1    3    3    0    0 -0.17507973000E+01  0.91915420687E+00  0.12360853871E+01  0.23319611331E+01  0.00000000000E+00 0.  1.
</event>
<event>
 7    1  0.2455451E-009  0.4778727E+02  0.7816164E-02  0.1312668E+00
        -11   -1    0    0    0    0  0.00000000000E+00  0.00000000000E+00  0.45593999997E+02  0.45594000000E+02  0.51100000000E-03 0. -1.
         11   -1    0    0    0    0 -0.00000000000E+00 -0.00000000000E+00 -0.45593999997E+02  0.45594000000E+02  0.51100000000E-03 0.  1.
    9900012    2    1    2    0    0 -0.25020500384E+02 -0.35453337349E+02 -0.81154035592E+00  0.47787272283E+02  0.20000005646E+02 0.  0.
         12    1    1    2    0    0  0.25020500384E+02  0.35453337349E+02  0.81154035592E+00  0.43400727717E+02  0.00000000000E+00 0. -1.
         11    1    3    3    0    0 -0.11709079136E+02 -0.12121658475E+02 -0.91060307915E+01  0.19156120052E+02  0.51100000000E-03 0. -1.
        -11    1    3    3    0    0 -0.49144875663E+01 -0.89269777213E+01  0.59319716368E+01  0.11791158002E+02  0.51100000000E-03 0.  1.
         12    1    3    3    0    0 -0.83969336819E+01 -0.14404701153E+02  0.23625187988E+01  0.16839994229E+02  0.00000000000E+00 0. -1.
</event>
<event>
 7    1  0.2455451E-009  0.4778727E+02  0.7816164E-02  0.1312668E+00
        -11   -1    0    0    0    0  0.00000000000E+00  0.00000000000E+00  0.45593999997E+02  0.45594000000E+02  0.51100000000E-03 0. -1.
         11   -1    0    0    0    0 -0.00000000000E+00 -0.00000000000E+00 -0.45593999997E+02  0.45594000000E+02  0.51100000000E-03 0.  1.
    9900012    2    1    2    0    0  0.38282094987E+02  0.18559675449E+02 -0.85815345180E+01  0.47787273231E+02  0.20000009971E+02 0.  0.
         12    1    1    2    0    0 -0.38282094987E+02 -0.18559675449E+02  0.85815345180E+01  0.43400726769E+02  0.00000000000E+00 0. -1.
         11    1    3    3    0    0  0.15989677236E+02  0.28112132027E+01 -0.90268540532E+01  0.18575704351E+02  0.51100000000E-03 0. -1.
        -11    1    3    3    0    0  0.54200137381E+01  0.69830889928E+01  0.42705031912E+01  0.98171930087E+01  0.51100000000E-03 0.  1.
         12    1    3    3    0    0  0.16872404013E+02  0.87653732534E+01 -0.38251836559E+01  0.19394375871E+02  0.00000000000E+00 0. -1.
</event>
<event>
 7    1  0.2455451E-009  0.4778727E+02  0.7816164E-02  0.1312668E+00
        -11   -1    0    0    0    0  0.00000000000E+00  0.00000000000E+00  0.45593999997E+02  0.45594000000E+02  0.51100000000E-03 0.  1.
         11   -1    0    0    0    0 -0.00000000000E+00 -0.00000000000E+00 -0.45593999997E+02  0.45594000000E+02  0.51100000000E-03 0. -1.
    9900012    2    1    2    0    0  0.64013670713E+01  0.30895610742E+02  0.29801124414E+02  0.47787270975E+02  0.19999999684E+02 0.  0.
         12    1    1    2    0    0 -0.64013670713E+01 -0.30895610742E+02 -0.29801124414E+02  0.43400729025E+02  0.00000000000E+00 0. -1.
         11    1    3    3    0    0  0.17166286952E+01  0.92074825311E+01  0.13326379342E+01  0.94604689504E+01  0.51100000000E-03 0. -1.
        -11    1    3    3    0    0  0.24776190335E+01  0.12880304250E+02  0.25667139456E+02  0.28824345297E+02  0.51100000000E-03 0.  1.
        -12    1    3    3    0    0  0.22071193426E+01  0.88078239609E+01  0.28013470235E+01  0.95024567278E+01  0.00000000000E+00 0.  1.
</event>
<event>
 7    1  0.2455451E-009  0.4778727E+02  0.7816164E-02  0.1312668E+00
        -11   -1    0    0    0    0  0.00000000000E+00  0.00000000000E+00  0.45593999997E+02  0.45594000000E+02  0.51100000000E-03 0.  1.
         11   -1    0    0    0    0 -0.00000000000E+00 -0.00000000000E+00 -0.45593999997E+02  0.45594000000E+02  0.51100000000E-03 0. -1.
    9900012    2    1    2    0    0  0.35887620614E+02 -0.11292148273E+02  0.21637679583E+02  0.47787273006E+02  0.20000008942E+02 0.  0.
         12    1    1    2    0    0 -0.35887620614E+02  0.11292148273E+02 -0.21637679583E+02  0.43400726994E+02  0.00000000000E+00 0. -1.
         11    1    3    3    0    0 -0.60740774498E-01 -0.41461963739E+01  0.19741758344E+01  0.45926032160E+01  0.51100000000E-03 0. -1.
        -11    1    3    3    0    0  0.19337043677E+02 -0.20032129462E+00  0.15325479821E+02  0.24674515574E+02  0.51100000000E-03 0.  1.
         12    1    3    3    0    0  0.16611317711E+02 -0.69456306044E+01  0.43380239267E+01  0.18520154216E+02  0.00000000000E+00 0. -1.
</event>
<event>
 7    1  0.2455451E-009  0.4778727E+02  0.7816164E-02  0.1312668E+00
        -11   -1    0    0    0    0  0.00000000000E+00  0.00000000000E+00  0.45593999997E+02  0.45594000000E+02  0.51100000000E-03 0. -1.
         11   -1    0    0    0    0 -0.00000000000E+00 -0.00000000000E+00 -0.45593999997E+02  0.45594000000E+02  0.51100000000E-03 0.  1.
    9900012    2    1    2    0    0 -0.15981087496E+02 -0.40196044004E+02 -0.35364192713E+01  0.47787269909E+02  0.19999994823E+02 0.  0.
         12    1    1    2    0    0  0.15981087496E+02  0.40196044004E+02  0.35364192713E+01  0.43400730091E+02  0.00000000000E+00 0. -1.
         11    1    3    3    0    0 -0.47898295754E+01 -0.26132651084E+01 -0.20463878365E+00  0.54601739149E+01  0.51100000000E-03 0. -1.
        -11    1    3    3    0    0 -0.10243431348E+02 -0.23986607092E+02 -0.89644916192E+01  0.27579835311E+02  0.51100000000E-03 0.  1.
        -12    1    3    3    0    0 -0.94782657258E+00 -0.13596171805E+02  0.56327111316E+01  0.14747260683E+02  0.00000000000E+00 0.  1.
</event>
<event>
 7    1  0.2455451E-009  0.4778726E+02  0.7816164E-02  0.1312668E+00
        -11   -1    0    0    0    0  0.00000000000E+00  0.00000000000E+00  0.45593999997E+02  0.45594000000E+02  0.51100000000E-03 0. -1.
         11   -1    0    0    0    0 -0.00000000000E+00 -0.00000000000E+00 -0.45593999997E+02  0.45594000000E+02  0.51100000000E-03 0.  1.
    9900012    2    1    2    0    0  0.41942216515E+02 -0.81555446475E+01  0.76132375142E+01  0.47787264751E+02  0.19999971307E+02 0.  0.
         12    1    1    2    0    0 -0.41942216515E+02  0.81555446475E+01 -0.76132375142E+01  0.43400735249E+02  0.00000000000E+00 0. -1.
         11    1    3    3    0    0  0.70838892343E+01  0.29835713382E+01 -0.28278870417E+01  0.81902460278E+01  0.51100000000E-03 0. -1.
        -11    1    3    3    0    0  0.30204975284E+02 -0.66411496540E+01  0.54020112900E+01  0.31394699025E+02  0.51100000000E-03 0.  1.
         12    1    3    3    0    0  0.46533519964E+01 -0.44979663317E+01  0.50391132659E+01  0.82023196981E+01  0.00000000000E+00 0. -1.
</event>
<event>
 7    1  0.2455451E-009  0.4778727E+02  0.7816164E-02  0.1312668E+00
        -11   -1    0    0    0    0  0.00000000000E+00  0.00000000000E+00  0.45593999997E+02  0.45594000000E+02  0.51100000000E-03 0.  1.
         11   -1    0    0    0    0 -0.00000000000E+00 -0.00000000000E+00 -0.45593999997E+02  0.45594000000E+02  0.51100000000E-03 0. -1.
    9900012    2    1    2    0    0 -0.40413899790E+01  0.21905577279E+02  0.37248307412E+02  0.47787267818E+02  0.19999985287E+02 0.  0.
         12    1    1    2    0    0  0.40413899790E+01 -0.21905577279E+02 -0.37248307412E+02  0.43400732182E+02  0.00000000000E+00 0. -1.
         11    1    3    3    0    0 -0.60819073388E+01  0.75324648661E+01  0.21861371771E+02  0.23909144690E+02  0.51100000000E-03 0. -1.
        -11    1    3    3    0    0 -0.24907365359E+01  0.89909335815E+01  0.13813109612E+02  0.16668612797E+02  0.51100000000E-03 0.  1.
         12    1    3    3    0    0  0.45312538957E+01  0.53821788313E+01  0.15738260297E+01  0.72095103309E+01  0.00000000000E+00 0. -1.
</event>
<event>
 7    1  0.2455451E-009  0.4778727E+02  0.7816164E-02  0.1312668E+00
        -11   -1    0    0    0    0  0.00000000000E+00  0.00000000000E+00  0.45593999997E+02  0.45594000000E+02  0.51100000000E-03 0. -1.
         11   -1    0    0    0    0 -0.00000000000E+00 -0.00000000000E+00 -0.45593999997E+02  0.45594000000E+02  0.51100000000E-03 0.  1.
    9900012    2    1    2    0    0 -0.47977908917E+01  0.40568053240E+02 -0.14657336545E+02  0.47787271253E+02  0.20000000953E+02 0.  0.
         12    1    1    2    0    0  0.47977908917E+01 -0.40568053240E+02  0.14657336545E+02  0.43400728747E+02  0.00000000000E+00 0. -1.
         11    1    3    3    0    0  0.13001409090E+01 -0.71268593455E+00  0.32978531728E+00  0.15188963892E+01  0.51100000000E-03 0. -1.
        -11    1    3    3    0    0  0.14720638864E+00 -0.99886446726E+00 -0.59437190859E+00  0.11716134907E+01  0.51100000000E-03 0.  1.
        -12    1    3    3    0    0 -0.62451381894E+01  0.42279603642E+02 -0.14392749953E+02  0.45096761373E+02  0.00000000000E+00 0.  1.
</event>
<event>
 7    1  0.2455451E-009  0.4778728E+02  0.7816164E-02  0.1312668E+00
        -11   -1    0    0    0    0  0.00000000000E+00  0.00000000000E+00  0.45593999997E+02  0.45594000000E+02  0.51100000000E-03 0.  1.
         11   -1    0    0    0    0 -0.00000000000E+00 -0.00000000000E+00 -0.45593999997E+02  0.45594000000E+02  0.51100000000E-03 0. -1.
    9900012    2    1    2    0    0  0.84085430619E+01 -0.19576205516E+02  0.37811260249E+02  0.47787276269E+02  0.20000023819E+02 0.  0.
         12    1    1    2    0    0 -0.84085430619E+01  0.19576205516E+02 -0.37811260249E+02  0.43400723731E+02  0.00000000000E+00 0. -1.
         11    1    3    3    0    0  0.32390172898E+01 -0.21046271424E+02  0.30899993221E+02  0.37526608629E+02  0.51100000000E-03 0. -1.
        -11    1    3    3    0    0  0.38734188770E+01 -0.92027452811E+00  0.15939999827E+01  0.42884863542E+01  0.51100000000E-03 0.  1.
         12    1    3    3    0    0  0.12961068950E+01  0.23903404359E+01  0.53172670444E+01  0.59721812853E+01  0.00000000000E+00 0. -1.
</event>
<event>
 7    1  0.2455451E-009  0.4778727E+02  0.7816164E-02  0.1312668E+00
        -11   -1    0    0    0    0  0.00000000000E+00  0.00000000000E+00  0.45593999997E+02  0.45594000000E+02  0.51100000000E-03 0.  1.
         11   -1    0    0    0    0 -0.00000000000E+00 -0.00000000000E+00 -0.45593999997E+02  0.45594000000E+02  0.51100000000E-03 0. -1.
    9900012    2    1    2    0    0  0.13301221050E+02  0.39376753573E+02  0.12496883779E+02  0.47787270656E+02  0.19999998231E+02 0.  0.
         12    1    1    2    0    0 -0.13301221050E+02 -0.39376753573E+02 -0.12496883779E+02  0.43400729344E+02  0.00000000000E+00 0. -1.
         11    1    3    3    0    0  0.23599446568E+01  0.21233903674E+02  0.25178522388E+01  0.21512498325E+02  0.51100000000E-03 0. -1.
        -11    1    3    3    0    0  0.88990729426E+01  0.11403804805E+02  0.12166201633E+02  0.18901236089E+02  0.51100000000E-03 0.  1.
        -12    1    3    3    0    0  0.20422034509E+01  0.67390450934E+01 -0.21871700920E+01  0.73735362424E+01  0.00000000000E+00 0.  1.
</event>
<event>
 7    1  0.2455451E-009  0.4778729E+02  0.7816164E-02  0.1312668E+00
        -11   -1    0    0    0    0  0.00000000000E+00  0.00000000000E+00  0.45593999997E+02  0.45594000000E+02  0.51100000000E-03 0.  1.
         11   -1    0    0    0    0 -0.00000000000E+00 -0.00000000000E+00 -0.45593999997E+02  0.45594000000E+02  0.51100000000E-03 0. -1.
    9900012    2    1    2    0    0 -0.37819846390E+02  0.40347078390E+01  0.20904592284E+02  0.47787290019E+02  0.20000086511E+02 0.  0.
         12    1    1    2    0    0  0.37819846390E+02 -0.40347078390E+01 -0.20904592284E+02  0.43400709981E+02  0.00000000000E+00 0. -1.
         11    1    3    3    0    0 -0.47009803789E+01  0.41024264511E+01  0.11693492616E+02  0.13253938627E+02  0.51100000000E-03 0. -1.
        -11    1    3    3    0    0 -0.19983772639E+01  0.74058106098E+00  0.88924185720E+00  0.23092690052E+01  0.51100000000E-03 0.  1.
         12    1    3    3    0    0 -0.31120488747E+02 -0.80829967308E+00  0.83218578110E+01  0.32224082386E+02  0.00000000000E+00 0. -1.
</event>
<event>
 7    1  0.2455451E-009  0.4778727E+02  0.7816164E-02  0.1312668E+00
        -11   -1    0    0    0    0  0.00000000000E+00  0.00000000000E+00  0.45593999997E+02  0.45594000000E+02  0.51100000000E-03 0.  1.
         11   -1    0    0    0    0 -0.00000000000E+00 -0.00000000000E+00 -0.45593999997E+02  0.45594000000E+02  0.51100000000E-03 0. -1.
    9900012    2    1    2    0    0 -0.21718331229E+02  0.19849374813E+02  0.31905172424E+02  0.47787267066E+02  0.19999981859E+02 0.  0.
         12    1    1    2    0    0  0.21718331229E+02 -0.19849374813E+02 -0.31905172424E+02  0.43400732934E+02  0.00000000000E+00 0. -1.
         11    1    3    3    0    0 -0.82005864279E+01  0.93578373485E+01  0.10117420908E+02  0.16036862027E+02  0.51100000000E-03 0. -1.
        -11    1    3    3    0    0 -0.30207192039E+01  0.38794435202E+01 -0.16877912780E+01  0.51984099679E+01  0.51100000000E-03 0.  1.
        -12    1    3    3    0    0 -0.10497025598E+02  0.66120939438E+01  0.23475542795E+02  0.26551995070E+02  0.00000000000E+00 0.  1.
</event>
<event>
 7    1  0.2455451E-009  0.4778727E+02  0.7816164E-02  0.1312668E+00
        -11   -1    0    0    0    0  0.00000000000E+00  0.00000000000E+00  0.45593999997E+02  0.45594000000E+02  0.51100000000E-03 0.  1.
         11   -1    0    0    0    0 -0.00000000000E+00 -0.00000000000E+00 -0.45593999997E+02  0.45594000000E+02  0.51100000000E-03 0. -1.
    9900012    2    1    2    0    0 -0.36366109586E+02 -0.14008031224E+02 -0.19102475297E+02  0.47787269273E+02  0.19999991922E+02 0.  0.
         12    1    1    2    0    0  0.36366109586E+02  0.14008031224E+02  0.19102475297E+02  0.43400730727E+02  0.00000000000E+00 0. -1.
         11    1    3    3    0    0 -0.31238250082E+02 -0.12652398073E+02 -0.20354464169E+02  0.39372778122E+02  0.51100000000E-03 0. -1.
        -11    1    3    3    0    0 -0.17935931255E+01 -0.43730718879E+00  0.37286994512E+01  0.41606987077E+01  0.51100000000E-03 0.  1.
        -12    1    3    3    0    0 -0.33342663787E+01 -0.91832596234E+00 -0.24767105794E+01  0.42537924433E+01  0.00000000000E+00 0.  1.
</event>
<event>
 7    1  0.2455451E-009  0.4778727E+02  0.7816164E-02  0.1312668E+00
        -11   -1    0    0    0    0  0.00000000000E+00  0.00000000000E+00  0.45593999997E+02  0.45594000000E+02  0.51100000000E-03 0.  1.
         11   -1    0    0    0    0 -0.00000000000E+00 -0.00000000000E+00 -0.45593999997E+02  0.45594000000E+02  0.51100000000E-03 0. -1.
    9900012    2    1    2    0    0  0.22200223909E+02  0.29293139645E+01  0.37177849386E+02  0.47787270664E+02  0.19999998266E+02 0.  0.
         12    1    1    2    0    0 -0.22200223909E+02 -0.29293139645E+01 -0.37177849386E+02  0.43400729336E+02  0.00000000000E+00 0. -1.
         11    1    3    3    0    0  0.13303039689E+02 -0.36289072472E+01  0.12962654046E+02  0.18925385939E+02  0.51100000000E-03 0. -1.
        -11    1    3    3    0    0  0.17468798641E+01  0.13210568198E+01  0.17766599790E+02  0.17901085127E+02  0.51100000000E-03 0.  1.
         12    1    3    3    0    0  0.71503043559E+01  0.52371643919E+01  0.64485955509E+01  0.10960799598E+02  0.00000000000E+00 0. -1.
</event>
<event>
 7    1  0.2455451E-009  0.4778727E+02  0.7816164E-02  0.1312668E+00
        -11   -1    0    0    0    0  0.00000000000E+00  0.00000000000E+00  0.45593999997E+02  0.45594000000E+02  0.51100000000E-03 0. -1.
         11   -1    0    0    0    0 -0.00000000000E+00 -0.00000000000E+00 -0.45593999997E+02  0.45594000000E+02  0.51100000000E-03 0.  1.
    9900012    2    1    2    0    0 -0.23731834329E+02  0.82958263372E+01 -0.35377995830E+02  0.47787270926E+02  0.19999999459E+02 0.  0.
         12    1    1    2    0    0  0.23731834329E+02 -0.82958263372E+01  0.35377995830E+02  0.43400729074E+02  0.00000000000E+00 0. -1.
         11    1    3    3    0    0 -0.16576802991E+01 -0.76623733450E+00 -0.26008366566E+00  0.18446320503E+01  0.51100000000E-03 0. -1.
        -11    1    3    3    0    0 -0.14907929871E+02 -0.22893996573E+01 -0.12271703068E+02  0.19444341601E+02  0.51100000000E-03 0.  1.
        -12    1    3    3    0    0 -0.71662241590E+01  0.11351463329E+02 -0.22846209096E+02  0.26498297275E+02  0.00000000000E+00 0.  1.
</event>
<event>
 7    1  0.2455451E-009  0.4778727E+02  0.7816164E-02  0.1312668E+00
        -11   -1    0    0    0    0  0.00000000000E+00  0.00000000000E+00  0.45593999997E+02  0.45594000000E+02  0.51100000000E-03 0. -1.
         11   -1    0    0    0    0 -0.00000000000E+00 -0.00000000000E+00 -0.45593999997E+02  0.45594000000E+02  0.51100000000E-03 0.  1.
    9900012    2    1    2    0    0 -0.39231454778E+02  0.51167713222E+01  0.17841951012E+02  0.47787267188E+02  0.19999982415E+02 0.  0.
         12    1    1    2    0    0  0.39231454778E+02 -0.51167713222E+01 -0.17841951012E+02  0.43400732812E+02  0.00000000000E+00 0. -1.
         11    1    3    3    0    0 -0.30392808820E+02 -0.20890759153E+00  0.42602481425E+01  0.30690653053E+02  0.51100000000E-03 0. -1.
        -11    1    3    3    0    0 -0.65049326196E+01  0.35076331172E+01  0.10318271503E+02  0.12691901573E+02  0.51100000000E-03 0.  1.
         12    1    3    3    0    0 -0.23337133382E+01  0.18180457965E+01  0.32634313662E+01  0.44047125610E+01  0.00000000000E+00 0. -1.
</event>
<event>
 7    1  0.2455451E-009  0.4778727E+02  0.7816164E-02  0.1312668E+00
        -11   -1    0    0    0    0  0.00000000000E+00  0.00000000000E+00  0.45593999997E+02  0.45594000000E+02  0.51100000000E-03 0.  1.
         11   -1    0    0    0    0 -0.00000000000E+00 -0.00000000000E+00 -0.45593999997E+02  0.45594000000E+02  0.51100000000E-03 0. -1.
    9900012    2    1    2    0    0  0.33304304514E+01 -0.96330377493E+01  0.42186920839E+02  0.47787268749E+02  0.19999989532E+02 0.  0.
         12    1    1    2    0    0 -0.33304304514E+01  0.96330377493E+01 -0.42186920839E+02  0.43400731251E+02  0.00000000000E+00 0. -1.
         11    1    3    3    0    0 -0.21871201588E+01  0.13863693758E+01  0.36502861155E-01  0.25897581654E+01  0.51100000000E-03 0. -1.
        -11    1    3    3    0    0  0.55689552195E+01 -0.25075241851E+01  0.28211958302E+02  0.28865472996E+02  0.51100000000E-03 0.  1.
        -12    1    3    3    0    0 -0.51404609366E-01 -0.85118829400E+01  0.13938459676E+02  0.16332037587E+02  0.00000000000E+00 0.  1.
</event>
<event>
 7    1  0.2455451E-009  0.4778727E+02  0.7816164E-02  0.1312668E+00
        -11   -1    0    0    0    0  0.00000000000E+00  0.00000000000E+00  0.45593999997E+02  0.45594000000E+02  0.51100000000E-03 0. -1.
         11   -1    0    0    0    0 -0.00000000000E+00 -0.00000000000E+00 -0.45593999997E+02  0.45594000000E+02  0.51100000000E-03 0.  1.
    9900012    2    1    2    0    0 -0.26967495027E+02 -0.21715323575E+02 -0.26169113308E+02  0.47787267779E+02  0.19999985109E+02 0.  0.
         12    1    1    2    0    0  0.26967495027E+02  0.21715323575E+02  0.26169113308E+02  0.43400732221E+02  0.00000000000E+00 0. -1.
         11    1    3    3    0    0 -0.12512991504E+02 -0.71619475265E+00 -0.15227915929E+02  0.19722507830E+02  0.51100000000E-03 0. -1.
        -11    1    3    3    0    0 -0.12066368953E+02 -0.15448613749E+02 -0.97992156412E+01  0.21915326918E+02  0.51100000000E-03 0.  1.
         12    1    3    3    0    0 -0.23881345702E+01 -0.55505150735E+01 -0.11419817380E+01  0.61494330305E+01  0.00000000000E+00 0. -1.
</event>
<event>
 7    1  0.2455451E-009  0.4778726E+02  0.7816164E-02  0.1312668E+00
        -11   -1    0    0    0    0  0.00000000000E+00  0.00000000000E+00  0.45593999997E+02  0.45594000000E+02  0.51100000000E-03 0.  1.
         11   -1    0    0    0    0 -0.00000000000E+00 -0.00000000000E+00 -0.45593999997E+02  0.45594000000E+02  0.51100000000E-03 0. -1.
    9900012    2    1    2    0    0  0.14491912410E+02  0.20208008052E+02  0.35570281632E+02  0.47787262102E+02  0.19999959227E+02 0.  0.
         12    1    1    2    0    0 -0.14491912410E+02 -0.20208008052E+02 -0.35570281632E+02  0.43400737898E+02  0.00000000000E+00 0. -1.
         11    1    3    3    0    0 -0.15879327699E+01  0.58200637338E+01  0.40087805164E+01  0.72432723156E+01  0.51100000000E-03 0. -1.
        -11    1    3    3    0    0  0.16973770080E+02  0.75904774161E+01  0.23089097008E+02  0.29645077484E+02  0.51100000000E-03 0.  1.
        -12    1    3    3    0    0 -0.89392490003E+00  0.67974669024E+01  0.84724041073E+01  0.10898912302E+02  0.00000000000E+00 0.  1.
</event>
<event>
 7    1  0.2455451E-009  0.4778727E+02  0.7816164E-02  0.1312668E+00
        -11   -1    0    0    0    0  0.00000000000E+00  0.00000000000E+00  0.45593999997E+02  0.45594000000E+02  0.51100000000E-03 0.  1.
         11   -1    0    0    0    0 -0.00000000000E+00 -0.00000000000E+00 -0.45593999997E+02  0.45594000000E+02  0.51100000000E-03 0. -1.
    9900012    2    1    2    0    0  0.91779740887E+01  0.38846694815E+02  0.17038846689E+02  0.47787271862E+02  0.20000003729E+02 0.  0.
         12    1    1    2    0    0 -0.91779740887E+01 -0.38846694815E+02 -0.17038846689E+02  0.43400728138E+02  0.00000000000E+00 0. -1.
         11    1    3    3    0    0  0.24305031123E+01  0.22291935027E+01  0.17871022011E+01  0.37510509980E+01  0.51100000000E-03 0. -1.
        -11    1    3    3    0    0  0.29138800313E+01  0.34405161757E+01  0.89890329338E+01  0.10056369213E+02  0.51100000000E-03 0.  1.
        -12    1    3    3    0    0  0.38335909451E+01  0.33176985136E+02  0.62627115539E+01  0.33979851652E+02  0.00000000000E+00 0.  1.
</event>
<event>
 7    1  0.2455451E-009  0.4778727E+02  0.7816164E-02  0.1312668E+00
        -11   -1    0    0    0    0  0.00000000000E+00  0.00000000000E+00  0.45593999997E+02  0.45594000000E+02  0.51100000000E-03 0.  1.
         11   -1    0    0    0    0 -0.00000000000E+00 -0.00000000000E+00 -0.45593999997E+02  0.45594000000E+02  0.51100000000E-03 0. -1.
    9900012    2    1    2    0    0  0.33778053853E+02 -0.27122705925E+02  0.26504986231E+01  0.47787271415E+02  0.20000001688E+02 0.  0.
         12    1    1    2    0    0 -0.33778053853E+02  0.27122705925E+02 -0.26504986231E+01  0.43400728585E+02  0.00000000000E+00 0. -1.
         11    1    3    3    0    0  0.86103063855E+01 -0.35301632180E+01 -0.29592772151E+01  0.97650780998E+01  0.51100000000E-03 0. -1.
        -11    1    3    3    0    0  0.24650806352E+02 -0.24600362274E+02  0.27358857413E+01  0.34933152576E+02  0.51100000000E-03 0.  1.
        -12    1    3    3    0    0  0.51694111489E+00  0.10078195672E+01  0.28738900969E+01  0.30890407387E+01  0.00000000000E+00 0.  1.
</event>
<event>
 7    1  0.2455451E-009  0.4778727E+02  0.7816164E-02  0.1312668E+00
        -11   -1    0    0    0    0  0.00000000000E+00  0.00000000000E+00  0.45593999997E+02  0.45594000000E+02  0.51100000000E-03 0.  1.
         11   -1    0    0    0    0 -0.00000000000E+00 -0.00000000000E+00 -0.45593999997E+02  0.45594000000E+02  0.51100000000E-03 0. -1.
    9900012    2    1    2    0    0  0.33504947514E+02  0.15673929931E+01  0.27542423041E+02  0.47787270793E+02  0.19999998854E+02 0.  0.
         12    1    1    2    0    0 -0.33504947514E+02 -0.15673929931E+01 -0.27542423041E+02  0.43400729207E+02  0.00000000000E+00 0. -1.
         11    1    3    3    0    0  0.14233265437E+02  0.76754781589E+01  0.84241836334E+01  0.18233641439E+02  0.51100000000E-03 0. -1.
        -11    1    3    3    0    0  0.88214370161E+01  0.20880829020E+01  0.59018915137E+01  0.10817123690E+02  0.51100000000E-03 0.  1.
         12    1    3    3    0    0  0.10450245061E+02 -0.81961680677E+01  0.13216347894E+02  0.18736505664E+02  0.00000000000E+00 0. -1.
</event>
<event>
 7    1  0.2455451E-009  0.4778727E+02  0.7816164E-02  0.1312668E+00
        -11   -1    0    0    0    0  0.00000000000E+00  0.00000000000E+00  0.45593999997E+02  0.45594000000E+02  0.51100000000E-03 0.  1.
         11   -1    0    0    0    0 -0.00000000000E+00 -0.00000000000E+00 -0.45593999997E+02  0.45594000000E+02  0.51100000000E-03 0. -1.
    9900012    2    1    2    0    0  0.49990687165E+01 -0.19912491519E+02  0.38237746013E+02  0.47787271588E+02  0.20000002477E+02 0.  0.
         12    1    1    2    0    0 -0.49990687165E+01  0.19912491519E+02 -0.38237746013E+02  0.43400728412E+02  0.00000000000E+00 0. -1.
         11    1    3    3    0    0  0.96296598762E+01 -0.10051775593E+02  0.11216090666E+02  0.17876499434E+02  0.51100000000E-03 0. -1.
        -11    1    3    3    0    0 -0.17224571242E+01 -0.89919454181E+01  0.15556393202E+02  0.18050576463E+02  0.51100000000E-03 0.  1.
         12    1    3    3    0    0 -0.29081340355E+01 -0.86877050781E+00  0.11465262145E+02  0.11860195691E+02  0.00000000000E+00 0. -1.
</event>
<event>
 7    1  0.2455451E-009  0.4778727E+02  0.7816164E-02  0.1312668E+00
        -11   -1    0    0    0    0  0.00000000000E+00  0.00000000000E+00  0.45593999997E+02  0.45594000000E+02  0.51100000000E-03 0.  1.
         11   -1    0    0    0    0 -0.00000000000E+00 -0.00000000000E+00 -0.45593999997E+02  0.45594000000E+02  0.51100000000E-03 0. -1.
    9900012    2    1    2    0    0 -0.52328339861E+01  0.18359771957E+02  0.38976397422E+02  0.47787270354E+02  0.19999996851E+02 0.  0.
         12    1    1    2    0    0  0.52328339861E+01 -0.18359771957E+02 -0.38976397422E+02  0.43400729646E+02  0.00000000000E+00 0. -1.
         11    1    3    3    0    0 -0.74902201297E+01  0.17899215051E+01  0.90259735730E+01  0.11864881617E+02  0.51100000000E-03 0. -1.
        -11    1    3    3    0    0  0.48038079382E+01  0.12510035016E+02  0.14492070909E+02  0.19738228550E+02  0.51100000000E-03 0.  1.
        -12    1    3    3    0    0 -0.25464217945E+01  0.40598154354E+01  0.15458352940E+02  0.16184160186E+02  0.00000000000E+00 0.  1.
</event>
<event>
 7    1  0.2455451E-009  0.4778727E+02  0.7816164E-02  0.1312668E+00
        -11   -1    0    0    0    0  0.00000000000E+00  0.00000000000E+00  0.45593999997E+02  0.45594000000E+02  0.51100000000E-03 0. -1.
         11   -1    0    0    0    0 -0.00000000000E+00 -0.00000000000E+00 -0.45593999997E+02  0.45594000000E+02  0.51100000000E-03 0.  1.
    9900012    2    1    2    0    0  0.29208387119E+01  0.43292299848E+02 -0.93220885919E+00  0.47787267998E+02  0.19999986112E+02 0.  0.
         12    1    1    2    0    0 -0.29208387119E+01 -0.43292299848E+02  0.93220885919E+00  0.43400732002E+02  0.00000000000E+00 0. -1.
         11    1    3    3    0    0  0.19203491734E+01  0.27794790629E+02  0.63701494131E+01  0.28580009287E+02  0.51100000000E-03 0. -1.
        -11    1    3    3    0    0 -0.18257545524E+01  0.12797750617E+02 -0.80486497627E+01  0.15228150374E+02  0.51100000000E-03 0.  1.
         12    1    3    3    0    0  0.28262440910E+01  0.26997586024E+01  0.74629149039E+00  0.39791083375E+01  0.00000000000E+00 0. -1.
</event>
<event>
 7    1  0.2455451E-009  0.4778728E+02  0.7816164E-02  0.1312668E+00
        -11   -1    0    0    0    0  0.00000000000E+00  0.00000000000E+00  0.45593999997E+02  0.45594000000E+02  0.51100000000E-03 0.  1.
         11   -1    0    0    0    0 -0.00000000000E+00 -0.00000000000E+00 -0.45593999997E+02  0.45594000000E+02  0.51100000000E-03 0. -1.
    9900012    2    1    2    0    0 -0.38506513353E+02  0.10216951820E+02  0.17218740643E+02  0.47787277605E+02  0.20000029911E+02 0.  0.
         12    1    1    2    0    0  0.38506513353E+02 -0.10216951820E+02 -0.17218740643E+02  0.43400722395E+02  0.00000000000E+00 0. -1.
         11    1    3    3    0    0 -0.20991389300E+01 -0.89178643097E-01  0.78869778823E+01  0.81620314539E+01  0.51100000000E-03 0.  1.
        -11    1    3    3    0    0 -0.19554095929E+02  0.47904909304E+01  0.13463613704E+01  0.20177317962E+02  0.51100000000E-03 0. -1.
        -12    1    3    3    0    0 -0.16853278495E+02  0.55156395330E+01  0.79854013898E+01  0.19447928189E+02  0.00000000000E+00 0.  1.
</event>
<event>
 7    1  0.2455451E-009  0.4778727E+02  0.7816164E-02  0.1312668E+00
        -11   -1    0    0    0    0  0.00000000000E+00  0.00000000000E+00  0.45593999997E+02  0.45594000000E+02  0.51100000000E-03 0.  1.
         11   -1    0    0    0    0 -0.00000000000E+00 -0.00000000000E+00 -0.45593999997E+02  0.45594000000E+02  0.51100000000E-03 0. -1.
    9900012    2    1    2    0    0  0.29738056333E+02 -0.25152062798E+01  0.31511030187E+02  0.47787270967E+02  0.19999999649E+02 0.  0.
         12    1    1    2    0    0 -0.29738056333E+02  0.25152062798E+01 -0.31511030187E+02  0.43400729033E+02  0.00000000000E+00 0. -1.
         11    1    3    3    0    0  0.92221359238E+00  0.69834381004E+00  0.19515906767E+01  0.22686710686E+01  0.51100000000E-03 0. -1.
        -11    1    3    3    0    0  0.13928163665E+02  0.63127422076E+01  0.68880723894E+01  0.16771702321E+02  0.51100000000E-03 0.  1.
        -12    1    3    3    0    0  0.14887679076E+02 -0.95262922974E+01  0.22671367121E+02  0.28746897578E+02  0.00000000000E+00 0.  1.
</event>
<event>
 7    1  0.2455451E-009  0.4778727E+02  0.7816164E-02  0.1312668E+00
        -11   -1    0    0    0    0  0.00000000000E+00  0.00000000000E+00  0.45593999997E+02  0.45594000000E+02  0.51100000000E-03 0.  1.
         11   -1    0    0    0    0 -0.00000000000E+00 -0.00000000000E+00 -0.45593999997E+02  0.45594000000E+02  0.51100000000E-03 0. -1.
    9900012    2    1    2    0    0  0.20069691443E+02 -0.56464306936E+01  0.38065056712E+02  0.47787271473E+02  0.20000001953E+02 0.  0.
         12    1    1    2    0    0 -0.20069691443E+02  0.56464306936E+01 -0.38065056712E+02  0.43400728527E+02  0.00000000000E+00 0. -1.
         11    1    3    3    0    0  0.83272867676E+00 -0.20404195521E+01 -0.20273851898E+01  0.29945016224E+01  0.51100000000E-03 0. -1.
        -11    1    3    3    0    0  0.13917917269E+02 -0.30467518971E+01  0.32694364640E+02  0.35663883659E+02  0.51100000000E-03 0.  1.
        -12    1    3    3    0    0  0.53190454974E+01 -0.55925924440E+00  0.73980772624E+01  0.91288861909E+01  0.00000000000E+00 0.  1.
</event>
<event>
 7    1  0.2455451E-009  0.4778727E+02  0.7816164E-02  0.1312668E+00
        -11   -1    0    0    0    0  0.00000000000E+00  0.00000000000E+00  0.45593999997E+02  0.45594000000E+02  0.51100000000E-03 0.  1.
         11   -1    0    0    0    0 -0.00000000000E+00 -0.00000000000E+00 -0.45593999997E+02  0.45594000000E+02  0.51100000000E-03 0. -1.
    9900012    2    1    2    0    0  0.11948381039E+02  0.14759567071E+02  0.39025822241E+02  0.47787269232E+02  0.19999991737E+02 0.  0.
         12    1    1    2    0    0 -0.11948381039E+02 -0.14759567071E+02 -0.39025822241E+02  0.43400730768E+02  0.00000000000E+00 0. -1.
         11    1    3    3    0    0  0.38859056863E+01  0.17150898153E+01  0.12436606670E+02  0.13141955022E+02  0.51100000000E-03 0.  1.
        -11    1    3    3    0    0  0.40382855718E+01  0.23031010740E+01 -0.10100594141E+01  0.47573359349E+01  0.51100000000E-03 0. -1.
        -12    1    3    3    0    0  0.40241897813E+01  0.10741376182E+02  0.27599274985E+02  0.29887978275E+02  0.00000000000E+00 0.  1.
</event>
<event>
 7    1  0.2455451E-009  0.4778727E+02  0.7816164E-02  0.1312668E+00
        -11   -1    0    0    0    0  0.00000000000E+00  0.00000000000E+00  0.45593999997E+02  0.45594000000E+02  0.51100000000E-03 0. -1.
         11   -1    0    0    0    0 -0.00000000000E+00 -0.00000000000E+00 -0.45593999997E+02  0.45594000000E+02  0.51100000000E-03 0.  1.
    9900012    2    1    2    0    0 -0.35165645136E+02  0.25138680070E+02 -0.38790649110E+01  0.47787274452E+02  0.20000015537E+02 0.  0.
         12    1    1    2    0    0  0.35165645136E+02 -0.25138680070E+02  0.38790649110E+01  0.43400725548E+02  0.00000000000E+00 0. -1.
         11    1    3    3    0    0 -0.12552611535E+02  0.13900732036E+02  0.29056192625E+01  0.18953654821E+02  0.51100000000E-03 0. -1.
        -11    1    3    3    0    0 -0.17537334857E+02  0.10099281683E+02 -0.10147925005E+02  0.22639213471E+02  0.51100000000E-03 0.  1.
         12    1    3    3    0    0 -0.50756987437E+01  0.11386663507E+01  0.33632408312E+01  0.61944061607E+01  0.00000000000E+00 0. -1.
</event>
<event>
 7    1  0.2455451E-009  0.4778727E+02  0.7816164E-02  0.1312668E+00
        -11   -1    0    0    0    0  0.00000000000E+00  0.00000000000E+00  0.45593999997E+02  0.45594000000E+02  0.51100000000E-03 0.  1.
         11   -1    0    0    0    0 -0.00000000000E+00 -0.00000000000E+00 -0.45593999997E+02  0.45594000000E+02  0.51100000000E-03 0. -1.
    9900012    2    1    2    0    0  0.12149725007E+02  0.37554429777E+02  0.18046393657E+02  0.47787270310E+02  0.19999996650E+02 0.  0.
         12    1    1    2    0    0 -0.12149725007E+02 -0.37554429777E+02 -0.18046393657E+02  0.43400729690E+02  0.00000000000E+00 0. -1.
         11    1    3    3    0    0  0.11481141006E+01  0.42183722307E+01 -0.40604446966E+01  0.59665770472E+01  0.51100000000E-03 0. -1.
        -11    1    3    3    0    0  0.80928052060E+01  0.19576825696E+02  0.15696694204E+02  0.26365352446E+02  0.51100000000E-03 0.  1.
         12    1    3    3    0    0  0.29088057007E+01  0.13759231851E+02  0.64101441498E+01  0.15455340816E+02  0.00000000000E+00 0. -1.
</event>
<event>
 7    1  0.2455451E-009  0.4778728E+02  0.7816164E-02  0.1312668E+00
        -11   -1    0    0    0    0  0.00000000000E+00  0.00000000000E+00  0.45593999997E+02  0.45594000000E+02  0.51100000000E-03 0.  1.
         11   -1    0    0    0    0 -0.00000000000E+00 -0.00000000000E+00 -0.45593999997E+02  0.45594000000E+02  0.51100000000E-03 0. -1.
    9900012    2    1    2    0    0 -0.37108629226E+02 -0.14584025842E+02  0.17142887315E+02  0.47787276984E+02  0.20000027080E+02 0.  0.
         12    1    1    2    0    0  0.37108629226E+02  0.14584025842E+02 -0.17142887315E+02  0.43400723016E+02  0.00000000000E+00 0. -1.
         11    1    3    3    0    0 -0.43657510817E+01  0.31119492176E+01  0.43830312499E+01  0.69249529702E+01  0.51100000000E-03 0. -1.
        -11    1    3    3    0    0 -0.10409675843E+02 -0.34446507586E+01  0.88328381987E+01  0.14079985827E+02  0.51100000000E-03 0.  1.
         12    1    3    3    0    0 -0.22333202302E+02 -0.14251324301E+02  0.39270178668E+01  0.26782338186E+02  0.00000000000E+00 0. -1.
</event>
<event>
 7    1  0.2455451E-009  0.4778726E+02  0.7816164E-02  0.1312668E+00
        -11   -1    0    0    0    0  0.00000000000E+00  0.00000000000E+00  0.45593999997E+02  0.45594000000E+02  0.51100000000E-03 0. -1.
         11   -1    0    0    0    0 -0.00000000000E+00 -0.00000000000E+00 -0.45593999997E+02  0.45594000000E+02  0.51100000000E-03 0.  1.
    9900012    2    1    2    0    0  0.21005415319E+02 -0.27346939744E+02 -0.26354154978E+02  0.47787261864E+02  0.19999958144E+02 0.  0.
         12    1    1    2    0    0 -0.21005415319E+02  0.27346939744E+02  0.26354154978E+02  0.43400738136E+02  0.00000000000E+00 0. -1.
         11    1    3    3    0    0 -0.32750912322E+01 -0.22651497237E+01 -0.54629295725E+01  0.67602311813E+01  0.51100000000E-03 0. -1.
        -11    1    3    3    0    0  0.13684560860E+02 -0.17787455296E+02 -0.13550551110E+02  0.26215991446E+02  0.51100000000E-03 0.  1.
         12    1    3    3    0    0  0.10595945692E+02 -0.72943347243E+01 -0.73406742956E+01  0.14811039237E+02  0.00000000000E+00 0. -1.
</event>
<event>
 7    1  0.2455451E-009  0.4778726E+02  0.7816164E-02  0.1312668E+00
        -11   -1    0    0    0    0  0.00000000000E+00  0.00000000000E+00  0.45593999997E+02  0.45594000000E+02  0.51100000000E-03 0.  1.
         11   -1    0    0    0    0 -0.00000000000E+00 -0.00000000000E+00 -0.45593999997E+02  0.45594000000E+02  0.51100000000E-03 0. -1.
    9900012    2    1    2    0    0  0.42026059448E+02 -0.93008835280E+01 -0.55612699470E+01  0.47787264631E+02  0.19999970760E+02 0.  0.
         12    1    1    2    0    0 -0.42026059448E+02  0.93008835280E+01  0.55612699470E+01  0.43400735369E+02  0.00000000000E+00 0. -1.
         11    1    3    3    0    0  0.23137521197E+02 -0.89794037851E+01  0.32421348455E+01  0.25029702717E+02  0.51100000000E-03 0. -1.
        -11    1    3    3    0    0  0.10961889511E+02  0.16352485089E+01 -0.47304090566E+00  0.11093278474E+02  0.51100000000E-03 0.  1.
         12    1    3    3    0    0  0.79266487404E+01 -0.19567282517E+01 -0.83303638868E+01  0.11664283441E+02  0.00000000000E+00 0. -1.
</event>
<event>
 7    1  0.2455451E-009  0.4778727E+02  0.7816164E-02  0.1312668E+00
        -11   -1    0    0    0    0  0.00000000000E+00  0.00000000000E+00  0.45593999997E+02  0.45594000000E+02  0.51100000000E-03 0. -1.
         11   -1    0    0    0    0 -0.00000000000E+00 -0.00000000000E+00 -0.45593999997E+02  0.45594000000E+02  0.51100000000E-03 0.  1.
    9900012    2    1    2    0    0  0.11585781727E+02 -0.33403362161E+02 -0.25171577103E+02  0.47787271484E+02  0.20000002003E+02 0.  0.
         12    1    1    2    0    0 -0.11585781727E+02  0.33403362161E+02  0.25171577103E+02  0.43400728516E+02  0.00000000000E+00 0. -1.
         11    1    3    3    0    0 -0.32329167422E+01 -0.13219304512E+02 -0.27774673645E+01  0.13889423590E+02  0.51100000000E-03 0. -1.
        -11    1    3    3    0    0  0.10643266631E+02 -0.16788803027E+02 -0.15840714811E+02  0.25417932206E+02  0.51100000000E-03 0.  1.
        -12    1    3    3    0    0  0.41754318384E+01 -0.33952546220E+01 -0.65533949278E+01  0.84799156874E+01  0.00000000000E+00 0.  1.
</event>
<event>
 7    1  0.2455451E-009  0.4778727E+02  0.7816164E-02  0.1312668E+00
        -11   -1    0    0    0    0  0.00000000000E+00  0.00000000000E+00  0.45593999997E+02  0.45594000000E+02  0.51100000000E-03 0.  1.
         11   -1    0    0    0    0 -0.00000000000E+00 -0.00000000000E+00 -0.45593999997E+02  0.45594000000E+02  0.51100000000E-03 0. -1.
    9900012    2    1    2    0    0  0.36746805181E+02  0.19394713487E+02 -0.12535574045E+02  0.47787271678E+02  0.20000002887E+02 0.  0.
         12    1    1    2    0    0 -0.36746805181E+02 -0.19394713487E+02  0.12535574045E+02  0.43400728322E+02  0.00000000000E+00 0. -1.
         11    1    3    3    0    0  0.95444327376E+01  0.22424877370E-01 -0.10346399616E+02  0.14076387478E+02  0.51100000000E-03 0. -1.
        -11    1    3    3    0    0  0.20531486779E+02  0.12537480691E+02 -0.90048537938E+00  0.24073662904E+02  0.51100000000E-03 0.  1.
         12    1    3    3    0    0  0.66708856642E+01  0.68348079194E+01 -0.12886890497E+01  0.96372212959E+01  0.00000000000E+00 0. -1.
</event>
<event>
 7    1  0.2455451E-009  0.4778727E+02  0.7816164E-02  0.1312668E+00
        -11   -1    0    0    0    0  0.00000000000E+00  0.00000000000E+00  0.45593999997E+02  0.45594000000E+02  0.51100000000E-03 0. -1.
         11   -1    0    0    0    0 -0.00000000000E+00 -0.00000000000E+00 -0.45593999997E+02  0.45594000000E+02  0.51100000000E-03 0.  1.
    9900012    2    1    2    0    0 -0.42225952667E+02 -0.68141566852E+01  0.73592884709E+01  0.47787274928E+02  0.20000017707E+02 0.  0.
         12    1    1    2    0    0  0.42225952667E+02  0.68141566852E+01 -0.73592884709E+01  0.43400725072E+02  0.00000000000E+00 0. -1.
         11    1    3    3    0    0 -0.20584817949E+01  0.28152484240E+01  0.28340125932E+00  0.34990409434E+01  0.51100000000E-03 0. -1.
        -11    1    3    3    0    0 -0.13091630205E+02 -0.88819050888E+01  0.67501902244E+01  0.17200118830E+02  0.51100000000E-03 0.  1.
        -12    1    3    3    0    0 -0.27075840667E+02 -0.74750002039E+00  0.32569698717E+00  0.27088115155E+02  0.00000000000E+00 0.  1.
</event>
<event>
 7    1  0.2455451E-009  0.4778727E+02  0.7816164E-02  0.1312668E+00
        -11   -1    0    0    0    0  0.00000000000E+00  0.00000000000E+00  0.45593999997E+02  0.45594000000E+02  0.51100000000E-03 0.  1.
         11   -1    0    0    0    0 -0.00000000000E+00 -0.00000000000E+00 -0.45593999997E+02  0.45594000000E+02  0.51100000000E-03 0. -1.
    9900012    2    1    2    0    0 -0.36034402343E+02  0.16167640533E+02  0.17993129614E+02  0.47787268832E+02  0.19999989913E+02 0.  0.
         12    1    1    2    0    0  0.36034402343E+02 -0.16167640533E+02 -0.17993129614E+02  0.43400731168E+02  0.00000000000E+00 0. -1.
         11    1    3    3    0    0 -0.73046138139E+01  0.69933672944E+01 -0.27918855444E+01  0.10490910077E+02  0.51100000000E-03 0. -1.
        -11    1    3    3    0    0 -0.28464744599E+02  0.98129440711E+01  0.20816550105E+02  0.36604157072E+02  0.51100000000E-03 0.  1.
        -12    1    3    3    0    0 -0.26504392992E+00 -0.63867083255E+00 -0.31534946756E-01  0.69220168304E+00  0.00000000000E+00 0.  1.
</event>
<event>
 7    1  0.2455451E-009  0.4778724E+02  0.7816164E-02  0.1312668E+00
        -11   -1    0    0    0    0  0.00000000000E+00  0.00000000000E+00  0.45593999997E+02  0.45594000000E+02  0.51100000000E-03 0. -1.
         11   -1    0    0    0    0 -0.00000000000E+00 -0.00000000000E+00 -0.45593999997E+02  0.45594000000E+02  0.51100000000E-03 0.  1.
    9900012    2    1    2    0    0 -0.16012942331E+02  0.22608099420E+02 -0.33407864403E+02  0.47787240958E+02  0.19999862825E+02 0.  0.
         12    1    1    2    0    0  0.16012942331E+02 -0.22608099420E+02  0.33407864403E+02  0.43400759042E+02  0.00000000000E+00 0. -1.
         11    1    3    3    0    0 -0.38299860598E+01 -0.25115746037E+01 -0.41606417862E+01  0.61877088282E+01  0.51100000000E-03 0. -1.
        -11    1    3    3    0    0 -0.87776431625E+01  0.16073225598E+02 -0.12208931905E+02  0.22010307111E+02  0.51100000000E-03 0.  1.
        -12    1    3    3    0    0 -0.34053131082E+01  0.90464484258E+01 -0.17038290711E+02  0.19589225019E+02  0.00000000000E+00 0.  1.
</event>
<event>
 7    1  0.2455451E-009  0.4778728E+02  0.7816164E-02  0.1312668E+00
        -11   -1    0    0    0    0  0.00000000000E+00  0.00000000000E+00  0.45593999997E+02  0.45594000000E+02  0.51100000000E-03 0.  1.
         11   -1    0    0    0    0 -0.00000000000E+00 -0.00000000000E+00 -0.45593999997E+02  0.45594000000E+02  0.51100000000E-03 0. -1.
    9900012    2    1    2    0    0 -0.22589633720E+02  0.32884514292E+02  0.17086252869E+02  0.47787275709E+02  0.20000021269E+02 0.  0.
         12    1    1    2    0    0  0.22589633720E+02 -0.32884514292E+02 -0.17086252869E+02  0.43400724291E+02  0.00000000000E+00 0. -1.
         11    1    3    3    0    0  0.14217502670E+01  0.98926230326E+00  0.33811451258E+01  0.37989678005E+01  0.51100000000E-03 0. -1.
        -11    1    3    3    0    0 -0.20372738217E+02  0.31377619758E+02  0.14676050767E+02  0.40186937561E+02  0.51100000000E-03 0.  1.
        -12    1    3    3    0    0 -0.36386457702E+01  0.51763223125E+00 -0.97094302412E+00  0.38013703482E+01  0.00000000000E+00 0.  1.
</event>
<event>
 7    1  0.2455451E-009  0.4778727E+02  0.7816164E-02  0.1312668E+00
        -11   -1    0    0    0    0  0.00000000000E+00  0.00000000000E+00  0.45593999997E+02  0.45594000000E+02  0.51100000000E-03 0.  1.
         11   -1    0    0    0    0 -0.00000000000E+00 -0.00000000000E+00 -0.45593999997E+02  0.45594000000E+02  0.51100000000E-03 0. -1.
    9900012    2    1    2    0    0 -0.39882707296E+01 -0.23631660113E+02  0.36183720764E+02  0.47787270612E+02  0.19999998027E+02 0.  0.
         12    1    1    2    0    0  0.39882707296E+01  0.23631660113E+02 -0.36183720764E+02  0.43400729388E+02  0.00000000000E+00 0. -1.
         11    1    3    3    0    0 -0.24293905743E+01  0.12024628733E+01  0.55582519152E+01  0.61840132712E+01  0.51100000000E-03 0. -1.
        -11    1    3    3    0    0  0.29418974822E+00 -0.18900954938E+02  0.29859956308E+02  0.35340481549E+02  0.51100000000E-03 0.  1.
        -12    1    3    3    0    0 -0.18530699036E+01 -0.59331680485E+01  0.76551254074E+00  0.62627757911E+01  0.00000000000E+00 0.  1.
</event>
<event>
 7    1  0.2455451E-009  0.4778727E+02  0.7816164E-02  0.1312668E+00
        -11   -1    0    0    0    0  0.00000000000E+00  0.00000000000E+00  0.45593999997E+02  0.45594000000E+02  0.51100000000E-03 0.  1.
         11   -1    0    0    0    0 -0.00000000000E+00 -0.00000000000E+00 -0.45593999997E+02  0.45594000000E+02  0.51100000000E-03 0. -1.
    9900012    2    1    2    0    0 -0.38124647813E+02 -0.20730981007E+02  0.60083235900E+00  0.47787270238E+02  0.19999996323E+02 0.  0.
         12    1    1    2    0    0  0.38124647813E+02  0.20730981007E+02 -0.60083235900E+00  0.43400729762E+02  0.00000000000E+00 0. -1.
         11    1    3    3    0    0 -0.46225043458E+01 -0.10180067601E+01  0.66372795939E+01  0.81521386678E+01  0.51100000000E-03 0. -1.
        -11    1    3    3    0    0 -0.18516603628E+02 -0.10780097226E+02 -0.88432185793E+00  0.21444279692E+02  0.51100000000E-03 0.  1.
         12    1    3    3    0    0 -0.14985539839E+02 -0.89328770204E+01 -0.51521253769E+01  0.18190851878E+02  0.00000000000E+00 0. -1.
</event>
<event>
 7    1  0.2455451E-009  0.4778727E+02  0.7816164E-02  0.1312668E+00
        -11   -1    0    0    0    0  0.00000000000E+00  0.00000000000E+00  0.45593999997E+02  0.45594000000E+02  0.51100000000E-03 0.  1.
         11   -1    0    0    0    0 -0.00000000000E+00 -0.00000000000E+00 -0.45593999997E+02  0.45594000000E+02  0.51100000000E-03 0. -1.
    9900012    2    1    2    0    0 -0.41615366067E+01 -0.98755582374E+01  0.42056846441E+02  0.47787269937E+02  0.19999994950E+02 0.  0.
         12    1    1    2    0    0  0.41615366067E+01  0.98755582374E+01 -0.42056846441E+02  0.43400730063E+02  0.00000000000E+00 0. -1.
         11    1    3    3    0    0  0.39637955591E+01 -0.18122109932E+01  0.14519604821E+01  0.45939061179E+01  0.51100000000E-03 0. -1.
        -11    1    3    3    0    0 -0.93243160903E+01 -0.90615521995E+01  0.37931548017E+02  0.40098091401E+02  0.51100000000E-03 0.  1.
        -12    1    3    3    0    0  0.11989839245E+01  0.99820495530E+00  0.26733379424E+01  0.30952724174E+01  0.00000000000E+00 0.  1.
</event>
<event>
 7    1  0.2455451E-009  0.4778727E+02  0.7816164E-02  0.1312668E+00
        -11   -1    0    0    0    0  0.00000000000E+00  0.00000000000E+00  0.45593999997E+02  0.45594000000E+02  0.51100000000E-03 0.  1.
         11   -1    0    0    0    0 -0.00000000000E+00 -0.00000000000E+00 -0.45593999997E+02  0.45594000000E+02  0.51100000000E-03 0. -1.
    9900012    2    1    2    0    0  0.29801937415E+02 -0.13150211276E+02  0.28679953368E+02  0.47787271257E+02  0.20000000967E+02 0.  0.
         12    1    1    2    0    0 -0.29801937415E+02  0.13150211276E+02 -0.28679953368E+02  0.43400728743E+02  0.00000000000E+00 0. -1.
         11    1    3    3    0    0  0.22862256121E+02 -0.78355387907E+01  0.19260364147E+02  0.30903722274E+02  0.51100000000E-03 0.  1.
        -11    1    3    3    0    0  0.48164844798E+00 -0.70707284226E+01  0.63693953577E+01  0.95287136140E+01  0.51100000000E-03 0. -1.
         12    1    3    3    0    0  0.64580328458E+01  0.17560559369E+01  0.30501938634E+01  0.73548353684E+01  0.00000000000E+00 0. -1.
</event>
<event>
 7    1  0.2455451E-009  0.4778725E+02  0.7816164E-02  0.1312668E+00
        -11   -1    0    0    0    0  0.00000000000E+00  0.00000000000E+00  0.45593999997E+02  0.45594000000E+02  0.51100000000E-03 0. -1.
         11   -1    0    0    0    0 -0.00000000000E+00 -0.00000000000E+00 -0.45593999997E+02  0.45594000000E+02  0.51100000000E-03 0.  1.
    9900012    2    1    2    0    0 -0.38244732317E+02 -0.19323338440E+02  0.68974321224E+01  0.47787245072E+02  0.19999881579E+02 0.  0.
         12    1    1    2    0    0  0.38244732317E+02  0.19323338440E+02 -0.68974321224E+01  0.43400754928E+02  0.00000000000E+00 0. -1.
         11    1    3    3    0    0 -0.32637884578E+02 -0.14059517867E+02  0.60314439139E+01  0.36045524941E+02  0.51100000000E-03 0. -1.
        -11    1    3    3    0    0  0.17309979876E+00 -0.55114429116E+01 -0.11168037930E+01  0.56261192204E+01  0.51100000000E-03 0.  1.
         12    1    3    3    0    0 -0.57799475381E+01  0.24762233839E+00  0.19827920015E+01  0.61156009097E+01  0.00000000000E+00 0. -1.
</event>
<event>
 7    1  0.2455451E-009  0.4778727E+02  0.7816164E-02  0.1312668E+00
        -11   -1    0    0    0    0  0.00000000000E+00  0.00000000000E+00  0.45593999997E+02  0.45594000000E+02  0.51100000000E-03 0. -1.
         11   -1    0    0    0    0 -0.00000000000E+00 -0.00000000000E+00 -0.45593999997E+02  0.45594000000E+02  0.51100000000E-03 0.  1.
    9900012    2    1    2    0    0  0.23277013718E+02  0.34534812971E+02 -0.12212731950E+02  0.47787268482E+02  0.19999988319E+02 0.  0.
         12    1    1    2    0    0 -0.23277013718E+02 -0.34534812971E+02  0.12212731950E+02  0.43400731518E+02  0.00000000000E+00 0. -1.
         11    1    3    3    0    0 -0.17928698801E+01 -0.38161244308E+00 -0.19538687333E+01  0.26791068944E+01  0.51100000000E-03 0. -1.
        -11    1    3    3    0    0  0.14948569341E+02  0.27508643600E+02 -0.85129500256E+01  0.32444653126E+02  0.51100000000E-03 0.  1.
        -12    1    3    3    0    0  0.10121314258E+02  0.74077818140E+01 -0.17459131912E+01  0.12663508462E+02  0.00000000000E+00 0.  1.
</event>
<event>
 7    1  0.2455451E-009  0.4778727E+02  0.7816164E-02  0.1312668E+00
        -11   -1    0    0    0    0  0.00000000000E+00  0.00000000000E+00  0.45593999997E+02  0.45594000000E+02  0.51100000000E-03 0.  1.
         11   -1    0    0    0    0 -0.00000000000E+00 -0.00000000000E+00 -0.45593999997E+02  0.45594000000E+02  0.51100000000E-03 0. -1.
    9900012    2    1    2    0    0  0.77198134625E+01  0.11736129049E+02  0.41064474934E+02  0.47787270207E+02  0.19999996183E+02 0.  0.
         12    1    1    2    0    0 -0.77198134625E+01 -0.11736129049E+02 -0.41064474934E+02  0.43400729793E+02  0.00000000000E+00 0. -1.
         11    1    3    3    0    0  0.48025364477E+01  0.10992303114E+01  0.30043216300E+01  0.57704949810E+01  0.51100000000E-03 0. -1.
        -11    1    3    3    0    0  0.30617492460E+01  0.13523938710E+02  0.35654987759E+02  0.38256363902E+02  0.51100000000E-03 0.  1.
        -12    1    3    3    0    0 -0.14447223111E+00 -0.28870399723E+01  0.24051655448E+01  0.37604113240E+01  0.00000000000E+00 0.  1.
</event>
<event>
 7    1  0.2455451E-009  0.4778728E+02  0.7816164E-02  0.1312668E+00
        -11   -1    0    0    0    0  0.00000000000E+00  0.00000000000E+00  0.45593999997E+02  0.45594000000E+02  0.51100000000E-03 0.  1.
         11   -1    0    0    0    0 -0.00000000000E+00 -0.00000000000E+00 -0.45593999997E+02  0.45594000000E+02  0.51100000000E-03 0. -1.
    9900012    2    1    2    0    0 -0.11703377590E+02 -0.20803626747E+01  0.41741177395E+02  0.47787275971E+02  0.20000022464E+02 0.  0.
         12    1    1    2    0    0  0.11703377590E+02  0.20803626747E+01 -0.41741177395E+02  0.43400724029E+02  0.00000000000E+00 0. -1.
         11    1    3    3    0    0 -0.18534985912E+01  0.23957445567E+01 -0.10922577086E+00  0.30310030582E+01  0.51100000000E-03 0. -1.
        -11    1    3    3    0    0 -0.11748860092E+02 -0.23296945909E+01  0.38635029669E+02  0.40449087853E+02  0.51100000000E-03 0.  1.
        -12    1    3    3    0    0  0.18989810937E+01 -0.21464126406E+01  0.32153734974E+01  0.43071850605E+01  0.00000000000E+00 0.  1.
</event>
<event>
 7    1  0.2455451E-009  0.4778727E+02  0.7816164E-02  0.1312668E+00
        -11   -1    0    0    0    0  0.00000000000E+00  0.00000000000E+00  0.45593999997E+02  0.45594000000E+02  0.51100000000E-03 0.  1.
         11   -1    0    0    0    0 -0.00000000000E+00 -0.00000000000E+00 -0.45593999997E+02  0.45594000000E+02  0.51100000000E-03 0. -1.
    9900012    2    1    2    0    0  0.36431819556E+02 -0.18129583455E+01  0.23517200808E+02  0.47787273878E+02  0.20000012918E+02 0.  0.
         12    1    1    2    0    0 -0.36431819556E+02  0.18129583455E+01 -0.23517200808E+02  0.43400726122E+02  0.00000000000E+00 0. -1.
         11    1    3    3    0    0  0.10808964421E+01 -0.27016639143E+01  0.36563466582E+00  0.29327485392E+01  0.51100000000E-03 0. -1.
        -11    1    3    3    0    0  0.19264644519E+02  0.58706837483E+01  0.64755222194E+01  0.21154759379E+02  0.51100000000E-03 0.  1.
        -12    1    3    3    0    0  0.16086278594E+02 -0.49819781795E+01  0.16676043923E+02  0.23699765959E+02  0.00000000000E+00 0.  1.
</event>
<event>
 7    1  0.2455451E-009  0.4778727E+02  0.7816164E-02  0.1312668E+00
        -11   -1    0    0    0    0  0.00000000000E+00  0.00000000000E+00  0.45593999997E+02  0.45594000000E+02  0.51100000000E-03 0. -1.
         11   -1    0    0    0    0 -0.00000000000E+00 -0.00000000000E+00 -0.45593999997E+02  0.45594000000E+02  0.51100000000E-03 0.  1.
    9900012    2    1    2    0    0 -0.39205550860E+02  0.96034992665E+01 -0.15947442606E+02  0.47787270259E+02  0.19999996417E+02 0.  0.
         12    1    1    2    0    0  0.39205550860E+02 -0.96034992665E+01  0.15947442606E+02  0.43400729741E+02  0.00000000000E+00 0. -1.
         11    1    3    3    0    0 -0.44772714348E+01  0.76751467086E+01  0.11733814253E+01  0.89627373458E+01  0.51100000000E-03 0. -1.
        -11    1    3    3    0    0 -0.22928380478E+02  0.16915700941E+01 -0.10294002508E+02  0.25190048206E+02  0.51100000000E-03 0.  1.
         12    1    3    3    0    0 -0.11799898948E+02  0.23678246380E+00 -0.68268215230E+01  0.13634484707E+02  0.00000000000E+00 0. -1.
</event>
<event>
 7    1  0.2455451E-009  0.4778727E+02  0.7816164E-02  0.1312668E+00
        -11   -1    0    0    0    0  0.00000000000E+00  0.00000000000E+00  0.45593999997E+02  0.45594000000E+02  0.51100000000E-03 0. -1.
         11   -1    0    0    0    0 -0.00000000000E+00 -0.00000000000E+00 -0.45593999997E+02  0.45594000000E+02  0.51100000000E-03 0.  1.
    9900012    2    1    2    0    0  0.90294609039E+01  0.19789975798E+02 -0.37555944069E+02  0.47787271420E+02  0.20000001714E+02 0.  0.
         12    1    1    2    0    0 -0.90294609039E+01 -0.19789975798E+02  0.37555944069E+02  0.43400728580E+02  0.00000000000E+00 0. -1.
         11    1    3    3    0    0 -0.11080395658E+01  0.42664779855E+00 -0.56240171819E+01  0.57479865646E+01  0.51100000000E-03 0. -1.
        -11    1    3    3    0    0  0.31435799372E+01 -0.24552518320E+01 -0.78133629369E+01  0.87726277149E+01  0.51100000000E-03 0.  1.
        -12    1    3    3    0    0  0.69939205325E+01  0.21818579832E+02 -0.24118563951E+02  0.33266657141E+02  0.00000000000E+00 0.  1.
</event>
<event>
 7    1  0.2455451E-009  0.4778722E+02  0.7816164E-02  0.1312668E+00
        -11   -1    0    0    0    0  0.00000000000E+00  0.00000000000E+00  0.45593999997E+02  0.45594000000E+02  0.51100000000E-03 0.  1.
         11   -1    0    0    0    0 -0.00000000000E+00 -0.00000000000E+00 -0.45593999997E+02  0.45594000000E+02  0.51100000000E-03 0. -1.
    9900012    2    1    2    0    0  0.16914815441E+02  0.34729698554E+02  0.19782931205E+02  0.47787224544E+02  0.19999787987E+02 0.  0.
         12    1    1    2    0    0 -0.16914815441E+02 -0.34729698554E+02 -0.19782931205E+02  0.43400775456E+02  0.00000000000E+00 0. -1.
         11    1    3    3    0    0  0.97598005423E+00 -0.27942826559E+00  0.50885017659E+01  0.51887828731E+01  0.51100000000E-03 0. -1.
        -11    1    3    3    0    0  0.15837981552E+02  0.22761170046E+02  0.10534911894E+02  0.29663055985E+02  0.51100000000E-03 0.  1.
        -12    1    3    3    0    0  0.10085383455E+00  0.12247956774E+02  0.41595175452E+01  0.12935385686E+02  0.00000000000E+00 0.  1.
</event>
<event>
 7    1  0.2455451E-009  0.4778727E+02  0.7816164E-02  0.1312668E+00
        -11   -1    0    0    0    0  0.00000000000E+00  0.00000000000E+00  0.45593999997E+02  0.45594000000E+02  0.51100000000E-03 0.  1.
         11   -1    0    0    0    0 -0.00000000000E+00 -0.00000000000E+00 -0.45593999997E+02  0.45594000000E+02  0.51100000000E-03 0. -1.
    9900012    2    1    2    0    0  0.14599748571E+02 -0.34033448388E+02  0.22631725736E+02  0.47787271005E+02  0.19999999820E+02 0.  0.
         12    1    1    2    0    0 -0.14599748571E+02  0.34033448388E+02 -0.22631725736E+02  0.43400728995E+02  0.00000000000E+00 0. -1.
         11    1    3    3    0    0 -0.15202820996E+01  0.31858475195E+00 -0.30712792421E+00  0.15833766859E+01  0.51100000000E-03 0. -1.
        -11    1    3    3    0    0  0.11196269960E+02 -0.22852723958E+02  0.22034948840E+02  0.33662180915E+02  0.51100000000E-03 0.  1.
        -12    1    3    3    0    0  0.49237607104E+01 -0.11499309181E+02  0.90390482095E+00  0.12541713404E+02  0.00000000000E+00 0.  1.
</event>
<event>
 7    1  0.2455451E-009  0.4778727E+02  0.7816164E-02  0.1312668E+00
        -11   -1    0    0    0    0  0.00000000000E+00  0.00000000000E+00  0.45593999997E+02  0.45594000000E+02  0.51100000000E-03 0. -1.
         11   -1    0    0    0    0 -0.00000000000E+00 -0.00000000000E+00 -0.45593999997E+02  0.45594000000E+02  0.51100000000E-03 0.  1.
    9900012    2    1    2    0    0 -0.24963835610E+02  0.11147808100E+02  0.33706922352E+02  0.47787270418E+02  0.19999997143E+02 0.  0.
         12    1    1    2    0    0  0.24963835610E+02 -0.11147808100E+02 -0.33706922352E+02  0.43400729582E+02  0.00000000000E+00 0. -1.
         11    1    3    3    0    0 -0.40108261528E+01  0.53215827707E+01  0.10456136587E+02  0.12399062956E+02  0.51100000000E-03 0. -1.
        -11    1    3    3    0    0 -0.19361814995E+02  0.99916002729E+01  0.21464058845E+02  0.30584600346E+02  0.51100000000E-03 0.  1.
        -12    1    3    3    0    0 -0.15911944617E+01 -0.41653749436E+01  0.17867269203E+01  0.48036071158E+01  0.00000000000E+00 0.  1.
</event>
<event>
 7    1  0.2455451E-009  0.4778727E+02  0.7816164E-02  0.1312668E+00
        -11   -1    0    0    0    0  0.00000000000E+00  0.00000000000E+00  0.45593999997E+02  0.45594000000E+02  0.51100000000E-03 0. -1.
         11   -1    0    0    0    0 -0.00000000000E+00 -0.00000000000E+00 -0.45593999997E+02  0.45594000000E+02  0.51100000000E-03 0.  1.
    9900012    2    1    2    0    0  0.26744712233E+00  0.20724697810E+02 -0.38131861973E+02  0.47787268154E+02  0.19999986820E+02 0.  0.
         12    1    1    2    0    0 -0.26744712233E+00 -0.20724697810E+02  0.38131861973E+02  0.43400731846E+02  0.00000000000E+00 0. -1.
         11    1    3    3    0    0  0.96387111525E+00 -0.76901319524E+00  0.10150878564E+01  0.15971325677E+01  0.51100000000E-03 0. -1.
        -11    1    3    3    0    0 -0.35123201594E+01  0.21137032659E+02 -0.32113333825E+02  0.38605397967E+02  0.51100000000E-03 0.  1.
         12    1    3    3    0    0  0.28158961665E+01  0.35667834605E+00 -0.70336160037E+01  0.75847376191E+01  0.00000000000E+00 0. -1.
</event>
<event>
 7    1  0.2455451E-009  0.4778727E+02  0.7816164E-02  0.1312668E+00
        -11   -1    0    0    0    0  0.00000000000E+00  0.00000000000E+00  0.45593999997E+02  0.45594000000E+02  0.51100000000E-03 0.  1.
         11   -1    0    0    0    0 -0.00000000000E+00 -0.00000000000E+00 -0.45593999997E+02  0.45594000000E+02  0.51100000000E-03 0. -1.
    9900012    2    1    2    0    0 -0.20396884678E+02  0.31171632429E+02  0.22269255888E+02  0.47787270390E+02  0.19999997015E+02 0.  0.
         12    1    1    2    0    0  0.20396884678E+02 -0.31171632429E+02 -0.22269255888E+02  0.43400729610E+02  0.00000000000E+00 0. -1.
         11    1    3    3    0    0 -0.15474204856E+02  0.12871058389E+02  0.33072358820E+01  0.20397376533E+02  0.51100000000E-03 0. -1.
        -11    1    3    3    0    0 -0.57126937280E+01  0.12271391251E+02  0.11480392410E+02  0.17748840047E+02  0.51100000000E-03 0.  1.
         12    1    3    3    0    0  0.79001390590E+00  0.60291827894E+01  0.74816275967E+01  0.96410538104E+01  0.00000000000E+00 0. -1.
</event>
<event>
 7    1  0.2455451E-009  0.4778727E+02  0.7816164E-02  0.1312668E+00
        -11   -1    0    0    0    0  0.00000000000E+00  0.00000000000E+00  0.45593999997E+02  0.45594000000E+02  0.51100000000E-03 0. -1.
         11   -1    0    0    0    0 -0.00000000000E+00 -0.00000000000E+00 -0.45593999997E+02  0.45594000000E+02  0.51100000000E-03 0.  1.
    9900012    2    1    2    0    0 -0.35410353142E+02 -0.67135023681E+01 -0.24179724224E+02  0.47787270891E+02  0.19999999299E+02 0.  0.
         12    1    1    2    0    0  0.35410353142E+02  0.67135023681E+01  0.24179724224E+02  0.43400729109E+02  0.00000000000E+00 0. -1.
         11    1    3    3    0    0 -0.18617403727E+02  0.13593464568E+01 -0.17789320453E+02  0.25785954836E+02  0.51100000000E-03 0. -1.
        -11    1    3    3    0    0 -0.10830669471E+02 -0.13228286817E+01 -0.70180251532E+01  0.12973278469E+02  0.51100000000E-03 0.  1.
         12    1    3    3    0    0 -0.59622799438E+01 -0.67500201432E+01  0.62762138286E+00  0.90280375864E+01  0.00000000000E+00 0. -1.
</event>
<event>
 7    1  0.2455451E-009  0.4778727E+02  0.7816164E-02  0.1312668E+00
        -11   -1    0    0    0    0  0.00000000000E+00  0.00000000000E+00  0.45593999997E+02  0.45594000000E+02  0.51100000000E-03 0.  1.
         11   -1    0    0    0    0 -0.00000000000E+00 -0.00000000000E+00 -0.45593999997E+02  0.45594000000E+02  0.51100000000E-03 0. -1.
    9900012    2    1    2    0    0 -0.85505274562E+01  0.35080155468E+02  0.24080990925E+02  0.47787274760E+02  0.20000016938E+02 0.  0.
         12    1    1    2    0    0  0.85505274562E+01 -0.35080155468E+02 -0.24080990925E+02  0.43400725240E+02  0.00000000000E+00 0. -1.
         11    1    3    3    0    0 -0.75377402139E+01  0.24362788675E+02  0.12037510648E+02  0.28200437273E+02  0.51100000000E-03 0. -1.
        -11    1    3    3    0    0  0.33557024487E+01  0.46390629537E+01  0.10477002271E+02  0.11939397843E+02  0.51100000000E-03 0.  1.
         12    1    3    3    0    0 -0.43684896910E+01  0.60783038400E+01  0.15664780067E+01  0.76474396432E+01  0.00000000000E+00 0. -1.
</event>
<event>
 7    1  0.2455451E-009  0.4778727E+02  0.7816164E-02  0.1312668E+00
        -11   -1    0    0    0    0  0.00000000000E+00  0.00000000000E+00  0.45593999997E+02  0.45594000000E+02  0.51100000000E-03 0.  1.
         11   -1    0    0    0    0 -0.00000000000E+00 -0.00000000000E+00 -0.45593999997E+02  0.45594000000E+02  0.51100000000E-03 0. -1.
    9900012    2    1    2    0    0 -0.13234846548E+02  0.39386148645E+02  0.12537667104E+02  0.47787274607E+02  0.20000016244E+02 0.  0.
         12    1    1    2    0    0  0.13234846548E+02 -0.39386148645E+02 -0.12537667104E+02  0.43400725393E+02  0.00000000000E+00 0. -1.
         11    1    3    3    0    0 -0.13790057799E+02  0.23421660780E+02  0.91917494229E+01  0.28691952627E+02  0.51100000000E-03 0. -1.
        -11    1    3    3    0    0  0.37138137442E+01  0.13810251928E+02  0.46780921889E+01  0.15046594885E+02  0.51100000000E-03 0.  1.
         12    1    3    3    0    0 -0.31586024924E+01  0.21542359363E+01 -0.13321745077E+01  0.40487270955E+01  0.00000000000E+00 0. -1.
</event>
<event>
 7    1  0.2455451E-009  0.4778729E+02  0.7816164E-02  0.1312668E+00
        -11   -1    0    0    0    0  0.00000000000E+00  0.00000000000E+00  0.45593999997E+02  0.45594000000E+02  0.51100000000E-03 0. -1.
         11   -1    0    0    0    0 -0.00000000000E+00 -0.00000000000E+00 -0.45593999997E+02  0.45594000000E+02  0.51100000000E-03 0.  1.
    9900012    2    1    2    0    0  0.27455347154E+02  0.87675363590E+01 -0.32449285445E+02  0.47787286791E+02  0.20000071796E+02 0.  0.
         12    1    1    2    0    0 -0.27455347154E+02 -0.87675363590E+01  0.32449285445E+02  0.43400713209E+02  0.00000000000E+00 0. -1.
         11    1    3    3    0    0  0.54078741004E+01  0.69611439799E+00 -0.11748719821E+02  0.12952300770E+02  0.51100000000E-03 0. -1.
        -11    1    3    3    0    0  0.21736804203E+02  0.52954726266E+01 -0.22323137211E+02  0.31604637990E+02  0.51100000000E-03 0.  1.
        -12    1    3    3    0    0  0.31066885043E+00  0.27759493344E+01  0.16225715876E+01  0.32303480306E+01  0.00000000000E+00 0.  1.
</event>
<event>
 7    1  0.2455451E-009  0.4778727E+02  0.7816164E-02  0.1312668E+00
        -11   -1    0    0    0    0  0.00000000000E+00  0.00000000000E+00  0.45593999997E+02  0.45594000000E+02  0.51100000000E-03 0.  1.
         11   -1    0    0    0    0 -0.00000000000E+00 -0.00000000000E+00 -0.45593999997E+02  0.45594000000E+02  0.51100000000E-03 0. -1.
    9900012    2    1    2    0    0  0.68601676632E+01  0.37273881534E+02  0.21147549970E+02  0.47787274030E+02  0.20000013612E+02 0.  0.
         12    1    1    2    0    0 -0.68601676632E+01 -0.37273881534E+02 -0.21147549970E+02  0.43400725970E+02  0.00000000000E+00 0. -1.
         11    1    3    3    0    0 -0.54015851748E+01  0.57535023132E+01  0.39042697650E+01  0.88047279303E+01  0.51100000000E-03 0. -1.
        -11    1    3    3    0    0  0.31367804176E+01  0.76348534858E+01  0.87761941155E+01  0.12047902828E+02  0.51100000000E-03 0.  1.
         12    1    3    3    0    0  0.91249724204E+01  0.23885525735E+02  0.84670860895E+01  0.26934643272E+02  0.00000000000E+00 0. -1.
</event>
<event>
 7    1  0.2455451E-009  0.4778727E+02  0.7816164E-02  0.1312668E+00
        -11   -1    0    0    0    0  0.00000000000E+00  0.00000000000E+00  0.45593999997E+02  0.45594000000E+02  0.51100000000E-03 0. -1.
         11   -1    0    0    0    0 -0.00000000000E+00 -0.00000000000E+00 -0.45593999997E+02  0.45594000000E+02  0.51100000000E-03 0.  1.
    9900012    2    1    2    0    0  0.13538086303E+02  0.72932715518E+01 -0.40585115275E+02  0.47787272212E+02  0.20000005323E+02 0.  0.
         12    1    1    2    0    0 -0.13538086303E+02 -0.72932715518E+01  0.40585115275E+02  0.43400727788E+02  0.00000000000E+00 0. -1.
         11    1    3    3    0    0  0.24036722654E+01  0.12382644046E+02 -0.17751003297E+02  0.21776263046E+02  0.51100000000E-03 0. -1.
        -11    1    3    3    0    0  0.82415450485E+01 -0.40486424796E+01 -0.14900670972E+02  0.17502701688E+02  0.51100000000E-03 0.  1.
         12    1    3    3    0    0  0.28928689891E+01 -0.10407300143E+01 -0.79334410057E+01  0.85083074781E+01  0.00000000000E+00 0. -1.
</event>
<event>
 7    1  0.2455451E-009  0.4778728E+02  0.7816164E-02  0.1312668E+00
        -11   -1    0    0    0    0  0.00000000000E+00  0.00000000000E+00  0.45593999997E+02  0.45594000000E+02  0.51100000000E-03 0.  1.
         11   -1    0    0    0    0 -0.00000000000E+00 -0.00000000000E+00 -0.45593999997E+02  0.45594000000E+02  0.51100000000E-03 0. -1.
    9900012    2    1    2    0    0  0.58732486659E+01 -0.21939014276E+02  0.36983881666E+02  0.47787275348E+02  0.20000019621E+02 0.  0.
         12    1    1    2    0    0 -0.58732486659E+01  0.21939014276E+02 -0.36983881666E+02  0.43400724652E+02  0.00000000000E+00 0. -1.
         11    1    3    3    0    0 -0.49673023454E+01 -0.16883978271E+01  0.12291430836E+02  0.13364282699E+02  0.51100000000E-03 0. -1.
        -11    1    3    3    0    0 -0.14289072620E+00 -0.59328587546E+01  0.58437338328E+01  0.83287727866E+01  0.51100000000E-03 0.  1.
         12    1    3    3    0    0  0.10983441737E+02 -0.14317757694E+02  0.18848716997E+02  0.26094219862E+02  0.00000000000E+00 0. -1.
</event>
<event>
 7    1  0.2455451E-009  0.4778728E+02  0.7816164E-02  0.1312668E+00
        -11   -1    0    0    0    0  0.00000000000E+00  0.00000000000E+00  0.45593999997E+02  0.45594000000E+02  0.51100000000E-03 0.  1.
         11   -1    0    0    0    0 -0.00000000000E+00 -0.00000000000E+00 -0.45593999997E+02  0.45594000000E+02  0.51100000000E-03 0. -1.
    9900012    2    1    2    0    0 -0.17073000289E+02  0.24028564601E+02  0.31855353613E+02  0.47787276395E+02  0.20000024397E+02 0.  0.
         12    1    1    2    0    0  0.17073000289E+02 -0.24028564601E+02 -0.31855353613E+02  0.43400723605E+02  0.00000000000E+00 0. -1.
         11    1    3    3    0    0 -0.36610493204E+01  0.17494157610E+01  0.53757210817E+00  0.40930088765E+01  0.51100000000E-03 0. -1.
        -11    1    3    3    0    0 -0.13797875231E+02  0.16034491194E+02  0.30868934472E+02  0.37421616539E+02  0.51100000000E-03 0.  1.
        -12    1    3    3    0    0  0.38592426257E+00  0.62446576458E+01  0.44884703247E+00  0.62726509793E+01  0.00000000000E+00 0.  1.
</event>
<event>
 7    1  0.2455451E-009  0.4778727E+02  0.7816164E-02  0.1312668E+00
        -11   -1    0    0    0    0  0.00000000000E+00  0.00000000000E+00  0.45593999997E+02  0.45594000000E+02  0.51100000000E-03 0. -1.
         11   -1    0    0    0    0 -0.00000000000E+00 -0.00000000000E+00 -0.45593999997E+02  0.45594000000E+02  0.51100000000E-03 0.  1.
    9900012    2    1    2    0    0  0.37327174245E+02 -0.19912329770E+02 -0.96852898488E+01  0.47787266672E+02  0.19999980062E+02 0.  0.
         12    1    1    2    0    0 -0.37327174245E+02  0.19912329770E+02  0.96852898488E+01  0.43400733328E+02  0.00000000000E+00 0. -1.
         11    1    3    3    0    0  0.11180411079E+02 -0.70072102487E+01  0.50375155139E+01  0.14123708797E+02  0.51100000000E-03 0. -1.
        -11    1    3    3    0    0  0.22968212838E+02 -0.12653870535E+02 -0.10216108464E+02  0.28142994029E+02  0.51100000000E-03 0.  1.
         12    1    3    3    0    0  0.31785503281E+01 -0.25124898635E+00 -0.45066968989E+01  0.55205638462E+01  0.00000000000E+00 0. -1.
</event>
<event>
 7    1  0.2455451E-009  0.4778728E+02  0.7816164E-02  0.1312668E+00
        -11   -1    0    0    0    0  0.00000000000E+00  0.00000000000E+00  0.45593999997E+02  0.45594000000E+02  0.51100000000E-03 0.  1.
         11   -1    0    0    0    0 -0.00000000000E+00 -0.00000000000E+00 -0.45593999997E+02  0.45594000000E+02  0.51100000000E-03 0. -1.
    9900012    2    1    2    0    0  0.13774378424E+02  0.11154268074E+02  0.39616558215E+02  0.47787275559E+02  0.20000020582E+02 0.  0.
         12    1    1    2    0    0 -0.13774378424E+02 -0.11154268074E+02 -0.39616558215E+02  0.43400724441E+02  0.00000000000E+00 0. -1.
         11    1    3    3    0    0  0.64401446929E+01  0.56490327492E+01  0.21599531932E+01  0.88347287862E+01  0.51100000000E-03 0. -1.
        -11    1    3    3    0    0  0.79698597527E+01  0.40327612711E+01  0.28969668473E+02  0.30315400701E+02  0.51100000000E-03 0.  1.
         12    1    3    3    0    0 -0.63562602206E+00  0.14724740540E+01  0.84869365486E+01  0.86371460715E+01  0.00000000000E+00 0. -1.
</event>
<event>
 7    1  0.2455451E-009  0.4778727E+02  0.7816164E-02  0.1312668E+00
        -11   -1    0    0    0    0  0.00000000000E+00  0.00000000000E+00  0.45593999997E+02  0.45594000000E+02  0.51100000000E-03 0.  1.
         11   -1    0    0    0    0 -0.00000000000E+00 -0.00000000000E+00 -0.45593999997E+02  0.45594000000E+02  0.51100000000E-03 0. -1.
    9900012    2    1    2    0    0 -0.32122463060E+02  0.26415911354E+02  0.12408473924E+02  0.47787271540E+02  0.20000002260E+02 0.  0.
         12    1    1    2    0    0  0.32122463060E+02 -0.26415911354E+02 -0.12408473924E+02  0.43400728460E+02  0.00000000000E+00 0. -1.
         11    1    3    3    0    0 -0.56903525578E+01 -0.17165984254E+01 -0.94126613201E-01  0.59443824294E+01  0.51100000000E-03 0. -1.
        -11    1    3    3    0    0 -0.20797458550E+02  0.23721759931E+02  0.58761757863E+01  0.32090272957E+02  0.51100000000E-03 0.  1.
        -12    1    3    3    0    0 -0.56346519527E+01  0.44107498492E+01  0.66264247506E+01  0.97526161535E+01  0.00000000000E+00 0.  1.
</event>
<event>
 7    1  0.2455451E-009  0.4778726E+02  0.7816164E-02  0.1312668E+00
        -11   -1    0    0    0    0  0.00000000000E+00  0.00000000000E+00  0.45593999997E+02  0.45594000000E+02  0.51100000000E-03 0.  1.
         11   -1    0    0    0    0 -0.00000000000E+00 -0.00000000000E+00 -0.45593999997E+02  0.45594000000E+02  0.51100000000E-03 0. -1.
    9900012    2    1    2    0    0 -0.40409733816E+01  0.13535797607E+02  0.41037506998E+02  0.47787259646E+02  0.19999948028E+02 0.  0.
         12    1    1    2    0    0  0.40409733816E+01 -0.13535797607E+02 -0.41037506998E+02  0.43400740354E+02  0.00000000000E+00 0. -1.
         11    1    3    3    0    0 -0.47817234327E+01  0.52053040391E+01  0.37851448815E+01  0.80179418283E+01  0.51100000000E-03 0. -1.
        -11    1    3    3    0    0 -0.31774425761E+01  0.27970503766E+01  0.27891461394E+02  0.28210871151E+02  0.51100000000E-03 0.  1.
        -12    1    3    3    0    0  0.39181926272E+01  0.55334431910E+01  0.93609007221E+01  0.11558446666E+02  0.00000000000E+00 0.  1.
</event>
<event>
 7    1  0.2455451E-009  0.4778727E+02  0.7816164E-02  0.1312668E+00
        -11   -1    0    0    0    0  0.00000000000E+00  0.00000000000E+00  0.45593999997E+02  0.45594000000E+02  0.51100000000E-03 0.  1.
         11   -1    0    0    0    0 -0.00000000000E+00 -0.00000000000E+00 -0.45593999997E+02  0.45594000000E+02  0.51100000000E-03 0. -1.
    9900012    2    1    2    0    0  0.44167300294E+01  0.12595429158E+01  0.43157030586E+02  0.47787271418E+02  0.20000001702E+02 0.  0.
         12    1    1    2    0    0 -0.44167300294E+01 -0.12595429158E+01 -0.43157030586E+02  0.43400728582E+02  0.00000000000E+00 0. -1.
         11    1    3    3    0    0  0.60836861158E+01 -0.50792674898E+01  0.88609924068E+01  0.11888119350E+02  0.51100000000E-03 0. -1.
        -11    1    3    3    0    0 -0.83749181273E+00  0.79783327763E+01  0.31821079337E+02  0.32816707282E+02  0.51100000000E-03 0.  1.
        -12    1    3    3    0    0 -0.82946427365E+00 -0.16395223706E+01  0.24749588420E+01  0.30824447853E+01  0.00000000000E+00 0.  1.
</event>
<event>
 7    1  0.2455451E-009  0.4778726E+02  0.7816164E-02  0.1312668E+00
        -11   -1    0    0    0    0  0.00000000000E+00  0.00000000000E+00  0.45593999997E+02  0.45594000000E+02  0.51100000000E-03 0. -1.
         11   -1    0    0    0    0 -0.00000000000E+00 -0.00000000000E+00 -0.45593999997E+02  0.45594000000E+02  0.51100000000E-03 0.  1.
    9900012    2    1    2    0    0 -0.17682293394E+02  0.60821605998E+01 -0.39165899359E+02  0.47787264409E+02  0.19999969747E+02 0.  0.
         12    1    1    2    0    0  0.17682293394E+02 -0.60821605998E+01  0.39165899359E+02  0.43400735591E+02  0.00000000000E+00 0. -1.
         11    1    3    3    0    0 -0.58474283914E+00  0.38423204142E+01 -0.89393191708E+01  0.97476549925E+01  0.51100000000E-03 0. -1.
        -11    1    3    3    0    0 -0.58221024580E+01  0.71938923053E+01 -0.65069684700E+01  0.11313248979E+02  0.51100000000E-03 0.  1.
        -12    1    3    3    0    0 -0.11275448096E+02 -0.49540521197E+01 -0.23719611718E+02  0.26726360438E+02  0.00000000000E+00 0.  1.
</event>
<event>
 7    1  0.2455451E-009  0.4778726E+02  0.7816164E-02  0.1312668E+00
        -11   -1    0    0    0    0  0.00000000000E+00  0.00000000000E+00  0.45593999997E+02  0.45594000000E+02  0.51100000000E-03 0.  1.
         11   -1    0    0    0    0 -0.00000000000E+00 -0.00000000000E+00 -0.45593999997E+02  0.45594000000E+02  0.51100000000E-03 0. -1.
    9900012    2    1    2    0    0 -0.10274804550E+02  0.30778008089E+02  0.28823026716E+02  0.47787259689E+02  0.19999948226E+02 0.  0.
         12    1    1    2    0    0  0.10274804550E+02 -0.30778008089E+02 -0.28823026716E+02  0.43400740311E+02  0.00000000000E+00 0. -1.
         11    1    3    3    0    0 -0.69136897162E-01 -0.75600239309E+00 -0.17512579887E+01  0.19087232206E+01  0.51100000000E-03 0. -1.
        -11    1    3    3    0    0 -0.88713186403E+01  0.16574881980E+02  0.20381385196E+02  0.27727745488E+02  0.51100000000E-03 0.  1.
         12    1    3    3    0    0 -0.13343490127E+01  0.14959128502E+02  0.10192899508E+02  0.18150790981E+02  0.00000000000E+00 0. -1.
</event>
<event>
 7    1  0.2455451E-009  0.4778726E+02  0.7816164E-02  0.1312668E+00
        -11   -1    0    0    0    0  0.00000000000E+00  0.00000000000E+00  0.45593999997E+02  0.45594000000E+02  0.51100000000E-03 0.  1.
         11   -1    0    0    0    0 -0.00000000000E+00 -0.00000000000E+00 -0.45593999997E+02  0.45594000000E+02  0.51100000000E-03 0. -1.
    9900012    2    1    2    0    0  0.25858517438E+02 -0.20825707942E+02  0.27950863809E+02  0.47787264718E+02  0.19999971155E+02 0.  0.
         12    1    1    2    0    0 -0.25858517438E+02  0.20825707942E+02 -0.27950863809E+02  0.43400735282E+02  0.00000000000E+00 0. -1.
         11    1    3    3    0    0  0.18996414775E+02 -0.59450029696E+01  0.77343287064E+01  0.21354781090E+02  0.51100000000E-03 0. -1.
        -11    1    3    3    0    0 -0.39566532055E+00 -0.19642474814E+01  0.39554624827E+01  0.44340165682E+01  0.51100000000E-03 0.  1.
         12    1    3    3    0    0  0.72577679834E+01 -0.12916457491E+02  0.16261072620E+02  0.21998467059E+02  0.00000000000E+00 0. -1.
</event>
<event>
 7    1  0.2455451E-009  0.4778727E+02  0.7816164E-02  0.1312668E+00
        -11   -1    0    0    0    0  0.00000000000E+00  0.00000000000E+00  0.45593999997E+02  0.45594000000E+02  0.51100000000E-03 0.  1.
         11   -1    0    0    0    0 -0.00000000000E+00 -0.00000000000E+00 -0.45593999997E+02  0.45594000000E+02  0.51100000000E-03 0. -1.
    9900012    2    1    2    0    0  0.34977609991E+02  0.19941381905E+02  0.16202816262E+02  0.47787272267E+02  0.20000005572E+02 0.  0.
         12    1    1    2    0    0 -0.34977609991E+02 -0.19941381905E+02 -0.16202816262E+02  0.43400727733E+02  0.00000000000E+00 0. -1.
         11    1    3    3    0    0  0.20344390203E+02  0.11951090984E+02  0.33592514892E+01  0.23832904969E+02  0.51100000000E-03 0. -1.
        -11    1    3    3    0    0  0.93517689042E+01 -0.70141918979E+00  0.92373166282E+01  0.13163418601E+02  0.51100000000E-03 0.  1.
        -12    1    3    3    0    0  0.52814508841E+01  0.86917101106E+01  0.36062481447E+01  0.10790948696E+02  0.00000000000E+00 0.  1.
</event>
<event>
 7    1  0.2455451E-009  0.4778727E+02  0.7816164E-02  0.1312668E+00
        -11   -1    0    0    0    0  0.00000000000E+00  0.00000000000E+00  0.45593999997E+02  0.45594000000E+02  0.51100000000E-03 0. -1.
         11   -1    0    0    0    0 -0.00000000000E+00 -0.00000000000E+00 -0.45593999997E+02  0.45594000000E+02  0.51100000000E-03 0.  1.
    9900012    2    1    2    0    0 -0.79727865521E+01 -0.39403695689E+02 -0.16352569736E+02  0.47787273090E+02  0.20000009327E+02 0.  0.
         12    1    1    2    0    0  0.79727865521E+01  0.39403695689E+02  0.16352569736E+02  0.43400726910E+02  0.00000000000E+00 0. -1.
         11    1    3    3    0    0 -0.19726892390E+01 -0.15174934963E+02  0.47296622539E+00  0.15309926560E+02  0.51100000000E-03 0. -1.
        -11    1    3    3    0    0 -0.20271777327E+01 -0.21984522921E+02 -0.17070903041E+02  0.27907784371E+02  0.51100000000E-03 0.  1.
         12    1    3    3    0    0 -0.39729195804E+01 -0.22442378042E+01  0.24536707905E+00  0.45695621582E+01  0.00000000000E+00 0. -1.
</event>
<event>
 7    1  0.2455451E-009  0.4778727E+02  0.7816164E-02  0.1312668E+00
        -11   -1    0    0    0    0  0.00000000000E+00  0.00000000000E+00  0.45593999997E+02  0.45594000000E+02  0.51100000000E-03 0.  1.
         11   -1    0    0    0    0 -0.00000000000E+00 -0.00000000000E+00 -0.45593999997E+02  0.45594000000E+02  0.51100000000E-03 0. -1.
    9900012    2    1    2    0    0  0.60420407142E+01  0.24772641079E+02  0.35120267263E+02  0.47787272188E+02  0.20000005212E+02 0.  0.
         12    1    1    2    0    0 -0.60420407142E+01 -0.24772641079E+02 -0.35120267263E+02  0.43400727812E+02  0.00000000000E+00 0. -1.
         11    1    3    3    0    0  0.57403077121E+01  0.42542275418E+01  0.16922034451E+02  0.18368582820E+02  0.51100000000E-03 0. -1.
        -11    1    3    3    0    0 -0.42172824038E+01  0.13034152458E+02  0.14433675638E+02  0.19899889292E+02  0.51100000000E-03 0.  1.
        -12    1    3    3    0    0  0.45190154058E+01  0.74842610800E+01  0.37645571736E+01  0.95188000748E+01  0.00000000000E+00 0.  1.
</event>
<event>
 7    1  0.2455451E-009  0.4778727E+02  0.7816164E-02  0.1312668E+00
        -11   -1    0    0    0    0  0.00000000000E+00  0.00000000000E+00  0.45593999997E+02  0.45594000000E+02  0.51100000000E-03 0.  1.
         11   -1    0    0    0    0 -0.00000000000E+00 -0.00000000000E+00 -0.45593999997E+02  0.45594000000E+02  0.51100000000E-03 0. -1.
    9900012    2    1    2    0    0 -0.44426600522E+01  0.40045772920E+02  0.16131400902E+02  0.47787271294E+02  0.20000001139E+02 0.  0.
         12    1    1    2    0    0  0.44426600522E+01 -0.40045772920E+02 -0.16131400902E+02  0.43400728706E+02  0.00000000000E+00 0. -1.
         11    1    3    3    0    0 -0.42464898942E+01  0.10994346804E+01  0.45450618680E+01  0.63165671597E+01  0.51100000000E-03 0. -1.
        -11    1    3    3    0    0  0.73939843400E+00  0.29872604201E+02  0.12314718765E+02  0.32319831224E+02  0.51100000000E-03 0.  1.
         12    1    3    3    0    0 -0.93556859203E+00  0.90737340388E+01 -0.72837973071E+00  0.91508729108E+01  0.00000000000E+00 0. -1.
</event>
<event>
 7    1  0.2455451E-009  0.4778726E+02  0.7816164E-02  0.1312668E+00
        -11   -1    0    0    0    0  0.00000000000E+00  0.00000000000E+00  0.45593999997E+02  0.45594000000E+02  0.51100000000E-03 0. -1.
         11   -1    0    0    0    0 -0.00000000000E+00 -0.00000000000E+00 -0.45593999997E+02  0.45594000000E+02  0.51100000000E-03 0.  1.
    9900012    2    1    2    0    0  0.26088619400E+01  0.17788386494E+02 -0.39501787674E+02  0.47787261710E+02  0.19999957441E+02 0.  0.
         12    1    1    2    0    0 -0.26088619400E+01 -0.17788386494E+02  0.39501787674E+02  0.43400738290E+02  0.00000000000E+00 0. -1.
         11    1    3    3    0    0 -0.19956917960E+01  0.21353718469E+01 -0.28884951309E+01  0.41092582118E+01  0.51100000000E-03 0. -1.
        -11    1    3    3    0    0 -0.53905728457E+01  0.30273731823E+00 -0.67386368331E+01  0.86347641611E+01  0.51100000000E-03 0.  1.
        -12    1    3    3    0    0  0.99951265817E+01  0.15350277329E+02 -0.29874655710E+02  0.35043239337E+02  0.00000000000E+00 0.  1.
</event>
<event>
 7    1  0.2455451E-009  0.4778727E+02  0.7816164E-02  0.1312668E+00
        -11   -1    0    0    0    0  0.00000000000E+00  0.00000000000E+00  0.45593999997E+02  0.45594000000E+02  0.51100000000E-03 0.  1.
         11   -1    0    0    0    0 -0.00000000000E+00 -0.00000000000E+00 -0.45593999997E+02  0.45594000000E+02  0.51100000000E-03 0. -1.
    9900012    2    1    2    0    0 -0.14493346121E+02  0.70331996106E+01  0.40300131327E+02  0.47787267708E+02  0.19999984788E+02 0.  0.
         12    1    1    2    0    0  0.14493346121E+02 -0.70331996106E+01 -0.40300131327E+02  0.43400732292E+02  0.00000000000E+00 0. -1.
         11    1    3    3    0    0 -0.27561547870E+01 -0.19912358811E+01  0.36997505123E+01  0.50248943927E+01  0.51100000000E-03 0. -1.
        -11    1    3    3    0    0  0.34343457122E+01  0.55448526656E+01  0.11777992601E+02  0.13463329140E+02  0.51100000000E-03 0.  1.
        -12    1    3    3    0    0 -0.15171537046E+02  0.34795828262E+01  0.24822388213E+02  0.29299044175E+02  0.00000000000E+00 0.  1.
</event>
<event>
 7    1  0.2455451E-009  0.4778727E+02  0.7816164E-02  0.1312668E+00
        -11   -1    0    0    0    0  0.00000000000E+00  0.00000000000E+00  0.45593999997E+02  0.45594000000E+02  0.51100000000E-03 0. -1.
         11   -1    0    0    0    0 -0.00000000000E+00 -0.00000000000E+00 -0.45593999997E+02  0.45594000000E+02  0.51100000000E-03 0.  1.
    9900012    2    1    2    0    0 -0.16943305921E+02  0.39497574703E+02 -0.60406086157E+01  0.47787274483E+02  0.20000015676E+02 0.  0.
         12    1    1    2    0    0  0.16943305921E+02 -0.39497574703E+02  0.60406086157E+01  0.43400725517E+02  0.00000000000E+00 0. -1.
         11    1    3    3    0    0 -0.94618188759E+01  0.24681519325E+02 -0.85787319685E+01  0.27790251079E+02  0.51100000000E-03 0.  1.
        -11    1    3    3    0    0  0.21283416468E+01  0.33233749299E+01  0.30801831228E+01  0.50062148797E+01  0.51100000000E-03 0. -1.
         12    1    3    3    0    0 -0.96098286920E+01  0.11492680449E+02 -0.54205976999E+00  0.14990808523E+02  0.00000000000E+00 0. -1.
</event>
<event>
 7    1  0.2455451E-009  0.4778727E+02  0.7816164E-02  0.1312668E+00
        -11   -1    0    0    0    0  0.00000000000E+00  0.00000000000E+00  0.45593999997E+02  0.45594000000E+02  0.51100000000E-03 0.  1.
         11   -1    0    0    0    0 -0.00000000000E+00 -0.00000000000E+00 -0.45593999997E+02  0.45594000000E+02  0.51100000000E-03 0. -1.
    9900012    2    1    2    0    0  0.15936732884E+02  0.10031718316E+02  0.39102536033E+02  0.47787272453E+02  0.20000006422E+02 0.  0.
         12    1    1    2    0    0 -0.15936732884E+02 -0.10031718316E+02 -0.39102536033E+02  0.43400727547E+02  0.00000000000E+00 0. -1.
         11    1    3    3    0    0  0.13585692705E+01  0.24259895000E+01  0.13825700874E+01  0.31052593812E+01  0.51100000000E-03 0. -1.
        -11    1    3    3    0    0 -0.86391036320E+00 -0.30967609836E+01  0.88899268246E+00  0.33356525532E+01  0.51100000000E-03 0.  1.
        -12    1    3    3    0    0  0.15442073977E+02  0.10702489800E+02  0.36830973263E+02  0.41346360519E+02  0.00000000000E+00 0.  1.
</event>
<event>
 7    1  0.2455451E-009  0.4778727E+02  0.7816164E-02  0.1312668E+00
        -11   -1    0    0    0    0  0.00000000000E+00  0.00000000000E+00  0.45593999997E+02  0.45594000000E+02  0.51100000000E-03 0.  1.
         11   -1    0    0    0    0 -0.00000000000E+00 -0.00000000000E+00 -0.45593999997E+02  0.45594000000E+02  0.51100000000E-03 0. -1.
    9900012    2    1    2    0    0 -0.21429013102E+00 -0.41498148947E+02  0.12707523284E+02  0.47787269196E+02  0.19999991571E+02 0.  0.
         12    1    1    2    0    0  0.21429013102E+00  0.41498148947E+02 -0.12707523284E+02  0.43400730804E+02  0.00000000000E+00 0. -1.
         11    1    3    3    0    0 -0.50099012472E+01 -0.19225547593E+02  0.78697356682E+01  0.21369453211E+02  0.51100000000E-03 0. -1.
        -11    1    3    3    0    0  0.81427778277E+01 -0.20725917385E+02  0.44695741866E+01  0.22712234057E+02  0.51100000000E-03 0.  1.
         12    1    3    3    0    0 -0.33471667116E+01 -0.15466839691E+01  0.36821342969E+00  0.37055819280E+01  0.00000000000E+00 0. -1.
</event>
<event>
 7    1  0.2455451E-009  0.4778727E+02  0.7816164E-02  0.1312668E+00
        -11   -1    0    0    0    0  0.00000000000E+00  0.00000000000E+00  0.45593999997E+02  0.45594000000E+02  0.51100000000E-03 0.  1.
         11   -1    0    0    0    0 -0.00000000000E+00 -0.00000000000E+00 -0.45593999997E+02  0.45594000000E+02  0.51100000000E-03 0. -1.
    9900012    2    1    2    0    0  0.35235295167E+01 -0.74481939323E+00  0.43251047546E+02  0.47787272702E+02  0.20000007557E+02 0.  0.
         12    1    1    2    0    0 -0.35235295167E+01  0.74481939323E+00 -0.43251047546E+02  0.43400727298E+02  0.00000000000E+00 0. -1.
         11    1    3    3    0    0  0.69287924362E+01  0.39444169961E+01  0.95908299187E+01  0.12471992978E+02  0.51100000000E-03 0. -1.
        -11    1    3    3    0    0 -0.50266654647E+01 -0.19223590911E+01  0.93001769758E+01  0.10745051057E+02  0.51100000000E-03 0.  1.
         12    1    3    3    0    0  0.16214025451E+01 -0.27668772982E+01  0.24360040651E+02  0.24570228667E+02  0.00000000000E+00 0. -1.
</event>
<event>
 7    1  0.2455451E-009  0.4778728E+02  0.7816164E-02  0.1312668E+00
        -11   -1    0    0    0    0  0.00000000000E+00  0.00000000000E+00  0.45593999997E+02  0.45594000000E+02  0.51100000000E-03 0.  1.
         11   -1    0    0    0    0 -0.00000000000E+00 -0.00000000000E+00 -0.45593999997E+02  0.45594000000E+02  0.51100000000E-03 0. -1.
    9900012    2    1    2    0    0 -0.19266418531E+02 -0.82331477181E+00  0.38881230970E+02  0.47787275905E+02  0.20000022162E+02 0.  0.
         12    1    1    2    0    0  0.19266418531E+02  0.82331477181E+00 -0.38881230970E+02  0.43400724095E+02  0.00000000000E+00 0. -1.
         11    1    3    3    0    0 -0.86969810199E+01  0.32303812145E+01  0.11048462234E+02  0.14427105034E+02  0.51100000000E-03 0. -1.
        -11    1    3    3    0    0 -0.88401339056E+01 -0.30839936930E+01  0.29386067919E+02  0.30841529997E+02  0.51100000000E-03 0.  1.
        -12    1    3    3    0    0 -0.17293036058E+01 -0.96970229328E+00 -0.15532991838E+01  0.25186408741E+01  0.00000000000E+00 0.  1.
</event>
<event>
 7    1  0.2455451E-009  0.4778727E+02  0.7816164E-02  0.1312668E+00
        -11   -1    0    0    0    0  0.00000000000E+00  0.00000000000E+00  0.45593999997E+02  0.45594000000E+02  0.51100000000E-03 0. -1.
         11   -1    0    0    0    0 -0.00000000000E+00 -0.00000000000E+00 -0.45593999997E+02  0.45594000000E+02  0.51100000000E-03 0.  1.
    9900012    2    1    2    0    0 -0.20869191330E+02  0.14488516839E+02 -0.35187825234E+02  0.47787270609E+02  0.19999998017E+02 0.  0.
         12    1    1    2    0    0  0.20869191330E+02 -0.14488516839E+02  0.35187825234E+02  0.43400729391E+02  0.00000000000E+00 0. -1.
         11    1    3    3    0    0 -0.16033706900E+02  0.29860920199E+01 -0.24878597160E+02  0.29747959584E+02  0.51100000000E-03 0.  1.
        -11    1    3    3    0    0 -0.17690052090E+01 -0.88212707197E+00 -0.82595626131E+00  0.21423658902E+01  0.51100000000E-03 0. -1.
         12    1    3    3    0    0 -0.30664792203E+01  0.12384551891E+02 -0.94832718125E+01  0.15896945135E+02  0.00000000000E+00 0. -1.
</event>
<event>
 7    1  0.2455451E-009  0.4778727E+02  0.7816164E-02  0.1312668E+00
        -11   -1    0    0    0    0  0.00000000000E+00  0.00000000000E+00  0.45593999997E+02  0.45594000000E+02  0.51100000000E-03 0.  1.
         11   -1    0    0    0    0 -0.00000000000E+00 -0.00000000000E+00 -0.45593999997E+02  0.45594000000E+02  0.51100000000E-03 0. -1.
    9900012    2    1    2    0    0  0.10541247927E+02  0.41975263794E+02 -0.32530785846E+01  0.47787271911E+02  0.20000003950E+02 0.  0.
         12    1    1    2    0    0 -0.10541247927E+02 -0.41975263794E+02  0.32530785846E+01  0.43400728089E+02  0.00000000000E+00 0. -1.
         11    1    3    3    0    0  0.63253754309E+01  0.65769466299E+01  0.27814634809E+01  0.95395566286E+01  0.51100000000E-03 0.  1.
        -11    1    3    3    0    0  0.23476203277E+01  0.34175333576E+02 -0.28716426855E+01  0.34376024759E+02  0.51100000000E-03 0. -1.
         12    1    3    3    0    0  0.18682521680E+01  0.12229835874E+01 -0.31628993800E+01  0.38716905230E+01  0.00000000000E+00 0. -1.
</event>
<event>
 7    1  0.2455451E-009  0.4778727E+02  0.7816164E-02  0.1312668E+00
        -11   -1    0    0    0    0  0.00000000000E+00  0.00000000000E+00  0.45593999997E+02  0.45594000000E+02  0.51100000000E-03 0.  1.
         11   -1    0    0    0    0 -0.00000000000E+00 -0.00000000000E+00 -0.45593999997E+02  0.45594000000E+02  0.51100000000E-03 0. -1.
    9900012    2    1    2    0    0  0.42998463699E+01 -0.41528435256E+02  0.11854254555E+02  0.47787274606E+02  0.20000016239E+02 0.  0.
         12    1    1    2    0    0 -0.42998463699E+01  0.41528435256E+02 -0.11854254555E+02  0.43400725394E+02  0.00000000000E+00 0. -1.
         11    1    3    3    0    0  0.13845438131E+01  0.81661095441E+00 -0.79204003916E+00  0.17919661565E+01  0.51100000000E-03 0. -1.
        -11    1    3    3    0    0  0.18361526556E+01 -0.39306437586E+02  0.14884209115E+02  0.42070264719E+02  0.51100000000E-03 0.  1.
         12    1    3    3    0    0  0.10791499011E+01 -0.30386086245E+01 -0.22379145210E+01  0.39250437304E+01  0.00000000000E+00 0. -1.
</event>
<event>
 7    1  0.2455451E-009  0.4778727E+02  0.7816164E-02  0.1312668E+00
        -11   -1    0    0    0    0  0.00000000000E+00  0.00000000000E+00  0.45593999997E+02  0.45594000000E+02  0.51100000000E-03 0.  1.
         11   -1    0    0    0    0 -0.00000000000E+00 -0.00000000000E+00 -0.45593999997E+02  0.45594000000E+02  0.51100000000E-03 0. -1.
    9900012    2    1    2    0    0 -0.24118360963E+02  0.34039097744E+02 -0.11969451730E+02  0.47787270910E+02  0.19999999389E+02 0.  0.
         12    1    1    2    0    0  0.24118360963E+02 -0.34039097744E+02  0.11969451730E+02  0.43400729090E+02  0.00000000000E+00 0. -1.
         11    1    3    3    0    0 -0.17997496022E+02  0.28477710734E+02 -0.10777126437E+02  0.35369991889E+02  0.51100000000E-03 0. -1.
        -11    1    3    3    0    0 -0.79048643563E+01  0.65979743187E+01 -0.99662436338E+00  0.10344728415E+02  0.51100000000E-03 0.  1.
         12    1    3    3    0    0  0.17839994153E+01 -0.10365873084E+01 -0.19570092918E+00  0.20725506063E+01  0.00000000000E+00 0. -1.
</event>
<event>
 7    1  0.2455451E-009  0.4778727E+02  0.7816164E-02  0.1312668E+00
        -11   -1    0    0    0    0  0.00000000000E+00  0.00000000000E+00  0.45593999997E+02  0.45594000000E+02  0.51100000000E-03 0.  1.
         11   -1    0    0    0    0 -0.00000000000E+00 -0.00000000000E+00 -0.45593999997E+02  0.45594000000E+02  0.51100000000E-03 0. -1.
    9900012    2    1    2    0    0  0.11043396633E+00 -0.15986682795E+02  0.40348943121E+02  0.47787269207E+02  0.19999991620E+02 0.  0.
         12    1    1    2    0    0 -0.11043396633E+00  0.15986682795E+02 -0.40348943121E+02  0.43400730793E+02  0.00000000000E+00 0. -1.
         11    1    3    3    0    0  0.41643646263E+01 -0.25654640498E+01  0.46149631537E+01  0.67246876286E+01  0.51100000000E-03 0. -1.
        -11    1    3    3    0    0 -0.78883282149E+01 -0.43121700478E+01  0.24514047662E+02  0.26110516379E+02  0.51100000000E-03 0.  1.
         12    1    3    3    0    0  0.38343975550E+01 -0.91090486978E+01  0.11219932305E+02  0.14952065199E+02  0.00000000000E+00 0. -1.
</event>
<event>
 7    1  0.2455451E-009  0.4778729E+02  0.7816164E-02  0.1312668E+00
        -11   -1    0    0    0    0  0.00000000000E+00  0.00000000000E+00  0.45593999997E+02  0.45594000000E+02  0.51100000000E-03 0.  1.
         11   -1    0    0    0    0 -0.00000000000E+00 -0.00000000000E+00 -0.45593999997E+02  0.45594000000E+02  0.51100000000E-03 0. -1.
    9900012    2    1    2    0    0 -0.27074684911E+02  0.15417974300E+02  0.30213727752E+02  0.47787287573E+02  0.20000075359E+02 0.  0.
         12    1    1    2    0    0  0.27074684911E+02 -0.15417974300E+02 -0.30213727752E+02  0.43400712427E+02  0.00000000000E+00 0. -1.
         11    1    3    3    0    0 -0.25123696774E+02  0.11422251802E+02  0.22760451690E+02  0.35772980547E+02  0.51100000000E-03 0. -1.
        -11    1    3    3    0    0 -0.42537642004E+01  0.48655431412E+01  0.34796978496E+01  0.73400488634E+01  0.51100000000E-03 0.  1.
         12    1    3    3    0    0  0.23027760641E+01 -0.86982064381E+00  0.39735782125E+01  0.46742581620E+01  0.00000000000E+00 0. -1.
</event>
<event>
 7    1  0.2455451E-009  0.4778727E+02  0.7816164E-02  0.1312668E+00
        -11   -1    0    0    0    0  0.00000000000E+00  0.00000000000E+00  0.45593999997E+02  0.45594000000E+02  0.51100000000E-03 0. -1.
         11   -1    0    0    0    0 -0.00000000000E+00 -0.00000000000E+00 -0.45593999997E+02  0.45594000000E+02  0.51100000000E-03 0.  1.
    9900012    2    1    2    0    0 -0.38608194491E+02  0.24598077248E+01 -0.19671809496E+02  0.47787269306E+02  0.19999992076E+02 0.  0.
         12    1    1    2    0    0  0.38608194491E+02 -0.24598077248E+01  0.19671809496E+02  0.43400730694E+02  0.00000000000E+00 0. -1.
         11    1    3    3    0    0 -0.72864198959E+01 -0.94218582976E+00  0.20793411939E+01  0.76356590481E+01  0.51100000000E-03 0. -1.
        -11    1    3    3    0    0 -0.13718877781E+02 -0.31189246069E+01 -0.13983228156E+02  0.19835976613E+02  0.51100000000E-03 0.  1.
        -12    1    3    3    0    0 -0.17602896814E+02  0.65209181615E+01 -0.77679225340E+01  0.20315633645E+02  0.00000000000E+00 0.  1.
</event>
<event>
 7    1  0.2455451E-009  0.4778727E+02  0.7816164E-02  0.1312668E+00
        -11   -1    0    0    0    0  0.00000000000E+00  0.00000000000E+00  0.45593999997E+02  0.45594000000E+02  0.51100000000E-03 0.  1.
         11   -1    0    0    0    0 -0.00000000000E+00 -0.00000000000E+00 -0.45593999997E+02  0.45594000000E+02  0.51100000000E-03 0. -1.
    9900012    2    1    2    0    0 -0.38423913561E+02  0.22553390861E+01  0.20053430509E+02  0.47787265410E+02  0.19999974311E+02 0.  0.
         12    1    1    2    0    0  0.38423913561E+02 -0.22553390861E+01 -0.20053430509E+02  0.43400734590E+02  0.00000000000E+00 0. -1.
         11    1    3    3    0    0 -0.93087418984E+01 -0.59661584266E+01  0.12577460368E+01  0.11127877042E+02  0.51100000000E-03 0. -1.
        -11    1    3    3    0    0 -0.37719961853E+01  0.29892223947E+01  0.24426883903E+00  0.48190324002E+01  0.51100000000E-03 0.  1.
         12    1    3    3    0    0 -0.25343175478E+02  0.52322751180E+01  0.18551415633E+02  0.31840355968E+02  0.00000000000E+00 0. -1.
</event>
<event>
 7    1  0.2455451E-009  0.4778727E+02  0.7816164E-02  0.1312668E+00
        -11   -1    0    0    0    0  0.00000000000E+00  0.00000000000E+00  0.45593999997E+02  0.45594000000E+02  0.51100000000E-03 0.  1.
         11   -1    0    0    0    0 -0.00000000000E+00 -0.00000000000E+00 -0.45593999997E+02  0.45594000000E+02  0.51100000000E-03 0. -1.
    9900012    2    1    2    0    0  0.24936021927E+02  0.18850233950E+02  0.30107923866E+02  0.47787267414E+02  0.19999983445E+02 0.  0.
         12    1    1    2    0    0 -0.24936021927E+02 -0.18850233950E+02 -0.30107923866E+02  0.43400732586E+02  0.00000000000E+00 0. -1.
         11    1    3    3    0    0  0.26530718834E+02  0.11404950648E+02  0.22426024664E+02  0.36563349458E+02  0.51100000000E-03 0. -1.
        -11    1    3    3    0    0 -0.74656903654E+00  0.72810911781E+01  0.68839780992E+01  0.10047925597E+02  0.51100000000E-03 0.  1.
         12    1    3    3    0    0 -0.84812787103E+00  0.16419212445E+00  0.79792110343E+00  0.11759923582E+01  0.00000000000E+00 0. -1.
</event>
<event>
 7    1  0.2455451E-009  0.4778728E+02  0.7816164E-02  0.1312668E+00
        -11   -1    0    0    0    0  0.00000000000E+00  0.00000000000E+00  0.45593999997E+02  0.45594000000E+02  0.51100000000E-03 0.  1.
         11   -1    0    0    0    0 -0.00000000000E+00 -0.00000000000E+00 -0.45593999997E+02  0.45594000000E+02  0.51100000000E-03 0. -1.
    9900012    2    1    2    0    0 -0.19175348259E+02 -0.16556774730E+02  0.35239212727E+02  0.47787275537E+02  0.20000020482E+02 0.  0.
         12    1    1    2    0    0  0.19175348259E+02  0.16556774730E+02 -0.35239212727E+02  0.43400724463E+02  0.00000000000E+00 0. -1.
         11    1    3    3    0    0 -0.46128849071E+01 -0.11946206939E+02  0.14580405593E+02  0.19405638225E+02  0.51100000000E-03 0. -1.
        -11    1    3    3    0    0 -0.13317224243E+02  0.19257012326E-01  0.19207236348E+02  0.23372350347E+02  0.51100000000E-03 0.  1.
        -12    1    3    3    0    0 -0.12452391093E+01 -0.46298248030E+01  0.14515707862E+01  0.50092869646E+01  0.00000000000E+00 0.  1.
</event>
<event>
 7    1  0.2455451E-009  0.4778727E+02  0.7816164E-02  0.1312668E+00
        -11   -1    0    0    0    0  0.00000000000E+00  0.00000000000E+00  0.45593999997E+02  0.45594000000E+02  0.51100000000E-03 0. -1.
         11   -1    0    0    0    0 -0.00000000000E+00 -0.00000000000E+00 -0.45593999997E+02  0.45594000000E+02  0.51100000000E-03 0.  1.
    9900012    2    1    2    0    0 -0.30776192914E+02  0.30544828151E+02 -0.18608285788E+01  0.47787271203E+02  0.20000000725E+02 0.  0.
         12    1    1    2    0    0  0.30776192914E+02 -0.30544828151E+02  0.18608285788E+01  0.43400728797E+02  0.00000000000E+00 0. -1.
         11    1    3    3    0    0 -0.14784474281E+01  0.44269723856E+01  0.22382587178E+01  0.51762625174E+01  0.51100000000E-03 0. -1.
        -11    1    3    3    0    0 -0.48105729264E+01  0.81478662066E+01  0.52633819059E+01  0.10827396961E+02  0.51100000000E-03 0.  1.
        -12    1    3    3    0    0 -0.24487172560E+02  0.17969989559E+02 -0.93624692026E+01  0.31783611725E+02  0.00000000000E+00 0.  1.
</event>
<event>
 7    1  0.2455451E-009  0.4778727E+02  0.7816164E-02  0.1312668E+00
        -11   -1    0    0    0    0  0.00000000000E+00  0.00000000000E+00  0.45593999997E+02  0.45594000000E+02  0.51100000000E-03 0. -1.
         11   -1    0    0    0    0 -0.00000000000E+00 -0.00000000000E+00 -0.45593999997E+02  0.45594000000E+02  0.51100000000E-03 0.  1.
    9900012    2    1    2    0    0 -0.27994166908E+01  0.43168136381E+02 -0.35069493026E+01  0.47787269294E+02  0.19999992020E+02 0.  0.
         12    1    1    2    0    0  0.27994166908E+01 -0.43168136381E+02  0.35069493026E+01  0.43400730706E+02  0.00000000000E+00 0. -1.
         11    1    3    3    0    0 -0.28181479639E+00  0.15990973948E+01 -0.41826734207E+01  0.44867905303E+01  0.51100000000E-03 0. -1.
        -11    1    3    3    0    0 -0.27840283961E+00  0.24895322506E+02  0.60833922447E+01  0.25629324070E+02  0.51100000000E-03 0.  1.
         12    1    3    3    0    0 -0.22391990548E+01  0.16673716480E+02 -0.54076681266E+01  0.17671154694E+02  0.00000000000E+00 0. -1.
</event>
<event>
 7    1  0.2455451E-009  0.4778727E+02  0.7816164E-02  0.1312668E+00
        -11   -1    0    0    0    0  0.00000000000E+00  0.00000000000E+00  0.45593999997E+02  0.45594000000E+02  0.51100000000E-03 0.  1.
         11   -1    0    0    0    0 -0.00000000000E+00 -0.00000000000E+00 -0.45593999997E+02  0.45594000000E+02  0.51100000000E-03 0. -1.
    9900012    2    1    2    0    0  0.40248425664E+02  0.69404904887E+00  0.16223618420E+02  0.47787271122E+02  0.20000000353E+02 0.  0.
         12    1    1    2    0    0 -0.40248425664E+02 -0.69404904887E+00 -0.16223618420E+02  0.43400728878E+02  0.00000000000E+00 0. -1.
         11    1    3    3    0    0  0.14050281554E+01 -0.48513412035E+01  0.25239199766E+01  0.56462189030E+01  0.51100000000E-03 0. -1.
        -11    1    3    3    0    0  0.32258079220E+02  0.30073929033E+01  0.88734321593E+01  0.33591157848E+02  0.51100000000E-03 0.  1.
        -12    1    3    3    0    0  0.65853182888E+01  0.25379973491E+01  0.48262662840E+01  0.85498943708E+01  0.00000000000E+00 0.  1.
</event>
<event>
 7    1  0.2455451E-009  0.4778727E+02  0.7816164E-02  0.1312668E+00
        -11   -1    0    0    0    0  0.00000000000E+00  0.00000000000E+00  0.45593999997E+02  0.45594000000E+02  0.51100000000E-03 0.  1.
         11   -1    0    0    0    0 -0.00000000000E+00 -0.00000000000E+00 -0.45593999997E+02  0.45594000000E+02  0.51100000000E-03 0. -1.
    9900012    2    1    2    0    0  0.32867650477E+02 -0.22745762606E+02  0.16910672003E+02  0.47787274292E+02  0.20000014805E+02 0.  0.
         12    1    1    2    0    0 -0.32867650477E+02  0.22745762606E+02 -0.16910672003E+02  0.43400725708E+02  0.00000000000E+00 0. -1.
         11    1    3    3    0    0  0.15259434617E+02 -0.29111841991E+01  0.11818080708E+02  0.19519025850E+02  0.51100000000E-03 0. -1.
        -11    1    3    3    0    0  0.18199742945E+02 -0.19574837680E+02  0.57572219725E+01  0.27341370093E+02  0.51100000000E-03 0.  1.
        -12    1    3    3    0    0 -0.59152708385E+00 -0.25974072730E+00 -0.66463067738E+00  0.92687834890E+00  0.00000000000E+00 0.  1.
</event>
<event>
 7    1  0.2455451E-009  0.4778727E+02  0.7816164E-02  0.1312668E+00
        -11   -1    0    0    0    0  0.00000000000E+00  0.00000000000E+00  0.45593999997E+02  0.45594000000E+02  0.51100000000E-03 0.  1.
         11   -1    0    0    0    0 -0.00000000000E+00 -0.00000000000E+00 -0.45593999997E+02  0.45594000000E+02  0.51100000000E-03 0. -1.
    9900012    2    1    2    0    0  0.29848192678E+02 -0.31483978043E+02 -0.12114762411E+01  0.47787272422E+02  0.20000006282E+02 0.  0.
         12    1    1    2    0    0 -0.29848192678E+02  0.31483978043E+02  0.12114762411E+01  0.43400727578E+02  0.00000000000E+00 0. -1.
         11    1    3    3    0    0  0.10179988224E+02 -0.24528990827E+02  0.41931887048E+00  0.26560861805E+02  0.51100000000E-03 0. -1.
        -11    1    3    3    0    0  0.78564830598E+01 -0.24663781227E+01 -0.23705230168E+01  0.85689396513E+01  0.51100000000E-03 0.  1.
         12    1    3    3    0    0  0.11811721394E+02 -0.44886090935E+01  0.73972790518E+00  0.12657470966E+02  0.00000000000E+00 0. -1.
</event>
<event>
 7    1  0.2455451E-009  0.4778727E+02  0.7816164E-02  0.1312668E+00
        -11   -1    0    0    0    0  0.00000000000E+00  0.00000000000E+00  0.45593999997E+02  0.45594000000E+02  0.51100000000E-03 0. -1.
         11   -1    0    0    0    0 -0.00000000000E+00 -0.00000000000E+00 -0.45593999997E+02  0.45594000000E+02  0.51100000000E-03 0.  1.
    9900012    2    1    2    0    0 -0.94334717229E+01  0.16353167564E+02 -0.39079490209E+02  0.47787273818E+02  0.20000012646E+02 0.  0.
         12    1    1    2    0    0  0.94334717229E+01 -0.16353167564E+02  0.39079490209E+02  0.43400726182E+02  0.00000000000E+00 0. -1.
         11    1    3    3    0    0 -0.62147892552E+01 -0.33685269614E+01 -0.67211846274E+01  0.97542248505E+01  0.51100000000E-03 0. -1.
        -11    1    3    3    0    0 -0.20939460149E+01  0.11661057841E+02 -0.19154747355E+02  0.22522638086E+02  0.51100000000E-03 0.  1.
         12    1    3    3    0    0 -0.11247364527E+01  0.80606366854E+01 -0.13203558226E+02  0.15510410881E+02  0.00000000000E+00 0. -1.
</event>
<event>
 7    1  0.2455451E-009  0.4778725E+02  0.7816164E-02  0.1312668E+00
        -11   -1    0    0    0    0  0.00000000000E+00  0.00000000000E+00  0.45593999997E+02  0.45594000000E+02  0.51100000000E-03 0.  1.
         11   -1    0    0    0    0 -0.00000000000E+00 -0.00000000000E+00 -0.45593999997E+02  0.45594000000E+02  0.51100000000E-03 0. -1.
    9900012    2    1    2    0    0 -0.15694849593E+02  0.31275774990E+02  0.25673384540E+02  0.47787250251E+02  0.19999905196E+02 0.  0.
         12    1    1    2    0    0  0.15694849593E+02 -0.31275774990E+02 -0.25673384540E+02  0.43400749749E+02  0.00000000000E+00 0. -1.
         11    1    3    3    0    0  0.10037219483E+01  0.15585822024E+02  0.46030452026E+01  0.16282301168E+02  0.51100000000E-03 0. -1.
        -11    1    3    3    0    0 -0.15939518505E+02  0.15152464895E+02  0.18390768483E+02  0.28668550857E+02  0.51100000000E-03 0.  1.
         12    1    3    3    0    0 -0.75905303600E+00  0.53748807155E+00  0.26795708543E+01  0.28363982269E+01  0.00000000000E+00 0. -1.
</event>
<event>
 7    1  0.2455451E-009  0.4778726E+02  0.7816164E-02  0.1312668E+00
        -11   -1    0    0    0    0  0.00000000000E+00  0.00000000000E+00  0.45593999997E+02  0.45594000000E+02  0.51100000000E-03 0.  1.
         11   -1    0    0    0    0 -0.00000000000E+00 -0.00000000000E+00 -0.45593999997E+02  0.45594000000E+02  0.51100000000E-03 0. -1.
    9900012    2    1    2    0    0 -0.10389233609E+02  0.41883697962E+02  0.46307313767E+01  0.47787262644E+02  0.19999961701E+02 0.  0.
         12    1    1    2    0    0  0.10389233609E+02 -0.41883697962E+02 -0.46307313767E+01  0.43400737356E+02  0.00000000000E+00 0. -1.
         11    1    3    3    0    0 -0.11211293736E+02  0.18435658687E+02  0.82317973843E+00  0.21592689587E+02  0.51100000000E-03 0. -1.
        -11    1    3    3    0    0  0.53753244000E+01  0.15477246914E+02  0.44941013572E+01  0.16989297564E+02  0.51100000000E-03 0.  1.
        -12    1    3    3    0    0 -0.45532642734E+01  0.79707923603E+01 -0.68654971892E+00  0.92052754935E+01  0.00000000000E+00 0.  1.
</event>
<event>
 7    1  0.2455451E-009  0.4778727E+02  0.7816164E-02  0.1312668E+00
        -11   -1    0    0    0    0  0.00000000000E+00  0.00000000000E+00  0.45593999997E+02  0.45594000000E+02  0.51100000000E-03 0. -1.
         11   -1    0    0    0    0 -0.00000000000E+00 -0.00000000000E+00 -0.45593999997E+02  0.45594000000E+02  0.51100000000E-03 0.  1.
    9900012    2    1    2    0    0  0.16656336783E+02 -0.10124110285E+02 -0.38777469735E+02  0.47787270476E+02  0.19999997410E+02 0.  0.
         12    1    1    2    0    0 -0.16656336783E+02  0.10124110285E+02  0.38777469735E+02  0.43400729524E+02  0.00000000000E+00 0. -1.
         11    1    3    3    0    0  0.63612731205E+01 -0.17696872274E+01 -0.14682130840E+02  0.16098526481E+02  0.51100000000E-03 0.  1.
        -11    1    3    3    0    0  0.26482429160E+01  0.34222087517E+01 -0.67193875970E+00  0.43790644252E+01  0.51100000000E-03 0. -1.
        -12    1    3    3    0    0  0.76468207470E+01 -0.11776631810E+02 -0.23423400135E+02  0.27309679570E+02  0.00000000000E+00 0.  1.
</event>
<event>
 7    1  0.2455451E-009  0.4778727E+02  0.7816164E-02  0.1312668E+00
        -11   -1    0    0    0    0  0.00000000000E+00  0.00000000000E+00  0.45593999997E+02  0.45594000000E+02  0.51100000000E-03 0.  1.
         11   -1    0    0    0    0 -0.00000000000E+00 -0.00000000000E+00 -0.45593999997E+02  0.45594000000E+02  0.51100000000E-03 0. -1.
    9900012    2    1    2    0    0 -0.14632362672E+02 -0.40859578554E+02 -0.10968918467E+00  0.47787271565E+02  0.20000002373E+02 0.  0.
         12    1    1    2    0    0  0.14632362672E+02  0.40859578554E+02  0.10968918467E+00  0.43400728435E+02  0.00000000000E+00 0. -1.
         11    1    3    3    0    0 -0.12420893485E+02 -0.28462740087E+02 -0.21446533270E+01  0.31128856490E+02  0.51100000000E-03 0.  1.
        -11    1    3    3    0    0 -0.83973564024E+00 -0.17732675291E+01  0.51432543372E+01  0.55047887438E+01  0.51100000000E-03 0. -1.
         12    1    3    3    0    0 -0.13717335468E+01 -0.10623570938E+02 -0.31082901949E+01  0.11153626331E+02  0.00000000000E+00 0. -1.
</event>
<event>
 7    1  0.2455451E-009  0.4778728E+02  0.7816164E-02  0.1312668E+00
        -11   -1    0    0    0    0  0.00000000000E+00  0.00000000000E+00  0.45593999997E+02  0.45594000000E+02  0.51100000000E-03 0.  1.
         11   -1    0    0    0    0 -0.00000000000E+00 -0.00000000000E+00 -0.45593999997E+02  0.45594000000E+02  0.51100000000E-03 0. -1.
    9900012    2    1    2    0    0  0.32449793940E+02  0.48129837311E+01  0.28415992205E+02  0.47787279359E+02  0.20000037911E+02 0.  0.
         12    1    1    2    0    0 -0.32449793940E+02 -0.48129837311E+01 -0.28415992205E+02  0.43400720641E+02  0.00000000000E+00 0. -1.
         11    1    3    3    0    0  0.15751129269E+02  0.26011099667E+01  0.20240246643E+02  0.25778507147E+02  0.51100000000E-03 0. -1.
        -11    1    3    3    0    0  0.12313954977E+01  0.33263276417E+01 -0.13661159336E+01  0.38009292886E+01  0.51100000000E-03 0.  1.
         12    1    3    3    0    0  0.15467269173E+02 -0.11144538773E+01  0.95418614956E+01  0.18207842923E+02  0.00000000000E+00 0. -1.
</event>
<event>
 7    1  0.2455451E-009  0.4778727E+02  0.7816164E-02  0.1312668E+00
        -11   -1    0    0    0    0  0.00000000000E+00  0.00000000000E+00  0.45593999997E+02  0.45594000000E+02  0.51100000000E-03 0.  1.
         11   -1    0    0    0    0 -0.00000000000E+00 -0.00000000000E+00 -0.45593999997E+02  0.45594000000E+02  0.51100000000E-03 0. -1.
    9900012    2    1    2    0    0  0.23421612611E+02 -0.25574659195E+02  0.26095749954E+02  0.47787270791E+02  0.19999998843E+02 0.  0.
         12    1    1    2    0    0 -0.23421612611E+02  0.25574659195E+02 -0.26095749954E+02  0.43400729209E+02  0.00000000000E+00 0. -1.
         11    1    3    3    0    0  0.41623473570E+01 -0.13973991036E+01  0.45553629312E+01  0.63268626879E+01  0.51100000000E-03 0. -1.
        -11    1    3    3    0    0  0.22089838062E+02 -0.20436285113E+02  0.15616377551E+02  0.33903892739E+02  0.51100000000E-03 0.  1.
        -12    1    3    3    0    0 -0.28305728078E+01 -0.37409749780E+01  0.59240094725E+01  0.75565153634E+01  0.00000000000E+00 0.  1.
</event>
<event>
 7    1  0.2455451E-009  0.4778727E+02  0.7816164E-02  0.1312668E+00
        -11   -1    0    0    0    0  0.00000000000E+00  0.00000000000E+00  0.45593999997E+02  0.45594000000E+02  0.51100000000E-03 0.  1.
         11   -1    0    0    0    0 -0.00000000000E+00 -0.00000000000E+00 -0.45593999997E+02  0.45594000000E+02  0.51100000000E-03 0. -1.
    9900012    2    1    2    0    0  0.10451300646E+02 -0.19691291402E+02  0.37237703968E+02  0.47787271446E+02  0.20000001829E+02 0.  0.
         12    1    1    2    0    0 -0.10451300646E+02  0.19691291402E+02 -0.37237703968E+02  0.43400728554E+02  0.00000000000E+00 0. -1.
         11    1    3    3    0    0 -0.26867623281E+00 -0.20939523911E+01  0.39568229178E+00  0.21478799481E+01  0.51100000000E-03 0. -1.
        -11    1    3    3    0    0  0.66596407234E+00  0.28901841191E+01  0.98799761816E+01  0.10315551464E+02  0.51100000000E-03 0.  1.
        -12    1    3    3    0    0  0.10054012807E+02 -0.20487523130E+02  0.26962045494E+02  0.35323840034E+02  0.00000000000E+00 0.  1.
</event>
<event>
 7    1  0.2455451E-009  0.4778727E+02  0.7816164E-02  0.1312668E+00
        -11   -1    0    0    0    0  0.00000000000E+00  0.00000000000E+00  0.45593999997E+02  0.45594000000E+02  0.51100000000E-03 0.  1.
         11   -1    0    0    0    0 -0.00000000000E+00 -0.00000000000E+00 -0.45593999997E+02  0.45594000000E+02  0.51100000000E-03 0. -1.
    9900012    2    1    2    0    0 -0.34351366945E+02  0.39600358681E+01  0.26228321558E+02  0.47787272509E+02  0.20000006676E+02 0.  0.
         12    1    1    2    0    0  0.34351366945E+02 -0.39600358681E+01 -0.26228321558E+02  0.43400727491E+02  0.00000000000E+00 0. -1.
         11    1    3    3    0    0  0.12082640820E+01  0.45803035309E+00  0.87171986152E+00  0.15587141092E+01  0.51100000000E-03 0. -1.
        -11    1    3    3    0    0 -0.37019156289E+02  0.31684332900E+01  0.24277449381E+02  0.44383008579E+02  0.51100000000E-03 0.  1.
        -12    1    3    3    0    0  0.14595252620E+01  0.33357222498E+00  0.10791523153E+01  0.18455498203E+01  0.00000000000E+00 0.  1.
</event>
<event>
 7    1  0.2455451E-009  0.4778727E+02  0.7816164E-02  0.1312668E+00
        -11   -1    0    0    0    0  0.00000000000E+00  0.00000000000E+00  0.45593999997E+02  0.45594000000E+02  0.51100000000E-03 0. -1.
         11   -1    0    0    0    0 -0.00000000000E+00 -0.00000000000E+00 -0.45593999997E+02  0.45594000000E+02  0.51100000000E-03 0.  1.
    9900012    2    1    2    0    0 -0.72833142830E+01  0.28987913764E+02 -0.31468675290E+02  0.47787270331E+02  0.19999996747E+02 0.  0.
         12    1    1    2    0    0  0.72833142830E+01 -0.28987913764E+02  0.31468675290E+02  0.43400729669E+02  0.00000000000E+00 0. -1.
         11    1    3    3    0    0 -0.86810014253E+01  0.12170928459E+02 -0.80802941447E+01  0.16993599943E+02  0.51100000000E-03 0. -1.
        -11    1    3    3    0    0  0.34501702986E+01  0.16543851954E+02 -0.23216462633E+02  0.28715968555E+02  0.51100000000E-03 0.  1.
        -12    1    3    3    0    0 -0.20524831562E+01  0.27313335090E+00 -0.17191851146E+00  0.20777018334E+01  0.00000000000E+00 0.  1.
</event>
<event>
 7    1  0.2455451E-009  0.4778727E+02  0.7816164E-02  0.1312668E+00
        -11   -1    0    0    0    0  0.00000000000E+00  0.00000000000E+00  0.45593999997E+02  0.45594000000E+02  0.51100000000E-03 0.  1.
         11   -1    0    0    0    0 -0.00000000000E+00 -0.00000000000E+00 -0.45593999997E+02  0.45594000000E+02  0.51100000000E-03 0. -1.
    9900012    2    1    2    0    0  0.31039695966E+02  0.16072056258E+02  0.25726437913E+02  0.47787270447E+02  0.19999997277E+02 0.  0.
         12    1    1    2    0    0 -0.31039695966E+02 -0.16072056258E+02 -0.25726437913E+02  0.43400729553E+02  0.00000000000E+00 0. -1.
         11    1    3    3    0    0  0.18809443398E+02  0.11801539545E+02  0.59224372572E+01  0.22981443817E+02  0.51100000000E-03 0. -1.
        -11    1    3    3    0    0  0.13102600073E+01 -0.57349973001E+00  0.75802010927E+01  0.77139569673E+01  0.51100000000E-03 0.  1.
        -12    1    3    3    0    0  0.10919992561E+02  0.48440164425E+01  0.12223799563E+02  0.17091869663E+02  0.00000000000E+00 0.  1.
</event>
<event>
 7    1  0.2455451E-009  0.4778727E+02  0.7816164E-02  0.1312668E+00
        -11   -1    0    0    0    0  0.00000000000E+00  0.00000000000E+00  0.45593999997E+02  0.45594000000E+02  0.51100000000E-03 0.  1.
         11   -1    0    0    0    0 -0.00000000000E+00 -0.00000000000E+00 -0.45593999997E+02  0.45594000000E+02  0.51100000000E-03 0. -1.
    9900012    2    1    2    0    0 -0.11300819851E+02  0.12108299255E+02  0.40116128724E+02  0.47787271619E+02  0.20000002622E+02 0.  0.
         12    1    1    2    0    0  0.11300819851E+02 -0.12108299255E+02 -0.40116128724E+02  0.43400728381E+02  0.00000000000E+00 0. -1.
         11    1    3    3    0    0  0.22092001273E+01 -0.15677596834E+01  0.35845957533E+00  0.27325682344E+01  0.51100000000E-03 0. -1.
        -11    1    3    3    0    0 -0.65932732963E+01  0.12433915278E+02  0.28460627400E+02  0.31750288411E+02  0.51100000000E-03 0.  1.
        -12    1    3    3    0    0 -0.69167466821E+01  0.12421436608E+01  0.11297041749E+02  0.13304414974E+02  0.00000000000E+00 0.  1.
</event>
<event>
 7    1  0.2455451E-009  0.4778722E+02  0.7816164E-02  0.1312668E+00
        -11   -1    0    0    0    0  0.00000000000E+00  0.00000000000E+00  0.45593999997E+02  0.45594000000E+02  0.51100000000E-03 0.  1.
         11   -1    0    0    0    0 -0.00000000000E+00 -0.00000000000E+00 -0.45593999997E+02  0.45594000000E+02  0.51100000000E-03 0. -1.
    9900012    2    1    2    0    0 -0.28356153310E+02 -0.25868709207E+02  0.20257489864E+02  0.47787223024E+02  0.19999781055E+02 0.  0.
         12    1    1    2    0    0  0.28356153310E+02  0.25868709207E+02 -0.20257489864E+02  0.43400776976E+02  0.00000000000E+00 0. -1.
         11    1    3    3    0    0 -0.20362089850E+01 -0.12423160335E+02  0.30817104197E+01  0.12960632666E+02  0.51100000000E-03 0. -1.
        -11    1    3    3    0    0 -0.17965254133E+02 -0.64814117252E+01  0.84592378296E+01  0.20888220579E+02  0.51100000000E-03 0.  1.
        -12    1    3    3    0    0 -0.83546901913E+01 -0.69641371468E+01  0.87165416144E+01  0.13938369779E+02  0.00000000000E+00 0.  1.
</event>
<event>
 7    1  0.2455451E-009  0.4778727E+02  0.7816164E-02  0.1312668E+00
        -11   -1    0    0    0    0  0.00000000000E+00  0.00000000000E+00  0.45593999997E+02  0.45594000000E+02  0.51100000000E-03 0.  1.
         11   -1    0    0    0    0 -0.00000000000E+00 -0.00000000000E+00 -0.45593999997E+02  0.45594000000E+02  0.51100000000E-03 0. -1.
    9900012    2    1    2    0    0 -0.40545556186E+01  0.40520553603E+02  0.15008949694E+02  0.47787271245E+02  0.20000000915E+02 0.  0.
         12    1    1    2    0    0  0.40545556186E+01 -0.40520553603E+02 -0.15008949694E+02  0.43400728755E+02  0.00000000000E+00 0. -1.
         11    1    3    3    0    0 -0.23920751164E+01  0.35829435480E+01  0.42365386396E+01  0.60421658151E+01  0.51100000000E-03 0. -1.
        -11    1    3    3    0    0  0.17361431862E+01  0.27031845763E+02  0.14380867187E+02  0.30668293396E+02  0.51100000000E-03 0.  1.
        -12    1    3    3    0    0 -0.33986236885E+01  0.99057642914E+01 -0.36084561321E+01  0.11076812034E+02  0.00000000000E+00 0.  1.
</event>
<event>
 7    1  0.2455451E-009  0.4778727E+02  0.7816164E-02  0.1312668E+00
        -11   -1    0    0    0    0  0.00000000000E+00  0.00000000000E+00  0.45593999997E+02  0.45594000000E+02  0.51100000000E-03 0. -1.
         11   -1    0    0    0    0 -0.00000000000E+00 -0.00000000000E+00 -0.45593999997E+02  0.45594000000E+02  0.51100000000E-03 0.  1.
    9900012    2    1    2    0    0  0.28829865392E+02  0.80405800940E+01 -0.31429466259E+02  0.47787269406E+02  0.19999992529E+02 0.  0.
         12    1    1    2    0    0 -0.28829865392E+02 -0.80405800940E+01  0.31429466259E+02  0.43400730594E+02  0.00000000000E+00 0. -1.
         11    1    3    3    0    0 -0.13882175869E+01 -0.12207529043E+01 -0.63782040075E+01  0.66406981820E+01  0.51100000000E-03 0. -1.
        -11    1    3    3    0    0  0.15710051056E+01  0.18523185681E+01 -0.45210436672E+01  0.51321513249E+01  0.51100000000E-03 0.  1.
         12    1    3    3    0    0  0.28647077874E+02  0.74090144302E+01 -0.20530218584E+02  0.36014419899E+02  0.00000000000E+00 0. -1.
</event>
<event>
 7    1  0.2455451E-009  0.4778727E+02  0.7816164E-02  0.1312668E+00
        -11   -1    0    0    0    0  0.00000000000E+00  0.00000000000E+00  0.45593999997E+02  0.45594000000E+02  0.51100000000E-03 0. -1.
         11   -1    0    0    0    0 -0.00000000000E+00 -0.00000000000E+00 -0.45593999997E+02  0.45594000000E+02  0.51100000000E-03 0.  1.
    9900012    2    1    2    0    0  0.72008609671E+00 -0.90321458684E+00 -0.43385356453E+02  0.47787268726E+02  0.19999989430E+02 0.  0.
         12    1    1    2    0    0 -0.72008609671E+00  0.90321458684E+00  0.43385356453E+02  0.43400731274E+02  0.00000000000E+00 0. -1.
         11    1    3    3    0    0  0.17027832019E+01 -0.75455259757E+01 -0.18822868446E+02  0.20350302447E+02  0.51100000000E-03 0. -1.
        -11    1    3    3    0    0  0.18983622737E+01  0.63059306556E+01 -0.69014541835E+01  0.95393192033E+01  0.51100000000E-03 0.  1.
         12    1    3    3    0    0 -0.28810593789E+01  0.33638073326E+00 -0.17661033823E+02  0.17897647076E+02  0.00000000000E+00 0. -1.
</event>
<event>
 7    1  0.2455451E-009  0.4778727E+02  0.7816164E-02  0.1312668E+00
        -11   -1    0    0    0    0  0.00000000000E+00  0.00000000000E+00  0.45593999997E+02  0.45594000000E+02  0.51100000000E-03 0.  1.
         11   -1    0    0    0    0 -0.00000000000E+00 -0.00000000000E+00 -0.45593999997E+02  0.45594000000E+02  0.51100000000E-03 0. -1.
    9900012    2    1    2    0    0  0.26147341244E+01  0.12293746087E+02  0.41540948631E+02  0.47787269124E+02  0.19999991245E+02 0.  0.
         12    1    1    2    0    0 -0.26147341244E+01 -0.12293746087E+02 -0.41540948631E+02  0.43400730876E+02  0.00000000000E+00 0. -1.
         11    1    3    3    0    0 -0.27124301626E+01 -0.13171639284E+01  0.74058631774E+00  0.31049422791E+01  0.51100000000E-03 0. -1.
        -11    1    3    3    0    0  0.11854534358E+01 -0.15942192400E+01  0.20726162411E+01  0.28709881884E+01  0.51100000000E-03 0.  1.
         12    1    3    3    0    0  0.41417108512E+01  0.15205129255E+02  0.38727746072E+02  0.41811338657E+02  0.00000000000E+00 0. -1.
</event>
<event>
 7    1  0.2455451E-009  0.4778727E+02  0.7816164E-02  0.1312668E+00
        -11   -1    0    0    0    0  0.00000000000E+00  0.00000000000E+00  0.45593999997E+02  0.45594000000E+02  0.51100000000E-03 0.  1.
         11   -1    0    0    0    0 -0.00000000000E+00 -0.00000000000E+00 -0.45593999997E+02  0.45594000000E+02  0.51100000000E-03 0. -1.
    9900012    2    1    2    0    0 -0.43140594195E+02 -0.44775251887E+01  0.15696900630E+01  0.47787273898E+02  0.20000013010E+02 0.  0.
         12    1    1    2    0    0  0.43140594195E+02  0.44775251887E+01 -0.15696900630E+01  0.43400726102E+02  0.00000000000E+00 0. -1.
         11    1    3    3    0    0 -0.11749288964E+02 -0.60329799701E+01  0.51075005259E+01  0.14160833322E+02  0.51100000000E-03 0. -1.
        -11    1    3    3    0    0 -0.19657160099E+02 -0.25912009825E+01 -0.64407210573E+01  0.20847089813E+02  0.51100000000E-03 0.  1.
        -12    1    3    3    0    0 -0.11734145132E+02  0.41466557639E+01  0.29029105943E+01  0.12779350763E+02  0.00000000000E+00 0.  1.
</event>
<event>
 7    1  0.2455451E-009  0.4778727E+02  0.7816164E-02  0.1312668E+00
        -11   -1    0    0    0    0  0.00000000000E+00  0.00000000000E+00  0.45593999997E+02  0.45594000000E+02  0.51100000000E-03 0. -1.
         11   -1    0    0    0    0 -0.00000000000E+00 -0.00000000000E+00 -0.45593999997E+02  0.45594000000E+02  0.51100000000E-03 0.  1.
    9900012    2    1    2    0    0 -0.28059164334E+02  0.14022460027E+02 -0.29994626597E+02  0.47787265985E+02  0.19999976932E+02 0.  0.
         12    1    1    2    0    0  0.28059164334E+02 -0.14022460027E+02  0.29994626597E+02  0.43400734015E+02  0.00000000000E+00 0. -1.
         11    1    3    3    0    0 -0.28273236165E+02  0.15939610471E+02 -0.24071869431E+02  0.40409181672E+02  0.51100000000E-03 0. -1.
        -11    1    3    3    0    0 -0.52476829321E+00 -0.13914290619E+01 -0.62420314130E+01  0.64167291526E+01  0.51100000000E-03 0.  1.
         12    1    3    3    0    0  0.73884012414E+00 -0.52572138218E+00  0.31927424641E+00  0.96135516077E+00  0.00000000000E+00 0. -1.
</event>
<event>
 7    1  0.2455451E-009  0.4778727E+02  0.7816164E-02  0.1312668E+00
        -11   -1    0    0    0    0  0.00000000000E+00  0.00000000000E+00  0.45593999997E+02  0.45594000000E+02  0.51100000000E-03 0. -1.
         11   -1    0    0    0    0 -0.00000000000E+00 -0.00000000000E+00 -0.45593999997E+02  0.45594000000E+02  0.51100000000E-03 0.  1.
    9900012    2    1    2    0    0 -0.87968247803E+01  0.20893790021E+02 -0.37009307902E+02  0.47787268911E+02  0.19999990273E+02 0.  0.
         12    1    1    2    0    0  0.87968247803E+01 -0.20893790021E+02  0.37009307902E+02  0.43400731089E+02  0.00000000000E+00 0. -1.
         11    1    3    3    0    0 -0.98316451653E+01  0.46541520290E+01 -0.57354249618E+01  0.12297051578E+02  0.51100000000E-03 0. -1.
        -11    1    3    3    0    0  0.54183710508E+00  0.13577363346E+02 -0.22270855655E+02  0.26088874922E+02  0.51100000000E-03 0.  1.
        -12    1    3    3    0    0  0.49298327992E+00  0.26622746467E+01 -0.90030272857E+01  0.94013424103E+01  0.00000000000E+00 0.  1.
</event>
<event>
 7    1  0.2455451E-009  0.4778727E+02  0.7816164E-02  0.1312668E+00
        -11   -1    0    0    0    0  0.00000000000E+00  0.00000000000E+00  0.45593999997E+02  0.45594000000E+02  0.51100000000E-03 0. -1.
         11   -1    0    0    0    0 -0.00000000000E+00 -0.00000000000E+00 -0.45593999997E+02  0.45594000000E+02  0.51100000000E-03 0.  1.
    9900012    2    1    2    0    0  0.25313982915E+02 -0.10740404574E+02 -0.33577807239E+02  0.47787272352E+02  0.20000005960E+02 0.  0.
         12    1    1    2    0    0 -0.25313982915E+02  0.10740404574E+02  0.33577807239E+02  0.43400727648E+02  0.00000000000E+00 0. -1.
         11    1    3    3    0    0  0.24175490576E+01  0.27952519298E+01 -0.11566220561E+02  0.12142299417E+02  0.51100000000E-03 0. -1.
        -11    1    3    3    0    0  0.13713142501E+02 -0.37196362599E+01 -0.14248766112E+02  0.20122457781E+02  0.51100000000E-03 0.  1.
         12    1    3    3    0    0  0.91832913565E+01 -0.98160202444E+01 -0.77628205655E+01  0.15522515154E+02  0.00000000000E+00 0. -1.
</event>
<event>
 7    1  0.2455451E-009  0.4778727E+02  0.7816164E-02  0.1312668E+00
        -11   -1    0    0    0    0  0.00000000000E+00  0.00000000000E+00  0.45593999997E+02  0.45594000000E+02  0.51100000000E-03 0.  1.
         11   -1    0    0    0    0 -0.00000000000E+00 -0.00000000000E+00 -0.45593999997E+02  0.45594000000E+02  0.51100000000E-03 0. -1.
    9900012    2    1    2    0    0 -0.19945867777E+02 -0.27573174454E+02  0.26935217032E+02  0.47787268354E+02  0.19999987731E+02 0.  0.
         12    1    1    2    0    0  0.19945867777E+02  0.27573174454E+02 -0.26935217032E+02  0.43400731646E+02  0.00000000000E+00 0. -1.
         11    1    3    3    0    0 -0.24576718139E+00 -0.46373425291E+01  0.10233948504E+02  0.11238284989E+02  0.51100000000E-03 0. -1.
        -11    1    3    3    0    0 -0.38050845225E+01 -0.10621453007E+01 -0.11909205185E+01  0.41261498768E+01  0.51100000000E-03 0.  1.
        -12    1    3    3    0    0 -0.15895016073E+02 -0.21873686625E+02  0.17892189047E+02  0.32422833488E+02  0.00000000000E+00 0.  1.
</event>
<event>
 7    1  0.2455451E-009  0.4778727E+02  0.7816164E-02  0.1312668E+00
        -11   -1    0    0    0    0  0.00000000000E+00  0.00000000000E+00  0.45593999997E+02  0.45594000000E+02  0.51100000000E-03 0. -1.
         11   -1    0    0    0    0 -0.00000000000E+00 -0.00000000000E+00 -0.45593999997E+02  0.45594000000E+02  0.51100000000E-03 0.  1.
    9900012    2    1    2    0    0  0.10278428355E+02 -0.25734041664E+02 -0.33402637062E+02  0.47787272443E+02  0.20000006375E+02 0.  0.
         12    1    1    2    0    0 -0.10278428355E+02  0.25734041664E+02  0.33402637062E+02  0.43400727557E+02  0.00000000000E+00 0. -1.
         11    1    3    3    0    0 -0.14089240565E+00 -0.16976604589E+02 -0.15883518610E+02  0.23248894979E+02  0.51100000000E-03 0. -1.
        -11    1    3    3    0    0  0.12131685747E+02 -0.92750143992E+01 -0.14679993679E+02  0.21182679383E+02  0.51100000000E-03 0.  1.
         12    1    3    3    0    0 -0.17123649860E+01  0.51757732429E+00 -0.28391247733E+01  0.33556980809E+01  0.00000000000E+00 0. -1.
</event>
<event>
 7    1  0.2455451E-009  0.4778728E+02  0.7816164E-02  0.1312668E+00
        -11   -1    0    0    0    0  0.00000000000E+00  0.00000000000E+00  0.45593999997E+02  0.45594000000E+02  0.51100000000E-03 0. -1.
         11   -1    0    0    0    0 -0.00000000000E+00 -0.00000000000E+00 -0.45593999997E+02  0.45594000000E+02  0.51100000000E-03 0.  1.
    9900012    2    1    2    0    0 -0.20614765196E+02  0.11993134341E+02 -0.36260428227E+02  0.47787280298E+02  0.20000042192E+02 0.  0.
         12    1    1    2    0    0  0.20614765196E+02 -0.11993134341E+02  0.36260428227E+02  0.43400719702E+02  0.00000000000E+00 0. -1.
         11    1    3    3    0    0 -0.44810943368E+01  0.73065606974E+00 -0.22989689924E+02  0.23433734397E+02  0.51100000000E-03 0. -1.
        -11    1    3    3    0    0 -0.12549595552E+02  0.10926354482E+02 -0.95911458791E+01  0.19205927479E+02  0.51100000000E-03 0.  1.
         12    1    3    3    0    0 -0.35840753070E+01  0.33612378847E+00 -0.36795924244E+01  0.51476184219E+01  0.00000000000E+00 0. -1.
</event>
<event>
 7    1 -0.2455451E-009  0.4778727E+02  0.7816164E-02  0.1312668E+00
        -11   -1    0    0    0    0  0.00000000000E+00  0.00000000000E+00  0.45593999997E+02  0.45594000000E+02  0.51100000000E-03 0. -1.
         11   -1    0    0    0    0 -0.00000000000E+00 -0.00000000000E+00 -0.45593999997E+02  0.45594000000E+02  0.51100000000E-03 0.  1.
    9900012    2    1    2    0    0  0.36125435564E+00  0.20870523436E+02 -0.38051469998E+02  0.47787267032E+02  0.19999981704E+02 0.  0.
         12    1    1    2    0    0 -0.36125435564E+00 -0.20870523436E+02  0.38051469998E+02  0.43400732968E+02  0.00000000000E+00 0. -1.
         11    1    3    3    0    0 -0.12325663134E+01  0.61264054131E+01 -0.29532699761E+01  0.69118642070E+01  0.51100000000E-03 0. -1.
        -11    1    3    3    0    0  0.66439189969E+01  0.14008348386E+02 -0.22922244922E+02  0.27673178290E+02  0.51100000000E-03 0.  1.
        -12    1    3    3    0    0 -0.50500983278E+01  0.73576963688E+00 -0.12175955100E+02  0.13202224535E+02  0.00000000000E+00 0.  1.
</event>
<event>
 7    1  0.2455451E-009  0.4778727E+02  0.7816164E-02  0.1312668E+00
        -11   -1    0    0    0    0  0.00000000000E+00  0.00000000000E+00  0.45593999997E+02  0.45594000000E+02  0.51100000000E-03 0. -1.
         11   -1    0    0    0    0 -0.00000000000E+00 -0.00000000000E+00 -0.45593999997E+02  0.45594000000E+02  0.51100000000E-03 0.  1.
    9900012    2    1    2    0    0 -0.11755873669E+01  0.28808937056E+02 -0.32438965863E+02  0.47787269981E+02  0.19999995149E+02 0.  0.
         12    1    1    2    0    0  0.11755873669E+01 -0.28808937056E+02  0.32438965863E+02  0.43400730019E+02  0.00000000000E+00 0. -1.
         11    1    3    3    0    0 -0.34780043253E+01 -0.10758257421E+01 -0.10067207253E+01  0.37772214648E+01  0.51100000000E-03 0. -1.
        -11    1    3    3    0    0  0.33849391802E+01  0.10419585331E+02 -0.14602247202E+02  0.18255169003E+02  0.51100000000E-03 0.  1.
         12    1    3    3    0    0 -0.10825222217E+01  0.19465177467E+02 -0.16829997936E+02  0.25754879513E+02  0.00000000000E+00 0. -1.
</event>
<event>
 7    1  0.2455451E-009  0.4778727E+02  0.7816164E-02  0.1312668E+00
        -11   -1    0    0    0    0  0.00000000000E+00  0.00000000000E+00  0.45593999997E+02  0.45594000000E+02  0.51100000000E-03 0.  1.
         11   -1    0    0    0    0 -0.00000000000E+00 -0.00000000000E+00 -0.45593999997E+02  0.45594000000E+02  0.51100000000E-03 0. -1.
    9900012    2    1    2    0    0 -0.31982819570E+02 -0.18973856757E+02  0.22376669249E+02  0.47787270576E+02  0.19999997863E+02 0.  0.
         12    1    1    2    0    0  0.31982819570E+02  0.18973856757E+02 -0.22376669249E+02  0.43400729424E+02  0.00000000000E+00 0. -1.
         11    1    3    3    0    0 -0.38088394726E+01  0.22993408754E+01  0.58912780766E+01  0.73825052811E+01  0.51100000000E-03 0. -1.
        -11    1    3    3    0    0 -0.18332460374E+02 -0.19441328436E+02  0.13618388529E+02  0.29991746550E+02  0.51100000000E-03 0.  1.
         12    1    3    3    0    0 -0.98415197237E+01 -0.18318691965E+01  0.28670026431E+01  0.10413018745E+02  0.00000000000E+00 0. -1.
</event>
<event>
 7    1  0.2455451E-009  0.4778727E+02  0.7816164E-02  0.1312668E+00
        -11   -1    0    0    0    0  0.00000000000E+00  0.00000000000E+00  0.45593999997E+02  0.45594000000E+02  0.51100000000E-03 0. -1.
         11   -1    0    0    0    0 -0.00000000000E+00 -0.00000000000E+00 -0.45593999997E+02  0.45594000000E+02  0.51100000000E-03 0.  1.
    9900012    2    1    2    0    0  0.40010724943E+02 -0.56795499517E+01  0.15827447690E+02  0.47787268456E+02  0.19999988200E+02 0.  0.
         12    1    1    2    0    0 -0.40010724943E+02  0.56795499517E+01 -0.15827447690E+02  0.43400731544E+02  0.00000000000E+00 0. -1.
         11    1    3    3    0    0  0.71226104870E+01 -0.54233298432E+01  0.95386947324E+01  0.13081696534E+02  0.51100000000E-03 0. -1.
        -11    1    3    3    0    0  0.30560740061E+02  0.15399980658E+01  0.37636467741E+01  0.30830106461E+02  0.51100000000E-03 0.  1.
        -12    1    3    3    0    0  0.23273743952E+01 -0.17962181743E+01  0.25251061835E+01  0.38754654615E+01  0.00000000000E+00 0.  1.
</event>
<event>
 7    1  0.2455451E-009  0.4778725E+02  0.7816164E-02  0.1312668E+00
        -11   -1    0    0    0    0  0.00000000000E+00  0.00000000000E+00  0.45593999997E+02  0.45594000000E+02  0.51100000000E-03 0.  1.
         11   -1    0    0    0    0 -0.00000000000E+00 -0.00000000000E+00 -0.45593999997E+02  0.45594000000E+02  0.51100000000E-03 0. -1.
    9900012    2    1    2    0    0  0.10841344851E+02  0.52148049021E+01  0.41700072400E+02  0.47787251314E+02  0.19999910042E+02 0.  0.
         12    1    1    2    0    0 -0.10841344851E+02 -0.52148049021E+01 -0.41700072400E+02  0.43400748686E+02  0.00000000000E+00 0. -1.
         11    1    3    3    0    0 -0.44421811743E+01  0.10609184106E+01  0.40250652435E+01  0.60876655571E+01  0.51100000000E-03 0. -1.
        -11    1    3    3    0    0  0.13416032056E+02  0.53720397675E+01  0.36322303457E+02  0.39091667348E+02  0.51100000000E-03 0.  1.
         12    1    3    3    0    0  0.18674939695E+01 -0.12181532760E+01  0.13527036994E+01  0.26079184091E+01  0.00000000000E+00 0. -1.
</event>
<event>
 7    1  0.2455451E-009  0.4778727E+02  0.7816164E-02  0.1312668E+00
        -11   -1    0    0    0    0  0.00000000000E+00  0.00000000000E+00  0.45593999997E+02  0.45594000000E+02  0.51100000000E-03 0.  1.
         11   -1    0    0    0    0 -0.00000000000E+00 -0.00000000000E+00 -0.45593999997E+02  0.45594000000E+02  0.51100000000E-03 0. -1.
    9900012    2    1    2    0    0  0.25244427417E+02  0.22945233901E+02  0.26830175891E+02  0.47787271749E+02  0.20000003213E+02 0.  0.
         12    1    1    2    0    0 -0.25244427417E+02 -0.22945233901E+02 -0.26830175891E+02  0.43400728251E+02  0.00000000000E+00 0. -1.
         11    1    3    3    0    0  0.11170458433E+02  0.19661693678E+02  0.14457435459E+02  0.26839872954E+02  0.51100000000E-03 0.  1.
        -11    1    3    3    0    0  0.14517612819E+01 -0.61203943329E+00 -0.12204905522E+01  0.19929376650E+01  0.51100000000E-03 0. -1.
         12    1    3    3    0    0  0.12622207702E+02  0.38955796558E+01  0.13593230984E+02  0.18954461130E+02  0.00000000000E+00 0. -1.
</event>
<event>
 7    1  0.2455451E-009  0.4778727E+02  0.7816164E-02  0.1312668E+00
        -11   -1    0    0    0    0  0.00000000000E+00  0.00000000000E+00  0.45593999997E+02  0.45594000000E+02  0.51100000000E-03 0. -1.
         11   -1    0    0    0    0 -0.00000000000E+00 -0.00000000000E+00 -0.45593999997E+02  0.45594000000E+02  0.51100000000E-03 0.  1.
    9900012    2    1    2    0    0  0.32719758550E+02 -0.26678387840E+02 -0.10065029300E+02  0.47787265074E+02  0.19999972778E+02 0.  0.
         12    1    1    2    0    0 -0.32719758550E+02  0.26678387840E+02  0.10065029300E+02  0.43400734926E+02  0.00000000000E+00 0. -1.
         11    1    3    3    0    0  0.50137335329E+01 -0.25076680903E+01  0.43951732726E+01  0.71234452021E+01  0.51100000000E-03 0. -1.
        -11    1    3    3    0    0  0.24055235310E+02 -0.15742237971E+02 -0.12019280369E+02  0.31159837981E+02  0.51100000000E-03 0.  1.
        -12    1    3    3    0    0  0.36507897070E+01 -0.84284817788E+01 -0.24409222033E+01  0.95039818909E+01  0.00000000000E+00 0.  1.
</event>
<event>
 7    1  0.2455451E-009  0.4778727E+02  0.7816164E-02  0.1312668E+00
        -11   -1    0    0    0    0  0.00000000000E+00  0.00000000000E+00  0.45593999997E+02  0.45594000000E+02  0.51100000000E-03 0.  1.
         11   -1    0    0    0    0 -0.00000000000E+00 -0.00000000000E+00 -0.45593999997E+02  0.45594000000E+02  0.51100000000E-03 0. -1.
    9900012    2    1    2    0    0 -0.79325074411E+01 -0.34851796377E+02  0.24618102821E+02  0.47787269919E+02  0.19999994871E+02 0.  0.
         12    1    1    2    0    0  0.79325074411E+01  0.34851796377E+02 -0.24618102821E+02  0.43400730081E+02  0.00000000000E+00 0. -1.
         11    1    3    3    0    0 -0.47198397725E+00 -0.23101425461E+02  0.18125676661E+02  0.29367308046E+02  0.51100000000E-03 0. -1.
        -11    1    3    3    0    0 -0.50811958953E+01 -0.46176943563E+01 -0.19275056345E+01  0.71314045690E+01  0.51100000000E-03 0.  1.
        -12    1    3    3    0    0 -0.23793275685E+01 -0.71326765598E+01  0.84199317942E+01  0.11288557304E+02  0.00000000000E+00 0.  1.
</event>
<event>
 7    1  0.2455451E-009  0.4778727E+02  0.7816164E-02  0.1312668E+00
        -11   -1    0    0    0    0  0.00000000000E+00  0.00000000000E+00  0.45593999997E+02  0.45594000000E+02  0.51100000000E-03 0.  1.
         11   -1    0    0    0    0 -0.00000000000E+00 -0.00000000000E+00 -0.45593999997E+02  0.45594000000E+02  0.51100000000E-03 0. -1.
    9900012    2    1    2    0    0 -0.40937230638E+02  0.54283059493E+01  0.13352910604E+02  0.47787267525E+02  0.19999983954E+02 0.  0.
         12    1    1    2    0    0  0.40937230638E+02 -0.54283059493E+01 -0.13352910604E+02  0.43400732475E+02  0.00000000000E+00 0. -1.
         11    1    3    3    0    0 -0.24319742399E+02  0.10409249243E+02  0.25837381740E+01  0.26579654688E+02  0.51100000000E-03 0.  1.
        -11    1    3    3    0    0 -0.29426411177E+01  0.95791958046E+00  0.57707197577E+00  0.31479769689E+01  0.51100000000E-03 0. -1.
         12    1    3    3    0    0 -0.13674847121E+02 -0.59388628737E+01  0.10192100454E+02  0.18059635868E+02  0.00000000000E+00 0. -1.
</event>
<event>
 7    1  0.2455451E-009  0.4778727E+02  0.7816164E-02  0.1312668E+00
        -11   -1    0    0    0    0  0.00000000000E+00  0.00000000000E+00  0.45593999997E+02  0.45594000000E+02  0.51100000000E-03 0.  1.
         11   -1    0    0    0    0 -0.00000000000E+00 -0.00000000000E+00 -0.45593999997E+02  0.45594000000E+02  0.51100000000E-03 0. -1.
    9900012    2    1    2    0    0  0.38926161619E+01 -0.22427339068E+01  0.43167588458E+02  0.47787274093E+02  0.20000013901E+02 0.  0.
         12    1    1    2    0    0 -0.38926161619E+01  0.22427339068E+01 -0.43167588458E+02  0.43400725907E+02  0.00000000000E+00 0. -1.
         11    1    3    3    0    0  0.13916798539E+01  0.23848852403E+01  0.22378809686E+02  0.22548515996E+02  0.51100000000E-03 0. -1.
        -11    1    3    3    0    0 -0.68491283262E+00 -0.32373289554E+01  0.21447192118E+02  0.21700955149E+02  0.51100000000E-03 0.  1.
         12    1    3    3    0    0  0.31858491407E+01 -0.13902901917E+01 -0.65841334622E+00  0.35378029480E+01  0.00000000000E+00 0. -1.
</event>
<event>
 7    1  0.2455451E-009  0.4778727E+02  0.7816164E-02  0.1312668E+00
        -11   -1    0    0    0    0  0.00000000000E+00  0.00000000000E+00  0.45593999997E+02  0.45594000000E+02  0.51100000000E-03 0.  1.
         11   -1    0    0    0    0 -0.00000000000E+00 -0.00000000000E+00 -0.45593999997E+02  0.45594000000E+02  0.51100000000E-03 0. -1.
    9900012    2    1    2    0    0  0.36782087160E+01  0.46005607628E+01  0.42999176083E+02  0.47787268181E+02  0.19999986942E+02 0.  0.
         12    1    1    2    0    0 -0.36782087160E+01 -0.46005607628E+01 -0.42999176083E+02  0.43400731819E+02  0.00000000000E+00 0. -1.
         11    1    3    3    0    0  0.61302876327E+01 -0.17922202151E+01  0.31232787856E+02  0.31879139218E+02  0.51100000000E-03 0. -1.
        -11    1    3    3    0    0  0.21886857536E+01  0.54795702805E+01  0.55826321807E+01  0.81229193098E+01  0.51100000000E-03 0.  1.
         12    1    3    3    0    0 -0.46407646703E+01  0.91321069739E+00  0.61837560454E+01  0.77852096524E+01  0.00000000000E+00 0. -1.
</event>
<event>
 7    1  0.2455451E-009  0.4778727E+02  0.7816164E-02  0.1312668E+00
        -11   -1    0    0    0    0  0.00000000000E+00  0.00000000000E+00  0.45593999997E+02  0.45594000000E+02  0.51100000000E-03 0. -1.
         11   -1    0    0    0    0 -0.00000000000E+00 -0.00000000000E+00 -0.45593999997E+02  0.45594000000E+02  0.51100000000E-03 0.  1.
    9900012    2    1    2    0    0 -0.15582036483E+02 -0.39393776129E+02  0.94315334403E+01  0.47787270955E+02  0.19999999590E+02 0.  0.
         12    1    1    2    0    0  0.15582036483E+02  0.39393776129E+02 -0.94315334403E+01  0.43400729045E+02  0.00000000000E+00 0. -1.
         11    1    3    3    0    0 -0.91965551510E+01 -0.52970268787E+01  0.17697035018E+01  0.10759506083E+02  0.51100000000E-03 0. -1.
        -11    1    3    3    0    0  0.17673740825E+01 -0.18116769451E+02  0.51189592939E+01  0.18908852186E+02  0.51100000000E-03 0.  1.
        -12    1    3    3    0    0 -0.81528554146E+01 -0.15979979800E+02  0.25428706446E+01  0.18118912686E+02  0.00000000000E+00 0.  1.
</event>
<event>
 7    1  0.2455451E-009  0.4778727E+02  0.7816164E-02  0.1312668E+00
        -11   -1    0    0    0    0  0.00000000000E+00  0.00000000000E+00  0.45593999997E+02  0.45594000000E+02  0.51100000000E-03 0. -1.
         11   -1    0    0    0    0 -0.00000000000E+00 -0.00000000000E+00 -0.45593999997E+02  0.45594000000E+02  0.51100000000E-03 0.  1.
    9900012    2    1    2    0    0  0.43076384748E+01 -0.19978493537E+02 -0.38287428968E+02  0.47787272239E+02  0.20000005446E+02 0.  0.
         12    1    1    2    0    0 -0.43076384748E+01  0.19978493537E+02  0.38287428968E+02  0.43400727761E+02  0.00000000000E+00 0. -1.
         11    1    3    3    0    0  0.27897367578E+01 -0.67007540792E+00 -0.17248626874E+02  0.17485615847E+02  0.51100000000E-03 0. -1.
        -11    1    3    3    0    0  0.22359129344E+01 -0.10054085675E+01 -0.64004732273E+01  0.68539193774E+01  0.51100000000E-03 0.  1.
         12    1    3    3    0    0 -0.71801121745E+00 -0.18303009561E+02 -0.14638328866E+02  0.23447737015E+02  0.00000000000E+00 0. -1.
</event>
<event>
 7    1  0.2455451E-009  0.4778727E+02  0.7816164E-02  0.1312668E+00
        -11   -1    0    0    0    0  0.00000000000E+00  0.00000000000E+00  0.45593999997E+02  0.45594000000E+02  0.51100000000E-03 0. -1.
         11   -1    0    0    0    0 -0.00000000000E+00 -0.00000000000E+00 -0.45593999997E+02  0.45594000000E+02  0.51100000000E-03 0.  1.
    9900012    2    1    2    0    0  0.22546967575E+02  0.32895577491E+02 -0.17121282329E+02  0.47787273349E+02  0.20000010506E+02 0.  0.
         12    1    1    2    0    0 -0.22546967575E+02 -0.32895577491E+02  0.17121282329E+02  0.43400726651E+02  0.00000000000E+00 0. -1.
         11    1    3    3    0    0 -0.72678669231E+00 -0.13170267829E+00 -0.10035895035E+01  0.12460965630E+01  0.51100000000E-03 0. -1.
        -11    1    3    3    0    0  0.66476735054E+01  0.18969378460E+02 -0.14349253573E+02  0.24696760123E+02  0.51100000000E-03 0.  1.
        -12    1    3    3    0    0  0.16626080762E+02  0.14057901709E+02 -0.17684392521E+01  0.21844416663E+02  0.00000000000E+00 0.  1.
</event>
<event>
 7    1  0.2455451E-009  0.4778727E+02  0.7816164E-02  0.1312668E+00
        -11   -1    0    0    0    0  0.00000000000E+00  0.00000000000E+00  0.45593999997E+02  0.45594000000E+02  0.51100000000E-03 0. -1.
         11   -1    0    0    0    0 -0.00000000000E+00 -0.00000000000E+00 -0.45593999997E+02  0.45594000000E+02  0.51100000000E-03 0.  1.
    9900012    2    1    2    0    0  0.22990167957E+02  0.36322693353E+02 -0.59780642919E+01  0.47787272727E+02  0.20000007673E+02 0.  0.
         12    1    1    2    0    0 -0.22990167957E+02 -0.36322693353E+02  0.59780642919E+01  0.43400727273E+02  0.00000000000E+00 0. -1.
         11    1    3    3    0    0  0.77548357499E+01  0.13483579828E+02 -0.10535094665E+02  0.18786501068E+02  0.51100000000E-03 0. -1.
        -11    1    3    3    0    0  0.12574463309E+02  0.18694293725E+02  0.36477804131E+00  0.22532794072E+02  0.51100000000E-03 0.  1.
         12    1    3    3    0    0  0.26608688976E+01  0.41448197999E+01  0.41922523320E+01  0.64679775880E+01  0.00000000000E+00 0. -1.
</event>
<event>
 7    1  0.2455451E-009  0.4778729E+02  0.7816164E-02  0.1312668E+00
        -11   -1    0    0    0    0  0.00000000000E+00  0.00000000000E+00  0.45593999997E+02  0.45594000000E+02  0.51100000000E-03 0. -1.
         11   -1    0    0    0    0 -0.00000000000E+00 -0.00000000000E+00 -0.45593999997E+02  0.45594000000E+02  0.51100000000E-03 0.  1.
    9900012    2    1    2    0    0  0.15936089371E+02  0.22229681407E+02 -0.33697242525E+02  0.47787287636E+02  0.20000075648E+02 0.  0.
         12    1    1    2    0    0 -0.15936089371E+02 -0.22229681407E+02  0.33697242525E+02  0.43400712364E+02  0.00000000000E+00 0. -1.
         11    1    3    3    0    0  0.43962093286E+01  0.22536355697E+01 -0.15622274410E-01  0.49402200415E+01  0.51100000000E-03 0. -1.
        -11    1    3    3    0    0  0.61429768480E+01  0.64658171979E+01 -0.23372849529E+02  0.25016655491E+02  0.51100000000E-03 0.  1.
        -12    1    3    3    0    0  0.53969031944E+01  0.13510228640E+02 -0.10308770722E+02  0.17830412104E+02  0.00000000000E+00 0.  1.
</event>
<event>
 7    1  0.2455451E-009  0.4778727E+02  0.7816164E-02  0.1312668E+00
        -11   -1    0    0    0    0  0.00000000000E+00  0.00000000000E+00  0.45593999997E+02  0.45594000000E+02  0.51100000000E-03 0.  1.
         11   -1    0    0    0    0 -0.00000000000E+00 -0.00000000000E+00 -0.45593999997E+02  0.45594000000E+02  0.51100000000E-03 0. -1.
    9900012    2    1    2    0    0 -0.24566946327E+01 -0.16904508976E+02  0.39897685701E+02  0.47787273087E+02  0.20000009314E+02 0.  0.
         12    1    1    2    0    0  0.24566946327E+01  0.16904508976E+02 -0.39897685701E+02  0.43400726913E+02  0.00000000000E+00 0. -1.
         11    1    3    3    0    0 -0.23512089500E+01  0.27312974773E+00 -0.68013521036E+00  0.24627966930E+01  0.51100000000E-03 0. -1.
        -11    1    3    3    0    0  0.50226562937E+01 -0.96119758084E+01  0.25215746275E+02  0.27449062200E+02  0.51100000000E-03 0.  1.
        -12    1    3    3    0    0 -0.51281419764E+01 -0.75656629156E+01  0.15362074636E+02  0.17875414194E+02  0.00000000000E+00 0.  1.
</event>
<event>
 7    1  0.2455451E-009  0.4778726E+02  0.7816164E-02  0.1312668E+00
        -11   -1    0    0    0    0  0.00000000000E+00  0.00000000000E+00  0.45593999997E+02  0.45594000000E+02  0.51100000000E-03 0.  1.
         11   -1    0    0    0    0 -0.00000000000E+00 -0.00000000000E+00 -0.45593999997E+02  0.45594000000E+02  0.51100000000E-03 0. -1.
    9900012    2    1    2    0    0  0.13358636402E+01  0.33237779352E+02  0.27876327953E+02  0.47787260743E+02  0.19999953032E+02 0.  0.
         12    1    1    2    0    0 -0.13358636402E+01 -0.33237779352E+02 -0.27876327953E+02  0.43400739257E+02  0.00000000000E+00 0. -1.
         11    1    3    3    0    0  0.86826194844E+00  0.54173661435E+01 -0.60943553443E+00  0.55202487874E+01  0.51100000000E-03 0. -1.
        -11    1    3    3    0    0 -0.28579562829E+01  0.25911702488E+02  0.19681883128E+02  0.32664365349E+02  0.51100000000E-03 0.  1.
        -12    1    3    3    0    0  0.33255579746E+01  0.19087107198E+01  0.88038803599E+01  0.96026466063E+01  0.00000000000E+00 0.  1.
</event>
<event>
 7    1  0.2455451E-009  0.4778727E+02  0.7816164E-02  0.1312668E+00
        -11   -1    0    0    0    0  0.00000000000E+00  0.00000000000E+00  0.45593999997E+02  0.45594000000E+02  0.51100000000E-03 0.  1.
         11   -1    0    0    0    0 -0.00000000000E+00 -0.00000000000E+00 -0.45593999997E+02  0.45594000000E+02  0.51100000000E-03 0. -1.
    9900012    2    1    2    0    0  0.59412699692E+01  0.24157638126E+02  0.35563086529E+02  0.47787270834E+02  0.19999999042E+02 0.  0.
         12    1    1    2    0    0 -0.59412699692E+01 -0.24157638126E+02 -0.35563086529E+02  0.43400729166E+02  0.00000000000E+00 0. -1.
         11    1    3    3    0    0 -0.36097368352E+01 -0.24330761877E+00  0.35647513555E+01  0.50790600611E+01  0.51100000000E-03 0. -1.
        -11    1    3    3    0    0  0.11444646330E+02  0.16135993091E+02  0.23198653189E+02  0.30488156925E+02  0.51100000000E-03 0.  1.
         12    1    3    3    0    0 -0.18936395260E+01  0.82649526534E+01  0.87996819842E+01  0.12220053848E+02  0.00000000000E+00 0. -1.
</event>
<event>
 7    1  0.2455451E-009  0.4778727E+02  0.7816164E-02  0.1312668E+00
        -11   -1    0    0    0    0  0.00000000000E+00  0.00000000000E+00  0.45593999997E+02  0.45594000000E+02  0.51100000000E-03 0.  1.
         11   -1    0    0    0    0 -0.00000000000E+00 -0.00000000000E+00 -0.45593999997E+02  0.45594000000E+02  0.51100000000E-03 0. -1.
    9900012    2    1    2    0    0 -0.27944869325E+02 -0.13437663234E+02  0.30366706798E+02  0.47787269631E+02  0.19999993557E+02 0.  0.
         12    1    1    2    0    0  0.27944869325E+02  0.13437663234E+02 -0.30366706798E+02  0.43400730369E+02  0.00000000000E+00 0. -1.
         11    1    3    3    0    0 -0.14145502603E+02 -0.10267959460E+01  0.11624158134E+02  0.18337682689E+02  0.51100000000E-03 0. -1.
        -11    1    3    3    0    0 -0.68410456056E+01 -0.13984994063E+02  0.13308131579E+02  0.20481365440E+02  0.51100000000E-03 0.  1.
         12    1    3    3    0    0 -0.69583211161E+01  0.15741267749E+01  0.54344170851E+01  0.89682215022E+01  0.00000000000E+00 0. -1.
</event>
<event>
 7    1  0.2455451E-009  0.4778727E+02  0.7816164E-02  0.1312668E+00
        -11   -1    0    0    0    0  0.00000000000E+00  0.00000000000E+00  0.45593999997E+02  0.45594000000E+02  0.51100000000E-03 0.  1.
         11   -1    0    0    0    0 -0.00000000000E+00 -0.00000000000E+00 -0.45593999997E+02  0.45594000000E+02  0.51100000000E-03 0. -1.
    9900012    2    1    2    0    0 -0.10143385997E+02 -0.21387202958E+02  0.36377500035E+02  0.47787271450E+02  0.20000001850E+02 0.  0.
         12    1    1    2    0    0  0.10143385997E+02  0.21387202958E+02 -0.36377500035E+02  0.43400728550E+02  0.00000000000E+00 0. -1.
         11    1    3    3    0    0 -0.21495048217E+00 -0.16036496386E+00 -0.13714994119E+01  0.13974732660E+01  0.51100000000E-03 0. -1.
        -11    1    3    3    0    0 -0.21354814951E+00 -0.12599799629E+02  0.25911750576E+02  0.28813527581E+02  0.51100000000E-03 0.  1.
        -12    1    3    3    0    0 -0.97148873651E+01 -0.86270383647E+01  0.11837248871E+02  0.17576270603E+02  0.00000000000E+00 0.  1.
</event>
<event>
 7    1  0.2455451E-009  0.4778727E+02  0.7816164E-02  0.1312668E+00
        -11   -1    0    0    0    0  0.00000000000E+00  0.00000000000E+00  0.45593999997E+02  0.45594000000E+02  0.51100000000E-03 0. -1.
         11   -1    0    0    0    0 -0.00000000000E+00 -0.00000000000E+00 -0.45593999997E+02  0.45594000000E+02  0.51100000000E-03 0.  1.
    9900012    2    1    2    0    0  0.21122896858E+02  0.17577191208E+01 -0.37872903516E+02  0.47787272253E+02  0.20000005512E+02 0.  0.
         12    1    1    2    0    0 -0.21122896858E+02 -0.17577191208E+01  0.37872903516E+02  0.43400727747E+02  0.00000000000E+00 0. -1.
         11    1    3    3    0    0  0.22794296410E+01  0.49339291682E+01 -0.84452663662E-01  0.54356774222E+01  0.51100000000E-03 0. -1.
        -11    1    3    3    0    0  0.98215373967E+01 -0.16645809297E+01 -0.18895678023E+02  0.21360713347E+02  0.51100000000E-03 0.  1.
         12    1    3    3    0    0  0.90219298201E+01 -0.15116291178E+01 -0.18892772830E+02  0.20990881484E+02  0.00000000000E+00 0. -1.
</event>
<event>
 7    1  0.2455451E-009  0.4778727E+02  0.7816164E-02  0.1312668E+00
        -11   -1    0    0    0    0  0.00000000000E+00  0.00000000000E+00  0.45593999997E+02  0.45594000000E+02  0.51100000000E-03 0.  1.
         11   -1    0    0    0    0 -0.00000000000E+00 -0.00000000000E+00 -0.45593999997E+02  0.45594000000E+02  0.51100000000E-03 0. -1.
    9900012    2    1    2    0    0 -0.11206313077E+02  0.16756457121E+02  0.38435176188E+02  0.47787273317E+02  0.20000010363E+02 0.  0.
         12    1    1    2    0    0  0.11206313077E+02 -0.16756457121E+02 -0.38435176188E+02  0.43400726683E+02  0.00000000000E+00 0. -1.
         11    1    3    3    0    0 -0.79629230962E+01  0.88085095761E+01  0.58697066772E+01  0.13245808466E+02  0.51100000000E-03 0. -1.
        -11    1    3    3    0    0 -0.58424484365E+00  0.69394013778E+01  0.29695173988E+02  0.30500819529E+02  0.51100000000E-03 0.  1.
         12    1    3    3    0    0 -0.26591451369E+01  0.10085461670E+01  0.28702955227E+01  0.40406453220E+01  0.00000000000E+00 0. -1.
</event>
<event>
 7    1  0.2455451E-009  0.4778728E+02  0.7816164E-02  0.1312668E+00
        -11   -1    0    0    0    0  0.00000000000E+00  0.00000000000E+00  0.45593999997E+02  0.45594000000E+02  0.51100000000E-03 0. -1.
         11   -1    0    0    0    0 -0.00000000000E+00 -0.00000000000E+00 -0.45593999997E+02  0.45594000000E+02  0.51100000000E-03 0.  1.
    9900012    2    1    2    0    0 -0.13347800710E+02  0.33410718528E+02 -0.24273084246E+02  0.47787279785E+02  0.20000039853E+02 0.  0.
         12    1    1    2    0    0  0.13347800710E+02 -0.33410718528E+02  0.24273084246E+02  0.43400720215E+02  0.00000000000E+00 0. -1.
         11    1    3    3    0    0 -0.71895424279E+01  0.11672040878E+02  0.69453040463E+00  0.13726195078E+02  0.51100000000E-03 0. -1.
        -11    1    3    3    0    0 -0.56438700825E+01  0.16771452583E+02 -0.22067699176E+02  0.28286361350E+02  0.51100000000E-03 0.  1.
        -12    1    3    3    0    0 -0.51438819916E+00  0.49672250680E+01 -0.28999154744E+01  0.57747233574E+01  0.00000000000E+00 0.  1.
</event>
<event>
 7    1  0.2455451E-009  0.4778731E+02  0.7816164E-02  0.1312668E+00
        -11   -1    0    0    0    0  0.00000000000E+00  0.00000000000E+00  0.45593999997E+02  0.45594000000E+02  0.51100000000E-03 0. -1.
         11   -1    0    0    0    0 -0.00000000000E+00 -0.00000000000E+00 -0.45593999997E+02  0.45594000000E+02  0.51100000000E-03 0.  1.
    9900012    2    1    2    0    0  0.33091936223E+02  0.24597144124E+02 -0.13547117116E+02  0.47787307331E+02  0.20000165443E+02 0.  0.
         12    1    1    2    0    0 -0.33091936223E+02 -0.24597144124E+02  0.13547117116E+02  0.43400692669E+02  0.00000000000E+00 0. -1.
         11    1    3    3    0    0  0.86651941118E+01 -0.11291924824E+01 -0.38189753088E+01  0.95365212383E+01  0.51100000000E-03 0. -1.
        -11    1    3    3    0    0  0.15972413314E+02  0.17579626122E+02 -0.11478606994E+02  0.26380289241E+02  0.51100000000E-03 0.  1.
        -12    1    3    3    0    0  0.84543287971E+01  0.81467104841E+01  0.17504651870E+01  0.11870496851E+02  0.00000000000E+00 0.  1.
</event>
<event>
 7    1  0.2455451E-009  0.4778727E+02  0.7816164E-02  0.1312668E+00
        -11   -1    0    0    0    0  0.00000000000E+00  0.00000000000E+00  0.45593999997E+02  0.45594000000E+02  0.51100000000E-03 0. -1.
         11   -1    0    0    0    0 -0.00000000000E+00 -0.00000000000E+00 -0.45593999997E+02  0.45594000000E+02  0.51100000000E-03 0.  1.
    9900012    2    1    2    0    0  0.41504459482E+02  0.12024837209E+02  0.40504985461E+01  0.47787269531E+02  0.19999993098E+02 0.  0.
         12    1    1    2    0    0 -0.41504459482E+02 -0.12024837209E+02 -0.40504985461E+01  0.43400730469E+02  0.00000000000E+00 0. -1.
         11    1    3    3    0    0  0.28834755830E+00 -0.53274723587E+00 -0.13498269450E+01  0.14795259289E+01  0.51100000000E-03 0. -1.
        -11    1    3    3    0    0  0.38389566706E+01 -0.34646246688E+01 -0.58104798568E+00  0.52037322603E+01  0.51100000000E-03 0.  1.
        -12    1    3    3    0    0  0.37377155253E+02  0.16022209114E+02  0.59813734768E+01  0.41104011342E+02  0.00000000000E+00 0.  1.
</event>
<event>
 7    1  0.2455451E-009  0.4778727E+02  0.7816164E-02  0.1312668E+00
        -11   -1    0    0    0    0  0.00000000000E+00  0.00000000000E+00  0.45593999997E+02  0.45594000000E+02  0.51100000000E-03 0.  1.
         11   -1    0    0    0    0 -0.00000000000E+00 -0.00000000000E+00 -0.45593999997E+02  0.45594000000E+02  0.51100000000E-03 0. -1.
    9900012    2    1    2    0    0  0.15253555498E+02  0.98943220954E+01  0.39408816761E+02  0.47787269551E+02  0.19999993190E+02 0.  0.
         12    1    1    2    0    0 -0.15253555498E+02 -0.98943220954E+01 -0.39408816761E+02  0.43400730449E+02  0.00000000000E+00 0. -1.
         11    1    3    3    0    0  0.10425526635E+02  0.69533966808E+01  0.22698774765E+02  0.25928280065E+02  0.51100000000E-03 0.  1.
        -11    1    3    3    0    0  0.30065547914E+01  0.31091053617E+01 -0.67551347997E+00  0.43774680566E+01  0.51100000000E-03 0. -1.
        -12    1    3    3    0    0  0.18214740712E+01 -0.16817994711E+00  0.17385555476E+02  0.17481521430E+02  0.00000000000E+00 0.  1.
</event>
<event>
 7    1  0.2455451E-009  0.4778727E+02  0.7816164E-02  0.1312668E+00
        -11   -1    0    0    0    0  0.00000000000E+00  0.00000000000E+00  0.45593999997E+02  0.45594000000E+02  0.51100000000E-03 0. -1.
         11   -1    0    0    0    0 -0.00000000000E+00 -0.00000000000E+00 -0.45593999997E+02  0.45594000000E+02  0.51100000000E-03 0.  1.
    9900012    2    1    2    0    0 -0.38372047170E+02 -0.17049371331E+02  0.10978533540E+02  0.47787271141E+02  0.20000000442E+02 0.  0.
         12    1    1    2    0    0  0.38372047170E+02  0.17049371331E+02 -0.10978533540E+02  0.43400728859E+02  0.00000000000E+00 0. -1.
         11    1    3    3    0    0 -0.62413219357E+01 -0.34740951454E+01  0.10139471422E+02  0.12402915688E+02  0.51100000000E-03 0. -1.
        -11    1    3    3    0    0 -0.24141264666E+02 -0.79725640955E+01  0.22572591828E+01  0.25523668569E+02  0.51100000000E-03 0.  1.
         12    1    3    3    0    0 -0.79894605679E+01 -0.56027120898E+01 -0.14181970638E+01  0.98606868848E+01  0.00000000000E+00 0. -1.
</event>
<event>
 7    1  0.2455451E-009  0.4778727E+02  0.7816164E-02  0.1312668E+00
        -11   -1    0    0    0    0  0.00000000000E+00  0.00000000000E+00  0.45593999997E+02  0.45594000000E+02  0.51100000000E-03 0.  1.
         11   -1    0    0    0    0 -0.00000000000E+00 -0.00000000000E+00 -0.45593999997E+02  0.45594000000E+02  0.51100000000E-03 0. -1.
    9900012    2    1    2    0    0  0.33446704201E+02  0.29449662752E+01  0.27500335663E+02  0.47787270630E+02  0.19999998111E+02 0.  0.
         12    1    1    2    0    0 -0.33446704201E+02 -0.29449662752E+01 -0.27500335663E+02  0.43400729370E+02  0.00000000000E+00 0. -1.
         11    1    3    3    0    0  0.33793632195E+01  0.26575373617E-01 -0.27796702041E+01  0.43757706436E+01  0.51100000000E-03 0. -1.
        -11    1    3    3    0    0  0.29651575658E+02  0.38632525641E+01  0.29964279986E+02  0.42332006032E+02  0.51100000000E-03 0.  1.
        -12    1    3    3    0    0  0.41576532334E+00 -0.94486166258E+00  0.31572588154E+00  0.10794939545E+01  0.00000000000E+00 0.  1.
</event>
<event>
 7    1  0.2455451E-009  0.4778727E+02  0.7816164E-02  0.1312668E+00
        -11   -1    0    0    0    0  0.00000000000E+00  0.00000000000E+00  0.45593999997E+02  0.45594000000E+02  0.51100000000E-03 0. -1.
         11   -1    0    0    0    0 -0.00000000000E+00 -0.00000000000E+00 -0.45593999997E+02  0.45594000000E+02  0.51100000000E-03 0.  1.
    9900012    2    1    2    0    0  0.35846296597E+02 -0.82943623583E+01 -0.23018897539E+02  0.47787273387E+02  0.20000010680E+02 0.  0.
         12    1    1    2    0    0 -0.35846296597E+02  0.82943623583E+01  0.23018897539E+02  0.43400726613E+02  0.00000000000E+00 0. -1.
         11    1    3    3    0    0  0.16303620134E+02 -0.79553524030E+00 -0.20272446136E+02  0.26027158477E+02  0.51100000000E-03 0. -1.
        -11    1    3    3    0    0  0.11136650684E+02 -0.23300703980E+01 -0.33873644143E+01  0.11871329093E+02  0.51100000000E-03 0.  1.
         12    1    3    3    0    0  0.84060257792E+01 -0.51687567199E+01  0.64091301116E+00  0.98887858162E+01  0.00000000000E+00 0. -1.
</event>
<event>
 7    1  0.2455451E-009  0.4778727E+02  0.7816164E-02  0.1312668E+00
        -11   -1    0    0    0    0  0.00000000000E+00  0.00000000000E+00  0.45593999997E+02  0.45594000000E+02  0.51100000000E-03 0.  1.
         11   -1    0    0    0    0 -0.00000000000E+00 -0.00000000000E+00 -0.45593999997E+02  0.45594000000E+02  0.51100000000E-03 0. -1.
    9900012    2    1    2    0    0 -0.69899881159E+01 -0.40801730940E+02  0.13037717018E+02  0.47787271359E+02  0.20000001432E+02 0.  0.
         12    1    1    2    0    0  0.69899881159E+01  0.40801730940E+02 -0.13037717018E+02  0.43400728641E+02  0.00000000000E+00 0. -1.
         11    1    3    3    0    0  0.17928074944E+01  0.11924785700E+01  0.23786978096E+01  0.32084836578E+01  0.51100000000E-03 0. -1.
        -11    1    3    3    0    0 -0.89573144868E+01 -0.33509054926E+02  0.98290132639E+01  0.36051348752E+02  0.51100000000E-03 0.  1.
        -12    1    3    3    0    0  0.17451887644E+00 -0.84851545842E+01  0.83000594423E+00  0.85274389487E+01  0.00000000000E+00 0.  1.
</event>
<event>
 7    1  0.2455451E-009  0.4778727E+02  0.7816164E-02  0.1312668E+00
        -11   -1    0    0    0    0  0.00000000000E+00  0.00000000000E+00  0.45593999997E+02  0.45594000000E+02  0.51100000000E-03 0.  1.
         11   -1    0    0    0    0 -0.00000000000E+00 -0.00000000000E+00 -0.45593999997E+02  0.45594000000E+02  0.51100000000E-03 0. -1.
    9900012    2    1    2    0    0 -0.37542432554E+01 -0.29669287489E+02  0.31452541746E+02  0.47787270228E+02  0.19999996275E+02 0.  0.
         12    1    1    2    0    0  0.37542432554E+01  0.29669287489E+02 -0.31452541746E+02  0.43400729772E+02  0.00000000000E+00 0. -1.
         11    1    3    3    0    0  0.20255878338E+01 -0.24287084131E+01 -0.15613721842E+01  0.35269695189E+01  0.51100000000E-03 0. -1.
        -11    1    3    3    0    0 -0.47377389463E+01 -0.18606760976E+02  0.28757151089E+02  0.34577904265E+02  0.51100000000E-03 0.  1.
        -12    1    3    3    0    0 -0.10420921429E+01 -0.86338180995E+01  0.42567628416E+01  0.96823964440E+01  0.00000000000E+00 0.  1.
</event>
<event>
 7    1  0.2455451E-009  0.4778727E+02  0.7816164E-02  0.1312668E+00
        -11   -1    0    0    0    0  0.00000000000E+00  0.00000000000E+00  0.45593999997E+02  0.45594000000E+02  0.51100000000E-03 0.  1.
         11   -1    0    0    0    0 -0.00000000000E+00 -0.00000000000E+00 -0.45593999997E+02  0.45594000000E+02  0.51100000000E-03 0. -1.
    9900012    2    1    2    0    0 -0.25155989571E+02 -0.34102738978E+02 -0.93703020439E+01  0.47787272154E+02  0.20000005061E+02 0.  0.
         12    1    1    2    0    0  0.25155989571E+02  0.34102738978E+02  0.93703020439E+01  0.43400727846E+02  0.00000000000E+00 0. -1.
         11    1    3    3    0    0 -0.22202055916E+01  0.99150890328E+00 -0.30627942160E+01  0.39106407972E+01  0.51100000000E-03 0. -1.
        -11    1    3    3    0    0 -0.16163795991E+02 -0.17792950060E+02  0.62287184523E+00  0.24046732466E+02  0.51100000000E-03 0.  1.
         12    1    3    3    0    0 -0.67719879882E+01 -0.17301297822E+02 -0.69303796732E+01  0.19829898892E+02  0.00000000000E+00 0. -1.
</event>
<event>
 7    1  0.2455451E-009  0.4778728E+02  0.7816164E-02  0.1312668E+00
        -11   -1    0    0    0    0  0.00000000000E+00  0.00000000000E+00  0.45593999997E+02  0.45594000000E+02  0.51100000000E-03 0. -1.
         11   -1    0    0    0    0 -0.00000000000E+00 -0.00000000000E+00 -0.45593999997E+02  0.45594000000E+02  0.51100000000E-03 0.  1.
    9900012    2    1    2    0    0  0.68804121923E+01 -0.40059937741E+02 -0.15214595101E+02  0.47787278948E+02  0.20000036034E+02 0.  0.
         12    1    1    2    0    0 -0.68804121923E+01  0.40059937741E+02  0.15214595101E+02  0.43400721052E+02  0.00000000000E+00 0. -1.
         11    1    3    3    0    0 -0.33842004248E+01 -0.14308882039E+02 -0.39730819474E+01  0.15230965109E+02  0.51100000000E-03 0.  1.
        -11    1    3    3    0    0  0.55125049883E+01 -0.18422950782E+01 -0.25330274063E+00  0.58177250658E+01  0.51100000000E-03 0. -1.
        -12    1    3    3    0    0  0.47521076288E+01 -0.23908760624E+02 -0.10988210413E+02  0.26738588773E+02  0.00000000000E+00 0.  1.
</event>
<event>
 7    1  0.2455451E-009  0.4778728E+02  0.7816164E-02  0.1312668E+00
        -11   -1    0    0    0    0  0.00000000000E+00  0.00000000000E+00  0.45593999997E+02  0.45594000000E+02  0.51100000000E-03 0.  1.
         11   -1    0    0    0    0 -0.00000000000E+00 -0.00000000000E+00 -0.45593999997E+02  0.45594000000E+02  0.51100000000E-03 0. -1.
    9900012    2    1    2    0    0 -0.12051366069E+02  0.41025659172E+02 -0.74352283479E+01  0.47787277019E+02  0.20000027242E+02 0.  0.
         12    1    1    2    0    0  0.12051366069E+02 -0.41025659172E+02  0.74352283479E+01  0.43400722981E+02  0.00000000000E+00 0. -1.
         11    1    3    3    0    0 -0.81734827968E+00  0.22840052911E+02  0.23428531662E+01  0.22974443114E+02  0.51100000000E-03 0. -1.
        -11    1    3    3    0    0  0.77315601211E+00  0.34749722406E+01 -0.25290051130E+00  0.35689159729E+01  0.51100000000E-03 0.  1.
         12    1    3    3    0    0 -0.12007173801E+02  0.14710634021E+02 -0.95251810028E+01  0.21243917933E+02  0.00000000000E+00 0. -1.
</event>
<event>
 7    1  0.2455451E-009  0.4778726E+02  0.7816164E-02  0.1312668E+00
        -11   -1    0    0    0    0  0.00000000000E+00  0.00000000000E+00  0.45593999997E+02  0.45594000000E+02  0.51100000000E-03 0.  1.
         11   -1    0    0    0    0 -0.00000000000E+00 -0.00000000000E+00 -0.45593999997E+02  0.45594000000E+02  0.51100000000E-03 0. -1.
    9900012    2    1    2    0    0 -0.23068713615E+01  0.34568174004E+02  0.26140840747E+02  0.47787264242E+02  0.19999968983E+02 0.  0.
         12    1    1    2    0    0  0.23068713615E+01 -0.34568174004E+02 -0.26140840747E+02  0.43400735758E+02  0.00000000000E+00 0. -1.
         11    1    3    3    0    0  0.14787962429E+01  0.21333588035E+01 -0.22385753393E+01  0.34277219729E+01  0.51100000000E-03 0. -1.
        -11    1    3    3    0    0 -0.66017440366E+00  0.25844962593E+02  0.26053942383E+02  0.36704302685E+02  0.51100000000E-03 0.  1.
        -12    1    3    3    0    0 -0.31254932008E+01  0.65898526074E+01  0.23254737039E+01  0.76552395837E+01  0.00000000000E+00 0.  1.
</event>
<event>
 7    1  0.2455451E-009  0.4778727E+02  0.7816164E-02  0.1312668E+00
        -11   -1    0    0    0    0  0.00000000000E+00  0.00000000000E+00  0.45593999997E+02  0.45594000000E+02  0.51100000000E-03 0.  1.
         11   -1    0    0    0    0 -0.00000000000E+00 -0.00000000000E+00 -0.45593999997E+02  0.45594000000E+02  0.51100000000E-03 0. -1.
    9900012    2    1    2    0    0  0.33826474798E+02  0.15975068776E+02  0.22004320079E+02  0.47787270492E+02  0.19999997483E+02 0.  0.
         12    1    1    2    0    0 -0.33826474798E+02 -0.15975068776E+02 -0.22004320079E+02  0.43400729508E+02  0.00000000000E+00 0. -1.
         11    1    3    3    0    0  0.13149105157E+02  0.29767513870E+01 -0.18527532713E+01  0.13608552833E+02  0.51100000000E-03 0. -1.
        -11    1    3    3    0    0  0.73086829811E+01  0.49981630063E+01  0.96079103535E+01  0.13065619847E+02  0.51100000000E-03 0.  1.
         12    1    3    3    0    0  0.13368686659E+02  0.80001543831E+01  0.14249162997E+02  0.21113097813E+02  0.00000000000E+00 0. -1.
</event>
<event>
 7    1  0.2455451E-009  0.4778727E+02  0.7816164E-02  0.1312668E+00
        -11   -1    0    0    0    0  0.00000000000E+00  0.00000000000E+00  0.45593999997E+02  0.45594000000E+02  0.51100000000E-03 0.  1.
         11   -1    0    0    0    0 -0.00000000000E+00 -0.00000000000E+00 -0.45593999997E+02  0.45594000000E+02  0.51100000000E-03 0. -1.
    9900012    2    1    2    0    0  0.19775757908E+02  0.29176221596E+01  0.38523108638E+02  0.47787273980E+02  0.20000013384E+02 0.  0.
         12    1    1    2    0    0 -0.19775757908E+02 -0.29176221596E+01 -0.38523108638E+02  0.43400726020E+02  0.00000000000E+00 0. -1.
         11    1    3    3    0    0  0.27572095471E+01 -0.36149330586E+01  0.28229255792E+00  0.45551767094E+01  0.51100000000E-03 0. -1.
        -11    1    3    3    0    0  0.15963963257E+02  0.31676436733E+01  0.27821657389E+02  0.32232386034E+02  0.51100000000E-03 0.  1.
        -12    1    3    3    0    0  0.10545851034E+01  0.33649115449E+01  0.10419158692E+02  0.10999711237E+02  0.00000000000E+00 0.  1.
</event>
<event>
 7    1  0.2455451E-009  0.4778727E+02  0.7816164E-02  0.1312668E+00
        -11   -1    0    0    0    0  0.00000000000E+00  0.00000000000E+00  0.45593999997E+02  0.45594000000E+02  0.51100000000E-03 0.  1.
         11   -1    0    0    0    0 -0.00000000000E+00 -0.00000000000E+00 -0.45593999997E+02  0.45594000000E+02  0.51100000000E-03 0. -1.
    9900012    2    1    2    0    0 -0.55211464576E+01 -0.19910277690E+01  0.43002051073E+02  0.47787266755E+02  0.19999980442E+02 0.  0.
         12    1    1    2    0    0  0.55211464576E+01  0.19910277690E+01 -0.43002051073E+02  0.43400733245E+02  0.00000000000E+00 0. -1.
         11    1    3    3    0    0  0.61612908072E+01 -0.16506815490E+01  0.89966176186E+01  0.11028389856E+02  0.51100000000E-03 0. -1.
        -11    1    3    3    0    0 -0.12211101466E+02  0.95234724825E+00  0.32361387670E+02  0.34601696150E+02  0.51100000000E-03 0.  1.
        -12    1    3    3    0    0  0.52866420097E+00 -0.12926934683E+01  0.16440457842E+01  0.21571807483E+01  0.00000000000E+00 0.  1.
</event>
<event>
 7    1  0.2455451E-009  0.4778726E+02  0.7816164E-02  0.1312668E+00
        -11   -1    0    0    0    0  0.00000000000E+00  0.00000000000E+00  0.45593999997E+02  0.45594000000E+02  0.51100000000E-03 0.  1.
         11   -1    0    0    0    0 -0.00000000000E+00 -0.00000000000E+00 -0.45593999997E+02  0.45594000000E+02  0.51100000000E-03 0. -1.
    9900012    2    1    2    0    0 -0.19014448197E+02  0.22143640211E+02  0.32120621381E+02  0.47787258532E+02  0.19999942952E+02 0.  0.
         12    1    1    2    0    0  0.19014448197E+02 -0.22143640211E+02 -0.32120621381E+02  0.43400741468E+02  0.00000000000E+00 0. -1.
         11    1    3    3    0    0  0.19358834034E+01 -0.33290574771E+00  0.78539014662E+01  0.80958161597E+01  0.51100000000E-03 0. -1.
        -11    1    3    3    0    0 -0.12117838489E+02  0.12073621150E+02  0.17453415037E+02  0.24438413083E+02  0.51100000000E-03 0.  1.
         12    1    3    3    0    0 -0.88324931107E+01  0.10402924809E+02  0.68133048784E+01  0.15253029289E+02  0.00000000000E+00 0. -1.
</event>
<event>
 7    1  0.2455451E-009  0.4778727E+02  0.7816164E-02  0.1312668E+00
        -11   -1    0    0    0    0  0.00000000000E+00  0.00000000000E+00  0.45593999997E+02  0.45594000000E+02  0.51100000000E-03 0.  1.
         11   -1    0    0    0    0 -0.00000000000E+00 -0.00000000000E+00 -0.45593999997E+02  0.45594000000E+02  0.51100000000E-03 0. -1.
    9900012    2    1    2    0    0 -0.33979087930E+02  0.57472669922E+01  0.26382072861E+02  0.47787271171E+02  0.20000000578E+02 0.  0.
         12    1    1    2    0    0  0.33979087930E+02 -0.57472669922E+01 -0.26382072861E+02  0.43400728829E+02  0.00000000000E+00 0. -1.
         11    1    3    3    0    0 -0.26687122612E+02  0.34875665550E+01  0.22848750426E+02  0.35304830124E+02  0.51100000000E-03 0. -1.
        -11    1    3    3    0    0 -0.76721984193E+01  0.24025703692E+01  0.59689611411E+01  0.10013164851E+02  0.51100000000E-03 0.  1.
         12    1    3    3    0    0  0.38023310147E+00 -0.14286993197E+00 -0.24356387059E+01  0.24692761965E+01  0.00000000000E+00 0. -1.
</event>
<event>
 7    1  0.2455451E-009  0.4778727E+02  0.7816164E-02  0.1312668E+00
        -11   -1    0    0    0    0  0.00000000000E+00  0.00000000000E+00  0.45593999997E+02  0.45594000000E+02  0.51100000000E-03 0.  1.
         11   -1    0    0    0    0 -0.00000000000E+00 -0.00000000000E+00 -0.45593999997E+02  0.45594000000E+02  0.51100000000E-03 0. -1.
    9900012    2    1    2    0    0 -0.34457828289E+02 -0.10523813372E+02  0.24197741318E+02  0.47787271168E+02  0.20000000564E+02 0.  0.
         12    1    1    2    0    0  0.34457828289E+02  0.10523813372E+02 -0.24197741318E+02  0.43400728832E+02  0.00000000000E+00 0. -1.
         11    1    3    3    0    0  0.19059855019E+00 -0.11894860739E+01  0.23524162599E+00  0.12274134637E+01  0.51100000000E-03 0. -1.
        -11    1    3    3    0    0  0.20440947487E+01 -0.10750058550E+01  0.13961592298E+01  0.26987444833E+01  0.51100000000E-03 0.  1.
        -12    1    3    3    0    0 -0.36692521588E+02 -0.82593214428E+01  0.22566340462E+02  0.43861113221E+02  0.00000000000E+00 0.  1.
</event>
<event>
 7    1  0.2455451E-009  0.4778727E+02  0.7816164E-02  0.1312668E+00
        -11   -1    0    0    0    0  0.00000000000E+00  0.00000000000E+00  0.45593999997E+02  0.45594000000E+02  0.51100000000E-03 0.  1.
         11   -1    0    0    0    0 -0.00000000000E+00 -0.00000000000E+00 -0.45593999997E+02  0.45594000000E+02  0.51100000000E-03 0. -1.
    9900012    2    1    2    0    0 -0.11723807256E+02 -0.33661753165E+02  0.24760088580E+02  0.47787271098E+02  0.20000000244E+02 0.  0.
         12    1    1    2    0    0  0.11723807256E+02  0.33661753165E+02 -0.24760088580E+02  0.43400728902E+02  0.00000000000E+00 0. -1.
         11    1    3    3    0    0  0.11298269117E+01 -0.25657305130E+01  0.12311066434E+01  0.30618794464E+01  0.51100000000E-03 0. -1.
        -11    1    3    3    0    0 -0.34526956343E+01 -0.26462681435E+02  0.20961100068E+02  0.33934677429E+02  0.51100000000E-03 0.  1.
        -12    1    3    3    0    0 -0.94009385336E+01 -0.46333412173E+01  0.25678818681E+01  0.10790714223E+02  0.00000000000E+00 0.  1.
</event>
<event>
 7    1  0.2455451E-009  0.4778729E+02  0.7816164E-02  0.1312668E+00
        -11   -1    0    0    0    0  0.00000000000E+00  0.00000000000E+00  0.45593999997E+02  0.45594000000E+02  0.51100000000E-03 0. -1.
         11   -1    0    0    0    0 -0.00000000000E+00 -0.00000000000E+00 -0.45593999997E+02  0.45594000000E+02  0.51100000000E-03 0.  1.
    9900012    2    1    2    0    0  0.31543994534E+02  0.39347860294E+01 -0.29548534522E+02  0.47787285437E+02  0.20000065620E+02 0.  0.
         12    1    1    2    0    0 -0.31543994534E+02 -0.39347860294E+01  0.29548534522E+02  0.43400714563E+02  0.00000000000E+00 0. -1.
         11    1    3    3    0    0  0.23806072213E+02  0.48553508041E+01 -0.22346833133E+02  0.33010368931E+02  0.51100000000E-03 0.  1.
        -11    1    3    3    0    0 -0.93589554386E+00 -0.36110568294E+01 -0.29165913120E+01  0.47352019002E+01  0.51100000000E-03 0. -1.
         12    1    3    3    0    0  0.86738178649E+01  0.26904920546E+01 -0.42851100764E+01  0.10041714605E+02  0.00000000000E+00 0. -1.
</event>
<event>
 7    1  0.2455451E-009  0.4778728E+02  0.7816164E-02  0.1312668E+00
        -11   -1    0    0    0    0  0.00000000000E+00  0.00000000000E+00  0.45593999997E+02  0.45594000000E+02  0.51100000000E-03 0.  1.
         11   -1    0    0    0    0 -0.00000000000E+00 -0.00000000000E+00 -0.45593999997E+02  0.45594000000E+02  0.51100000000E-03 0. -1.
    9900012    2    1    2    0    0 -0.62230346930E+01 -0.24288661092E+02  0.35425378983E+02  0.47787277718E+02  0.20000030429E+02 0.  0.
         12    1    1    2    0    0  0.62230346930E+01  0.24288661092E+02 -0.35425378983E+02  0.43400722282E+02  0.00000000000E+00 0. -1.
         11    1    3    3    0    0 -0.10041220099E+01 -0.11820102774E+01  0.48878064590E+01  0.51279685596E+01  0.51100000000E-03 0. -1.
        -11    1    3    3    0    0 -0.14568177271E+01  0.92721958270E+00  0.11871885891E+02  0.11996821617E+02  0.51100000000E-03 0.  1.
        -12    1    3    3    0    0 -0.37620949560E+01 -0.24033870398E+02  0.18665686633E+02  0.30662487542E+02  0.00000000000E+00 0.  1.
</event>
<event>
 7    1  0.2455451E-009  0.4778727E+02  0.7816164E-02  0.1312668E+00
        -11   -1    0    0    0    0  0.00000000000E+00  0.00000000000E+00  0.45593999997E+02  0.45594000000E+02  0.51100000000E-03 0.  1.
         11   -1    0    0    0    0 -0.00000000000E+00 -0.00000000000E+00 -0.45593999997E+02  0.45594000000E+02  0.51100000000E-03 0. -1.
    9900012    2    1    2    0    0  0.10717603922E+02  0.29674986945E+02  0.29801868513E+02  0.47787271309E+02  0.20000001207E+02 0.  0.
         12    1    1    2    0    0 -0.10717603922E+02 -0.29674986945E+02 -0.29801868513E+02  0.43400728691E+02  0.00000000000E+00 0. -1.
         11    1    3    3    0    0 -0.67019755578E+00  0.88244493529E+01  0.18997543367E+02  0.20957736648E+02  0.51100000000E-03 0. -1.
        -11    1    3    3    0    0  0.93013353963E+01  0.19306159548E+02  0.76731129097E+01  0.22762234043E+02  0.51100000000E-03 0.  1.
        -12    1    3    3    0    0  0.20864660815E+01  0.15443780441E+01  0.31312122366E+01  0.40673006188E+01  0.00000000000E+00 0.  1.
</event>
<event>
 7    1  0.2455451E-009  0.4778727E+02  0.7816164E-02  0.1312668E+00
        -11   -1    0    0    0    0  0.00000000000E+00  0.00000000000E+00  0.45593999997E+02  0.45594000000E+02  0.51100000000E-03 0.  1.
         11   -1    0    0    0    0 -0.00000000000E+00 -0.00000000000E+00 -0.45593999997E+02  0.45594000000E+02  0.51100000000E-03 0. -1.
    9900012    2    1    2    0    0 -0.38077129089E+01 -0.25092228955E+02  0.35206602411E+02  0.47787268614E+02  0.19999988917E+02 0.  0.
         12    1    1    2    0    0  0.38077129089E+01  0.25092228955E+02 -0.35206602411E+02  0.43400731386E+02  0.00000000000E+00 0. -1.
         11    1    3    3    0    0 -0.69954393866E+00  0.12293973936E+01  0.53899971216E+01  0.55725083136E+01  0.51100000000E-03 0. -1.
        -11    1    3    3    0    0 -0.72581694985E+01 -0.18122735871E+02  0.14367396081E+02  0.24239155314E+02  0.51100000000E-03 0.  1.
        -12    1    3    3    0    0  0.41500005283E+01 -0.81988904777E+01  0.15449209208E+02  0.17975604986E+02  0.00000000000E+00 0.  1.
</event>
<event>
 7    1  0.2455451E-009  0.4778727E+02  0.7816164E-02  0.1312668E+00
        -11   -1    0    0    0    0  0.00000000000E+00  0.00000000000E+00  0.45593999997E+02  0.45594000000E+02  0.51100000000E-03 0. -1.
         11   -1    0    0    0    0 -0.00000000000E+00 -0.00000000000E+00 -0.45593999997E+02  0.45594000000E+02  0.51100000000E-03 0.  1.
    9900012    2    1    2    0    0 -0.16134045819E+02 -0.14790753807E+02 -0.37477323522E+02  0.47787267160E+02  0.19999982290E+02 0.  0.
         12    1    1    2    0    0  0.16134045819E+02  0.14790753807E+02  0.37477323522E+02  0.43400732840E+02  0.00000000000E+00 0. -1.
         11    1    3    3    0    0 -0.66360775167E+01 -0.20806807199E+01 -0.13059805645E+01  0.70761813545E+01  0.51100000000E-03 0. -1.
        -11    1    3    3    0    0 -0.70438260582E+01 -0.12765814999E+02 -0.22430779505E+02  0.26752969697E+02  0.51100000000E-03 0.  1.
        -12    1    3    3    0    0 -0.24541422444E+01  0.55741912435E-01 -0.13740563453E+02  0.13958116109E+02  0.00000000000E+00 0.  1.
</event>
<event>
 7    1  0.2455451E-009  0.4778727E+02  0.7816164E-02  0.1312668E+00
        -11   -1    0    0    0    0  0.00000000000E+00  0.00000000000E+00  0.45593999997E+02  0.45594000000E+02  0.51100000000E-03 0. -1.
         11   -1    0    0    0    0 -0.00000000000E+00 -0.00000000000E+00 -0.45593999997E+02  0.45594000000E+02  0.51100000000E-03 0.  1.
    9900012    2    1    2    0    0 -0.95840606928E+01  0.35156465586E+02 -0.23575245454E+02  0.47787268553E+02  0.19999988642E+02 0.  0.
         12    1    1    2    0    0  0.95840606928E+01 -0.35156465586E+02  0.23575245454E+02  0.43400731447E+02  0.00000000000E+00 0. -1.
         11    1    3    3    0    0 -0.32701628685E+01  0.14243200094E+01 -0.17870221447E+00  0.35713565236E+01  0.51100000000E-03 0. -1.
        -11    1    3    3    0    0  0.88646362511E+00  0.29319501331E+01 -0.89174186793E+01  0.94288125182E+01  0.51100000000E-03 0.  1.
        -12    1    3    3    0    0 -0.72003614494E+01  0.30800195444E+02 -0.14479124561E+02  0.34787099511E+02  0.00000000000E+00 0.  1.
</event>
<event>
 7    1  0.2455451E-009  0.4778727E+02  0.7816164E-02  0.1312668E+00
        -11   -1    0    0    0    0  0.00000000000E+00  0.00000000000E+00  0.45593999997E+02  0.45594000000E+02  0.51100000000E-03 0. -1.
         11   -1    0    0    0    0 -0.00000000000E+00 -0.00000000000E+00 -0.45593999997E+02  0.45594000000E+02  0.51100000000E-03 0.  1.
    9900012    2    1    2    0    0 -0.40678024613E+02  0.10035848362E+02 -0.11322698198E+02  0.47787269208E+02  0.19999991628E+02 0.  0.
         12    1    1    2    0    0  0.40678024613E+02 -0.10035848362E+02  0.11322698198E+02  0.43400730792E+02  0.00000000000E+00 0. -1.
         11    1    3    3    0    0 -0.14380964456E+02  0.21448411603E+01 -0.13715007425E+01  0.14604571094E+02  0.51100000000E-03 0. -1.
        -11    1    3    3    0    0 -0.94220336590E+01  0.87207860265E+01  0.12688945913E+01  0.12901043405E+02  0.51100000000E-03 0.  1.
        -12    1    3    3    0    0 -0.16875026498E+02 -0.82977882470E+00 -0.11220092047E+02  0.20281654709E+02  0.00000000000E+00 0.  1.
</event>
<event>
 7    1  0.2455451E-009  0.4778727E+02  0.7816164E-02  0.1312668E+00
        -11   -1    0    0    0    0  0.00000000000E+00  0.00000000000E+00  0.45593999997E+02  0.45594000000E+02  0.51100000000E-03 0. -1.
         11   -1    0    0    0    0 -0.00000000000E+00 -0.00000000000E+00 -0.45593999997E+02  0.45594000000E+02  0.51100000000E-03 0.  1.
    9900012    2    1    2    0    0  0.19271362602E+02 -0.32054043390E+02 -0.22017634523E+02  0.47787270235E+02  0.19999996308E+02 0.  0.
         12    1    1    2    0    0 -0.19271362602E+02  0.32054043390E+02  0.22017634523E+02  0.43400729765E+02  0.00000000000E+00 0. -1.
         11    1    3    3    0    0 -0.43890183402E+00 -0.43379097219E+01  0.10915822443E+00  0.43614230883E+01  0.51100000000E-03 0. -1.
        -11    1    3    3    0    0  0.43083786979E+01 -0.38237901591E+01 -0.11890753443E+02  0.13212627138E+02  0.51100000000E-03 0.  1.
        -12    1    3    3    0    0  0.15401885738E+02 -0.23892343509E+02 -0.10236039305E+02  0.30213220009E+02  0.00000000000E+00 0.  1.
</event>
<event>
 7    1  0.2455451E-009  0.4778728E+02  0.7816164E-02  0.1312668E+00
        -11   -1    0    0    0    0  0.00000000000E+00  0.00000000000E+00  0.45593999997E+02  0.45594000000E+02  0.51100000000E-03 0. -1.
         11   -1    0    0    0    0 -0.00000000000E+00 -0.00000000000E+00 -0.45593999997E+02  0.45594000000E+02  0.51100000000E-03 0.  1.
    9900012    2    1    2    0    0 -0.32618455152E+02 -0.26475732617E+02  0.10894697626E+02  0.47787280300E+02  0.20000042201E+02 0.  0.
         12    1    1    2    0    0  0.32618455152E+02  0.26475732617E+02 -0.10894697626E+02  0.43400719700E+02  0.00000000000E+00 0. -1.
         11    1    3    3    0    0 -0.10667061138E+02 -0.53003161295E+01  0.36597406087E+01  0.12460868588E+02  0.51100000000E-03 0. -1.
        -11    1    3    3    0    0 -0.74919116685E+01  0.16171177816E+00 -0.23088078592E+01  0.78412680824E+01  0.51100000000E-03 0.  1.
        -12    1    3    3    0    0 -0.14459482346E+02 -0.21337128266E+02  0.95437648764E+01  0.27485143630E+02  0.00000000000E+00 0.  1.
</event>
<event>
 7    1  0.2455451E-009  0.4778729E+02  0.7816164E-02  0.1312668E+00
        -11   -1    0    0    0    0  0.00000000000E+00  0.00000000000E+00  0.45593999997E+02  0.45594000000E+02  0.51100000000E-03 0. -1.
         11   -1    0    0    0    0 -0.00000000000E+00 -0.00000000000E+00 -0.45593999997E+02  0.45594000000E+02  0.51100000000E-03 0.  1.
    9900012    2    1    2    0    0  0.22131107271E+02  0.36917236678E+02 -0.55635869776E+01  0.47787288335E+02  0.20000078835E+02 0.  0.
         12    1    1    2    0    0 -0.22131107271E+02 -0.36917236678E+02  0.55635869776E+01  0.43400711665E+02  0.00000000000E+00 0. -1.
         11    1    3    3    0    0  0.95331460800E+01  0.25769583634E+02 -0.75408293180E+01  0.28492392352E+02  0.51100000000E-03 0.  1.
        -11    1    3    3    0    0  0.11486463831E+02  0.64683947218E+01  0.44159162353E+01  0.13902492513E+02  0.51100000000E-03 0. -1.
        -12    1    3    3    0    0  0.11114973606E+01  0.46792583213E+01 -0.24386738948E+01  0.53924034702E+01  0.00000000000E+00 0.  1.
</event>
<event>
 7    1  0.2455451E-009  0.4778727E+02  0.7816164E-02  0.1312668E+00
        -11   -1    0    0    0    0  0.00000000000E+00  0.00000000000E+00  0.45593999997E+02  0.45594000000E+02  0.51100000000E-03 0.  1.
         11   -1    0    0    0    0 -0.00000000000E+00 -0.00000000000E+00 -0.45593999997E+02  0.45594000000E+02  0.51100000000E-03 0. -1.
    9900012    2    1    2    0    0  0.97448563493E+01  0.42006209110E+02 -0.49131998738E+01  0.47787270028E+02  0.19999995368E+02 0.  0.
         12    1    1    2    0    0 -0.97448563493E+01 -0.42006209110E+02  0.49131998738E+01  0.43400729972E+02  0.00000000000E+00 0. -1.
         11    1    3    3    0    0  0.10481628745E+02  0.39228906309E+02  0.15613148300E+01  0.40635075189E+02  0.51100000000E-03 0.  1.
        -11    1    3    3    0    0  0.27872665371E-01  0.16878532462E+01 -0.40193929111E+01  0.43594890872E+01  0.51100000000E-03 0. -1.
        -12    1    3    3    0    0 -0.76464506123E+00  0.10894495549E+01 -0.24551217926E+01  0.27927057523E+01  0.00000000000E+00 0.  1.
</event>
<event>
 7    1  0.2455451E-009  0.4778727E+02  0.7816164E-02  0.1312668E+00
        -11   -1    0    0    0    0  0.00000000000E+00  0.00000000000E+00  0.45593999997E+02  0.45594000000E+02  0.51100000000E-03 0. -1.
         11   -1    0    0    0    0 -0.00000000000E+00 -0.00000000000E+00 -0.45593999997E+02  0.45594000000E+02  0.51100000000E-03 0.  1.
    9900012    2    1    2    0    0 -0.85339998546E+01 -0.39903778552E+02 -0.14781160807E+02  0.47787269464E+02  0.19999992795E+02 0.  0.
         12    1    1    2    0    0  0.85339998546E+01  0.39903778552E+02  0.14781160807E+02  0.43400730536E+02  0.00000000000E+00 0. -1.
         11    1    3    3    0    0 -0.20860933925E+01 -0.11260525348E+02 -0.35662434781E+01  0.11994553329E+02  0.51100000000E-03 0. -1.
        -11    1    3    3    0    0 -0.10184053580E+02 -0.17645665597E+02 -0.12813945369E+02  0.24068270770E+02  0.51100000000E-03 0.  1.
        -12    1    3    3    0    0  0.37361471176E+01 -0.10997587607E+02  0.15990280402E+01  0.11724445365E+02  0.00000000000E+00 0.  1.
</event>
<event>
 7    1  0.2455451E-009  0.4778727E+02  0.7816164E-02  0.1312668E+00
        -11   -1    0    0    0    0  0.00000000000E+00  0.00000000000E+00  0.45593999997E+02  0.45594000000E+02  0.51100000000E-03 0.  1.
         11   -1    0    0    0    0 -0.00000000000E+00 -0.00000000000E+00 -0.45593999997E+02  0.45594000000E+02  0.51100000000E-03 0. -1.
    9900012    2    1    2    0    0  0.19865191430E+02 -0.22906603673E+02  0.31052935540E+02  0.47787272724E+02  0.20000007660E+02 0.  0.
         12    1    1    2    0    0 -0.19865191430E+02  0.22906603673E+02 -0.31052935540E+02  0.43400727276E+02  0.00000000000E+00 0. -1.
         11    1    3    3    0    0  0.16768305720E+01  0.90764567917E+00  0.58831395810E+01  0.61844088672E+01  0.51100000000E-03 0. -1.
        -11    1    3    3    0    0  0.18168484636E+02 -0.24783779484E+02  0.26055756386E+02  0.40289353439E+02  0.51100000000E-03 0.  1.
        -12    1    3    3    0    0  0.19876222272E-01  0.96953013143E+00 -0.88596042681E+00  0.13135104179E+01  0.00000000000E+00 0.  1.
</event>
<event>
 7    1  0.2455451E-009  0.4778729E+02  0.7816164E-02  0.1312668E+00
        -11   -1    0    0    0    0  0.00000000000E+00  0.00000000000E+00  0.45593999997E+02  0.45594000000E+02  0.51100000000E-03 0. -1.
         11   -1    0    0    0    0 -0.00000000000E+00 -0.00000000000E+00 -0.45593999997E+02  0.45594000000E+02  0.51100000000E-03 0.  1.
    9900012    2    1    2    0    0  0.24883227483E+02  0.33711249903E+02 -0.11313636472E+02  0.47787288598E+02  0.20000080032E+02 0.  0.
         12    1    1    2    0    0 -0.24883227483E+02 -0.33711249903E+02  0.11313636472E+02  0.43400711402E+02  0.00000000000E+00 0. -1.
         11    1    3    3    0    0  0.86277096193E+01  0.10011375185E+02  0.55583186362E+01  0.14337360730E+02  0.51100000000E-03 0. -1.
        -11    1    3    3    0    0  0.90656325430E+01  0.15216070241E+02 -0.93956200596E+01  0.20049742232E+02  0.51100000000E-03 0.  1.
         12    1    3    3    0    0  0.71898853207E+01  0.84838044765E+01 -0.74763350488E+01  0.13400185636E+02  0.00000000000E+00 0. -1.
</event>
<event>
 7    1  0.2455451E-009  0.4778727E+02  0.7816164E-02  0.1312668E+00
        -11   -1    0    0    0    0  0.00000000000E+00  0.00000000000E+00  0.45593999997E+02  0.45594000000E+02  0.51100000000E-03 0.  1.
         11   -1    0    0    0    0 -0.00000000000E+00 -0.00000000000E+00 -0.45593999997E+02  0.45594000000E+02  0.51100000000E-03 0. -1.
    9900012    2    1    2    0    0 -0.31372369619E+02 -0.13499655164E+02  0.26779782038E+02  0.47787274302E+02  0.20000014854E+02 0.  0.
         12    1    1    2    0    0  0.31372369619E+02  0.13499655164E+02 -0.26779782038E+02  0.43400725698E+02  0.00000000000E+00 0. -1.
         11    1    3    3    0    0 -0.50079489342E+01 -0.49869303745E+01  0.55335164011E+01  0.89760142107E+01  0.51100000000E-03 0. -1.
        -11    1    3    3    0    0 -0.15619598218E+02 -0.86480149922E-01  0.19592293360E+02  0.25056681478E+02  0.51100000000E-03 0.  1.
        -12    1    3    3    0    0 -0.10744822466E+02 -0.84262446396E+01  0.16539722778E+01  0.13754578614E+02  0.00000000000E+00 0.  1.
</event>
<event>
 7    1  0.2455451E-009  0.4778727E+02  0.7816164E-02  0.1312668E+00
        -11   -1    0    0    0    0  0.00000000000E+00  0.00000000000E+00  0.45593999997E+02  0.45594000000E+02  0.51100000000E-03 0.  1.
         11   -1    0    0    0    0 -0.00000000000E+00 -0.00000000000E+00 -0.45593999997E+02  0.45594000000E+02  0.51100000000E-03 0. -1.
    9900012    2    1    2    0    0 -0.40638319806E+02 -0.43803163737E+01  0.14593249985E+02  0.47787272433E+02  0.20000006332E+02 0.  0.
         12    1    1    2    0    0  0.40638319806E+02  0.43803163737E+01 -0.14593249985E+02  0.43400727567E+02  0.00000000000E+00 0. -1.
         11    1    3    3    0    0 -0.22159758551E+02  0.28297253755E+01  0.29353507526E+01  0.22531722727E+02  0.51100000000E-03 0. -1.
        -11    1    3    3    0    0 -0.58688533092E+01 -0.77210927854E+01  0.61643655538E+01  0.11491654185E+02  0.51100000000E-03 0.  1.
        -12    1    3    3    0    0 -0.12609707946E+02  0.51105103626E+00  0.54935336783E+01  0.13763895521E+02  0.00000000000E+00 0.  1.
</event>
<event>
 7    1  0.2455451E-009  0.4778727E+02  0.7816164E-02  0.1312668E+00
        -11   -1    0    0    0    0  0.00000000000E+00  0.00000000000E+00  0.45593999997E+02  0.45594000000E+02  0.51100000000E-03 0.  1.
         11   -1    0    0    0    0 -0.00000000000E+00 -0.00000000000E+00 -0.45593999997E+02  0.45594000000E+02  0.51100000000E-03 0. -1.
    9900012    2    1    2    0    0 -0.15866323150E+02 -0.31407298451E+02  0.25405994819E+02  0.47787272137E+02  0.20000004980E+02 0.  0.
         12    1    1    2    0    0  0.15866323150E+02  0.31407298451E+02 -0.25405994819E+02  0.43400727863E+02  0.00000000000E+00 0. -1.
         11    1    3    3    0    0 -0.31717571411E+01 -0.10610165594E+02  0.10030641788E+02  0.14941533798E+02  0.51100000000E-03 0. -1.
        -11    1    3    3    0    0 -0.58438000423E+01 -0.32259795875E+01 -0.22382496122E+01  0.70403625490E+01  0.51100000000E-03 0.  1.
        -12    1    3    3    0    0 -0.68507659670E+01 -0.17571153270E+02  0.17613602643E+02  0.25805375790E+02  0.00000000000E+00 0.  1.
</event>
<event>
 7    1  0.2455451E-009  0.4778727E+02  0.7816164E-02  0.1312668E+00
        -11   -1    0    0    0    0  0.00000000000E+00  0.00000000000E+00  0.45593999997E+02  0.45594000000E+02  0.51100000000E-03 0.  1.
         11   -1    0    0    0    0 -0.00000000000E+00 -0.00000000000E+00 -0.45593999997E+02  0.45594000000E+02  0.51100000000E-03 0. -1.
    9900012    2    1    2    0    0  0.10733131248E+02 -0.90780638550E+01  0.41061076281E+02  0.47787270339E+02  0.19999996785E+02 0.  0.
         12    1    1    2    0    0 -0.10733131248E+02  0.90780638550E+01 -0.41061076281E+02  0.43400729661E+02  0.00000000000E+00 0. -1.
         11    1    3    3    0    0  0.40588431582E+01 -0.69814930784E+01  0.33247832697E+01  0.87332489623E+01  0.51100000000E-03 0. -1.
        -11    1    3    3    0    0  0.11290706322E+01  0.25727073919E+01  0.10374194425E+02  0.10747908357E+02  0.51100000000E-03 0.  1.
         12    1    3    3    0    0  0.55452174572E+01 -0.46692781685E+01  0.27362098586E+02  0.28306113020E+02  0.00000000000E+00 0. -1.
</event>
<event>
 7    1  0.2455451E-009  0.4778727E+02  0.7816164E-02  0.1312668E+00
        -11   -1    0    0    0    0  0.00000000000E+00  0.00000000000E+00  0.45593999997E+02  0.45594000000E+02  0.51100000000E-03 0.  1.
         11   -1    0    0    0    0 -0.00000000000E+00 -0.00000000000E+00 -0.45593999997E+02  0.45594000000E+02  0.51100000000E-03 0. -1.
    9900012    2    1    2    0    0  0.32475143905E+01  0.10587788744E+01  0.43266108079E+02  0.47787268776E+02  0.19999989659E+02 0.  0.
         12    1    1    2    0    0 -0.32475143905E+01 -0.10587788744E+01 -0.43266108079E+02  0.43400731224E+02  0.00000000000E+00 0. -1.
         11    1    3    3    0    0 -0.26883608011E+01 -0.29436289577E+01  0.32243696568E+01  0.51272600073E+01  0.51100000000E-03 0.  1.
        -11    1    3    3    0    0  0.44419045683E+01  0.84566701387E+01  0.31437309763E+02  0.32856509727E+02  0.51100000000E-03 0. -1.
         12    1    3    3    0    0  0.14939706233E+01 -0.44542623066E+01  0.86044286593E+01  0.98034990423E+01  0.00000000000E+00 0. -1.
</event>
<event>
 7    1  0.2455451E-009  0.4778727E+02  0.7816164E-02  0.1312668E+00
        -11   -1    0    0    0    0  0.00000000000E+00  0.00000000000E+00  0.45593999997E+02  0.45594000000E+02  0.51100000000E-03 0.  1.
         11   -1    0    0    0    0 -0.00000000000E+00 -0.00000000000E+00 -0.45593999997E+02  0.45594000000E+02  0.51100000000E-03 0. -1.
    9900012    2    1    2    0    0  0.39969833465E+02 -0.15447240952E+02  0.68861013927E+01  0.47787271519E+02  0.20000002166E+02 0.  0.
         12    1    1    2    0    0 -0.39969833465E+02  0.15447240952E+02 -0.68861013927E+01  0.43400728481E+02  0.00000000000E+00 0. -1.
         11    1    3    3    0    0  0.57602561885E+01  0.36276378075E+01  0.45908901992E+00  0.68228344850E+01  0.51100000000E-03 0. -1.
        -11    1    3    3    0    0  0.26368033258E+02 -0.11033920647E+02  0.78531431345E+01  0.29642746838E+02  0.51100000000E-03 0.  1.
         12    1    3    3    0    0  0.78415440180E+01 -0.80409581122E+01 -0.14261307617E+01  0.11321690196E+02  0.00000000000E+00 0. -1.
</event>
<event>
 7    1  0.2455451E-009  0.4778729E+02  0.7816164E-02  0.1312668E+00
        -11   -1    0    0    0    0  0.00000000000E+00  0.00000000000E+00  0.45593999997E+02  0.45594000000E+02  0.51100000000E-03 0. -1.
         11   -1    0    0    0    0 -0.00000000000E+00 -0.00000000000E+00 -0.45593999997E+02  0.45594000000E+02  0.51100000000E-03 0.  1.
    9900012    2    1    2    0    0  0.24704149039E+02  0.35556579512E+02  0.30094401062E+01  0.47787285075E+02  0.20000063969E+02 0.  0.
         12    1    1    2    0    0 -0.24704149039E+02 -0.35556579512E+02 -0.30094401062E+01  0.43400714925E+02  0.00000000000E+00 0. -1.
         11    1    3    3    0    0  0.13900858983E+01  0.18193434003E+01  0.33124146190E+01  0.40267157936E+01  0.51100000000E-03 0. -1.
        -11    1    3    3    0    0  0.20973224343E+02  0.28166307993E+02 -0.57984025772E+01  0.35592675061E+02  0.51100000000E-03 0.  1.
        -12    1    3    3    0    0  0.23408387969E+01  0.55709281186E+01  0.54954280644E+01  0.81678942199E+01  0.00000000000E+00 0.  1.
</event>
<event>
 7    1  0.2455451E-009  0.4778723E+02  0.7816164E-02  0.1312668E+00
        -11   -1    0    0    0    0  0.00000000000E+00  0.00000000000E+00  0.45593999997E+02  0.45594000000E+02  0.51100000000E-03 0. -1.
         11   -1    0    0    0    0 -0.00000000000E+00 -0.00000000000E+00 -0.45593999997E+02  0.45594000000E+02  0.51100000000E-03 0.  1.
    9900012    2    1    2    0    0  0.12221361769E+02 -0.79103982643E+01 -0.40886314611E+02  0.47787230344E+02  0.19999814432E+02 0.  0.
         12    1    1    2    0    0 -0.12221361769E+02  0.79103982643E+01  0.40886314611E+02  0.43400769656E+02  0.00000000000E+00 0. -1.
         11    1    3    3    0    0  0.47101156549E+01 -0.12742556048E+02 -0.14527096022E+02  0.19889556134E+02  0.51100000000E-03 0. -1.
        -11    1    3    3    0    0  0.46260492991E+01  0.36294485268E+01 -0.19336078205E+02  0.20210322841E+02  0.51100000000E-03 0.  1.
         12    1    3    3    0    0  0.28851968149E+01  0.12027092567E+01 -0.70231403845E+01  0.76873513695E+01  0.00000000000E+00 0. -1.
</event>
<event>
 7    1  0.2455451E-009  0.4778727E+02  0.7816164E-02  0.1312668E+00
        -11   -1    0    0    0    0  0.00000000000E+00  0.00000000000E+00  0.45593999997E+02  0.45594000000E+02  0.51100000000E-03 0. -1.
         11   -1    0    0    0    0 -0.00000000000E+00 -0.00000000000E+00 -0.45593999997E+02  0.45594000000E+02  0.51100000000E-03 0.  1.
    9900012    2    1    2    0    0  0.32397061511E+02  0.28852978832E+02 -0.12486989228E+01  0.47787271538E+02  0.20000002251E+02 0.  0.
         12    1    1    2    0    0 -0.32397061511E+02 -0.28852978832E+02  0.12486989228E+01  0.43400728462E+02  0.00000000000E+00 0. -1.
         11    1    3    3    0    0  0.14310420782E+02  0.24273136292E+01  0.17560605368E+01  0.14620661520E+02  0.51100000000E-03 0. -1.
        -11    1    3    3    0    0  0.16452537504E+02  0.20236899423E+02 -0.47994217494E+01  0.26518909065E+02  0.51100000000E-03 0.  1.
         12    1    3    3    0    0  0.16341032240E+01  0.61887657796E+01  0.17946622897E+01  0.66477009526E+01  0.00000000000E+00 0. -1.
</event>
<event>
 7    1  0.2455451E-009  0.4778729E+02  0.7816164E-02  0.1312668E+00
        -11   -1    0    0    0    0  0.00000000000E+00  0.00000000000E+00  0.45593999997E+02  0.45594000000E+02  0.51100000000E-03 0.  1.
         11   -1    0    0    0    0 -0.00000000000E+00 -0.00000000000E+00 -0.45593999997E+02  0.45594000000E+02  0.51100000000E-03 0. -1.
    9900012    2    1    2    0    0 -0.78423444146E+01  0.30168915091E+02  0.30198610362E+02  0.47787287201E+02  0.20000073665E+02 0.  0.
         12    1    1    2    0    0  0.78423444146E+01 -0.30168915091E+02 -0.30198610362E+02  0.43400712799E+02  0.00000000000E+00 0. -1.
         11    1    3    3    0    0 -0.28426850005E+01  0.26261140145E+00  0.25420261890E+01  0.38225279812E+01  0.51100000000E-03 0. -1.
        -11    1    3    3    0    0 -0.17334291667E+01  0.10317345539E+02  0.20205937995E+02  0.22753732137E+02  0.51100000000E-03 0.  1.
        -12    1    3    3    0    0 -0.32662302474E+01  0.19588958150E+02  0.74506461774E+01  0.21211027083E+02  0.00000000000E+00 0.  1.
</event>
<event>
 7    1  0.2455451E-009  0.4778728E+02  0.7816164E-02  0.1312668E+00
        -11   -1    0    0    0    0  0.00000000000E+00  0.00000000000E+00  0.45593999997E+02  0.45594000000E+02  0.51100000000E-03 0.  1.
         11   -1    0    0    0    0 -0.00000000000E+00 -0.00000000000E+00 -0.45593999997E+02  0.45594000000E+02  0.51100000000E-03 0. -1.
    9900012    2    1    2    0    0 -0.53683130995E+01  0.41245344138E+02 -0.12394555625E+02  0.47787283327E+02  0.20000055999E+02 0.  0.
         12    1    1    2    0    0  0.53683130995E+01 -0.41245344138E+02  0.12394555625E+02  0.43400716673E+02  0.00000000000E+00 0. -1.
         11    1    3    3    0    0  0.62435833324E+01  0.16332366472E+02 -0.79975659878E+01  0.19227313629E+02  0.51100000000E-03 0. -1.
        -11    1    3    3    0    0 -0.77288860779E+01  0.10349288854E+02 -0.21687999290E+00  0.12918610490E+02  0.51100000000E-03 0.  1.
         12    1    3    3    0    0 -0.38830103540E+01  0.14563688813E+02 -0.41801096438E+01  0.15641359208E+02  0.00000000000E+00 0. -1.
</event>
<event>
 7    1  0.2455451E-009  0.4778726E+02  0.7816164E-02  0.1312668E+00
        -11   -1    0    0    0    0  0.00000000000E+00  0.00000000000E+00  0.45593999997E+02  0.45594000000E+02  0.51100000000E-03 0.  1.
         11   -1    0    0    0    0 -0.00000000000E+00 -0.00000000000E+00 -0.45593999997E+02  0.45594000000E+02  0.51100000000E-03 0. -1.
    9900012    2    1    2    0    0  0.16897666832E+02 -0.94526474607E+01  0.38842508126E+02  0.47787261229E+02  0.19999955246E+02 0.  0.
         12    1    1    2    0    0 -0.16897666832E+02  0.94526474607E+01 -0.38842508126E+02  0.43400738771E+02  0.00000000000E+00 0. -1.
         11    1    3    3    0    0  0.13119264384E+01 -0.90680334895E+01  0.53856955551E+01  0.10628080693E+02  0.51100000000E-03 0.  1.
        -11    1    3    3    0    0  0.15223808348E+02  0.47400236351E+00  0.31273663109E+02  0.34785500188E+02  0.51100000000E-03 0. -1.
         12    1    3    3    0    0  0.36193204530E+00 -0.85861633466E+00  0.21831494622E+01  0.23736803471E+01  0.00000000000E+00 0. -1.
</event>
<event>
 7    1  0.2455451E-009  0.4778727E+02  0.7816164E-02  0.1312668E+00
        -11   -1    0    0    0    0  0.00000000000E+00  0.00000000000E+00  0.45593999997E+02  0.45594000000E+02  0.51100000000E-03 0.  1.
         11   -1    0    0    0    0 -0.00000000000E+00 -0.00000000000E+00 -0.45593999997E+02  0.45594000000E+02  0.51100000000E-03 0. -1.
    9900012    2    1    2    0    0 -0.35456205749E+02 -0.20127248617E+02  0.14878673645E+02  0.47787267374E+02  0.19999983267E+02 0.  0.
         12    1    1    2    0    0  0.35456205749E+02  0.20127248617E+02 -0.14878673645E+02  0.43400732626E+02  0.00000000000E+00 0. -1.
         11    1    3    3    0    0 -0.28388072321E+02 -0.15658183457E+02  0.71957572948E+01  0.33209039170E+02  0.51100000000E-03 0. -1.
        -11    1    3    3    0    0  0.13871121770E+01 -0.36379354708E+01  0.24198456760E+01  0.45841365641E+01  0.51100000000E-03 0.  1.
         12    1    3    3    0    0 -0.84552456049E+01 -0.83112968953E+00  0.52630706746E+01  0.99940916409E+01  0.00000000000E+00 0. -1.
</event>
<event>
 7    1  0.2455451E-009  0.4778727E+02  0.7816164E-02  0.1312668E+00
        -11   -1    0    0    0    0  0.00000000000E+00  0.00000000000E+00  0.45593999997E+02  0.45594000000E+02  0.51100000000E-03 0.  1.
         11   -1    0    0    0    0 -0.00000000000E+00 -0.00000000000E+00 -0.45593999997E+02  0.45594000000E+02  0.51100000000E-03 0. -1.
    9900012    2    1    2    0    0  0.31250424316E+02  0.28837543104E+02  0.86850773771E+01  0.47787268655E+02  0.19999989108E+02 0.  0.
         12    1    1    2    0    0 -0.31250424316E+02 -0.28837543104E+02 -0.86850773771E+01  0.43400731345E+02  0.00000000000E+00 0. -1.
         11    1    3    3    0    0 -0.12849096711E+01  0.18571400675E+01  0.31042869541E+01  0.38388227164E+01  0.51100000000E-03 0. -1.
        -11    1    3    3    0    0  0.20189412671E+02  0.19972453506E+02 -0.73967587026E+00  0.28408773358E+02  0.51100000000E-03 0.  1.
         12    1    3    3    0    0  0.12345921316E+02  0.70079495299E+01  0.63204662933E+01  0.15539672581E+02  0.00000000000E+00 0. -1.
</event>
<event>
 7    1  0.2455451E-009  0.4778727E+02  0.7816164E-02  0.1312668E+00
        -11   -1    0    0    0    0  0.00000000000E+00  0.00000000000E+00  0.45593999997E+02  0.45594000000E+02  0.51100000000E-03 0.  1.
         11   -1    0    0    0    0 -0.00000000000E+00 -0.00000000000E+00 -0.45593999997E+02  0.45594000000E+02  0.51100000000E-03 0. -1.
    9900012    2    1    2    0    0  0.37891898243E+02  0.21201312829E+01 -0.21055455025E+02  0.47787273101E+02  0.20000009375E+02 0.  0.
         12    1    1    2    0    0 -0.37891898243E+02 -0.21201312829E+01  0.21055455025E+02  0.43400726899E+02  0.00000000000E+00 0. -1.
         11    1    3    3    0    0  0.69295738946E+01  0.59331425048E+01 -0.16098862168E+01  0.92635256914E+01  0.51100000000E-03 0. -1.
        -11    1    3    3    0    0  0.18497235225E+02 -0.70184440338E+01 -0.15273771056E+02  0.24993886255E+02  0.51100000000E-03 0.  1.
        -12    1    3    3    0    0  0.12465089123E+02  0.32054328120E+01 -0.41717977521E+01  0.13529861154E+02  0.00000000000E+00 0.  1.
</event>
<event>
 7    1  0.2455451E-009  0.4778727E+02  0.7816164E-02  0.1312668E+00
        -11   -1    0    0    0    0  0.00000000000E+00  0.00000000000E+00  0.45593999997E+02  0.45594000000E+02  0.51100000000E-03 0.  1.
         11   -1    0    0    0    0 -0.00000000000E+00 -0.00000000000E+00 -0.45593999997E+02  0.45594000000E+02  0.51100000000E-03 0. -1.
    9900012    2    1    2    0    0  0.41299508728E+02  0.72628269087E+01  0.11190401610E+02  0.47787272309E+02  0.20000005767E+02 0.  0.
         12    1    1    2    0    0 -0.41299508728E+02 -0.72628269087E+01 -0.11190401610E+02  0.43400727691E+02  0.00000000000E+00 0. -1.
         11    1    3    3    0    0  0.13852110248E+02 -0.56255354450E+01  0.59234544933E+01  0.16081508660E+02  0.51100000000E-03 0.  1.
        -11    1    3    3    0    0  0.13201400812E+02  0.10067332263E+02  0.43060065775E+01  0.17151380563E+02  0.51100000000E-03 0. -1.
        -12    1    3    3    0    0  0.14245997668E+02  0.28210300904E+01  0.96094053912E+00  0.14554383087E+02  0.00000000000E+00 0.  1.
</event>
<event>
 7    1  0.2455451E-009  0.4778727E+02  0.7816164E-02  0.1312668E+00
        -11   -1    0    0    0    0  0.00000000000E+00  0.00000000000E+00  0.45593999997E+02  0.45594000000E+02  0.51100000000E-03 0.  1.
         11   -1    0    0    0    0 -0.00000000000E+00 -0.00000000000E+00 -0.45593999997E+02  0.45594000000E+02  0.51100000000E-03 0. -1.
    9900012    2    1    2    0    0 -0.22383242504E+02 -0.23659672376E+02  0.28685077195E+02  0.47787270794E+02  0.19999998856E+02 0.  0.
         12    1    1    2    0    0  0.22383242504E+02  0.23659672376E+02 -0.28685077195E+02  0.43400729206E+02  0.00000000000E+00 0. -1.
         11    1    3    3    0    0 -0.53398813118E+01 -0.12622016397E+02  0.15371136834E+02  0.20593724242E+02  0.51100000000E-03 0. -1.
        -11    1    3    3    0    0 -0.12208631814E+02 -0.20263150247E+01  0.31388862889E+01  0.12767507616E+02  0.51100000000E-03 0.  1.
        -12    1    3    3    0    0 -0.48347293791E+01 -0.90113409541E+01  0.10175054073E+02  0.14426038935E+02  0.00000000000E+00 0.  1.
</event>
<event>
 7    1  0.2455451E-009  0.4778727E+02  0.7816164E-02  0.1312668E+00
        -11   -1    0    0    0    0  0.00000000000E+00  0.00000000000E+00  0.45593999997E+02  0.45594000000E+02  0.51100000000E-03 0.  1.
         11   -1    0    0    0    0 -0.00000000000E+00 -0.00000000000E+00 -0.45593999997E+02  0.45594000000E+02  0.51100000000E-03 0. -1.
    9900012    2    1    2    0    0  0.43035330530E+01  0.39563258674E+02  0.17316223474E+02  0.47787269257E+02  0.19999991851E+02 0.  0.
         12    1    1    2    0    0 -0.43035330530E+01 -0.39563258674E+02 -0.17316223474E+02  0.43400730743E+02  0.00000000000E+00 0. -1.
         11    1    3    3    0    0  0.28417495060E+01  0.14676920220E+00  0.44812338776E+01  0.53083461436E+01  0.51100000000E-03 0. -1.
        -11    1    3    3    0    0  0.24232346504E+01  0.32719564722E+02  0.70065404767E+01  0.33548973031E+02  0.51100000000E-03 0.  1.
         12    1    3    3    0    0 -0.96145110347E+00  0.66969247498E+01  0.58284491197E+01  0.89299500821E+01  0.00000000000E+00 0. -1.
</event>
<event>
 7    1  0.2455451E-009  0.4778727E+02  0.7816164E-02  0.1312668E+00
        -11   -1    0    0    0    0  0.00000000000E+00  0.00000000000E+00  0.45593999997E+02  0.45594000000E+02  0.51100000000E-03 0. -1.
         11   -1    0    0    0    0 -0.00000000000E+00 -0.00000000000E+00 -0.45593999997E+02  0.45594000000E+02  0.51100000000E-03 0.  1.
    9900012    2    1    2    0    0 -0.16740607253E+02 -0.37855102412E+02  0.13052461521E+02  0.47787268882E+02  0.19999990140E+02 0.  0.
         12    1    1    2    0    0  0.16740607253E+02  0.37855102412E+02 -0.13052461521E+02  0.43400731118E+02  0.00000000000E+00 0. -1.
         11    1    3    3    0    0 -0.10744613989E+02 -0.33188252694E+02  0.82057168614E+01  0.35836303327E+02  0.51100000000E-03 0.  1.
        -11    1    3    3    0    0 -0.69187283790E+01 -0.40743735525E+01  0.62464399439E+01  0.10172872478E+02  0.51100000000E-03 0. -1.
         12    1    3    3    0    0  0.92273511557E+00 -0.59247616538E+00 -0.13996952842E+01  0.17780930765E+01  0.00000000000E+00 0. -1.
</event>
<event>
 7    1  0.2455451E-009  0.4778727E+02  0.7816164E-02  0.1312668E+00
        -11   -1    0    0    0    0  0.00000000000E+00  0.00000000000E+00  0.45593999997E+02  0.45594000000E+02  0.51100000000E-03 0.  1.
         11   -1    0    0    0    0 -0.00000000000E+00 -0.00000000000E+00 -0.45593999997E+02  0.45594000000E+02  0.51100000000E-03 0. -1.
    9900012    2    1    2    0    0  0.46865457679E+00  0.24228504215E+01  0.43330515414E+02  0.47787269507E+02  0.19999992992E+02 0.  0.
         12    1    1    2    0    0 -0.46865457679E+00 -0.24228504215E+01 -0.43330515414E+02  0.43400730493E+02  0.00000000000E+00 0. -1.
         11    1    3    3    0    0  0.41079961047E+01  0.39488213157E+01  0.61271172147E+01  0.83672210084E+01  0.51100000000E-03 0. -1.
        -11    1    3    3    0    0 -0.20159100131E+01 -0.13570133222E+01  0.37649610547E+02  0.37727954529E+02  0.51100000000E-03 0.  1.
        -12    1    3    3    0    0 -0.16234315148E+01 -0.16895757206E+00 -0.44621234793E+00  0.16920939702E+01  0.00000000000E+00 0.  1.
</event>
<event>
 7    1  0.2455451E-009  0.4778727E+02  0.7816164E-02  0.1312668E+00
        -11   -1    0    0    0    0  0.00000000000E+00  0.00000000000E+00  0.45593999997E+02  0.45594000000E+02  0.51100000000E-03 0. -1.
         11   -1    0    0    0    0 -0.00000000000E+00 -0.00000000000E+00 -0.45593999997E+02  0.45594000000E+02  0.51100000000E-03 0.  1.
    9900012    2    1    2    0    0  0.29940426360E+02 -0.18840462491E+02  0.25144206810E+02  0.47787270817E+02  0.19999998964E+02 0.  0.
         12    1    1    2    0    0 -0.29940426360E+02  0.18840462491E+02 -0.25144206810E+02  0.43400729183E+02  0.00000000000E+00 0. -1.
         11    1    3    3    0    0  0.69586219238E+01 -0.21869251676E+01  0.15313720712E+02  0.16962166815E+02  0.51100000000E-03 0. -1.
        -11    1    3    3    0    0  0.16953608148E+02 -0.84635774243E+01  0.75870983297E+01  0.20411296710E+02  0.51100000000E-03 0.  1.
         12    1    3    3    0    0  0.60281962887E+01 -0.81899598989E+01  0.22433877685E+01  0.10413807292E+02  0.00000000000E+00 0. -1.
</event>
<event>
 7    1  0.2455451E-009  0.4778729E+02  0.7816164E-02  0.1312668E+00
        -11   -1    0    0    0    0  0.00000000000E+00  0.00000000000E+00  0.45593999997E+02  0.45594000000E+02  0.51100000000E-03 0.  1.
         11   -1    0    0    0    0 -0.00000000000E+00 -0.00000000000E+00 -0.45593999997E+02  0.45594000000E+02  0.51100000000E-03 0. -1.
    9900012    2    1    2    0    0 -0.46938691504E+01 -0.56608817082E+00  0.43142428312E+02  0.47787285904E+02  0.20000067749E+02 0.  0.
         12    1    1    2    0    0  0.46938691504E+01  0.56608817082E+00 -0.43142428312E+02  0.43400714096E+02  0.00000000000E+00 0. -1.
         11    1    3    3    0    0  0.60951150245E+01 -0.36183520048E+01  0.10455286777E+02  0.12631544650E+02  0.51100000000E-03 0. -1.
        -11    1    3    3    0    0 -0.82354398428E+01  0.45869713299E+01  0.19810998919E+02  0.21939426926E+02  0.51100000000E-03 0.  1.
         12    1    3    3    0    0 -0.25535443321E+01 -0.15347074959E+01  0.12876142616E+02  0.13216314328E+02  0.00000000000E+00 0. -1.
</event>
<event>
 7    1  0.2455451E-009  0.4778725E+02  0.7816164E-02  0.1312668E+00
        -11   -1    0    0    0    0  0.00000000000E+00  0.00000000000E+00  0.45593999997E+02  0.45594000000E+02  0.51100000000E-03 0. -1.
         11   -1    0    0    0    0 -0.00000000000E+00 -0.00000000000E+00 -0.45593999997E+02  0.45594000000E+02  0.51100000000E-03 0.  1.
    9900012    2    1    2    0    0  0.43321891333E+02 -0.21992218189E+01 -0.14150426412E+01  0.47787248959E+02  0.19999899302E+02 0.  0.
         12    1    1    2    0    0 -0.43321891333E+02  0.21992218189E+01  0.14150426412E+01  0.43400751041E+02  0.00000000000E+00 0. -1.
         11    1    3    3    0    0 -0.13647170612E+01 -0.10065003969E+01  0.22019980505E+00  0.17099660585E+01  0.51100000000E-03 0. -1.
        -11    1    3    3    0    0  0.28483194924E+02  0.45275883922E+01 -0.17434852761E+01  0.28893445466E+02  0.51100000000E-03 0.  1.
         12    1    3    3    0    0  0.16203413470E+02 -0.57203098142E+01  0.10824282987E+00  0.17183837435E+02  0.00000000000E+00 0. -1.
</event>
<event>
 7    1  0.2455451E-009  0.4778733E+02  0.7816164E-02  0.1312667E+00
        -11   -1    0    0    0    0  0.00000000000E+00  0.00000000000E+00  0.45593999997E+02  0.45594000000E+02  0.51100000000E-03 0.  1.
         11   -1    0    0    0    0 -0.00000000000E+00 -0.00000000000E+00 -0.45593999997E+02  0.45594000000E+02  0.51100000000E-03 0. -1.
    9900012    2    1    2    0    0 -0.30175624199E+02  0.11090273650E+02  0.29155714357E+02  0.47787330131E+02  0.20000269396E+02 0.  0.
         12    1    1    2    0    0  0.30175624199E+02 -0.11090273650E+02 -0.29155714357E+02  0.43400669869E+02  0.00000000000E+00 0. -1.
         11    1    3    3    0    0 -0.15174302654E+02  0.32647954728E+01  0.21707027511E+02  0.26685452856E+02  0.51100000000E-03 0. -1.
        -11    1    3    3    0    0 -0.14007930810E+02  0.95874948586E+01  0.45620888641E+01  0.17577111205E+02  0.51100000000E-03 0.  1.
         12    1    3    3    0    0 -0.99339073501E+00 -0.17620166812E+01  0.28865979817E+01  0.35247660695E+01  0.00000000000E+00 0. -1.
</event>
<event>
 7    1  0.2455451E-009  0.4778726E+02  0.7816164E-02  0.1312668E+00
        -11   -1    0    0    0    0  0.00000000000E+00  0.00000000000E+00  0.45593999997E+02  0.45594000000E+02  0.51100000000E-03 0. -1.
         11   -1    0    0    0    0 -0.00000000000E+00 -0.00000000000E+00 -0.45593999997E+02  0.45594000000E+02  0.51100000000E-03 0.  1.
    9900012    2    1    2    0    0 -0.33755000243E+02  0.13604234877E+01 -0.27246523108E+02  0.47787264811E+02  0.19999971579E+02 0.  0.
         12    1    1    2    0    0  0.33755000243E+02 -0.13604234877E+01  0.27246523108E+02  0.43400735189E+02  0.00000000000E+00 0. -1.
         11    1    3    3    0    0 -0.34508891888E+01 -0.22095336749E+01 -0.53598752687E-01  0.40979932090E+01  0.51100000000E-03 0. -1.
        -11    1    3    3    0    0 -0.24040815438E+02  0.26366986511E+01 -0.11526195944E+02  0.26791158614E+02  0.51100000000E-03 0.  1.
        -12    1    3    3    0    0 -0.62632956164E+01  0.93325851160E+00 -0.15666728411E+02  0.16898112987E+02  0.00000000000E+00 0.  1.
</event>
<event>
 7    1  0.2455451E-009  0.4778727E+02  0.7816164E-02  0.1312668E+00
        -11   -1    0    0    0    0  0.00000000000E+00  0.00000000000E+00  0.45593999997E+02  0.45594000000E+02  0.51100000000E-03 0. -1.
         11   -1    0    0    0    0 -0.00000000000E+00 -0.00000000000E+00 -0.45593999997E+02  0.45594000000E+02  0.51100000000E-03 0.  1.
    9900012    2    1    2    0    0  0.38679040006E+01  0.43209979561E+02  0.12492930576E+01  0.47787265580E+02  0.19999975085E+02 0.  0.
         12    1    1    2    0    0 -0.38679040006E+01 -0.43209979561E+02 -0.12492930576E+01  0.43400734420E+02  0.00000000000E+00 0. -1.
         11    1    3    3    0    0 -0.58259711569E+00 -0.90669777176E+00 -0.67237109359E+00  0.12702768978E+01  0.51100000000E-03 0. -1.
        -11    1    3    3    0    0 -0.22656340593E+01  0.29099898112E+02  0.54505218071E+01  0.29692513468E+02  0.51100000000E-03 0.  1.
        -12    1    3    3    0    0  0.67161351756E+01  0.15016779221E+02 -0.35288576559E+01  0.16824475214E+02  0.00000000000E+00 0.  1.
</event>
<event>
 7    1  0.2455451E-009  0.4778727E+02  0.7816164E-02  0.1312668E+00
        -11   -1    0    0    0    0  0.00000000000E+00  0.00000000000E+00  0.45593999997E+02  0.45594000000E+02  0.51100000000E-03 0. -1.
         11   -1    0    0    0    0 -0.00000000000E+00 -0.00000000000E+00 -0.45593999997E+02  0.45594000000E+02  0.51100000000E-03 0.  1.
    9900012    2    1    2    0    0 -0.22425258026E+02  0.33874016457E+02 -0.15273570981E+02  0.47787272368E+02  0.20000006034E+02 0.  0.
         12    1    1    2    0    0  0.22425258026E+02 -0.33874016457E+02  0.15273570981E+02  0.43400727632E+02  0.00000000000E+00 0. -1.
         11    1    3    3    0    0 -0.91721552246E+01  0.10051847735E+02  0.40815209765E+00  0.13613767398E+02  0.51100000000E-03 0. -1.
        -11    1    3    3    0    0  0.17257649203E+01 -0.26913562141E+00 -0.20706920652E+01  0.27089600279E+01  0.51100000000E-03 0.  1.
        -12    1    3    3    0    0 -0.14978867722E+02  0.24091304343E+02 -0.13611031014E+02  0.31464544942E+02  0.00000000000E+00 0.  1.
</event>
<event>
 7    1  0.2455451E-009  0.4778727E+02  0.7816164E-02  0.1312668E+00
        -11   -1    0    0    0    0  0.00000000000E+00  0.00000000000E+00  0.45593999997E+02  0.45594000000E+02  0.51100000000E-03 0. -1.
         11   -1    0    0    0    0 -0.00000000000E+00 -0.00000000000E+00 -0.45593999997E+02  0.45594000000E+02  0.51100000000E-03 0.  1.
    9900012    2    1    2    0    0 -0.32067077172E+02  0.28300803746E+02 -0.73749730182E+01  0.47787272379E+02  0.20000006086E+02 0.  0.
         12    1    1    2    0    0  0.32067077172E+02 -0.28300803746E+02  0.73749730182E+01  0.43400727621E+02  0.00000000000E+00 0. -1.
         11    1    3    3    0    0 -0.97946313468E+00  0.73276123011E+01 -0.60702416591E+01  0.95656199030E+01  0.51100000000E-03 0. -1.
        -11    1    3    3    0    0 -0.16717586925E+02  0.10422631906E+02 -0.42473680373E+01  0.20153141292E+02  0.51100000000E-03 0.  1.
         12    1    3    3    0    0 -0.14370027113E+02  0.10550559539E+02  0.29426366781E+01  0.18068511184E+02  0.00000000000E+00 0. -1.
</event>
<event>
 7    1  0.2455451E-009  0.4778726E+02  0.7816164E-02  0.1312668E+00
        -11   -1    0    0    0    0  0.00000000000E+00  0.00000000000E+00  0.45593999997E+02  0.45594000000E+02  0.51100000000E-03 0.  1.
         11   -1    0    0    0    0 -0.00000000000E+00 -0.00000000000E+00 -0.45593999997E+02  0.45594000000E+02  0.51100000000E-03 0. -1.
    9900012    2    1    2    0    0  0.19498259346E+02  0.29877414200E+02  0.24714003130E+02  0.47787263284E+02  0.19999964618E+02 0.  0.
         12    1    1    2    0    0 -0.19498259346E+02 -0.29877414200E+02 -0.24714003130E+02  0.43400736716E+02  0.00000000000E+00 0. -1.
         11    1    3    3    0    0  0.52114389335E+00  0.99043252029E+01  0.16208173178E+01  0.10049591918E+02  0.51100000000E-03 0. -1.
        -11    1    3    3    0    0  0.18213003937E+02  0.15481373945E+02  0.23012455981E+02  0.33180710995E+02  0.51100000000E-03 0.  1.
        -12    1    3    3    0    0  0.76411151606E+00  0.44917150517E+01  0.80729830936E-01  0.45569603707E+01  0.00000000000E+00 0.  1.
</event>
<event>
 7    1  0.2455451E-009  0.4778728E+02  0.7816164E-02  0.1312668E+00
        -11   -1    0    0    0    0  0.00000000000E+00  0.00000000000E+00  0.45593999997E+02  0.45594000000E+02  0.51100000000E-03 0.  1.
         11   -1    0    0    0    0 -0.00000000000E+00 -0.00000000000E+00 -0.45593999997E+02  0.45594000000E+02  0.51100000000E-03 0. -1.
    9900012    2    1    2    0    0  0.24326165310E+02 -0.25586547029E+02  0.25242601767E+02  0.47787278214E+02  0.20000032690E+02 0.  0.
         12    1    1    2    0    0 -0.24326165310E+02  0.25586547029E+02 -0.25242601767E+02  0.43400721786E+02  0.00000000000E+00 0. -1.
         11    1    3    3    0    0 -0.70525210224E+00 -0.11472071646E+01  0.10330559483E+01  0.16972535637E+01  0.51100000000E-03 0. -1.
        -11    1    3    3    0    0 -0.26543160503E+01 -0.91807701769E+00  0.25580251435E+01  0.37989145820E+01  0.51100000000E-03 0.  1.
        -12    1    3    3    0    0  0.27685733463E+02 -0.23521262847E+02  0.21651520675E+02  0.42291110068E+02  0.00000000000E+00 0.  1.
</event>
<event>
 7    1  0.2455451E-009  0.4778728E+02  0.7816164E-02  0.1312668E+00
        -11   -1    0    0    0    0  0.00000000000E+00  0.00000000000E+00  0.45593999997E+02  0.45594000000E+02  0.51100000000E-03 0.  1.
         11   -1    0    0    0    0 -0.00000000000E+00 -0.00000000000E+00 -0.45593999997E+02  0.45594000000E+02  0.51100000000E-03 0. -1.
    9900012    2    1    2    0    0  0.29491484545E+02  0.23410879968E+02  0.21582522700E+02  0.47787282868E+02  0.20000053907E+02 0.  0.
         12    1    1    2    0    0 -0.29491484545E+02 -0.23410879968E+02 -0.21582522700E+02  0.43400717132E+02  0.00000000000E+00 0. -1.
         11    1    3    3    0    0  0.20269364604E+02  0.19074461120E+02  0.51016588642E+01  0.28296804270E+02  0.51100000000E-03 0. -1.
        -11    1    3    3    0    0  0.86434374190E+01  0.45010662228E+01  0.14951384652E+02  0.17846918805E+02  0.51100000000E-03 0.  1.
         12    1    3    3    0    0  0.57868252178E+00 -0.16464737516E+00  0.15294791835E+01  0.16435597927E+01  0.00000000000E+00 0. -1.
</event>
<event>
 7    1  0.2455451E-009  0.4778727E+02  0.7816164E-02  0.1312668E+00
        -11   -1    0    0    0    0  0.00000000000E+00  0.00000000000E+00  0.45593999997E+02  0.45594000000E+02  0.51100000000E-03 0.  1.
         11   -1    0    0    0    0 -0.00000000000E+00 -0.00000000000E+00 -0.45593999997E+02  0.45594000000E+02  0.51100000000E-03 0. -1.
    9900012    2    1    2    0    0  0.40734768217E+02 -0.20213861267E+01  0.14839671667E+02  0.47787271909E+02  0.20000003944E+02 0.  0.
         12    1    1    2    0    0 -0.40734768217E+02  0.20213861267E+01 -0.14839671667E+02  0.43400728091E+02  0.00000000000E+00 0. -1.
         11    1    3    3    0    0  0.11867199833E+02  0.31672856378E+01 -0.19211481999E+01  0.12431932306E+02  0.51100000000E-03 0. -1.
        -11    1    3    3    0    0  0.12005962554E+02 -0.24654645128E+01  0.13146522765E+01  0.12326798570E+02  0.51100000000E-03 0.  1.
         12    1    3    3    0    0  0.16861605831E+02 -0.27232072516E+01  0.15446167591E+02  0.23028541034E+02  0.00000000000E+00 0. -1.
</event>
<event>
 7    1  0.2455451E-009  0.4778727E+02  0.7816164E-02  0.1312668E+00
        -11   -1    0    0    0    0  0.00000000000E+00  0.00000000000E+00  0.45593999997E+02  0.45594000000E+02  0.51100000000E-03 0.  1.
         11   -1    0    0    0    0 -0.00000000000E+00 -0.00000000000E+00 -0.45593999997E+02  0.45594000000E+02  0.51100000000E-03 0. -1.
    9900012    2    1    2    0    0 -0.12875379807E+02 -0.13432773882E+02  0.39209806813E+02  0.47787265333E+02  0.19999973958E+02 0.  0.
         12    1    1    2    0    0  0.12875379807E+02  0.13432773882E+02 -0.39209806813E+02  0.43400734667E+02  0.00000000000E+00 0. -1.
         11    1    3    3    0    0 -0.38597461013E+01  0.33140895949E+01  0.18054776820E+02  0.18757819598E+02  0.51100000000E-03 0. -1.
        -11    1    3    3    0    0 -0.14584066124E+01 -0.87438367701E+01  0.90531226976E+01  0.12670464165E+02  0.51100000000E-03 0.  1.
         12    1    3    3    0    0 -0.75572270935E+01 -0.80030267064E+01  0.12101907296E+02  0.16358981570E+02  0.00000000000E+00 0. -1.
</event>
<event>
 7    1  0.2455451E-009  0.4778727E+02  0.7816164E-02  0.1312668E+00
        -11   -1    0    0    0    0  0.00000000000E+00  0.00000000000E+00  0.45593999997E+02  0.45594000000E+02  0.51100000000E-03 0.  1.
         11   -1    0    0    0    0 -0.00000000000E+00 -0.00000000000E+00 -0.45593999997E+02  0.45594000000E+02  0.51100000000E-03 0. -1.
    9900012    2    1    2    0    0  0.49129354573E+00 -0.37986096427E+02  0.20986622105E+02  0.47787271913E+02  0.20000003961E+02 0.  0.
         12    1    1    2    0    0 -0.49129354573E+00  0.37986096427E+02 -0.20986622105E+02  0.43400728087E+02  0.00000000000E+00 0. -1.
         11    1    3    3    0    0 -0.45248664206E+01 -0.18174194632E+02  0.15059596070E+02  0.24032627836E+02  0.51100000000E-03 0.  1.
        -11    1    3    3    0    0  0.61999771800E+01 -0.15301355976E+02  0.83480827060E+01  0.18500316129E+02  0.51100000000E-03 0. -1.
         12    1    3    3    0    0 -0.11838172137E+01 -0.45105458197E+01 -0.24210566717E+01  0.52543279489E+01  0.00000000000E+00 0. -1.
</event>
<event>
 7    1  0.2455451E-009  0.4778728E+02  0.7816164E-02  0.1312668E+00
        -11   -1    0    0    0    0  0.00000000000E+00  0.00000000000E+00  0.45593999997E+02  0.45594000000E+02  0.51100000000E-03 0.  1.
         11   -1    0    0    0    0 -0.00000000000E+00 -0.00000000000E+00 -0.45593999997E+02  0.45594000000E+02  0.51100000000E-03 0. -1.
    9900012    2    1    2    0    0  0.17277214758E+02 -0.35680326868E+01  0.39653365377E+02  0.47787281195E+02  0.20000046282E+02 0.  0.
         12    1    1    2    0    0 -0.17277214758E+02  0.35680326868E+01 -0.39653365377E+02  0.43400718805E+02  0.00000000000E+00 0. -1.
         11    1    3    3    0    0  0.22314664178E+01 -0.27075055285E+01  0.26349968730E+01  0.43878511076E+01  0.51100000000E-03 0. -1.
        -11    1    3    3    0    0 -0.12849031996E+01 -0.37485415512E+01  0.15677397839E+01  0.42614960149E+01  0.51100000000E-03 0.  1.
        -12    1    3    3    0    0  0.16330651539E+02  0.28880143929E+01  0.35450628720E+02  0.39137934073E+02  0.00000000000E+00 0.  1.
</event>
<event>
 7    1  0.2455451E-009  0.4778727E+02  0.7816164E-02  0.1312668E+00
        -11   -1    0    0    0    0  0.00000000000E+00  0.00000000000E+00  0.45593999997E+02  0.45594000000E+02  0.51100000000E-03 0. -1.
         11   -1    0    0    0    0 -0.00000000000E+00 -0.00000000000E+00 -0.45593999997E+02  0.45594000000E+02  0.51100000000E-03 0.  1.
    9900012    2    1    2    0    0 -0.45884667349E+01 -0.19197449620E+02  0.38652645644E+02  0.47787272885E+02  0.20000008390E+02 0.  0.
         12    1    1    2    0    0  0.45884667349E+01  0.19197449620E+02 -0.38652645644E+02  0.43400727115E+02  0.00000000000E+00 0. -1.
         11    1    3    3    0    0 -0.52974813998E+01 -0.17471205518E+02  0.24506043920E+02  0.30559000643E+02  0.51100000000E-03 0. -1.
        -11    1    3    3    0    0 -0.15593121915E+01 -0.48163302745E+01  0.42317045887E+01  0.65981676101E+01  0.51100000000E-03 0.  1.
         12    1    3    3    0    0  0.22683268564E+01  0.30900861723E+01  0.99148971354E+01  0.10630104632E+02  0.00000000000E+00 0. -1.
</event>
<event>
 7    1  0.2455451E-009  0.4778727E+02  0.7816164E-02  0.1312668E+00
        -11   -1    0    0    0    0  0.00000000000E+00  0.00000000000E+00  0.45593999997E+02  0.45594000000E+02  0.51100000000E-03 0.  1.
         11   -1    0    0    0    0 -0.00000000000E+00 -0.00000000000E+00 -0.45593999997E+02  0.45594000000E+02  0.51100000000E-03 0. -1.
    9900012    2    1    2    0    0  0.96616528987E+01  0.40811253480E+02  0.11167688845E+02  0.47787271648E+02  0.20000002750E+02 0.  0.
         12    1    1    2    0    0 -0.96616528987E+01 -0.40811253480E+02 -0.11167688845E+02  0.43400728352E+02  0.00000000000E+00 0. -1.
         11    1    3    3    0    0 -0.75257609788E+00 -0.17330490529E+01  0.24511799509E+00  0.19052330292E+01  0.51100000000E-03 0. -1.
        -11    1    3    3    0    0  0.84495123608E+01  0.17412543858E+02  0.46781989118E+01  0.19911717356E+02  0.51100000000E-03 0.  1.
         12    1    3    3    0    0  0.19647166358E+01  0.25131758675E+02  0.62443719382E+01  0.25970321262E+02  0.00000000000E+00 0. -1.
</event>
<event>
 7    1  0.2455451E-009  0.4778726E+02  0.7816164E-02  0.1312668E+00
        -11   -1    0    0    0    0  0.00000000000E+00  0.00000000000E+00  0.45593999997E+02  0.45594000000E+02  0.51100000000E-03 0.  1.
         11   -1    0    0    0    0 -0.00000000000E+00 -0.00000000000E+00 -0.45593999997E+02  0.45594000000E+02  0.51100000000E-03 0. -1.
    9900012    2    1    2    0    0 -0.40596155068E+02  0.14851538879E+02  0.38739920002E+01  0.47787264668E+02  0.19999970928E+02 0.  0.
         12    1    1    2    0    0  0.40596155068E+02 -0.14851538879E+02 -0.38739920002E+01  0.43400735332E+02  0.00000000000E+00 0. -1.
         11    1    3    3    0    0 -0.22705380556E+02  0.11445655955E+02 -0.27064319961E+01  0.25570727812E+02  0.51100000000E-03 0. -1.
        -11    1    3    3    0    0 -0.70874613091E+01  0.59223031312E+01 -0.15843241301E+00  0.92374716929E+01  0.51100000000E-03 0.  1.
         12    1    3    3    0    0 -0.10803313203E+02 -0.25164202070E+01  0.67388564093E+01  0.12979065164E+02  0.00000000000E+00 0. -1.
</event>
<event>
 7    1  0.2455451E-009  0.4778727E+02  0.7816164E-02  0.1312668E+00
        -11   -1    0    0    0    0  0.00000000000E+00  0.00000000000E+00  0.45593999997E+02  0.45594000000E+02  0.51100000000E-03 0. -1.
         11   -1    0    0    0    0 -0.00000000000E+00 -0.00000000000E+00 -0.45593999997E+02  0.45594000000E+02  0.51100000000E-03 0.  1.
    9900012    2    1    2    0    0  0.16239627560E+02 -0.24706088438E+02  0.31772735553E+02  0.47787273811E+02  0.20000012613E+02 0.  0.
         12    1    1    2    0    0 -0.16239627560E+02  0.24706088438E+02 -0.31772735553E+02  0.43400726189E+02  0.00000000000E+00 0. -1.
         11    1    3    3    0    0 -0.43744811525E+01 -0.31634507781E+01  0.46642466717E+01  0.71343327267E+01  0.51100000000E-03 0. -1.
        -11    1    3    3    0    0  0.20625080161E+02 -0.19930666141E+02  0.25758979233E+02  0.38550621213E+02  0.51100000000E-03 0.  1.
         12    1    3    3    0    0 -0.10971448305E-01 -0.16119715189E+01  0.13495096481E+01  0.21023198712E+01  0.00000000000E+00 0. -1.
</event>
<event>
 7    1  0.2455451E-009  0.4778727E+02  0.7816164E-02  0.1312668E+00
        -11   -1    0    0    0    0  0.00000000000E+00  0.00000000000E+00  0.45593999997E+02  0.45594000000E+02  0.51100000000E-03 0.  1.
         11   -1    0    0    0    0 -0.00000000000E+00 -0.00000000000E+00 -0.45593999997E+02  0.45594000000E+02  0.51100000000E-03 0. -1.
    9900012    2    1    2    0    0 -0.60228498198E+01  0.34774011226E+02  0.25260968863E+02  0.47787272764E+02  0.20000007840E+02 0.  0.
         12    1    1    2    0    0  0.60228498198E+01 -0.34774011226E+02 -0.25260968863E+02  0.43400727236E+02  0.00000000000E+00 0. -1.
         11    1    3    3    0    0 -0.47892077364E+01  0.18970329244E+02  0.55498590971E+01  0.20337424582E+02  0.51100000000E-03 0. -1.
        -11    1    3    3    0    0  0.36210466033E+01  0.70073702757E+01  0.13507589809E+02  0.15641937201E+02  0.51100000000E-03 0.  1.
        -12    1    3    3    0    0 -0.48546886868E+01  0.87963117064E+01  0.62035199570E+01  0.11807910981E+02  0.00000000000E+00 0.  1.
</event>
<event>
 7    1  0.2455451E-009  0.4778727E+02  0.7816164E-02  0.1312668E+00
        -11   -1    0    0    0    0  0.00000000000E+00  0.00000000000E+00  0.45593999997E+02  0.45594000000E+02  0.51100000000E-03 0. -1.
         11   -1    0    0    0    0 -0.00000000000E+00 -0.00000000000E+00 -0.45593999997E+02  0.45594000000E+02  0.51100000000E-03 0.  1.
    9900012    2    1    2    0    0 -0.11291571756E+01 -0.98556762833E+00 -0.43374840334E+02  0.47787272892E+02  0.20000008424E+02 0.  0.
         12    1    1    2    0    0  0.11291571756E+01  0.98556762833E+00  0.43374840334E+02  0.43400727108E+02  0.00000000000E+00 0. -1.
         11    1    3    3    0    0  0.46417305025E+01  0.63763538048E+01 -0.10136172549E+02  0.12843112711E+02  0.51100000000E-03 0. -1.
        -11    1    3    3    0    0  0.94499609643E+00 -0.56090923185E+00 -0.53906429171E+01  0.55015150740E+01  0.51100000000E-03 0.  1.
         12    1    3    3    0    0 -0.67158837746E+01 -0.68010122013E+01 -0.27848024869E+02  0.29442645107E+02  0.00000000000E+00 0. -1.
</event>
<event>
 7    1  0.2455451E-009  0.4778727E+02  0.7816164E-02  0.1312668E+00
        -11   -1    0    0    0    0  0.00000000000E+00  0.00000000000E+00  0.45593999997E+02  0.45594000000E+02  0.51100000000E-03 0.  1.
         11   -1    0    0    0    0 -0.00000000000E+00 -0.00000000000E+00 -0.45593999997E+02  0.45594000000E+02  0.51100000000E-03 0. -1.
    9900012    2    1    2    0    0  0.16613220743E+02  0.38729379481E+02  0.10375901969E+02  0.47787270973E+02  0.19999999674E+02 0.  0.
         12    1    1    2    0    0 -0.16613220743E+02 -0.38729379481E+02 -0.10375901969E+02  0.43400729027E+02  0.00000000000E+00 0. -1.
         11    1    3    3    0    0  0.11998170855E+02  0.85231529705E+01  0.16005754923E+01  0.14804123837E+02  0.51100000000E-03 0. -1.
        -11    1    3    3    0    0  0.65016099980E+01  0.26447131267E+02  0.58385426934E+01  0.27853370817E+02  0.51100000000E-03 0.  1.
        -12    1    3    3    0    0 -0.18865601099E+01  0.37590952434E+01  0.29367837830E+01  0.51297763193E+01  0.00000000000E+00 0.  1.
</event>
<event>
 7    1  0.2455451E-009  0.4778727E+02  0.7816164E-02  0.1312668E+00
        -11   -1    0    0    0    0  0.00000000000E+00  0.00000000000E+00  0.45593999997E+02  0.45594000000E+02  0.51100000000E-03 0. -1.
         11   -1    0    0    0    0 -0.00000000000E+00 -0.00000000000E+00 -0.45593999997E+02  0.45594000000E+02  0.51100000000E-03 0.  1.
    9900012    2    1    2    0    0  0.85350730623E+01  0.35597168669E+02 -0.23315608054E+02  0.47787268804E+02  0.19999989785E+02 0.  0.
         12    1    1    2    0    0 -0.85350730623E+01 -0.35597168669E+02  0.23315608054E+02  0.43400731196E+02  0.00000000000E+00 0. -1.
         11    1    3    3    0    0 -0.17670833716E+01  0.53819674585E+01 -0.28264873498E+01  0.63306546554E+01  0.51100000000E-03 0. -1.
        -11    1    3    3    0    0 -0.58139249320E+00  0.14382884331E+01 -0.81694634459E+01  0.83154569389E+01  0.51100000000E-03 0.  1.
        -12    1    3    3    0    0  0.10883548927E+02  0.28776912777E+02 -0.12319657259E+02  0.33141157210E+02  0.00000000000E+00 0.  1.
</event>
<event>
 7    1  0.2455451E-009  0.4778728E+02  0.7816164E-02  0.1312668E+00
        -11   -1    0    0    0    0  0.00000000000E+00  0.00000000000E+00  0.45593999997E+02  0.45594000000E+02  0.51100000000E-03 0.  1.
         11   -1    0    0    0    0 -0.00000000000E+00 -0.00000000000E+00 -0.45593999997E+02  0.45594000000E+02  0.51100000000E-03 0. -1.
    9900012    2    1    2    0    0  0.89298431062E+01  0.36867595307E+01  0.42311798288E+02  0.47787279176E+02  0.20000037073E+02 0.  0.
         12    1    1    2    0    0 -0.89298431062E+01 -0.36867595307E+01 -0.42311798288E+02  0.43400720824E+02  0.00000000000E+00 0. -1.
         11    1    3    3    0    0  0.16706750668E+01 -0.77611518285E+01  0.11416370012E+02  0.13905399577E+02  0.51100000000E-03 0. -1.
        -11    1    3    3    0    0  0.71612907185E+01  0.92107107803E+01  0.26145362180E+02  0.28630425103E+02  0.51100000000E-03 0.  1.
         12    1    3    3    0    0  0.97877320902E-01  0.22372005788E+01  0.47500660965E+01  0.52514544957E+01  0.00000000000E+00 0. -1.
</event>
<event>
 7    1  0.2455451E-009  0.4778727E+02  0.7816164E-02  0.1312668E+00
        -11   -1    0    0    0    0  0.00000000000E+00  0.00000000000E+00  0.45593999997E+02  0.45594000000E+02  0.51100000000E-03 0.  1.
         11   -1    0    0    0    0 -0.00000000000E+00 -0.00000000000E+00 -0.45593999997E+02  0.45594000000E+02  0.51100000000E-03 0. -1.
    9900012    2    1    2    0    0  0.37097114281E+01 -0.23928854892E+02  0.36017648650E+02  0.47787273398E+02  0.20000010733E+02 0.  0.
         12    1    1    2    0    0 -0.37097114281E+01  0.23928854892E+02 -0.36017648650E+02  0.43400726602E+02  0.00000000000E+00 0. -1.
         11    1    3    3    0    0  0.18560027137E+01  0.13917238221E+01  0.29013440957E+01  0.37147596279E+01  0.51100000000E-03 0. -1.
        -11    1    3    3    0    0  0.24278268945E+01 -0.17198829169E+02  0.11135844131E+02  0.20632525124E+02  0.51100000000E-03 0.  1.
        -12    1    3    3    0    0 -0.57411818008E+00 -0.81217495446E+01  0.21980460423E+02  0.23439988647E+02  0.00000000000E+00 0.  1.
</event>
<event>
 7    1  0.2455451E-009  0.4778727E+02  0.7816164E-02  0.1312668E+00
        -11   -1    0    0    0    0  0.00000000000E+00  0.00000000000E+00  0.45593999997E+02  0.45594000000E+02  0.51100000000E-03 0.  1.
         11   -1    0    0    0    0 -0.00000000000E+00 -0.00000000000E+00 -0.45593999997E+02  0.45594000000E+02  0.51100000000E-03 0. -1.
    9900012    2    1    2    0    0  0.73256578813E+01  0.13792603323E+02  0.40493482205E+02  0.47787271079E+02  0.20000000156E+02 0.  0.
         12    1    1    2    0    0 -0.73256578813E+01 -0.13792603323E+02 -0.40493482205E+02  0.43400728921E+02  0.00000000000E+00 0. -1.
         11    1    3    3    0    0  0.79953354615E+01 -0.25158180679E+00  0.12290733675E+02  0.14664611044E+02  0.51100000000E-03 0. -1.
        -11    1    3    3    0    0  0.39383358362E+01  0.22165679071E+01  0.55640865233E+01  0.71681742128E+01  0.51100000000E-03 0.  1.
         12    1    3    3    0    0 -0.46080134164E+01  0.11827617223E+02  0.22638662006E+02  0.25954485822E+02  0.00000000000E+00 0. -1.
</event>
<event>
 7    1  0.2455451E-009  0.4778727E+02  0.7816164E-02  0.1312668E+00
        -11   -1    0    0    0    0  0.00000000000E+00  0.00000000000E+00  0.45593999997E+02  0.45594000000E+02  0.51100000000E-03 0.  1.
         11   -1    0    0    0    0 -0.00000000000E+00 -0.00000000000E+00 -0.45593999997E+02  0.45594000000E+02  0.51100000000E-03 0. -1.
    9900012    2    1    2    0    0  0.43247824176E+02  0.18559663879E+01  0.31311930468E+01  0.47787271008E+02  0.19999999832E+02 0.  0.
         12    1    1    2    0    0 -0.43247824176E+02 -0.18559663879E+01 -0.31311930468E+01  0.43400728992E+02  0.00000000000E+00 0. -1.
         11    1    3    3    0    0  0.30407113859E+02 -0.22534030118E+01  0.61066341656E+01  0.31096002628E+02  0.51100000000E-03 0. -1.
        -11    1    3    3    0    0  0.10691602013E+02 -0.46003790007E+00  0.24118626338E+00  0.10704212234E+02  0.51100000000E-03 0.  1.
         12    1    3    3    0    0  0.21491083042E+01  0.45694072997E+01 -0.32166273822E+01  0.59870561455E+01  0.00000000000E+00 0. -1.
</event>
<event>
 7    1  0.2455451E-009  0.4778728E+02  0.7816164E-02  0.1312668E+00
        -11   -1    0    0    0    0  0.00000000000E+00  0.00000000000E+00  0.45593999997E+02  0.45594000000E+02  0.51100000000E-03 0.  1.
         11   -1    0    0    0    0 -0.00000000000E+00 -0.00000000000E+00 -0.45593999997E+02  0.45594000000E+02  0.51100000000E-03 0. -1.
    9900012    2    1    2    0    0 -0.23338214469E+02 -0.20311190629E+02 -0.30436915851E+02  0.47787279201E+02  0.20000037189E+02 0.  0.
         12    1    1    2    0    0  0.23338214469E+02  0.20311190629E+02  0.30436915851E+02  0.43400720799E+02  0.00000000000E+00 0. -1.
         11    1    3    3    0    0 -0.24370754948E+02 -0.15745259507E+02 -0.22312116988E+02  0.36601604588E+02  0.51100000000E-03 0. -1.
        -11    1    3    3    0    0 -0.21286023842E+01 -0.36973441485E+01 -0.35080732099E+01  0.55233938633E+01  0.51100000000E-03 0.  1.
         12    1    3    3    0    0  0.31611428634E+01 -0.86858697351E+00 -0.46167256534E+01  0.56622807500E+01  0.00000000000E+00 0. -1.
</event>
<event>
 7    1  0.2455451E-009  0.4778727E+02  0.7816164E-02  0.1312668E+00
        -11   -1    0    0    0    0  0.00000000000E+00  0.00000000000E+00  0.45593999997E+02  0.45594000000E+02  0.51100000000E-03 0. -1.
         11   -1    0    0    0    0 -0.00000000000E+00 -0.00000000000E+00 -0.45593999997E+02  0.45594000000E+02  0.51100000000E-03 0.  1.
    9900012    2    1    2    0    0  0.23612918982E+02 -0.12940435034E+02 -0.34038187932E+02  0.47787273745E+02  0.20000012315E+02 0.  0.
         12    1    1    2    0    0 -0.23612918982E+02  0.12940435034E+02  0.34038187932E+02  0.43400726255E+02  0.00000000000E+00 0. -1.
         11    1    3    3    0    0  0.11971788536E+02 -0.45836315776E+01 -0.35913737065E+01  0.13312827068E+02  0.51100000000E-03 0. -1.
        -11    1    3    3    0    0  0.99722119348E+01 -0.77882033939E+01 -0.30135455004E+02  0.32684044601E+02  0.51100000000E-03 0.  1.
        -12    1    3    3    0    0  0.16689185114E+01 -0.56860006244E+00 -0.31135922249E+00  0.17904020761E+01  0.00000000000E+00 0.  1.
</event>
<event>
 7    1  0.2589831E-009  0.4778727E+02  0.7816164E-02  0.1312668E+00
        -11   -1    0    0    0    0  0.00000000000E+00  0.00000000000E+00  0.45593999997E+02  0.45594000000E+02  0.51100000000E-03 0. -1.
         11   -1    0    0    0    0 -0.00000000000E+00 -0.00000000000E+00 -0.45593999997E+02  0.45594000000E+02  0.51100000000E-03 0.  1.
    9900012    2    1    2    0    0 -0.25355082757E+02 -0.31075486004E+02 -0.16584842192E+02  0.47787273709E+02  0.20000012150E+02 0.  0.
         12    1    1    2    0    0  0.25355082757E+02  0.31075486004E+02  0.16584842192E+02  0.43400726291E+02  0.00000000000E+00 0. -1.
         11    1    3    3    0    0 -0.93564721448E+00 -0.49401750220E+01  0.38684489894E+01  0.63439469420E+01  0.51100000000E-03 0. -1.
        -11    1    3    3    0    0 -0.18153551579E+02 -0.18115259911E+02 -0.12518556711E+02  0.28538190884E+02  0.51100000000E-03 0.  1.
         12    1    3    3    0    0 -0.62658839634E+01 -0.80200510714E+01 -0.79347344714E+01  0.12905135883E+02  0.00000000000E+00 0. -1.
</event>
<event>
 7    1  0.2455451E-009  0.4778727E+02  0.7816164E-02  0.1312668E+00
        -11   -1    0    0    0    0  0.00000000000E+00  0.00000000000E+00  0.45593999997E+02  0.45594000000E+02  0.51100000000E-03 0.  1.
         11   -1    0    0    0    0 -0.00000000000E+00 -0.00000000000E+00 -0.45593999997E+02  0.45594000000E+02  0.51100000000E-03 0. -1.
    9900012    2    1    2    0    0 -0.76425802543E+01  0.15535919562E+02  0.39797606021E+02  0.47787271036E+02  0.19999999963E+02 0.  0.
         12    1    1    2    0    0  0.76425802543E+01 -0.15535919562E+02 -0.39797606021E+02  0.43400728964E+02  0.00000000000E+00 0. -1.
         11    1    3    3    0    0 -0.10624443210E+02  0.73507951068E+01  0.13807938382E+02  0.18909578124E+02  0.51100000000E-03 0. -1.
        -11    1    3    3    0    0  0.23213233239E+01 -0.92668907264E+00  0.11345304742E+02  0.11617367798E+02  0.51100000000E-03 0.  1.
        -12    1    3    3    0    0  0.66053963159E+00  0.91118135282E+01  0.14644362897E+02  0.17260325114E+02  0.00000000000E+00 0.  1.
</event>
<event>
 7    1  0.2455451E-009  0.4778727E+02  0.7816164E-02  0.1312668E+00
        -11   -1    0    0    0    0  0.00000000000E+00  0.00000000000E+00  0.45593999997E+02  0.45594000000E+02  0.51100000000E-03 0. -1.
         11   -1    0    0    0    0 -0.00000000000E+00 -0.00000000000E+00 -0.45593999997E+02  0.45594000000E+02  0.51100000000E-03 0.  1.
    9900012    2    1    2    0    0  0.38686203002E+02  0.17848381842E+02 -0.82726134020E+01  0.47787272246E+02  0.20000005477E+02 0.  0.
         12    1    1    2    0    0 -0.38686203002E+02 -0.17848381842E+02  0.82726134020E+01  0.43400727754E+02  0.00000000000E+00 0. -1.
         11    1    3    3    0    0  0.15634616356E+02  0.40773053908E+00  0.11662505175E+01  0.15683354657E+02  0.51100000000E-03 0. -1.
        -11    1    3    3    0    0  0.13082478037E+02  0.15900178538E+02 -0.66593096468E+01  0.21640547922E+02  0.51100000000E-03 0.  1.
         12    1    3    3    0    0  0.99691086101E+01  0.15404727645E+01 -0.27795542726E+01  0.10463369666E+02  0.00000000000E+00 0. -1.
</event>
<event>
 7    1  0.2455451E-009  0.4778728E+02  0.7816164E-02  0.1312668E+00
        -11   -1    0    0    0    0  0.00000000000E+00  0.00000000000E+00  0.45593999997E+02  0.45594000000E+02  0.51100000000E-03 0.  1.
         11   -1    0    0    0    0 -0.00000000000E+00 -0.00000000000E+00 -0.45593999997E+02  0.45594000000E+02  0.51100000000E-03 0. -1.
    9900012    2    1    2    0    0  0.37215217712E+02 -0.15183583028E+02  0.16374022604E+02  0.47787282965E+02  0.20000054352E+02 0.  0.
         12    1    1    2    0    0 -0.37215217712E+02  0.15183583028E+02 -0.16374022604E+02  0.43400717035E+02  0.00000000000E+00 0. -1.
         11    1    3    3    0    0  0.16801681407E+02  0.14827625849E+01  0.28733055435E+01  0.17109966920E+02  0.51100000000E-03 0. -1.
        -11    1    3    3    0    0  0.86526311415E+01 -0.10039750441E+02  0.30366134781E+01  0.13597265764E+02  0.51100000000E-03 0.  1.
         12    1    3    3    0    0  0.11760905163E+02 -0.66265951719E+01  0.10464103583E+02  0.17080050281E+02  0.00000000000E+00 0. -1.
</event>
<event>
 7    1  0.2455451E-009  0.4778722E+02  0.7816164E-02  0.1312668E+00
        -11   -1    0    0    0    0  0.00000000000E+00  0.00000000000E+00  0.45593999997E+02  0.45594000000E+02  0.51100000000E-03 0.  1.
         11   -1    0    0    0    0 -0.00000000000E+00 -0.00000000000E+00 -0.45593999997E+02  0.45594000000E+02  0.51100000000E-03 0. -1.
    9900012    2    1    2    0    0  0.23040716706E+02 -0.36728458803E+02 -0.19425235141E+01  0.47787219938E+02  0.19999766982E+02 0.  0.
         12    1    1    2    0    0 -0.23040716706E+02  0.36728458803E+02  0.19425235141E+01  0.43400780062E+02  0.00000000000E+00 0. -1.
         11    1    3    3    0    0  0.10806380871E+02 -0.24554644526E+02 -0.65094073525E+01  0.27605811339E+02  0.51100000000E-03 0. -1.
        -11    1    3    3    0    0  0.10339572487E+02 -0.37607482152E+01  0.31290544267E+01  0.11438573697E+02  0.51100000000E-03 0.  1.
        -12    1    3    3    0    0  0.18947633487E+01 -0.84130660622E+01  0.14378294116E+01  0.87428349024E+01  0.00000000000E+00 0.  1.
</event>
<event>
 7    1  0.2455451E-009  0.4778727E+02  0.7816164E-02  0.1312668E+00
        -11   -1    0    0    0    0  0.00000000000E+00  0.00000000000E+00  0.45593999997E+02  0.45594000000E+02  0.51100000000E-03 0.  1.
         11   -1    0    0    0    0 -0.00000000000E+00 -0.00000000000E+00 -0.45593999997E+02  0.45594000000E+02  0.51100000000E-03 0. -1.
    9900012    2    1    2    0    0 -0.65074395700E+01 -0.25758574181E+02  0.34318688241E+02  0.47787271018E+02  0.19999999878E+02 0.  0.
         12    1    1    2    0    0  0.65074395700E+01  0.25758574181E+02 -0.34318688241E+02  0.43400728982E+02  0.00000000000E+00 0. -1.
         11    1    3    3    0    0 -0.15075054421E+01  0.28838788033E+01  0.26849707410E+01  0.42188147329E+01  0.51100000000E-03 0. -1.
        -11    1    3    3    0    0 -0.39527687270E+01 -0.24790634731E+02  0.30325426479E+02  0.39367898628E+02  0.51100000000E-03 0.  1.
        -12    1    3    3    0    0 -0.10471654009E+01 -0.38518182533E+01  0.13082910215E+01  0.42005576570E+01  0.00000000000E+00 0.  1.
</event>
<event>
 7    1  0.2455451E-009  0.4778727E+02  0.7816164E-02  0.1312668E+00
        -11   -1    0    0    0    0  0.00000000000E+00  0.00000000000E+00  0.45593999997E+02  0.45594000000E+02  0.51100000000E-03 0. -1.
         11   -1    0    0    0    0 -0.00000000000E+00 -0.00000000000E+00 -0.45593999997E+02  0.45594000000E+02  0.51100000000E-03 0.  1.
    9900012    2    1    2    0    0  0.26636812915E+02  0.33644212351E+02 -0.64938534957E+01  0.47787274658E+02  0.20000016477E+02 0.  0.
         12    1    1    2    0    0 -0.26636812915E+02 -0.33644212351E+02  0.64938534957E+01  0.43400725342E+02  0.00000000000E+00 0. -1.
         11    1    3    3    0    0  0.16608125464E+02  0.17745957759E+02 -0.80848230055E+01  0.25614706938E+02  0.51100000000E-03 0. -1.
        -11    1    3    3    0    0  0.10266109765E+02  0.12438322290E+02 -0.30147706128E+01  0.16407123855E+02  0.51100000000E-03 0.  1.
         12    1    3    3    0    0 -0.23742231392E+00  0.34599323025E+01  0.46057401226E+01  0.57654438658E+01  0.00000000000E+00 0. -1.
</event>
<event>
 7    1  0.2455451E-009  0.4778727E+02  0.7816164E-02  0.1312668E+00
        -11   -1    0    0    0    0  0.00000000000E+00  0.00000000000E+00  0.45593999997E+02  0.45594000000E+02  0.51100000000E-03 0.  1.
         11   -1    0    0    0    0 -0.00000000000E+00 -0.00000000000E+00 -0.45593999997E+02  0.45594000000E+02  0.51100000000E-03 0. -1.
    9900012    2    1    2    0    0 -0.30784939004E+02 -0.58917748287E+01  0.30019955488E+02  0.47787271808E+02  0.20000003482E+02 0.  0.
         12    1    1    2    0    0  0.30784939004E+02  0.58917748287E+01 -0.30019955488E+02  0.43400728192E+02  0.00000000000E+00 0. -1.
         11    1    3    3    0    0 -0.25538762590E+02 -0.97490885653E+01  0.16747101923E+02  0.32058361555E+02  0.51100000000E-03 0. -1.
        -11    1    3    3    0    0 -0.34565541601E+01  0.50341467830E+00  0.24738037587E+01  0.42802918473E+01  0.51100000000E-03 0.  1.
         12    1    3    3    0    0 -0.17896222537E+01  0.33538990584E+01  0.10799049806E+02  0.11448618406E+02  0.00000000000E+00 0. -1.
</event>
<event>
 7    1  0.2455451E-009  0.4778727E+02  0.7816164E-02  0.1312668E+00
        -11   -1    0    0    0    0  0.00000000000E+00  0.00000000000E+00  0.45593999997E+02  0.45594000000E+02  0.51100000000E-03 0.  1.
         11   -1    0    0    0    0 -0.00000000000E+00 -0.00000000000E+00 -0.45593999997E+02  0.45594000000E+02  0.51100000000E-03 0. -1.
    9900012    2    1    2    0    0 -0.18118601195E+02  0.31178126561E+02  0.24150851939E+02  0.47787274954E+02  0.20000017826E+02 0.  0.
         12    1    1    2    0    0  0.18118601195E+02 -0.31178126561E+02 -0.24150851939E+02  0.43400725046E+02  0.00000000000E+00 0. -1.
         11    1    3    3    0    0 -0.82014705920E+01  0.70813948683E+01 -0.17590540781E+00  0.10837029857E+02  0.51100000000E-03 0.  1.
        -11    1    3    3    0    0 -0.45980691623E+01  0.17970307380E+02  0.11665439730E+02  0.21912477535E+02  0.51100000000E-03 0. -1.
         12    1    3    3    0    0 -0.53190614403E+01  0.61264243127E+01  0.12661317616E+02  0.15037767562E+02  0.00000000000E+00 0. -1.
</event>
<event>
 7    1  0.2455451E-009  0.4778727E+02  0.7816164E-02  0.1312668E+00
        -11   -1    0    0    0    0  0.00000000000E+00  0.00000000000E+00  0.45593999997E+02  0.45594000000E+02  0.51100000000E-03 0. -1.
         11   -1    0    0    0    0 -0.00000000000E+00 -0.00000000000E+00 -0.45593999997E+02  0.45594000000E+02  0.51100000000E-03 0.  1.
    9900012    2    1    2    0    0 -0.10830492404E+02 -0.20245508755E+02 -0.36829919799E+02  0.47787272093E+02  0.20000004780E+02 0.  0.
         12    1    1    2    0    0  0.10830492404E+02  0.20245508755E+02  0.36829919799E+02  0.43400727907E+02  0.00000000000E+00 0. -1.
         11    1    3    3    0    0 -0.12397119954E+02 -0.91647584029E+01 -0.13570051088E+02  0.20538443624E+02  0.51100000000E-03 0. -1.
        -11    1    3    3    0    0  0.32923918946E+01 -0.16298279485E+01 -0.11449295451E+02  0.12024248422E+02  0.51100000000E-03 0.  1.
         12    1    3    3    0    0 -0.17257643451E+01 -0.94509224036E+01 -0.11810573261E+02  0.15224580047E+02  0.00000000000E+00 0. -1.
</event>
<event>
 7    1  0.2455451E-009  0.4778727E+02  0.7816164E-02  0.1312668E+00
        -11   -1    0    0    0    0  0.00000000000E+00  0.00000000000E+00  0.45593999997E+02  0.45594000000E+02  0.51100000000E-03 0. -1.
         11   -1    0    0    0    0 -0.00000000000E+00 -0.00000000000E+00 -0.45593999997E+02  0.45594000000E+02  0.51100000000E-03 0.  1.
    9900012    2    1    2    0    0 -0.19057317552E+02  0.57866320665E+01 -0.38561078714E+02  0.47787271267E+02  0.20000001015E+02 0.  0.
         12    1    1    2    0    0  0.19057317552E+02 -0.57866320665E+01  0.38561078714E+02  0.43400728733E+02  0.00000000000E+00 0. -1.
         11    1    3    3    0    0 -0.21775620630E+00 -0.44021989219E+01 -0.15957223896E+01  0.46875476872E+01  0.51100000000E-03 0. -1.
        -11    1    3    3    0    0 -0.16708199807E+02  0.70826233021E+01 -0.32784811164E+02  0.37472274243E+02  0.51100000000E-03 0.  1.
        -12    1    3    3    0    0 -0.21313615383E+01  0.31062076863E+01 -0.41805451608E+01  0.56274493369E+01  0.00000000000E+00 0.  1.
</event>
<event>
 7    1  0.2455451E-009  0.4778727E+02  0.7816164E-02  0.1312668E+00
        -11   -1    0    0    0    0  0.00000000000E+00  0.00000000000E+00  0.45593999997E+02  0.45594000000E+02  0.51100000000E-03 0.  1.
         11   -1    0    0    0    0 -0.00000000000E+00 -0.00000000000E+00 -0.45593999997E+02  0.45594000000E+02  0.51100000000E-03 0. -1.
    9900012    2    1    2    0    0 -0.35414585858E+02  0.23629565294E+02 -0.84305309116E+01  0.47787273060E+02  0.20000009189E+02 0.  0.
         12    1    1    2    0    0  0.35414585858E+02 -0.23629565294E+02  0.84305309116E+01  0.43400726940E+02  0.00000000000E+00 0. -1.
         11    1    3    3    0    0 -0.70930975100E+01  0.88938785666E+01 -0.75744887580E+01  0.13666967054E+02  0.51100000000E-03 0. -1.
        -11    1    3    3    0    0 -0.24433648199E+02  0.13888068205E+02  0.33812836149E+01  0.28307502220E+02  0.51100000000E-03 0.  1.
        -12    1    3    3    0    0 -0.38878401496E+01  0.84761852172E+00 -0.42373257685E+01  0.58128037861E+01  0.00000000000E+00 0.  1.
</event>
<event>
 7    1  0.2555309E-009  0.4778728E+02  0.7816164E-02  0.1312668E+00
        -11   -1    0    0    0    0  0.00000000000E+00  0.00000000000E+00  0.45593999997E+02  0.45594000000E+02  0.51100000000E-03 0.  1.
         11   -1    0    0    0    0 -0.00000000000E+00 -0.00000000000E+00 -0.45593999997E+02  0.45594000000E+02  0.51100000000E-03 0. -1.
    9900012    2    1    2    0    0  0.34696914573E+02  0.12104479590E+02  0.23091742610E+02  0.47787275538E+02  0.20000020488E+02 0.  0.
         12    1    1    2    0    0 -0.34696914573E+02 -0.12104479590E+02 -0.23091742610E+02  0.43400724462E+02  0.00000000000E+00 0. -1.
         11    1    3    3    0    0  0.16295255520E+02  0.81537393592E+01  0.41478107448E+01  0.18687513270E+02  0.51100000000E-03 0. -1.
        -11    1    3    3    0    0  0.17364596903E+02 -0.64308859941E+00  0.15101327552E+02  0.23021574287E+02  0.51100000000E-03 0.  1.
         12    1    3    3    0    0  0.10370621505E+01  0.45938288301E+01  0.38426043131E+01  0.60781879809E+01  0.00000000000E+00 0. -1.
</event>
<event>
 7    1  0.2455451E-009  0.4778727E+02  0.7816164E-02  0.1312668E+00
        -11   -1    0    0    0    0  0.00000000000E+00  0.00000000000E+00  0.45593999997E+02  0.45594000000E+02  0.51100000000E-03 0.  1.
         11   -1    0    0    0    0 -0.00000000000E+00 -0.00000000000E+00 -0.45593999997E+02  0.45594000000E+02  0.51100000000E-03 0. -1.
    9900012    2    1    2    0    0  0.41247575452E+01 -0.37620235771E+02  0.21244475172E+02  0.47787268559E+02  0.19999988668E+02 0.  0.
         12    1    1    2    0    0 -0.41247575452E+01  0.37620235771E+02 -0.21244475172E+02  0.43400731441E+02  0.00000000000E+00 0. -1.
         11    1    3    3    0    0  0.93776968569E+01 -0.12815548456E+02  0.13945774049E+02  0.21134429130E+02  0.51100000000E-03 0. -1.
        -11    1    3    3    0    0 -0.41320319278E+01 -0.10476327679E+02  0.32477686099E+01  0.11720713746E+02  0.51100000000E-03 0.  1.
         12    1    3    3    0    0 -0.11209073839E+01 -0.14328359635E+02  0.40509325135E+01  0.14932125683E+02  0.00000000000E+00 0. -1.
</event>
<event>
 7    1  0.2455451E-009  0.4778727E+02  0.7816164E-02  0.1312668E+00
        -11   -1    0    0    0    0  0.00000000000E+00  0.00000000000E+00  0.45593999997E+02  0.45594000000E+02  0.51100000000E-03 0.  1.
         11   -1    0    0    0    0 -0.00000000000E+00 -0.00000000000E+00 -0.45593999997E+02  0.45594000000E+02  0.51100000000E-03 0. -1.
    9900012    2    1    2    0    0  0.33959603098E+02 -0.26626374990E+02  0.46265687013E+01  0.47787266992E+02  0.19999981522E+02 0.  0.
         12    1    1    2    0    0 -0.33959603098E+02  0.26626374990E+02 -0.46265687013E+01  0.43400733008E+02  0.00000000000E+00 0. -1.
         11    1    3    3    0    0 -0.51829573931E-01 -0.82225044676E+01  0.17707208080E+01  0.84111662964E+01  0.51100000000E-03 0. -1.
        -11    1    3    3    0    0  0.31938165534E+02 -0.16125449262E+02  0.10255390803E+01  0.35792852111E+02  0.51100000000E-03 0.  1.
        -12    1    3    3    0    0  0.20732671383E+01 -0.22784212607E+01  0.18303088130E+01  0.35832485845E+01  0.00000000000E+00 0.  1.
</event>
<event>
 7    1  0.2455451E-009  0.4778728E+02  0.7816164E-02  0.1312668E+00
        -11   -1    0    0    0    0  0.00000000000E+00  0.00000000000E+00  0.45593999997E+02  0.45594000000E+02  0.51100000000E-03 0.  1.
         11   -1    0    0    0    0 -0.00000000000E+00 -0.00000000000E+00 -0.45593999997E+02  0.45594000000E+02  0.51100000000E-03 0. -1.
    9900012    2    1    2    0    0  0.45743024887E+01 -0.55806422459E+01  0.42796670557E+02  0.47787276252E+02  0.20000023743E+02 0.  0.
         12    1    1    2    0    0 -0.45743024887E+01  0.55806422459E+01 -0.42796670557E+02  0.43400723748E+02  0.00000000000E+00 0. -1.
         11    1    3    3    0    0 -0.19704705206E+01  0.32276426738E+01  0.41243399197E+00  0.38040154260E+01  0.51100000000E-03 0. -1.
        -11    1    3    3    0    0  0.71093692447E+01 -0.84177099151E+01  0.38812378456E+02  0.40346024500E+02  0.51100000000E-03 0.  1.
        -12    1    3    3    0    0 -0.56459623538E+00 -0.39057500455E+00  0.35718581084E+01  0.36372363258E+01  0.00000000000E+00 0.  1.
</event>
<event>
 7    1  0.2455451E-009  0.4778727E+02  0.7816164E-02  0.1312668E+00
        -11   -1    0    0    0    0  0.00000000000E+00  0.00000000000E+00  0.45593999997E+02  0.45594000000E+02  0.51100000000E-03 0. -1.
         11   -1    0    0    0    0 -0.00000000000E+00 -0.00000000000E+00 -0.45593999997E+02  0.45594000000E+02  0.51100000000E-03 0.  1.
    9900012    2    1    2    0    0 -0.17794551590E+02 -0.28503995048E+02 -0.27468155198E+02  0.47787270167E+02  0.19999996002E+02 0.  0.
         12    1    1    2    0    0  0.17794551590E+02  0.28503995048E+02  0.27468155198E+02  0.43400729833E+02  0.00000000000E+00 0. -1.
         11    1    3    3    0    0  0.12682451706E+01 -0.50995809651E+01 -0.26309180705E+00  0.52615006788E+01  0.51100000000E-03 0. -1.
        -11    1    3    3    0    0 -0.99237348600E+01 -0.40875901978E+01 -0.13035081984E+02  0.16884971714E+02  0.51100000000E-03 0.  1.
        -12    1    3    3    0    0 -0.91390619010E+01 -0.19316823885E+02 -0.14169981407E+02  0.25640797775E+02  0.00000000000E+00 0.  1.
</event>
<event>
 7    1  0.2455451E-009  0.4778727E+02  0.7816164E-02  0.1312668E+00
        -11   -1    0    0    0    0  0.00000000000E+00  0.00000000000E+00  0.45593999997E+02  0.45594000000E+02  0.51100000000E-03 0. -1.
         11   -1    0    0    0    0 -0.00000000000E+00 -0.00000000000E+00 -0.45593999997E+02  0.45594000000E+02  0.51100000000E-03 0.  1.
    9900012    2    1    2    0    0 -0.30991433698E+02 -0.79307202670E+01 -0.29330152166E+02  0.47787272902E+02  0.20000008468E+02 0.  0.
         12    1    1    2    0    0  0.30991433698E+02  0.79307202670E+01  0.29330152166E+02  0.43400727098E+02  0.00000000000E+00 0. -1.
         11    1    3    3    0    0 -0.21076293770E+02 -0.67378732626E+01 -0.10576998110E+02  0.24525129653E+02  0.51100000000E-03 0. -1.
        -11    1    3    3    0    0 -0.84546296361E+01  0.12486786245E+01 -0.66490977037E+01  0.10828225207E+02  0.51100000000E-03 0.  1.
         12    1    3    3    0    0 -0.14605102915E+01 -0.24415256289E+01 -0.12104056352E+02  0.12433918042E+02  0.00000000000E+00 0. -1.
</event>
<event>
 7    1  0.2455451E-009  0.4778730E+02  0.7816164E-02  0.1312668E+00
        -11   -1    0    0    0    0  0.00000000000E+00  0.00000000000E+00  0.45593999997E+02  0.45594000000E+02  0.51100000000E-03 0.  1.
         11   -1    0    0    0    0 -0.00000000000E+00 -0.00000000000E+00 -0.45593999997E+02  0.45594000000E+02  0.51100000000E-03 0. -1.
    9900012    2    1    2    0    0 -0.70661689905E+01 -0.10536470399E+02  0.41505092765E+02  0.47787300949E+02  0.20000136346E+02 0.  0.
         12    1    1    2    0    0  0.70661689905E+01  0.10536470399E+02 -0.41505092765E+02  0.43400699051E+02  0.00000000000E+00 0. -1.
         11    1    3    3    0    0  0.33957864922E+01 -0.23865546005E+00  0.53342683271E+01  0.63279334048E+01  0.51100000000E-03 0. -1.
        -11    1    3    3    0    0 -0.13689234420E+02 -0.10129754655E+02  0.30265488649E+02  0.34727609647E+02  0.51100000000E-03 0.  1.
        -12    1    3    3    0    0  0.32272789376E+01 -0.16806028388E+00  0.59053357890E+01  0.67317578968E+01  0.00000000000E+00 0.  1.
</event>
<event>
 7    1  0.2455451E-009  0.4778727E+02  0.7816164E-02  0.1312668E+00
        -11   -1    0    0    0    0  0.00000000000E+00  0.00000000000E+00  0.45593999997E+02  0.45594000000E+02  0.51100000000E-03 0.  1.
         11   -1    0    0    0    0 -0.00000000000E+00 -0.00000000000E+00 -0.45593999997E+02  0.45594000000E+02  0.51100000000E-03 0. -1.
    9900012    2    1    2    0    0 -0.28585058057E+02  0.75714206786E+01  0.31767770596E+02  0.47787271852E+02  0.20000003680E+02 0.  0.
         12    1    1    2    0    0  0.28585058057E+02 -0.75714206786E+01 -0.31767770596E+02  0.43400728148E+02  0.00000000000E+00 0. -1.
         11    1    3    3    0    0 -0.26383408508E+02  0.49695423104E+01  0.30318009268E+02  0.40496447764E+02  0.51100000000E-03 0. -1.
        -11    1    3    3    0    0  0.87897506228E+00 -0.15615030617E+01  0.10939403018E+01  0.20994272116E+01  0.51100000000E-03 0.  1.
         12    1    3    3    0    0 -0.30806246113E+01  0.41633814299E+01  0.35582102622E+00  0.51913968765E+01  0.00000000000E+00 0. -1.
</event>
<event>
 7    1  0.2455451E-009  0.4778727E+02  0.7816164E-02  0.1312668E+00
        -11   -1    0    0    0    0  0.00000000000E+00  0.00000000000E+00  0.45593999997E+02  0.45594000000E+02  0.51100000000E-03 0.  1.
         11   -1    0    0    0    0 -0.00000000000E+00 -0.00000000000E+00 -0.45593999997E+02  0.45594000000E+02  0.51100000000E-03 0. -1.
    9900012    2    1    2    0    0  0.34102209226E+02 -0.14155658727E+02  0.22809647475E+02  0.47787269983E+02  0.19999995159E+02 0.  0.
         12    1    1    2    0    0 -0.34102209226E+02  0.14155658727E+02 -0.22809647475E+02  0.43400730017E+02  0.00000000000E+00 0. -1.
         11    1    3    3    0    0  0.21598237055E+01 -0.23934567801E+01 -0.24515626046E+01  0.40501399065E+01  0.51100000000E-03 0. -1.
        -11    1    3    3    0    0  0.32308348300E+02 -0.10361268859E+02  0.22788790180E+02  0.40871924598E+02  0.51100000000E-03 0.  1.
        -12    1    3    3    0    0 -0.36596277920E+00 -0.14009330875E+01  0.24724198997E+01  0.28652054781E+01  0.00000000000E+00 0.  1.
</event>
<event>
 7    1  0.2455451E-009  0.4778727E+02  0.7816164E-02  0.1312668E+00
        -11   -1    0    0    0    0  0.00000000000E+00  0.00000000000E+00  0.45593999997E+02  0.45594000000E+02  0.51100000000E-03 0.  1.
         11   -1    0    0    0    0 -0.00000000000E+00 -0.00000000000E+00 -0.45593999997E+02  0.45594000000E+02  0.51100000000E-03 0. -1.
    9900012    2    1    2    0    0  0.19609568705E+02  0.36892028233E+02  0.11750159680E+02  0.47787272075E+02  0.20000004697E+02 0.  0.
         12    1    1    2    0    0 -0.19609568705E+02 -0.36892028233E+02 -0.11750159680E+02  0.43400727925E+02  0.00000000000E+00 0. -1.
         11    1    3    3    0    0 -0.12502902966E+01  0.48472625420E+00  0.46044721121E+01  0.47957636576E+01  0.51100000000E-03 0. -1.
        -11    1    3    3    0    0  0.20765415609E+02  0.33144522296E+02  0.69195140382E+01  0.39719535728E+02  0.51100000000E-03 0.  1.
         12    1    3    3    0    0  0.94443391991E-01  0.32627796825E+01  0.22617353010E+00  0.32719726888E+01  0.00000000000E+00 0. -1.
</event>
<event>
 7    1  0.2455451E-009  0.4778727E+02  0.7816164E-02  0.1312668E+00
        -11   -1    0    0    0    0  0.00000000000E+00  0.00000000000E+00  0.45593999997E+02  0.45594000000E+02  0.51100000000E-03 0.  1.
         11   -1    0    0    0    0 -0.00000000000E+00 -0.00000000000E+00 -0.45593999997E+02  0.45594000000E+02  0.51100000000E-03 0. -1.
    9900012    2    1    2    0    0  0.14715476194E+01 -0.17364150408E+02  0.39748509617E+02  0.47787272027E+02  0.20000004481E+02 0.  0.
         12    1    1    2    0    0 -0.14715476194E+01  0.17364150408E+02 -0.39748509617E+02  0.43400727973E+02  0.00000000000E+00 0. -1.
         11    1    3    3    0    0  0.46785483037E-01 -0.20714782826E+02  0.27634251166E+02  0.34536303424E+02  0.51100000000E-03 0. -1.
        -11    1    3    3    0    0 -0.82741640860E+00  0.29721257063E+01  0.70679311702E+01  0.77119258564E+01  0.51100000000E-03 0.  1.
         12    1    3    3    0    0  0.22521785449E+01  0.37850671133E+00  0.50463272809E+01  0.55390427472E+01  0.00000000000E+00 0. -1.
</event>
<event>
 7    1  0.2455451E-009  0.4778728E+02  0.7816164E-02  0.1312668E+00
        -11   -1    0    0    0    0  0.00000000000E+00  0.00000000000E+00  0.45593999997E+02  0.45594000000E+02  0.51100000000E-03 0.  1.
         11   -1    0    0    0    0 -0.00000000000E+00 -0.00000000000E+00 -0.45593999997E+02  0.45594000000E+02  0.51100000000E-03 0. -1.
    9900012    2    1    2    0    0 -0.12712530295E+02 -0.22039123780E+02  0.35160936935E+02  0.47787275471E+02  0.20000020183E+02 0.  0.
         12    1    1    2    0    0  0.12712530295E+02  0.22039123780E+02 -0.35160936935E+02  0.43400724529E+02  0.00000000000E+00 0. -1.
         11    1    3    3    0    0  0.74556949921E+00  0.14156098599E+01  0.61752089104E+00  0.17149803106E+01  0.51100000000E-03 0. -1.
        -11    1    3    3    0    0 -0.14772968129E+02 -0.24585742478E+02  0.33229250742E+02  0.43896268927E+02  0.51100000000E-03 0.  1.
        -12    1    3    3    0    0  0.13148683347E+01  0.11310088384E+01  0.13141653020E+01  0.21760262340E+01  0.00000000000E+00 0.  1.
</event>
<event>
 7    1  0.2455451E-009  0.4778728E+02  0.7816164E-02  0.1312668E+00
        -11   -1    0    0    0    0  0.00000000000E+00  0.00000000000E+00  0.45593999997E+02  0.45594000000E+02  0.51100000000E-03 0. -1.
         11   -1    0    0    0    0 -0.00000000000E+00 -0.00000000000E+00 -0.45593999997E+02  0.45594000000E+02  0.51100000000E-03 0.  1.
    9900012    2    1    2    0    0 -0.34344065609E+02 -0.26247893635E+02  0.38930120853E+01  0.47787282196E+02  0.20000050843E+02 0.  0.
         12    1    1    2    0    0  0.34344065609E+02  0.26247893635E+02 -0.38930120853E+01  0.43400717804E+02  0.00000000000E+00 0. -1.
         11    1    3    3    0    0 -0.86468820593E+01  0.15846341929E+01 -0.27109457327E+01  0.91993946486E+01  0.51100000000E-03 0. -1.
        -11    1    3    3    0    0 -0.87293928158E+01 -0.96199216664E+01  0.38235243713E+01  0.13541215997E+02  0.51100000000E-03 0.  1.
         12    1    3    3    0    0 -0.16967790734E+02 -0.18212606162E+02  0.27804334466E+01  0.25046671550E+02  0.00000000000E+00 0. -1.
</event>
<event>
 7    1  0.2455451E-009  0.4778727E+02  0.7816164E-02  0.1312668E+00
        -11   -1    0    0    0    0  0.00000000000E+00  0.00000000000E+00  0.45593999997E+02  0.45594000000E+02  0.51100000000E-03 0. -1.
         11   -1    0    0    0    0 -0.00000000000E+00 -0.00000000000E+00 -0.45593999997E+02  0.45594000000E+02  0.51100000000E-03 0.  1.
    9900012    2    1    2    0    0  0.62434004682E+01  0.21204042293E+02 -0.37350125747E+02  0.47787270141E+02  0.19999995881E+02 0.  0.
         12    1    1    2    0    0 -0.62434004682E+01 -0.21204042293E+02  0.37350125747E+02  0.43400729859E+02  0.00000000000E+00 0. -1.
         11    1    3    3    0    0 -0.44081613558E+01  0.27723121236E+01 -0.61110397498E+01  0.80288484936E+01  0.51100000000E-03 0.  1.
        -11    1    3    3    0    0  0.89982468000E+01  0.18482752203E+02 -0.21000563516E+02  0.29387144174E+02  0.51100000000E-03 0. -1.
        -12    1    3    3    0    0  0.16533150240E+01 -0.51022033749E-01 -0.10238522482E+02  0.10371277473E+02  0.00000000000E+00 0.  1.
</event>
<event>
 7    1  0.2455451E-009  0.4778728E+02  0.7816164E-02  0.1312668E+00
        -11   -1    0    0    0    0  0.00000000000E+00  0.00000000000E+00  0.45593999997E+02  0.45594000000E+02  0.51100000000E-03 0. -1.
         11   -1    0    0    0    0 -0.00000000000E+00 -0.00000000000E+00 -0.45593999997E+02  0.45594000000E+02  0.51100000000E-03 0.  1.
    9900012    2    1    2    0    0 -0.37245093432E+02 -0.22229804248E+02 -0.15037859341E+01  0.47787279340E+02  0.20000037823E+02 0.  0.
         12    1    1    2    0    0  0.37245093432E+02  0.22229804248E+02  0.15037859341E+01  0.43400720660E+02  0.00000000000E+00 0. -1.
         11    1    3    3    0    0  0.18709115489E+01 -0.18044930508E+01  0.14353271072E+00  0.26032877471E+01  0.51100000000E-03 0. -1.
        -11    1    3    3    0    0 -0.22131940601E+02 -0.12688776885E+02 -0.55718260498E+01  0.26112699964E+02  0.51100000000E-03 0.  1.
        -12    1    3    3    0    0 -0.16984064380E+02 -0.77365343120E+01  0.39245074050E+01  0.19071291629E+02  0.00000000000E+00 0.  1.
</event>
<event>
 7    1  0.2455451E-009  0.4778727E+02  0.7816164E-02  0.1312668E+00
        -11   -1    0    0    0    0  0.00000000000E+00  0.00000000000E+00  0.45593999997E+02  0.45594000000E+02  0.51100000000E-03 0.  1.
         11   -1    0    0    0    0 -0.00000000000E+00 -0.00000000000E+00 -0.45593999997E+02  0.45594000000E+02  0.51100000000E-03 0. -1.
    9900012    2    1    2    0    0 -0.13777531501E+02  0.21208457872E+02  0.35270450990E+02  0.47787265299E+02  0.19999973803E+02 0.  0.
         12    1    1    2    0    0  0.13777531501E+02 -0.21208457872E+02 -0.35270450990E+02  0.43400734701E+02  0.00000000000E+00 0. -1.
         11    1    3    3    0    0 -0.14080014726E+02  0.73869482630E+01  0.17867285048E+02  0.23917644002E+02  0.51100000000E-03 0. -1.
        -11    1    3    3    0    0  0.25218317759E+01  0.55170644478E+00  0.47195807571E+01  0.53794477682E+01  0.51100000000E-03 0.  1.
         12    1    3    3    0    0 -0.22193485509E+01  0.13269803164E+02  0.12683585185E+02  0.18490173529E+02  0.00000000000E+00 0. -1.
</event>
<event>
 7    1  0.2455451E-009  0.4778727E+02  0.7816164E-02  0.1312668E+00
        -11   -1    0    0    0    0  0.00000000000E+00  0.00000000000E+00  0.45593999997E+02  0.45594000000E+02  0.51100000000E-03 0.  1.
         11   -1    0    0    0    0 -0.00000000000E+00 -0.00000000000E+00 -0.45593999997E+02  0.45594000000E+02  0.51100000000E-03 0. -1.
    9900012    2    1    2    0    0 -0.42013371514E+02  0.73153060279E+01  0.80614049823E+01  0.47787270299E+02  0.19999996601E+02 0.  0.
         12    1    1    2    0    0  0.42013371514E+02 -0.73153060279E+01 -0.80614049823E+01  0.43400729701E+02  0.00000000000E+00 0. -1.
         11    1    3    3    0    0 -0.20092519325E+00 -0.15410769336E+01  0.94887335962E+00  0.18208926278E+01  0.51100000000E-03 0. -1.
        -11    1    3    3    0    0 -0.10171544116E+02  0.48542309468E+01  0.83857880066E+01  0.14047964569E+02  0.51100000000E-03 0.  1.
        -12    1    3    3    0    0 -0.31640902206E+02  0.40021520146E+01 -0.12732563839E+01  0.31918413102E+02  0.00000000000E+00 0.  1.
</event>
<event>
 7    1  0.2455451E-009  0.4778727E+02  0.7816164E-02  0.1312668E+00
        -11   -1    0    0    0    0  0.00000000000E+00  0.00000000000E+00  0.45593999997E+02  0.45594000000E+02  0.51100000000E-03 0.  1.
         11   -1    0    0    0    0 -0.00000000000E+00 -0.00000000000E+00 -0.45593999997E+02  0.45594000000E+02  0.51100000000E-03 0. -1.
    9900012    2    1    2    0    0 -0.30229878030E+02  0.27062551550E+02  0.15407672689E+02  0.47787267290E+02  0.19999982881E+02 0.  0.
         12    1    1    2    0    0  0.30229878030E+02 -0.27062551550E+02 -0.15407672689E+02  0.43400732710E+02  0.00000000000E+00 0. -1.
         11    1    3    3    0    0 -0.44706712071E+01  0.99493754660E+00  0.84093457332E+01  0.95756930655E+01  0.51100000000E-03 0. -1.
        -11    1    3    3    0    0 -0.14092402277E+02  0.18782855731E+02  0.68349915625E+01  0.24456258529E+02  0.51100000000E-03 0.  1.
         12    1    3    3    0    0 -0.11666804547E+02  0.72847582724E+01  0.16333539288E+00  0.13755315695E+02  0.00000000000E+00 0. -1.
</event>
<event>
 7    1  0.2455451E-009  0.4778727E+02  0.7816164E-02  0.1312668E+00
        -11   -1    0    0    0    0  0.00000000000E+00  0.00000000000E+00  0.45593999997E+02  0.45594000000E+02  0.51100000000E-03 0.  1.
         11   -1    0    0    0    0 -0.00000000000E+00 -0.00000000000E+00 -0.45593999997E+02  0.45594000000E+02  0.51100000000E-03 0. -1.
    9900012    2    1    2    0    0  0.65591340806E+01 -0.29856576128E+02  0.30808860624E+02  0.47787271079E+02  0.20000000156E+02 0.  0.
         12    1    1    2    0    0 -0.65591340806E+01  0.29856576128E+02 -0.30808860624E+02  0.43400728921E+02  0.00000000000E+00 0. -1.
         11    1    3    3    0    0  0.71526810278E+00 -0.60247107451E-02 -0.25363326886E+01  0.26352663099E+01  0.51100000000E-03 0. -1.
        -11    1    3    3    0    0  0.36616894242E+01 -0.17762637932E+02  0.18996222351E+02  0.26263582003E+02  0.51100000000E-03 0.  1.
         12    1    3    3    0    0  0.21821765536E+01 -0.12087913486E+02  0.14348970961E+02  0.18888422766E+02  0.00000000000E+00 0. -1.
</event>
<event>
 7    1  0.2455451E-009  0.4778727E+02  0.7816164E-02  0.1312668E+00
        -11   -1    0    0    0    0  0.00000000000E+00  0.00000000000E+00  0.45593999997E+02  0.45594000000E+02  0.51100000000E-03 0.  1.
         11   -1    0    0    0    0 -0.00000000000E+00 -0.00000000000E+00 -0.45593999997E+02  0.45594000000E+02  0.51100000000E-03 0. -1.
    9900012    2    1    2    0    0  0.68734457950E+01  0.33636495842E+01  0.42720774821E+02  0.47787274235E+02  0.20000014549E+02 0.  0.
         12    1    1    2    0    0 -0.68734457950E+01 -0.33636495842E+01 -0.42720774821E+02  0.43400725765E+02  0.00000000000E+00 0. -1.
         11    1    3    3    0    0  0.23231319077E+01 -0.14950832118E+01  0.45267378275E+00  0.27994873612E+01  0.51100000000E-03 0. -1.
        -11    1    3    3    0    0 -0.15780645910E+01  0.34474900398E+01  0.35676751321E+02  0.35877654055E+02  0.51100000000E-03 0.  1.
        -12    1    3    3    0    0  0.61283784783E+01  0.14112427562E+01  0.65913497172E+01  0.91101328192E+01  0.00000000000E+00 0.  1.
</event>
<event>
 7    1  0.2455451E-009  0.4778722E+02  0.7816164E-02  0.1312668E+00
        -11   -1    0    0    0    0  0.00000000000E+00  0.00000000000E+00  0.45593999997E+02  0.45594000000E+02  0.51100000000E-03 0.  1.
         11   -1    0    0    0    0 -0.00000000000E+00 -0.00000000000E+00 -0.45593999997E+02  0.45594000000E+02  0.51100000000E-03 0. -1.
    9900012    2    1    2    0    0 -0.17081904896E+02 -0.30176135100E+02  0.26100519278E+02  0.47787219926E+02  0.19999766928E+02 0.  0.
         12    1    1    2    0    0  0.17081904896E+02  0.30176135100E+02 -0.26100519278E+02  0.43400780074E+02  0.00000000000E+00 0. -1.
         11    1    3    3    0    0 -0.96385994411E+01 -0.15179664001E+02  0.40274519866E+01  0.18426751427E+02  0.51100000000E-03 0. -1.
        -11    1    3    3    0    0 -0.61860801520E+00 -0.11743523001E+02  0.14347205642E+02  0.18550884571E+02  0.51100000000E-03 0.  1.
         12    1    3    3    0    0 -0.68246974402E+01 -0.32529480977E+01  0.77258616495E+01  0.10809583928E+02  0.00000000000E+00 0. -1.
</event>
<event>
 7    1  0.2455451E-009  0.4778726E+02  0.7816164E-02  0.1312668E+00
        -11   -1    0    0    0    0  0.00000000000E+00  0.00000000000E+00  0.45593999997E+02  0.45594000000E+02  0.51100000000E-03 0.  1.
         11   -1    0    0    0    0 -0.00000000000E+00 -0.00000000000E+00 -0.45593999997E+02  0.45594000000E+02  0.51100000000E-03 0. -1.
    9900012    2    1    2    0    0 -0.69206601322E+01  0.42421922755E+02 -0.60090556751E+01  0.47787264787E+02  0.19999971472E+02 0.  0.
         12    1    1    2    0    0  0.69206601322E+01 -0.42421922755E+02  0.60090556751E+01  0.43400735213E+02  0.00000000000E+00 0. -1.
         11    1    3    3    0    0 -0.66212914847E+01  0.10243756953E+02 -0.75124439059E+01  0.14325252917E+02  0.51100000000E-03 0. -1.
        -11    1    3    3    0    0  0.29777252056E+01  0.16156442900E+02  0.40272299533E+01  0.16914966034E+02  0.51100000000E-03 0.  1.
         12    1    3    3    0    0 -0.32770938531E+01  0.16021722902E+02 -0.25238417225E+01  0.16547045836E+02  0.00000000000E+00 0. -1.
</event>
<event>
 7    1  0.2455451E-009  0.4778727E+02  0.7816164E-02  0.1312668E+00
        -11   -1    0    0    0    0  0.00000000000E+00  0.00000000000E+00  0.45593999997E+02  0.45594000000E+02  0.51100000000E-03 0.  1.
         11   -1    0    0    0    0 -0.00000000000E+00 -0.00000000000E+00 -0.45593999997E+02  0.45594000000E+02  0.51100000000E-03 0. -1.
    9900012    2    1    2    0    0 -0.11662014881E+02  0.27467874326E+02  0.31514071441E+02  0.47787269478E+02  0.19999992858E+02 0.  0.
         12    1    1    2    0    0  0.11662014881E+02 -0.27467874326E+02 -0.31514071441E+02  0.43400730522E+02  0.00000000000E+00 0. -1.
         11    1    3    3    0    0 -0.15595943093E+02  0.20388790483E+02  0.16309876674E+02  0.30412962626E+02  0.51100000000E-03 0. -1.
        -11    1    3    3    0    0  0.13062161765E+01  0.36616708321E+01  0.91547220052E+01  0.99460026762E+01  0.51100000000E-03 0.  1.
         12    1    3    3    0    0  0.26277120361E+01  0.34174130107E+01  0.60494727615E+01  0.74283041755E+01  0.00000000000E+00 0. -1.
</event>
<event>
 7    1  0.2455451E-009  0.4778727E+02  0.7816164E-02  0.1312668E+00
        -11   -1    0    0    0    0  0.00000000000E+00  0.00000000000E+00  0.45593999997E+02  0.45594000000E+02  0.51100000000E-03 0. -1.
         11   -1    0    0    0    0 -0.00000000000E+00 -0.00000000000E+00 -0.45593999997E+02  0.45594000000E+02  0.51100000000E-03 0.  1.
    9900012    2    1    2    0    0  0.39797406305E+02 -0.16236217027E+02 -0.60145431860E+01  0.47787273950E+02  0.20000013245E+02 0.  0.
         12    1    1    2    0    0 -0.39797406305E+02  0.16236217027E+02  0.60145431860E+01  0.43400726050E+02  0.00000000000E+00 0. -1.
         11    1    3    3    0    0  0.35728464607E+01  0.14821754379E+01 -0.29611200976E+01  0.48713764332E+01  0.51100000000E-03 0. -1.
        -11    1    3    3    0    0  0.20887955675E+02 -0.17645651746E+02 -0.35371669232E+01  0.27571493756E+02  0.51100000000E-03 0.  1.
        -12    1    3    3    0    0  0.15336604170E+02 -0.72740718761E-01  0.48374383477E+00  0.15344403761E+02  0.00000000000E+00 0.  1.
</event>
<event>
 7    1  0.2455451E-009  0.4778726E+02  0.7816164E-02  0.1312668E+00
        -11   -1    0    0    0    0  0.00000000000E+00  0.00000000000E+00  0.45593999997E+02  0.45594000000E+02  0.51100000000E-03 0. -1.
         11   -1    0    0    0    0 -0.00000000000E+00 -0.00000000000E+00 -0.45593999997E+02  0.45594000000E+02  0.51100000000E-03 0.  1.
    9900012    2    1    2    0    0  0.23829766745E+02  0.28346224044E+02 -0.22633117321E+02  0.47787260371E+02  0.19999951337E+02 0.  0.
         12    1    1    2    0    0 -0.23829766745E+02 -0.28346224044E+02  0.22633117321E+02  0.43400739629E+02  0.00000000000E+00 0. -1.
         11    1    3    3    0    0  0.95066236505E+01  0.49969666145E+01 -0.51116705000E+01  0.11894315623E+02  0.51100000000E-03 0. -1.
        -11    1    3    3    0    0  0.80887949953E+00  0.86766470566E+01 -0.12646180048E+02  0.15357876164E+02  0.51100000000E-03 0.  1.
        -12    1    3    3    0    0  0.13514263595E+02  0.14672610373E+02 -0.48752667726E+01  0.20535068585E+02  0.00000000000E+00 0.  1.
</event>
<event>
 7    1  0.2455451E-009  0.4778727E+02  0.7816164E-02  0.1312668E+00
        -11   -1    0    0    0    0  0.00000000000E+00  0.00000000000E+00  0.45593999997E+02  0.45594000000E+02  0.51100000000E-03 0.  1.
         11   -1    0    0    0    0 -0.00000000000E+00 -0.00000000000E+00 -0.45593999997E+02  0.45594000000E+02  0.51100000000E-03 0. -1.
    9900012    2    1    2    0    0 -0.15147410981E+02  0.22456729045E+02  0.33909799137E+02  0.47787271707E+02  0.20000003021E+02 0.  0.
         12    1    1    2    0    0  0.15147410981E+02 -0.22456729045E+02 -0.33909799137E+02  0.43400728293E+02  0.00000000000E+00 0. -1.
         11    1    3    3    0    0 -0.90541316295E+01  0.17788712591E+02  0.31428971140E+02  0.37231650814E+02  0.51100000000E-03 0. -1.
        -11    1    3    3    0    0 -0.30138166080E+01  0.59145341559E+01  0.43136009108E+00  0.66521332381E+01  0.51100000000E-03 0.  1.
         12    1    3    3    0    0 -0.30794627433E+01 -0.12465177016E+01  0.20494679068E+01  0.39034876545E+01  0.00000000000E+00 0. -1.
</event>
<event>
 7    1  0.2455451E-009  0.4778729E+02  0.7816164E-02  0.1312668E+00
        -11   -1    0    0    0    0  0.00000000000E+00  0.00000000000E+00  0.45593999997E+02  0.45594000000E+02  0.51100000000E-03 0.  1.
         11   -1    0    0    0    0 -0.00000000000E+00 -0.00000000000E+00 -0.45593999997E+02  0.45594000000E+02  0.51100000000E-03 0. -1.
    9900012    2    1    2    0    0 -0.12621370113E+02 -0.17539535843E+02  0.37638912457E+02  0.47787285351E+02  0.20000065227E+02 0.  0.
         12    1    1    2    0    0  0.12621370113E+02  0.17539535843E+02 -0.37638912457E+02  0.43400714649E+02  0.00000000000E+00 0. -1.
         11    1    3    3    0    0 -0.96122459714E+01 -0.13122400330E+02  0.16121167170E+02  0.22901630820E+02  0.51100000000E-03 0.  1.
        -11    1    3    3    0    0  0.20444049999E+01  0.27816309802E+01  0.39988067687E+01  0.52827567186E+01  0.51100000000E-03 0. -1.
         12    1    3    3    0    0 -0.50535291419E+01 -0.71987664924E+01  0.17518938518E+02  0.19602897812E+02  0.00000000000E+00 0. -1.
</event>
<event>
 7    1  0.2455451E-009  0.4778727E+02  0.7816164E-02  0.1312668E+00
        -11   -1    0    0    0    0  0.00000000000E+00  0.00000000000E+00  0.45593999997E+02  0.45594000000E+02  0.51100000000E-03 0.  1.
         11   -1    0    0    0    0 -0.00000000000E+00 -0.00000000000E+00 -0.45593999997E+02  0.45594000000E+02  0.51100000000E-03 0. -1.
    9900012    2    1    2    0    0  0.37026523533E+02  0.22533242606E+02 -0.22164548891E+01  0.47787272592E+02  0.20000007054E+02 0.  0.
         12    1    1    2    0    0 -0.37026523533E+02 -0.22533242606E+02  0.22164548891E+01  0.43400727408E+02  0.00000000000E+00 0. -1.
         11    1    3    3    0    0  0.17831238243E+01  0.75860403915E+01  0.33098453269E+01  0.84665586718E+01  0.51100000000E-03 0. -1.
        -11    1    3    3    0    0  0.33177165141E+02  0.15728853158E+02 -0.53508264693E+01  0.37104614978E+02  0.51100000000E-03 0.  1.
         12    1    3    3    0    0  0.20662345677E+01 -0.78165094346E+00 -0.17547374671E+00  0.22160989423E+01  0.00000000000E+00 0. -1.
</event>
<event>
 7    1  0.2455451E-009  0.4778727E+02  0.7816164E-02  0.1312668E+00
        -11   -1    0    0    0    0  0.00000000000E+00  0.00000000000E+00  0.45593999997E+02  0.45594000000E+02  0.51100000000E-03 0.  1.
         11   -1    0    0    0    0 -0.00000000000E+00 -0.00000000000E+00 -0.45593999997E+02  0.45594000000E+02  0.51100000000E-03 0. -1.
    9900012    2    1    2    0    0 -0.28534543991E+02  0.67018997982E-01 -0.32701659296E+02  0.47787271746E+02  0.20000003197E+02 0.  0.
         12    1    1    2    0    0  0.28534543991E+02 -0.67018997982E-01  0.32701659296E+02  0.43400728254E+02  0.00000000000E+00 0. -1.
         11    1    3    3    0    0 -0.16567675595E+02  0.62177437963E+00 -0.28065907858E+02  0.32597080577E+02  0.51100000000E-03 0. -1.
        -11    1    3    3    0    0 -0.74593141440E+01  0.37719552517E+00  0.14007038115E+01  0.75990535853E+01  0.51100000000E-03 0.  1.
        -12    1    3    3    0    0 -0.45075542520E+01 -0.93195090682E+00 -0.60364552497E+01  0.75911375833E+01  0.00000000000E+00 0.  1.
</event>
<event>
 7    1  0.2455451E-009  0.4778727E+02  0.7816164E-02  0.1312668E+00
        -11   -1    0    0    0    0  0.00000000000E+00  0.00000000000E+00  0.45593999997E+02  0.45594000000E+02  0.51100000000E-03 0. -1.
         11   -1    0    0    0    0 -0.00000000000E+00 -0.00000000000E+00 -0.45593999997E+02  0.45594000000E+02  0.51100000000E-03 0.  1.
    9900012    2    1    2    0    0  0.39938834371E+02  0.14158186580E+02 -0.93839565484E+01  0.47787269837E+02  0.19999994496E+02 0.  0.
         12    1    1    2    0    0 -0.39938834371E+02 -0.14158186580E+02  0.93839565484E+01  0.43400730163E+02  0.00000000000E+00 0. -1.
         11    1    3    3    0    0  0.54718172948E+01  0.48017992549E+01 -0.75865812333E+01  0.10514479334E+02  0.51100000000E-03 0. -1.
        -11    1    3    3    0    0  0.23846219724E+02  0.13205254725E+01 -0.18513909908E+01  0.23954407350E+02  0.51100000000E-03 0.  1.
         12    1    3    3    0    0  0.10620797352E+02  0.80358618530E+01  0.54015675675E-01  0.13318383153E+02  0.00000000000E+00 0. -1.
</event>
<event>
 7    1  0.2455451E-009  0.4778728E+02  0.7816164E-02  0.1312668E+00
        -11   -1    0    0    0    0  0.00000000000E+00  0.00000000000E+00  0.45593999997E+02  0.45594000000E+02  0.51100000000E-03 0. -1.
         11   -1    0    0    0    0 -0.00000000000E+00 -0.00000000000E+00 -0.45593999997E+02  0.45594000000E+02  0.51100000000E-03 0.  1.
    9900012    2    1    2    0    0  0.33064520647E+02  0.15139699421E+02 -0.23688599047E+02  0.47787277091E+02  0.20000027569E+02 0.  0.
         12    1    1    2    0    0 -0.33064520647E+02 -0.15139699421E+02  0.23688599047E+02  0.43400722909E+02  0.00000000000E+00 0. -1.
         11    1    3    3    0    0  0.12324466262E+02  0.10267669709E+02 -0.17480900672E+01  0.16136087785E+02  0.51100000000E-03 0. -1.
        -11    1    3    3    0    0  0.14129988816E+02  0.31367525687E+01 -0.90762244400E+01  0.17084310081E+02  0.51100000000E-03 0.  1.
         12    1    3    3    0    0  0.66100655701E+01  0.17352771441E+01 -0.12864284540E+02  0.14566879224E+02  0.00000000000E+00 0. -1.
</event>
<event>
 7    1  0.2455451E-009  0.4778727E+02  0.7816164E-02  0.1312668E+00
        -11   -1    0    0    0    0  0.00000000000E+00  0.00000000000E+00  0.45593999997E+02  0.45594000000E+02  0.51100000000E-03 0. -1.
         11   -1    0    0    0    0 -0.00000000000E+00 -0.00000000000E+00 -0.45593999997E+02  0.45594000000E+02  0.51100000000E-03 0.  1.
    9900012    2    1    2    0    0 -0.38849078987E+02 -0.19328023183E+02  0.89443285343E+00  0.47787269264E+02  0.19999991880E+02 0.  0.
         12    1    1    2    0    0  0.38849078987E+02  0.19328023183E+02 -0.89443285343E+00  0.43400730736E+02  0.00000000000E+00 0. -1.
         11    1    3    3    0    0  0.60922341164E-01 -0.21040794111E+01 -0.74483325390E+00  0.22328543475E+01  0.51100000000E-03 0. -1.
        -11    1    3    3    0    0 -0.70828209802E+01 -0.36910172449E+01  0.69213177528E+01  0.10568566650E+02  0.51100000000E-03 0.  1.
        -12    1    3    3    0    0 -0.31827180348E+02 -0.13532926527E+02 -0.52820516454E+01  0.34985848266E+02  0.00000000000E+00 0.  1.
</event>
<event>
 7    1  0.2455451E-009  0.4778727E+02  0.7816164E-02  0.1312668E+00
        -11   -1    0    0    0    0  0.00000000000E+00  0.00000000000E+00  0.45593999997E+02  0.45594000000E+02  0.51100000000E-03 0.  1.
         11   -1    0    0    0    0 -0.00000000000E+00 -0.00000000000E+00 -0.45593999997E+02  0.45594000000E+02  0.51100000000E-03 0. -1.
    9900012    2    1    2    0    0 -0.35769358955E+01  0.21461899600E+02  0.37552837490E+02  0.47787271799E+02  0.20000003442E+02 0.  0.
         12    1    1    2    0    0  0.35769358955E+01 -0.21461899600E+02 -0.37552837490E+02  0.43400728201E+02  0.00000000000E+00 0. -1.
         11    1    3    3    0    0 -0.24171507070E+01 -0.91698410002E+00  0.11803809829E+02  0.12083600628E+02  0.51100000000E-03 0. -1.
        -11    1    3    3    0    0 -0.10429766796E+00  0.21561625023E+02  0.18736461896E+02  0.28565180838E+02  0.51100000000E-03 0.  1.
        -12    1    3    3    0    0 -0.10554875206E+01  0.81725867629E+00  0.70125657643E+01  0.71384903340E+01  0.00000000000E+00 0.  1.
</event>
<event>
 7    1  0.2455451E-009  0.4778724E+02  0.7816164E-02  0.1312668E+00
        -11   -1    0    0    0    0  0.00000000000E+00  0.00000000000E+00  0.45593999997E+02  0.45594000000E+02  0.51100000000E-03 0. -1.
         11   -1    0    0    0    0 -0.00000000000E+00 -0.00000000000E+00 -0.45593999997E+02  0.45594000000E+02  0.51100000000E-03 0.  1.
    9900012    2    1    2    0    0 -0.23326077580E+02  0.29413159552E+02 -0.21780406444E+02  0.47787240157E+02  0.19999859172E+02 0.  0.
         12    1    1    2    0    0  0.23326077580E+02 -0.29413159552E+02  0.21780406444E+02  0.43400759843E+02  0.00000000000E+00 0. -1.
         11    1    3    3    0    0 -0.15255731219E+02  0.26573940048E+02 -0.11790573937E+02  0.32831833009E+02  0.51100000000E-03 0. -1.
        -11    1    3    3    0    0 -0.28026041328E+01 -0.14058505199E+01 -0.67744276991E+01  0.74648426990E+01  0.51100000000E-03 0.  1.
        -12    1    3    3    0    0 -0.52677422284E+01  0.42450700234E+01 -0.32154048080E+01  0.74905644492E+01  0.00000000000E+00 0.  1.
</event>
<event>
 7    1  0.2455451E-009  0.4778728E+02  0.7816164E-02  0.1312668E+00
        -11   -1    0    0    0    0  0.00000000000E+00  0.00000000000E+00  0.45593999997E+02  0.45594000000E+02  0.51100000000E-03 0.  1.
         11   -1    0    0    0    0 -0.00000000000E+00 -0.00000000000E+00 -0.45593999997E+02  0.45594000000E+02  0.51100000000E-03 0. -1.
    9900012    2    1    2    0    0 -0.37918917014E+02  0.11419426203E+02  0.17758806718E+02  0.47787276753E+02  0.20000026030E+02 0.  0.
         12    1    1    2    0    0  0.37918917014E+02 -0.11419426203E+02 -0.17758806718E+02  0.43400723247E+02  0.00000000000E+00 0. -1.
         11    1    3    3    0    0 -0.64112106361E+01 -0.49357551574E+01  0.15437565444E+01  0.82370192014E+01  0.51100000000E-03 0. -1.
        -11    1    3    3    0    0 -0.26309360395E+02  0.14511459532E+02  0.11108835017E+02  0.32033905753E+02  0.51100000000E-03 0.  1.
         12    1    3    3    0    0 -0.51983459826E+01  0.18437218286E+01  0.51062151568E+01  0.75163517988E+01  0.00000000000E+00 0. -1.
</event>
<event>
 7    1  0.2455451E-009  0.4778727E+02  0.7816164E-02  0.1312668E+00
        -11   -1    0    0    0    0  0.00000000000E+00  0.00000000000E+00  0.45593999997E+02  0.45594000000E+02  0.51100000000E-03 0.  1.
         11   -1    0    0    0    0 -0.00000000000E+00 -0.00000000000E+00 -0.45593999997E+02  0.45594000000E+02  0.51100000000E-03 0. -1.
    9900012    2    1    2    0    0  0.86225835875E+01 -0.40895431532E+02  0.11697767618E+02  0.47787273795E+02  0.20000012541E+02 0.  0.
         12    1    1    2    0    0 -0.86225835875E+01  0.40895431532E+02 -0.11697767618E+02  0.43400726205E+02  0.00000000000E+00 0. -1.
         11    1    3    3    0    0 -0.63582520831E+01 -0.88579204013E+01  0.36045862520E+01  0.11484039607E+02  0.51100000000E-03 0. -1.
        -11    1    3    3    0    0  0.93809492289E+01 -0.21470985603E+02  0.53921761396E+01  0.24043314975E+02  0.51100000000E-03 0.  1.
         12    1    3    3    0    0  0.55998864417E+01 -0.10566525527E+02  0.27010052265E+01  0.12259919213E+02  0.00000000000E+00 0. -1.
</event>
<event>
 7    1  0.2455451E-009  0.4778727E+02  0.7816164E-02  0.1312668E+00
        -11   -1    0    0    0    0  0.00000000000E+00  0.00000000000E+00  0.45593999997E+02  0.45594000000E+02  0.51100000000E-03 0. -1.
         11   -1    0    0    0    0 -0.00000000000E+00 -0.00000000000E+00 -0.45593999997E+02  0.45594000000E+02  0.51100000000E-03 0.  1.
    9900012    2    1    2    0    0 -0.62777288968E+01  0.38553366410E+02  0.18916966685E+02  0.47787267630E+02  0.19999984433E+02 0.  0.
         12    1    1    2    0    0  0.62777288968E+01 -0.38553366410E+02 -0.18916966685E+02  0.43400732370E+02  0.00000000000E+00 0. -1.
         11    1    3    3    0    0  0.22156878104E+01  0.16658041660E+00  0.21129018296E+01  0.30661663215E+01  0.51100000000E-03 0. -1.
        -11    1    3    3    0    0 -0.96707835294E+01  0.37548730896E+02  0.13402202575E+02  0.41024995797E+02  0.51100000000E-03 0.  1.
        -12    1    3    3    0    0  0.11773668223E+01  0.83805509720E+00  0.34018622803E+01  0.36961055118E+01  0.00000000000E+00 0.  1.
</event>
<event>
 7    1  0.2455451E-009  0.4778727E+02  0.7816164E-02  0.1312668E+00
        -11   -1    0    0    0    0  0.00000000000E+00  0.00000000000E+00  0.45593999997E+02  0.45594000000E+02  0.51100000000E-03 0. -1.
         11   -1    0    0    0    0 -0.00000000000E+00 -0.00000000000E+00 -0.45593999997E+02  0.45594000000E+02  0.51100000000E-03 0.  1.
    9900012    2    1    2    0    0  0.18752383239E+01 -0.21099039792E+02 -0.37880564245E+02  0.47787272513E+02  0.20000006694E+02 0.  0.
         12    1    1    2    0    0 -0.18752383239E+01  0.21099039792E+02  0.37880564245E+02  0.43400727487E+02  0.00000000000E+00 0. -1.
         11    1    3    3    0    0 -0.76887146540E+00 -0.90042557265E+01 -0.19367986881E+01  0.92422385783E+01  0.51100000000E-03 0. -1.
        -11    1    3    3    0    0  0.44975538748E+01 -0.56928199182E+01 -0.18765916941E+02  0.20119538473E+02  0.51100000000E-03 0.  1.
         12    1    3    3    0    0 -0.18534440855E+01 -0.64019641475E+01 -0.17177848616E+02  0.18425495461E+02  0.00000000000E+00 0. -1.
</event>
<event>
 7    1  0.2455451E-009  0.4778727E+02  0.7816164E-02  0.1312668E+00
        -11   -1    0    0    0    0  0.00000000000E+00  0.00000000000E+00  0.45593999997E+02  0.45594000000E+02  0.51100000000E-03 0.  1.
         11   -1    0    0    0    0 -0.00000000000E+00 -0.00000000000E+00 -0.45593999997E+02  0.45594000000E+02  0.51100000000E-03 0. -1.
    9900012    2    1    2    0    0  0.47287272672E+01 -0.31554475800E+02  0.29420702859E+02  0.47787267733E+02  0.19999984902E+02 0.  0.
         12    1    1    2    0    0 -0.47287272672E+01  0.31554475800E+02 -0.29420702859E+02  0.43400732267E+02  0.00000000000E+00 0. -1.
         11    1    3    3    0    0  0.24182261862E+01 -0.43260934435E+01  0.98156844279E+01  0.10995933949E+02  0.51100000000E-03 0. -1.
        -11    1    3    3    0    0  0.35461850618E+01 -0.19203947835E+02  0.51241375566E+01  0.20189696058E+02  0.51100000000E-03 0.  1.
        -12    1    3    3    0    0 -0.12356839808E+01 -0.80244345221E+01  0.14480880874E+02  0.16601637726E+02  0.00000000000E+00 0.  1.
</event>
<event>
 7    1  0.2455451E-009  0.4778727E+02  0.7816164E-02  0.1312668E+00
        -11   -1    0    0    0    0  0.00000000000E+00  0.00000000000E+00  0.45593999997E+02  0.45594000000E+02  0.51100000000E-03 0. -1.
         11   -1    0    0    0    0 -0.00000000000E+00 -0.00000000000E+00 -0.45593999997E+02  0.45594000000E+02  0.51100000000E-03 0.  1.
    9900012    2    1    2    0    0  0.33070040900E+02  0.21843151479E+02 -0.17688213871E+02  0.47787265195E+02  0.19999973329E+02 0.  0.
         12    1    1    2    0    0 -0.33070040900E+02 -0.21843151479E+02  0.17688213871E+02  0.43400734805E+02  0.00000000000E+00 0. -1.
         11    1    3    3    0    0  0.43725095519E+01 -0.41611882815E+00  0.30252294025E+01  0.53332924033E+01  0.51100000000E-03 0. -1.
        -11    1    3    3    0    0  0.39626026270E+01  0.56011422032E+00 -0.11103436290E+01  0.41531687607E+01  0.51100000000E-03 0.  1.
         12    1    3    3    0    0  0.24734928722E+02  0.21699156087E+02 -0.19603099645E+02  0.38300804031E+02  0.00000000000E+00 0. -1.
</event>
<event>
 7    1  0.2455451E-009  0.4778727E+02  0.7816164E-02  0.1312668E+00
        -11   -1    0    0    0    0  0.00000000000E+00  0.00000000000E+00  0.45593999997E+02  0.45594000000E+02  0.51100000000E-03 0.  1.
         11   -1    0    0    0    0 -0.00000000000E+00 -0.00000000000E+00 -0.45593999997E+02  0.45594000000E+02  0.51100000000E-03 0. -1.
    9900012    2    1    2    0    0 -0.22081844778E+01 -0.19665438146E+02  0.38626644217E+02  0.47787272130E+02  0.20000004951E+02 0.  0.
         12    1    1    2    0    0  0.22081844778E+01  0.19665438146E+02 -0.38626644217E+02  0.43400727870E+02  0.00000000000E+00 0. -1.
         11    1    3    3    0    0 -0.48703508998E+01 -0.17284750897E+01  0.90955090506E+00  0.52474019412E+01  0.51100000000E-03 0. -1.
        -11    1    3    3    0    0  0.36821185901E+01 -0.17764661797E+02  0.32496519410E+02  0.37217804612E+02  0.51100000000E-03 0.  1.
        -12    1    3    3    0    0 -0.10199521681E+01 -0.17230125985E+00  0.52205739013E+01  0.53220655773E+01  0.00000000000E+00 0.  1.
</event>
<event>
 7    1  0.2455451E-009  0.4778727E+02  0.7816164E-02  0.1312668E+00
        -11   -1    0    0    0    0  0.00000000000E+00  0.00000000000E+00  0.45593999997E+02  0.45594000000E+02  0.51100000000E-03 0.  1.
         11   -1    0    0    0    0 -0.00000000000E+00 -0.00000000000E+00 -0.45593999997E+02  0.45594000000E+02  0.51100000000E-03 0. -1.
    9900012    2    1    2    0    0  0.25866928779E+02 -0.14520638751E+02  0.31680854887E+02  0.47787268202E+02  0.19999987039E+02 0.  0.
         12    1    1    2    0    0 -0.25866928779E+02  0.14520638751E+02 -0.31680854887E+02  0.43400731798E+02  0.00000000000E+00 0. -1.
         11    1    3    3    0    0  0.35880855567E+01  0.35462968126E+01  0.12505093857E+01  0.51975333602E+01  0.51100000000E-03 0. -1.
        -11    1    3    3    0    0  0.14485711112E+02 -0.74729262229E+01  0.20021386106E+02  0.25817365369E+02  0.51100000000E-03 0.  1.
         12    1    3    3    0    0  0.77931321104E+01 -0.10594009341E+02  0.10408959396E+02  0.16772369472E+02  0.00000000000E+00 0. -1.
</event>
<event>
 7    1  0.2455451E-009  0.4778727E+02  0.7816164E-02  0.1312668E+00
        -11   -1    0    0    0    0  0.00000000000E+00  0.00000000000E+00  0.45593999997E+02  0.45594000000E+02  0.51100000000E-03 0.  1.
         11   -1    0    0    0    0 -0.00000000000E+00 -0.00000000000E+00 -0.45593999997E+02  0.45594000000E+02  0.51100000000E-03 0. -1.
    9900012    2    1    2    0    0 -0.37305642973E+02 -0.18855842242E+02 -0.11677737328E+02  0.47787270359E+02  0.19999996874E+02 0.  0.
         12    1    1    2    0    0  0.37305642973E+02  0.18855842242E+02  0.11677737328E+02  0.43400729641E+02  0.00000000000E+00 0. -1.
         11    1    3    3    0    0 -0.24414146839E+02 -0.18164602858E+02 -0.20860010803E+01  0.30501717388E+02  0.51100000000E-03 0. -1.
        -11    1    3    3    0    0 -0.12719039746E+02  0.91292171734E+00 -0.82571460319E+01  0.15191703623E+02  0.51100000000E-03 0.  1.
        -12    1    3    3    0    0 -0.17245638785E+00 -0.16041611015E+01 -0.13345902158E+01  0.20938493474E+01  0.00000000000E+00 0.  1.
</event>
<event>
 7    1  0.2455451E-009  0.4778727E+02  0.7816164E-02  0.1312668E+00
        -11   -1    0    0    0    0  0.00000000000E+00  0.00000000000E+00  0.45593999997E+02  0.45594000000E+02  0.51100000000E-03 0.  1.
         11   -1    0    0    0    0 -0.00000000000E+00 -0.00000000000E+00 -0.45593999997E+02  0.45594000000E+02  0.51100000000E-03 0. -1.
    9900012    2    1    2    0    0  0.38968257950E+02  0.14069748816E+02 -0.12928277491E+02  0.47787270533E+02  0.19999997668E+02 0.  0.
         12    1    1    2    0    0 -0.38968257950E+02 -0.14069748816E+02  0.12928277491E+02  0.43400729467E+02  0.00000000000E+00 0. -1.
         11    1    3    3    0    0  0.21840634375E+02 -0.13460477158E+01 -0.54747343411E+01  0.22556548289E+02  0.51100000000E-03 0. -1.
        -11    1    3    3    0    0  0.46805552648E+01  0.88404428208E+01 -0.36579358170E+01  0.10650892993E+02  0.51100000000E-03 0.  1.
         12    1    3    3    0    0  0.12447068310E+02  0.65753537109E+01 -0.37956073329E+01  0.14579829250E+02  0.00000000000E+00 0. -1.
</event>
<event>
 7    1  0.2455451E-009  0.4778725E+02  0.7816164E-02  0.1312668E+00
        -11   -1    0    0    0    0  0.00000000000E+00  0.00000000000E+00  0.45593999997E+02  0.45594000000E+02  0.51100000000E-03 0.  1.
         11   -1    0    0    0    0 -0.00000000000E+00 -0.00000000000E+00 -0.45593999997E+02  0.45594000000E+02  0.51100000000E-03 0. -1.
    9900012    2    1    2    0    0  0.43139788115E+02  0.29619503093E+01 -0.37162817445E+01  0.47787248645E+02  0.19999897870E+02 0.  0.
         12    1    1    2    0    0 -0.43139788115E+02 -0.29619503093E+01  0.37162817445E+01  0.43400751355E+02  0.00000000000E+00 0. -1.
         11    1    3    3    0    0  0.68510878730E+01  0.52434198109E+01  0.29123335916E+01  0.91056325188E+01  0.51100000000E-03 0. -1.
        -11    1    3    3    0    0  0.34105514615E+02 -0.23472168122E+00 -0.85032814748E+01  0.35150348754E+02  0.51100000000E-03 0.  1.
        -12    1    3    3    0    0  0.21831856265E+01 -0.20467478204E+01  0.18746661387E+01  0.35312673719E+01  0.00000000000E+00 0.  1.
</event>
<event>
 7    1  0.2455451E-009  0.4778727E+02  0.7816164E-02  0.1312668E+00
        -11   -1    0    0    0    0  0.00000000000E+00  0.00000000000E+00  0.45593999997E+02  0.45594000000E+02  0.51100000000E-03 0.  1.
         11   -1    0    0    0    0 -0.00000000000E+00 -0.00000000000E+00 -0.45593999997E+02  0.45594000000E+02  0.51100000000E-03 0. -1.
    9900012    2    1    2    0    0 -0.33622003220E+02 -0.22891490583E+02  0.15138165214E+02  0.47787268581E+02  0.19999988769E+02 0.  0.
         12    1    1    2    0    0  0.33622003220E+02  0.22891490583E+02 -0.15138165214E+02  0.43400731419E+02  0.00000000000E+00 0. -1.
         11    1    3    3    0    0 -0.20359901314E+02 -0.60668850213E+01  0.85641553428E+00  0.21261846656E+02  0.51100000000E-03 0. -1.
        -11    1    3    3    0    0 -0.94463612916E+01 -0.98958357344E+01  0.12238074103E+02  0.18355701146E+02  0.51100000000E-03 0.  1.
         12    1    3    3    0    0 -0.38157406144E+01 -0.69287698276E+01  0.20436755759E+01  0.81697207798E+01  0.00000000000E+00 0. -1.
</event>
<event>
 7    1  0.2455451E-009  0.4778727E+02  0.7816164E-02  0.1312668E+00
        -11   -1    0    0    0    0  0.00000000000E+00  0.00000000000E+00  0.45593999997E+02  0.45594000000E+02  0.51100000000E-03 0. -1.
         11   -1    0    0    0    0 -0.00000000000E+00 -0.00000000000E+00 -0.45593999997E+02  0.45594000000E+02  0.51100000000E-03 0.  1.
    9900012    2    1    2    0    0  0.23490447746E+02 -0.98452301591E+01 -0.35141053885E+02  0.47787270048E+02  0.19999995458E+02 0.  0.
         12    1    1    2    0    0 -0.23490447746E+02  0.98452301591E+01  0.35141053885E+02  0.43400729952E+02  0.00000000000E+00 0. -1.
         11    1    3    3    0    0  0.32721776381E+01 -0.57700993174E+01 -0.16681967755E+02  0.17952416023E+02  0.51100000000E-03 0. -1.
        -11    1    3    3    0    0  0.20387089237E+02 -0.10553638865E+01 -0.16080524639E+02  0.25987121299E+02  0.51100000000E-03 0.  1.
        -12    1    3    3    0    0 -0.16881912895E+00 -0.30197669552E+01 -0.23785614906E+01  0.38477327255E+01  0.00000000000E+00 0.  1.
</event>
<event>
 7    1  0.2455451E-009  0.4778727E+02  0.7816164E-02  0.1312668E+00
        -11   -1    0    0    0    0  0.00000000000E+00  0.00000000000E+00  0.45593999997E+02  0.45594000000E+02  0.51100000000E-03 0.  1.
         11   -1    0    0    0    0 -0.00000000000E+00 -0.00000000000E+00 -0.45593999997E+02  0.45594000000E+02  0.51100000000E-03 0. -1.
    9900012    2    1    2    0    0  0.37071537699E+02  0.20220013283E+02 -0.10023763579E+02  0.47787266356E+02  0.19999978623E+02 0.  0.
         12    1    1    2    0    0 -0.37071537699E+02 -0.20220013283E+02  0.10023763579E+02  0.43400733644E+02  0.00000000000E+00 0. -1.
         11    1    3    3    0    0  0.18676201556E+02  0.36303481150E+01  0.10954634541E+01  0.19057281350E+02  0.51100000000E-03 0.  1.
        -11    1    3    3    0    0  0.14213727840E+02  0.15582194629E+02 -0.57703678846E+01  0.21866229541E+02  0.51100000000E-03 0. -1.
         12    1    3    3    0    0  0.41816083026E+01  0.10074705392E+01 -0.53488591485E+01  0.68637554643E+01  0.00000000000E+00 0. -1.
</event>
<event>
 7    1  0.2455451E-009  0.4778726E+02  0.7816164E-02  0.1312668E+00
        -11   -1    0    0    0    0  0.00000000000E+00  0.00000000000E+00  0.45593999997E+02  0.45594000000E+02  0.51100000000E-03 0.  1.
         11   -1    0    0    0    0 -0.00000000000E+00 -0.00000000000E+00 -0.45593999997E+02  0.45594000000E+02  0.51100000000E-03 0. -1.
    9900012    2    1    2    0    0 -0.40057865644E+02  0.60534136556E+01  0.15567514939E+02  0.47787263390E+02  0.19999965102E+02 0.  0.
         12    1    1    2    0    0  0.40057865644E+02 -0.60534136556E+01 -0.15567514939E+02  0.43400736610E+02  0.00000000000E+00 0. -1.
         11    1    3    3    0    0 -0.27746707193E+02 -0.20023842307E+01  0.24812681343E+01  0.27929303509E+02  0.51100000000E-03 0. -1.
        -11    1    3    3    0    0 -0.73561465562E+01  0.34424330018E+01  0.63732816510E+01  0.10323853757E+02  0.51100000000E-03 0.  1.
         12    1    3    3    0    0 -0.49550118950E+01  0.46133648845E+01  0.67129651541E+01  0.95341061247E+01  0.00000000000E+00 0. -1.
</event>
<event>
 7    1  0.2455451E-009  0.4778727E+02  0.7816164E-02  0.1312668E+00
        -11   -1    0    0    0    0  0.00000000000E+00  0.00000000000E+00  0.45593999997E+02  0.45594000000E+02  0.51100000000E-03 0.  1.
         11   -1    0    0    0    0 -0.00000000000E+00 -0.00000000000E+00 -0.45593999997E+02  0.45594000000E+02  0.51100000000E-03 0. -1.
    9900012    2    1    2    0    0 -0.22961518279E+02 -0.36612064113E+02  0.39936411399E+01  0.47787265792E+02  0.19999976051E+02 0.  0.
         12    1    1    2    0    0  0.22961518279E+02  0.36612064113E+02 -0.39936411399E+01  0.43400734208E+02  0.00000000000E+00 0. -1.
         11    1    3    3    0    0 -0.11133550225E+02 -0.20750197858E+02 -0.31286083237E+01  0.23755311870E+02  0.51100000000E-03 0. -1.
        -11    1    3    3    0    0 -0.13946071666E+02 -0.14952828351E+02  0.73218075279E+01  0.21718399028E+02  0.51100000000E-03 0.  1.
         12    1    3    3    0    0  0.21181036123E+01 -0.90903790401E+00 -0.19955806437E+00  0.23135548933E+01  0.00000000000E+00 0. -1.
</event>
<event>
 7    1  0.2455451E-009  0.4778727E+02  0.7816164E-02  0.1312668E+00
        -11   -1    0    0    0    0  0.00000000000E+00  0.00000000000E+00  0.45593999997E+02  0.45594000000E+02  0.51100000000E-03 0.  1.
         11   -1    0    0    0    0 -0.00000000000E+00 -0.00000000000E+00 -0.45593999997E+02  0.45594000000E+02  0.51100000000E-03 0. -1.
    9900012    2    1    2    0    0  0.26435018332E+01 -0.37628318079E+02  0.21464972954E+02  0.47787268586E+02  0.19999988790E+02 0.  0.
         12    1    1    2    0    0 -0.26435018332E+01  0.37628318079E+02 -0.21464972954E+02  0.43400731414E+02  0.00000000000E+00 0. -1.
         11    1    3    3    0    0 -0.28125251122E+01 -0.14309907978E+01  0.10992298332E+01  0.33416071967E+01  0.51100000000E-03 0. -1.
        -11    1    3    3    0    0 -0.14080924752E+00 -0.13062834360E+02  0.15286135630E+02  0.20107794794E+02  0.51100000000E-03 0.  1.
        -12    1    3    3    0    0  0.55968361929E+01 -0.23134492922E+02  0.50796074910E+01  0.24337866594E+02  0.00000000000E+00 0.  1.
</event>
<event>
 7    1  0.2455451E-009  0.4778727E+02  0.7816164E-02  0.1312668E+00
        -11   -1    0    0    0    0  0.00000000000E+00  0.00000000000E+00  0.45593999997E+02  0.45594000000E+02  0.51100000000E-03 0. -1.
         11   -1    0    0    0    0 -0.00000000000E+00 -0.00000000000E+00 -0.45593999997E+02  0.45594000000E+02  0.51100000000E-03 0.  1.
    9900012    2    1    2    0    0 -0.19530410841E+02 -0.37987782114E+02  0.76886286255E+01  0.47787267890E+02  0.19999985618E+02 0.  0.
         12    1    1    2    0    0  0.19530410841E+02  0.37987782114E+02 -0.76886286255E+01  0.43400732110E+02  0.00000000000E+00 0. -1.
         11    1    3    3    0    0 -0.55493420267E+01 -0.24548076269E+02  0.73722893667E+01  0.26225062368E+02  0.51100000000E-03 0.  1.
        -11    1    3    3    0    0 -0.34309322271E+01  0.10819635678E+01 -0.22534476898E+00  0.36045418065E+01  0.51100000000E-03 0. -1.
         12    1    3    3    0    0 -0.10550136587E+02 -0.14521669412E+02  0.54168402779E+00  0.17957663715E+02  0.00000000000E+00 0. -1.
</event>
<event>
 7    1  0.2455451E-009  0.4778727E+02  0.7816164E-02  0.1312668E+00
        -11   -1    0    0    0    0  0.00000000000E+00  0.00000000000E+00  0.45593999997E+02  0.45594000000E+02  0.51100000000E-03 0. -1.
         11   -1    0    0    0    0 -0.00000000000E+00 -0.00000000000E+00 -0.45593999997E+02  0.45594000000E+02  0.51100000000E-03 0.  1.
    9900012    2    1    2    0    0 -0.42858624772E+02 -0.36766001108E+01 -0.57657593377E+01  0.47787273204E+02  0.20000009845E+02 0.  0.
         12    1    1    2    0    0  0.42858624772E+02  0.36766001108E+01  0.57657593377E+01  0.43400726796E+02  0.00000000000E+00 0. -1.
         11    1    3    3    0    0 -0.14761007120E+02 -0.63122998243E+01 -0.26385127280E+01  0.16269425618E+02  0.51100000000E-03 0. -1.
        -11    1    3    3    0    0 -0.24328995673E+02 -0.30306068172E+01 -0.17874418183E+01  0.24582098297E+02  0.51100000000E-03 0.  1.
        -12    1    3    3    0    0 -0.37686219783E+01  0.56663065307E+01 -0.13398047914E+01  0.69357492886E+01  0.00000000000E+00 0.  1.
</event>
<event>
 7    1  0.2455451E-009  0.4778727E+02  0.7816164E-02  0.1312668E+00
        -11   -1    0    0    0    0  0.00000000000E+00  0.00000000000E+00  0.45593999997E+02  0.45594000000E+02  0.51100000000E-03 0. -1.
         11   -1    0    0    0    0 -0.00000000000E+00 -0.00000000000E+00 -0.45593999997E+02  0.45594000000E+02  0.51100000000E-03 0.  1.
    9900012    2    1    2    0    0 -0.17810457369E+02 -0.24943095738E+02 -0.30728699297E+02  0.47787269855E+02  0.19999994576E+02 0.  0.
         12    1    1    2    0    0  0.17810457369E+02  0.24943095738E+02  0.30728699297E+02  0.43400730145E+02  0.00000000000E+00 0. -1.
         11    1    3    3    0    0 -0.15429561062E+02 -0.92590452687E+01 -0.15534786304E+02  0.23772481142E+02  0.51100000000E-03 0. -1.
        -11    1    3    3    0    0  0.26715645682E+01 -0.94293953557E+01 -0.11660795063E+02  0.15232363434E+02  0.51100000000E-03 0.  1.
        -12    1    3    3    0    0 -0.50524608757E+01 -0.62546551132E+01 -0.35331179294E+01  0.87824252794E+01  0.00000000000E+00 0.  1.
</event>
<event>
 7    1  0.2455451E-009  0.4778727E+02  0.7816164E-02  0.1312668E+00
        -11   -1    0    0    0    0  0.00000000000E+00  0.00000000000E+00  0.45593999997E+02  0.45594000000E+02  0.51100000000E-03 0.  1.
         11   -1    0    0    0    0 -0.00000000000E+00 -0.00000000000E+00 -0.45593999997E+02  0.45594000000E+02  0.51100000000E-03 0. -1.
    9900012    2    1    2    0    0 -0.30342372444E+02 -0.77652909993E+01  0.30044366735E+02  0.47787270947E+02  0.19999999555E+02 0.  0.
         12    1    1    2    0    0  0.30342372444E+02  0.77652909993E+01 -0.30044366735E+02  0.43400729053E+02  0.00000000000E+00 0. -1.
         11    1    3    3    0    0  0.10274253581E+01  0.10537204027E+01 -0.11633010233E+01  0.18759528474E+01  0.51100000000E-03 0. -1.
        -11    1    3    3    0    0 -0.88143837298E+01 -0.13552891172E+01  0.13909632559E+02  0.16522955163E+02  0.51100000000E-03 0.  1.
         12    1    3    3    0    0 -0.22555414072E+02 -0.74637222848E+01  0.17298035199E+02  0.29388362936E+02  0.00000000000E+00 0. -1.
</event>
<event>
 7    1  0.2455451E-009  0.4778727E+02  0.7816164E-02  0.1312668E+00
        -11   -1    0    0    0    0  0.00000000000E+00  0.00000000000E+00  0.45593999997E+02  0.45594000000E+02  0.51100000000E-03 0.  1.
         11   -1    0    0    0    0 -0.00000000000E+00 -0.00000000000E+00 -0.45593999997E+02  0.45594000000E+02  0.51100000000E-03 0. -1.
    9900012    2    1    2    0    0  0.24959740337E+02  0.86724353043E+01  0.34429978391E+02  0.47787272082E+02  0.20000004732E+02 0.  0.
         12    1    1    2    0    0 -0.24959740337E+02 -0.86724353043E+01 -0.34429978391E+02  0.43400727918E+02  0.00000000000E+00 0. -1.
         11    1    3    3    0    0  0.61114760024E+01  0.63126158424E+01  0.15638769768E+02  0.17937959132E+02  0.51100000000E-03 0. -1.
        -11    1    3    3    0    0  0.97894400260E+01 -0.37437587812E+01  0.34848570194E+01  0.11045048417E+02  0.51100000000E-03 0.  1.
        -12    1    3    3    0    0  0.90588243087E+01  0.61035782431E+01  0.15306351604E+02  0.18804264533E+02  0.00000000000E+00 0.  1.
</event>
<event>
 7    1  0.2455451E-009  0.4778725E+02  0.7816164E-02  0.1312668E+00
        -11   -1    0    0    0    0  0.00000000000E+00  0.00000000000E+00  0.45593999997E+02  0.45594000000E+02  0.51100000000E-03 0. -1.
         11   -1    0    0    0    0 -0.00000000000E+00 -0.00000000000E+00 -0.45593999997E+02  0.45594000000E+02  0.51100000000E-03 0.  1.
    9900012    2    1    2    0    0 -0.25128205490E+02  0.14252380943E+01 -0.35357705029E+02  0.47787247476E+02  0.19999892541E+02 0.  0.
         12    1    1    2    0    0  0.25128205490E+02 -0.14252380943E+01  0.35357705029E+02  0.43400752524E+02  0.00000000000E+00 0. -1.
         11    1    3    3    0    0 -0.14039594804E+02  0.54827172970E+01 -0.22033343909E+02  0.26695292755E+02  0.51100000000E-03 0. -1.
        -11    1    3    3    0    0 -0.20152104499E+01 -0.50290367393E+01 -0.10012451123E+02  0.11384263763E+02  0.51100000000E-03 0.  1.
         12    1    3    3    0    0 -0.90734002364E+01  0.97155753658E+00 -0.33119099969E+01  0.97076909574E+01  0.00000000000E+00 0. -1.
</event>
<event>
 7    1  0.2455451E-009  0.4778727E+02  0.7816164E-02  0.1312668E+00
        -11   -1    0    0    0    0  0.00000000000E+00  0.00000000000E+00  0.45593999997E+02  0.45594000000E+02  0.51100000000E-03 0.  1.
         11   -1    0    0    0    0 -0.00000000000E+00 -0.00000000000E+00 -0.45593999997E+02  0.45594000000E+02  0.51100000000E-03 0. -1.
    9900012    2    1    2    0    0  0.25438383986E+02  0.34704401912E+02  0.56671395019E+01  0.47787270029E+02  0.19999995370E+02 0.  0.
         12    1    1    2    0    0 -0.25438383986E+02 -0.34704401912E+02 -0.56671395019E+01  0.43400729971E+02  0.00000000000E+00 0. -1.
         11    1    3    3    0    0  0.12091834257E+02  0.73946572875E+01 -0.45555924411E+01  0.14887808262E+02  0.51100000000E-03 0.  1.
        -11    1    3    3    0    0  0.97901660357E+01  0.21906924348E+02  0.48260284023E+01  0.24475523198E+02  0.51100000000E-03 0. -1.
        -12    1    3    3    0    0  0.35563836935E+01  0.54028202762E+01  0.53967035407E+01  0.84239385693E+01  0.00000000000E+00 0.  1.
</event>
<event>
 7    1  0.2455451E-009  0.4778726E+02  0.7816164E-02  0.1312668E+00
        -11   -1    0    0    0    0  0.00000000000E+00  0.00000000000E+00  0.45593999997E+02  0.45594000000E+02  0.51100000000E-03 0. -1.
         11   -1    0    0    0    0 -0.00000000000E+00 -0.00000000000E+00 -0.45593999997E+02  0.45594000000E+02  0.51100000000E-03 0.  1.
    9900012    2    1    2    0    0  0.28967565011E+02  0.29098396455E+02 -0.14063705367E+02  0.47787259136E+02  0.19999945705E+02 0.  0.
         12    1    1    2    0    0 -0.28967565011E+02 -0.29098396455E+02  0.14063705367E+02  0.43400740864E+02  0.00000000000E+00 0. -1.
         11    1    3    3    0    0  0.23022810296E+02  0.26002187866E+02 -0.72005783921E+01  0.35468463417E+02  0.51100000000E-03 0. -1.
        -11    1    3    3    0    0 -0.14119523176E+01  0.20168652507E+01 -0.31784190459E+01  0.40204107600E+01  0.51100000000E-03 0.  1.
         12    1    3    3    0    0  0.73567070325E+01  0.10793433382E+01 -0.36847079294E+01  0.82983849591E+01  0.00000000000E+00 0. -1.
</event>
<event>
 7    1  0.2455451E-009  0.4778727E+02  0.7816164E-02  0.1312668E+00
        -11   -1    0    0    0    0  0.00000000000E+00  0.00000000000E+00  0.45593999997E+02  0.45594000000E+02  0.51100000000E-03 0. -1.
         11   -1    0    0    0    0 -0.00000000000E+00 -0.00000000000E+00 -0.45593999997E+02  0.45594000000E+02  0.51100000000E-03 0.  1.
    9900012    2    1    2    0    0 -0.28161418592E+01  0.32036014665E+02 -0.29144234251E+02  0.47787270966E+02  0.19999999641E+02 0.  0.
         12    1    1    2    0    0  0.28161418592E+01 -0.32036014665E+02  0.29144234251E+02  0.43400729034E+02  0.00000000000E+00 0. -1.
         11    1    3    3    0    0 -0.45069280393E+01  0.23683731330E+02 -0.10264067387E+02  0.26202721417E+02  0.51100000000E-03 0.  1.
        -11    1    3    3    0    0  0.36255112323E+01  0.29847644292E+01 -0.73917542965E+01  0.87573501834E+01  0.51100000000E-03 0. -1.
         12    1    3    3    0    0 -0.19347250522E+01  0.53675189061E+01 -0.11488412568E+02  0.12827199365E+02  0.00000000000E+00 0. -1.
</event>
<event>
 7    1  0.2455451E-009  0.4778727E+02  0.7816164E-02  0.1312668E+00
        -11   -1    0    0    0    0  0.00000000000E+00  0.00000000000E+00  0.45593999997E+02  0.45594000000E+02  0.51100000000E-03 0.  1.
         11   -1    0    0    0    0 -0.00000000000E+00 -0.00000000000E+00 -0.45593999997E+02  0.45594000000E+02  0.51100000000E-03 0. -1.
    9900012    2    1    2    0    0 -0.58635883924E+01  0.62687862492E+01  0.42543435541E+02  0.47787271233E+02  0.20000000862E+02 0.  0.
         12    1    1    2    0    0  0.58635883924E+01 -0.62687862492E+01 -0.42543435541E+02  0.43400728767E+02  0.00000000000E+00 0. -1.
         11    1    3    3    0    0 -0.33131204541E+01 -0.41752494532E+01  0.18617797255E+02  0.19365739078E+02  0.51100000000E-03 0. -1.
        -11    1    3    3    0    0 -0.36859472379E+00  0.12290127104E+02  0.17486966459E+02  0.21377022302E+02  0.51100000000E-03 0.  1.
        -12    1    3    3    0    0 -0.21818732145E+01 -0.18460914015E+01  0.64386718264E+01  0.70445098534E+01  0.00000000000E+00 0.  1.
</event>
<event>
 7    1  0.2455451E-009  0.4778728E+02  0.7816164E-02  0.1312668E+00
        -11   -1    0    0    0    0  0.00000000000E+00  0.00000000000E+00  0.45593999997E+02  0.45594000000E+02  0.51100000000E-03 0.  1.
         11   -1    0    0    0    0 -0.00000000000E+00 -0.00000000000E+00 -0.45593999997E+02  0.45594000000E+02  0.51100000000E-03 0. -1.
    9900012    2    1    2    0    0  0.43211275576E+02 -0.39489880526E+01  0.90214199059E+00  0.47787277613E+02  0.20000029949E+02 0.  0.
         12    1    1    2    0    0 -0.43211275576E+02  0.39489880526E+01 -0.90214199059E+00  0.43400722387E+02  0.00000000000E+00 0. -1.
         11    1    3    3    0    0  0.29264912866E+01  0.39153835869E+01  0.43289024528E+01  0.65294698552E+01  0.51100000000E-03 0. -1.
        -11    1    3    3    0    0  0.25204674230E+02 -0.55936320463E+01 -0.31085638651E+01  0.26004374479E+02  0.51100000000E-03 0.  1.
         12    1    3    3    0    0  0.15080110060E+02 -0.22707395932E+01 -0.31819659711E+00  0.15253433279E+02  0.00000000000E+00 0. -1.
</event>
<event>
 7    1  0.2455451E-009  0.4778727E+02  0.7816164E-02  0.1312668E+00
        -11   -1    0    0    0    0  0.00000000000E+00  0.00000000000E+00  0.45593999997E+02  0.45594000000E+02  0.51100000000E-03 0.  1.
         11   -1    0    0    0    0 -0.00000000000E+00 -0.00000000000E+00 -0.45593999997E+02  0.45594000000E+02  0.51100000000E-03 0. -1.
    9900012    2    1    2    0    0 -0.32460454542E+02 -0.15510723941E+01  0.28766932970E+02  0.47787269970E+02  0.19999995101E+02 0.  0.
         12    1    1    2    0    0  0.32460454542E+02  0.15510723941E+01 -0.28766932970E+02  0.43400730030E+02  0.00000000000E+00 0. -1.
         11    1    3    3    0    0 -0.10658029695E+02 -0.59791521153E+00  0.17966564439E+02  0.20898529555E+02  0.51100000000E-03 0. -1.
        -11    1    3    3    0    0 -0.15782884865E+02 -0.58829040187E+01  0.74235538137E+01  0.18406986876E+02  0.51100000000E-03 0.  1.
         12    1    3    3    0    0 -0.60195399816E+01  0.49297468361E+01  0.33768147174E+01  0.84817535388E+01  0.00000000000E+00 0. -1.
</event>
<event>
 7    1  0.2455451E-009  0.4778727E+02  0.7816164E-02  0.1312668E+00
        -11   -1    0    0    0    0  0.00000000000E+00  0.00000000000E+00  0.45593999997E+02  0.45594000000E+02  0.51100000000E-03 0.  1.
         11   -1    0    0    0    0 -0.00000000000E+00 -0.00000000000E+00 -0.45593999997E+02  0.45594000000E+02  0.51100000000E-03 0. -1.
    9900012    2    1    2    0    0  0.20335421616E+02 -0.50927243944E+01  0.38002077757E+02  0.47787272726E+02  0.20000007665E+02 0.  0.
         12    1    1    2    0    0 -0.20335421616E+02  0.50927243944E+01 -0.38002077757E+02  0.43400727274E+02  0.00000000000E+00 0. -1.
         11    1    3    3    0    0  0.18542369978E+02 -0.95766689839E+01  0.27667711403E+02  0.34655942171E+02  0.51100000000E-03 0. -1.
        -11    1    3    3    0    0  0.14514111851E+01 -0.66539511452E+00  0.65236317455E+01  0.67161831794E+01  0.51100000000E-03 0.  1.
         12    1    3    3    0    0  0.34164045308E+00  0.51493397040E+01  0.38107346089E+01  0.64151473752E+01  0.00000000000E+00 0. -1.
</event>
<event>
 7    1  0.2455451E-009  0.4778727E+02  0.7816164E-02  0.1312668E+00
        -11   -1    0    0    0    0  0.00000000000E+00  0.00000000000E+00  0.45593999997E+02  0.45594000000E+02  0.51100000000E-03 0.  1.
         11   -1    0    0    0    0 -0.00000000000E+00 -0.00000000000E+00 -0.45593999997E+02  0.45594000000E+02  0.51100000000E-03 0. -1.
    9900012    2    1    2    0    0  0.22404295763E+02 -0.17526448070E+02  0.32779478314E+02  0.47787273633E+02  0.20000011803E+02 0.  0.
         12    1    1    2    0    0 -0.22404295763E+02  0.17526448070E+02 -0.32779478314E+02  0.43400726367E+02  0.00000000000E+00 0. -1.
         11    1    3    3    0    0  0.64065043766E+01  0.25936403055E+01  0.60735629172E+01  0.92010018548E+01  0.51100000000E-03 0. -1.
        -11    1    3    3    0    0  0.67246650859E+01 -0.10477960420E+02  0.20156014039E+02  0.23691215192E+02  0.51100000000E-03 0.  1.
        -12    1    3    3    0    0  0.92731263006E+01 -0.96421279562E+01  0.65499013583E+01  0.14895056586E+02  0.00000000000E+00 0.  1.
</event>
<event>
 7    1  0.2455451E-009  0.4778727E+02  0.7816164E-02  0.1312668E+00
        -11   -1    0    0    0    0  0.00000000000E+00  0.00000000000E+00  0.45593999997E+02  0.45594000000E+02  0.51100000000E-03 0.  1.
         11   -1    0    0    0    0 -0.00000000000E+00 -0.00000000000E+00 -0.45593999997E+02  0.45594000000E+02  0.51100000000E-03 0. -1.
    9900012    2    1    2    0    0 -0.18430320601E+02  0.37102098277E+02  0.12937577167E+02  0.47787270548E+02  0.19999997739E+02 0.  0.
         12    1    1    2    0    0  0.18430320601E+02 -0.37102098277E+02 -0.12937577167E+02  0.43400729452E+02  0.00000000000E+00 0. -1.
         11    1    3    3    0    0  0.38502430512E+01  0.73972452736E+01  0.42969554325E+01  0.93812278216E+01  0.51100000000E-03 0. -1.
        -11    1    3    3    0    0 -0.95681018137E+01  0.90693760162E+01  0.29046209446E+01  0.13499591725E+02  0.51100000000E-03 0.  1.
         12    1    3    3    0    0 -0.12712461838E+02  0.20635476987E+02  0.57360007904E+01  0.24906451002E+02  0.00000000000E+00 0. -1.
</event>
<event>
 7    1  0.2455451E-009  0.4778726E+02  0.7816164E-02  0.1312668E+00
        -11   -1    0    0    0    0  0.00000000000E+00  0.00000000000E+00  0.45593999997E+02  0.45594000000E+02  0.51100000000E-03 0.  1.
         11   -1    0    0    0    0 -0.00000000000E+00 -0.00000000000E+00 -0.45593999997E+02  0.45594000000E+02  0.51100000000E-03 0. -1.
    9900012    2    1    2    0    0 -0.58808590935E+01 -0.28216211463E+02  0.32448186739E+02  0.47787263650E+02  0.19999966287E+02 0.  0.
         12    1    1    2    0    0  0.58808590935E+01  0.28216211463E+02 -0.32448186739E+02  0.43400736350E+02  0.00000000000E+00 0. -1.
         11    1    3    3    0    0 -0.75614896802E+01 -0.57477762626E+01  0.13358656309E+02  0.16391057220E+02  0.51100000000E-03 0. -1.
        -11    1    3    3    0    0  0.53063563613E+01 -0.59216529262E+01  0.68885619359E+01  0.10520250806E+02  0.51100000000E-03 0.  1.
         12    1    3    3    0    0 -0.36257257746E+01 -0.16546782275E+02  0.12200968494E+02  0.20875955624E+02  0.00000000000E+00 0. -1.
</event>
<event>
 7    1  0.2455451E-009  0.4778727E+02  0.7816164E-02  0.1312668E+00
        -11   -1    0    0    0    0  0.00000000000E+00  0.00000000000E+00  0.45593999997E+02  0.45594000000E+02  0.51100000000E-03 0.  1.
         11   -1    0    0    0    0 -0.00000000000E+00 -0.00000000000E+00 -0.45593999997E+02  0.45594000000E+02  0.51100000000E-03 0. -1.
    9900012    2    1    2    0    0 -0.26157814931E+02 -0.17673723111E+02  0.29783068574E+02  0.47787274842E+02  0.20000017312E+02 0.  0.
         12    1    1    2    0    0  0.26157814931E+02  0.17673723111E+02 -0.29783068574E+02  0.43400725158E+02  0.00000000000E+00 0. -1.
         11    1    3    3    0    0 -0.56374754755E+01 -0.43555391969E+00 -0.40390107642E+00  0.56686835592E+01  0.51100000000E-03 0. -1.
        -11    1    3    3    0    0 -0.21132393364E+02 -0.12654794199E+02  0.26705095888E+02  0.36330207984E+02  0.51100000000E-03 0.  1.
        -12    1    3    3    0    0  0.61205390825E+00 -0.45833749927E+01  0.34818737625E+01  0.57883832983E+01  0.00000000000E+00 0.  1.
</event>
<event>
 7    1  0.2455451E-009  0.4778729E+02  0.7816164E-02  0.1312668E+00
        -11   -1    0    0    0    0  0.00000000000E+00  0.00000000000E+00  0.45593999997E+02  0.45594000000E+02  0.51100000000E-03 0. -1.
         11   -1    0    0    0    0 -0.00000000000E+00 -0.00000000000E+00 -0.45593999997E+02  0.45594000000E+02  0.51100000000E-03 0.  1.
    9900012    2    1    2    0    0 -0.22140396717E+02  0.13301569070E+02 -0.34878251198E+02  0.47787293633E+02  0.20000102989E+02 0.  0.
         12    1    1    2    0    0  0.22140396717E+02 -0.13301569070E+02  0.34878251198E+02  0.43400706367E+02  0.00000000000E+00 0. -1.
         11    1    3    3    0    0 -0.19683907752E+01 -0.25815244627E+01 -0.97112136296E+01  0.10239458053E+02  0.51100000000E-03 0. -1.
        -11    1    3    3    0    0 -0.89161341468E+01  0.10947988354E+01 -0.10861517154E+02  0.14094984489E+02  0.51100000000E-03 0.  1.
         12    1    3    3    0    0 -0.11255871795E+02  0.14788294698E+02 -0.14305520415E+02  0.23452851090E+02  0.00000000000E+00 0. -1.
</event>
<event>
 7    1  0.2455451E-009  0.4778727E+02  0.7816164E-02  0.1312668E+00
        -11   -1    0    0    0    0  0.00000000000E+00  0.00000000000E+00  0.45593999997E+02  0.45594000000E+02  0.51100000000E-03 0.  1.
         11   -1    0    0    0    0 -0.00000000000E+00 -0.00000000000E+00 -0.45593999997E+02  0.45594000000E+02  0.51100000000E-03 0. -1.
    9900012    2    1    2    0    0  0.33193831288E+02 -0.19431834774E+01  0.27892956992E+02  0.47787269046E+02  0.19999990888E+02 0.  0.
         12    1    1    2    0    0 -0.33193831288E+02  0.19431834774E+01 -0.27892956992E+02  0.43400730954E+02  0.00000000000E+00 0. -1.
         11    1    3    3    0    0  0.16977283616E+02 -0.28322864874E+01  0.76738766654E+01  0.18845115788E+02  0.51100000000E-03 0.  1.
        -11    1    3    3    0    0  0.13296233652E+02  0.40478236801E+01  0.20344073039E+02  0.24638506731E+02  0.51100000000E-03 0. -1.
        -12    1    3    3    0    0  0.29203140200E+01 -0.31587206701E+01 -0.12499271273E+00  0.43036465266E+01  0.00000000000E+00 0.  1.
</event>
<event>
 7    1  0.2455451E-009  0.4778729E+02  0.7816164E-02  0.1312668E+00
        -11   -1    0    0    0    0  0.00000000000E+00  0.00000000000E+00  0.45593999997E+02  0.45594000000E+02  0.51100000000E-03 0.  1.
         11   -1    0    0    0    0 -0.00000000000E+00 -0.00000000000E+00 -0.45593999997E+02  0.45594000000E+02  0.51100000000E-03 0. -1.
    9900012    2    1    2    0    0 -0.27743600649E+02  0.10254132967E+02  0.31761098846E+02  0.47787285493E+02  0.20000065875E+02 0.  0.
         12    1    1    2    0    0  0.27743600649E+02 -0.10254132967E+02 -0.31761098846E+02  0.43400714507E+02  0.00000000000E+00 0. -1.
         11    1    3    3    0    0 -0.36799523259E+01  0.51533465841E+01  0.11113150349E+01  0.64291563603E+01  0.51100000000E-03 0. -1.
        -11    1    3    3    0    0 -0.13612490653E+02 -0.36538820308E+01  0.14460829863E+02  0.20193225505E+02  0.51100000000E-03 0.  1.
        -12    1    3    3    0    0 -0.10451157669E+02  0.87546684136E+01  0.16188953947E+02  0.21164903628E+02  0.00000000000E+00 0.  1.
</event>
<event>
 7    1  0.2455451E-009  0.4778727E+02  0.7816164E-02  0.1312668E+00
        -11   -1    0    0    0    0  0.00000000000E+00  0.00000000000E+00  0.45593999997E+02  0.45594000000E+02  0.51100000000E-03 0.  1.
         11   -1    0    0    0    0 -0.00000000000E+00 -0.00000000000E+00 -0.45593999997E+02  0.45594000000E+02  0.51100000000E-03 0. -1.
    9900012    2    1    2    0    0 -0.18587728461E+02  0.16286342756E+02  0.35677368003E+02  0.47787271926E+02  0.20000004021E+02 0.  0.
         12    1    1    2    0    0  0.18587728461E+02 -0.16286342756E+02 -0.35677368003E+02  0.43400728074E+02  0.00000000000E+00 0. -1.
         11    1    3    3    0    0 -0.47077443444E+01  0.14525670871E+02  0.15782315498E+02  0.21959951134E+02  0.51100000000E-03 0.  1.
        -11    1    3    3    0    0 -0.14549980120E+02  0.69032625460E+00  0.19772400007E+02  0.24558629321E+02  0.51100000000E-03 0. -1.
         12    1    3    3    0    0  0.66999600398E+00  0.10703456309E+01  0.12265249857E+00  0.12686914717E+01  0.00000000000E+00 0. -1.
</event>
<event>
 7    1  0.2455451E-009  0.4778727E+02  0.7816164E-02  0.1312668E+00
        -11   -1    0    0    0    0  0.00000000000E+00  0.00000000000E+00  0.45593999997E+02  0.45594000000E+02  0.51100000000E-03 0. -1.
         11   -1    0    0    0    0 -0.00000000000E+00 -0.00000000000E+00 -0.45593999997E+02  0.45594000000E+02  0.51100000000E-03 0.  1.
    9900012    2    1    2    0    0 -0.20152503474E+02  0.51391044118E+00 -0.38434826547E+02  0.47787269685E+02  0.19999993801E+02 0.  0.
         12    1    1    2    0    0  0.20152503474E+02 -0.51391044118E+00  0.38434826547E+02  0.43400730315E+02  0.00000000000E+00 0. -1.
         11    1    3    3    0    0 -0.16088200995E+02  0.22540143736E+01 -0.13741438140E+02  0.21277638837E+02  0.51100000000E-03 0. -1.
        -11    1    3    3    0    0 -0.57140264765E+01  0.15778228922E+01 -0.14596038358E+02  0.15753855390E+02  0.51100000000E-03 0.  1.
         12    1    3    3    0    0  0.16497239980E+01 -0.33179268246E+01 -0.10097350049E+02  0.10755775458E+02  0.00000000000E+00 0. -1.
</event>
<event>
 7    1  0.2455451E-009  0.4778728E+02  0.7816164E-02  0.1312668E+00
        -11   -1    0    0    0    0  0.00000000000E+00  0.00000000000E+00  0.45593999997E+02  0.45594000000E+02  0.51100000000E-03 0.  1.
         11   -1    0    0    0    0 -0.00000000000E+00 -0.00000000000E+00 -0.45593999997E+02  0.45594000000E+02  0.51100000000E-03 0. -1.
    9900012    2    1    2    0    0 -0.17231288867E+02 -0.23164838670E+02  0.32405176873E+02  0.47787279329E+02  0.20000037772E+02 0.  0.
         12    1    1    2    0    0  0.17231288867E+02  0.23164838670E+02 -0.32405176873E+02  0.43400720671E+02  0.00000000000E+00 0. -1.
         11    1    3    3    0    0 -0.20055834131E+01 -0.30982709647E+01  0.11141477319E+02  0.11736872024E+02  0.51100000000E-03 0. -1.
        -11    1    3    3    0    0 -0.15782116106E+02 -0.16941093073E+02  0.11635936496E+02  0.25912754421E+02  0.51100000000E-03 0.  1.
        -12    1    3    3    0    0  0.55641065290E+00 -0.31254746324E+01  0.96277630576E+01  0.10137652883E+02  0.00000000000E+00 0.  1.
</event>
<event>
 7    1  0.2455451E-009  0.4778729E+02  0.7816164E-02  0.1312668E+00
        -11   -1    0    0    0    0  0.00000000000E+00  0.00000000000E+00  0.45593999997E+02  0.45594000000E+02  0.51100000000E-03 0.  1.
         11   -1    0    0    0    0 -0.00000000000E+00 -0.00000000000E+00 -0.45593999997E+02  0.45594000000E+02  0.51100000000E-03 0. -1.
    9900012    2    1    2    0    0  0.55915257536E+01 -0.39730970026E+02 -0.16547099716E+02  0.47787289770E+02  0.20000085376E+02 0.  0.
         12    1    1    2    0    0 -0.55915257536E+01  0.39730970026E+02  0.16547099716E+02  0.43400710230E+02  0.00000000000E+00 0. -1.
         11    1    3    3    0    0  0.17126593281E+01 -0.93497763761E+01 -0.67870671625E+01  0.11679717513E+02  0.51100000000E-03 0. -1.
        -11    1    3    3    0    0  0.21741589506E+01 -0.24939679736E+02 -0.14289357165E+02  0.28825341645E+02  0.51100000000E-03 0.  1.
        -12    1    3    3    0    0  0.17047074749E+01 -0.54415139140E+01  0.45293246114E+01  0.72822306120E+01  0.00000000000E+00 0.  1.
</event>
<event>
 7    1  0.2455451E-009  0.4778727E+02  0.7816164E-02  0.1312668E+00
        -11   -1    0    0    0    0  0.00000000000E+00  0.00000000000E+00  0.45593999997E+02  0.45594000000E+02  0.51100000000E-03 0.  1.
         11   -1    0    0    0    0 -0.00000000000E+00 -0.00000000000E+00 -0.45593999997E+02  0.45594000000E+02  0.51100000000E-03 0. -1.
    9900012    2    1    2    0    0 -0.20771880644E+02 -0.16057562182E+02  0.34558745203E+02  0.47787271910E+02  0.20000003947E+02 0.  0.
         12    1    1    2    0    0  0.20771880644E+02  0.16057562182E+02 -0.34558745203E+02  0.43400728090E+02  0.00000000000E+00 0. -1.
         11    1    3    3    0    0 -0.12736090096E+02 -0.16989386210E+02  0.20769609013E+02  0.29702254015E+02  0.51100000000E-03 0. -1.
        -11    1    3    3    0    0 -0.16348055420E+01  0.41732621957E+01  0.45460640386E+01  0.63839960071E+01  0.51100000000E-03 0.  1.
        -12    1    3    3    0    0 -0.64009850052E+01 -0.32414381678E+01  0.92430721518E+01  0.11701021889E+02  0.00000000000E+00 0.  1.
</event>
<event>
 7    1  0.2455451E-009  0.4778727E+02  0.7816164E-02  0.1312668E+00
        -11   -1    0    0    0    0  0.00000000000E+00  0.00000000000E+00  0.45593999997E+02  0.45594000000E+02  0.51100000000E-03 0. -1.
         11   -1    0    0    0    0 -0.00000000000E+00 -0.00000000000E+00 -0.45593999997E+02  0.45594000000E+02  0.51100000000E-03 0.  1.
    9900012    2    1    2    0    0  0.38540604352E+02 -0.71118426756E+01 -0.18645830273E+02  0.47787268708E+02  0.19999989349E+02 0.  0.
         12    1    1    2    0    0 -0.38540604352E+02  0.71118426756E+01  0.18645830273E+02  0.43400731292E+02  0.00000000000E+00 0. -1.
         11    1    3    3    0    0  0.10866109549E+02 -0.11255863577E+01  0.19243295461E+01  0.11092444538E+02  0.51100000000E-03 0. -1.
        -11    1    3    3    0    0  0.26878683583E+02 -0.34337855643E+01 -0.16196470978E+02  0.31568658300E+02  0.51100000000E-03 0.  1.
        -12    1    3    3    0    0  0.79581122045E+00 -0.25524707536E+01 -0.43736888418E+01  0.51261658705E+01  0.00000000000E+00 0.  1.
</event>
<event>
 7    1  0.2455451E-009  0.4778727E+02  0.7816164E-02  0.1312668E+00
        -11   -1    0    0    0    0  0.00000000000E+00  0.00000000000E+00  0.45593999997E+02  0.45594000000E+02  0.51100000000E-03 0.  1.
         11   -1    0    0    0    0 -0.00000000000E+00 -0.00000000000E+00 -0.45593999997E+02  0.45594000000E+02  0.51100000000E-03 0. -1.
    9900012    2    1    2    0    0  0.14942351550E+02  0.20417169452E+02  0.35263131580E+02  0.47787272735E+02  0.20000007708E+02 0.  0.
         12    1    1    2    0    0 -0.14942351550E+02 -0.20417169452E+02 -0.35263131580E+02  0.43400727265E+02  0.00000000000E+00 0. -1.
         11    1    3    3    0    0 -0.48987184283E+01  0.49749822499E+01  0.63122044886E+01  0.94123225823E+01  0.51100000000E-03 0. -1.
        -11    1    3    3    0    0  0.78417614238E+01  0.57609778767E+01  0.10151431448E+02  0.14061779725E+02  0.51100000000E-03 0.  1.
         12    1    3    3    0    0  0.11999308555E+02  0.96812093256E+01  0.18799495644E+02  0.24313170428E+02  0.00000000000E+00 0. -1.
</event>
<event>
 7    1  0.2455451E-009  0.4778727E+02  0.7816164E-02  0.1312668E+00
        -11   -1    0    0    0    0  0.00000000000E+00  0.00000000000E+00  0.45593999997E+02  0.45594000000E+02  0.51100000000E-03 0.  1.
         11   -1    0    0    0    0 -0.00000000000E+00 -0.00000000000E+00 -0.45593999997E+02  0.45594000000E+02  0.51100000000E-03 0. -1.
    9900012    2    1    2    0    0 -0.26065247173E+02  0.34686409483E+02 -0.10388899861E+01  0.47787269529E+02  0.19999993091E+02 0.  0.
         12    1    1    2    0    0  0.26065247173E+02 -0.34686409483E+02  0.10388899861E+01  0.43400730471E+02  0.00000000000E+00 0. -1.
         11    1    3    3    0    0 -0.34300082654E+01  0.77419570424E+01  0.74976173072E+01  0.11310045141E+02  0.51100000000E-03 0. -1.
        -11    1    3    3    0    0 -0.15956559831E+02  0.16812515262E+02 -0.39992177095E+01  0.23521611629E+02  0.51100000000E-03 0.  1.
         12    1    3    3    0    0 -0.66786790763E+01  0.10131937179E+02 -0.45372895839E+01  0.12955612759E+02  0.00000000000E+00 0. -1.
</event>
<event>
 7    1  0.2455451E-009  0.4778727E+02  0.7816164E-02  0.1312668E+00
        -11   -1    0    0    0    0  0.00000000000E+00  0.00000000000E+00  0.45593999997E+02  0.45594000000E+02  0.51100000000E-03 0.  1.
         11   -1    0    0    0    0 -0.00000000000E+00 -0.00000000000E+00 -0.45593999997E+02  0.45594000000E+02  0.51100000000E-03 0. -1.
    9900012    2    1    2    0    0 -0.10294352628E+02 -0.62428691968E+01  0.41697434311E+02  0.47787272587E+02  0.20000007033E+02 0.  0.
         12    1    1    2    0    0  0.10294352628E+02  0.62428691968E+01 -0.41697434311E+02  0.43400727413E+02  0.00000000000E+00 0. -1.
         11    1    3    3    0    0 -0.87891369648E+01  0.17765834465E+01  0.21516365351E+02  0.23310065541E+02  0.51100000000E-03 0. -1.
        -11    1    3    3    0    0 -0.31838309367E+01 -0.91863447724E+01  0.94681970390E+01  0.13571015627E+02  0.51100000000E-03 0.  1.
        -12    1    3    3    0    0  0.16786152735E+01  0.11668921291E+01  0.10712871921E+02  0.10906191420E+02  0.00000000000E+00 0.  1.
</event>
<event>
 7    1  0.2455451E-009  0.4778727E+02  0.7816164E-02  0.1312668E+00
        -11   -1    0    0    0    0  0.00000000000E+00  0.00000000000E+00  0.45593999997E+02  0.45594000000E+02  0.51100000000E-03 0.  1.
         11   -1    0    0    0    0 -0.00000000000E+00 -0.00000000000E+00 -0.45593999997E+02  0.45594000000E+02  0.51100000000E-03 0. -1.
    9900012    2    1    2    0    0  0.24381277831E+02 -0.15973889122E+02  0.32156043624E+02  0.47787274385E+02  0.20000015233E+02 0.  0.
         12    1    1    2    0    0 -0.24381277831E+02  0.15973889122E+02 -0.32156043624E+02  0.43400725615E+02  0.00000000000E+00 0. -1.
         11    1    3    3    0    0  0.57961530208E+01 -0.63655679484E+01  0.30082858462E+01  0.91195191287E+01  0.51100000000E-03 0. -1.
        -11    1    3    3    0    0  0.17147905894E+01 -0.82595808865E+01  0.10843996775E+02  0.13738757204E+02  0.51100000000E-03 0.  1.
        -12    1    3    3    0    0  0.16870334220E+02 -0.13487402868E+01  0.18303761003E+02  0.24928998053E+02  0.00000000000E+00 0.  1.
</event>
<event>
 7    1  0.2455451E-009  0.4778727E+02  0.7816164E-02  0.1312668E+00
        -11   -1    0    0    0    0  0.00000000000E+00  0.00000000000E+00  0.45593999997E+02  0.45594000000E+02  0.51100000000E-03 0. -1.
         11   -1    0    0    0    0 -0.00000000000E+00 -0.00000000000E+00 -0.45593999997E+02  0.45594000000E+02  0.51100000000E-03 0.  1.
    9900012    2    1    2    0    0  0.32639256651E+02 -0.25559829955E+02 -0.12845126089E+02  0.47787271362E+02  0.20000001448E+02 0.  0.
         12    1    1    2    0    0 -0.32639256651E+02  0.25559829955E+02  0.12845126089E+02  0.43400728638E+02  0.00000000000E+00 0. -1.
         11    1    3    3    0    0  0.67820787892E+01  0.17412966433E+01 -0.44542155651E+01  0.82987193749E+01  0.51100000000E-03 0. -1.
        -11    1    3    3    0    0  0.24526236451E+02 -0.22269654481E+02 -0.56503065854E+01  0.33606543261E+02  0.51100000000E-03 0.  1.
        -12    1    3    3    0    0  0.13309414106E+01 -0.50314721171E+01 -0.27406039388E+01  0.58820087260E+01  0.00000000000E+00 0.  1.
</event>
<event>
 7    1  0.2455451E-009  0.4778727E+02  0.7816164E-02  0.1312668E+00
        -11   -1    0    0    0    0  0.00000000000E+00  0.00000000000E+00  0.45593999997E+02  0.45594000000E+02  0.51100000000E-03 0.  1.
         11   -1    0    0    0    0 -0.00000000000E+00 -0.00000000000E+00 -0.45593999997E+02  0.45594000000E+02  0.51100000000E-03 0. -1.
    9900012    2    1    2    0    0  0.19753151678E+02  0.23632788885E+02  0.30576584101E+02  0.47787271815E+02  0.20000003514E+02 0.  0.
         12    1    1    2    0    0 -0.19753151678E+02 -0.23632788885E+02 -0.30576584101E+02  0.43400728185E+02  0.00000000000E+00 0. -1.
         11    1    3    3    0    0  0.86161238832E+00 -0.22991894901E+01  0.34503796376E+01  0.42348279923E+01  0.51100000000E-03 0. -1.
        -11    1    3    3    0    0  0.10382759761E+02  0.19245786324E+02  0.11970255280E+02  0.24929681170E+02  0.51100000000E-03 0.  1.
        -12    1    3    3    0    0  0.85087795284E+01  0.66861920513E+01  0.15155949183E+02  0.18622762653E+02  0.00000000000E+00 0.  1.
</event>
<event>
 7    1  0.2455451E-009  0.4778726E+02  0.7816164E-02  0.1312668E+00
        -11   -1    0    0    0    0  0.00000000000E+00  0.00000000000E+00  0.45593999997E+02  0.45594000000E+02  0.51100000000E-03 0.  1.
         11   -1    0    0    0    0 -0.00000000000E+00 -0.00000000000E+00 -0.45593999997E+02  0.45594000000E+02  0.51100000000E-03 0. -1.
    9900012    2    1    2    0    0 -0.34309798347E+02  0.23294467019E+02  0.12799612909E+02  0.47787256378E+02  0.19999933128E+02 0.  0.
         12    1    1    2    0    0  0.34309798347E+02 -0.23294467019E+02 -0.12799612909E+02  0.43400743622E+02  0.00000000000E+00 0. -1.
         11    1    3    3    0    0 -0.13805711847E+02  0.30752641883E+01 -0.13872914330E+01  0.14211949452E+02  0.51100000000E-03 0. -1.
        -11    1    3    3    0    0 -0.28969627660E+01 -0.80249156156E+00  0.12503427217E+01  0.32557246746E+01  0.51100000000E-03 0.  1.
         12    1    3    3    0    0 -0.17607123734E+02  0.21021694393E+02  0.12936561621E+02  0.30319582251E+02  0.00000000000E+00 0. -1.
</event>
<event>
 7    1  0.2455451E-009  0.4778727E+02  0.7816164E-02  0.1312668E+00
        -11   -1    0    0    0    0  0.00000000000E+00  0.00000000000E+00  0.45593999997E+02  0.45594000000E+02  0.51100000000E-03 0.  1.
         11   -1    0    0    0    0 -0.00000000000E+00 -0.00000000000E+00 -0.45593999997E+02  0.45594000000E+02  0.51100000000E-03 0. -1.
    9900012    2    1    2    0    0  0.30341799492E+02  0.10193708833E+01  0.31015470997E+02  0.47787270114E+02  0.19999995759E+02 0.  0.
         12    1    1    2    0    0 -0.30341799492E+02 -0.10193708833E+01 -0.31015470997E+02  0.43400729886E+02  0.00000000000E+00 0. -1.
         11    1    3    3    0    0 -0.36090391561E+00 -0.60610977880E+00 -0.33985262756E+00  0.78302028699E+00  0.51100000000E-03 0. -1.
        -11    1    3    3    0    0  0.15643757901E+02  0.15504076180E+01  0.47322257558E+01  0.16417213098E+02  0.51100000000E-03 0.  1.
        -12    1    3    3    0    0  0.15058945507E+02  0.75073044095E-01  0.26623097869E+02  0.30587036730E+02  0.00000000000E+00 0.  1.
</event>
<event>
 7    1  0.2455451E-009  0.4778727E+02  0.7816164E-02  0.1312668E+00
        -11   -1    0    0    0    0  0.00000000000E+00  0.00000000000E+00  0.45593999997E+02  0.45594000000E+02  0.51100000000E-03 0.  1.
         11   -1    0    0    0    0 -0.00000000000E+00 -0.00000000000E+00 -0.45593999997E+02  0.45594000000E+02  0.51100000000E-03 0. -1.
    9900012    2    1    2    0    0  0.26863705933E+02  0.25188722754E+02  0.22967220739E+02  0.47787266378E+02  0.19999978725E+02 0.  0.
         12    1    1    2    0    0 -0.26863705933E+02 -0.25188722754E+02 -0.22967220739E+02  0.43400733622E+02  0.00000000000E+00 0. -1.
         11    1    3    3    0    0  0.44910048523E+01  0.32292051468E+01  0.98299251326E+01  0.11279375818E+02  0.51100000000E-03 0. -1.
        -11    1    3    3    0    0  0.14266278560E+02  0.21216796108E+02  0.76366313451E+01  0.26683277152E+02  0.51100000000E-03 0.  1.
        -12    1    3    3    0    0  0.81064225210E+01  0.74272149977E+00  0.55006642612E+01  0.98246134086E+01  0.00000000000E+00 0.  1.
</event>
<event>
 7    1  0.2455451E-009  0.4778727E+02  0.7816164E-02  0.1312668E+00
        -11   -1    0    0    0    0  0.00000000000E+00  0.00000000000E+00  0.45593999997E+02  0.45594000000E+02  0.51100000000E-03 0.  1.
         11   -1    0    0    0    0 -0.00000000000E+00 -0.00000000000E+00 -0.45593999997E+02  0.45594000000E+02  0.51100000000E-03 0. -1.
    9900012    2    1    2    0    0 -0.41729087276E+02  0.48519128812E+01  0.10897959168E+02  0.47787270772E+02  0.19999998760E+02 0.  0.
         12    1    1    2    0    0  0.41729087276E+02 -0.48519128812E+01 -0.10897959168E+02  0.43400729228E+02  0.00000000000E+00 0. -1.
         11    1    3    3    0    0 -0.96467534351E+01  0.91359400700E+01  0.96019913167E+00  0.13320932228E+02  0.51100000000E-03 0. -1.
        -11    1    3    3    0    0 -0.31872182254E+02 -0.33862496670E+01  0.94119439719E+01  0.33404900509E+02  0.51100000000E-03 0.  1.
        -12    1    3    3    0    0 -0.21015158661E+00 -0.89777752189E+00  0.52581606461E+00  0.10614380349E+01  0.00000000000E+00 0.  1.
</event>
<event>
 7    1  0.2455451E-009  0.4778727E+02  0.7816164E-02  0.1312668E+00
        -11   -1    0    0    0    0  0.00000000000E+00  0.00000000000E+00  0.45593999997E+02  0.45594000000E+02  0.51100000000E-03 0. -1.
         11   -1    0    0    0    0 -0.00000000000E+00 -0.00000000000E+00 -0.45593999997E+02  0.45594000000E+02  0.51100000000E-03 0.  1.
    9900012    2    1    2    0    0  0.37600027921E+02 -0.11590130022E+02 -0.18317481893E+02  0.47787270092E+02  0.19999995659E+02 0.  0.
         12    1    1    2    0    0 -0.37600027921E+02  0.11590130022E+02  0.18317481893E+02  0.43400729908E+02  0.00000000000E+00 0. -1.
         11    1    3    3    0    0 -0.11945854904E+01 -0.17416713215E+01  0.12446473848E+01  0.24514487267E+01  0.51100000000E-03 0. -1.
        -11    1    3    3    0    0  0.26400782093E+02 -0.29195838192E+01 -0.14496581238E+02  0.30260140989E+02  0.51100000000E-03 0.  1.
        -12    1    3    3    0    0  0.12393831319E+02 -0.69288748816E+01 -0.50655480398E+01  0.15075680377E+02  0.00000000000E+00 0.  1.
</event>
<event>
 7    1  0.2455451E-009  0.4778727E+02  0.7816164E-02  0.1312668E+00
        -11   -1    0    0    0    0  0.00000000000E+00  0.00000000000E+00  0.45593999997E+02  0.45594000000E+02  0.51100000000E-03 0.  1.
         11   -1    0    0    0    0 -0.00000000000E+00 -0.00000000000E+00 -0.45593999997E+02  0.45594000000E+02  0.51100000000E-03 0. -1.
    9900012    2    1    2    0    0  0.16616077155E+02 -0.16831909437E+02  0.36389778788E+02  0.47787271947E+02  0.20000004116E+02 0.  0.
         12    1    1    2    0    0 -0.16616077155E+02  0.16831909437E+02 -0.36389778788E+02  0.43400728053E+02  0.00000000000E+00 0. -1.
         11    1    3    3    0    0  0.26648920090E+01 -0.36913119487E+01  0.20060289295E+02  0.20570431210E+02  0.51100000000E-03 0.  1.
        -11    1    3    3    0    0  0.13695801859E+02 -0.14423263004E+02  0.13327058641E+02  0.23941929674E+02  0.51100000000E-03 0. -1.
         12    1    3    3    0    0  0.25538328618E+00  0.12826655158E+01  0.30024308521E+01  0.32749110629E+01  0.00000000000E+00 0. -1.
</event>
<event>
 7    1  0.2455451E-009  0.4778726E+02  0.7816164E-02  0.1312668E+00
        -11   -1    0    0    0    0  0.00000000000E+00  0.00000000000E+00  0.45593999997E+02  0.45594000000E+02  0.51100000000E-03 0. -1.
         11   -1    0    0    0    0 -0.00000000000E+00 -0.00000000000E+00 -0.45593999997E+02  0.45594000000E+02  0.51100000000E-03 0.  1.
    9900012    2    1    2    0    0  0.26495396570E+02 -0.18462032228E+02 -0.28996059674E+02  0.47787260951E+02  0.19999953979E+02 0.  0.
         12    1    1    2    0    0 -0.26495396570E+02  0.18462032228E+02  0.28996059674E+02  0.43400739049E+02  0.00000000000E+00 0. -1.
         11    1    3    3    0    0  0.18572095008E+02 -0.13314061566E+02 -0.71315245426E+01  0.23938370683E+02  0.51100000000E-03 0. -1.
        -11    1    3    3    0    0  0.36774873362E+01 -0.18210165223E+01 -0.85732532427E+01  0.95047717335E+01  0.51100000000E-03 0.  1.
         12    1    3    3    0    0  0.42458142260E+01 -0.33269541392E+01 -0.13291281889E+02  0.14344118535E+02  0.00000000000E+00 0. -1.
</event>
<event>
 7    1  0.2455451E-009  0.4778726E+02  0.7816164E-02  0.1312668E+00
        -11   -1    0    0    0    0  0.00000000000E+00  0.00000000000E+00  0.45593999997E+02  0.45594000000E+02  0.51100000000E-03 0. -1.
         11   -1    0    0    0    0 -0.00000000000E+00 -0.00000000000E+00 -0.45593999997E+02  0.45594000000E+02  0.51100000000E-03 0.  1.
    9900012    2    1    2    0    0 -0.20677383806E+02 -0.20612053708E+02 -0.32112504250E+02  0.47787263965E+02  0.19999967723E+02 0.  0.
         12    1    1    2    0    0  0.20677383806E+02  0.20612053708E+02  0.32112504250E+02  0.43400736035E+02  0.00000000000E+00 0. -1.
         11    1    3    3    0    0 -0.45327729085E-01 -0.70207167437E+00  0.23958786761E+01  0.24970370703E+01  0.51100000000E-03 0. -1.
        -11    1    3    3    0    0 -0.15121799465E+02 -0.15072554668E+02 -0.29479393077E+02  0.36398974432E+02  0.51100000000E-03 0.  1.
        -12    1    3    3    0    0 -0.55102566116E+01 -0.48374273658E+01 -0.50289898500E+01  0.88912524628E+01  0.00000000000E+00 0.  1.
</event>
<event>
 7    1  0.2455451E-009  0.4778727E+02  0.7816164E-02  0.1312668E+00
        -11   -1    0    0    0    0  0.00000000000E+00  0.00000000000E+00  0.45593999997E+02  0.45594000000E+02  0.51100000000E-03 0.  1.
         11   -1    0    0    0    0 -0.00000000000E+00 -0.00000000000E+00 -0.45593999997E+02  0.45594000000E+02  0.51100000000E-03 0. -1.
    9900012    2    1    2    0    0 -0.33925160236E+02  0.25223447791E+02  0.98226486070E+01  0.47787271421E+02  0.20000001718E+02 0.  0.
         12    1    1    2    0    0  0.33925160236E+02 -0.25223447791E+02 -0.98226486070E+01  0.43400728579E+02  0.00000000000E+00 0. -1.
         11    1    3    3    0    0 -0.14555743244E+01  0.87322177382E+01  0.15780507332E+01  0.89922504202E+01  0.51100000000E-03 0. -1.
        -11    1    3    3    0    0 -0.26249956797E+02  0.17575773313E+02  0.66422997693E+01  0.32281390705E+02  0.51100000000E-03 0.  1.
        -12    1    3    3    0    0 -0.62196291149E+01 -0.10845432605E+01  0.16022981044E+01  0.65136302955E+01  0.00000000000E+00 0.  1.
</event>
<event>
 7    1  0.2455451E-009  0.4778727E+02  0.7816164E-02  0.1312668E+00
        -11   -1    0    0    0    0  0.00000000000E+00  0.00000000000E+00  0.45593999997E+02  0.45594000000E+02  0.51100000000E-03 0.  1.
         11   -1    0    0    0    0 -0.00000000000E+00 -0.00000000000E+00 -0.45593999997E+02  0.45594000000E+02  0.51100000000E-03 0. -1.
    9900012    2    1    2    0    0 -0.37371669248E+02 -0.15682598182E+01  0.22011870123E+02  0.47787268122E+02  0.19999986673E+02 0.  0.
         12    1    1    2    0    0  0.37371669248E+02  0.15682598182E+01 -0.22011870123E+02  0.43400731878E+02  0.00000000000E+00 0. -1.
         11    1    3    3    0    0 -0.16426629400E+01 -0.10396366568E+01  0.96874469804E+00  0.21720157605E+01  0.51100000000E-03 0. -1.
        -11    1    3    3    0    0 -0.25855910595E+00  0.43180762109E+01  0.53917704155E+00  0.43592828673E+01  0.51100000000E-03 0.  1.
        -12    1    3    3    0    0 -0.35470447202E+02 -0.48466993722E+01  0.20503948384E+02  0.41255969494E+02  0.00000000000E+00 0.  1.
</event>
<event>
 7    1  0.2455451E-009  0.4778721E+02  0.7816164E-02  0.1312668E+00
        -11   -1    0    0    0    0  0.00000000000E+00  0.00000000000E+00  0.45593999997E+02  0.45594000000E+02  0.51100000000E-03 0. -1.
         11   -1    0    0    0    0 -0.00000000000E+00 -0.00000000000E+00 -0.45593999997E+02  0.45594000000E+02  0.51100000000E-03 0.  1.
    9900012    2    1    2    0    0 -0.32854289641E+02 -0.28322371436E+02  0.14378661712E+01  0.47787210483E+02  0.19999723873E+02 0.  0.
         12    1    1    2    0    0  0.32854289641E+02  0.28322371436E+02 -0.14378661712E+01  0.43400789517E+02  0.00000000000E+00 0. -1.
         11    1    3    3    0    0  0.15791073479E+01 -0.17942474465E+00  0.14489988659E+01  0.21506676242E+01  0.51100000000E-03 0. -1.
        -11    1    3    3    0    0 -0.31935539610E+02 -0.28749896017E+02  0.67696385485E+00  0.42975498735E+02  0.51100000000E-03 0.  1.
        -12    1    3    3    0    0 -0.24978573786E+01  0.60694932495E+00 -0.68809654956E+00  0.26610441237E+01  0.00000000000E+00 0.  1.
</event>
<event>
 7    1  0.2455451E-009  0.4778727E+02  0.7816164E-02  0.1312668E+00
        -11   -1    0    0    0    0  0.00000000000E+00  0.00000000000E+00  0.45593999997E+02  0.45594000000E+02  0.51100000000E-03 0.  1.
         11   -1    0    0    0    0 -0.00000000000E+00 -0.00000000000E+00 -0.45593999997E+02  0.45594000000E+02  0.51100000000E-03 0. -1.
    9900012    2    1    2    0    0 -0.67600894421E+01 -0.10786713969E+02  0.41491820239E+02  0.47787272423E+02  0.20000006285E+02 0.  0.
         12    1    1    2    0    0  0.67600894421E+01  0.10786713969E+02 -0.41491820239E+02  0.43400727577E+02  0.00000000000E+00 0. -1.
         11    1    3    3    0    0 -0.78301835660E+00  0.50491251117E+01  0.86030805843E+01  0.10005987105E+02  0.51100000000E-03 0. -1.
        -11    1    3    3    0    0 -0.22028153880E+00 -0.93231080417E+01  0.21651870733E+02  0.23574825005E+02  0.51100000000E-03 0.  1.
        -12    1    3    3    0    0 -0.57567895467E+01 -0.65127310389E+01  0.11236868921E+02  0.14206460313E+02  0.00000000000E+00 0.  1.
</event>
<event>
 7    1  0.2455451E-009  0.4778727E+02  0.7816164E-02  0.1312668E+00
        -11   -1    0    0    0    0  0.00000000000E+00  0.00000000000E+00  0.45593999997E+02  0.45594000000E+02  0.51100000000E-03 0.  1.
         11   -1    0    0    0    0 -0.00000000000E+00 -0.00000000000E+00 -0.45593999997E+02  0.45594000000E+02  0.51100000000E-03 0. -1.
    9900012    2    1    2    0    0 -0.10680910813E+02 -0.10311430865E+02  0.40782539852E+02  0.47787273980E+02  0.20000013384E+02 0.  0.
         12    1    1    2    0    0  0.10680910813E+02  0.10311430865E+02 -0.40782539852E+02  0.43400726020E+02  0.00000000000E+00 0. -1.
         11    1    3    3    0    0  0.18586220181E+01 -0.52670522771E+01  0.79116671468E+01  0.96845646674E+01  0.51100000000E-03 0. -1.
        -11    1    3    3    0    0 -0.81298662392E+01 -0.26875175862E+00  0.29843415611E+02  0.30932125826E+02  0.51100000000E-03 0.  1.
        -12    1    3    3    0    0 -0.44096665921E+01 -0.47756268298E+01  0.30274570946E+01  0.71705834860E+01  0.00000000000E+00 0.  1.
</event>
<event>
 7    1  0.2455451E-009  0.4778727E+02  0.7816164E-02  0.1312668E+00
        -11   -1    0    0    0    0  0.00000000000E+00  0.00000000000E+00  0.45593999997E+02  0.45594000000E+02  0.51100000000E-03 0.  1.
         11   -1    0    0    0    0 -0.00000000000E+00 -0.00000000000E+00 -0.45593999997E+02  0.45594000000E+02  0.51100000000E-03 0. -1.
    9900012    2    1    2    0    0 -0.22850791073E+02  0.96538967041E+01  0.35612732142E+02  0.47787273452E+02  0.20000010979E+02 0.  0.
         12    1    1    2    0    0  0.22850791073E+02 -0.96538967041E+01 -0.35612732142E+02  0.43400726548E+02  0.00000000000E+00 0. -1.
         11    1    3    3    0    0 -0.14580300002E+01 -0.51960316028E+01  0.83571216997E+01  0.99481696439E+01  0.51100000000E-03 0. -1.
        -11    1    3    3    0    0 -0.28051484890E+01  0.13062087717E+01  0.46909499136E+01  0.56196130431E+01  0.51100000000E-03 0.  1.
         12    1    3    3    0    0 -0.18587612584E+02  0.13543719535E+02  0.22564660529E+02  0.32219490765E+02  0.00000000000E+00 0. -1.
</event>
<event>
 7    1  0.2455451E-009  0.4778726E+02  0.7816164E-02  0.1312668E+00
        -11   -1    0    0    0    0  0.00000000000E+00  0.00000000000E+00  0.45593999997E+02  0.45594000000E+02  0.51100000000E-03 0.  1.
         11   -1    0    0    0    0 -0.00000000000E+00 -0.00000000000E+00 -0.45593999997E+02  0.45594000000E+02  0.51100000000E-03 0. -1.
    9900012    2    1    2    0    0  0.81431476173E+01  0.18866888315E+02  0.38227662603E+02  0.47787256736E+02  0.19999934760E+02 0.  0.
         12    1    1    2    0    0 -0.81431476173E+01 -0.18866888315E+02 -0.38227662603E+02  0.43400743264E+02  0.00000000000E+00 0. -1.
         11    1    3    3    0    0  0.89216334585E+01  0.11649131586E+01  0.93713884629E+01  0.12991362062E+02  0.51100000000E-03 0. -1.
        -11    1    3    3    0    0 -0.86499225564E+00  0.13229667256E+02  0.26742401235E+02  0.29848422595E+02  0.51100000000E-03 0.  1.
         12    1    3    3    0    0  0.86506414512E-01  0.44723079003E+01  0.21138729048E+01  0.49474720790E+01  0.00000000000E+00 0. -1.
</event>
<event>
 7    1  0.2455451E-009  0.4778727E+02  0.7816164E-02  0.1312668E+00
        -11   -1    0    0    0    0  0.00000000000E+00  0.00000000000E+00  0.45593999997E+02  0.45594000000E+02  0.51100000000E-03 0.  1.
         11   -1    0    0    0    0 -0.00000000000E+00 -0.00000000000E+00 -0.45593999997E+02  0.45594000000E+02  0.51100000000E-03 0. -1.
    9900012    2    1    2    0    0  0.11071300927E+02 -0.30546175143E+02  0.28774657120E+02  0.47787269448E+02  0.19999992719E+02 0.  0.
         12    1    1    2    0    0 -0.11071300927E+02  0.30546175143E+02 -0.28774657120E+02  0.43400730552E+02  0.00000000000E+00 0. -1.
         11    1    3    3    0    0  0.52948545470E+01 -0.85957675234E+01  0.16744890392E+02  0.19552852950E+02  0.51100000000E-03 0. -1.
        -11    1    3    3    0    0  0.30313494799E+01 -0.11072447192E+02  0.12543405572E+02  0.17003681663E+02  0.51100000000E-03 0.  1.
         12    1    3    3    0    0  0.27450969000E+01 -0.10877960428E+02 -0.51363884384E+00  0.11230734835E+02  0.00000000000E+00 0. -1.
</event>
<event>
 7    1  0.2455451E-009  0.4778727E+02  0.7816164E-02  0.1312668E+00
        -11   -1    0    0    0    0  0.00000000000E+00  0.00000000000E+00  0.45593999997E+02  0.45594000000E+02  0.51100000000E-03 0.  1.
         11   -1    0    0    0    0 -0.00000000000E+00 -0.00000000000E+00 -0.45593999997E+02  0.45594000000E+02  0.51100000000E-03 0. -1.
    9900012    2    1    2    0    0  0.23459242128E+02  0.18336232535E+02  0.31576412545E+02  0.47787270812E+02  0.19999998942E+02 0.  0.
         12    1    1    2    0    0 -0.23459242128E+02 -0.18336232535E+02 -0.31576412545E+02  0.43400729188E+02  0.00000000000E+00 0. -1.
         11    1    3    3    0    0  0.11288594153E+02  0.15301548964E+02  0.20924097029E+02  0.28273443289E+02  0.51100000000E-03 0. -1.
        -11    1    3    3    0    0  0.13268865734E+02  0.87953828097E+00  0.10740029594E+02  0.17093408712E+02  0.51100000000E-03 0.  1.
         12    1    3    3    0    0 -0.10982177585E+01  0.21551452900E+01 -0.87714078075E-01  0.24204188120E+01  0.00000000000E+00 0. -1.
</event>
<event>
 7    1  0.2455451E-009  0.4778727E+02  0.7816164E-02  0.1312668E+00
        -11   -1    0    0    0    0  0.00000000000E+00  0.00000000000E+00  0.45593999997E+02  0.45594000000E+02  0.51100000000E-03 0.  1.
         11   -1    0    0    0    0 -0.00000000000E+00 -0.00000000000E+00 -0.45593999997E+02  0.45594000000E+02  0.51100000000E-03 0. -1.
    9900012    2    1    2    0    0  0.34660048672E+00 -0.20525319008E+02  0.38238912954E+02  0.47787270557E+02  0.19999997777E+02 0.  0.
         12    1    1    2    0    0 -0.34660048672E+00  0.20525319008E+02 -0.38238912954E+02  0.43400729443E+02  0.00000000000E+00 0. -1.
         11    1    3    3    0    0  0.12213933049E+01  0.23429118627E+01  0.25813420133E+00  0.26547450214E+01  0.51100000000E-03 0. -1.
        -11    1    3    3    0    0 -0.32947186412E+01 -0.14596542028E+02  0.18241259433E+02  0.23593595658E+02  0.51100000000E-03 0.  1.
        -12    1    3    3    0    0  0.24199258231E+01 -0.82716888421E+01  0.19739519320E+02  0.21538929878E+02  0.00000000000E+00 0.  1.
</event>
<event>
 7    1  0.2455451E-009  0.4778727E+02  0.7816164E-02  0.1312668E+00
        -11   -1    0    0    0    0  0.00000000000E+00  0.00000000000E+00  0.45593999997E+02  0.45594000000E+02  0.51100000000E-03 0.  1.
         11   -1    0    0    0    0 -0.00000000000E+00 -0.00000000000E+00 -0.45593999997E+02  0.45594000000E+02  0.51100000000E-03 0. -1.
    9900012    2    1    2    0    0 -0.11066788029E+02  0.13151146628E+02  0.39852187015E+02  0.47787271149E+02  0.20000000477E+02 0.  0.
         12    1    1    2    0    0  0.11066788029E+02 -0.13151146628E+02 -0.39852187015E+02  0.43400728851E+02  0.00000000000E+00 0. -1.
         11    1    3    3    0    0 -0.13177561450E+01  0.14866022677E+02  0.17350043219E+02  0.22885784048E+02  0.51100000000E-03 0. -1.
        -11    1    3    3    0    0 -0.25368201689E+01 -0.18652553624E+01  0.98051226281E+01  0.10298303945E+02  0.51100000000E-03 0.  1.
         12    1    3    3    0    0 -0.72122117149E+01  0.15037931282E+00  0.12697021168E+02  0.14603183156E+02  0.00000000000E+00 0. -1.
</event>
<event>
 7    1  0.2455451E-009  0.4778726E+02  0.7816164E-02  0.1312668E+00
        -11   -1    0    0    0    0  0.00000000000E+00  0.00000000000E+00  0.45593999997E+02  0.45594000000E+02  0.51100000000E-03 0.  1.
         11   -1    0    0    0    0 -0.00000000000E+00 -0.00000000000E+00 -0.45593999997E+02  0.45594000000E+02  0.51100000000E-03 0. -1.
    9900012    2    1    2    0    0 -0.38581947420E+02 -0.11301735804E+02  0.16350190602E+02  0.47787255403E+02  0.19999928684E+02 0.  0.
         12    1    1    2    0    0  0.38581947420E+02  0.11301735804E+02 -0.16350190602E+02  0.43400744597E+02  0.00000000000E+00 0. -1.
         11    1    3    3    0    0 -0.27976914120E+01 -0.59170188073E+00 -0.36603066543E+01  0.46448932622E+01  0.51100000000E-03 0. -1.
        -11    1    3    3    0    0 -0.98487172604E+01 -0.68529101265E+01  0.60838196843E+01  0.13452600904E+02  0.51100000000E-03 0.  1.
         12    1    3    3    0    0 -0.25935538747E+02 -0.38571237969E+01  0.13926677572E+02  0.29689761236E+02  0.00000000000E+00 0. -1.
</event>
<event>
 7    1  0.2455451E-009  0.4778725E+02  0.7816164E-02  0.1312668E+00
        -11   -1    0    0    0    0  0.00000000000E+00  0.00000000000E+00  0.45593999997E+02  0.45594000000E+02  0.51100000000E-03 0.  1.
         11   -1    0    0    0    0 -0.00000000000E+00 -0.00000000000E+00 -0.45593999997E+02  0.45594000000E+02  0.51100000000E-03 0. -1.
    9900012    2    1    2    0    0  0.39029499835E+02 -0.23502714649E+01  0.18836118484E+02  0.47787251241E+02  0.19999909708E+02 0.  0.
         12    1    1    2    0    0 -0.39029499835E+02  0.23502714649E+01 -0.18836118484E+02  0.43400748759E+02  0.00000000000E+00 0. -1.
         11    1    3    3    0    0  0.16436911643E+02  0.26253542056E+00  0.15768745288E+02  0.22779251906E+02  0.51100000000E-03 0. -1.
        -11    1    3    3    0    0  0.17777107674E+02  0.30877061176E+00  0.58608696940E+01  0.18720862436E+02  0.51100000000E-03 0.  1.
         12    1    3    3    0    0  0.48154805184E+01 -0.29215774973E+01 -0.27934964980E+01  0.62871368985E+01  0.00000000000E+00 0. -1.
</event>
<event>
 7    1  0.2455451E-009  0.4778727E+02  0.7816164E-02  0.1312668E+00
        -11   -1    0    0    0    0  0.00000000000E+00  0.00000000000E+00  0.45593999997E+02  0.45594000000E+02  0.51100000000E-03 0.  1.
         11   -1    0    0    0    0 -0.00000000000E+00 -0.00000000000E+00 -0.45593999997E+02  0.45594000000E+02  0.51100000000E-03 0. -1.
    9900012    2    1    2    0    0 -0.29425690191E+02  0.89811310283E+01 -0.30611942909E+02  0.47787274125E+02  0.20000014048E+02 0.  0.
         12    1    1    2    0    0  0.29425690191E+02 -0.89811310283E+01  0.30611942909E+02  0.43400725875E+02  0.00000000000E+00 0. -1.
         11    1    3    3    0    0 -0.25069022350E+01  0.45514142702E+01 -0.14423289831E+02  0.15330727983E+02  0.51100000000E-03 0. -1.
        -11    1    3    3    0    0 -0.27087512424E+02  0.42371622408E+01 -0.16541628847E+02  0.32020499033E+02  0.51100000000E-03 0.  1.
         12    1    3    3    0    0  0.16872446745E+00  0.19255451728E+00  0.35297576915E+00  0.43604710944E+00  0.00000000000E+00 0. -1.
</event>
<event>
 7    1  0.2455451E-009  0.4778727E+02  0.7816164E-02  0.1312668E+00
        -11   -1    0    0    0    0  0.00000000000E+00  0.00000000000E+00  0.45593999997E+02  0.45594000000E+02  0.51100000000E-03 0.  1.
         11   -1    0    0    0    0 -0.00000000000E+00 -0.00000000000E+00 -0.45593999997E+02  0.45594000000E+02  0.51100000000E-03 0. -1.
    9900012    2    1    2    0    0 -0.29892327639E+02 -0.22713435153E+02  0.21775482429E+02  0.47787273933E+02  0.20000013171E+02 0.  0.
         12    1    1    2    0    0  0.29892327639E+02  0.22713435153E+02 -0.21775482429E+02  0.43400726067E+02  0.00000000000E+00 0. -1.
         11    1    3    3    0    0 -0.50079506921E+01 -0.12430181967E+02  0.13869912456E+02  0.19286354390E+02  0.51100000000E-03 0. -1.
        -11    1    3    3    0    0 -0.22814316023E+02 -0.10713948211E+02  0.77990878332E+01  0.26383848717E+02  0.51100000000E-03 0.  1.
        -12    1    3    3    0    0 -0.20700609243E+01  0.43069502486E+00  0.10648213941E+00  0.21170708256E+01  0.00000000000E+00 0.  1.
</event>
<event>
 7    1  0.2455451E-009  0.4778727E+02  0.7816164E-02  0.1312668E+00
        -11   -1    0    0    0    0  0.00000000000E+00  0.00000000000E+00  0.45593999997E+02  0.45594000000E+02  0.51100000000E-03 0.  1.
         11   -1    0    0    0    0 -0.00000000000E+00 -0.00000000000E+00 -0.45593999997E+02  0.45594000000E+02  0.51100000000E-03 0. -1.
    9900012    2    1    2    0    0  0.20447805606E+02  0.15458323412E+02  0.35022148477E+02  0.47787269582E+02  0.19999993334E+02 0.  0.
         12    1    1    2    0    0 -0.20447805606E+02 -0.15458323412E+02 -0.35022148477E+02  0.43400730418E+02  0.00000000000E+00 0. -1.
         11    1    3    3    0    0  0.15995628853E+02  0.20326597817E+01  0.19603485732E+02  0.25382838716E+02  0.51100000000E-03 0. -1.
        -11    1    3    3    0    0  0.66293174094E+01  0.99324784487E+01  0.98508161722E+01  0.15480328064E+02  0.51100000000E-03 0.  1.
         12    1    3    3    0    0 -0.21771406566E+01  0.34931851820E+01  0.55678465730E+01  0.69241028022E+01  0.00000000000E+00 0. -1.
</event>
<event>
 7    1  0.2455451E-009  0.4778727E+02  0.7816164E-02  0.1312668E+00
        -11   -1    0    0    0    0  0.00000000000E+00  0.00000000000E+00  0.45593999997E+02  0.45594000000E+02  0.51100000000E-03 0.  1.
         11   -1    0    0    0    0 -0.00000000000E+00 -0.00000000000E+00 -0.45593999997E+02  0.45594000000E+02  0.51100000000E-03 0. -1.
    9900012    2    1    2    0    0 -0.78818852284E+01  0.13703689804E+02  0.40419152717E+02  0.47787272640E+02  0.20000007275E+02 0.  0.
         12    1    1    2    0    0  0.78818852284E+01 -0.13703689804E+02 -0.40419152717E+02  0.43400727360E+02  0.00000000000E+00 0. -1.
         11    1    3    3    0    0  0.46996185922E+01  0.35357433723E+01  0.23401289976E+02  0.24128992290E+02  0.51100000000E-03 0. -1.
        -11    1    3    3    0    0 -0.52065166301E+01  0.41356234069E+01  0.49866393710E+01  0.83113036800E+01  0.51100000000E-03 0.  1.
         12    1    3    3    0    0 -0.73749871905E+01  0.60323230250E+01  0.12031223370E+02  0.15346976670E+02  0.00000000000E+00 0. -1.
</event>
<event>
 7    1  0.2455451E-009  0.4778727E+02  0.7816164E-02  0.1312668E+00
        -11   -1    0    0    0    0  0.00000000000E+00  0.00000000000E+00  0.45593999997E+02  0.45594000000E+02  0.51100000000E-03 0.  1.
         11   -1    0    0    0    0 -0.00000000000E+00 -0.00000000000E+00 -0.45593999997E+02  0.45594000000E+02  0.51100000000E-03 0. -1.
    9900012    2    1    2    0    0  0.41237713950E+02 -0.13117968038E+02 -0.33156338229E+01  0.47787267692E+02  0.19999984714E+02 0.  0.
         12    1    1    2    0    0 -0.41237713950E+02  0.13117968038E+02  0.33156338229E+01  0.43400732308E+02  0.00000000000E+00 0. -1.
         11    1    3    3    0    0  0.16787140534E+02 -0.14330802794E+02 -0.27552782973E+00  0.22073873966E+02  0.51100000000E-03 0. -1.
        -11    1    3    3    0    0  0.14410807718E+02  0.41790882056E+01 -0.92462653115E+00  0.15033000093E+02  0.51100000000E-03 0.  1.
         12    1    3    3    0    0  0.10039765698E+02 -0.29662534496E+01 -0.21154794621E+01  0.10680393633E+02  0.00000000000E+00 0. -1.
</event>
<event>
 7    1  0.2455451E-009  0.4778727E+02  0.7816164E-02  0.1312668E+00
        -11   -1    0    0    0    0  0.00000000000E+00  0.00000000000E+00  0.45593999997E+02  0.45594000000E+02  0.51100000000E-03 0.  1.
         11   -1    0    0    0    0 -0.00000000000E+00 -0.00000000000E+00 -0.45593999997E+02  0.45594000000E+02  0.51100000000E-03 0. -1.
    9900012    2    1    2    0    0 -0.73386473790E+01 -0.14091618236E+02  0.40388042325E+02  0.47787269445E+02  0.19999992709E+02 0.  0.
         12    1    1    2    0    0  0.73386473790E+01  0.14091618236E+02 -0.40388042325E+02  0.43400730555E+02  0.00000000000E+00 0. -1.
         11    1    3    3    0    0  0.32395766958E+01 -0.18558408524E+01  0.70982407660E-01  0.37341720904E+01  0.51100000000E-03 0. -1.
        -11    1    3    3    0    0 -0.82863578730E+01 -0.40187847570E+01  0.20052999744E+02  0.22066652594E+02  0.51100000000E-03 0.  1.
        -12    1    3    3    0    0 -0.22918662017E+01 -0.82169926267E+01  0.20264060173E+02  0.21986444761E+02  0.00000000000E+00 0.  1.
</event>
<event>
 7    1  0.2455451E-009  0.4778727E+02  0.7816164E-02  0.1312668E+00
        -11   -1    0    0    0    0  0.00000000000E+00  0.00000000000E+00  0.45593999997E+02  0.45594000000E+02  0.51100000000E-03 0. -1.
         11   -1    0    0    0    0 -0.00000000000E+00 -0.00000000000E+00 -0.45593999997E+02  0.45594000000E+02  0.51100000000E-03 0.  1.
    9900012    2    1    2    0    0  0.37746690301E+02 -0.73452249712E+01 -0.20121097678E+02  0.47787268090E+02  0.19999986530E+02 0.  0.
         12    1    1    2    0    0 -0.37746690301E+02  0.73452249712E+01  0.20121097678E+02  0.43400731910E+02  0.00000000000E+00 0. -1.
         11    1    3    3    0    0  0.34334228510E+00 -0.45241664046E+01 -0.49285786953E+00  0.45638662033E+01  0.51100000000E-03 0. -1.
        -11    1    3    3    0    0  0.37178721143E+02 -0.37368356718E+01 -0.19763608205E+02  0.42270810925E+02  0.51100000000E-03 0.  1.
         12    1    3    3    0    0  0.22462687265E+00  0.91577710515E+00  0.13536839713E+00  0.95259096215E+00  0.00000000000E+00 0. -1.
</event>
<event>
 7    1  0.2455451E-009  0.4778727E+02  0.7816164E-02  0.1312668E+00
        -11   -1    0    0    0    0  0.00000000000E+00  0.00000000000E+00  0.45593999997E+02  0.45594000000E+02  0.51100000000E-03 0. -1.
         11   -1    0    0    0    0 -0.00000000000E+00 -0.00000000000E+00 -0.45593999997E+02  0.45594000000E+02  0.51100000000E-03 0.  1.
    9900012    2    1    2    0    0 -0.12973637455E+02 -0.10211059758E+02 -0.40137791124E+02  0.47787270899E+02  0.19999999336E+02 0.  0.
         12    1    1    2    0    0  0.12973637455E+02  0.10211059758E+02  0.40137791124E+02  0.43400729101E+02  0.00000000000E+00 0. -1.
         11    1    3    3    0    0 -0.72538444930E+00 -0.39803197079E+01 -0.21841606386E+02  0.22213169458E+02  0.51100000000E-03 0. -1.
        -11    1    3    3    0    0 -0.10107503079E+02 -0.41607457316E+01 -0.51282011209E+01  0.12073602218E+02  0.51100000000E-03 0.  1.
        -12    1    3    3    0    0 -0.21407499275E+01 -0.20699943189E+01 -0.13167983617E+02  0.13500499223E+02  0.00000000000E+00 0.  1.
</event>
<event>
 7    1  0.2455451E-009  0.4778727E+02  0.7816164E-02  0.1312668E+00
        -11   -1    0    0    0    0  0.00000000000E+00  0.00000000000E+00  0.45593999997E+02  0.45594000000E+02  0.51100000000E-03 0.  1.
         11   -1    0    0    0    0 -0.00000000000E+00 -0.00000000000E+00 -0.45593999997E+02  0.45594000000E+02  0.51100000000E-03 0. -1.
    9900012    2    1    2    0    0 -0.10948399761E+02 -0.38506840667E+02  0.16762426529E+02  0.47787272142E+02  0.20000005002E+02 0.  0.
         12    1    1    2    0    0  0.10948399761E+02  0.38506840667E+02 -0.16762426529E+02  0.43400727858E+02  0.00000000000E+00 0. -1.
         11    1    3    3    0    0  0.44322929082E+01 -0.15329383413E+01  0.17965115995E+01  0.50222081369E+01  0.51100000000E-03 0. -1.
        -11    1    3    3    0    0 -0.95695666002E+01 -0.24345549351E+02  0.99029671135E+01  0.27970540503E+02  0.51100000000E-03 0.  1.
         12    1    3    3    0    0 -0.58111260691E+01 -0.12628352975E+02  0.50629478157E+01  0.14794523502E+02  0.00000000000E+00 0. -1.
</event>
<event>
 7    1  0.2455451E-009  0.4778727E+02  0.7816164E-02  0.1312668E+00
        -11   -1    0    0    0    0  0.00000000000E+00  0.00000000000E+00  0.45593999997E+02  0.45594000000E+02  0.51100000000E-03 0.  1.
         11   -1    0    0    0    0 -0.00000000000E+00 -0.00000000000E+00 -0.45593999997E+02  0.45594000000E+02  0.51100000000E-03 0. -1.
    9900012    2    1    2    0    0 -0.28515661025E+02  0.22481568577E+02  0.23770978150E+02  0.47787271301E+02  0.20000001170E+02 0.  0.
         12    1    1    2    0    0  0.28515661025E+02 -0.22481568577E+02 -0.23770978150E+02  0.43400728699E+02  0.00000000000E+00 0. -1.
         11    1    3    3    0    0  0.14404204822E+01 -0.42872173654E+00  0.19429946912E+01  0.24563880239E+01  0.51100000000E-03 0. -1.
        -11    1    3    3    0    0 -0.25658371930E+02  0.21402609942E+02  0.23077838041E+02  0.40608008709E+02  0.51100000000E-03 0.  1.
         12    1    3    3    0    0 -0.42977095769E+01  0.15076803723E+01 -0.12498545813E+01  0.47228745681E+01  0.00000000000E+00 0. -1.
</event>
<event>
 7    1  0.2455451E-009  0.4778727E+02  0.7816164E-02  0.1312668E+00
        -11   -1    0    0    0    0  0.00000000000E+00  0.00000000000E+00  0.45593999997E+02  0.45594000000E+02  0.51100000000E-03 0.  1.
         11   -1    0    0    0    0 -0.00000000000E+00 -0.00000000000E+00 -0.45593999997E+02  0.45594000000E+02  0.51100000000E-03 0. -1.
    9900012    2    1    2    0    0  0.26321438304E+02  0.34500477958E+02 -0.72252032340E+00  0.47787272710E+02  0.20000007593E+02 0.  0.
         12    1    1    2    0    0 -0.26321438304E+02 -0.34500477958E+02  0.72252032340E+00  0.43400727290E+02  0.00000000000E+00 0. -1.
         11    1    3    3    0    0  0.16711244429E+02  0.14413641981E+02  0.46763850649E+01  0.22558531492E+02  0.51100000000E-03 0. -1.
        -11    1    3    3    0    0  0.69665426116E+01  0.17705858656E+02 -0.81819930253E+01  0.20711715449E+02  0.51100000000E-03 0.  1.
         12    1    3    3    0    0  0.26436512629E+01  0.23809773210E+01  0.27830876370E+01  0.45170257690E+01  0.00000000000E+00 0. -1.
</event>
<event>
 7    1  0.2455451E-009  0.4778727E+02  0.7816164E-02  0.1312668E+00
        -11   -1    0    0    0    0  0.00000000000E+00  0.00000000000E+00  0.45593999997E+02  0.45594000000E+02  0.51100000000E-03 0.  1.
         11   -1    0    0    0    0 -0.00000000000E+00 -0.00000000000E+00 -0.45593999997E+02  0.45594000000E+02  0.51100000000E-03 0. -1.
    9900012    2    1    2    0    0  0.18726279082E+02 -0.30778267654E+02  0.24200160107E+02  0.47787273770E+02  0.20000012429E+02 0.  0.
         12    1    1    2    0    0 -0.18726279082E+02  0.30778267654E+02 -0.24200160107E+02  0.43400726230E+02  0.00000000000E+00 0. -1.
         11    1    3    3    0    0 -0.10520141598E+01 -0.33986350283E+01  0.27510569675E+01  0.44973068104E+01  0.51100000000E-03 0. -1.
        -11    1    3    3    0    0  0.98864581389E+01 -0.24778782237E+02  0.11601058158E+02  0.29091487661E+02  0.51100000000E-03 0.  1.
        -12    1    3    3    0    0  0.98918351027E+01 -0.26008503892E+01  0.98480449818E+01  0.14198479299E+02  0.00000000000E+00 0.  1.
</event>
<event>
 7    1  0.2455451E-009  0.4778727E+02  0.7816164E-02  0.1312668E+00
        -11   -1    0    0    0    0  0.00000000000E+00  0.00000000000E+00  0.45593999997E+02  0.45594000000E+02  0.51100000000E-03 0.  1.
         11   -1    0    0    0    0 -0.00000000000E+00 -0.00000000000E+00 -0.45593999997E+02  0.45594000000E+02  0.51100000000E-03 0. -1.
    9900012    2    1    2    0    0 -0.13421257258E+02  0.88540719759E+01  0.40312514521E+02  0.47787267702E+02  0.19999984761E+02 0.  0.
         12    1    1    2    0    0  0.13421257258E+02 -0.88540719759E+01 -0.40312514521E+02  0.43400732298E+02  0.00000000000E+00 0. -1.
         11    1    3    3    0    0 -0.62354787841E+01  0.91840760664E+01  0.24071657427E+02  0.26507982579E+02  0.51100000000E-03 0. -1.
        -11    1    3    3    0    0 -0.76925945157E+01 -0.47050741820E+01  0.86053701965E+01  0.12464595056E+02  0.51100000000E-03 0.  1.
        -12    1    3    3    0    0  0.50681604142E+00  0.43750700915E+01  0.76354868980E+01  0.88146900669E+01  0.00000000000E+00 0.  1.
</event>
<event>
 7    1  0.2455451E-009  0.4778724E+02  0.7816164E-02  0.1312668E+00
        -11   -1    0    0    0    0  0.00000000000E+00  0.00000000000E+00  0.45593999997E+02  0.45594000000E+02  0.51100000000E-03 0.  1.
         11   -1    0    0    0    0 -0.00000000000E+00 -0.00000000000E+00 -0.45593999997E+02  0.45594000000E+02  0.51100000000E-03 0. -1.
    9900012    2    1    2    0    0  0.20099583641E+02 -0.19376153929E+02  0.33229464745E+02  0.47787240434E+02  0.19999860436E+02 0.  0.
         12    1    1    2    0    0 -0.20099583641E+02  0.19376153929E+02 -0.33229464745E+02  0.43400759566E+02  0.00000000000E+00 0. -1.
         11    1    3    3    0    0 -0.59887319770E+00 -0.53105942615E+01  0.36419030908E+01  0.64671878665E+01  0.51100000000E-03 0. -1.
        -11    1    3    3    0    0  0.17916155601E+02 -0.16799915870E+02  0.22913324601E+02  0.33589377030E+02  0.51100000000E-03 0.  1.
        -12    1    3    3    0    0  0.27823012381E+01  0.27343562024E+01  0.66742370538E+01  0.77306755379E+01  0.00000000000E+00 0.  1.
</event>
<event>
 7    1  0.2455451E-009  0.4778727E+02  0.7816164E-02  0.1312668E+00
        -11   -1    0    0    0    0  0.00000000000E+00  0.00000000000E+00  0.45593999997E+02  0.45594000000E+02  0.51100000000E-03 0. -1.
         11   -1    0    0    0    0 -0.00000000000E+00 -0.00000000000E+00 -0.45593999997E+02  0.45594000000E+02  0.51100000000E-03 0.  1.
    9900012    2    1    2    0    0  0.15108339604E+02  0.36899552862E+02 -0.17140136928E+02  0.47787271655E+02  0.20000002783E+02 0.  0.
         12    1    1    2    0    0 -0.15108339604E+02 -0.36899552862E+02  0.17140136928E+02  0.43400728345E+02  0.00000000000E+00 0. -1.
         11    1    3    3    0    0  0.66160501180E+00  0.15198311030E+02 -0.21431880404E+01  0.15362930534E+02  0.51100000000E-03 0. -1.
        -11    1    3    3    0    0  0.91676742802E+01  0.83098452573E+01 -0.12905526657E+02  0.17878825422E+02  0.51100000000E-03 0.  1.
        -12    1    3    3    0    0  0.52790603123E+01  0.13391396574E+02 -0.20914222299E+01  0.14545515699E+02  0.00000000000E+00 0.  1.
</event>
<event>
 7    1  0.2455451E-009  0.4778727E+02  0.7816164E-02  0.1312668E+00
        -11   -1    0    0    0    0  0.00000000000E+00  0.00000000000E+00  0.45593999997E+02  0.45594000000E+02  0.51100000000E-03 0.  1.
         11   -1    0    0    0    0 -0.00000000000E+00 -0.00000000000E+00 -0.45593999997E+02  0.45594000000E+02  0.51100000000E-03 0. -1.
    9900012    2    1    2    0    0 -0.42586462892E+02 -0.21692267762E+01  0.80815048248E+01  0.47787273201E+02  0.20000009832E+02 0.  0.
         12    1    1    2    0    0  0.42586462892E+02  0.21692267762E+01 -0.80815048248E+01  0.43400726799E+02  0.00000000000E+00 0. -1.
         11    1    3    3    0    0 -0.12995051732E+02 -0.88001104146E+01  0.39209033795E+01  0.16176736271E+02  0.51100000000E-03 0. -1.
        -11    1    3    3    0    0 -0.28390259889E+02  0.50110253133E+01  0.52731492622E+01  0.29307393856E+02  0.51100000000E-03 0.  1.
         12    1    3    3    0    0 -0.12011512714E+01  0.16198583251E+01 -0.11125478169E+01  0.23031430730E+01  0.00000000000E+00 0. -1.
</event>
<event>
 7    1  0.2455451E-009  0.4778727E+02  0.7816164E-02  0.1312668E+00
        -11   -1    0    0    0    0  0.00000000000E+00  0.00000000000E+00  0.45593999997E+02  0.45594000000E+02  0.51100000000E-03 0.  1.
         11   -1    0    0    0    0 -0.00000000000E+00 -0.00000000000E+00 -0.45593999997E+02  0.45594000000E+02  0.51100000000E-03 0. -1.
    9900012    2    1    2    0    0 -0.16798264210E+02  0.28071091709E+02  0.28521145970E+02  0.47787266853E+02  0.19999980891E+02 0.  0.
         12    1    1    2    0    0  0.16798264210E+02 -0.28071091709E+02 -0.28521145970E+02  0.43400733147E+02  0.00000000000E+00 0. -1.
         11    1    3    3    0    0 -0.22673965647E+01  0.91721766314E+00 -0.24266726649E+01  0.34454485785E+01  0.51100000000E-03 0. -1.
        -11    1    3    3    0    0 -0.16268305224E+01  0.21534945319E-01  0.94321949724E+00  0.18806128213E+01  0.51100000000E-03 0.  1.
         12    1    3    3    0    0 -0.12904037123E+02  0.27132339101E+02  0.30004599138E+02  0.42461205454E+02  0.00000000000E+00 0. -1.
</event>
<event>
 7    1  0.2455451E-009  0.4778727E+02  0.7816164E-02  0.1312668E+00
        -11   -1    0    0    0    0  0.00000000000E+00  0.00000000000E+00  0.45593999997E+02  0.45594000000E+02  0.51100000000E-03 0.  1.
         11   -1    0    0    0    0 -0.00000000000E+00 -0.00000000000E+00 -0.45593999997E+02  0.45594000000E+02  0.51100000000E-03 0. -1.
    9900012    2    1    2    0    0  0.17556162180E+02 -0.20965781504E+02  0.33702233158E+02  0.47787270232E+02  0.19999996298E+02 0.  0.
         12    1    1    2    0    0 -0.17556162180E+02  0.20965781504E+02 -0.33702233158E+02  0.43400729768E+02  0.00000000000E+00 0. -1.
         11    1    3    3    0    0  0.33891940469E+01  0.25775508970E+01  0.31176849450E+01  0.52773444640E+01  0.51100000000E-03 0. -1.
        -11    1    3    3    0    0  0.34148027389E+01 -0.14484249711E+02  0.11507495307E+02  0.18811613858E+02  0.51100000000E-03 0.  1.
        -12    1    3    3    0    0  0.10752165394E+02 -0.90590826898E+01  0.19077052906E+02  0.23698311911E+02  0.00000000000E+00 0.  1.
</event>
<event>
 7    1  0.2455451E-009  0.4778727E+02  0.7816164E-02  0.1312668E+00
        -11   -1    0    0    0    0  0.00000000000E+00  0.00000000000E+00  0.45593999997E+02  0.45594000000E+02  0.51100000000E-03 0.  1.
         11   -1    0    0    0    0 -0.00000000000E+00 -0.00000000000E+00 -0.45593999997E+02  0.45594000000E+02  0.51100000000E-03 0. -1.
    9900012    2    1    2    0    0 -0.70483895981E+01  0.39555746292E+01  0.42641491812E+02  0.47787272005E+02  0.20000004380E+02 0.  0.
         12    1    1    2    0    0  0.70483895981E+01 -0.39555746292E+01 -0.42641491812E+02  0.43400727995E+02  0.00000000000E+00 0. -1.
         11    1    3    3    0    0 -0.29415328474E+01  0.32430769677E+01  0.43821348716E+01  0.61946162112E+01  0.51100000000E-03 0. -1.
        -11    1    3    3    0    0  0.51768402386E+01  0.71877563938E+00  0.56903650705E+01  0.77263554262E+01  0.51100000000E-03 0.  1.
        -12    1    3    3    0    0 -0.92836969893E+01 -0.62779778326E-02  0.32568991869E+02  0.33866300368E+02  0.00000000000E+00 0.  1.
</event>
<event>
 7    1  0.2455451E-009  0.4778727E+02  0.7816164E-02  0.1312668E+00
        -11   -1    0    0    0    0  0.00000000000E+00  0.00000000000E+00  0.45593999997E+02  0.45594000000E+02  0.51100000000E-03 0.  1.
         11   -1    0    0    0    0 -0.00000000000E+00 -0.00000000000E+00 -0.45593999997E+02  0.45594000000E+02  0.51100000000E-03 0. -1.
    9900012    2    1    2    0    0  0.19165875669E+02 -0.28511941765E+02  0.26520969271E+02  0.47787269310E+02  0.19999992092E+02 0.  0.
         12    1    1    2    0    0 -0.19165875669E+02  0.28511941765E+02 -0.26520969271E+02  0.43400730690E+02  0.00000000000E+00 0. -1.
         11    1    3    3    0    0  0.37758641609E+01 -0.36550393883E+00  0.84535880727E+01  0.92657376854E+01  0.51100000000E-03 0. -1.
        -11    1    3    3    0    0  0.28911590202E+01 -0.12366342730E+02  0.21990281612E+01  0.12888791957E+02  0.51100000000E-03 0.  1.
        -12    1    3    3    0    0  0.12498852488E+02 -0.15780095096E+02  0.15868353037E+02  0.25632739667E+02  0.00000000000E+00 0.  1.
</event>
<event>
 7    1  0.2455451E-009  0.4778727E+02  0.7816164E-02  0.1312668E+00
        -11   -1    0    0    0    0  0.00000000000E+00  0.00000000000E+00  0.45593999997E+02  0.45594000000E+02  0.51100000000E-03 0.  1.
         11   -1    0    0    0    0 -0.00000000000E+00 -0.00000000000E+00 -0.45593999997E+02  0.45594000000E+02  0.51100000000E-03 0. -1.
    9900012    2    1    2    0    0  0.19194429303E+02  0.92492542450E+01  0.37810688428E+02  0.47787274433E+02  0.20000015449E+02 0.  0.
         12    1    1    2    0    0 -0.19194429303E+02 -0.92492542450E+01 -0.37810688428E+02  0.43400725567E+02  0.00000000000E+00 0. -1.
         11    1    3    3    0    0  0.51159861410E+01 -0.59102192560E+01  0.96563847191E+01  0.12423758367E+02  0.51100000000E-03 0. -1.
        -11    1    3    3    0    0  0.75850685974E+01  0.11088061223E+02  0.14976327568E+02  0.20118865649E+02  0.51100000000E-03 0.  1.
         12    1    3    3    0    0  0.64933745645E+01  0.40714122781E+01  0.13177976141E+02  0.15244650417E+02  0.00000000000E+00 0. -1.
</event>
<event>
 7    1  0.2455451E-009  0.4778727E+02  0.7816164E-02  0.1312668E+00
        -11   -1    0    0    0    0  0.00000000000E+00  0.00000000000E+00  0.45593999997E+02  0.45594000000E+02  0.51100000000E-03 0.  1.
         11   -1    0    0    0    0 -0.00000000000E+00 -0.00000000000E+00 -0.45593999997E+02  0.45594000000E+02  0.51100000000E-03 0. -1.
    9900012    2    1    2    0    0 -0.18979857892E+01 -0.25046880949E+02  0.35393141926E+02  0.47787273154E+02  0.20000009620E+02 0.  0.
         12    1    1    2    0    0  0.18979857892E+01  0.25046880949E+02 -0.35393141926E+02  0.43400726846E+02  0.00000000000E+00 0. -1.
         11    1    3    3    0    0 -0.76823524533E+00 -0.25101327097E+02  0.22219997951E+02  0.33532001381E+02  0.51100000000E-03 0.  1.
        -11    1    3    3    0    0 -0.12919574847E+01 -0.68042268473E+00  0.13392131086E+02  0.13471499711E+02  0.51100000000E-03 0. -1.
        -12    1    3    3    0    0  0.16220694086E+00  0.73486883219E+00 -0.21898711047E+00  0.78377206300E+00  0.00000000000E+00 0.  1.
</event>
<event>
 7    1  0.2455451E-009  0.4778727E+02  0.7816164E-02  0.1312668E+00
        -11   -1    0    0    0    0  0.00000000000E+00  0.00000000000E+00  0.45593999997E+02  0.45594000000E+02  0.51100000000E-03 0.  1.
         11   -1    0    0    0    0 -0.00000000000E+00 -0.00000000000E+00 -0.45593999997E+02  0.45594000000E+02  0.51100000000E-03 0. -1.
    9900012    2    1    2    0    0  0.15658870946E+02  0.19372061870E+02  0.35540776110E+02  0.47787265135E+02  0.19999973055E+02 0.  0.
         12    1    1    2    0    0 -0.15658870946E+02 -0.19372061870E+02 -0.35540776110E+02  0.43400734865E+02  0.00000000000E+00 0. -1.
         11    1    3    3    0    0  0.80789400897E+01  0.38136585734E+00  0.61141876943E+01  0.10138935068E+02  0.51100000000E-03 0. -1.
        -11    1    3    3    0    0  0.18681207800E+01  0.16307639246E+02  0.25123280147E+02  0.30010134599E+02  0.51100000000E-03 0.  1.
         12    1    3    3    0    0  0.57118100760E+01  0.26830567660E+01  0.43033082688E+01  0.76381954682E+01  0.00000000000E+00 0. -1.
</event>
<event>
 7    1  0.2455451E-009  0.4778727E+02  0.7816164E-02  0.1312668E+00
        -11   -1    0    0    0    0  0.00000000000E+00  0.00000000000E+00  0.45593999997E+02  0.45594000000E+02  0.51100000000E-03 0. -1.
         11   -1    0    0    0    0 -0.00000000000E+00 -0.00000000000E+00 -0.45593999997E+02  0.45594000000E+02  0.51100000000E-03 0.  1.
    9900012    2    1    2    0    0 -0.32029162469E+02  0.20962222854E+02 -0.20453392716E+02  0.47787270639E+02  0.19999998154E+02 0.  0.
         12    1    1    2    0    0  0.32029162469E+02 -0.20962222854E+02  0.20453392716E+02  0.43400729361E+02  0.00000000000E+00 0. -1.
         11    1    3    3    0    0  0.72666341713E+00 -0.36223183744E+00 -0.13733873106E+01  0.15954449511E+01  0.51100000000E-03 0. -1.
        -11    1    3    3    0    0 -0.31727531417E+02  0.19431657361E+02 -0.12469466167E+02  0.39239178691E+02  0.51100000000E-03 0.  1.
        -12    1    3    3    0    0 -0.10282944692E+01  0.18927973301E+01 -0.66105392381E+01  0.69526469971E+01  0.00000000000E+00 0.  1.
</event>
<event>
 7    1  0.2455451E-009  0.4778727E+02  0.7816164E-02  0.1312668E+00
        -11   -1    0    0    0    0  0.00000000000E+00  0.00000000000E+00  0.45593999997E+02  0.45594000000E+02  0.51100000000E-03 0.  1.
         11   -1    0    0    0    0 -0.00000000000E+00 -0.00000000000E+00 -0.45593999997E+02  0.45594000000E+02  0.51100000000E-03 0. -1.
    9900012    2    1    2    0    0  0.35445622234E+02  0.21637910071E+02  0.12610782989E+02  0.47787272639E+02  0.20000007272E+02 0.  0.
         12    1    1    2    0    0 -0.35445622234E+02 -0.21637910071E+02 -0.12610782989E+02  0.43400727361E+02  0.00000000000E+00 0. -1.
         11    1    3    3    0    0  0.89617520344E+01  0.28119718416E+01  0.10033957135E+02  0.13744107145E+02  0.51100000000E-03 0. -1.
        -11    1    3    3    0    0  0.22310372616E+02  0.11336284309E+02  0.40276580237E+01  0.25347309474E+02  0.51100000000E-03 0.  1.
         12    1    3    3    0    0  0.41734975843E+01  0.74896539211E+01 -0.14508321690E+01  0.86958560203E+01  0.00000000000E+00 0. -1.
</event>
<event>
 7    1  0.2455451E-009  0.4778728E+02  0.7816164E-02  0.1312668E+00
        -11   -1    0    0    0    0  0.00000000000E+00  0.00000000000E+00  0.45593999997E+02  0.45594000000E+02  0.51100000000E-03 0.  1.
         11   -1    0    0    0    0 -0.00000000000E+00 -0.00000000000E+00 -0.45593999997E+02  0.45594000000E+02  0.51100000000E-03 0. -1.
    9900012    2    1    2    0    0 -0.23492356466E+02  0.57710334439E+01  0.36033695598E+02  0.47787275838E+02  0.20000021856E+02 0.  0.
         12    1    1    2    0    0  0.23492356466E+02 -0.57710334439E+01 -0.36033695598E+02  0.43400724162E+02  0.00000000000E+00 0. -1.
         11    1    3    3    0    0 -0.69525476946E+01  0.57352509118E+01  0.11728454750E+01  0.90888167126E+01  0.51100000000E-03 0. -1.
        -11    1    3    3    0    0 -0.62111512875E+01  0.73118002734E+00  0.16082473694E+02  0.17255694275E+02  0.51100000000E-03 0.  1.
         12    1    3    3    0    0 -0.10328657484E+02 -0.69539749521E+00  0.18778376429E+02  0.21442764850E+02  0.00000000000E+00 0. -1.
</event>
<event>
 7    1  0.2455451E-009  0.4778725E+02  0.7816164E-02  0.1312668E+00
        -11   -1    0    0    0    0  0.00000000000E+00  0.00000000000E+00  0.45593999997E+02  0.45594000000E+02  0.51100000000E-03 0. -1.
         11   -1    0    0    0    0 -0.00000000000E+00 -0.00000000000E+00 -0.45593999997E+02  0.45594000000E+02  0.51100000000E-03 0.  1.
    9900012    2    1    2    0    0  0.19029083829E+02 -0.21330005064E+02  0.32658077846E+02  0.47787248901E+02  0.19999899037E+02 0.  0.
         12    1    1    2    0    0 -0.19029083829E+02  0.21330005064E+02 -0.32658077846E+02  0.43400751099E+02  0.00000000000E+00 0. -1.
         11    1    3    3    0    0  0.12615470451E+02 -0.75956425356E+01  0.24596976543E+02  0.28668015898E+02  0.51100000000E-03 0. -1.
        -11    1    3    3    0    0 -0.43257021337E+00 -0.88076109299E+01  0.31801306781E+01  0.93741324224E+01  0.51100000000E-03 0.  1.
        -12    1    3    3    0    0  0.68461835908E+01 -0.49267515981E+01  0.48809706256E+01  0.97451005801E+01  0.00000000000E+00 0.  1.
</event>
<event>
 7    1  0.2455451E-009  0.4778727E+02  0.7816164E-02  0.1312668E+00
        -11   -1    0    0    0    0  0.00000000000E+00  0.00000000000E+00  0.45593999997E+02  0.45594000000E+02  0.51100000000E-03 0.  1.
         11   -1    0    0    0    0 -0.00000000000E+00 -0.00000000000E+00 -0.45593999997E+02  0.45594000000E+02  0.51100000000E-03 0. -1.
    9900012    2    1    2    0    0  0.50623124539E+01 -0.41173207838E+02  0.12757873629E+02  0.47787269700E+02  0.19999993870E+02 0.  0.
         12    1    1    2    0    0 -0.50623124539E+01  0.41173207838E+02 -0.12757873629E+02  0.43400730300E+02  0.00000000000E+00 0. -1.
         11    1    3    3    0    0  0.16530268846E+01 -0.18470960186E+02 -0.10707148860E+01  0.18575664152E+02  0.51100000000E-03 0. -1.
        -11    1    3    3    0    0  0.26570362682E+01 -0.19484014788E+02  0.15919680953E+02  0.25300650503E+02  0.51100000000E-03 0.  1.
        -12    1    3    3    0    0  0.75224930104E+00 -0.32182328638E+01 -0.20910924376E+01  0.39109550444E+01  0.00000000000E+00 0.  1.
</event>
<event>
 7    1  0.2455451E-009  0.4778727E+02  0.7816164E-02  0.1312668E+00
        -11   -1    0    0    0    0  0.00000000000E+00  0.00000000000E+00  0.45593999997E+02  0.45594000000E+02  0.51100000000E-03 0.  1.
         11   -1    0    0    0    0 -0.00000000000E+00 -0.00000000000E+00 -0.45593999997E+02  0.45594000000E+02  0.51100000000E-03 0. -1.
    9900012    2    1    2    0    0 -0.31338290477E+02  0.29108178542E+02  0.73653951878E+01  0.47787267813E+02  0.19999985268E+02 0.  0.
         12    1    1    2    0    0  0.31338290477E+02 -0.29108178542E+02 -0.73653951878E+01  0.43400732187E+02  0.00000000000E+00 0. -1.
         11    1    3    3    0    0 -0.25029830011E+02  0.16892622895E+02  0.11821491587E+02  0.32428394383E+02  0.51100000000E-03 0. -1.
        -11    1    3    3    0    0 -0.15031637868E+01  0.76352426015E+01 -0.91631734864E+00  0.78355643510E+01  0.51100000000E-03 0.  1.
         12    1    3    3    0    0 -0.48052966790E+01  0.45803130460E+01 -0.35397790508E+01  0.75233090792E+01  0.00000000000E+00 0. -1.
</event>
<event>
 7    1  0.2455451E-009  0.4778727E+02  0.7816164E-02  0.1312668E+00
        -11   -1    0    0    0    0  0.00000000000E+00  0.00000000000E+00  0.45593999997E+02  0.45594000000E+02  0.51100000000E-03 0. -1.
         11   -1    0    0    0    0 -0.00000000000E+00 -0.00000000000E+00 -0.45593999997E+02  0.45594000000E+02  0.51100000000E-03 0.  1.
    9900012    2    1    2    0    0  0.36508278343E+02 -0.22348807968E+02  0.71623958527E+01  0.47787268215E+02  0.19999987098E+02 0.  0.
         12    1    1    2    0    0 -0.36508278343E+02  0.22348807968E+02 -0.71623958527E+01  0.43400731785E+02  0.00000000000E+00 0. -1.
         11    1    3    3    0    0  0.13593522371E+02 -0.37226158674E+01 -0.29511436322E+01  0.14399686398E+02  0.51100000000E-03 0. -1.
        -11    1    3    3    0    0  0.15103810652E+02 -0.18651264112E+02  0.79530692162E+01  0.25283315831E+02  0.51100000000E-03 0.  1.
         12    1    3    3    0    0  0.78109453194E+01  0.25072011443E-01  0.21604702687E+01  0.81042659860E+01  0.00000000000E+00 0. -1.
</event>
<event>
 7    1  0.2455451E-009  0.4778728E+02  0.7816164E-02  0.1312668E+00
        -11   -1    0    0    0    0  0.00000000000E+00  0.00000000000E+00  0.45593999997E+02  0.45594000000E+02  0.51100000000E-03 0.  1.
         11   -1    0    0    0    0 -0.00000000000E+00 -0.00000000000E+00 -0.45593999997E+02  0.45594000000E+02  0.51100000000E-03 0. -1.
    9900012    2    1    2    0    0 -0.35435330686E+01 -0.23177677670E+02  0.36522065371E+02  0.47787278488E+02  0.20000033938E+02 0.  0.
         12    1    1    2    0    0  0.35435330686E+01  0.23177677670E+02 -0.36522065371E+02  0.43400721512E+02  0.00000000000E+00 0. -1.
         11    1    3    3    0    0  0.18704735151E+01 -0.10782675995E+02  0.83286047495E+01  0.13752469965E+02  0.51100000000E-03 0. -1.
        -11    1    3    3    0    0 -0.84984074695E+01 -0.42287275675E+01  0.19638741710E+02  0.21812501978E+02  0.51100000000E-03 0.  1.
        -12    1    3    3    0    0  0.30844008857E+01 -0.81662741073E+01  0.85547189119E+01  0.12222306545E+02  0.00000000000E+00 0.  1.
</event>
<event>
 7    1  0.2455451E-009  0.4778726E+02  0.7816164E-02  0.1312668E+00
        -11   -1    0    0    0    0  0.00000000000E+00  0.00000000000E+00  0.45593999997E+02  0.45594000000E+02  0.51100000000E-03 0.  1.
         11   -1    0    0    0    0 -0.00000000000E+00 -0.00000000000E+00 -0.45593999997E+02  0.45594000000E+02  0.51100000000E-03 0. -1.
    9900012    2    1    2    0    0 -0.85831398508E-01  0.40851868606E+02  0.14654053642E+02  0.47787264709E+02  0.19999971115E+02 0.  0.
         12    1    1    2    0    0  0.85831398508E-01 -0.40851868606E+02 -0.14654053642E+02  0.43400735291E+02  0.00000000000E+00 0. -1.
         11    1    3    3    0    0 -0.28190826888E+01  0.14950674644E+01  0.99673680391E+00  0.33430432912E+01  0.51100000000E-03 0.  1.
        -11    1    3    3    0    0  0.15658313189E+01  0.16055810994E+02 -0.21334908900E+01  0.16272451506E+02  0.51100000000E-03 0. -1.
        -12    1    3    3    0    0  0.11674199714E+01  0.23300990148E+02  0.15790807728E+02  0.28171769912E+02  0.00000000000E+00 0.  1.
</event>
<event>
 7    1  0.2455451E-009  0.4778727E+02  0.7816164E-02  0.1312668E+00
        -11   -1    0    0    0    0  0.00000000000E+00  0.00000000000E+00  0.45593999997E+02  0.45594000000E+02  0.51100000000E-03 0.  1.
         11   -1    0    0    0    0 -0.00000000000E+00 -0.00000000000E+00 -0.45593999997E+02  0.45594000000E+02  0.51100000000E-03 0. -1.
    9900012    2    1    2    0    0 -0.92777204120E+01  0.36976711747E+02  0.20742956050E+02  0.47787268055E+02  0.19999986369E+02 0.  0.
         12    1    1    2    0    0  0.92777204120E+01 -0.36976711747E+02 -0.20742956050E+02  0.43400731945E+02  0.00000000000E+00 0. -1.
         11    1    3    3    0    0  0.40402633788E+01  0.18119268567E+02  0.33395057153E+01  0.18862235293E+02  0.51100000000E-03 0. -1.
        -11    1    3    3    0    0 -0.89517263416E+01  0.11998947637E+02  0.11500027492E+02  0.18877467560E+02  0.51100000000E-03 0.  1.
         12    1    3    3    0    0 -0.43662574492E+01  0.68584955430E+01  0.59034228422E+01  0.10047565202E+02  0.00000000000E+00 0. -1.
</event>
<event>
 7    1  0.2455451E-009  0.4778727E+02  0.7816164E-02  0.1312668E+00
        -11   -1    0    0    0    0  0.00000000000E+00  0.00000000000E+00  0.45593999997E+02  0.45594000000E+02  0.51100000000E-03 0. -1.
         11   -1    0    0    0    0 -0.00000000000E+00 -0.00000000000E+00 -0.45593999997E+02  0.45594000000E+02  0.51100000000E-03 0.  1.
    9900012    2    1    2    0    0 -0.51055928260E+01 -0.38551723015E+02  0.19269684902E+02  0.47787272106E+02  0.20000004838E+02 0.  0.
         12    1    1    2    0    0  0.51055928260E+01  0.38551723015E+02 -0.19269684902E+02  0.43400727894E+02  0.00000000000E+00 0. -1.
         11    1    3    3    0    0 -0.76109065313E+01 -0.33155132003E+02  0.17724106744E+02  0.38357954019E+02  0.51100000000E-03 0. -1.
        -11    1    3    3    0    0 -0.22869650647E-01 -0.86362268496E-01 -0.23649041699E+01  0.23665911046E+01  0.51100000000E-03 0.  1.
         12    1    3    3    0    0  0.25281833559E+01 -0.53102287436E+01  0.39104823278E+01  0.70627269823E+01  0.00000000000E+00 0. -1.
</event>
<event>
 7    1  0.2455451E-009  0.4778727E+02  0.7816164E-02  0.1312668E+00
        -11   -1    0    0    0    0  0.00000000000E+00  0.00000000000E+00  0.45593999997E+02  0.45594000000E+02  0.51100000000E-03 0. -1.
         11   -1    0    0    0    0 -0.00000000000E+00 -0.00000000000E+00 -0.45593999997E+02  0.45594000000E+02  0.51100000000E-03 0.  1.
    9900012    2    1    2    0    0  0.67549286843E+01 -0.24066181022E+02 -0.35479756328E+02  0.47787271439E+02  0.20000001800E+02 0.  0.
         12    1    1    2    0    0 -0.67549286843E+01  0.24066181022E+02  0.35479756328E+02  0.43400728561E+02  0.00000000000E+00 0. -1.
         11    1    3    3    0    0 -0.27681642292E+01  0.19684657877E+01 -0.59362171463E+01  0.68393175848E+01  0.51100000000E-03 0. -1.
        -11    1    3    3    0    0  0.11207927676E+01 -0.55504057245E+01 -0.96205737404E+01  0.11163271003E+02  0.51100000000E-03 0.  1.
         12    1    3    3    0    0  0.84023001458E+01 -0.20484241085E+02 -0.19922965441E+02  0.29784682851E+02  0.00000000000E+00 0. -1.
</event>
<event>
 7    1  0.2455451E-009  0.4778727E+02  0.7816164E-02  0.1312668E+00
        -11   -1    0    0    0    0  0.00000000000E+00  0.00000000000E+00  0.45593999997E+02  0.45594000000E+02  0.51100000000E-03 0.  1.
         11   -1    0    0    0    0 -0.00000000000E+00 -0.00000000000E+00 -0.45593999997E+02  0.45594000000E+02  0.51100000000E-03 0. -1.
    9900012    2    1    2    0    0  0.34578732033E+02 -0.94906659132E+01  0.24451213029E+02  0.47787271123E+02  0.20000000357E+02 0.  0.
         12    1    1    2    0    0 -0.34578732033E+02  0.94906659132E+01 -0.24451213029E+02  0.43400728877E+02  0.00000000000E+00 0. -1.
         11    1    3    3    0    0  0.23627280345E+02  0.16929718782E+01  0.86866695998E+01  0.25230393562E+02  0.51100000000E-03 0. -1.
        -11    1    3    3    0    0  0.67340550597E+01 -0.42034527636E+01  0.69834632402E+01  0.10572855422E+02  0.51100000000E-03 0.  1.
         12    1    3    3    0    0  0.42173966280E+01 -0.69801850278E+01  0.87810801893E+01  0.11984022139E+02  0.00000000000E+00 0. -1.
</event>
<event>
 7    1  0.2455451E-009  0.4778728E+02  0.7816164E-02  0.1312668E+00
        -11   -1    0    0    0    0  0.00000000000E+00  0.00000000000E+00  0.45593999997E+02  0.45594000000E+02  0.51100000000E-03 0.  1.
         11   -1    0    0    0    0 -0.00000000000E+00 -0.00000000000E+00 -0.45593999997E+02  0.45594000000E+02  0.51100000000E-03 0. -1.
    9900012    2    1    2    0    0  0.25502678944E+02 -0.34049307388E+02 -0.85953633780E+01  0.47787282972E+02  0.20000054384E+02 0.  0.
         12    1    1    2    0    0 -0.25502678944E+02  0.34049307388E+02  0.85953633780E+01  0.43400717028E+02  0.00000000000E+00 0. -1.
         11    1    3    3    0    0  0.68585415148E+01 -0.11731368280E+02 -0.92734864614E+01  0.16451812814E+02  0.51100000000E-03 0. -1.
        -11    1    3    3    0    0  0.17071288827E+02 -0.21221435193E+02  0.39724764749E+01  0.27523785777E+02  0.51100000000E-03 0.  1.
        -12    1    3    3    0    0  0.15728486020E+01 -0.10965039141E+01 -0.32943533915E+01  0.38116843818E+01  0.00000000000E+00 0.  1.
</event>
<event>
 7    1  0.2455451E-009  0.4778727E+02  0.7816164E-02  0.1312668E+00
        -11   -1    0    0    0    0  0.00000000000E+00  0.00000000000E+00  0.45593999997E+02  0.45594000000E+02  0.51100000000E-03 0. -1.
         11   -1    0    0    0    0 -0.00000000000E+00 -0.00000000000E+00 -0.45593999997E+02  0.45594000000E+02  0.51100000000E-03 0.  1.
    9900012    2    1    2    0    0 -0.24669366448E+01 -0.40099049335E+02 -0.16419611143E+02  0.47787272309E+02  0.20000005767E+02 0.  0.
         12    1    1    2    0    0  0.24669366448E+01  0.40099049335E+02  0.16419611143E+02  0.43400727691E+02  0.00000000000E+00 0. -1.
         11    1    3    3    0    0  0.75613234199E+01 -0.11711129947E+02 -0.17043576646E+01  0.14043824686E+02  0.51100000000E-03 0. -1.
        -11    1    3    3    0    0 -0.62165044575E+01 -0.11800827840E+02 -0.68569523780E+01  0.14997408495E+02  0.51100000000E-03 0.  1.
         12    1    3    3    0    0 -0.38117556073E+01 -0.16587091548E+02 -0.78583011006E+01  0.18746039129E+02  0.00000000000E+00 0. -1.
</event>
<event>
 7    1  0.2455451E-009  0.4778726E+02  0.7816164E-02  0.1312668E+00
        -11   -1    0    0    0    0  0.00000000000E+00  0.00000000000E+00  0.45593999997E+02  0.45594000000E+02  0.51100000000E-03 0.  1.
         11   -1    0    0    0    0 -0.00000000000E+00 -0.00000000000E+00 -0.45593999997E+02  0.45594000000E+02  0.51100000000E-03 0. -1.
    9900012    2    1    2    0    0 -0.39505595771E+02  0.13051296988E+02  0.12352949239E+02  0.47787264923E+02  0.19999972091E+02 0.  0.
         12    1    1    2    0    0  0.39505595771E+02 -0.13051296988E+02 -0.12352949239E+02  0.43400735077E+02  0.00000000000E+00 0. -1.
         11    1    3    3    0    0 -0.13632801996E+02  0.26520191175E+00 -0.14100482858E+01  0.13708094643E+02  0.51100000000E-03 0. -1.
        -11    1    3    3    0    0 -0.56477963146E+01  0.58352208878E+01  0.90887415596E+01  0.12188216827E+02  0.51100000000E-03 0.  1.
        -12    1    3    3    0    0 -0.20224997461E+02  0.69508741882E+01  0.46742559652E+01  0.21890953454E+02  0.00000000000E+00 0.  1.
</event>
<event>
 7    1  0.2455451E-009  0.4778727E+02  0.7816164E-02  0.1312668E+00
        -11   -1    0    0    0    0  0.00000000000E+00  0.00000000000E+00  0.45593999997E+02  0.45594000000E+02  0.51100000000E-03 0.  1.
         11   -1    0    0    0    0 -0.00000000000E+00 -0.00000000000E+00 -0.45593999997E+02  0.45594000000E+02  0.51100000000E-03 0. -1.
    9900012    2    1    2    0    0  0.16019665004E+02 -0.22947819924E+02  0.33172140164E+02  0.47787274324E+02  0.20000014955E+02 0.  0.
         12    1    1    2    0    0 -0.16019665004E+02  0.22947819924E+02 -0.33172140164E+02  0.43400725676E+02  0.00000000000E+00 0. -1.
         11    1    3    3    0    0  0.69061813947E+01 -0.69199810091E+01  0.56464827632E+01  0.11290006487E+02  0.51100000000E-03 0. -1.
        -11    1    3    3    0    0  0.11871369918E+02 -0.13643760273E+02  0.15139321351E+02  0.23585603010E+02  0.51100000000E-03 0.  1.
        -12    1    3    3    0    0 -0.27578863093E+01 -0.23840786419E+01  0.12386336050E+02  0.12911664827E+02  0.00000000000E+00 0.  1.
</event>
<event>
 7    1  0.2455451E-009  0.4778726E+02  0.7816164E-02  0.1312668E+00
        -11   -1    0    0    0    0  0.00000000000E+00  0.00000000000E+00  0.45593999997E+02  0.45594000000E+02  0.51100000000E-03 0.  1.
         11   -1    0    0    0    0 -0.00000000000E+00 -0.00000000000E+00 -0.45593999997E+02  0.45594000000E+02  0.51100000000E-03 0. -1.
    9900012    2    1    2    0    0  0.92572208663E+01  0.11644103060E+02  0.40771837279E+02  0.47787262802E+02  0.19999962418E+02 0.  0.
         12    1    1    2    0    0 -0.92572208663E+01 -0.11644103060E+02 -0.40771837279E+02  0.43400737198E+02  0.00000000000E+00 0. -1.
         11    1    3    3    0    0 -0.36015980303E+00 -0.32509142057E+01  0.60773564142E+01  0.69016244104E+01  0.51100000000E-03 0. -1.
        -11    1    3    3    0    0  0.12637261610E+02  0.12507466633E+02  0.28715182661E+02  0.33774233050E+02  0.51100000000E-03 0.  1.
        -12    1    3    3    0    0 -0.30198809409E+01  0.23875506333E+01  0.59792982036E+01  0.71114053416E+01  0.00000000000E+00 0.  1.
</event>
<event>
 7    1  0.2455451E-009  0.4778727E+02  0.7816164E-02  0.1312668E+00
        -11   -1    0    0    0    0  0.00000000000E+00  0.00000000000E+00  0.45593999997E+02  0.45594000000E+02  0.51100000000E-03 0.  1.
         11   -1    0    0    0    0 -0.00000000000E+00 -0.00000000000E+00 -0.45593999997E+02  0.45594000000E+02  0.51100000000E-03 0. -1.
    9900012    2    1    2    0    0  0.11686361320E+02  0.25133605175E+02  0.33396915820E+02  0.47787272629E+02  0.20000007226E+02 0.  0.
         12    1    1    2    0    0 -0.11686361320E+02 -0.25133605175E+02 -0.33396915820E+02  0.43400727371E+02  0.00000000000E+00 0. -1.
         11    1    3    3    0    0 -0.15084035191E+01  0.40296500865E+01 -0.17070802125E+01  0.46289830535E+01  0.51100000000E-03 0. -1.
        -11    1    3    3    0    0  0.11304169322E+02  0.19640812531E+02  0.30853775600E+02  0.38281865550E+02  0.51100000000E-03 0.  1.
         12    1    3    3    0    0  0.18905955171E+01  0.14631425570E+01  0.42502204330E+01  0.48764240259E+01  0.00000000000E+00 0. -1.
</event>
<event>
 7    1  0.2455451E-009  0.4778727E+02  0.7816164E-02  0.1312668E+00
        -11   -1    0    0    0    0  0.00000000000E+00  0.00000000000E+00  0.45593999997E+02  0.45594000000E+02  0.51100000000E-03 0.  1.
         11   -1    0    0    0    0 -0.00000000000E+00 -0.00000000000E+00 -0.45593999997E+02  0.45594000000E+02  0.51100000000E-03 0. -1.
    9900012    2    1    2    0    0  0.25942917948E+02 -0.10541368786E+02  0.33158230171E+02  0.47787266416E+02  0.19999978896E+02 0.  0.
         12    1    1    2    0    0 -0.25942917948E+02  0.10541368786E+02 -0.33158230171E+02  0.43400733584E+02  0.00000000000E+00 0. -1.
         11    1    3    3    0    0  0.30058860455E+01  0.23558679752E+00  0.12242237954E+01  0.32541629062E+01  0.51100000000E-03 0. -1.
        -11    1    3    3    0    0  0.68590713212E+01  0.49331555972E+01  0.70968193295E+01  0.11033935309E+02  0.51100000000E-03 0.  1.
        -12    1    3    3    0    0  0.16077960582E+02 -0.15710111181E+02  0.24837187047E+02  0.33499168201E+02  0.00000000000E+00 0.  1.
</event>
<event>
 7    1  0.2455451E-009  0.4778727E+02  0.7816164E-02  0.1312668E+00
        -11   -1    0    0    0    0  0.00000000000E+00  0.00000000000E+00  0.45593999997E+02  0.45594000000E+02  0.51100000000E-03 0.  1.
         11   -1    0    0    0    0 -0.00000000000E+00 -0.00000000000E+00 -0.45593999997E+02  0.45594000000E+02  0.51100000000E-03 0. -1.
    9900012    2    1    2    0    0 -0.11310132712E+02 -0.49126435634E+01  0.41612139170E+02  0.47787270801E+02  0.19999998889E+02 0.  0.
         12    1    1    2    0    0  0.11310132712E+02  0.49126435634E+01 -0.41612139170E+02  0.43400729199E+02  0.00000000000E+00 0. -1.
         11    1    3    3    0    0 -0.29536275343E+01 -0.81285126337E+01  0.13043679597E+02  0.15650374147E+02  0.51100000000E-03 0. -1.
        -11    1    3    3    0    0 -0.45980357544E+00  0.60251992549E+01  0.89053593510E+01  0.10761964078E+02  0.51100000000E-03 0.  1.
        -12    1    3    3    0    0 -0.78967016019E+01 -0.28093301846E+01  0.19663100222E+02  0.21374932576E+02  0.00000000000E+00 0.  1.
</event>
<event>
 7    1  0.2455451E-009  0.4778726E+02  0.7816164E-02  0.1312668E+00
        -11   -1    0    0    0    0  0.00000000000E+00  0.00000000000E+00  0.45593999997E+02  0.45594000000E+02  0.51100000000E-03 0. -1.
         11   -1    0    0    0    0 -0.00000000000E+00 -0.00000000000E+00 -0.45593999997E+02  0.45594000000E+02  0.51100000000E-03 0.  1.
    9900012    2    1    2    0    0  0.28316734050E+02  0.86705114326E+01 -0.31727098976E+02  0.47787262620E+02  0.19999961588E+02 0.  0.
         12    1    1    2    0    0 -0.28316734050E+02 -0.86705114326E+01  0.31727098976E+02  0.43400737380E+02  0.00000000000E+00 0. -1.
         11    1    3    3    0    0  0.88226393942E+01  0.18288877359E+01 -0.59104500524E+01  0.10775769871E+02  0.51100000000E-03 0. -1.
        -11    1    3    3    0    0  0.20972326462E+02  0.73920863901E+01 -0.27044415836E+02  0.35012595542E+02  0.51100000000E-03 0.  1.
        -12    1    3    3    0    0 -0.14782318065E+01 -0.55046269340E+00  0.12277669128E+01  0.19988972066E+01  0.00000000000E+00 0.  1.
</event>
<event>
 7    1  0.2455451E-009  0.4778727E+02  0.7816164E-02  0.1312668E+00
        -11   -1    0    0    0    0  0.00000000000E+00  0.00000000000E+00  0.45593999997E+02  0.45594000000E+02  0.51100000000E-03 0. -1.
         11   -1    0    0    0    0 -0.00000000000E+00 -0.00000000000E+00 -0.45593999997E+02  0.45594000000E+02  0.51100000000E-03 0.  1.
    9900012    2    1    2    0    0 -0.40283615000E+02 -0.14738744468E+02  0.66047809679E+01  0.47787270080E+02  0.19999995601E+02 0.  0.
         12    1    1    2    0    0  0.40283615000E+02  0.14738744468E+02 -0.66047809679E+01  0.43400729920E+02  0.00000000000E+00 0. -1.
         11    1    3    3    0    0 -0.87048110440E+01 -0.11611183190E+01  0.29796547732E+01  0.92736332627E+01  0.51100000000E-03 0.  1.
        -11    1    3    3    0    0 -0.10540885291E+02 -0.71753887153E+01  0.93240701577E+01  0.15796668968E+02  0.51100000000E-03 0. -1.
        -12    1    3    3    0    0 -0.21037918666E+02 -0.64022374336E+01 -0.56989439630E+01  0.22716967848E+02  0.00000000000E+00 0.  1.
</event>
<event>
 7    1  0.2455451E-009  0.4778727E+02  0.7816164E-02  0.1312668E+00
        -11   -1    0    0    0    0  0.00000000000E+00  0.00000000000E+00  0.45593999997E+02  0.45594000000E+02  0.51100000000E-03 0.  1.
         11   -1    0    0    0    0 -0.00000000000E+00 -0.00000000000E+00 -0.45593999997E+02  0.45594000000E+02  0.51100000000E-03 0. -1.
    9900012    2    1    2    0    0  0.25922868056E+02 -0.33620767355E+02  0.90151065358E+01  0.47787271531E+02  0.20000002218E+02 0.  0.
         12    1    1    2    0    0 -0.25922868056E+02  0.33620767355E+02 -0.90151065358E+01  0.43400728469E+02  0.00000000000E+00 0. -1.
         11    1    3    3    0    0  0.13863365380E+02 -0.22313433590E+02 -0.23734918505E+01  0.26376422844E+02  0.51100000000E-03 0. -1.
        -11    1    3    3    0    0  0.89783017056E+01 -0.95807812214E+01  0.48838238021E+01  0.14009032997E+02  0.51100000000E-03 0.  1.
         12    1    3    3    0    0  0.30812009702E+01 -0.17265525440E+01  0.65047745842E+01  0.74018156892E+01  0.00000000000E+00 0. -1.
</event>
<event>
 7    1  0.2455451E-009  0.4778727E+02  0.7816164E-02  0.1312668E+00
        -11   -1    0    0    0    0  0.00000000000E+00  0.00000000000E+00  0.45593999997E+02  0.45594000000E+02  0.51100000000E-03 0.  1.
         11   -1    0    0    0    0 -0.00000000000E+00 -0.00000000000E+00 -0.45593999997E+02  0.45594000000E+02  0.51100000000E-03 0. -1.
    9900012    2    1    2    0    0  0.69698797812E+01 -0.17359028844E+02  0.39162587406E+02  0.47787270065E+02  0.19999995532E+02 0.  0.
         12    1    1    2    0    0 -0.69698797812E+01  0.17359028844E+02 -0.39162587406E+02  0.43400729935E+02  0.00000000000E+00 0. -1.
         11    1    3    3    0    0  0.82670949793E+01 -0.78402803342E+01  0.83168338314E+01  0.14106189434E+02  0.51100000000E-03 0. -1.
        -11    1    3    3    0    0 -0.15004311487E+01 -0.11433603207E+02  0.27514812666E+02  0.29833596703E+02  0.51100000000E-03 0.  1.
         12    1    3    3    0    0  0.20321595056E+00  0.19148546970E+01  0.33309409086E+01  0.38474839272E+01  0.00000000000E+00 0. -1.
</event>
<event>
 7    1  0.2455451E-009  0.4778727E+02  0.7816164E-02  0.1312668E+00
        -11   -1    0    0    0    0  0.00000000000E+00  0.00000000000E+00  0.45593999997E+02  0.45594000000E+02  0.51100000000E-03 0.  1.
         11   -1    0    0    0    0 -0.00000000000E+00 -0.00000000000E+00 -0.45593999997E+02  0.45594000000E+02  0.51100000000E-03 0. -1.
    9900012    2    1    2    0    0  0.17903054306E+02  0.23102482379E+01  0.39468557921E+02  0.47787266541E+02  0.19999979467E+02 0.  0.
         12    1    1    2    0    0 -0.17903054306E+02 -0.23102482379E+01 -0.39468557921E+02  0.43400733459E+02  0.00000000000E+00 0. -1.
         11    1    3    3    0    0 -0.18957771121E+01  0.25713768738E+01  0.20032824231E+01  0.37708209470E+01  0.51100000000E-03 0. -1.
        -11    1    3    3    0    0  0.15305806639E+02 -0.94467555343E+00  0.36176559616E+02  0.39292538664E+02  0.51100000000E-03 0.  1.
         12    1    3    3    0    0  0.44930247796E+01  0.68354691745E+00  0.12887158817E+01  0.47239069299E+01  0.00000000000E+00 0. -1.
</event>
<event>
 7    1  0.2455451E-009  0.4778727E+02  0.7816164E-02  0.1312668E+00
        -11   -1    0    0    0    0  0.00000000000E+00  0.00000000000E+00  0.45593999997E+02  0.45594000000E+02  0.51100000000E-03 0.  1.
         11   -1    0    0    0    0 -0.00000000000E+00 -0.00000000000E+00 -0.45593999997E+02  0.45594000000E+02  0.51100000000E-03 0. -1.
    9900012    2    1    2    0    0  0.12613844382E+02  0.49704268554E+01  0.41228736960E+02  0.47787274608E+02  0.20000016249E+02 0.  0.
         12    1    1    2    0    0 -0.12613844382E+02 -0.49704268554E+01 -0.41228736960E+02  0.43400725392E+02  0.00000000000E+00 0. -1.
         11    1    3    3    0    0 -0.13616297713E+01  0.28841129155E+01  0.12881493295E+02  0.13270456387E+02  0.51100000000E-03 0. -1.
        -11    1    3    3    0    0  0.96916941716E+01  0.64494533334E+01  0.10594781077E+02  0.15740831317E+02  0.51100000000E-03 0.  1.
        -12    1    3    3    0    0  0.42837799815E+01 -0.43631393935E+01  0.17752462588E+02  0.18775986905E+02  0.00000000000E+00 0.  1.
</event>
<event>
 7    1  0.2455451E-009  0.4778727E+02  0.7816164E-02  0.1312668E+00
        -11   -1    0    0    0    0  0.00000000000E+00  0.00000000000E+00  0.45593999997E+02  0.45594000000E+02  0.51100000000E-03 0. -1.
         11   -1    0    0    0    0 -0.00000000000E+00 -0.00000000000E+00 -0.45593999997E+02  0.45594000000E+02  0.51100000000E-03 0.  1.
    9900012    2    1    2    0    0 -0.19036101861E+02  0.21425873604E+02 -0.32591137033E+02  0.47787269052E+02  0.19999990916E+02 0.  0.
         12    1    1    2    0    0  0.19036101861E+02 -0.21425873604E+02  0.32591137033E+02  0.43400730948E+02  0.00000000000E+00 0. -1.
         11    1    3    3    0    0 -0.15591522652E+01  0.96890598801E+01 -0.18636806104E+01  0.99891012021E+01  0.51100000000E-03 0. -1.
        -11    1    3    3    0    0 -0.13347997005E+02  0.84871661629E+01 -0.17628721736E+02  0.23684865291E+02  0.51100000000E-03 0.  1.
         12    1    3    3    0    0 -0.41289525909E+01  0.32496475606E+01 -0.13098734686E+02  0.14113302560E+02  0.00000000000E+00 0. -1.
</event>
<event>
 7    1  0.2455451E-009  0.4778726E+02  0.7816164E-02  0.1312668E+00
        -11   -1    0    0    0    0  0.00000000000E+00  0.00000000000E+00  0.45593999997E+02  0.45594000000E+02  0.51100000000E-03 0.  1.
         11   -1    0    0    0    0 -0.00000000000E+00 -0.00000000000E+00 -0.45593999997E+02  0.45594000000E+02  0.51100000000E-03 0. -1.
    9900012    2    1    2    0    0  0.15828150003E+02 -0.38331423809E+02  0.12798291175E+02  0.47787255297E+02  0.19999928200E+02 0.  0.
         12    1    1    2    0    0 -0.15828150003E+02  0.38331423809E+02 -0.12798291175E+02  0.43400744703E+02  0.00000000000E+00 0. -1.
         11    1    3    3    0    0 -0.68513884058E+00 -0.31702183014E+01 -0.64504738859E+00  0.33069299515E+01  0.51100000000E-03 0. -1.
        -11    1    3    3    0    0 -0.16199258707E+00 -0.19500809534E+02  0.54621183736E+01  0.20251976483E+02  0.51100000000E-03 0.  1.
        -12    1    3    3    0    0  0.16675281431E+02 -0.15660395974E+02  0.79812201905E+01  0.24228348862E+02  0.00000000000E+00 0.  1.
</event>
<event>
 7    1  0.2455451E-009  0.4778727E+02  0.7816164E-02  0.1312668E+00
        -11   -1    0    0    0    0  0.00000000000E+00  0.00000000000E+00  0.45593999997E+02  0.45594000000E+02  0.51100000000E-03 0.  1.
         11   -1    0    0    0    0 -0.00000000000E+00 -0.00000000000E+00 -0.45593999997E+02  0.45594000000E+02  0.51100000000E-03 0. -1.
    9900012    2    1    2    0    0  0.29169087576E+02  0.31967629870E+02  0.32952200946E+01  0.47787268382E+02  0.19999987859E+02 0.  0.
         12    1    1    2    0    0 -0.29169087576E+02 -0.31967629870E+02 -0.32952200946E+01  0.43400731618E+02  0.00000000000E+00 0. -1.
         11    1    3    3    0    0  0.47965217572E+01  0.61527798368E+01 -0.25752895886E+01  0.82155606877E+01  0.51100000000E-03 0. -1.
        -11    1    3    3    0    0  0.25736059797E+02  0.22779459798E+02  0.19431302348E+01  0.34424182168E+02  0.51100000000E-03 0.  1.
        -12    1    3    3    0    0 -0.13634939778E+01  0.30353902347E+01  0.39273794484E+01  0.51475255256E+01  0.00000000000E+00 0.  1.
</event>
<event>
 7    1  0.2455451E-009  0.4778727E+02  0.7816164E-02  0.1312668E+00
        -11   -1    0    0    0    0  0.00000000000E+00  0.00000000000E+00  0.45593999997E+02  0.45594000000E+02  0.51100000000E-03 0.  1.
         11   -1    0    0    0    0 -0.00000000000E+00 -0.00000000000E+00 -0.45593999997E+02  0.45594000000E+02  0.51100000000E-03 0. -1.
    9900012    2    1    2    0    0  0.24857500842E+02 -0.21355451066E+02  0.28454753637E+02  0.47787266793E+02  0.19999980618E+02 0.  0.
         12    1    1    2    0    0 -0.24857500842E+02  0.21355451066E+02 -0.28454753637E+02  0.43400733207E+02  0.00000000000E+00 0. -1.
         11    1    3    3    0    0  0.63228670036E+01 -0.95527959692E+01  0.18284239109E+02  0.21576560384E+02  0.51100000000E-03 0.  1.
        -11    1    3    3    0    0  0.65104904513E+01 -0.64280109093E+01 -0.64009865227E+00  0.91714522685E+01  0.51100000000E-03 0. -1.
        -12    1    3    3    0    0  0.12024143387E+02 -0.53746441878E+01  0.10810613180E+02  0.17039254141E+02  0.00000000000E+00 0.  1.
</event>
<event>
 7    1  0.2455451E-009  0.4778727E+02  0.7816164E-02  0.1312668E+00
        -11   -1    0    0    0    0  0.00000000000E+00  0.00000000000E+00  0.45593999997E+02  0.45594000000E+02  0.51100000000E-03 0.  1.
         11   -1    0    0    0    0 -0.00000000000E+00 -0.00000000000E+00 -0.45593999997E+02  0.45594000000E+02  0.51100000000E-03 0. -1.
    9900012    2    1    2    0    0 -0.31733799485E+01 -0.16432056258E+00  0.43284243935E+02  0.47787272880E+02  0.20000008370E+02 0.  0.
         12    1    1    2    0    0  0.31733799485E+01  0.16432056258E+00 -0.43284243935E+02  0.43400727120E+02  0.00000000000E+00 0. -1.
         11    1    3    3    0    0 -0.24566996473E+00 -0.51429878429E+00  0.32464722671E+01  0.32961249086E+01  0.51100000000E-03 0. -1.
        -11    1    3    3    0    0  0.76349832058E+01  0.16039475236E+01  0.24087691440E+02  0.25319606935E+02  0.51100000000E-03 0.  1.
        -12    1    3    3    0    0 -0.10562693190E+02 -0.12539693019E+01  0.15950080228E+02  0.19171541036E+02  0.00000000000E+00 0.  1.
</event>
<event>
 7    1  0.2455451E-009  0.4778727E+02  0.7816164E-02  0.1312668E+00
        -11   -1    0    0    0    0  0.00000000000E+00  0.00000000000E+00  0.45593999997E+02  0.45594000000E+02  0.51100000000E-03 0. -1.
         11   -1    0    0    0    0 -0.00000000000E+00 -0.00000000000E+00 -0.45593999997E+02  0.45594000000E+02  0.51100000000E-03 0.  1.
    9900012    2    1    2    0    0  0.35164808547E+02 -0.47108330343E+01 -0.24997354381E+02  0.47787269198E+02  0.19999991583E+02 0.  0.
         12    1    1    2    0    0 -0.35164808547E+02  0.47108330343E+01  0.24997354381E+02  0.43400730802E+02  0.00000000000E+00 0. -1.
         11    1    3    3    0    0  0.13414980467E+02  0.72679539290E+00 -0.25720570990E+00  0.13437116041E+02  0.51100000000E-03 0. -1.
        -11    1    3    3    0    0  0.11407206504E+02  0.12697831299E+01 -0.12714605802E+02  0.17128861911E+02  0.51100000000E-03 0.  1.
         12    1    3    3    0    0  0.10342621577E+02 -0.67074115571E+01 -0.12025542869E+02  0.17221291246E+02  0.00000000000E+00 0. -1.
</event>
<event>
 7    1  0.2455451E-009  0.4778727E+02  0.7816164E-02  0.1312668E+00
        -11   -1    0    0    0    0  0.00000000000E+00  0.00000000000E+00  0.45593999997E+02  0.45594000000E+02  0.51100000000E-03 0.  1.
         11   -1    0    0    0    0 -0.00000000000E+00 -0.00000000000E+00 -0.45593999997E+02  0.45594000000E+02  0.51100000000E-03 0. -1.
    9900012    2    1    2    0    0 -0.30401855609E+02 -0.53917840556E+01  0.30500477161E+02  0.47787271125E+02  0.20000000369E+02 0.  0.
         12    1    1    2    0    0  0.30401855609E+02  0.53917840556E+01 -0.30500477161E+02  0.43400728875E+02  0.00000000000E+00 0. -1.
         11    1    3    3    0    0 -0.75064273355E+01  0.70950788475E+00 -0.66226198397E+00  0.75689129984E+01  0.51100000000E-03 0. -1.
        -11    1    3    3    0    0 -0.12194457753E+02  0.10982150046E+01  0.18177134789E+02  0.21916183644E+02  0.51100000000E-03 0.  1.
         12    1    3    3    0    0 -0.10700970521E+02 -0.71995069449E+01  0.12985604356E+02  0.18302174483E+02  0.00000000000E+00 0. -1.
</event>
<event>
 7    1  0.2455451E-009  0.4778727E+02  0.7816164E-02  0.1312668E+00
        -11   -1    0    0    0    0  0.00000000000E+00  0.00000000000E+00  0.45593999997E+02  0.45594000000E+02  0.51100000000E-03 0.  1.
         11   -1    0    0    0    0 -0.00000000000E+00 -0.00000000000E+00 -0.45593999997E+02  0.45594000000E+02  0.51100000000E-03 0. -1.
    9900012    2    1    2    0    0  0.97188553879E+01 -0.52291863418E+00  0.42295316016E+02  0.47787270158E+02  0.19999995959E+02 0.  0.
         12    1    1    2    0    0 -0.97188553879E+01  0.52291863418E+00 -0.42295316016E+02  0.43400729842E+02  0.00000000000E+00 0. -1.
         11    1    3    3    0    0  0.53300851497E+01 -0.21650253987E+00  0.17322920180E+01  0.56087001123E+01  0.51100000000E-03 0. -1.
        -11    1    3    3    0    0 -0.32961059726E+01  0.97547554877E+00  0.82078205538E+01  0.88985496365E+01  0.51100000000E-03 0.  1.
         12    1    3    3    0    0  0.76848762108E+01 -0.12818916431E+01  0.32355203444E+02  0.33280020409E+02  0.00000000000E+00 0. -1.
</event>
<event>
 7    1  0.2455451E-009  0.4778728E+02  0.7816164E-02  0.1312668E+00
        -11   -1    0    0    0    0  0.00000000000E+00  0.00000000000E+00  0.45593999997E+02  0.45594000000E+02  0.51100000000E-03 0.  1.
         11   -1    0    0    0    0 -0.00000000000E+00 -0.00000000000E+00 -0.45593999997E+02  0.45594000000E+02  0.51100000000E-03 0. -1.
    9900012    2    1    2    0    0 -0.15197936345E+02 -0.58605428890E+01  0.40228087984E+02  0.47787282322E+02  0.20000051420E+02 0.  0.
         12    1    1    2    0    0  0.15197936345E+02  0.58605428890E+01 -0.40228087984E+02  0.43400717678E+02  0.00000000000E+00 0. -1.
         11    1    3    3    0    0 -0.22086564563E+01 -0.41934527599E+01  0.17341611728E+01  0.50468331284E+01  0.51100000000E-03 0. -1.
        -11    1    3    3    0    0 -0.95011023344E+01 -0.39654923367E+01  0.36833375268E+02  0.38245177591E+02  0.51100000000E-03 0.  1.
        -12    1    3    3    0    0 -0.34881775545E+01  0.22984022076E+01  0.16605515432E+01  0.44952716033E+01  0.00000000000E+00 0.  1.
</event>
<event>
 7    1  0.2455451E-009  0.4778727E+02  0.7816164E-02  0.1312668E+00
        -11   -1    0    0    0    0  0.00000000000E+00  0.00000000000E+00  0.45593999997E+02  0.45594000000E+02  0.51100000000E-03 0. -1.
         11   -1    0    0    0    0 -0.00000000000E+00 -0.00000000000E+00 -0.45593999997E+02  0.45594000000E+02  0.51100000000E-03 0.  1.
    9900012    2    1    2    0    0  0.28454049266E+02  0.72739294916E+01 -0.31954344962E+02  0.47787272681E+02  0.20000007461E+02 0.  0.
         12    1    1    2    0    0 -0.28454049266E+02 -0.72739294916E+01  0.31954344962E+02  0.43400727319E+02  0.00000000000E+00 0. -1.
         11    1    3    3    0    0  0.47259360531E+01  0.61483292633E+01 -0.14413259858E+02  0.16366993747E+02  0.51100000000E-03 0. -1.
        -11    1    3    3    0    0  0.19528300700E+02  0.12528642317E+01 -0.82752358314E+01  0.21246263797E+02  0.51100000000E-03 0.  1.
         12    1    3    3    0    0  0.41998125132E+01 -0.12726400344E+00 -0.92658492724E+01  0.10174015137E+02  0.00000000000E+00 0. -1.
</event>
<event>
 7    1  0.2455451E-009  0.4778727E+02  0.7816164E-02  0.1312668E+00
        -11   -1    0    0    0    0  0.00000000000E+00  0.00000000000E+00  0.45593999997E+02  0.45594000000E+02  0.51100000000E-03 0.  1.
         11   -1    0    0    0    0 -0.00000000000E+00 -0.00000000000E+00 -0.45593999997E+02  0.45594000000E+02  0.51100000000E-03 0. -1.
    9900012    2    1    2    0    0 -0.25928820662E+02  0.34114828572E+02  0.68918565929E+01  0.47787274698E+02  0.20000016659E+02 0.  0.
         12    1    1    2    0    0  0.25928820662E+02 -0.34114828572E+02 -0.68918565929E+01  0.43400725302E+02  0.00000000000E+00 0. -1.
         11    1    3    3    0    0 -0.12027293692E+02  0.59586684443E+01  0.31392270102E+01  0.13784638902E+02  0.51100000000E-03 0. -1.
        -11    1    3    3    0    0 -0.39752839169E+01  0.16930321617E+02 -0.28584412568E+01  0.17624112997E+02  0.51100000000E-03 0.  1.
        -12    1    3    3    0    0 -0.99262430535E+01  0.11225838511E+02  0.66110708395E+01  0.16378522799E+02  0.00000000000E+00 0.  1.
</event>
<event>
 7    1  0.2455451E-009  0.4778727E+02  0.7816164E-02  0.1312668E+00
        -11   -1    0    0    0    0  0.00000000000E+00  0.00000000000E+00  0.45593999997E+02  0.45594000000E+02  0.51100000000E-03 0. -1.
         11   -1    0    0    0    0 -0.00000000000E+00 -0.00000000000E+00 -0.45593999997E+02  0.45594000000E+02  0.51100000000E-03 0.  1.
    9900012    2    1    2    0    0 -0.36740491623E+00  0.25246879154E+02 -0.35299907838E+02  0.47787269744E+02  0.19999994071E+02 0.  0.
         12    1    1    2    0    0  0.36740491623E+00 -0.25246879154E+02  0.35299907838E+02  0.43400730256E+02  0.00000000000E+00 0. -1.
         11    1    3    3    0    0  0.18665591250E+01  0.89882307996E+01 -0.31167262188E+01  0.96946541175E+01  0.51100000000E-03 0. -1.
        -11    1    3    3    0    0  0.33416904708E+01  0.53909950953E+01 -0.19406538064E+02  0.20416744188E+02  0.51100000000E-03 0.  1.
        -12    1    3    3    0    0 -0.55756545121E+01  0.10867653259E+02 -0.12776643554E+02  0.17675871439E+02  0.00000000000E+00 0.  1.
</event>
<event>
 7    1  0.2455451E-009  0.4778727E+02  0.7816164E-02  0.1312668E+00
        -11   -1    0    0    0    0  0.00000000000E+00  0.00000000000E+00  0.45593999997E+02  0.45594000000E+02  0.51100000000E-03 0.  1.
         11   -1    0    0    0    0 -0.00000000000E+00 -0.00000000000E+00 -0.45593999997E+02  0.45594000000E+02  0.51100000000E-03 0. -1.
    9900012    2    1    2    0    0  0.17974809038E+02 -0.29222904362E+02  0.26581034694E+02  0.47787270690E+02  0.19999998382E+02 0.  0.
         12    1    1    2    0    0 -0.17974809038E+02  0.29222904362E+02 -0.26581034694E+02  0.43400729310E+02  0.00000000000E+00 0. -1.
         11    1    3    3    0    0  0.26778350876E+01 -0.91202037983E+01  0.16232977090E+02  0.18811126057E+02  0.51100000000E-03 0. -1.
        -11    1    3    3    0    0  0.91086469374E+01 -0.16812458661E+02  0.10786276506E+02  0.21953814620E+02  0.51100000000E-03 0.  1.
         12    1    3    3    0    0  0.61883270132E+01 -0.32902419027E+01 -0.43821890186E+00  0.70223300127E+01  0.00000000000E+00 0. -1.
</event>
<event>
 7    1  0.2455451E-009  0.4778727E+02  0.7816164E-02  0.1312668E+00
        -11   -1    0    0    0    0  0.00000000000E+00  0.00000000000E+00  0.45593999997E+02  0.45594000000E+02  0.51100000000E-03 0.  1.
         11   -1    0    0    0    0 -0.00000000000E+00 -0.00000000000E+00 -0.45593999997E+02  0.45594000000E+02  0.51100000000E-03 0. -1.
    9900012    2    1    2    0    0 -0.26672466826E+02  0.17250688992E+02  0.29573917126E+02  0.47787270381E+02  0.19999996973E+02 0.  0.
         12    1    1    2    0    0  0.26672466826E+02 -0.17250688992E+02 -0.29573917126E+02  0.43400729619E+02  0.00000000000E+00 0. -1.
         11    1    3    3    0    0 -0.13087089418E+00  0.34850558355E+01  0.44688216586E+01  0.56686072932E+01  0.51100000000E-03 0. -1.
        -11    1    3    3    0    0 -0.10826486189E+02  0.12882149423E+02  0.72682057279E+01  0.18330013413E+02  0.51100000000E-03 0.  1.
        -12    1    3    3    0    0 -0.15715109743E+02  0.88348373394E+00  0.17836889740E+02  0.23788649675E+02  0.00000000000E+00 0.  1.
</event>
<event>
 7    1  0.2455451E-009  0.4778727E+02  0.7816164E-02  0.1312668E+00
        -11   -1    0    0    0    0  0.00000000000E+00  0.00000000000E+00  0.45593999997E+02  0.45594000000E+02  0.51100000000E-03 0.  1.
         11   -1    0    0    0    0 -0.00000000000E+00 -0.00000000000E+00 -0.45593999997E+02  0.45594000000E+02  0.51100000000E-03 0. -1.
    9900012    2    1    2    0    0  0.40725980607E+02  0.13354631470E+02  0.68316580385E+01  0.47787271554E+02  0.20000002322E+02 0.  0.
         12    1    1    2    0    0 -0.40725980607E+02 -0.13354631470E+02 -0.68316580385E+01  0.43400728446E+02  0.00000000000E+00 0. -1.
         11    1    3    3    0    0 -0.15637495353E+01 -0.36187185581E-01 -0.52132856039E+00  0.16487588818E+01  0.51100000000E-03 0. -1.
        -11    1    3    3    0    0  0.39117865433E+02  0.10613342801E+02  0.39568953173E+01  0.40724777007E+02  0.51100000000E-03 0.  1.
        -12    1    3    3    0    0  0.31718647097E+01  0.27774758544E+01  0.33960912816E+01  0.54137356651E+01  0.00000000000E+00 0.  1.
</event>
<event>
 7    1  0.2455451E-009  0.4778728E+02  0.7816164E-02  0.1312668E+00
        -11   -1    0    0    0    0  0.00000000000E+00  0.00000000000E+00  0.45593999997E+02  0.45594000000E+02  0.51100000000E-03 0.  1.
         11   -1    0    0    0    0 -0.00000000000E+00 -0.00000000000E+00 -0.45593999997E+02  0.45594000000E+02  0.51100000000E-03 0. -1.
    9900012    2    1    2    0    0  0.37000987698E+02  0.22157290325E+02 -0.48584190843E+01  0.47787276030E+02  0.20000022731E+02 0.  0.
         12    1    1    2    0    0 -0.37000987698E+02 -0.22157290325E+02  0.48584190843E+01  0.43400723970E+02  0.00000000000E+00 0. -1.
         11    1    3    3    0    0  0.13028615317E+02  0.15241947659E+02  0.86807884870E+00  0.20070260254E+02  0.51100000000E-03 0.  1.
        -11    1    3    3    0    0  0.15914673239E+01  0.17879861741E+01  0.23720589419E+01  0.33699149376E+01  0.51100000000E-03 0. -1.
         12    1    3    3    0    0  0.22380905057E+02  0.51273564911E+01 -0.80985568750E+01  0.24347100838E+02  0.00000000000E+00 0. -1.
</event>
<event>
 7    1  0.2455451E-009  0.4778727E+02  0.7816164E-02  0.1312668E+00
        -11   -1    0    0    0    0  0.00000000000E+00  0.00000000000E+00  0.45593999997E+02  0.45594000000E+02  0.51100000000E-03 0.  1.
         11   -1    0    0    0    0 -0.00000000000E+00 -0.00000000000E+00 -0.45593999997E+02  0.45594000000E+02  0.51100000000E-03 0. -1.
    9900012    2    1    2    0    0  0.39845286104E+02 -0.15262078464E+02 -0.79401197349E+01  0.47787269993E+02  0.19999995207E+02 0.  0.
         12    1    1    2    0    0 -0.39845286104E+02  0.15262078464E+02  0.79401197349E+01  0.43400730007E+02  0.00000000000E+00 0. -1.
         11    1    3    3    0    0  0.70450557153E+01 -0.56062273815E+01  0.24632292119E+01  0.93343502129E+01  0.51100000000E-03 0. -1.
        -11    1    3    3    0    0  0.33465458879E+02 -0.69069572909E+01 -0.99383484768E+01  0.35586707739E+02  0.51100000000E-03 0.  1.
        -12    1    3    3    0    0 -0.66522849126E+00 -0.27488937921E+01 -0.46500047005E+00  0.28662120408E+01  0.00000000000E+00 0.  1.
</event>
<event>
 7    1  0.2455451E-009  0.4778724E+02  0.7816164E-02  0.1312668E+00
        -11   -1    0    0    0    0  0.00000000000E+00  0.00000000000E+00  0.45593999997E+02  0.45594000000E+02  0.51100000000E-03 0.  1.
         11   -1    0    0    0    0 -0.00000000000E+00 -0.00000000000E+00 -0.45593999997E+02  0.45594000000E+02  0.51100000000E-03 0. -1.
    9900012    2    1    2    0    0 -0.17826698267E+02  0.38942205302E+02  0.70241925556E+01  0.47787241873E+02  0.19999866996E+02 0.  0.
         12    1    1    2    0    0  0.17826698267E+02 -0.38942205302E+02 -0.70241925556E+01  0.43400758127E+02  0.00000000000E+00 0. -1.
         11    1    3    3    0    0 -0.90034479093E-01 -0.44730985565E+00  0.20682182739E+01  0.21179517001E+01  0.51100000000E-03 0. -1.
        -11    1    3    3    0    0 -0.19693285155E+02  0.35705259754E+02  0.25549446681E+01  0.40856074173E+02  0.51100000000E-03 0.  1.
        -12    1    3    3    0    0  0.19566213672E+01  0.36842554043E+01  0.24010296136E+01  0.48132160002E+01  0.00000000000E+00 0.  1.
</event>
<event>
 7    1  0.2455451E-009  0.4778727E+02  0.7816164E-02  0.1312668E+00
        -11   -1    0    0    0    0  0.00000000000E+00  0.00000000000E+00  0.45593999997E+02  0.45594000000E+02  0.51100000000E-03 0.  1.
         11   -1    0    0    0    0 -0.00000000000E+00 -0.00000000000E+00 -0.45593999997E+02  0.45594000000E+02  0.51100000000E-03 0. -1.
    9900012    2    1    2    0    0 -0.47677510740E+01  0.24424848534E+02  0.35557256915E+02  0.47787271947E+02  0.20000004114E+02 0.  0.
         12    1    1    2    0    0  0.47677510740E+01 -0.24424848534E+02 -0.35557256915E+02  0.43400728053E+02  0.00000000000E+00 0. -1.
         11    1    3    3    0    0 -0.68806780988E+01  0.93491418724E+01  0.13590901401E+02  0.17873521925E+02  0.51100000000E-03 0. -1.
        -11    1    3    3    0    0  0.68938958296E+01  0.57962456368E+01  0.14537484989E+02  0.17101483364E+02  0.51100000000E-03 0.  1.
         12    1    3    3    0    0 -0.47809688048E+01  0.92794610246E+01  0.74288705258E+01  0.12812266658E+02  0.00000000000E+00 0. -1.
</event>
<event>
 7    1  0.2455451E-009  0.4778727E+02  0.7816164E-02  0.1312668E+00
        -11   -1    0    0    0    0  0.00000000000E+00  0.00000000000E+00  0.45593999997E+02  0.45594000000E+02  0.51100000000E-03 0. -1.
         11   -1    0    0    0    0 -0.00000000000E+00 -0.00000000000E+00 -0.45593999997E+02  0.45594000000E+02  0.51100000000E-03 0.  1.
    9900012    2    1    2    0    0  0.34119014397E+01 -0.42111298577E+02 -0.99308143015E+01  0.47787267150E+02  0.19999982243E+02 0.  0.
         12    1    1    2    0    0 -0.34119014397E+01  0.42111298577E+02  0.99308143015E+01  0.43400732850E+02  0.00000000000E+00 0. -1.
         11    1    3    3    0    0 -0.27419902550E+01 -0.19321698573E+02  0.40317143781E+01  0.19927399916E+02  0.51100000000E-03 0. -1.
        -11    1    3    3    0    0  0.63802844690E+01 -0.17293721860E+02 -0.92859063030E+01  0.20639983086E+02  0.51100000000E-03 0.  1.
        -12    1    3    3    0    0 -0.22639277424E+00 -0.54958781430E+01 -0.46766223765E+01  0.72198841475E+01  0.00000000000E+00 0.  1.
</event>
<event>
 7    1  0.2455451E-009  0.4778726E+02  0.7816164E-02  0.1312668E+00
        -11   -1    0    0    0    0  0.00000000000E+00  0.00000000000E+00  0.45593999997E+02  0.45594000000E+02  0.51100000000E-03 0.  1.
         11   -1    0    0    0    0 -0.00000000000E+00 -0.00000000000E+00 -0.45593999997E+02  0.45594000000E+02  0.51100000000E-03 0. -1.
    9900012    2    1    2    0    0 -0.19145919170E+02 -0.15369601476E+02  0.35788728412E+02  0.47787263234E+02  0.19999964391E+02 0.  0.
         12    1    1    2    0    0  0.19145919170E+02  0.15369601476E+02 -0.35788728412E+02  0.43400736766E+02  0.00000000000E+00 0. -1.
         11    1    3    3    0    0 -0.31705485785E+01  0.31702121905E+00  0.11864585821E+02  0.12285002145E+02  0.51100000000E-03 0. -1.
        -11    1    3    3    0    0 -0.16712633446E+02 -0.13083061495E+02  0.24814786930E+02  0.32653518423E+02  0.51100000000E-03 0.  1.
        -12    1    3    3    0    0  0.73726285413E+00 -0.26035612008E+01 -0.89064433816E+00  0.28487426664E+01  0.00000000000E+00 0.  1.
</event>
<event>
 7    1  0.2455451E-009  0.4778727E+02  0.7816164E-02  0.1312668E+00
        -11   -1    0    0    0    0  0.00000000000E+00  0.00000000000E+00  0.45593999997E+02  0.45594000000E+02  0.51100000000E-03 0.  1.
         11   -1    0    0    0    0 -0.00000000000E+00 -0.00000000000E+00 -0.45593999997E+02  0.45594000000E+02  0.51100000000E-03 0. -1.
    9900012    2    1    2    0    0 -0.33892101272E+02 -0.26225491027E+02  0.68682305664E+01  0.47787268447E+02  0.19999988156E+02 0.  0.
         12    1    1    2    0    0  0.33892101272E+02  0.26225491027E+02 -0.68682305664E+01  0.43400731553E+02  0.00000000000E+00 0. -1.
         11    1    3    3    0    0 -0.13310150774E+02 -0.10593901945E+02 -0.49983428107E+01  0.17730603576E+02  0.51100000000E-03 0. -1.
        -11    1    3    3    0    0 -0.17958481729E+02 -0.88724711596E+01  0.10711479716E+02  0.22714832345E+02  0.51100000000E-03 0.  1.
        -12    1    3    3    0    0 -0.26234687696E+01 -0.67591179230E+01  0.11550936609E+01  0.73418325265E+01  0.00000000000E+00 0.  1.
</event>
<event>
 7    1  0.2455451E-009  0.4778727E+02  0.7816164E-02  0.1312668E+00
        -11   -1    0    0    0    0  0.00000000000E+00  0.00000000000E+00  0.45593999997E+02  0.45594000000E+02  0.51100000000E-03 0.  1.
         11   -1    0    0    0    0 -0.00000000000E+00 -0.00000000000E+00 -0.45593999997E+02  0.45594000000E+02  0.51100000000E-03 0. -1.
    9900012    2    1    2    0    0  0.23366545956E+02  0.98108894490E+01  0.35233141069E+02  0.47787271305E+02  0.20000001186E+02 0.  0.
         12    1    1    2    0    0 -0.23366545956E+02 -0.98108894490E+01 -0.35233141069E+02  0.43400728695E+02  0.00000000000E+00 0. -1.
         11    1    3    3    0    0  0.17025934846E+02  0.14130878191E+02  0.25749810892E+02  0.33950212621E+02  0.51100000000E-03 0. -1.
        -11    1    3    3    0    0  0.37760252420E+01  0.77090931034E+00  0.60783767852E+01  0.71971753068E+01  0.51100000000E-03 0.  1.
         12    1    3    3    0    0  0.25645858673E+01 -0.50908980520E+01  0.34049533925E+01  0.66398833764E+01  0.00000000000E+00 0. -1.
</event>
<event>
 7    1  0.2455451E-009  0.4778730E+02  0.7816164E-02  0.1312668E+00
        -11   -1    0    0    0    0  0.00000000000E+00  0.00000000000E+00  0.45593999997E+02  0.45594000000E+02  0.51100000000E-03 0. -1.
         11   -1    0    0    0    0 -0.00000000000E+00 -0.00000000000E+00 -0.45593999997E+02  0.45594000000E+02  0.51100000000E-03 0.  1.
    9900012    2    1    2    0    0 -0.33626254066E+02  0.11737926809E+02 -0.24801543472E+02  0.47787303613E+02  0.20000148494E+02 0.  0.
         12    1    1    2    0    0  0.33626254066E+02 -0.11737926809E+02  0.24801543472E+02  0.43400696387E+02  0.00000000000E+00 0. -1.
         11    1    3    3    0    0 -0.11700864059E+02  0.15449592862E+01 -0.60567566931E+01  0.13265798914E+02  0.51100000000E-03 0. -1.
        -11    1    3    3    0    0 -0.19651752327E+02  0.77103614078E+01 -0.21529726429E+02  0.30152448706E+02  0.51100000000E-03 0.  1.
        -12    1    3    3    0    0 -0.22736376798E+01  0.24826061148E+01  0.27849396507E+01  0.43690559940E+01  0.00000000000E+00 0.  1.
</event>
<event>
 7    1  0.2455451E-009  0.4778729E+02  0.7816164E-02  0.1312668E+00
        -11   -1    0    0    0    0  0.00000000000E+00  0.00000000000E+00  0.45593999997E+02  0.45594000000E+02  0.51100000000E-03 0.  1.
         11   -1    0    0    0    0 -0.00000000000E+00 -0.00000000000E+00 -0.45593999997E+02  0.45594000000E+02  0.51100000000E-03 0. -1.
    9900012    2    1    2    0    0  0.31654173341E+02  0.25983715234E+02 -0.14369474710E+02  0.47787286288E+02  0.20000069502E+02 0.  0.
         12    1    1    2    0    0 -0.31654173341E+02 -0.25983715234E+02  0.14369474710E+02  0.43400713712E+02  0.00000000000E+00 0. -1.
         11    1    3    3    0    0  0.10811711429E+02  0.54857308810E+01 -0.79949117863E+01  0.14522567337E+02  0.51100000000E-03 0. -1.
        -11    1    3    3    0    0  0.40250464102E+01  0.72421302574E+01  0.43034359832E+01  0.93364345867E+01  0.51100000000E-03 0.  1.
        -12    1    3    3    0    0  0.16817415501E+02  0.13255854096E+02 -0.10677998907E+02  0.23928284364E+02  0.00000000000E+00 0.  1.
</event>
<event>
 7    1  0.2455451E-009  0.4778727E+02  0.7816164E-02  0.1312668E+00
        -11   -1    0    0    0    0  0.00000000000E+00  0.00000000000E+00  0.45593999997E+02  0.45594000000E+02  0.51100000000E-03 0.  1.
         11   -1    0    0    0    0 -0.00000000000E+00 -0.00000000000E+00 -0.45593999997E+02  0.45594000000E+02  0.51100000000E-03 0. -1.
    9900012    2    1    2    0    0 -0.31763560467E+02 -0.19610351761E+02 -0.22138964252E+02  0.47787269500E+02  0.19999992960E+02 0.  0.
         12    1    1    2    0    0  0.31763560467E+02  0.19610351761E+02  0.22138964252E+02  0.43400730500E+02  0.00000000000E+00 0. -1.
         11    1    3    3    0    0  0.50088315521E+00 -0.50227534075E+00  0.45691569818E+00  0.84376339661E+00  0.51100000000E-03 0. -1.
        -11    1    3    3    0    0 -0.24576715025E+02 -0.11158258534E+02 -0.71058155857E+01  0.27910827116E+02  0.51100000000E-03 0.  1.
        -12    1    3    3    0    0 -0.76877285973E+01 -0.79498178867E+01 -0.15490064365E+02  0.19032678988E+02  0.00000000000E+00 0.  1.
</event>
<event>
 7    1  0.2455451E-009  0.4778727E+02  0.7816164E-02  0.1312668E+00
        -11   -1    0    0    0    0  0.00000000000E+00  0.00000000000E+00  0.45593999997E+02  0.45594000000E+02  0.51100000000E-03 0. -1.
         11   -1    0    0    0    0 -0.00000000000E+00 -0.00000000000E+00 -0.45593999997E+02  0.45594000000E+02  0.51100000000E-03 0.  1.
    9900012    2    1    2    0    0  0.10421682149E+02 -0.41404187406E+02  0.77913562097E+01  0.47787269302E+02  0.19999992056E+02 0.  0.
         12    1    1    2    0    0 -0.10421682149E+02  0.41404187406E+02 -0.77913562097E+01  0.43400730698E+02  0.00000000000E+00 0. -1.
         11    1    3    3    0    0  0.94528250890E+00 -0.37128081032E+00 -0.45704059534E+00  0.11136852467E+01  0.51100000000E-03 0. -1.
        -11    1    3    3    0    0  0.14176079039E+01 -0.34298851442E+01 -0.47963205751E+01  0.60645210521E+01  0.51100000000E-03 0.  1.
        -12    1    3    3    0    0  0.80587917358E+01 -0.37603021451E+02  0.13044717380E+02  0.40609063003E+02  0.00000000000E+00 0.  1.
</event>
<event>
 7    1  0.2455451E-009  0.4778727E+02  0.7816164E-02  0.1312668E+00
        -11   -1    0    0    0    0  0.00000000000E+00  0.00000000000E+00  0.45593999997E+02  0.45594000000E+02  0.51100000000E-03 0.  1.
         11   -1    0    0    0    0 -0.00000000000E+00 -0.00000000000E+00 -0.45593999997E+02  0.45594000000E+02  0.51100000000E-03 0. -1.
    9900012    2    1    2    0    0  0.25048926970E+01 -0.67578230654E+01  0.42798138060E+02  0.47787270957E+02  0.19999999603E+02 0.  0.
         12    1    1    2    0    0 -0.25048926970E+01  0.67578230654E+01 -0.42798138060E+02  0.43400729043E+02  0.00000000000E+00 0. -1.
         11    1    3    3    0    0 -0.48089094546E+01 -0.50270362321E+01  0.20227879155E+02  0.21390740959E+02  0.51100000000E-03 0. -1.
        -11    1    3    3    0    0 -0.84069924759E+00 -0.48671685555E+01  0.86844627366E+01  0.99907956768E+01  0.51100000000E-03 0.  1.
         12    1    3    3    0    0  0.81545013992E+01  0.31363817221E+01  0.13885796169E+02  0.16405734321E+02  0.00000000000E+00 0. -1.
</event>
<event>
 7    1  0.2455451E-009  0.4778727E+02  0.7816164E-02  0.1312668E+00
        -11   -1    0    0    0    0  0.00000000000E+00  0.00000000000E+00  0.45593999997E+02  0.45594000000E+02  0.51100000000E-03 0.  1.
         11   -1    0    0    0    0 -0.00000000000E+00 -0.00000000000E+00 -0.45593999997E+02  0.45594000000E+02  0.51100000000E-03 0. -1.
    9900012    2    1    2    0    0 -0.29154340279E+02  0.94373954394E+01  0.30734076169E+02  0.47787269272E+02  0.19999991918E+02 0.  0.
         12    1    1    2    0    0  0.29154340279E+02 -0.94373954394E+01 -0.30734076169E+02  0.43400730728E+02  0.00000000000E+00 0. -1.
         11    1    3    3    0    0 -0.58906391773E+01  0.30825998338E+01  0.18581743570E+02  0.19735329894E+02  0.51100000000E-03 0. -1.
        -11    1    3    3    0    0 -0.21134186595E+02  0.75785010926E+01  0.12283404690E+02  0.25592372944E+02  0.51100000000E-03 0.  1.
         12    1    3    3    0    0 -0.21295145059E+01 -0.12237054871E+01 -0.13107209073E+00  0.24595664340E+01  0.00000000000E+00 0. -1.
</event>
<event>
 7    1  0.2455451E-009  0.4778727E+02  0.7816164E-02  0.1312668E+00
        -11   -1    0    0    0    0  0.00000000000E+00  0.00000000000E+00  0.45593999997E+02  0.45594000000E+02  0.51100000000E-03 0.  1.
         11   -1    0    0    0    0 -0.00000000000E+00 -0.00000000000E+00 -0.45593999997E+02  0.45594000000E+02  0.51100000000E-03 0. -1.
    9900012    2    1    2    0    0  0.30679327312E+01  0.32734467851E+02  0.28331354390E+02  0.47787271454E+02  0.20000001868E+02 0.  0.
         12    1    1    2    0    0 -0.30679327312E+01 -0.32734467851E+02 -0.28331354390E+02  0.43400728546E+02  0.00000000000E+00 0. -1.
         11    1    3    3    0    0 -0.28202930428E+01  0.17533609946E+01  0.10803500453E+02  0.11302386913E+02  0.51100000000E-03 0. -1.
        -11    1    3    3    0    0  0.33590590276E+01  0.15038556366E+02  0.55259070823E+01  0.16370006245E+02  0.51100000000E-03 0.  1.
         12    1    3    3    0    0  0.25291667464E+01  0.15942550491E+02  0.12001946854E+02  0.20114878297E+02  0.00000000000E+00 0. -1.
</event>
<event>
 7    1  0.2455451E-009  0.4778728E+02  0.7816164E-02  0.1312668E+00
        -11   -1    0    0    0    0  0.00000000000E+00  0.00000000000E+00  0.45593999997E+02  0.45594000000E+02  0.51100000000E-03 0. -1.
         11   -1    0    0    0    0 -0.00000000000E+00 -0.00000000000E+00 -0.45593999997E+02  0.45594000000E+02  0.51100000000E-03 0.  1.
    9900012    2    1    2    0    0 -0.28039679453E+02 -0.24012498781E+01 -0.33039869206E+02  0.47787279016E+02  0.20000036344E+02 0.  0.
         12    1    1    2    0    0  0.28039679453E+02  0.24012498781E+01  0.33039869206E+02  0.43400720984E+02  0.00000000000E+00 0. -1.
         11    1    3    3    0    0 -0.11478319655E+01  0.11102547130E+01 -0.39478428905E+01  0.42585968931E+01  0.51100000000E-03 0. -1.
        -11    1    3    3    0    0  0.19217394866E+01 -0.18933441396E+01 -0.22002090438E+00  0.27067035568E+01  0.51100000000E-03 0.  1.
        -12    1    3    3    0    0 -0.28813586974E+02 -0.16181604515E+01 -0.28872005411E+02  0.40821978566E+02  0.00000000000E+00 0.  1.
</event>
<event>
 7    1  0.2455451E-009  0.4778727E+02  0.7816164E-02  0.1312668E+00
        -11   -1    0    0    0    0  0.00000000000E+00  0.00000000000E+00  0.45593999997E+02  0.45594000000E+02  0.51100000000E-03 0.  1.
         11   -1    0    0    0    0 -0.00000000000E+00 -0.00000000000E+00 -0.45593999997E+02  0.45594000000E+02  0.51100000000E-03 0. -1.
    9900012    2    1    2    0    0 -0.45061731106E+01 -0.19863337968E+02  0.38324477465E+02  0.47787270003E+02  0.19999995250E+02 0.  0.
         12    1    1    2    0    0  0.45061731106E+01  0.19863337968E+02 -0.38324477465E+02  0.43400729997E+02  0.00000000000E+00 0. -1.
         11    1    3    3    0    0 -0.37832688921E+01 -0.47975458098E+00  0.11711464269E+01  0.39893448312E+01  0.51100000000E-03 0. -1.
        -11    1    3    3    0    0  0.26596674850E+01 -0.99641908666E+01  0.29343447771E+02  0.31103004005E+02  0.51100000000E-03 0.  1.
        -12    1    3    3    0    0 -0.33825717035E+01 -0.94193925201E+01  0.78098832671E+01  0.12694921166E+02  0.00000000000E+00 0.  1.
</event>
<event>
 7    1  0.2455451E-009  0.4778727E+02  0.7816164E-02  0.1312668E+00
        -11   -1    0    0    0    0  0.00000000000E+00  0.00000000000E+00  0.45593999997E+02  0.45594000000E+02  0.51100000000E-03 0.  1.
         11   -1    0    0    0    0 -0.00000000000E+00 -0.00000000000E+00 -0.45593999997E+02  0.45594000000E+02  0.51100000000E-03 0. -1.
    9900012    2    1    2    0    0 -0.81092591295E+01  0.16790543818E+02  0.39191082342E+02  0.47787269816E+02  0.19999994400E+02 0.  0.
         12    1    1    2    0    0  0.81092591295E+01 -0.16790543818E+02 -0.39191082342E+02  0.43400730184E+02  0.00000000000E+00 0. -1.
         11    1    3    3    0    0  0.65026520322E+00  0.16997965959E+01 -0.47696511468E+00  0.18813955681E+01  0.51100000000E-03 0. -1.
        -11    1    3    3    0    0 -0.68304671517E+01  0.95876661637E+01  0.38085845448E+02  0.39863645691E+02  0.51100000000E-03 0.  1.
        -12    1    3    3    0    0 -0.19290571810E+01  0.55030810585E+01  0.15822020086E+01  0.60422285574E+01  0.00000000000E+00 0.  1.
</event>
<event>
 7    1  0.2455451E-009  0.4778727E+02  0.7816164E-02  0.1312668E+00
        -11   -1    0    0    0    0  0.00000000000E+00  0.00000000000E+00  0.45593999997E+02  0.45594000000E+02  0.51100000000E-03 0.  1.
         11   -1    0    0    0    0 -0.00000000000E+00 -0.00000000000E+00 -0.45593999997E+02  0.45594000000E+02  0.51100000000E-03 0. -1.
    9900012    2    1    2    0    0 -0.34969728124E+02  0.19534439664E+02  0.16707688892E+02  0.47787273207E+02  0.20000009861E+02 0.  0.
         12    1    1    2    0    0  0.34969728124E+02 -0.19534439664E+02 -0.16707688892E+02  0.43400726793E+02  0.00000000000E+00 0. -1.
         11    1    3    3    0    0 -0.57094971037E+01  0.57018762856E+01 -0.25611140918E+01  0.84657578519E+01  0.51100000000E-03 0. -1.
        -11    1    3    3    0    0  0.39442559622E+00  0.22485730406E+01  0.23174227392E+01  0.32530140920E+01  0.51100000000E-03 0.  1.
         12    1    3    3    0    0 -0.29654656616E+02  0.11583990338E+02  0.16951380245E+02  0.36068501263E+02  0.00000000000E+00 0. -1.
</event>
<event>
 7    1  0.2455451E-009  0.4778726E+02  0.7816164E-02  0.1312668E+00
        -11   -1    0    0    0    0  0.00000000000E+00  0.00000000000E+00  0.45593999997E+02  0.45594000000E+02  0.51100000000E-03 0.  1.
         11   -1    0    0    0    0 -0.00000000000E+00 -0.00000000000E+00 -0.45593999997E+02  0.45594000000E+02  0.51100000000E-03 0. -1.
    9900012    2    1    2    0    0 -0.29200198664E+02 -0.82136289722E+01  0.31040435167E+02  0.47787263621E+02  0.19999966153E+02 0.  0.
         12    1    1    2    0    0  0.29200198664E+02  0.82136289722E+01 -0.31040435167E+02  0.43400736379E+02  0.00000000000E+00 0. -1.
         11    1    3    3    0    0 -0.36850096450E+01  0.27782157731E+01  0.42163291501E+01  0.62510167756E+01  0.51100000000E-03 0. -1.
        -11    1    3    3    0    0 -0.16865938361E+02 -0.14466574280E+02  0.16865717394E+02  0.27896130049E+02  0.51100000000E-03 0.  1.
        -12    1    3    3    0    0 -0.86492506576E+01  0.34747295346E+01  0.99583886224E+01  0.13640116797E+02  0.00000000000E+00 0.  1.
</event>
<event>
 7    1  0.2455451E-009  0.4778731E+02  0.7816164E-02  0.1312668E+00
        -11   -1    0    0    0    0  0.00000000000E+00  0.00000000000E+00  0.45593999997E+02  0.45594000000E+02  0.51100000000E-03 0. -1.
         11   -1    0    0    0    0 -0.00000000000E+00 -0.00000000000E+00 -0.45593999997E+02  0.45594000000E+02  0.51100000000E-03 0.  1.
    9900012    2    1    2    0    0  0.72826280297E+01 -0.77859764612E+01 -0.42070912254E+02  0.47787311545E+02  0.20000184656E+02 0.  0.
         12    1    1    2    0    0 -0.72826280297E+01  0.77859764612E+01  0.42070912254E+02  0.43400688455E+02  0.00000000000E+00 0. -1.
         11    1    3    3    0    0  0.72856187256E+01 -0.68101916611E+01 -0.32288813850E+02  0.33793881854E+02  0.51100000000E-03 0.  1.
        -11    1    3    3    0    0 -0.35178982762E+01 -0.19716513945E+01 -0.55666354187E+00  0.40709817075E+01  0.51100000000E-03 0. -1.
        -12    1    3    3    0    0  0.35149075802E+01  0.99586659434E+00 -0.92254348628E+01  0.99224479832E+01  0.00000000000E+00 0.  1.
</event>
<event>
 7    1  0.2455451E-009  0.4778727E+02  0.7816164E-02  0.1312668E+00
        -11   -1    0    0    0    0  0.00000000000E+00  0.00000000000E+00  0.45593999997E+02  0.45594000000E+02  0.51100000000E-03 0.  1.
         11   -1    0    0    0    0 -0.00000000000E+00 -0.00000000000E+00 -0.45593999997E+02  0.45594000000E+02  0.51100000000E-03 0. -1.
    9900012    2    1    2    0    0 -0.24632532476E+02  0.30875766430E+02  0.17987455126E+02  0.47787272463E+02  0.20000006470E+02 0.  0.
         12    1    1    2    0    0  0.24632532476E+02 -0.30875766430E+02 -0.17987455126E+02  0.43400727537E+02  0.00000000000E+00 0. -1.
         11    1    3    3    0    0  0.22205860771E+01  0.78420120629E+01  0.17274099426E+01  0.83313925062E+01  0.51100000000E-03 0.  1.
        -11    1    3    3    0    0 -0.13870514795E+02  0.88436497948E+01  0.51138526520E+01  0.17226514783E+02  0.51100000000E-03 0. -1.
         12    1    3    3    0    0 -0.12982603758E+02  0.14190104572E+02  0.11146192531E+02  0.22229365174E+02  0.00000000000E+00 0. -1.
</event>
<event>
 7    1  0.2455451E-009  0.4778727E+02  0.7816164E-02  0.1312668E+00
        -11   -1    0    0    0    0  0.00000000000E+00  0.00000000000E+00  0.45593999997E+02  0.45594000000E+02  0.51100000000E-03 0.  1.
         11   -1    0    0    0    0 -0.00000000000E+00 -0.00000000000E+00 -0.45593999997E+02  0.45594000000E+02  0.51100000000E-03 0. -1.
    9900012    2    1    2    0    0  0.36362318092E+02 -0.17217750170E+02  0.16277407060E+02  0.47787273295E+02  0.20000010259E+02 0.  0.
         12    1    1    2    0    0 -0.36362318092E+02  0.17217750170E+02 -0.16277407060E+02  0.43400726705E+02  0.00000000000E+00 0. -1.
         11    1    3    3    0    0  0.50624211642E+01  0.42891909127E+01  0.33099236019E+01  0.74149080399E+01  0.51100000000E-03 0. -1.
        -11    1    3    3    0    0  0.29776303417E+01 -0.61886046397E+00  0.10524464802E+01  0.32182160556E+01  0.51100000000E-03 0.  1.
         12    1    3    3    0    0  0.28322266587E+02 -0.20888080619E+02  0.11915036978E+02  0.37154149199E+02  0.00000000000E+00 0. -1.
</event>
<event>
 7    1  0.2455451E-009  0.4778728E+02  0.7816164E-02  0.1312668E+00
        -11   -1    0    0    0    0  0.00000000000E+00  0.00000000000E+00  0.45593999997E+02  0.45594000000E+02  0.51100000000E-03 0.  1.
         11   -1    0    0    0    0 -0.00000000000E+00 -0.00000000000E+00 -0.45593999997E+02  0.45594000000E+02  0.51100000000E-03 0. -1.
    9900012    2    1    2    0    0  0.31118552805E+02  0.10495266722E+01  0.30235029286E+02  0.47787276148E+02  0.20000023271E+02 0.  0.
         12    1    1    2    0    0 -0.31118552805E+02 -0.10495266722E+01 -0.30235029286E+02  0.43400723852E+02  0.00000000000E+00 0. -1.
         11    1    3    3    0    0  0.25465221506E+02 -0.32256181202E+01  0.23164965606E+02  0.34575970708E+02  0.51100000000E-03 0.  1.
        -11    1    3    3    0    0  0.75808709427E+00 -0.21845718404E+01 -0.20325685909E+00  0.23212849416E+01  0.51100000000E-03 0. -1.
         12    1    3    3    0    0  0.48952442052E+01  0.64597166328E+01  0.72733205390E+01  0.10890020499E+02  0.00000000000E+00 0. -1.
</event>
<event>
 7    1  0.2455451E-009  0.4778727E+02  0.7816164E-02  0.1312668E+00
        -11   -1    0    0    0    0  0.00000000000E+00  0.00000000000E+00  0.45593999997E+02  0.45594000000E+02  0.51100000000E-03 0. -1.
         11   -1    0    0    0    0 -0.00000000000E+00 -0.00000000000E+00 -0.45593999997E+02  0.45594000000E+02  0.51100000000E-03 0.  1.
    9900012    2    1    2    0    0 -0.41746694924E+02  0.49767685023E+01 -0.10773504628E+02  0.47787272313E+02  0.20000005783E+02 0.  0.
         12    1    1    2    0    0  0.41746694924E+02 -0.49767685023E+01  0.10773504628E+02  0.43400727687E+02  0.00000000000E+00 0. -1.
         11    1    3    3    0    0 -0.24016413655E+02  0.20725097725E+01 -0.93909672778E+00  0.24123957481E+02  0.51100000000E-03 0. -1.
        -11    1    3    3    0    0  0.86164480888E+00  0.27993120174E+01 -0.12342076884E+01  0.31783405146E+01  0.51100000000E-03 0.  1.
         12    1    3    3    0    0 -0.18591926078E+02  0.10494671237E+00 -0.86002002121E+01  0.20484974317E+02  0.00000000000E+00 0. -1.
</event>
<event>
 7    1  0.2455451E-009  0.4778727E+02  0.7816164E-02  0.1312668E+00
        -11   -1    0    0    0    0  0.00000000000E+00  0.00000000000E+00  0.45593999997E+02  0.45594000000E+02  0.51100000000E-03 0. -1.
         11   -1    0    0    0    0 -0.00000000000E+00 -0.00000000000E+00 -0.45593999997E+02  0.45594000000E+02  0.51100000000E-03 0.  1.
    9900012    2    1    2    0    0  0.25765098963E+02 -0.34867054695E+02 -0.20177790230E+01  0.47787271206E+02  0.20000000736E+02 0.  0.
         12    1    1    2    0    0 -0.25765098963E+02  0.34867054695E+02  0.20177790230E+01  0.43400728794E+02  0.00000000000E+00 0. -1.
         11    1    3    3    0    0  0.42003211096E+01 -0.13565685100E+02  0.46931547820E+01  0.14956477250E+02  0.51100000000E-03 0. -1.
        -11    1    3    3    0    0  0.14372116788E+02 -0.87448378337E+01  0.13131736576E+00  0.16824005891E+02  0.51100000000E-03 0.  1.
        -12    1    3    3    0    0  0.71926610650E+01 -0.12556531761E+02 -0.68422511708E+01  0.16006788065E+02  0.00000000000E+00 0.  1.
</event>
<event>
 7    1  0.2455451E-009  0.4778726E+02  0.7816164E-02  0.1312668E+00
        -11   -1    0    0    0    0  0.00000000000E+00  0.00000000000E+00  0.45593999997E+02  0.45594000000E+02  0.51100000000E-03 0.  1.
         11   -1    0    0    0    0 -0.00000000000E+00 -0.00000000000E+00 -0.45593999997E+02  0.45594000000E+02  0.51100000000E-03 0. -1.
    9900012    2    1    2    0    0 -0.39242976573E+01  0.37144096158E+02  0.22102955500E+02  0.47787255382E+02  0.19999928590E+02 0.  0.
         12    1    1    2    0    0  0.39242976573E+01 -0.37144096158E+02 -0.22102955500E+02  0.43400744618E+02  0.00000000000E+00 0. -1.
         11    1    3    3    0    0  0.48539004396E+00  0.55238307380E+01 -0.31491490571E+01  0.63769467272E+01  0.51100000000E-03 0. -1.
        -11    1    3    3    0    0  0.24394936994E+00  0.21148490030E+02  0.18568332167E+02  0.28144290746E+02  0.51100000000E-03 0.  1.
         12    1    3    3    0    0 -0.46536370712E+01  0.10471775390E+02  0.66837723907E+01  0.13266017910E+02  0.00000000000E+00 0. -1.
</event>
<event>
 7    1  0.2455451E-009  0.4778727E+02  0.7816164E-02  0.1312668E+00
        -11   -1    0    0    0    0  0.00000000000E+00  0.00000000000E+00  0.45593999997E+02  0.45594000000E+02  0.51100000000E-03 0. -1.
         11   -1    0    0    0    0 -0.00000000000E+00 -0.00000000000E+00 -0.45593999997E+02  0.45594000000E+02  0.51100000000E-03 0.  1.
    9900012    2    1    2    0    0  0.35234899279E+02  0.19995184337E+02 -0.15566564804E+02  0.47787268858E+02  0.19999990031E+02 0.  0.
         12    1    1    2    0    0 -0.35234899279E+02 -0.19995184337E+02  0.15566564804E+02  0.43400731142E+02  0.00000000000E+00 0. -1.
         11    1    3    3    0    0  0.15250369170E+02  0.97782432097E+01  0.22697930416E+01  0.18257594607E+02  0.51100000000E-03 0. -1.
        -11    1    3    3    0    0  0.68874766451E+01  0.15915586667E+01 -0.22475707477E+01  0.74176794251E+01  0.51100000000E-03 0.  1.
         12    1    3    3    0    0  0.13097053463E+02  0.86253824608E+01 -0.15588787098E+02  0.22111994826E+02  0.00000000000E+00 0. -1.
</event>
<event>
 7    1  0.2455451E-009  0.4778727E+02  0.7816164E-02  0.1312668E+00
        -11   -1    0    0    0    0  0.00000000000E+00  0.00000000000E+00  0.45593999997E+02  0.45594000000E+02  0.51100000000E-03 0.  1.
         11   -1    0    0    0    0 -0.00000000000E+00 -0.00000000000E+00 -0.45593999997E+02  0.45594000000E+02  0.51100000000E-03 0. -1.
    9900012    2    1    2    0    0  0.10221285866E+02  0.11408655443E+02  0.40607773750E+02  0.47787269676E+02  0.19999993759E+02 0.  0.
         12    1    1    2    0    0 -0.10221285866E+02 -0.11408655443E+02 -0.40607773750E+02  0.43400730324E+02  0.00000000000E+00 0. -1.
         11    1    3    3    0    0 -0.29135521071E+01 -0.16780485796E+01  0.19755095126E+01  0.38996501141E+01  0.51100000000E-03 0. -1.
        -11    1    3    3    0    0  0.11137661929E+02  0.84645179319E+01  0.18845018475E+02  0.23469774150E+02  0.51100000000E-03 0.  1.
        -12    1    3    3    0    0  0.19971760442E+01  0.46221860909E+01  0.19787245762E+02  0.20417845412E+02  0.00000000000E+00 0.  1.
</event>
<event>
 7    1  0.2455451E-009  0.4778727E+02  0.7816164E-02  0.1312668E+00
        -11   -1    0    0    0    0  0.00000000000E+00  0.00000000000E+00  0.45593999997E+02  0.45594000000E+02  0.51100000000E-03 0. -1.
         11   -1    0    0    0    0 -0.00000000000E+00 -0.00000000000E+00 -0.45593999997E+02  0.45594000000E+02  0.51100000000E-03 0.  1.
    9900012    2    1    2    0    0  0.25461249600E+02  0.33549505210E+02 -0.10477532129E+02  0.47787271774E+02  0.20000003327E+02 0.  0.
         12    1    1    2    0    0 -0.25461249600E+02 -0.33549505210E+02  0.10477532129E+02  0.43400728226E+02  0.00000000000E+00 0. -1.
         11    1    3    3    0    0  0.53053319210E+01  0.19112526160E+02 -0.54585910974E+00  0.19842710638E+02  0.51100000000E-03 0. -1.
        -11    1    3    3    0    0  0.18033458470E+02  0.15046317307E+02 -0.10402460998E+02  0.25686737511E+02  0.51100000000E-03 0.  1.
         12    1    3    3    0    0  0.21224592085E+01 -0.60933825676E+00  0.47078797871E+00  0.22578236255E+01  0.00000000000E+00 0. -1.
</event>
<event>
 7    1  0.2455451E-009  0.4778727E+02  0.7816164E-02  0.1312668E+00
        -11   -1    0    0    0    0  0.00000000000E+00  0.00000000000E+00  0.45593999997E+02  0.45594000000E+02  0.51100000000E-03 0.  1.
         11   -1    0    0    0    0 -0.00000000000E+00 -0.00000000000E+00 -0.45593999997E+02  0.45594000000E+02  0.51100000000E-03 0. -1.
    9900012    2    1    2    0    0  0.30852988844E+02 -0.13984317020E+02  0.27132182969E+02  0.47787269640E+02  0.19999993595E+02 0.  0.
         12    1    1    2    0    0 -0.30852988844E+02  0.13984317020E+02 -0.27132182969E+02  0.43400730360E+02  0.00000000000E+00 0. -1.
         11    1    3    3    0    0  0.20620151516E+00  0.17392737474E+01  0.32770753430E+01  0.37157523192E+01  0.51100000000E-03 0. -1.
        -11    1    3    3    0    0  0.17713646988E+02 -0.46135516588E+01  0.57138960020E+01  0.19175681378E+02  0.51100000000E-03 0.  1.
        -12    1    3    3    0    0  0.12933140341E+02 -0.11110039109E+02  0.18141211625E+02  0.24895835943E+02  0.00000000000E+00 0.  1.
</event>
<event>
 7    1  0.2455451E-009  0.4778727E+02  0.7816164E-02  0.1312668E+00
        -11   -1    0    0    0    0  0.00000000000E+00  0.00000000000E+00  0.45593999997E+02  0.45594000000E+02  0.51100000000E-03 0.  1.
         11   -1    0    0    0    0 -0.00000000000E+00 -0.00000000000E+00 -0.45593999997E+02  0.45594000000E+02  0.51100000000E-03 0. -1.
    9900012    2    1    2    0    0  0.23603443703E+02  0.20746752323E+02  0.29934475332E+02  0.47787273048E+02  0.20000009134E+02 0.  0.
         12    1    1    2    0    0 -0.23603443703E+02 -0.20746752323E+02 -0.29934475332E+02  0.43400726952E+02  0.00000000000E+00 0. -1.
         11    1    3    3    0    0  0.21238643444E+01 -0.20004112055E+01 -0.75512562742E+00  0.30137451317E+01  0.51100000000E-03 0. -1.
        -11    1    3    3    0    0 -0.12152712886E+00  0.38479761279E+01  0.28686175117E+01  0.48011098522E+01  0.51100000000E-03 0.  1.
         12    1    3    3    0    0  0.21601106487E+02  0.18899187401E+02  0.27820983447E+02  0.39972418064E+02  0.00000000000E+00 0. -1.
</event>
<event>
 7    1  0.2455451E-009  0.4778727E+02  0.7816164E-02  0.1312668E+00
        -11   -1    0    0    0    0  0.00000000000E+00  0.00000000000E+00  0.45593999997E+02  0.45594000000E+02  0.51100000000E-03 0.  1.
         11   -1    0    0    0    0 -0.00000000000E+00 -0.00000000000E+00 -0.45593999997E+02  0.45594000000E+02  0.51100000000E-03 0. -1.
    9900012    2    1    2    0    0 -0.16793669996E+02 -0.11142479365E+02  0.38437498103E+02  0.47787268914E+02  0.19999990288E+02 0.  0.
         12    1    1    2    0    0  0.16793669996E+02  0.11142479365E+02 -0.38437498103E+02  0.43400731086E+02  0.00000000000E+00 0. -1.
         11    1    3    3    0    0 -0.38428903817E+00  0.71809921027E+00 -0.11629306885E+01  0.14197720197E+01  0.51100000000E-03 0. -1.
        -11    1    3    3    0    0 -0.16355401063E+02 -0.93607468908E+01  0.39613071002E+02  0.43867050514E+02  0.51100000000E-03 0.  1.
         12    1    3    3    0    0 -0.53979895035E-01 -0.24998316842E+01 -0.12642210446E-01  0.25004463810E+01  0.00000000000E+00 0. -1.
</event>
<event>
 7    1  0.2455451E-009  0.4778727E+02  0.7816164E-02  0.1312668E+00
        -11   -1    0    0    0    0  0.00000000000E+00  0.00000000000E+00  0.45593999997E+02  0.45594000000E+02  0.51100000000E-03 0.  1.
         11   -1    0    0    0    0 -0.00000000000E+00 -0.00000000000E+00 -0.45593999997E+02  0.45594000000E+02  0.51100000000E-03 0. -1.
    9900012    2    1    2    0    0 -0.73873612083E+01  0.31931206376E+02  0.28450806066E+02  0.47787269453E+02  0.19999992742E+02 0.  0.
         12    1    1    2    0    0  0.73873612083E+01 -0.31931206376E+02 -0.28450806066E+02  0.43400730547E+02  0.00000000000E+00 0. -1.
         11    1    3    3    0    0  0.85978335889E+00 -0.21688668852E+01  0.16968334585E+01  0.28848665545E+01  0.51100000000E-03 0. -1.
        -11    1    3    3    0    0 -0.96243229785E+01  0.31885843642E+02  0.23653719119E+02  0.40851353050E+02  0.51100000000E-03 0.  1.
        -12    1    3    3    0    0  0.13771784113E+01  0.22142296188E+01  0.31002534883E+01  0.40510498483E+01  0.00000000000E+00 0.  1.
</event>
<event>
 7    1  0.2455451E-009  0.4778727E+02  0.7816164E-02  0.1312668E+00
        -11   -1    0    0    0    0  0.00000000000E+00  0.00000000000E+00  0.45593999997E+02  0.45594000000E+02  0.51100000000E-03 0.  1.
         11   -1    0    0    0    0 -0.00000000000E+00 -0.00000000000E+00 -0.45593999997E+02  0.45594000000E+02  0.51100000000E-03 0. -1.
    9900012    2    1    2    0    0 -0.36105859757E+02 -0.22327241353E+02  0.90268711824E+01  0.47787271682E+02  0.20000002905E+02 0.  0.
         12    1    1    2    0    0  0.36105859757E+02  0.22327241353E+02 -0.90268711824E+01  0.43400728318E+02  0.00000000000E+00 0. -1.
         11    1    3    3    0    0 -0.77413593895E+01 -0.26935052263E+01 -0.58228308859E+01  0.10054301338E+02  0.51100000000E-03 0. -1.
        -11    1    3    3    0    0 -0.24695359437E+02 -0.15498010943E+02  0.12684891948E+02  0.31795528065E+02  0.51100000000E-03 0.  1.
         12    1    3    3    0    0 -0.36691409297E+01 -0.41357251842E+01  0.21648101203E+01  0.59374422791E+01  0.00000000000E+00 0. -1.
</event>
<event>
 7    1  0.2455451E-009  0.4778727E+02  0.7816164E-02  0.1312668E+00
        -11   -1    0    0    0    0  0.00000000000E+00  0.00000000000E+00  0.45593999997E+02  0.45594000000E+02  0.51100000000E-03 0. -1.
         11   -1    0    0    0    0 -0.00000000000E+00 -0.00000000000E+00 -0.45593999997E+02  0.45594000000E+02  0.51100000000E-03 0.  1.
    9900012    2    1    2    0    0  0.10378717053E+02  0.27149933143E+02 -0.32230208245E+02  0.47787274651E+02  0.20000016442E+02 0.  0.
         12    1    1    2    0    0 -0.10378717053E+02 -0.27149933143E+02  0.32230208245E+02  0.43400725349E+02  0.00000000000E+00 0. -1.
         11    1    3    3    0    0 -0.15205594923E+00  0.78386321570E+01 -0.53643266246E+01  0.94996460724E+01  0.51100000000E-03 0. -1.
        -11    1    3    3    0    0  0.14301191515E+02  0.16020844688E+02 -0.24973847276E+02  0.32937586300E+02  0.51100000000E-03 0.  1.
        -12    1    3    3    0    0 -0.37704185133E+01  0.32904562985E+01 -0.18920343447E+01  0.53500422783E+01  0.00000000000E+00 0.  1.
</event>
<event>
 7    1  0.2455451E-009  0.4778726E+02  0.7816164E-02  0.1312668E+00
        -11   -1    0    0    0    0  0.00000000000E+00  0.00000000000E+00  0.45593999997E+02  0.45594000000E+02  0.51100000000E-03 0. -1.
         11   -1    0    0    0    0 -0.00000000000E+00 -0.00000000000E+00 -0.45593999997E+02  0.45594000000E+02  0.51100000000E-03 0.  1.
    9900012    2    1    2    0    0 -0.22991593749E+01  0.14515882480E+02 -0.40836588732E+02  0.47787263171E+02  0.19999964104E+02 0.  0.
         12    1    1    2    0    0  0.22991593749E+01 -0.14515882480E+02  0.40836588732E+02  0.43400736829E+02  0.00000000000E+00 0. -1.
         11    1    3    3    0    0  0.41976414541E+01 -0.20001007192E+01 -0.76649922506E+01  0.89650824384E+01  0.51100000000E-03 0. -1.
        -11    1    3    3    0    0 -0.18807231702E+01  0.11405032466E+02 -0.12461844393E+02  0.16997336589E+02  0.51100000000E-03 0.  1.
         12    1    3    3    0    0 -0.46160776588E+01  0.51109507335E+01 -0.20709752088E+02  0.21824844144E+02  0.00000000000E+00 0. -1.
</event>
<event>
 7    1  0.2455451E-009  0.4778727E+02  0.7816164E-02  0.1312668E+00
        -11   -1    0    0    0    0  0.00000000000E+00  0.00000000000E+00  0.45593999997E+02  0.45594000000E+02  0.51100000000E-03 0.  1.
         11   -1    0    0    0    0 -0.00000000000E+00 -0.00000000000E+00 -0.45593999997E+02  0.45594000000E+02  0.51100000000E-03 0. -1.
    9900012    2    1    2    0    0  0.64875725060E+01 -0.14421273791E+02  0.40417342067E+02  0.47787271037E+02  0.19999999964E+02 0.  0.
         12    1    1    2    0    0 -0.64875725060E+01  0.14421273791E+02 -0.40417342067E+02  0.43400728963E+02  0.00000000000E+00 0. -1.
         11    1    3    3    0    0  0.10738359337E+02 -0.10306415854E+02  0.18488433461E+02  0.23735137267E+02  0.51100000000E-03 0. -1.
        -11    1    3    3    0    0 -0.65253036994E+00 -0.31741186750E+01  0.19116721864E+02  0.19389427024E+02  0.51100000000E-03 0.  1.
        -12    1    3    3    0    0 -0.35982564606E+01 -0.94073926229E+00  0.28121867425E+01  0.46627067451E+01  0.00000000000E+00 0.  1.
</event>
<event>
 7    1  0.2455451E-009  0.4778727E+02  0.7816164E-02  0.1312668E+00
        -11   -1    0    0    0    0  0.00000000000E+00  0.00000000000E+00  0.45593999997E+02  0.45594000000E+02  0.51100000000E-03 0.  1.
         11   -1    0    0    0    0 -0.00000000000E+00 -0.00000000000E+00 -0.45593999997E+02  0.45594000000E+02  0.51100000000E-03 0. -1.
    9900012    2    1    2    0    0  0.27539292856E+01  0.56589242726E+01  0.42942005867E+02  0.47787269380E+02  0.19999992412E+02 0.  0.
         12    1    1    2    0    0 -0.27539292856E+01 -0.56589242726E+01 -0.42942005867E+02  0.43400730620E+02  0.00000000000E+00 0. -1.
         11    1    3    3    0    0  0.88482580701E+01  0.94027984190E+01  0.21270438344E+02  0.24882440326E+02  0.51100000000E-03 0. -1.
        -11    1    3    3    0    0 -0.40562171033E+01 -0.17257125110E+01  0.10891630928E+02  0.11749834271E+02  0.51100000000E-03 0.  1.
         12    1    3    3    0    0 -0.20381116812E+01 -0.20181616354E+01  0.10779936595E+02  0.11154994783E+02  0.00000000000E+00 0. -1.
</event>
<event>
 7    1  0.2455451E-009  0.4778727E+02  0.7816164E-02  0.1312668E+00
        -11   -1    0    0    0    0  0.00000000000E+00  0.00000000000E+00  0.45593999997E+02  0.45594000000E+02  0.51100000000E-03 0. -1.
         11   -1    0    0    0    0 -0.00000000000E+00 -0.00000000000E+00 -0.45593999997E+02  0.45594000000E+02  0.51100000000E-03 0.  1.
    9900012    2    1    2    0    0  0.29222822445E+02 -0.29244697421E+02  0.13205971703E+02  0.47787269966E+02  0.19999995083E+02 0.  0.
         12    1    1    2    0    0 -0.29222822445E+02  0.29244697421E+02 -0.13205971703E+02  0.43400730034E+02  0.00000000000E+00 0. -1.
         11    1    3    3    0    0  0.13827040640E+02 -0.78285332420E+01  0.52465671390E+01  0.16733184174E+02  0.51100000000E-03 0. -1.
        -11    1    3    3    0    0  0.11738123334E+02 -0.17215127714E+02 -0.59659260104E+00  0.20844665615E+02  0.51100000000E-03 0.  1.
        -12    1    3    3    0    0  0.36576584708E+01 -0.42010364640E+01  0.85559971651E+01  0.10209420177E+02  0.00000000000E+00 0.  1.
</event>
<event>
 7    1  0.2455451E-009  0.4778727E+02  0.7816164E-02  0.1312668E+00
        -11   -1    0    0    0    0  0.00000000000E+00  0.00000000000E+00  0.45593999997E+02  0.45594000000E+02  0.51100000000E-03 0.  1.
         11   -1    0    0    0    0 -0.00000000000E+00 -0.00000000000E+00 -0.45593999997E+02  0.45594000000E+02  0.51100000000E-03 0. -1.
    9900012    2    1    2    0    0  0.10344575420E+02 -0.35856471913E+02  0.22156859824E+02  0.47787271251E+02  0.20000000942E+02 0.  0.
         12    1    1    2    0    0 -0.10344575420E+02  0.35856471913E+02 -0.22156859824E+02  0.43400728749E+02  0.00000000000E+00 0. -1.
         11    1    3    3    0    0 -0.86219815356E+00 -0.21218558051E+02  0.11486966334E+02  0.24143756693E+02  0.51100000000E-03 0. -1.
        -11    1    3    3    0    0  0.98527715335E+01 -0.12578807715E+02  0.12731707748E+02  0.20430366929E+02  0.51100000000E-03 0.  1.
         12    1    3    3    0    0  0.13540020402E+01 -0.20591061466E+01 -0.20618142582E+01  0.32131476286E+01  0.00000000000E+00 0. -1.
</event>
<event>
 7    1  0.2455451E-009  0.4778727E+02  0.7816164E-02  0.1312668E+00
        -11   -1    0    0    0    0  0.00000000000E+00  0.00000000000E+00  0.45593999997E+02  0.45594000000E+02  0.51100000000E-03 0.  1.
         11   -1    0    0    0    0 -0.00000000000E+00 -0.00000000000E+00 -0.45593999997E+02  0.45594000000E+02  0.51100000000E-03 0. -1.
    9900012    2    1    2    0    0 -0.14280963484E+02  0.17528071423E+00  0.40983488593E+02  0.47787274446E+02  0.20000015507E+02 0.  0.
         12    1    1    2    0    0  0.14280963484E+02 -0.17528071423E+00 -0.40983488593E+02  0.43400725554E+02  0.00000000000E+00 0. -1.
         11    1    3    3    0    0 -0.98814112674E+01  0.65592907871E+00  0.15419237827E+02  0.18325540293E+02  0.51100000000E-03 0. -1.
        -11    1    3    3    0    0 -0.94262069573E+01 -0.62457909217E+00  0.14466671123E+02  0.17277964298E+02  0.51100000000E-03 0.  1.
         12    1    3    3    0    0  0.50266547405E+01  0.14393072768E+00  0.11097579644E+02  0.12183769855E+02  0.00000000000E+00 0. -1.
</event>
<event>
 7    1  0.2455451E-009  0.4778727E+02  0.7816164E-02  0.1312668E+00
        -11   -1    0    0    0    0  0.00000000000E+00  0.00000000000E+00  0.45593999997E+02  0.45594000000E+02  0.51100000000E-03 0.  1.
         11   -1    0    0    0    0 -0.00000000000E+00 -0.00000000000E+00 -0.45593999997E+02  0.45594000000E+02  0.51100000000E-03 0. -1.
    9900012    2    1    2    0    0  0.31753482996E+02 -0.13412462238E+02  0.26371296792E+02  0.47787272815E+02  0.20000008074E+02 0.  0.
         12    1    1    2    0    0 -0.31753482996E+02  0.13412462238E+02 -0.26371296792E+02  0.43400727185E+02  0.00000000000E+00 0. -1.
         11    1    3    3    0    0  0.10960996903E+02 -0.34652525953E+01  0.23101351428E+01  0.11725534243E+02  0.51100000000E-03 0. -1.
        -11    1    3    3    0    0  0.15948938394E+02 -0.21628904283E+01  0.20867240617E+02  0.26353148998E+02  0.51100000000E-03 0.  1.
        -12    1    3    3    0    0  0.48435476993E+01 -0.77843192147E+01  0.31939210324E+01  0.97085895738E+01  0.00000000000E+00 0.  1.
</event>
<event>
 7    1  0.2455451E-009  0.4778726E+02  0.7816164E-02  0.1312668E+00
        -11   -1    0    0    0    0  0.00000000000E+00  0.00000000000E+00  0.45593999997E+02  0.45594000000E+02  0.51100000000E-03 0. -1.
         11   -1    0    0    0    0 -0.00000000000E+00 -0.00000000000E+00 -0.45593999997E+02  0.45594000000E+02  0.51100000000E-03 0.  1.
    9900012    2    1    2    0    0 -0.42414947403E+02  0.89934932212E+01  0.19271335173E+01  0.47787256606E+02  0.19999934171E+02 0.  0.
         12    1    1    2    0    0  0.42414947403E+02 -0.89934932212E+01 -0.19271335173E+01  0.43400743394E+02  0.00000000000E+00 0. -1.
         11    1    3    3    0    0 -0.81401147959E+01 -0.24535223511E+00 -0.71278157873E+01  0.10822542435E+02  0.51100000000E-03 0. -1.
        -11    1    3    3    0    0 -0.27088265034E+02  0.86545438480E+01  0.56593804326E+01  0.28994892979E+02  0.51100000000E-03 0.  1.
         12    1    3    3    0    0 -0.71865675737E+01  0.58430160828E+00  0.33955688720E+01  0.79698211915E+01  0.00000000000E+00 0. -1.
</event>
<event>
 7    1  0.2455451E-009  0.4778727E+02  0.7816164E-02  0.1312668E+00
        -11   -1    0    0    0    0  0.00000000000E+00  0.00000000000E+00  0.45593999997E+02  0.45594000000E+02  0.51100000000E-03 0. -1.
         11   -1    0    0    0    0 -0.00000000000E+00 -0.00000000000E+00 -0.45593999997E+02  0.45594000000E+02  0.51100000000E-03 0.  1.
    9900012    2    1    2    0    0  0.35250722070E+02 -0.12996635254E+02 -0.21727806023E+02  0.47787268566E+02  0.19999988701E+02 0.  0.
         12    1    1    2    0    0 -0.35250722070E+02  0.12996635254E+02  0.21727806023E+02  0.43400731434E+02  0.00000000000E+00 0. -1.
         11    1    3    3    0    0 -0.35447369695E+00 -0.37951224240E+00  0.62332823626E+00  0.81130727546E+00  0.51100000000E-03 0. -1.
        -11    1    3    3    0    0  0.17440124440E+02  0.25163570343E+01 -0.10738067327E+02  0.20634826953E+02  0.51100000000E-03 0.  1.
        -12    1    3    3    0    0  0.18165071328E+02 -0.15133480046E+02 -0.11613066932E+02  0.26341134338E+02  0.00000000000E+00 0.  1.
</event>
<event>
 7    1  0.2455451E-009  0.4778727E+02  0.7816164E-02  0.1312668E+00
        -11   -1    0    0    0    0  0.00000000000E+00  0.00000000000E+00  0.45593999997E+02  0.45594000000E+02  0.51100000000E-03 0.  1.
         11   -1    0    0    0    0 -0.00000000000E+00 -0.00000000000E+00 -0.45593999997E+02  0.45594000000E+02  0.51100000000E-03 0. -1.
    9900012    2    1    2    0    0 -0.24664914635E+02  0.35560003065E+02 -0.32790065466E+01  0.47787265952E+02  0.19999976783E+02 0.  0.
         12    1    1    2    0    0  0.24664914635E+02 -0.35560003065E+02  0.32790065466E+01  0.43400734048E+02  0.00000000000E+00 0. -1.
         11    1    3    3    0    0 -0.11928716365E+02  0.79128486299E+01 -0.54187804268E+01  0.15305901774E+02  0.51100000000E-03 0. -1.
        -11    1    3    3    0    0 -0.97524863433E+01  0.20338985042E+02 -0.34366405259E+01  0.22816568558E+02  0.51100000000E-03 0.  1.
        -12    1    3    3    0    0 -0.29837119264E+01  0.73081693937E+01  0.55764144060E+01  0.96647956199E+01  0.00000000000E+00 0.  1.
</event>
<event>
 7    1  0.2455451E-009  0.4778726E+02  0.7816164E-02  0.1312668E+00
        -11   -1    0    0    0    0  0.00000000000E+00  0.00000000000E+00  0.45593999997E+02  0.45594000000E+02  0.51100000000E-03 0.  1.
         11   -1    0    0    0    0 -0.00000000000E+00 -0.00000000000E+00 -0.45593999997E+02  0.45594000000E+02  0.51100000000E-03 0. -1.
    9900012    2    1    2    0    0  0.33502746144E+02  0.59726156501E+01  0.26935435490E+02  0.47787264731E+02  0.19999971213E+02 0.  0.
         12    1    1    2    0    0 -0.33502746144E+02 -0.59726156501E+01 -0.26935435490E+02  0.43400735269E+02  0.00000000000E+00 0. -1.
         11    1    3    3    0    0 -0.21835837722E+01  0.15810636399E+01  0.17217356343E+01  0.31987769818E+01  0.51100000000E-03 0. -1.
        -11    1    3    3    0    0  0.27929930042E+02  0.41104658452E+01  0.15673513226E+02  0.32289873625E+02  0.51100000000E-03 0.  1.
         12    1    3    3    0    0  0.77563998743E+01  0.28108616500E+00  0.95401866292E+01  0.12298614124E+02  0.00000000000E+00 0. -1.
</event>
<event>
 7    1  0.2455451E-009  0.4778727E+02  0.7816164E-02  0.1312668E+00
        -11   -1    0    0    0    0  0.00000000000E+00  0.00000000000E+00  0.45593999997E+02  0.45594000000E+02  0.51100000000E-03 0. -1.
         11   -1    0    0    0    0 -0.00000000000E+00 -0.00000000000E+00 -0.45593999997E+02  0.45594000000E+02  0.51100000000E-03 0.  1.
    9900012    2    1    2    0    0 -0.10065436673E+02 -0.19147548062E+02 -0.37625543005E+02  0.47787273063E+02  0.20000009203E+02 0.  0.
         12    1    1    2    0    0  0.10065436673E+02  0.19147548062E+02  0.37625543005E+02  0.43400726937E+02  0.00000000000E+00 0. -1.
         11    1    3    3    0    0  0.46487477768E+01 -0.14991062951E+01 -0.10142292426E+02  0.11257187548E+02  0.51100000000E-03 0. -1.
        -11    1    3    3    0    0 -0.15032255534E+02 -0.14484777126E+02 -0.24198458803E+02  0.31958455588E+02  0.51100000000E-03 0.  1.
        -12    1    3    3    0    0  0.31807108455E+00 -0.31636646413E+01 -0.32847917758E+01  0.45716299269E+01  0.00000000000E+00 0.  1.
</event>
<event>
 7    1  0.2455451E-009  0.4778727E+02  0.7816164E-02  0.1312668E+00
        -11   -1    0    0    0    0  0.00000000000E+00  0.00000000000E+00  0.45593999997E+02  0.45594000000E+02  0.51100000000E-03 0.  1.
         11   -1    0    0    0    0 -0.00000000000E+00 -0.00000000000E+00 -0.45593999997E+02  0.45594000000E+02  0.51100000000E-03 0. -1.
    9900012    2    1    2    0    0  0.24062135278E+01 -0.20724608618E+01  0.43284387156E+02  0.47787272713E+02  0.20000007609E+02 0.  0.
         12    1    1    2    0    0 -0.24062135278E+01  0.20724608618E+01 -0.43284387156E+02  0.43400727287E+02  0.00000000000E+00 0. -1.
         11    1    3    3    0    0 -0.44775354491E+01  0.24783468555E+01  0.21203090471E+01  0.55395160032E+01  0.51100000000E-03 0. -1.
        -11    1    3    3    0    0  0.62371286599E+01 -0.26648554532E+01  0.23133993438E+02  0.24107776363E+02  0.51100000000E-03 0.  1.
        -12    1    3    3    0    0  0.64662031700E+00 -0.18859522640E+01  0.18030084671E+02  0.18139980347E+02  0.00000000000E+00 0.  1.
</event>
<event>
 7    1  0.2455451E-009  0.4778727E+02  0.7816164E-02  0.1312668E+00
        -11   -1    0    0    0    0  0.00000000000E+00  0.00000000000E+00  0.45593999997E+02  0.45594000000E+02  0.51100000000E-03 0.  1.
         11   -1    0    0    0    0 -0.00000000000E+00 -0.00000000000E+00 -0.45593999997E+02  0.45594000000E+02  0.51100000000E-03 0. -1.
    9900012    2    1    2    0    0 -0.30629934177E+02  0.13637786747E+02  0.27557964589E+02  0.47787268355E+02  0.19999987737E+02 0.  0.
         12    1    1    2    0    0  0.30629934177E+02 -0.13637786747E+02 -0.27557964589E+02  0.43400731645E+02  0.00000000000E+00 0. -1.
         11    1    3    3    0    0  0.18177346708E+01 -0.36160354021E+00  0.40322085877E+01  0.44377497462E+01  0.51100000000E-03 0. -1.
        -11    1    3    3    0    0 -0.54531549501E+01  0.24528350221E+01  0.84313009078E+01  0.10336350121E+02  0.51100000000E-03 0.  1.
         12    1    3    3    0    0 -0.26994513898E+02  0.11546555265E+02  0.15094455093E+02  0.33013168488E+02  0.00000000000E+00 0. -1.
</event>
<event>
 7    1  0.2455451E-009  0.4778727E+02  0.7816164E-02  0.1312668E+00
        -11   -1    0    0    0    0  0.00000000000E+00  0.00000000000E+00  0.45593999997E+02  0.45594000000E+02  0.51100000000E-03 0. -1.
         11   -1    0    0    0    0 -0.00000000000E+00 -0.00000000000E+00 -0.45593999997E+02  0.45594000000E+02  0.51100000000E-03 0.  1.
    9900012    2    1    2    0    0  0.40061402916E+02 -0.13865811629E+02  0.92976655234E+01  0.47787270514E+02  0.19999997582E+02 0.  0.
         12    1    1    2    0    0 -0.40061402916E+02  0.13865811629E+02 -0.92976655234E+01  0.43400729486E+02  0.00000000000E+00 0. -1.
         11    1    3    3    0    0  0.20300940216E+02  0.97025187486E+00  0.91605699389E+01  0.22293173938E+02  0.51100000000E-03 0. -1.
        -11    1    3    3    0    0  0.97666533641E+01 -0.10607468286E+02  0.17445101104E+01  0.14524090924E+02  0.51100000000E-03 0.  1.
         12    1    3    3    0    0  0.99938093354E+01 -0.42285952184E+01 -0.16074145259E+01  0.10970005652E+02  0.00000000000E+00 0. -1.
</event>
<event>
 7    1  0.2455451E-009  0.4778727E+02  0.7816164E-02  0.1312668E+00
        -11   -1    0    0    0    0  0.00000000000E+00  0.00000000000E+00  0.45593999997E+02  0.45594000000E+02  0.51100000000E-03 0.  1.
         11   -1    0    0    0    0 -0.00000000000E+00 -0.00000000000E+00 -0.45593999997E+02  0.45594000000E+02  0.51100000000E-03 0. -1.
    9900012    2    1    2    0    0  0.23392460338E+01 -0.32503531348E+02  0.28664813446E+02  0.47787272448E+02  0.20000006402E+02 0.  0.
         12    1    1    2    0    0 -0.23392460338E+01  0.32503531348E+02 -0.28664813446E+02  0.43400727552E+02  0.00000000000E+00 0. -1.
         11    1    3    3    0    0  0.47416581105E+00 -0.64095497014E+00  0.69251711870E+01  0.69709147693E+01  0.51100000000E-03 0. -1.
        -11    1    3    3    0    0 -0.36853171397E+01 -0.19490190151E+02  0.76453944279E+01  0.21257966289E+02  0.51100000000E-03 0.  1.
        -12    1    3    3    0    0  0.55503973624E+01 -0.12372386227E+02  0.14094247832E+02  0.19558391390E+02  0.00000000000E+00 0.  1.
</event>
<event>
 7    1  0.2455451E-009  0.4778727E+02  0.7816164E-02  0.1312668E+00
        -11   -1    0    0    0    0  0.00000000000E+00  0.00000000000E+00  0.45593999997E+02  0.45594000000E+02  0.51100000000E-03 0.  1.
         11   -1    0    0    0    0 -0.00000000000E+00 -0.00000000000E+00 -0.45593999997E+02  0.45594000000E+02  0.51100000000E-03 0. -1.
    9900012    2    1    2    0    0  0.31836817608E+02 -0.18509156194E+02  0.22966310241E+02  0.47787271614E+02  0.20000002595E+02 0.  0.
         12    1    1    2    0    0 -0.31836817608E+02  0.18509156194E+02 -0.22966310241E+02  0.43400728386E+02  0.00000000000E+00 0. -1.
         11    1    3    3    0    0  0.97238140264E+01 -0.28335689018E+00  0.10057575717E+02  0.13992415085E+02  0.51100000000E-03 0. -1.
        -11    1    3    3    0    0  0.87302069943E+00 -0.26640402328E+01  0.59234409343E+01  0.65533524449E+01  0.51100000000E-03 0.  1.
         12    1    3    3    0    0  0.21239982882E+02 -0.15561759071E+02  0.69852935894E+01  0.27241504084E+02  0.00000000000E+00 0. -1.
</event>
<event>
 7    1  0.2455451E-009  0.4778727E+02  0.7816164E-02  0.1312668E+00
        -11   -1    0    0    0    0  0.00000000000E+00  0.00000000000E+00  0.45593999997E+02  0.45594000000E+02  0.51100000000E-03 0.  1.
         11   -1    0    0    0    0 -0.00000000000E+00 -0.00000000000E+00 -0.45593999997E+02  0.45594000000E+02  0.51100000000E-03 0. -1.
    9900012    2    1    2    0    0 -0.35909777592E+02 -0.15719978083E+02  0.18627761502E+02  0.47787270326E+02  0.19999996725E+02 0.  0.
         12    1    1    2    0    0  0.35909777592E+02  0.15719978083E+02 -0.18627761502E+02  0.43400729674E+02  0.00000000000E+00 0. -1.
         11    1    3    3    0    0 -0.20999810228E+02 -0.15122728288E+01  0.44956844682E+01  0.21528822026E+02  0.51100000000E-03 0. -1.
        -11    1    3    3    0    0 -0.74393540327E+01 -0.10862534162E+02  0.11966510146E+02  0.17791458686E+02  0.51100000000E-03 0.  1.
        -12    1    3    3    0    0 -0.74706133310E+01 -0.33451710923E+01  0.21655668877E+01  0.84669896140E+01  0.00000000000E+00 0.  1.
</event>
<event>
 7    1  0.2455451E-009  0.4778727E+02  0.7816164E-02  0.1312668E+00
        -11   -1    0    0    0    0  0.00000000000E+00  0.00000000000E+00  0.45593999997E+02  0.45594000000E+02  0.51100000000E-03 0.  1.
         11   -1    0    0    0    0 -0.00000000000E+00 -0.00000000000E+00 -0.45593999997E+02  0.45594000000E+02  0.51100000000E-03 0. -1.
    9900012    2    1    2    0    0  0.23653249634E+02  0.24036054601E+02  0.27320598807E+02  0.47787271225E+02  0.20000000824E+02 0.  0.
         12    1    1    2    0    0 -0.23653249634E+02 -0.24036054601E+02 -0.27320598807E+02  0.43400728775E+02  0.00000000000E+00 0. -1.
         11    1    3    3    0    0  0.10113765389E+02  0.90374733628E+01  0.19316816801E+01  0.13700203265E+02  0.51100000000E-03 0. -1.
        -11    1    3    3    0    0  0.12616756096E+01  0.26540168438E+01  0.11341549835E+02  0.11716073731E+02  0.51100000000E-03 0.  1.
         12    1    3    3    0    0  0.12277808636E+02  0.12344564394E+02  0.14047367291E+02  0.22370994229E+02  0.00000000000E+00 0. -1.
</event>
<event>
 7    1  0.2455451E-009  0.4778727E+02  0.7816164E-02  0.1312668E+00
        -11   -1    0    0    0    0  0.00000000000E+00  0.00000000000E+00  0.45593999997E+02  0.45594000000E+02  0.51100000000E-03 0. -1.
         11   -1    0    0    0    0 -0.00000000000E+00 -0.00000000000E+00 -0.45593999997E+02  0.45594000000E+02  0.51100000000E-03 0.  1.
    9900012    2    1    2    0    0  0.12035442226E+02 -0.21262537482E+02 -0.35870265460E+02  0.47787270583E+02  0.19999997897E+02 0.  0.
         12    1    1    2    0    0 -0.12035442226E+02  0.21262537482E+02  0.35870265460E+02  0.43400729417E+02  0.00000000000E+00 0. -1.
         11    1    3    3    0    0  0.30123394612E+01  0.87902998634E+00 -0.21748967696E+00  0.31455023076E+01  0.51100000000E-03 0. -1.
        -11    1    3    3    0    0  0.10236964222E+02 -0.19020379509E+02 -0.22997304479E+02  0.31550693918E+02  0.51100000000E-03 0.  1.
        -12    1    3    3    0    0 -0.12138614577E+01 -0.31211879598E+01 -0.12655471303E+02  0.13091074357E+02  0.00000000000E+00 0.  1.
</event>
<event>
 7    1  0.2455451E-009  0.4778728E+02  0.7816164E-02  0.1312668E+00
        -11   -1    0    0    0    0  0.00000000000E+00  0.00000000000E+00  0.45593999997E+02  0.45594000000E+02  0.51100000000E-03 0.  1.
         11   -1    0    0    0    0 -0.00000000000E+00 -0.00000000000E+00 -0.45593999997E+02  0.45594000000E+02  0.51100000000E-03 0. -1.
    9900012    2    1    2    0    0  0.53299359882E+00  0.41771443310E+02  0.11767965537E+02  0.47787279139E+02  0.20000036905E+02 0.  0.
         12    1    1    2    0    0 -0.53299359882E+00 -0.41771443310E+02 -0.11767965537E+02  0.43400720861E+02  0.00000000000E+00 0. -1.
         11    1    3    3    0    0 -0.10137629000E+01  0.29882536590E+02  0.46037684431E+01  0.30252080795E+02  0.51100000000E-03 0. -1.
        -11    1    3    3    0    0  0.59321244131E+01  0.77042041600E+01  0.58003192251E+01  0.11322038914E+02  0.51100000000E-03 0.  1.
         12    1    3    3    0    0 -0.43853679144E+01  0.41847025602E+01  0.13638778690E+01  0.62131594300E+01  0.00000000000E+00 0. -1.
</event>
<event>
 7    1  0.2455451E-009  0.4778727E+02  0.7816164E-02  0.1312668E+00
        -11   -1    0    0    0    0  0.00000000000E+00  0.00000000000E+00  0.45593999997E+02  0.45594000000E+02  0.51100000000E-03 0.  1.
         11   -1    0    0    0    0 -0.00000000000E+00 -0.00000000000E+00 -0.45593999997E+02  0.45594000000E+02  0.51100000000E-03 0. -1.
    9900012    2    1    2    0    0 -0.17966088056E+02  0.32073721253E+02  0.23067714328E+02  0.47787270060E+02  0.19999995510E+02 0.  0.
         12    1    1    2    0    0  0.17966088056E+02 -0.32073721253E+02 -0.23067714328E+02  0.43400729940E+02  0.00000000000E+00 0. -1.
         11    1    3    3    0    0 -0.18958945191E+02  0.20561898970E+02  0.91508704408E+01  0.29427397474E+02  0.51100000000E-03 0. -1.
        -11    1    3    3    0    0 -0.42972993590E+00  0.72288789345E+01  0.10222415946E+02  0.12527535532E+02  0.51100000000E-03 0.  1.
         12    1    3    3    0    0  0.14225870710E+01  0.42829433491E+01  0.36944279411E+01  0.58323370545E+01  0.00000000000E+00 0. -1.
</event>
