<event>
 7    1  0.2405891E-015  0.9000766E+02  0.7816164E-02  0.1186339E+00
        -11   -1    0    0    0    0  0.00000000000E+00  0.00000000000E+00  0.45593999997E+02  0.45594000000E+02  0.51100000000E-03 0.  1.
         11   -1    0    0    0    0 -0.00000000000E+00 -0.00000000000E+00 -0.45593999997E+02  0.45594000000E+02  0.51100000000E-03 0. -1.
    9900012    2    1    2    0    0  0.13726470971E+00 -0.73022001869E-01 -0.11700506866E+01  0.90007664275E+02  0.89999924644E+02 0.  0.
        -12    1    1    2    0    0 -0.13726470971E+00  0.73022001869E-01  0.11700506866E+01  0.11803357245E+01  0.00000000000E+00 0.  1.
         11    1    3    3    0    0  0.13839815157E+02  0.89751169480E+01 -0.13534827984E+02  0.21337403230E+02  0.51100000000E-03 0. -1.
        -11    1    3    3    0    0  0.18962701647E+02  0.93450898731E+01  0.21429527050E+02  0.30102149231E+02  0.51100000000E-03 0.  1.
         12    1    3    3    0    0 -0.32665252093E+02 -0.18393228823E+02 -0.90647497527E+01  0.38568111815E+02  0.00000000000E+00 0. -1.
</event>
<event>
 7    1  0.2405891E-015  0.9000775E+02  0.7816164E-02  0.1186339E+00
        -11   -1    0    0    0    0  0.00000000000E+00  0.00000000000E+00  0.45593999997E+02  0.45594000000E+02  0.51100000000E-03 0. -1.
         11   -1    0    0    0    0 -0.00000000000E+00 -0.00000000000E+00 -0.45593999997E+02  0.45594000000E+02  0.51100000000E-03 0.  1.
    9900012    2    1    2    0    0 -0.56784297206E+00  0.85638242206E+00  0.58065779047E+00  0.90007745806E+02  0.90000007250E+02 0.  0.
        -12    1    1    2    0    0  0.56784297206E+00 -0.85638242206E+00 -0.58065779047E+00  0.11802541944E+01  0.00000000000E+00 0.  1.
         11    1    3    3    0    0  0.21447828140E+01 -0.35993731167E+02  0.29481054202E+01  0.36177895219E+02  0.51100000000E-03 0. -1.
        -11    1    3    3    0    0  0.94776679074E+00 -0.70815503276E+01 -0.63602183599E+01  0.95655106909E+01  0.51100000000E-03 0.  1.
        -12    1    3    3    0    0 -0.36603925768E+01  0.43931663917E+02  0.39927707302E+01  0.44264339896E+02  0.00000000000E+00 0.  1.
</event>
<event>
 7    1  0.2405891E-015  0.9000777E+02  0.7816164E-02  0.1186339E+00
        -11   -1    0    0    0    0  0.00000000000E+00  0.00000000000E+00  0.45593999997E+02  0.45594000000E+02  0.51100000000E-03 0.  1.
         11   -1    0    0    0    0 -0.00000000000E+00 -0.00000000000E+00 -0.45593999997E+02  0.45594000000E+02  0.51100000000E-03 0. -1.
    9900012    2    1    2    0    0 -0.11317136686E+01  0.10452522131E+00 -0.31817850287E+00  0.90007771671E+02  0.90000033457E+02 0.  0.
        -12    1    1    2    0    0  0.11317136686E+01 -0.10452522131E+00  0.31817850287E+00  0.11802283293E+01  0.00000000000E+00 0.  1.
         11    1    3    3    0    0 -0.31410517746E+02  0.16144472645E+02  0.82986501987E+01  0.36278536595E+02  0.51100000000E-03 0. -1.
        -11    1    3    3    0    0  0.25711378657E+01  0.30085402386E+01  0.13111501818E+02  0.13695749139E+02  0.51100000000E-03 0.  1.
        -12    1    3    3    0    0  0.27707666212E+02 -0.19048487663E+02 -0.21728330519E+02  0.40033485937E+02  0.00000000000E+00 0.  1.
</event>
<event>
 7    1  0.2405891E-015  0.9000698E+02  0.7816164E-02  0.1186341E+00
        -11   -1    0    0    0    0  0.00000000000E+00  0.00000000000E+00  0.45593999997E+02  0.45594000000E+02  0.51100000000E-03 0.  1.
         11   -1    0    0    0    0 -0.00000000000E+00 -0.00000000000E+00 -0.45593999997E+02  0.45594000000E+02  0.51100000000E-03 0. -1.
    9900012    2    1    2    0    0 -0.28910135121E+00 -0.93897591597E+00  0.65540794189E+00  0.90006977167E+02  0.89999228462E+02 0.  0.
        -12    1    1    2    0    0  0.28910135121E+00  0.93897591597E+00 -0.65540794189E+00  0.11810228331E+01  0.00000000000E+00 0.  1.
         11    1    3    3    0    0  0.15396126251E+02 -0.37797082069E+01 -0.31864314997E+02  0.35590187807E+02  0.51100000000E-03 0. -1.
        -11    1    3    3    0    0  0.22403442269E+01  0.79960314536E+01 -0.69067363226E+01  0.10800864232E+02  0.51100000000E-03 0.  1.
        -12    1    3    3    0    0 -0.17925571829E+02 -0.51552991627E+01  0.39426459262E+02  0.43615925128E+02  0.00000000000E+00 0.  1.
</event>
<event>
 7    1  0.2405891E-015  0.9000760E+02  0.7816164E-02  0.1186339E+00
        -11   -1    0    0    0    0  0.00000000000E+00  0.00000000000E+00  0.45593999997E+02  0.45594000000E+02  0.51100000000E-03 0.  1.
         11   -1    0    0    0    0 -0.00000000000E+00 -0.00000000000E+00 -0.45593999997E+02  0.45594000000E+02  0.51100000000E-03 0. -1.
    9900012    2    1    2    0    0  0.96821308318E+00 -0.16631989231E+00 -0.65439638011E+00  0.90007604514E+02  0.89999864094E+02 0.  0.
        -12    1    1    2    0    0 -0.96821308318E+00  0.16631989231E+00  0.65439638011E+00  0.11803954860E+01  0.00000000000E+00 0.  1.
         11    1    3    3    0    0 -0.66555790806E+00  0.87851112555E+01 -0.15982121560E+01  0.89540733444E+01  0.51100000000E-03 0. -1.
        -11    1    3    3    0    0  0.40875814447E+02 -0.24022624314E+01 -0.31013147711E+01  0.41063624110E+02  0.51100000000E-03 0.  1.
         12    1    3    3    0    0 -0.39242043456E+02 -0.65491687164E+01  0.40451305470E+01  0.39989907059E+02  0.00000000000E+00 0. -1.
</event>
<event>
 7    1  0.2405891E-015  0.9000772E+02  0.7816164E-02  0.1186339E+00
        -11   -1    0    0    0    0  0.00000000000E+00  0.00000000000E+00  0.45593999997E+02  0.45594000000E+02  0.51100000000E-03 0. -1.
         11   -1    0    0    0    0 -0.00000000000E+00 -0.00000000000E+00 -0.45593999997E+02  0.45594000000E+02  0.51100000000E-03 0.  1.
    9900012    2    1    2    0    0  0.56588104758E+00 -0.85821989933E+00  0.57992218584E+00  0.90007715078E+02  0.89999976117E+02 0.  0.
        -12    1    1    2    0    0 -0.56588104758E+00  0.85821989933E+00 -0.57992218584E+00  0.11802849221E+01  0.00000000000E+00 0.  1.
         11    1    3    3    0    0  0.31136776734E+02 -0.49224381865E+01  0.28308517586E+02  0.42368637354E+02  0.51100000000E-03 0. -1.
        -11    1    3    3    0    0 -0.34167576084E+00  0.79001593087E+01 -0.32353276643E+01  0.85438050530E+01  0.51100000000E-03 0.  1.
        -12    1    3    3    0    0 -0.30229219925E+02 -0.38359410216E+01 -0.24493267736E+02  0.39095272671E+02  0.00000000000E+00 0.  1.
</event>
<event>
 7    1  0.2405891E-015  0.9000772E+02  0.7816164E-02  0.1186339E+00
        -11   -1    0    0    0    0  0.00000000000E+00  0.00000000000E+00  0.45593999997E+02  0.45594000000E+02  0.51100000000E-03 0. -1.
         11   -1    0    0    0    0 -0.00000000000E+00 -0.00000000000E+00 -0.45593999997E+02  0.45594000000E+02  0.51100000000E-03 0.  1.
    9900012    2    1    2    0    0 -0.43641680076E+00  0.32118140462E+00  0.10485439060E+01  0.90007719761E+02  0.89999980862E+02 0.  0.
        -12    1    1    2    0    0  0.43641680076E+00 -0.32118140462E+00 -0.10485439060E+01  0.11802802386E+01  0.00000000000E+00 0.  1.
         11    1    3    3    0    0  0.24673967768E+02 -0.26109182597E+02  0.13107412613E+02  0.38240010029E+02  0.51100000000E-03 0. -1.
        -11    1    3    3    0    0  0.48133498225E+01  0.18286606161E+01  0.69235608409E+01  0.86283272505E+01  0.51100000000E-03 0.  1.
        -12    1    3    3    0    0 -0.29923734392E+02  0.24601703385E+02 -0.18982429548E+02  0.43139382482E+02  0.00000000000E+00 0.  1.
</event>
<event>
 7    1  0.2405891E-015  0.9000782E+02  0.7816164E-02  0.1186339E+00
        -11   -1    0    0    0    0  0.00000000000E+00  0.00000000000E+00  0.45593999997E+02  0.45594000000E+02  0.51100000000E-03 0.  1.
         11   -1    0    0    0    0 -0.00000000000E+00 -0.00000000000E+00 -0.45593999997E+02  0.45594000000E+02  0.51100000000E-03 0. -1.
    9900012    2    1    2    0    0  0.62263785402E+00 -0.80047259627E+00 -0.60364077890E+00  0.90007823545E+02  0.90000086016E+02 0.  0.
        -12    1    1    2    0    0 -0.62263785402E+00  0.80047259627E+00  0.60364077890E+00  0.11801764549E+01  0.00000000000E+00 0.  1.
         11    1    3    3    0    0 -0.24037942440E+02 -0.15575711067E+02 -0.24296222194E+02  0.37559710664E+02  0.51100000000E-03 0. -1.
        -11    1    3    3    0    0  0.66183489260E+00 -0.10797197757E+02  0.14367721030E+01  0.10912461645E+02  0.51100000000E-03 0.  1.
        -12    1    3    3    0    0  0.23998745401E+02  0.25572436228E+02  0.22255809312E+02  0.41535651236E+02  0.00000000000E+00 0.  1.
</event>
<event>
 7    1  0.2405891E-015  0.9000777E+02  0.7816164E-02  0.1186339E+00
        -11   -1    0    0    0    0  0.00000000000E+00  0.00000000000E+00  0.45593999997E+02  0.45594000000E+02  0.51100000000E-03 0.  1.
         11   -1    0    0    0    0 -0.00000000000E+00 -0.00000000000E+00 -0.45593999997E+02  0.45594000000E+02  0.51100000000E-03 0. -1.
    9900012    2    1    2    0    0 -0.52894568478E+00 -0.29296363621E+00 -0.10135689079E+01  0.90007774106E+02  0.90000035924E+02 0.  0.
        -12    1    1    2    0    0  0.52894568478E+00  0.29296363621E+00  0.10135689079E+01  0.11802258939E+01  0.00000000000E+00 0.  1.
         11    1    3    3    0    0 -0.33100817486E+01  0.36414536417E+00  0.80954529144E+01  0.87536050390E+01  0.51100000000E-03 0. -1.
        -11    1    3    3    0    0 -0.33975254064E+02  0.14000306199E+02  0.88515271683E+01  0.37797830570E+02  0.51100000000E-03 0.  1.
         12    1    3    3    0    0  0.36756390127E+02 -0.14657415199E+02 -0.17960548991E+02  0.43456338497E+02  0.00000000000E+00 0. -1.
</event>
<event>
 7    1  0.2405891E-015  0.9000772E+02  0.7816164E-02  0.1186339E+00
        -11   -1    0    0    0    0  0.00000000000E+00  0.00000000000E+00  0.45593999997E+02  0.45594000000E+02  0.51100000000E-03 0. -1.
         11   -1    0    0    0    0 -0.00000000000E+00 -0.00000000000E+00 -0.45593999997E+02  0.45594000000E+02  0.51100000000E-03 0.  1.
    9900012    2    1    2    0    0 -0.11151427694E+00 -0.10793897706E+01  0.46426273480E+00  0.90007721390E+02  0.89999982512E+02 0.  0.
        -12    1    1    2    0    0  0.11151427694E+00  0.10793897706E+01 -0.46426273480E+00  0.11802786102E+01  0.00000000000E+00 0.  1.
         11    1    3    3    0    0 -0.20717737894E+02 -0.15154368913E+02  0.38238160927E+01  0.25951900323E+02  0.51100000000E-03 0. -1.
        -11    1    3    3    0    0 -0.85633385359E+01 -0.16503264777E+02  0.80838421708E+01  0.20274047935E+02  0.51100000000E-03 0.  1.
        -12    1    3    3    0    0  0.29169562153E+02  0.30578243918E+02 -0.11443395529E+02  0.43781773132E+02  0.00000000000E+00 0.  1.
</event>
<event>
 7    1  0.2405891E-015  0.9000780E+02  0.7816164E-02  0.1186339E+00
        -11   -1    0    0    0    0  0.00000000000E+00  0.00000000000E+00  0.45593999997E+02  0.45594000000E+02  0.51100000000E-03 0. -1.
         11   -1    0    0    0    0 -0.00000000000E+00 -0.00000000000E+00 -0.45593999997E+02  0.45594000000E+02  0.51100000000E-03 0.  1.
    9900012    2    1    2    0    0 -0.91512660027E-01  0.83049955103E+00 -0.83352613403E+00  0.90007800912E+02  0.90000063084E+02 0.  0.
        -12    1    1    2    0    0  0.91512660027E-01 -0.83049955103E+00  0.83352613403E+00  0.11801990880E+01  0.00000000000E+00 0.  1.
         11    1    3    3    0    0 -0.42263734854E+01  0.66840361298E+01  0.65999646768E+01  0.10300393479E+02  0.51100000000E-03 0. -1.
        -11    1    3    3    0    0 -0.27642717572E+02  0.14710576044E+02 -0.22925768785E+02  0.38808655697E+02  0.51100000000E-03 0.  1.
         12    1    3    3    0    0  0.31777578398E+02 -0.20564112623E+02  0.15492277974E+02  0.40898751737E+02  0.00000000000E+00 0. -1.
</event>
<event>
 7    1  0.2405891E-015  0.9000782E+02  0.7816164E-02  0.1186339E+00
        -11   -1    0    0    0    0  0.00000000000E+00  0.00000000000E+00  0.45593999997E+02  0.45594000000E+02  0.51100000000E-03 0. -1.
         11   -1    0    0    0    0 -0.00000000000E+00 -0.00000000000E+00 -0.45593999997E+02  0.45594000000E+02  0.51100000000E-03 0.  1.
    9900012    2    1    2    0    0 -0.17693806732E+00  0.36610320091E+00  0.11079199853E+01  0.90007819790E+02  0.90000082212E+02 0.  0.
        -12    1    1    2    0    0  0.17693806732E+00 -0.36610320091E+00 -0.11079199853E+01  0.11801802096E+01  0.00000000000E+00 0.  1.
         11    1    3    3    0    0  0.85925345135E+01 -0.27742566400E+02 -0.49780495897E+00  0.29047021360E+02  0.51100000000E-03 0. -1.
        -11    1    3    3    0    0  0.21913598292E+02  0.15032086342E+02 -0.47835509993E+01  0.27000958693E+02  0.51100000000E-03 0.  1.
        -12    1    3    3    0    0 -0.30683070873E+02  0.13076583259E+02  0.63892759435E+01  0.33959839738E+02  0.00000000000E+00 0.  1.
</event>
<event>
 7    1  0.2405891E-015  0.9000778E+02  0.7816164E-02  0.1186339E+00
        -11   -1    0    0    0    0  0.00000000000E+00  0.00000000000E+00  0.45593999997E+02  0.45594000000E+02  0.51100000000E-03 0.  1.
         11   -1    0    0    0    0 -0.00000000000E+00 -0.00000000000E+00 -0.45593999997E+02  0.45594000000E+02  0.51100000000E-03 0. -1.
    9900012    2    1    2    0    0 -0.35965621020E+00  0.80655586604E+00 -0.78296989462E+00  0.90007776796E+02  0.90000038650E+02 0.  0.
        -12    1    1    2    0    0  0.35965621020E+00 -0.80655586604E+00  0.78296989462E+00  0.11802232037E+01  0.00000000000E+00 0.  1.
         11    1    3    3    0    0 -0.29426640486E+02  0.10355964674E+02 -0.28947342181E+02  0.42557276631E+02  0.51100000000E-03 0. -1.
        -11    1    3    3    0    0  0.14824438009E+02  0.50034752349E+01  0.46025681590E+01  0.16308965652E+02  0.51100000000E-03 0.  1.
        -12    1    3    3    0    0  0.14242546267E+02 -0.14552884042E+02  0.23561804127E+02  0.31141534514E+02  0.00000000000E+00 0.  1.
</event>
<event>
 7    1  0.3412293E-015  0.9000715E+02  0.7816164E-02  0.1186340E+00
        -11   -1    0    0    0    0  0.00000000000E+00  0.00000000000E+00  0.45593999997E+02  0.45594000000E+02  0.51100000000E-03 0.  1.
         11   -1    0    0    0    0 -0.00000000000E+00 -0.00000000000E+00 -0.45593999997E+02  0.45594000000E+02  0.51100000000E-03 0. -1.
    9900012    2    1    2    0    0 -0.10055153727E+01 -0.53874866587E+00 -0.30510889149E+00  0.90007151692E+02  0.89999405293E+02 0.  0.
        -12    1    1    2    0    0  0.10055153727E+01  0.53874866587E+00  0.30510889149E+00  0.11808483075E+01  0.00000000000E+00 0.  1.
         11    1    3    3    0    0 -0.33279068196E-01 -0.29513425473E+01  0.87221129413E+01  0.92079739764E+01  0.51100000000E-03 0. -1.
        -11    1    3    3    0    0 -0.92169677971E+01  0.12946363598E+02  0.33036229232E+02  0.36659968193E+02  0.51100000000E-03 0.  1.
         12    1    3    3    0    0  0.82447314925E+01 -0.10533769717E+02 -0.42063451065E+02  0.44139209523E+02  0.00000000000E+00 0. -1.
</event>
<event>
 7    1  0.2405891E-015  0.9000780E+02  0.7816164E-02  0.1186339E+00
        -11   -1    0    0    0    0  0.00000000000E+00  0.00000000000E+00  0.45593999997E+02  0.45594000000E+02  0.51100000000E-03 0. -1.
         11   -1    0    0    0    0 -0.00000000000E+00 -0.00000000000E+00 -0.45593999997E+02  0.45594000000E+02  0.51100000000E-03 0.  1.
    9900012    2    1    2    0    0 -0.15205120787E+00  0.75490884104E-01  0.11679231107E+01  0.90007803899E+02  0.90000066111E+02 0.  0.
        -12    1    1    2    0    0  0.15205120787E+00 -0.75490884104E-01 -0.11679231107E+01  0.11801961006E+01  0.00000000000E+00 0.  1.
         11    1    3    3    0    0  0.94300297887E+01  0.29894422628E+01 -0.16951268010E+01  0.10036716694E+02  0.51100000000E-03 0. -1.
        -11    1    3    3    0    0 -0.62460461332E-01  0.37942706935E+02  0.23787813558E+01  0.38017252819E+02  0.51100000000E-03 0.  1.
         12    1    3    3    0    0 -0.95196205353E+01 -0.40856658314E+02  0.48426855590E+00  0.41953834387E+02  0.00000000000E+00 0. -1.
</event>
<event>
 7    1  0.2405891E-015  0.9000776E+02  0.7816164E-02  0.1186339E+00
        -11   -1    0    0    0    0  0.00000000000E+00  0.00000000000E+00  0.45593999997E+02  0.45594000000E+02  0.51100000000E-03 0. -1.
         11   -1    0    0    0    0 -0.00000000000E+00 -0.00000000000E+00 -0.45593999997E+02  0.45594000000E+02  0.51100000000E-03 0.  1.
    9900012    2    1    2    0    0  0.80576069545E+00 -0.85439202810E+00 -0.11721152372E+00  0.90007756560E+02  0.90000018147E+02 0.  0.
        -12    1    1    2    0    0 -0.80576069545E+00  0.85439202810E+00  0.11721152372E+00  0.11802434398E+01  0.00000000000E+00 0.  1.
         11    1    3    3    0    0 -0.13252342115E+02 -0.68819846072E+01  0.35342183096E+02  0.38367384455E+02  0.51100000000E-03 0. -1.
        -11    1    3    3    0    0  0.30786083720E+01  0.12324456876E+02  0.12937598476E+01  0.12768863756E+02  0.51100000000E-03 0.  1.
        -12    1    3    3    0    0  0.10979494438E+02 -0.62968642972E+01 -0.36753154467E+02  0.38871508350E+02  0.00000000000E+00 0.  1.
</event>
<event>
 7    1  0.2405891E-015  0.9000778E+02  0.7816164E-02  0.1186339E+00
        -11   -1    0    0    0    0  0.00000000000E+00  0.00000000000E+00  0.45593999997E+02  0.45594000000E+02  0.51100000000E-03 0.  1.
         11   -1    0    0    0    0 -0.00000000000E+00 -0.00000000000E+00 -0.45593999997E+02  0.45594000000E+02  0.51100000000E-03 0. -1.
    9900012    2    1    2    0    0  0.14041923457E+00  0.30439574001E-01 -0.11714387360E+01  0.90007782714E+02  0.90000044646E+02 0.  0.
        -12    1    1    2    0    0 -0.14041923457E+00 -0.30439574001E-01  0.11714387360E+01  0.11802172856E+01  0.00000000000E+00 0.  1.
         11    1    3    3    0    0 -0.19191193476E+01 -0.55178742173E+01  0.92711991592E+01  0.10958334228E+02  0.51100000000E-03 0. -1.
        -11    1    3    3    0    0 -0.24699890877E+01  0.41438751230E+02 -0.43117506700E+00  0.41514537957E+02  0.51100000000E-03 0.  1.
         12    1    3    3    0    0  0.45295276700E+01 -0.35890437439E+02 -0.10011462828E+02  0.37534910529E+02  0.00000000000E+00 0. -1.
</event>
<event>
 7    1  0.2405891E-015  0.9000769E+02  0.7816164E-02  0.1186339E+00
        -11   -1    0    0    0    0  0.00000000000E+00  0.00000000000E+00  0.45593999997E+02  0.45594000000E+02  0.51100000000E-03 0.  1.
         11   -1    0    0    0    0 -0.00000000000E+00 -0.00000000000E+00 -0.45593999997E+02  0.45594000000E+02  0.51100000000E-03 0. -1.
    9900012    2    1    2    0    0 -0.42471448966E+00  0.10995150993E+01 -0.61706099500E-01  0.90007693475E+02  0.89999954228E+02 0.  0.
        -12    1    1    2    0    0  0.42471448966E+00 -0.10995150993E+01  0.61706099500E-01  0.11803065254E+01  0.00000000000E+00 0.  1.
         11    1    3    3    0    0 -0.21770481242E+02  0.25195762190E+02 -0.23750483264E+02  0.40900681429E+02  0.51100000000E-03 0. -1.
        -11    1    3    3    0    0 -0.70407641063E+01 -0.62535569973E+01  0.63770263107E+01  0.11373029462E+02  0.51100000000E-03 0.  1.
        -12    1    3    3    0    0  0.28386530859E+02 -0.17842690094E+02  0.17311750853E+02  0.37733982583E+02  0.00000000000E+00 0.  1.
</event>
<event>
 7    1  0.2405891E-015  0.9000764E+02  0.7816164E-02  0.1186339E+00
        -11   -1    0    0    0    0  0.00000000000E+00  0.00000000000E+00  0.45593999997E+02  0.45594000000E+02  0.51100000000E-03 0.  1.
         11   -1    0    0    0    0 -0.00000000000E+00 -0.00000000000E+00 -0.45593999997E+02  0.45594000000E+02  0.51100000000E-03 0. -1.
    9900012    2    1    2    0    0 -0.92745051723E+00 -0.72719265811E+00  0.65372949158E-01  0.90007641052E+02  0.89999901114E+02 0.  0.
        -12    1    1    2    0    0  0.92745051723E+00  0.72719265811E+00 -0.65372949158E-01  0.11803589481E+01  0.00000000000E+00 0.  1.
         11    1    3    3    0    0 -0.74425720134E+01 -0.98773011651E+01 -0.35403937539E+02  0.37501889953E+02  0.51100000000E-03 0. -1.
        -11    1    3    3    0    0 -0.24029203767E+01  0.74259382536E+01 -0.61311560714E+01  0.99252032884E+01  0.51100000000E-03 0.  1.
        -12    1    3    3    0    0  0.89180418728E+01  0.17241702534E+01  0.41600466560E+02  0.42580547811E+02  0.00000000000E+00 0.  1.
</event>
<event>
 7    1  0.2405891E-015  0.9000783E+02  0.7816164E-02  0.1186339E+00
        -11   -1    0    0    0    0  0.00000000000E+00  0.00000000000E+00  0.45593999997E+02  0.45594000000E+02  0.51100000000E-03 0.  1.
         11   -1    0    0    0    0 -0.00000000000E+00 -0.00000000000E+00 -0.45593999997E+02  0.45594000000E+02  0.51100000000E-03 0. -1.
    9900012    2    1    2    0    0 -0.11732918497E+01 -0.35941316119E-01  0.12206959247E+00  0.90007827755E+02  0.90000090281E+02 0.  0.
        -12    1    1    2    0    0  0.11732918497E+01  0.35941316119E-01 -0.12206959247E+00  0.11801722451E+01  0.00000000000E+00 0.  1.
         11    1    3    3    0    0 -0.62253423896E+01 -0.33770165538E+02 -0.46041573597E+01  0.34646460621E+02  0.51100000000E-03 0. -1.
        -11    1    3    3    0    0  0.13732729526E+01  0.46538309761E+01 -0.17764327955E+02  0.18415085374E+02  0.51100000000E-03 0.  1.
        -12    1    3    3    0    0  0.36787775873E+01  0.29080393245E+02  0.22490554907E+02  0.36946281760E+02  0.00000000000E+00 0.  1.
</event>
<event>
 7    1  0.2405891E-015  0.9000778E+02  0.7816164E-02  0.1186339E+00
        -11   -1    0    0    0    0  0.00000000000E+00  0.00000000000E+00  0.45593999997E+02  0.45594000000E+02  0.51100000000E-03 0.  1.
         11   -1    0    0    0    0 -0.00000000000E+00 -0.00000000000E+00 -0.45593999997E+02  0.45594000000E+02  0.51100000000E-03 0. -1.
    9900012    2    1    2    0    0  0.11466873028E+01 -0.26724411120E+00 -0.81284577683E-01  0.90007780373E+02  0.90000042274E+02 0.  0.
        -12    1    1    2    0    0 -0.11466873028E+01  0.26724411120E+00  0.81284577683E-01  0.11802196270E+01  0.00000000000E+00 0.  1.
         11    1    3    3    0    0 -0.40618464391E+01 -0.29538480883E+02  0.38201757753E+01  0.30060176190E+02  0.51100000000E-03 0.  1.
        -11    1    3    3    0    0  0.11987197322E+02 -0.10130669263E+01 -0.21231652724E+02  0.24402915438E+02  0.51100000000E-03 0. -1.
        -12    1    3    3    0    0 -0.67786635797E+01  0.30284303698E+02  0.17330192371E+02  0.35544688745E+02  0.00000000000E+00 0.  1.
</event>
<event>
 7    1  0.2405891E-015  0.9000777E+02  0.7816164E-02  0.1186339E+00
        -11   -1    0    0    0    0  0.00000000000E+00  0.00000000000E+00  0.45593999997E+02  0.45594000000E+02  0.51100000000E-03 0.  1.
         11   -1    0    0    0    0 -0.00000000000E+00 -0.00000000000E+00 -0.45593999997E+02  0.45594000000E+02  0.51100000000E-03 0. -1.
    9900012    2    1    2    0    0  0.76766837216E+00 -0.84920090968E+00 -0.28719318620E+00  0.90007772547E+02  0.90000034345E+02 0.  0.
        -12    1    1    2    0    0 -0.76766837216E+00  0.84920090968E+00  0.28719318620E+00  0.11802274530E+01  0.00000000000E+00 0.  1.
         11    1    3    3    0    0 -0.49398153085E+01  0.15658338703E+01 -0.11841862865E+02  0.12926071614E+02  0.51100000000E-03 0. -1.
        -11    1    3    3    0    0 -0.22970558142E+02 -0.25787851173E+02  0.18892564853E+02  0.39364816988E+02  0.51100000000E-03 0.  1.
         12    1    3    3    0    0  0.28678041823E+02  0.23372816393E+02 -0.73378951737E+01  0.37716883945E+02  0.00000000000E+00 0. -1.
</event>
<event>
 7    1  0.2405891E-015  0.9000772E+02  0.7816164E-02  0.1186339E+00
        -11   -1    0    0    0    0  0.00000000000E+00  0.00000000000E+00  0.45593999997E+02  0.45594000000E+02  0.51100000000E-03 0.  1.
         11   -1    0    0    0    0 -0.00000000000E+00 -0.00000000000E+00 -0.45593999997E+02  0.45594000000E+02  0.51100000000E-03 0. -1.
    9900012    2    1    2    0    0  0.62222858328E+00 -0.92271090127E+00 -0.39304976730E+00  0.90007723788E+02  0.89999984942E+02 0.  0.
        -12    1    1    2    0    0 -0.62222858328E+00  0.92271090127E+00  0.39304976730E+00  0.11802762121E+01  0.00000000000E+00 0.  1.
         11    1    3    3    0    0 -0.49692752054E+01 -0.72204300169E+01 -0.70927218513E+01  0.11275416144E+02  0.51100000000E-03 0. -1.
        -11    1    3    3    0    0 -0.85978491270E+01 -0.33167446100E+02  0.12336039213E+02  0.36416759248E+02  0.51100000000E-03 0.  1.
         12    1    3    3    0    0  0.14189352916E+02  0.39465165215E+02 -0.56363671294E+01  0.42315548396E+02  0.00000000000E+00 0. -1.
</event>
<event>
 7    1  0.2405891E-015  0.9000778E+02  0.7816164E-02  0.1186339E+00
        -11   -1    0    0    0    0  0.00000000000E+00  0.00000000000E+00  0.45593999997E+02  0.45594000000E+02  0.51100000000E-03 0.  1.
         11   -1    0    0    0    0 -0.00000000000E+00 -0.00000000000E+00 -0.45593999997E+02  0.45594000000E+02  0.51100000000E-03 0. -1.
    9900012    2    1    2    0    0 -0.11441153853E+01  0.28966784404E+00  0.36172603640E-02  0.90007779445E+02  0.90000041333E+02 0.  0.
        -12    1    1    2    0    0  0.11441153853E+01 -0.28966784404E+00 -0.36172603640E-02  0.11802205554E+01  0.00000000000E+00 0.  1.
         11    1    3    3    0    0 -0.69623834556E+01  0.53087265739E+01 -0.52142911624E+01  0.10190495268E+02  0.51100000000E-03 0. -1.
        -11    1    3    3    0    0 -0.17824669777E+02  0.31848386320E+01  0.35909260115E+02  0.40216128755E+02  0.51100000000E-03 0.  1.
         12    1    3    3    0    0  0.23642937847E+02 -0.82038973618E+01 -0.30691351693E+02  0.39601155421E+02  0.00000000000E+00 0. -1.
</event>
<event>
 7    1  0.2405891E-015  0.9000770E+02  0.7816164E-02  0.1186339E+00
        -11   -1    0    0    0    0  0.00000000000E+00  0.00000000000E+00  0.45593999997E+02  0.45594000000E+02  0.51100000000E-03 0. -1.
         11   -1    0    0    0    0 -0.00000000000E+00 -0.00000000000E+00 -0.45593999997E+02  0.45594000000E+02  0.51100000000E-03 0.  1.
    9900012    2    1    2    0    0 -0.15885463507E+00 -0.91341938883E+00  0.73043465121E+00  0.90007701498E+02  0.89999962357E+02 0.  0.
        -12    1    1    2    0    0  0.15885463507E+00  0.91341938883E+00 -0.73043465121E+00  0.11802985024E+01  0.00000000000E+00 0.  1.
         11    1    3    3    0    0 -0.20573050254E+02  0.12605210124E+02  0.34947818409E+02  0.42467537376E+02  0.51100000000E-03 0. -1.
        -11    1    3    3    0    0  0.64114015372E+01  0.54318258238E+01 -0.42437284821E+01  0.94138213889E+01  0.51100000000E-03 0.  1.
        -12    1    3    3    0    0  0.14002794082E+02 -0.18950455336E+02 -0.29973655276E+02  0.38126342732E+02  0.00000000000E+00 0.  1.
</event>
<event>
 7    1  0.2405891E-015  0.9000771E+02  0.7816164E-02  0.1186339E+00
        -11   -1    0    0    0    0  0.00000000000E+00  0.00000000000E+00  0.45593999997E+02  0.45594000000E+02  0.51100000000E-03 0. -1.
         11   -1    0    0    0    0 -0.00000000000E+00 -0.00000000000E+00 -0.45593999997E+02  0.45594000000E+02  0.51100000000E-03 0.  1.
    9900012    2    1    2    0    0  0.79467620373E+00 -0.87177460033E+00  0.39881461895E-01  0.90007706920E+02  0.89999967852E+02 0.  0.
        -12    1    1    2    0    0 -0.79467620373E+00  0.87177460033E+00 -0.39881461895E-01  0.11802930795E+01  0.00000000000E+00 0.  1.
         11    1    3    3    0    0  0.19155492937E+02 -0.30954985957E+02  0.65111409899E+01  0.36980251791E+02  0.51100000000E-03 0. -1.
        -11    1    3    3    0    0  0.46180251305E+00 -0.86173214384E+01 -0.49863786200E+01  0.99667177314E+01  0.51100000000E-03 0.  1.
        -12    1    3    3    0    0 -0.18822619246E+02  0.38700532795E+02 -0.14848809080E+01  0.43060737398E+02  0.00000000000E+00 0.  1.
</event>
<event>
 7    1  0.4744223E-015  0.9000771E+02  0.7816164E-02  0.1186339E+00
        -11   -1    0    0    0    0  0.00000000000E+00  0.00000000000E+00  0.45593999997E+02  0.45594000000E+02  0.51100000000E-03 0. -1.
         11   -1    0    0    0    0 -0.00000000000E+00 -0.00000000000E+00 -0.45593999997E+02  0.45594000000E+02  0.51100000000E-03 0.  1.
    9900012    2    1    2    0    0  0.24663976833E+00 -0.98918532145E+00  0.59479025613E+00  0.90007705874E+02  0.89999966791E+02 0.  0.
        -12    1    1    2    0    0 -0.24663976833E+00  0.98918532145E+00 -0.59479025613E+00  0.11802941262E+01  0.00000000000E+00 0.  1.
         11    1    3    3    0    0  0.85642701046E+01 -0.39747954578E+01 -0.17546970798E+00  0.94433315750E+01  0.51100000000E-03 0. -1.
        -11    1    3    3    0    0 -0.21163129101E+02 -0.10335283447E+02 -0.33891842289E+02  0.41271698430E+02  0.51100000000E-03 0.  1.
         12    1    3    3    0    0  0.12845498764E+02  0.13320893583E+02  0.34662102253E+02  0.39292675869E+02  0.00000000000E+00 0. -1.
</event>
<event>
 7    1  0.2405891E-015  0.9000765E+02  0.7816164E-02  0.1186339E+00
        -11   -1    0    0    0    0  0.00000000000E+00  0.00000000000E+00  0.45593999997E+02  0.45594000000E+02  0.51100000000E-03 0. -1.
         11   -1    0    0    0    0 -0.00000000000E+00 -0.00000000000E+00 -0.45593999997E+02  0.45594000000E+02  0.51100000000E-03 0.  1.
    9900012    2    1    2    0    0  0.11097321290E+01  0.40153873813E+00  0.22007961087E-01  0.90007651278E+02  0.89999911474E+02 0.  0.
        -12    1    1    2    0    0 -0.11097321290E+01 -0.40153873813E+00 -0.22007961087E-01  0.11803487225E+01  0.00000000000E+00 0.  1.
         11    1    3    3    0    0 -0.68992166071E+01 -0.66586447512E+01  0.26704278831E+01  0.99532871482E+01  0.51100000000E-03 0. -1.
        -11    1    3    3    0    0 -0.28449317878E+02 -0.11947145290E+02 -0.18513671488E+02  0.35984079820E+02  0.51100000000E-03 0.  1.
         12    1    3    3    0    0  0.36458266614E+02  0.19007328780E+02  0.15865251566E+02  0.44070284309E+02  0.00000000000E+00 0. -1.
</event>
<event>
 7    1  0.2405891E-015  0.9000772E+02  0.7816164E-02  0.1186339E+00
        -11   -1    0    0    0    0  0.00000000000E+00  0.00000000000E+00  0.45593999997E+02  0.45594000000E+02  0.51100000000E-03 0. -1.
         11   -1    0    0    0    0 -0.00000000000E+00 -0.00000000000E+00 -0.45593999997E+02  0.45594000000E+02  0.51100000000E-03 0.  1.
    9900012    2    1    2    0    0  0.10076729757E+01  0.61254360004E+00 -0.49446336867E-01  0.90007720614E+02  0.89999981726E+02 0.  0.
        -12    1    1    2    0    0 -0.10076729757E+01 -0.61254360004E+00  0.49446336867E-01  0.11802793856E+01  0.00000000000E+00 0.  1.
         11    1    3    3    0    0 -0.93860547357E+01  0.19475417122E+01 -0.81664102432E+00  0.96206987816E+01  0.51100000000E-03 0. -1.
        -11    1    3    3    0    0 -0.31804468784E+02  0.13277080963E+02 -0.67022027543E+01  0.35110178518E+02  0.51100000000E-03 0.  1.
         12    1    3    3    0    0  0.42198196496E+02 -0.14612079075E+02  0.74693974417E+01  0.45276843315E+02  0.00000000000E+00 0. -1.
</event>
<event>
 7    1  0.2405891E-015  0.9000788E+02  0.7816164E-02  0.1186339E+00
        -11   -1    0    0    0    0  0.00000000000E+00  0.00000000000E+00  0.45593999997E+02  0.45594000000E+02  0.51100000000E-03 0. -1.
         11   -1    0    0    0    0 -0.00000000000E+00 -0.00000000000E+00 -0.45593999997E+02  0.45594000000E+02  0.51100000000E-03 0.  1.
    9900012    2    1    2    0    0 -0.59223011743E+00  0.75375718979E+00  0.68833341556E+00  0.90007877420E+02  0.90000140602E+02 0.  0.
        -12    1    1    2    0    0  0.59223011743E+00 -0.75375718979E+00 -0.68833341556E+00  0.11801225801E+01  0.00000000000E+00 0.  1.
         11    1    3    3    0    0 -0.66865390500E+00  0.25246588747E+01  0.42015929261E+02  0.42097022607E+02  0.51100000000E-03 0. -1.
        -11    1    3    3    0    0  0.65324584551E+01 -0.33992049011E+01 -0.14804689757E+01  0.75112845824E+01  0.51100000000E-03 0.  1.
        -12    1    3    3    0    0 -0.64560346676E+01  0.16283032162E+01 -0.39847126870E+02  0.40399570230E+02  0.00000000000E+00 0.  1.
</event>
<event>
 7    1  0.2405891E-015  0.9000775E+02  0.7816164E-02  0.1186339E+00
        -11   -1    0    0    0    0  0.00000000000E+00  0.00000000000E+00  0.45593999997E+02  0.45594000000E+02  0.51100000000E-03 0.  1.
         11   -1    0    0    0    0 -0.00000000000E+00 -0.00000000000E+00 -0.45593999997E+02  0.45594000000E+02  0.51100000000E-03 0. -1.
    9900012    2    1    2    0    0  0.20569796360E-01 -0.11480665867E+01 -0.27296910472E+00  0.90007749122E+02  0.90000010610E+02 0.  0.
        -12    1    1    2    0    0 -0.20569796360E-01  0.11480665867E+01  0.27296910472E+00  0.11802508784E+01  0.00000000000E+00 0.  1.
         11    1    3    3    0    0  0.26868131938E+02  0.87932816726E+01 -0.24894977748E+02  0.37669327493E+02  0.51100000000E-03 0. -1.
        -11    1    3    3    0    0  0.85030520687E+01 -0.36309804384E+01  0.87492066913E+00  0.92871631764E+01  0.51100000000E-03 0.  1.
        -12    1    3    3    0    0 -0.35350614210E+02 -0.63103678208E+01  0.23747087974E+02  0.43051258452E+02  0.00000000000E+00 0.  1.
</event>
<event>
 7    1  0.2405891E-015  0.9000770E+02  0.7816164E-02  0.1186339E+00
        -11   -1    0    0    0    0  0.00000000000E+00  0.00000000000E+00  0.45593999997E+02  0.45594000000E+02  0.51100000000E-03 0. -1.
         11   -1    0    0    0    0 -0.00000000000E+00 -0.00000000000E+00 -0.45593999997E+02  0.45594000000E+02  0.51100000000E-03 0.  1.
    9900012    2    1    2    0    0  0.30542723201E-02 -0.10736792400E+01  0.49022140672E+00  0.90007697722E+02  0.89999958532E+02 0.  0.
        -12    1    1    2    0    0 -0.30542723201E-02  0.10736792400E+01 -0.49022140672E+00  0.11803022776E+01  0.00000000000E+00 0.  1.
         11    1    3    3    0    0  0.40228075510E+01 -0.10146827569E+02  0.16716303741E+01  0.11042438076E+02  0.51100000000E-03 0. -1.
        -11    1    3    3    0    0  0.27889244897E+02 -0.84042770304E+01 -0.22492190672E+02  0.36801365393E+02  0.51100000000E-03 0.  1.
         12    1    3    3    0    0 -0.31908998175E+02  0.17477425359E+02  0.21310781705E+02  0.42163894253E+02  0.00000000000E+00 0. -1.
</event>
<event>
 7    1  0.2405891E-015  0.9000774E+02  0.7816164E-02  0.1186339E+00
        -11   -1    0    0    0    0  0.00000000000E+00  0.00000000000E+00  0.45593999997E+02  0.45594000000E+02  0.51100000000E-03 0. -1.
         11   -1    0    0    0    0 -0.00000000000E+00 -0.00000000000E+00 -0.45593999997E+02  0.45594000000E+02  0.51100000000E-03 0.  1.
    9900012    2    1    2    0    0 -0.11663204459E+01 -0.68584533610E-01  0.16735598281E+00  0.90007739331E+02  0.90000000691E+02 0.  0.
        -12    1    1    2    0    0  0.11663204459E+01  0.68584533610E-01 -0.16735598281E+00  0.11802606685E+01  0.00000000000E+00 0.  1.
         11    1    3    3    0    0 -0.44358668822E+01 -0.84198315657E+01  0.58394126402E+01  0.11165537105E+02  0.51100000000E-03 0. -1.
        -11    1    3    3    0    0  0.85176130971E+01 -0.11614578832E+02 -0.37913932640E+02  0.40557545078E+02  0.51100000000E-03 0.  1.
         12    1    3    3    0    0 -0.52480666608E+01  0.19965825864E+02  0.32241875982E+02  0.38284657148E+02  0.00000000000E+00 0. -1.
</event>
<event>
 7    1  0.2405891E-015  0.9000775E+02  0.7816164E-02  0.1186339E+00
        -11   -1    0    0    0    0  0.00000000000E+00  0.00000000000E+00  0.45593999997E+02  0.45594000000E+02  0.51100000000E-03 0. -1.
         11   -1    0    0    0    0 -0.00000000000E+00 -0.00000000000E+00 -0.45593999997E+02  0.45594000000E+02  0.51100000000E-03 0.  1.
    9900012    2    1    2    0    0  0.50155288507E+00 -0.84937919115E+00  0.64805778122E+00  0.90007754604E+02  0.90000016165E+02 0.  0.
        -12    1    1    2    0    0 -0.50155288507E+00  0.84937919115E+00 -0.64805778122E+00  0.11802453960E+01  0.00000000000E+00 0.  1.
         11    1    3    3    0    0 -0.69321251119E+01 -0.50269933458E+01  0.57965666003E+01  0.10340464461E+02  0.51100000000E-03 0. -1.
        -11    1    3    3    0    0 -0.10464431385E+02  0.29470188902E+02 -0.27353350217E+02  0.41547588697E+02  0.51100000000E-03 0.  1.
         12    1    3    3    0    0  0.17898109382E+02 -0.25292574747E+02  0.22204841398E+02  0.38119701446E+02  0.00000000000E+00 0. -1.
</event>
<event>
 7    1  0.2405891E-015  0.9000775E+02  0.7816164E-02  0.1186339E+00
        -11   -1    0    0    0    0  0.00000000000E+00  0.00000000000E+00  0.45593999997E+02  0.45594000000E+02  0.51100000000E-03 0. -1.
         11   -1    0    0    0    0 -0.00000000000E+00 -0.00000000000E+00 -0.45593999997E+02  0.45594000000E+02  0.51100000000E-03 0.  1.
    9900012    2    1    2    0    0  0.10580370977E+01  0.11186497208E+00  0.51091635881E+00  0.90007749265E+02  0.90000010755E+02 0.  0.
        -12    1    1    2    0    0 -0.10580370977E+01 -0.11186497208E+00 -0.51091635881E+00  0.11802507351E+01  0.00000000000E+00 0.  1.
         11    1    3    3    0    0  0.50270556463E+01  0.13512908967E+02  0.39208041686E+01  0.14941308604E+02  0.51100000000E-03 0. -1.
        -11    1    3    3    0    0  0.19012778102E+02  0.23055487317E+02 -0.99081755988E+01  0.31483538088E+02  0.51100000000E-03 0.  1.
         12    1    3    3    0    0 -0.22981796650E+02 -0.36456531311E+02  0.64982877890E+01  0.43582902573E+02  0.00000000000E+00 0. -1.
</event>
<event>
 7    1  0.2545990E-015  0.9000768E+02  0.7816164E-02  0.1186339E+00
        -11   -1    0    0    0    0  0.00000000000E+00  0.00000000000E+00  0.45593999997E+02  0.45594000000E+02  0.51100000000E-03 0. -1.
         11   -1    0    0    0    0 -0.00000000000E+00 -0.00000000000E+00 -0.45593999997E+02  0.45594000000E+02  0.51100000000E-03 0.  1.
    9900012    2    1    2    0    0 -0.35505032488E+00  0.16820161429E-01  0.11255293891E+01  0.90007677986E+02  0.89999938535E+02 0.  0.
        -12    1    1    2    0    0  0.35505032488E+00 -0.16820161429E-01 -0.11255293891E+01  0.11803220140E+01  0.00000000000E+00 0.  1.
         11    1    3    3    0    0  0.26535291029E+00  0.74284865484E+01 -0.62728439437E+01  0.97263248953E+01  0.51100000000E-03 0. -1.
        -11    1    3    3    0    0 -0.65799546892E+01  0.23772858319E+02 -0.24859333303E+02  0.35020437589E+02  0.51100000000E-03 0.  1.
         12    1    3    3    0    0  0.59595514540E+01 -0.31184524706E+02  0.32257706636E+02  0.45260915502E+02  0.00000000000E+00 0. -1.
</event>
<event>
 7    1  0.2405891E-015  0.9000774E+02  0.7816164E-02  0.1186339E+00
        -11   -1    0    0    0    0  0.00000000000E+00  0.00000000000E+00  0.45593999997E+02  0.45594000000E+02  0.51100000000E-03 0.  1.
         11   -1    0    0    0    0 -0.00000000000E+00 -0.00000000000E+00 -0.45593999997E+02  0.45594000000E+02  0.51100000000E-03 0. -1.
    9900012    2    1    2    0    0  0.40826407580E+00 -0.10540719941E+01 -0.33950119777E+00  0.90007742237E+02  0.90000003634E+02 0.  0.
        -12    1    1    2    0    0 -0.40826407580E+00  0.10540719941E+01  0.33950119777E+00  0.11802577632E+01  0.00000000000E+00 0.  1.
         11    1    3    3    0    0  0.11120263357E+02 -0.10584246894E+01 -0.20334371094E+01  0.11354091187E+02  0.51100000000E-03 0. -1.
        -11    1    3    3    0    0  0.11044200228E+02 -0.34877379222E+02  0.68537135836E+01  0.37220684172E+02  0.51100000000E-03 0.  1.
         12    1    3    3    0    0 -0.21756199510E+02  0.34881731917E+02 -0.51597776720E+01  0.41432966877E+02  0.00000000000E+00 0. -1.
</event>
<event>
 7    1  0.2405891E-015  0.9000773E+02  0.7816164E-02  0.1186339E+00
        -11   -1    0    0    0    0  0.00000000000E+00  0.00000000000E+00  0.45593999997E+02  0.45594000000E+02  0.51100000000E-03 0.  1.
         11   -1    0    0    0    0 -0.00000000000E+00 -0.00000000000E+00 -0.45593999997E+02  0.45594000000E+02  0.51100000000E-03 0. -1.
    9900012    2    1    2    0    0  0.46959769949E+00  0.28571211078E+00 -0.10444531295E+01  0.90007730645E+02  0.89999991890E+02 0.  0.
        -12    1    1    2    0    0 -0.46959769949E+00 -0.28571211078E+00  0.10444531295E+01  0.11802693546E+01  0.00000000000E+00 0.  1.
         11    1    3    3    0    0 -0.32436674620E+01  0.77774384553E+01  0.10029636803E+02  0.13099753516E+02  0.51100000000E-03 0. -1.
        -11    1    3    3    0    0  0.27471025986E+02 -0.13737594249E+02  0.20482195313E+02  0.36917463206E+02  0.51100000000E-03 0.  1.
         12    1    3    3    0    0 -0.23757760825E+02  0.62458679042E+01 -0.31556285246E+02  0.39990513923E+02  0.00000000000E+00 0. -1.
</event>
<event>
 7    1  0.3456170E-015  0.9000772E+02  0.7816164E-02  0.1186339E+00
        -11   -1    0    0    0    0  0.00000000000E+00  0.00000000000E+00  0.45593999997E+02  0.45594000000E+02  0.51100000000E-03 0. -1.
         11   -1    0    0    0    0 -0.00000000000E+00 -0.00000000000E+00 -0.45593999997E+02  0.45594000000E+02  0.51100000000E-03 0.  1.
    9900012    2    1    2    0    0  0.32336030111E+00 -0.75673211984E+00  0.84608508224E+00  0.90007718105E+02  0.89999979184E+02 0.  0.
        -12    1    1    2    0    0 -0.32336030111E+00  0.75673211984E+00 -0.84608508224E+00  0.11802818951E+01  0.00000000000E+00 0.  1.
         11    1    3    3    0    0 -0.63003692365E+01  0.29390471931E+01 -0.66636031272E+01  0.96299666571E+01  0.51100000000E-03 0. -1.
        -11    1    3    3    0    0 -0.60756946303E+01  0.16297040440E+01 -0.35068400535E+02  0.35628116943E+02  0.51100000000E-03 0.  1.
         12    1    3    3    0    0  0.12699424168E+02 -0.53254833570E+01  0.42578088745E+02  0.44749634505E+02  0.00000000000E+00 0. -1.
</event>
<event>
 7    1  0.2405891E-015  0.9000810E+02  0.7816164E-02  0.1186338E+00
        -11   -1    0    0    0    0  0.00000000000E+00  0.00000000000E+00  0.45593999997E+02  0.45594000000E+02  0.51100000000E-03 0. -1.
         11   -1    0    0    0    0 -0.00000000000E+00 -0.00000000000E+00 -0.45593999997E+02  0.45594000000E+02  0.51100000000E-03 0.  1.
    9900012    2    1    2    0    0  0.10717502945E+01 -0.32343239441E+00  0.37271582233E+00  0.90008095643E+02  0.90000361705E+02 0.  0.
        -12    1    1    2    0    0 -0.10717502945E+01  0.32343239441E+00 -0.37271582233E+00  0.11799043570E+01  0.00000000000E+00 0.  1.
         11    1    3    3    0    0 -0.83698016409E+01  0.56981667185E+01  0.27280264922E+01  0.10486410838E+02  0.51100000000E-03 0. -1.
        -11    1    3    3    0    0 -0.33244860077E+02  0.15995412406E+01 -0.11485798532E+02  0.35209413825E+02  0.51100000000E-03 0.  1.
         12    1    3    3    0    0  0.42686412012E+02 -0.76211403535E+01  0.91304878626E+01  0.44312270980E+02  0.00000000000E+00 0. -1.
</event>
<event>
 7    1  0.2405891E-015  0.9000777E+02  0.7816164E-02  0.1186339E+00
        -11   -1    0    0    0    0  0.00000000000E+00  0.00000000000E+00  0.45593999997E+02  0.45594000000E+02  0.51100000000E-03 0. -1.
         11   -1    0    0    0    0 -0.00000000000E+00 -0.00000000000E+00 -0.45593999997E+02  0.45594000000E+02  0.51100000000E-03 0.  1.
    9900012    2    1    2    0    0  0.91351117835E+00  0.15106938005E+00 -0.73185889066E+00  0.90007770333E+02  0.90000032102E+02 0.  0.
        -12    1    1    2    0    0 -0.91351117835E+00 -0.15106938005E+00  0.73185889066E+00  0.11802296668E+01  0.00000000000E+00 0.  1.
         11    1    3    3    0    0 -0.11749036696E+02 -0.23483993817E+02 -0.29526981610E+02  0.39514307183E+02  0.51100000000E-03 0. -1.
        -11    1    3    3    0    0 -0.12430526177E+01 -0.69196010377E+01  0.14101985593E+01  0.71704057464E+01  0.51100000000E-03 0.  1.
        -12    1    3    3    0    0  0.13905600492E+02  0.30554664235E+02  0.27384924160E+02  0.43323057404E+02  0.00000000000E+00 0.  1.
</event>
<event>
 7    1  0.2405891E-015  0.9000777E+02  0.7816164E-02  0.1186339E+00
        -11   -1    0    0    0    0  0.00000000000E+00  0.00000000000E+00  0.45593999997E+02  0.45594000000E+02  0.51100000000E-03 0. -1.
         11   -1    0    0    0    0 -0.00000000000E+00 -0.00000000000E+00 -0.45593999997E+02  0.45594000000E+02  0.51100000000E-03 0.  1.
    9900012    2    1    2    0    0 -0.16331400301E+00 -0.84958083079E+00  0.80279439072E+00  0.90007772104E+02  0.90000033896E+02 0.  0.
        -12    1    1    2    0    0  0.16331400301E+00  0.84958083079E+00 -0.80279439072E+00  0.11802278955E+01  0.00000000000E+00 0.  1.
         11    1    3    3    0    0  0.30621746062E+01  0.75129309796E+01 -0.65712695666E+01  0.10440432424E+02  0.51100000000E-03 0. -1.
        -11    1    3    3    0    0 -0.12785675086E+02  0.21928729473E+02 -0.23991133188E+02  0.34927312173E+02  0.51100000000E-03 0.  1.
         12    1    3    3    0    0  0.95601864771E+01 -0.30291241283E+02  0.31365197145E+02  0.44640027508E+02  0.00000000000E+00 0. -1.
</event>
<event>
 7    1  0.2405891E-015  0.9000780E+02  0.7816164E-02  0.1186339E+00
        -11   -1    0    0    0    0  0.00000000000E+00  0.00000000000E+00  0.45593999997E+02  0.45594000000E+02  0.51100000000E-03 0.  1.
         11   -1    0    0    0    0 -0.00000000000E+00 -0.00000000000E+00 -0.45593999997E+02  0.45594000000E+02  0.51100000000E-03 0. -1.
    9900012    2    1    2    0    0  0.40213333353E+00  0.72212553392E+00 -0.84243973904E+00  0.90007796111E+02  0.90000058220E+02 0.  0.
        -12    1    1    2    0    0 -0.40213333353E+00 -0.72212553392E+00  0.84243973904E+00  0.11802038886E+01  0.00000000000E+00 0.  1.
         11    1    3    3    0    0 -0.38071057306E+01 -0.15424115756E+02 -0.33516556242E+02  0.37091197655E+02  0.51100000000E-03 0. -1.
        -11    1    3    3    0    0 -0.42908305956E+01  0.28648275851E+01 -0.78720668363E+01  0.94121145780E+01  0.51100000000E-03 0.  1.
        -12    1    3    3    0    0  0.85000696598E+01  0.13281413705E+02  0.40546183339E+02  0.43504483879E+02  0.00000000000E+00 0.  1.
</event>
<event>
 7    1  0.2405891E-015  0.9000782E+02  0.7816164E-02  0.1186339E+00
        -11   -1    0    0    0    0  0.00000000000E+00  0.00000000000E+00  0.45593999997E+02  0.45594000000E+02  0.51100000000E-03 0.  1.
         11   -1    0    0    0    0 -0.00000000000E+00 -0.00000000000E+00 -0.45593999997E+02  0.45594000000E+02  0.51100000000E-03 0. -1.
    9900012    2    1    2    0    0 -0.85681304045E+00  0.79559262311E+00 -0.16038637736E+00  0.90007822048E+02  0.90000084499E+02 0.  0.
        -12    1    1    2    0    0  0.85681304045E+00 -0.79559262311E+00  0.16038637736E+00  0.11801779520E+01  0.00000000000E+00 0.  1.
         11    1    3    3    0    0  0.97229388736E+00  0.88276223769E+01 -0.46855088839E+01  0.10041228311E+02  0.51100000000E-03 0. -1.
        -11    1    3    3    0    0  0.23728096540E+02 -0.21044145974E+02 -0.23804092509E+02  0.39654929903E+02  0.51100000000E-03 0.  1.
         12    1    3    3    0    0 -0.25557203468E+02  0.13012116221E+02  0.28329215015E+02  0.40311663834E+02  0.00000000000E+00 0. -1.
</event>
<event>
 7    1  0.2405891E-015  0.9000779E+02  0.7816164E-02  0.1186339E+00
        -11   -1    0    0    0    0  0.00000000000E+00  0.00000000000E+00  0.45593999997E+02  0.45594000000E+02  0.51100000000E-03 0.  1.
         11   -1    0    0    0    0 -0.00000000000E+00 -0.00000000000E+00 -0.45593999997E+02  0.45594000000E+02  0.51100000000E-03 0. -1.
    9900012    2    1    2    0    0  0.10559854679E+01 -0.45944622249E+00  0.25825048372E+00  0.90007792623E+02  0.90000054686E+02 0.  0.
        -12    1    1    2    0    0 -0.10559854679E+01  0.45944622249E+00 -0.25825048372E+00  0.11802073767E+01  0.00000000000E+00 0.  1.
         11    1    3    3    0    0 -0.33435122953E+02  0.12056648950E+02  0.58155735163E+01  0.36015151345E+02  0.51100000000E-03 0. -1.
        -11    1    3    3    0    0 -0.38826892358E+01  0.69204320941E+01  0.54064863086E+01  0.96019659725E+01  0.51100000000E-03 0.  1.
        -12    1    3    3    0    0  0.38373797657E+02 -0.19436527267E+02 -0.10963809341E+02  0.44390675306E+02  0.00000000000E+00 0.  1.
</event>
<event>
 7    1  0.2405891E-015  0.9000730E+02  0.7816164E-02  0.1186340E+00
        -11   -1    0    0    0    0  0.00000000000E+00  0.00000000000E+00  0.45593999997E+02  0.45594000000E+02  0.51100000000E-03 0.  1.
         11   -1    0    0    0    0 -0.00000000000E+00 -0.00000000000E+00 -0.45593999997E+02  0.45594000000E+02  0.51100000000E-03 0. -1.
    9900012    2    1    2    0    0 -0.11025901667E+01 -0.13367117041E+00 -0.40059606142E+00  0.90007300944E+02  0.89999556515E+02 0.  0.
        -12    1    1    2    0    0  0.11025901667E+01  0.13367117041E+00  0.40059606142E+00  0.11806990565E+01  0.00000000000E+00 0.  1.
         11    1    3    3    0    0  0.16988076370E+02  0.55041198003E+01  0.70525007299E+00  0.17871414367E+02  0.51100000000E-03 0. -1.
        -11    1    3    3    0    0 -0.21298248033E+02  0.11620898021E+02 -0.29843076251E+02  0.38461277157E+02  0.51100000000E-03 0.  1.
         12    1    3    3    0    0  0.32075814964E+01 -0.17258688992E+02  0.28737230117E+02  0.33674609420E+02  0.00000000000E+00 0. -1.
</event>
<event>
 7    1  0.2405891E-015  0.9000775E+02  0.7816164E-02  0.1186339E+00
        -11   -1    0    0    0    0  0.00000000000E+00  0.00000000000E+00  0.45593999997E+02  0.45594000000E+02  0.51100000000E-03 0.  1.
         11   -1    0    0    0    0 -0.00000000000E+00 -0.00000000000E+00 -0.45593999997E+02  0.45594000000E+02  0.51100000000E-03 0. -1.
    9900012    2    1    2    0    0  0.29390110306E+00 -0.90115551783E+00 -0.70322633990E+00  0.90007751547E+02  0.90000013067E+02 0.  0.
        -12    1    1    2    0    0 -0.29390110306E+00  0.90115551783E+00  0.70322633990E+00  0.11802484530E+01  0.00000000000E+00 0.  1.
         11    1    3    3    0    0  0.14875799526E+01  0.61359471661E+01  0.39640472162E+01  0.74549589090E+01  0.51100000000E-03 0. -1.
        -11    1    3    3    0    0 -0.11950521976E+02  0.78883048449E+01  0.35550911794E+02  0.38326331138E+02  0.51100000000E-03 0.  1.
         12    1    3    3    0    0  0.10756843126E+02 -0.14925407529E+02 -0.40218185350E+02  0.44226461500E+02  0.00000000000E+00 0. -1.
</event>
<event>
 7    1  0.2405891E-015  0.9000669E+02  0.7816164E-02  0.1186341E+00
        -11   -1    0    0    0    0  0.00000000000E+00  0.00000000000E+00  0.45593999997E+02  0.45594000000E+02  0.51100000000E-03 0. -1.
         11   -1    0    0    0    0 -0.00000000000E+00 -0.00000000000E+00 -0.45593999997E+02  0.45594000000E+02  0.51100000000E-03 0.  1.
    9900012    2    1    2    0    0  0.39577177631E+00  0.11107451800E+01 -0.71437672578E-01  0.90006689924E+02  0.89998937425E+02 0.  0.
        -12    1    1    2    0    0 -0.39577177631E+00 -0.11107451800E+01  0.71437672578E-01  0.11813100756E+01  0.00000000000E+00 0.  1.
         11    1    3    3    0    0 -0.99587128404E+00 -0.33992963157E+00  0.38813311308E+02  0.38827573279E+02  0.51100000000E-03 0. -1.
        -11    1    3    3    0    0 -0.17856080779E+01 -0.10267982155E+02  0.21702253420E-01  0.10422107512E+02  0.51100000000E-03 0.  1.
        -12    1    3    3    0    0  0.31772511382E+01  0.11718656966E+02 -0.38906451234E+02  0.40757009134E+02  0.00000000000E+00 0.  1.
</event>
<event>
 7    1  0.2405891E-015  0.9000782E+02  0.7816164E-02  0.1186339E+00
        -11   -1    0    0    0    0  0.00000000000E+00  0.00000000000E+00  0.45593999997E+02  0.45594000000E+02  0.51100000000E-03 0.  1.
         11   -1    0    0    0    0 -0.00000000000E+00 -0.00000000000E+00 -0.45593999997E+02  0.45594000000E+02  0.51100000000E-03 0. -1.
    9900012    2    1    2    0    0  0.11428040961E+00  0.11646717299E+01 -0.15266706576E+00  0.90007818877E+02  0.90000081286E+02 0.  0.
        -12    1    1    2    0    0 -0.11428040961E+00 -0.11646717299E+01  0.15266706576E+00  0.11801811231E+01  0.00000000000E+00 0.  1.
         11    1    3    3    0    0 -0.29538215716E+02  0.14074830854E+02 -0.12618917716E+02  0.35069133662E+02  0.51100000000E-03 0. -1.
        -11    1    3    3    0    0 -0.69846097180E+01  0.75809172287E+01  0.73279057868E+01  0.12647263831E+02  0.51100000000E-03 0.  1.
        -12    1    3    3    0    0  0.36637105843E+02 -0.20491076353E+02  0.51383448629E+01  0.42291421383E+02  0.00000000000E+00 0.  1.
</event>
<event>
 7    1  0.2405891E-015  0.9000777E+02  0.7816164E-02  0.1186339E+00
        -11   -1    0    0    0    0  0.00000000000E+00  0.00000000000E+00  0.45593999997E+02  0.45594000000E+02  0.51100000000E-03 0.  1.
         11   -1    0    0    0    0 -0.00000000000E+00 -0.00000000000E+00 -0.45593999997E+02  0.45594000000E+02  0.51100000000E-03 0. -1.
    9900012    2    1    2    0    0  0.79339898386E+00  0.26580376897E+00 -0.83235504853E+00  0.90007767600E+02  0.90000029332E+02 0.  0.
        -12    1    1    2    0    0 -0.79339898386E+00 -0.26580376897E+00  0.83235504853E+00  0.11802324000E+01  0.00000000000E+00 0.  1.
         11    1    3    3    0    0  0.36460346409E+02  0.11139919591E+02 -0.71016488862E+01  0.38779995950E+02  0.51100000000E-03 0. -1.
        -11    1    3    3    0    0  0.33257380260E+01  0.56309055868E+01 -0.39897476542E+01  0.76606603991E+01  0.51100000000E-03 0.  1.
        -12    1    3    3    0    0 -0.38992685451E+02 -0.16505021409E+02  0.10259041492E+02  0.43567111251E+02  0.00000000000E+00 0.  1.
</event>
<event>
 7    1  0.2405891E-015  0.9000770E+02  0.7816164E-02  0.1186339E+00
        -11   -1    0    0    0    0  0.00000000000E+00  0.00000000000E+00  0.45593999997E+02  0.45594000000E+02  0.51100000000E-03 0. -1.
         11   -1    0    0    0    0 -0.00000000000E+00 -0.00000000000E+00 -0.45593999997E+02  0.45594000000E+02  0.51100000000E-03 0.  1.
    9900012    2    1    2    0    0  0.11056002375E+00  0.85997511339E+00  0.80082205971E+00  0.90007704831E+02  0.89999965735E+02 0.  0.
        -12    1    1    2    0    0 -0.11056002375E+00 -0.85997511339E+00 -0.80082205971E+00  0.11802951689E+01  0.00000000000E+00 0.  1.
         11    1    3    3    0    0 -0.26242178623E+01 -0.89670403191E-01  0.96064516279E+01  0.99588389539E+01  0.51100000000E-03 0. -1.
        -11    1    3    3    0    0  0.38317544076E+02  0.12628872601E+02 -0.12943560244E+02  0.42370489249E+02  0.51100000000E-03 0.  1.
         12    1    3    3    0    0 -0.35582766190E+02 -0.11679227085E+02  0.41379306758E+01  0.37678376628E+02  0.00000000000E+00 0. -1.
</event>
<event>
 7    1  0.2405891E-015  0.9000766E+02  0.7816164E-02  0.1186339E+00
        -11   -1    0    0    0    0  0.00000000000E+00  0.00000000000E+00  0.45593999997E+02  0.45594000000E+02  0.51100000000E-03 0.  1.
         11   -1    0    0    0    0 -0.00000000000E+00 -0.00000000000E+00 -0.45593999997E+02  0.45594000000E+02  0.51100000000E-03 0. -1.
    9900012    2    1    2    0    0 -0.94693042562E+00  0.10197306594E+00  0.69723115746E+00  0.90007658090E+02  0.89999918377E+02 0.  0.
        -12    1    1    2    0    0  0.94693042562E+00 -0.10197306594E+00 -0.69723115746E+00  0.11803419098E+01  0.00000000000E+00 0.  1.
         11    1    3    3    0    0 -0.18714959725E+02  0.28538343633E+02  0.11199282479E+02  0.35918111074E+02  0.51100000000E-03 0. -1.
        -11    1    3    3    0    0  0.61801099672E+01  0.10637298608E+02 -0.26424778098E+01  0.12582868120E+02  0.51100000000E-03 0.  1.
        -12    1    3    3    0    0  0.11587919332E+02 -0.39073669175E+02 -0.78595735114E+01  0.41506678897E+02  0.00000000000E+00 0.  1.
</event>
<event>
 7    1  0.2405891E-015  0.9000774E+02  0.7816164E-02  0.1186339E+00
        -11   -1    0    0    0    0  0.00000000000E+00  0.00000000000E+00  0.45593999997E+02  0.45594000000E+02  0.51100000000E-03 0.  1.
         11   -1    0    0    0    0 -0.00000000000E+00 -0.00000000000E+00 -0.45593999997E+02  0.45594000000E+02  0.51100000000E-03 0. -1.
    9900012    2    1    2    0    0 -0.24080887702E+00  0.82699568193E+00 -0.80691507967E+00  0.90007736166E+02  0.89999997483E+02 0.  0.
        -12    1    1    2    0    0  0.24080887702E+00 -0.82699568193E+00  0.80691507967E+00  0.11802638345E+01  0.00000000000E+00 0.  1.
         11    1    3    3    0    0  0.45817200651E+01  0.25360408451E+01 -0.85840292919E+01  0.10055308104E+02  0.51100000000E-03 0. -1.
        -11    1    3    3    0    0 -0.41758092396E+02 -0.44726788750E+01 -0.50050739795E+00  0.41999924343E+02  0.51100000000E-03 0.  1.
         12    1    3    3    0    0  0.36935563454E+02  0.27636337119E+01  0.82776216102E+01  0.37952503718E+02  0.00000000000E+00 0. -1.
</event>
<event>
 7    1  0.2405891E-015  0.9000783E+02  0.7816164E-02  0.1186339E+00
        -11   -1    0    0    0    0  0.00000000000E+00  0.00000000000E+00  0.45593999997E+02  0.45594000000E+02  0.51100000000E-03 0.  1.
         11   -1    0    0    0    0 -0.00000000000E+00 -0.00000000000E+00 -0.45593999997E+02  0.45594000000E+02  0.51100000000E-03 0. -1.
    9900012    2    1    2    0    0 -0.10406012144E+00 -0.11749833537E+01  0.37122920254E-01  0.90007833697E+02  0.90000096302E+02 0.  0.
        -12    1    1    2    0    0  0.10406012144E+00  0.11749833537E+01 -0.37122920254E-01  0.11801663025E+01  0.00000000000E+00 0.  1.
         11    1    3    3    0    0  0.53034816888E+01 -0.82289549731E+01  0.41267270484E+01  0.10624146759E+02  0.51100000000E-03 0. -1.
        -11    1    3    3    0    0  0.35160045685E+02  0.67601350711E-04  0.87861847858E+01  0.36241217639E+02  0.51100000000E-03 0.  1.
         12    1    3    3    0    0 -0.40567587495E+02  0.70539040181E+01 -0.12875788914E+02  0.43142469299E+02  0.00000000000E+00 0. -1.
</event>
<event>
 7    1  0.2405891E-015  0.9000777E+02  0.7816164E-02  0.1186339E+00
        -11   -1    0    0    0    0  0.00000000000E+00  0.00000000000E+00  0.45593999997E+02  0.45594000000E+02  0.51100000000E-03 0.  1.
         11   -1    0    0    0    0 -0.00000000000E+00 -0.00000000000E+00 -0.45593999997E+02  0.45594000000E+02  0.51100000000E-03 0. -1.
    9900012    2    1    2    0    0 -0.25202029228E+00 -0.11529098171E+01 -0.15149206958E-01  0.90007769187E+02  0.90000030940E+02 0.  0.
        -12    1    1    2    0    0  0.25202029228E+00  0.11529098171E+01  0.15149206958E-01  0.11802308133E+01  0.00000000000E+00 0.  1.
         11    1    3    3    0    0  0.19936951611E+02  0.38074465384E+01 -0.55244217397E+00  0.20304774840E+02  0.51100000000E-03 0. -1.
        -11    1    3    3    0    0 -0.32660866663E+02  0.20079800747E+02 -0.10306108577E+02  0.39700711373E+02  0.51100000000E-03 0.  1.
        -12    1    3    3    0    0  0.12471894760E+02 -0.25040157103E+02  0.10843401544E+02  0.30002282974E+02  0.00000000000E+00 0.  1.
</event>
<event>
 7    1  0.2405891E-015  0.9000776E+02  0.7816164E-02  0.1186339E+00
        -11   -1    0    0    0    0  0.00000000000E+00  0.00000000000E+00  0.45593999997E+02  0.45594000000E+02  0.51100000000E-03 0. -1.
         11   -1    0    0    0    0 -0.00000000000E+00 -0.00000000000E+00 -0.45593999997E+02  0.45594000000E+02  0.51100000000E-03 0.  1.
    9900012    2    1    2    0    0 -0.10959193998E+01 -0.39682332361E+00  0.18560405655E+00  0.90007764029E+02  0.90000025714E+02 0.  0.
        -12    1    1    2    0    0  0.10959193998E+01  0.39682332361E+00 -0.18560405655E+00  0.11802359708E+01  0.00000000000E+00 0.  1.
         11    1    3    3    0    0 -0.36893875644E+01  0.37019765102E+01  0.83090843995E+01  0.98161649589E+01  0.51100000000E-03 0. -1.
        -11    1    3    3    0    0  0.39980523697E+02  0.23670120689E+01 -0.12601485728E+02  0.41986217549E+02  0.51100000000E-03 0.  1.
         12    1    3    3    0    0 -0.37387055533E+02 -0.64658119027E+01  0.44780053849E+01  0.38205381521E+02  0.00000000000E+00 0. -1.
</event>
<event>
 7    1  0.2421566E-015  0.9000780E+02  0.7816164E-02  0.1186339E+00
        -11   -1    0    0    0    0  0.00000000000E+00  0.00000000000E+00  0.45593999997E+02  0.45594000000E+02  0.51100000000E-03 0. -1.
         11   -1    0    0    0    0 -0.00000000000E+00 -0.00000000000E+00 -0.45593999997E+02  0.45594000000E+02  0.51100000000E-03 0.  1.
    9900012    2    1    2    0    0 -0.98505558684E+00 -0.64876674370E+00  0.40543858133E-01  0.90007798068E+02  0.90000060202E+02 0.  0.
        -12    1    1    2    0    0  0.98505558684E+00  0.64876674370E+00 -0.40543858133E-01  0.11802019324E+01  0.00000000000E+00 0.  1.
         11    1    3    3    0    0  0.76034778705E+01  0.43723329019E+01  0.24447401462E+01  0.91053240127E+01  0.51100000000E-03 0. -1.
        -11    1    3    3    0    0  0.12528186861E+02  0.33246530043E+02 -0.91242489226E+01  0.36681591359E+02  0.51100000000E-03 0.  1.
         12    1    3    3    0    0 -0.21116720318E+02 -0.38267629689E+02  0.67200526346E+01  0.44220882696E+02  0.00000000000E+00 0. -1.
</event>
<event>
 7    1  0.2405891E-015  0.9000774E+02  0.7816164E-02  0.1186339E+00
        -11   -1    0    0    0    0  0.00000000000E+00  0.00000000000E+00  0.45593999997E+02  0.45594000000E+02  0.51100000000E-03 0.  1.
         11   -1    0    0    0    0 -0.00000000000E+00 -0.00000000000E+00 -0.45593999997E+02  0.45594000000E+02  0.51100000000E-03 0. -1.
    9900012    2    1    2    0    0 -0.47054514370E+00  0.43479474717E+00 -0.99124441809E+00  0.90007735326E+02  0.89999996632E+02 0.  0.
        -12    1    1    2    0    0  0.47054514370E+00 -0.43479474717E+00  0.99124441809E+00  0.11802646741E+01  0.00000000000E+00 0.  1.
         11    1    3    3    0    0 -0.73781820403E+01 -0.21458116003E+01  0.38509465285E+01  0.85948744651E+01  0.51100000000E-03 0. -1.
        -11    1    3    3    0    0  0.24412724167E+02 -0.31797868015E+02  0.77509605373E+01  0.40830906199E+02  0.51100000000E-03 0.  1.
         12    1    3    3    0    0 -0.17505087270E+02  0.34378474363E+02 -0.12593151484E+02  0.40581954661E+02  0.00000000000E+00 0. -1.
</event>
<event>
 7    1  0.2510170E-015  0.9000776E+02  0.7816164E-02  0.1186339E+00
        -11   -1    0    0    0    0  0.00000000000E+00  0.00000000000E+00  0.45593999997E+02  0.45594000000E+02  0.51100000000E-03 0. -1.
         11   -1    0    0    0    0 -0.00000000000E+00 -0.00000000000E+00 -0.45593999997E+02  0.45594000000E+02  0.51100000000E-03 0.  1.
    9900012    2    1    2    0    0 -0.14792396452E+00 -0.11632952265E+01 -0.13354210319E+00  0.90007758170E+02  0.90000019778E+02 0.  0.
        -12    1    1    2    0    0  0.14792396452E+00  0.11632952265E+01  0.13354210319E+00  0.11802418297E+01  0.00000000000E+00 0.  1.
         11    1    3    3    0    0  0.71939053283E+01  0.29540614092E+01 -0.50434926761E+01  0.92690652882E+01  0.51100000000E-03 0. -1.
        -11    1    3    3    0    0 -0.72650270622E+01 -0.49480520301E+00 -0.37486742120E+02  0.38187449319E+02  0.51100000000E-03 0.  1.
         12    1    3    3    0    0 -0.76802230659E-01 -0.36225514327E+01  0.42396692693E+02  0.42551243563E+02  0.00000000000E+00 0. -1.
</event>
<event>
 7    1  0.2405891E-015  0.9000773E+02  0.7816164E-02  0.1186339E+00
        -11   -1    0    0    0    0  0.00000000000E+00  0.00000000000E+00  0.45593999997E+02  0.45594000000E+02  0.51100000000E-03 0.  1.
         11   -1    0    0    0    0 -0.00000000000E+00 -0.00000000000E+00 -0.45593999997E+02  0.45594000000E+02  0.51100000000E-03 0. -1.
    9900012    2    1    2    0    0  0.40643540840E+00 -0.20653145437E-01 -0.11078931411E+01  0.90007727360E+02  0.89999988561E+02 0.  0.
        -12    1    1    2    0    0 -0.40643540840E+00  0.20653145437E-01  0.11078931411E+01  0.11802726404E+01  0.00000000000E+00 0.  1.
         11    1    3    3    0    0 -0.36071511439E+02 -0.20519400419E+01 -0.23690302699E+01  0.36207412226E+02  0.51100000000E-03 0. -1.
        -11    1    3    3    0    0 -0.63487525582E+01 -0.75595203635E+01  0.88272847546E+00  0.99112167262E+01  0.51100000000E-03 0.  1.
        -12    1    3    3    0    0  0.42826699406E+02  0.95908072599E+01  0.37840865338E+00  0.43889098407E+02  0.00000000000E+00 0.  1.
</event>
<event>
 7    1  0.2405891E-015  0.9000766E+02  0.7816164E-02  0.1186339E+00
        -11   -1    0    0    0    0  0.00000000000E+00  0.00000000000E+00  0.45593999997E+02  0.45594000000E+02  0.51100000000E-03 0.  1.
         11   -1    0    0    0    0 -0.00000000000E+00 -0.00000000000E+00 -0.45593999997E+02  0.45594000000E+02  0.51100000000E-03 0. -1.
    9900012    2    1    2    0    0  0.28581622946E+00  0.10891332786E+01  0.35396800029E+00  0.90007662946E+02  0.89999923297E+02 0.  0.
        -12    1    1    2    0    0 -0.28581622946E+00 -0.10891332786E+01 -0.35396800029E+00  0.11803370539E+01  0.00000000000E+00 0.  1.
         11    1    3    3    0    0 -0.76418220867E+01 -0.18291690510E+01 -0.70445264108E+01  0.10553134929E+02  0.51100000000E-03 0. -1.
        -11    1    3    3    0    0 -0.47036210852E+01  0.10511856709E+02  0.41093832802E+02  0.42676999396E+02  0.51100000000E-03 0.  1.
         12    1    3    3    0    0  0.12631259401E+02 -0.75935543795E+01 -0.33695338391E+02  0.36777528621E+02  0.00000000000E+00 0. -1.
</event>
<event>
 7    1  0.2405891E-015  0.9000775E+02  0.7816164E-02  0.1186339E+00
        -11   -1    0    0    0    0  0.00000000000E+00  0.00000000000E+00  0.45593999997E+02  0.45594000000E+02  0.51100000000E-03 0. -1.
         11   -1    0    0    0    0 -0.00000000000E+00 -0.00000000000E+00 -0.45593999997E+02  0.45594000000E+02  0.51100000000E-03 0.  1.
    9900012    2    1    2    0    0 -0.62952625139E+00 -0.29148615487E+00  0.95483663548E+00  0.90007754059E+02  0.90000015613E+02 0.  0.
        -12    1    1    2    0    0  0.62952625139E+00  0.29148615487E+00 -0.95483663548E+00  0.11802459405E+01  0.00000000000E+00 0.  1.
         11    1    3    3    0    0  0.11089296905E+02  0.21188609110E+02  0.31514414571E+02  0.39561192953E+02  0.51100000000E-03 0. -1.
        -11    1    3    3    0    0  0.93563769724E+01 -0.11487150351E+02 -0.45228885891E+01  0.15490414284E+02  0.51100000000E-03 0.  1.
        -12    1    3    3    0    0 -0.21075200129E+02 -0.99929449140E+01 -0.26036689347E+02  0.34956146822E+02  0.00000000000E+00 0.  1.
</event>
<event>
 7    1  0.2405891E-015  0.9000770E+02  0.7816164E-02  0.1186339E+00
        -11   -1    0    0    0    0  0.00000000000E+00  0.00000000000E+00  0.45593999997E+02  0.45594000000E+02  0.51100000000E-03 0. -1.
         11   -1    0    0    0    0 -0.00000000000E+00 -0.00000000000E+00 -0.45593999997E+02  0.45594000000E+02  0.51100000000E-03 0.  1.
    9900012    2    1    2    0    0 -0.95601815101E+00 -0.98387627831E-01  0.68516227958E+00  0.90007704198E+02  0.89999965094E+02 0.  0.
        -12    1    1    2    0    0  0.95601815101E+00  0.98387627831E-01 -0.68516227958E+00  0.11802958018E+01  0.00000000000E+00 0.  1.
         11    1    3    3    0    0  0.30719067075E+02  0.10430968688E+02  0.21964579279E+02  0.39177913841E+02  0.51100000000E-03 0. -1.
        -11    1    3    3    0    0  0.58291157913E+01 -0.19292763265E+01 -0.80861511873E+01  0.10153154157E+02  0.51100000000E-03 0.  1.
        -12    1    3    3    0    0 -0.37504201018E+02 -0.86000799890E+01 -0.13193265812E+02  0.40676636200E+02  0.00000000000E+00 0.  1.
</event>
<event>
 7    1  0.2405891E-015  0.9000772E+02  0.7816164E-02  0.1186339E+00
        -11   -1    0    0    0    0  0.00000000000E+00  0.00000000000E+00  0.45593999997E+02  0.45594000000E+02  0.51100000000E-03 0.  1.
         11   -1    0    0    0    0 -0.00000000000E+00 -0.00000000000E+00 -0.45593999997E+02  0.45594000000E+02  0.51100000000E-03 0. -1.
    9900012    2    1    2    0    0 -0.77334902861E+00 -0.55830934851E+00 -0.69517901518E+00  0.90007723799E+02  0.89999984953E+02 0.  0.
        -12    1    1    2    0    0  0.77334902861E+00  0.55830934851E+00  0.69517901518E+00  0.11802762015E+01  0.00000000000E+00 0.  1.
         11    1    3    3    0    0  0.12741086433E+02 -0.34001382026E+02  0.23199950647E+01  0.36384222413E+02  0.51100000000E-03 0. -1.
        -11    1    3    3    0    0  0.45796892704E+01 -0.68096418882E+01 -0.47034506742E+01  0.94587115912E+01  0.51100000000E-03 0.  1.
        -12    1    3    3    0    0 -0.18094124732E+02  0.40252714566E+02  0.16882765944E+01  0.44164789795E+02  0.00000000000E+00 0.  1.
</event>
<event>
 7    1  0.2405891E-015  0.9000770E+02  0.7816164E-02  0.1186339E+00
        -11   -1    0    0    0    0  0.00000000000E+00  0.00000000000E+00  0.45593999997E+02  0.45594000000E+02  0.51100000000E-03 0.  1.
         11   -1    0    0    0    0 -0.00000000000E+00 -0.00000000000E+00 -0.45593999997E+02  0.45594000000E+02  0.51100000000E-03 0. -1.
    9900012    2    1    2    0    0 -0.53296721469E+00 -0.32469168127E+00 -0.10018152274E+01  0.90007698136E+02  0.89999958952E+02 0.  0.
        -12    1    1    2    0    0  0.53296721469E+00  0.32469168127E+00  0.10018152274E+01  0.11803018638E+01  0.00000000000E+00 0.  1.
         11    1    3    3    0    0 -0.10852716778E+02  0.53242100869E+01  0.13619532857E+01  0.12164850658E+02  0.51100000000E-03 0. -1.
        -11    1    3    3    0    0  0.35778149383E+01 -0.24834083644E+02  0.30316329146E+02  0.39352411404E+02  0.51100000000E-03 0.  1.
         12    1    3    3    0    0  0.67419346254E+01  0.19185181876E+02 -0.32680097659E+02  0.38490436074E+02  0.00000000000E+00 0. -1.
</event>
<event>
 7    1  0.2405891E-015  0.9000775E+02  0.7816164E-02  0.1186339E+00
        -11   -1    0    0    0    0  0.00000000000E+00  0.00000000000E+00  0.45593999997E+02  0.45594000000E+02  0.51100000000E-03 0.  1.
         11   -1    0    0    0    0 -0.00000000000E+00 -0.00000000000E+00 -0.45593999997E+02  0.45594000000E+02  0.51100000000E-03 0. -1.
    9900012    2    1    2    0    0  0.73041246843E+00  0.52222158488E+00 -0.76600711291E+00  0.90007752291E+02  0.90000013821E+02 0.  0.
        -12    1    1    2    0    0 -0.73041246843E+00 -0.52222158488E+00  0.76600711291E+00  0.11802477091E+01  0.00000000000E+00 0.  1.
         11    1    3    3    0    0  0.71789425792E+01 -0.66972025138E+01  0.25911751889E+01  0.10154010399E+02  0.51100000000E-03 0. -1.
        -11    1    3    3    0    0 -0.32508506492E+01 -0.26298563637E+02 -0.27678471637E+02  0.38318145463E+02  0.51100000000E-03 0.  1.
         12    1    3    3    0    0 -0.31976794616E+01  0.33517987736E+02  0.24321289335E+02  0.41535596429E+02  0.00000000000E+00 0. -1.
</event>
<event>
 7    1  0.2405891E-015  0.9000777E+02  0.7816164E-02  0.1186339E+00
        -11   -1    0    0    0    0  0.00000000000E+00  0.00000000000E+00  0.45593999997E+02  0.45594000000E+02  0.51100000000E-03 0.  1.
         11   -1    0    0    0    0 -0.00000000000E+00 -0.00000000000E+00 -0.45593999997E+02  0.45594000000E+02  0.51100000000E-03 0. -1.
    9900012    2    1    2    0    0 -0.11199918579E+01 -0.15909428706E-01  0.37188323175E+00  0.90007774594E+02  0.90000036418E+02 0.  0.
        -12    1    1    2    0    0  0.11199918579E+01  0.15909428706E-01 -0.37188323175E+00  0.11802254063E+01  0.00000000000E+00 0.  1.
         11    1    3    3    0    0 -0.67146258369E+01  0.27572537946E+01 -0.26247012207E+01  0.77186595583E+01  0.51100000000E-03 0. -1.
        -11    1    3    3    0    0 -0.23254430095E+02 -0.29327729869E+02  0.16383302237E+02  0.40857029392E+02  0.51100000000E-03 0.  1.
         12    1    3    3    0    0  0.28849064074E+02  0.26554566646E+02 -0.13386717785E+02  0.41432085643E+02  0.00000000000E+00 0. -1.
</event>
<event>
 7    1  0.2405891E-015  0.9000776E+02  0.7816164E-02  0.1186339E+00
        -11   -1    0    0    0    0  0.00000000000E+00  0.00000000000E+00  0.45593999997E+02  0.45594000000E+02  0.51100000000E-03 0. -1.
         11   -1    0    0    0    0 -0.00000000000E+00 -0.00000000000E+00 -0.45593999997E+02  0.45594000000E+02  0.51100000000E-03 0.  1.
    9900012    2    1    2    0    0 -0.50731662430E+00  0.65274454175E+00  0.84232425774E+00  0.90007764537E+02  0.90000026228E+02 0.  0.
        -12    1    1    2    0    0  0.50731662430E+00 -0.65274454175E+00 -0.84232425774E+00  0.11802354635E+01  0.00000000000E+00 0.  1.
         11    1    3    3    0    0 -0.23027823581E+02  0.15202396249E+02 -0.12544448684E+02  0.30310999713E+02  0.51100000000E-03 0. -1.
        -11    1    3    3    0    0 -0.59130216422E+01  0.13515410329E+02  0.13123089373E+02  0.19744508508E+02  0.51100000000E-03 0.  1.
        -12    1    3    3    0    0  0.28433528598E+02 -0.28065062036E+02  0.26368356918E+00  0.39952256315E+02  0.00000000000E+00 0.  1.
</event>
<event>
 7    1  0.2405891E-015  0.9000748E+02  0.7816164E-02  0.1186340E+00
        -11   -1    0    0    0    0  0.00000000000E+00  0.00000000000E+00  0.45593999997E+02  0.45594000000E+02  0.51100000000E-03 0. -1.
         11   -1    0    0    0    0 -0.00000000000E+00 -0.00000000000E+00 -0.45593999997E+02  0.45594000000E+02  0.51100000000E-03 0.  1.
    9900012    2    1    2    0    0  0.32401120007E+00 -0.10624411254E+01  0.39982917234E+00  0.90007479873E+02  0.89999737807E+02 0.  0.
        -12    1    1    2    0    0 -0.32401120007E+00  0.10624411254E+01 -0.39982917234E+00  0.11805201268E+01  0.00000000000E+00 0.  1.
         11    1    3    3    0    0 -0.94027431708E+01 -0.99647501980E+01  0.34289334009E+02  0.36925143909E+02  0.51100000000E-03 0. -1.
        -11    1    3    3    0    0 -0.46983080148E+01 -0.59040111106E+01  0.49921091146E+01  0.90472426224E+01  0.51100000000E-03 0.  1.
        -12    1    3    3    0    0  0.14425062386E+02  0.14806320183E+02 -0.38881613951E+02  0.44035093342E+02  0.00000000000E+00 0.  1.
</event>
<event>
 7    1  0.2405891E-015  0.9000767E+02  0.7816164E-02  0.1186339E+00
        -11   -1    0    0    0    0  0.00000000000E+00  0.00000000000E+00  0.45593999997E+02  0.45594000000E+02  0.51100000000E-03 0.  1.
         11   -1    0    0    0    0 -0.00000000000E+00 -0.00000000000E+00 -0.45593999997E+02  0.45594000000E+02  0.51100000000E-03 0. -1.
    9900012    2    1    2    0    0 -0.81938115265E+00  0.93846205818E-01 -0.84438159480E+00  0.90007672562E+02  0.89999933040E+02 0.  0.
        -12    1    1    2    0    0  0.81938115265E+00 -0.93846205818E-01  0.84438159480E+00  0.11803274382E+01  0.00000000000E+00 0.  1.
         11    1    3    3    0    0  0.18299632547E+02  0.26318573015E+02 -0.17333204722E+02  0.36441512360E+02  0.51100000000E-03 0. -1.
        -11    1    3    3    0    0  0.61539392237E+01  0.68135506261E+01  0.12480342555E+01  0.92656910086E+01  0.51100000000E-03 0.  1.
        -12    1    3    3    0    0 -0.25272952923E+02 -0.33038277435E+02  0.15240788872E+02  0.44300469193E+02  0.00000000000E+00 0.  1.
</event>
<event>
 7    1  0.2405891E-015  0.9000768E+02  0.7816164E-02  0.1186339E+00
        -11   -1    0    0    0    0  0.00000000000E+00  0.00000000000E+00  0.45593999997E+02  0.45594000000E+02  0.51100000000E-03 0. -1.
         11   -1    0    0    0    0 -0.00000000000E+00 -0.00000000000E+00 -0.45593999997E+02  0.45594000000E+02  0.51100000000E-03 0.  1.
    9900012    2    1    2    0    0 -0.13671793510E-01  0.11523509696E+01  0.25504021877E+00  0.90007684285E+02  0.89999944917E+02 0.  0.
        -12    1    1    2    0    0  0.13671793510E-01 -0.11523509696E+01 -0.25504021877E+00  0.11803157155E+01  0.00000000000E+00 0.  1.
         11    1    3    3    0    0 -0.98572384478E+01 -0.13427930592E+02  0.19650370080E+01  0.16773068906E+02  0.51100000000E-03 0. -1.
        -11    1    3    3    0    0 -0.14612460891E+02 -0.13124399157E+02 -0.23269563723E+02  0.30450721874E+02  0.51100000000E-03 0.  1.
         12    1    3    3    0    0  0.24456027545E+02  0.27704680719E+02  0.21559566934E+02  0.42783893505E+02  0.00000000000E+00 0. -1.
</event>
<event>
 7    1  0.2405891E-015  0.9000800E+02  0.7816164E-02  0.1186339E+00
        -11   -1    0    0    0    0  0.00000000000E+00  0.00000000000E+00  0.45593999997E+02  0.45594000000E+02  0.51100000000E-03 0.  1.
         11   -1    0    0    0    0 -0.00000000000E+00 -0.00000000000E+00 -0.45593999997E+02  0.45594000000E+02  0.51100000000E-03 0. -1.
    9900012    2    1    2    0    0  0.28426538863E+00  0.39727875098E-01 -0.11445576443E+01  0.90008001137E+02  0.90000265952E+02 0.  0.
        -12    1    1    2    0    0 -0.28426538863E+00 -0.39727875098E-01  0.11445576443E+01  0.11799988629E+01  0.00000000000E+00 0.  1.
         11    1    3    3    0    0 -0.28078029276E+02  0.18274617508E+02 -0.23367899200E+02  0.40846004534E+02  0.51100000000E-03 0. -1.
        -11    1    3    3    0    0  0.60809409756E+01 -0.11538933382E+02 -0.44371844365E+01  0.13777279584E+02  0.51100000000E-03 0.  1.
        -12    1    3    3    0    0  0.22281353689E+02 -0.66959562508E+01  0.26660525992E+02  0.35384717019E+02  0.00000000000E+00 0.  1.
</event>
<event>
 7    1  0.2405891E-015  0.9000778E+02  0.7816164E-02  0.1186339E+00
        -11   -1    0    0    0    0  0.00000000000E+00  0.00000000000E+00  0.45593999997E+02  0.45594000000E+02  0.51100000000E-03 0.  1.
         11   -1    0    0    0    0 -0.00000000000E+00 -0.00000000000E+00 -0.45593999997E+02  0.45594000000E+02  0.51100000000E-03 0. -1.
    9900012    2    1    2    0    0 -0.55769604256E+00 -0.34322132193E+00 -0.98188287102E+00  0.90007779798E+02  0.90000041692E+02 0.  0.
        -12    1    1    2    0    0  0.55769604256E+00  0.34322132193E+00  0.98188287102E+00  0.11802202015E+01  0.00000000000E+00 0.  1.
         11    1    3    3    0    0 -0.65294266083E+01  0.11697961268E+02 -0.15206485111E+01  0.13482881065E+02  0.51100000000E-03 0. -1.
        -11    1    3    3    0    0 -0.28302050631E+02  0.81874715696E+01  0.16356851937E+02  0.33698477208E+02  0.51100000000E-03 0.  1.
         12    1    3    3    0    0  0.34273781196E+02 -0.20228654159E+02 -0.15818086297E+02  0.42826421526E+02  0.00000000000E+00 0. -1.
</event>
<event>
 7    1  0.2405891E-015  0.9000789E+02  0.7816164E-02  0.1186339E+00
        -11   -1    0    0    0    0  0.00000000000E+00  0.00000000000E+00  0.45593999997E+02  0.45594000000E+02  0.51100000000E-03 0.  1.
         11   -1    0    0    0    0 -0.00000000000E+00 -0.00000000000E+00 -0.45593999997E+02  0.45594000000E+02  0.51100000000E-03 0. -1.
    9900012    2    1    2    0    0  0.11524740369E+01 -0.17053183887E+00 -0.18808682639E+00  0.90007892307E+02  0.90000155685E+02 0.  0.
        -12    1    1    2    0    0 -0.11524740369E+01  0.17053183887E+00  0.18808682639E+00  0.11801076935E+01  0.00000000000E+00 0.  1.
         11    1    3    3    0    0  0.29146126405E+02  0.18691414307E+02 -0.19201263584E+02  0.39592349977E+02  0.51100000000E-03 0. -1.
        -11    1    3    3    0    0  0.14358294798E-01  0.77071315869E+01  0.85920408748E+00  0.77548897725E+01  0.51100000000E-03 0.  1.
        -12    1    3    3    0    0 -0.28008010663E+02 -0.26569077733E+02  0.18153972670E+02  0.42660652557E+02  0.00000000000E+00 0.  1.
</event>
<event>
 7    1  0.2405891E-015  0.9000742E+02  0.7816164E-02  0.1186340E+00
        -11   -1    0    0    0    0  0.00000000000E+00  0.00000000000E+00  0.45593999997E+02  0.45594000000E+02  0.51100000000E-03 0.  1.
         11   -1    0    0    0    0 -0.00000000000E+00 -0.00000000000E+00 -0.45593999997E+02  0.45594000000E+02  0.51100000000E-03 0. -1.
    9900012    2    1    2    0    0 -0.38893616488E+00  0.69454721536E+00 -0.87184495391E+00  0.90007415061E+02  0.89999672139E+02 0.  0.
        -12    1    1    2    0    0  0.38893616488E+00 -0.69454721536E+00  0.87184495391E+00  0.11805849391E+01  0.00000000000E+00 0.  1.
         11    1    3    3    0    0  0.59067293407E+01  0.25569955103E+01  0.75625336606E+01  0.99307398100E+01  0.51100000000E-03 0. -1.
        -11    1    3    3    0    0 -0.36438914188E+02  0.14649516725E+02  0.10746534722E+02  0.40717205408E+02  0.51100000000E-03 0.  1.
         12    1    3    3    0    0  0.30143248682E+02 -0.16511965020E+02 -0.19180913336E+02  0.39359469843E+02  0.00000000000E+00 0. -1.
</event>
<event>
 7    1  0.2405891E-015  0.9000769E+02  0.7816164E-02  0.1186339E+00
        -11   -1    0    0    0    0  0.00000000000E+00  0.00000000000E+00  0.45593999997E+02  0.45594000000E+02  0.51100000000E-03 0. -1.
         11   -1    0    0    0    0 -0.00000000000E+00 -0.00000000000E+00 -0.45593999997E+02  0.45594000000E+02  0.51100000000E-03 0.  1.
    9900012    2    1    2    0    0  0.20610126634E+00  0.10081592909E+01  0.57816889211E+00  0.90007685569E+02  0.89999946219E+02 0.  0.
        -12    1    1    2    0    0 -0.20610126634E+00 -0.10081592909E+01 -0.57816889211E+00  0.11803144308E+01  0.00000000000E+00 0.  1.
         11    1    3    3    0    0 -0.19380759705E+02 -0.26319642561E+02  0.18793231616E+02  0.37703089875E+02  0.51100000000E-03 0. -1.
        -11    1    3    3    0    0 -0.65014344168E+01  0.58394590506E+01  0.61096261906E+01  0.10662807507E+02  0.51100000000E-03 0.  1.
        -12    1    3    3    0    0  0.26088295389E+02  0.21488342801E+02 -0.24324688915E+02  0.41641788187E+02  0.00000000000E+00 0.  1.
</event>
<event>
 7    1  0.2405891E-015  0.9000773E+02  0.7816164E-02  0.1186339E+00
        -11   -1    0    0    0    0  0.00000000000E+00  0.00000000000E+00  0.45593999997E+02  0.45594000000E+02  0.51100000000E-03 0. -1.
         11   -1    0    0    0    0 -0.00000000000E+00 -0.00000000000E+00 -0.45593999997E+02  0.45594000000E+02  0.51100000000E-03 0.  1.
    9900012    2    1    2    0    0 -0.56849449374E+00 -0.10323375441E+01 -0.64300727891E-01  0.90007728261E+02  0.89999989474E+02 0.  0.
        -12    1    1    2    0    0  0.56849449374E+00  0.10323375441E+01  0.64300727891E-01  0.11802717390E+01  0.00000000000E+00 0.  1.
         11    1    3    3    0    0 -0.12543084064E+02 -0.14918914470E+02  0.30017163737E+02  0.35790125536E+02  0.51100000000E-03 0. -1.
        -11    1    3    3    0    0 -0.10367216369E+01  0.47206139665E+01  0.99918639965E+01  0.11099384414E+02  0.51100000000E-03 0.  1.
        -12    1    3    3    0    0  0.13011311208E+02  0.91659629594E+01 -0.40073328462E+02  0.43118218311E+02  0.00000000000E+00 0.  1.
</event>
<event>
 7    1  0.2405891E-015  0.9000772E+02  0.7816164E-02  0.1186339E+00
        -11   -1    0    0    0    0  0.00000000000E+00  0.00000000000E+00  0.45593999997E+02  0.45594000000E+02  0.51100000000E-03 0.  1.
         11   -1    0    0    0    0 -0.00000000000E+00 -0.00000000000E+00 -0.45593999997E+02  0.45594000000E+02  0.51100000000E-03 0. -1.
    9900012    2    1    2    0    0 -0.44101800172E+00  0.84653321582E+00  0.69421811698E+00  0.90007722847E+02  0.89999983989E+02 0.  0.
        -12    1    1    2    0    0  0.44101800172E+00 -0.84653321582E+00 -0.69421811698E+00  0.11802771527E+01  0.00000000000E+00 0.  1.
         11    1    3    3    0    0 -0.10964660759E+01  0.45112732213E+01 -0.73923364761E+01  0.87292876439E+01  0.51100000000E-03 0. -1.
        -11    1    3    3    0    0  0.35119126220E+02  0.18653056874E+02  0.54197713984E+01  0.40133072141E+02  0.51100000000E-03 0.  1.
         12    1    3    3    0    0 -0.34463678146E+02 -0.22317796879E+02  0.26667831946E+01  0.41145363062E+02  0.00000000000E+00 0. -1.
</event>
<event>
 7    1  0.2405891E-015  0.9000781E+02  0.7816164E-02  0.1186339E+00
        -11   -1    0    0    0    0  0.00000000000E+00  0.00000000000E+00  0.45593999997E+02  0.45594000000E+02  0.51100000000E-03 0. -1.
         11   -1    0    0    0    0 -0.00000000000E+00 -0.00000000000E+00 -0.45593999997E+02  0.45594000000E+02  0.51100000000E-03 0.  1.
    9900012    2    1    2    0    0 -0.11250973182E+01 -0.35611173181E+00 -0.14046647251E-01  0.90007806436E+02  0.90000068681E+02 0.  0.
        -12    1    1    2    0    0  0.11250973182E+01  0.35611173181E+00  0.14046647251E-01  0.11801935643E+01  0.00000000000E+00 0.  1.
         11    1    3    3    0    0  0.23014779226E+01  0.21885601366E+01 -0.69484190057E+01  0.76398378936E+01  0.51100000000E-03 0. -1.
        -11    1    3    3    0    0  0.62513672532E+01 -0.12942218192E+02 -0.35137176224E+02  0.37963163165E+02  0.51100000000E-03 0.  1.
         12    1    3    3    0    0 -0.96779424940E+01  0.10397546324E+02  0.42071548582E+02  0.44404805377E+02  0.00000000000E+00 0. -1.
</event>
<event>
 7    1  0.2405891E-015  0.9000778E+02  0.7816164E-02  0.1186339E+00
        -11   -1    0    0    0    0  0.00000000000E+00  0.00000000000E+00  0.45593999997E+02  0.45594000000E+02  0.51100000000E-03 0. -1.
         11   -1    0    0    0    0 -0.00000000000E+00 -0.00000000000E+00 -0.45593999997E+02  0.45594000000E+02  0.51100000000E-03 0.  1.
    9900012    2    1    2    0    0 -0.11043616028E+01 -0.36138985572E+00  0.20663153703E+00  0.90007782321E+02  0.90000044248E+02 0.  0.
        -12    1    1    2    0    0  0.11043616028E+01  0.36138985572E+00 -0.20663153703E+00  0.11802176789E+01  0.00000000000E+00 0.  1.
         11    1    3    3    0    0 -0.77723255657E+00 -0.41640741380E+02  0.73459668751E+01  0.42290881555E+02  0.51100000000E-03 0. -1.
        -11    1    3    3    0    0 -0.71409303624E+01  0.49091781393E+01  0.32950155369E+01  0.92709246622E+01  0.51100000000E-03 0.  1.
        -12    1    3    3    0    0  0.68138013162E+01  0.36370173385E+02 -0.10434350875E+02  0.38445976104E+02  0.00000000000E+00 0.  1.
</event>
<event>
 7    1  0.2405891E-015  0.9000738E+02  0.7816164E-02  0.1186340E+00
        -11   -1    0    0    0    0  0.00000000000E+00  0.00000000000E+00  0.45593999997E+02  0.45594000000E+02  0.51100000000E-03 0. -1.
         11   -1    0    0    0    0 -0.00000000000E+00 -0.00000000000E+00 -0.45593999997E+02  0.45594000000E+02  0.51100000000E-03 0.  1.
    9900012    2    1    2    0    0  0.10769302748E+00 -0.45716919977E-01  0.11748045138E+01  0.90007384283E+02  0.89999640955E+02 0.  0.
        -12    1    1    2    0    0 -0.10769302748E+00  0.45716919977E-01 -0.11748045138E+01  0.11806157168E+01  0.00000000000E+00 0.  1.
         11    1    3    3    0    0 -0.29279632851E+02  0.11207707796E+02  0.19311925636E+02  0.36822005458E+02  0.51100000000E-03 0. -1.
        -11    1    3    3    0    0 -0.42309604320E+01  0.77389292319E+01  0.28105890958E+01  0.92569683569E+01  0.51100000000E-03 0.  1.
        -12    1    3    3    0    0  0.33618286310E+02 -0.18992353948E+02 -0.20947710218E+02  0.43928410468E+02  0.00000000000E+00 0.  1.
</event>
<event>
 7    1  0.2405891E-015  0.9000797E+02  0.7816164E-02  0.1186339E+00
        -11   -1    0    0    0    0  0.00000000000E+00  0.00000000000E+00  0.45593999997E+02  0.45594000000E+02  0.51100000000E-03 0.  1.
         11   -1    0    0    0    0 -0.00000000000E+00 -0.00000000000E+00 -0.45593999997E+02  0.45594000000E+02  0.51100000000E-03 0. -1.
    9900012    2    1    2    0    0  0.57497713103E+00  0.95412412081E+00 -0.38924779646E+00  0.90007972294E+02  0.90000236728E+02 0.  0.
        -12    1    1    2    0    0 -0.57497713103E+00 -0.95412412081E+00  0.38924779646E+00  0.11800277057E+01  0.00000000000E+00 0.  1.
         11    1    3    3    0    0  0.15138527378E+02 -0.15840442108E+02 -0.30399331371E+02  0.37472843039E+02  0.51100000000E-03 0. -1.
        -11    1    3    3    0    0  0.22282534078E+01 -0.95308070009E+01  0.87196325947E+00  0.98265820876E+01  0.51100000000E-03 0.  1.
        -12    1    3    3    0    0 -0.16791803654E+02  0.26325373230E+02  0.29138120315E+02  0.42708547168E+02  0.00000000000E+00 0.  1.
</event>
<event>
 7    1  0.2405891E-015  0.9000760E+02  0.7816164E-02  0.1186339E+00
        -11   -1    0    0    0    0  0.00000000000E+00  0.00000000000E+00  0.45593999997E+02  0.45594000000E+02  0.51100000000E-03 0.  1.
         11   -1    0    0    0    0 -0.00000000000E+00 -0.00000000000E+00 -0.45593999997E+02  0.45594000000E+02  0.51100000000E-03 0. -1.
    9900012    2    1    2    0    0 -0.10837310624E+01  0.58000943603E-03  0.46784470806E+00  0.90007596669E+02  0.89999856145E+02 0.  0.
        -12    1    1    2    0    0  0.10837310624E+01 -0.58000943602E-03 -0.46784470806E+00  0.11804033306E+01  0.00000000000E+00 0.  1.
         11    1    3    3    0    0  0.22218658934E+02 -0.37341160657E+02 -0.51579237434E+01  0.43756545358E+02  0.51100000000E-03 0. -1.
        -11    1    3    3    0    0 -0.75868709663E+01  0.30359791008E+01  0.11563255634E+01  0.82531732824E+01  0.51100000000E-03 0.  1.
        -12    1    3    3    0    0 -0.15715519030E+02  0.34305761566E+02  0.44694428881E+01  0.37997878029E+02  0.00000000000E+00 0.  1.
</event>
<event>
 7    1  0.4147475E-015  0.9000776E+02  0.7816164E-02  0.1186339E+00
        -11   -1    0    0    0    0  0.00000000000E+00  0.00000000000E+00  0.45593999997E+02  0.45594000000E+02  0.51100000000E-03 0. -1.
         11   -1    0    0    0    0 -0.00000000000E+00 -0.00000000000E+00 -0.45593999997E+02  0.45594000000E+02  0.51100000000E-03 0.  1.
    9900012    2    1    2    0    0 -0.13964753557E+00  0.93836323910E+00  0.70209045691E+00  0.90007763578E+02  0.90000025257E+02 0.  0.
        -12    1    1    2    0    0  0.13964753557E+00 -0.93836323910E+00 -0.70209045691E+00  0.11802364222E+01  0.00000000000E+00 0.  1.
         11    1    3    3    0    0 -0.72809125536E+01  0.58227790705E+01 -0.14885121680E+01  0.94409804815E+01  0.51100000000E-03 0. -1.
        -11    1    3    3    0    0 -0.18366842808E+02 -0.22857282265E+01 -0.32516982843E+02  0.37415500020E+02  0.51100000000E-03 0.  1.
         12    1    3    3    0    0  0.25508107826E+02 -0.25986876049E+01  0.34707585468E+02  0.43151283076E+02  0.00000000000E+00 0. -1.
</event>
<event>
 7    1  0.2405891E-015  0.9000782E+02  0.7816164E-02  0.1186339E+00
        -11   -1    0    0    0    0  0.00000000000E+00  0.00000000000E+00  0.45593999997E+02  0.45594000000E+02  0.51100000000E-03 0. -1.
         11   -1    0    0    0    0 -0.00000000000E+00 -0.00000000000E+00 -0.45593999997E+02  0.45594000000E+02  0.51100000000E-03 0.  1.
    9900012    2    1    2    0    0  0.31038449522E-01  0.10306722951E+01  0.57409015860E+00  0.90007818541E+02  0.90000080946E+02 0.  0.
        -12    1    1    2    0    0 -0.31038449522E-01 -0.10306722951E+01 -0.57409015860E+00  0.11801814587E+01  0.00000000000E+00 0.  1.
         11    1    3    3    0    0 -0.18621611665E+02 -0.14039043084E+02 -0.85170196776E+01  0.24827379567E+02  0.51100000000E-03 0. -1.
        -11    1    3    3    0    0 -0.56319772386E+01 -0.20572431302E+02  0.45857826294E+01  0.21816816905E+02  0.51100000000E-03 0.  1.
        -12    1    3    3    0    0  0.24284627353E+02  0.35642146681E+02  0.45053272068E+01  0.43363622069E+02  0.00000000000E+00 0.  1.
</event>
<event>
 7    1  0.2405891E-015  0.9000759E+02  0.7816164E-02  0.1186339E+00
        -11   -1    0    0    0    0  0.00000000000E+00  0.00000000000E+00  0.45593999997E+02  0.45594000000E+02  0.51100000000E-03 0.  1.
         11   -1    0    0    0    0 -0.00000000000E+00 -0.00000000000E+00 -0.45593999997E+02  0.45594000000E+02  0.51100000000E-03 0. -1.
    9900012    2    1    2    0    0 -0.41259445143E+00 -0.46196605262E-01 -0.11049837548E+01  0.90007594389E+02  0.89999853835E+02 0.  0.
        -12    1    1    2    0    0  0.41259445143E+00  0.46196605262E-01  0.11049837548E+01  0.11804056108E+01  0.00000000000E+00 0.  1.
         11    1    3    3    0    0 -0.87586455534E+01  0.52011662685E+01  0.27641768244E+01  0.10554936109E+02  0.51100000000E-03 0. -1.
        -11    1    3    3    0    0  0.21587351374E+02  0.70894571755E+01  0.32017647452E+02  0.39260716893E+02  0.51100000000E-03 0.  1.
         12    1    3    3    0    0 -0.13241300272E+02 -0.12336820049E+02 -0.35886808031E+02  0.40191941387E+02  0.00000000000E+00 0. -1.
</event>
<event>
 7    1  0.2405891E-015  0.9000770E+02  0.7816164E-02  0.1186339E+00
        -11   -1    0    0    0    0  0.00000000000E+00  0.00000000000E+00  0.45593999997E+02  0.45594000000E+02  0.51100000000E-03 0. -1.
         11   -1    0    0    0    0 -0.00000000000E+00 -0.00000000000E+00 -0.45593999997E+02  0.45594000000E+02  0.51100000000E-03 0.  1.
    9900012    2    1    2    0    0 -0.53736351260E+00 -0.97147922768E+00  0.40071664522E+00  0.90007701197E+02  0.89999962053E+02 0.  0.
        -12    1    1    2    0    0  0.53736351260E+00  0.97147922768E+00 -0.40071664522E+00  0.11802988030E+01  0.00000000000E+00 0.  1.
         11    1    3    3    0    0  0.80946479497E+01 -0.16972933012E+02  0.31296787844E+02  0.36511542149E+02  0.51100000000E-03 0. -1.
        -11    1    3    3    0    0  0.16132245422E+01 -0.98488554206E+01  0.22505178756E+01  0.10230702688E+02  0.51100000000E-03 0.  1.
        -12    1    3    3    0    0 -0.10245236005E+02  0.25850309205E+02 -0.33146589074E+02  0.43265456360E+02  0.00000000000E+00 0.  1.
</event>
<event>
 7    1  0.2405891E-015  0.9000773E+02  0.7816164E-02  0.1186339E+00
        -11   -1    0    0    0    0  0.00000000000E+00  0.00000000000E+00  0.45593999997E+02  0.45594000000E+02  0.51100000000E-03 0. -1.
         11   -1    0    0    0    0 -0.00000000000E+00 -0.00000000000E+00 -0.45593999997E+02  0.45594000000E+02  0.51100000000E-03 0.  1.
    9900012    2    1    2    0    0  0.61163292925E+00 -0.30444467935E+00  0.96242492829E+00  0.90007727512E+02  0.89999988715E+02 0.  0.
        -12    1    1    2    0    0 -0.61163292925E+00  0.30444467935E+00 -0.96242492829E+00  0.11802724878E+01  0.00000000000E+00 0.  1.
         11    1    3    3    0    0  0.86776074195E+01 -0.20545588153E+01  0.12532240683E+01  0.90051459333E+01  0.51100000000E-03 0. -1.
        -11    1    3    3    0    0  0.26253729427E+02  0.15360449358E+02 -0.22574570531E+02  0.37878924855E+02  0.51100000000E-03 0.  1.
         12    1    3    3    0    0 -0.34319703917E+02 -0.13610335222E+02  0.22283771391E+02  0.43123656723E+02  0.00000000000E+00 0. -1.
</event>
<event>
 7    1  0.2405891E-015  0.9000762E+02  0.7816164E-02  0.1186339E+00
        -11   -1    0    0    0    0  0.00000000000E+00  0.00000000000E+00  0.45593999997E+02  0.45594000000E+02  0.51100000000E-03 0.  1.
         11   -1    0    0    0    0 -0.00000000000E+00 -0.00000000000E+00 -0.45593999997E+02  0.45594000000E+02  0.51100000000E-03 0. -1.
    9900012    2    1    2    0    0  0.66798466411E+00  0.54995766294E+00 -0.80289319134E+00  0.90007621070E+02  0.89999880868E+02 0.  0.
        -12    1    1    2    0    0 -0.66798466411E+00 -0.54995766294E+00  0.80289319134E+00  0.11803789303E+01  0.00000000000E+00 0.  1.
         11    1    3    3    0    0 -0.46313444264E+01  0.69468383839E+01  0.42625913991E+01  0.93743053303E+01  0.51100000000E-03 0. -1.
        -11    1    3    3    0    0 -0.19420230212E+01  0.18142657898E+02  0.31263690747E+02  0.36198699540E+02  0.51100000000E-03 0.  1.
         12    1    3    3    0    0  0.72413521118E+01 -0.24539538619E+02 -0.36329175338E+02  0.44434616199E+02  0.00000000000E+00 0. -1.
</event>
<event>
 7    1  0.2405891E-015  0.9000795E+02  0.7816164E-02  0.1186339E+00
        -11   -1    0    0    0    0  0.00000000000E+00  0.00000000000E+00  0.45593999997E+02  0.45594000000E+02  0.51100000000E-03 0.  1.
         11   -1    0    0    0    0 -0.00000000000E+00 -0.00000000000E+00 -0.45593999997E+02  0.45594000000E+02  0.51100000000E-03 0. -1.
    9900012    2    1    2    0    0  0.39130652861E+00  0.60025140060E+00 -0.93760370518E+00  0.90007947776E+02  0.90000211886E+02 0.  0.
        -12    1    1    2    0    0 -0.39130652861E+00 -0.60025140060E+00  0.93760370518E+00  0.11800522239E+01  0.00000000000E+00 0.  1.
         11    1    3    3    0    0  0.29452401641E+02  0.11436867853E+02  0.22350447583E+02  0.38701271505E+02  0.51100000000E-03 0. -1.
        -11    1    3    3    0    0  0.29970580408E+01 -0.10623280915E+02  0.10044948584E+01  0.11083567318E+02  0.51100000000E-03 0.  1.
        -12    1    3    3    0    0 -0.32058153153E+02 -0.21333553694E+00 -0.24292546146E+02  0.40223108953E+02  0.00000000000E+00 0.  1.
</event>
<event>
 7    1  0.2405891E-015  0.9000747E+02  0.7816164E-02  0.1186340E+00
        -11   -1    0    0    0    0  0.00000000000E+00  0.00000000000E+00  0.45593999997E+02  0.45594000000E+02  0.51100000000E-03 0. -1.
         11   -1    0    0    0    0 -0.00000000000E+00 -0.00000000000E+00 -0.45593999997E+02  0.45594000000E+02  0.51100000000E-03 0.  1.
    9900012    2    1    2    0    0  0.27294124788E+00 -0.11017554568E+01  0.32449905297E+00  0.90007465525E+02  0.89999723269E+02 0.  0.
        -12    1    1    2    0    0 -0.27294124788E+00  0.11017554568E+01 -0.32449905297E+00  0.11805344751E+01  0.00000000000E+00 0.  1.
         11    1    3    3    0    0  0.24107794134E+02  0.30765654990E+02 -0.32916300619E+01  0.39224304885E+02  0.51100000000E-03 0. -1.
        -11    1    3    3    0    0 -0.41843865985E+01  0.54563500313E+01  0.51244428462E+01  0.85755910359E+01  0.51100000000E-03 0.  1.
        -12    1    3    3    0    0 -0.19650466287E+02 -0.37323760479E+02 -0.15083137314E+01  0.42207569604E+02  0.00000000000E+00 0.  1.
</event>
<event>
 7    1  0.2405891E-015  0.9000761E+02  0.7816164E-02  0.1186339E+00
        -11   -1    0    0    0    0  0.00000000000E+00  0.00000000000E+00  0.45593999997E+02  0.45594000000E+02  0.51100000000E-03 0.  1.
         11   -1    0    0    0    0 -0.00000000000E+00 -0.00000000000E+00 -0.45593999997E+02  0.45594000000E+02  0.51100000000E-03 0. -1.
    9900012    2    1    2    0    0  0.35855131500E-01 -0.83376325289E+00 -0.83478917161E+00  0.90007610355E+02  0.89999870012E+02 0.  0.
        -12    1    1    2    0    0 -0.35855131500E-01  0.83376325289E+00  0.83478917161E+00  0.11803896447E+01  0.00000000000E+00 0.  1.
         11    1    3    3    0    0  0.24148826580E+02  0.25433470590E+02 -0.78811233722E+01  0.35946339971E+02  0.51100000000E-03 0. -1.
        -11    1    3    3    0    0  0.98878667867E+01 -0.41315789221E+01  0.81680362746E+01  0.13474296673E+02  0.51100000000E-03 0.  1.
        -12    1    3    3    0    0 -0.34000838235E+02 -0.22135654921E+02 -0.11217020740E+01  0.40586973711E+02  0.00000000000E+00 0.  1.
</event>
<event>
 7    1  0.2405891E-015  0.9000761E+02  0.7816164E-02  0.1186339E+00
        -11   -1    0    0    0    0  0.00000000000E+00  0.00000000000E+00  0.45593999997E+02  0.45594000000E+02  0.51100000000E-03 0. -1.
         11   -1    0    0    0    0 -0.00000000000E+00 -0.00000000000E+00 -0.45593999997E+02  0.45594000000E+02  0.51100000000E-03 0.  1.
    9900012    2    1    2    0    0  0.10667635784E+01 -0.16046332543E+00  0.47916004204E+00  0.90007607118E+02  0.89999866731E+02 0.  0.
        -12    1    1    2    0    0 -0.10667635784E+01  0.16046332543E+00 -0.47916004204E+00  0.11803928825E+01  0.00000000000E+00 0.  1.
         11    1    3    3    0    0 -0.16753360237E+02  0.37435129684E+02  0.13700872698E+02  0.43240928837E+02  0.51100000000E-03 0. -1.
        -11    1    3    3    0    0  0.73848861539E+01 -0.32969280786E+01 -0.63046622025E+01  0.10254513348E+02  0.51100000000E-03 0.  1.
        -12    1    3    3    0    0  0.10435237661E+02 -0.34298664931E+02 -0.69170504536E+01  0.36512164933E+02  0.00000000000E+00 0.  1.
</event>
<event>
 7    1  0.2405891E-015  0.9000751E+02  0.7816164E-02  0.1186339E+00
        -11   -1    0    0    0    0  0.00000000000E+00  0.00000000000E+00  0.45593999997E+02  0.45594000000E+02  0.51100000000E-03 0.  1.
         11   -1    0    0    0    0 -0.00000000000E+00 -0.00000000000E+00 -0.45593999997E+02  0.45594000000E+02  0.51100000000E-03 0. -1.
    9900012    2    1    2    0    0 -0.10557465390E+01 -0.52794335983E+00  0.15054000210E-01  0.90007512148E+02  0.89999770508E+02 0.  0.
        -12    1    1    2    0    0  0.10557465390E+01  0.52794335983E+00 -0.15054000210E-01  0.11804878520E+01  0.00000000000E+00 0.  1.
         11    1    3    3    0    0  0.88024714687E+01 -0.42949203632E+01 -0.22274196790E+00  0.97969106932E+01  0.51100000000E-03 0. -1.
        -11    1    3    3    0    0  0.16292166631E+02  0.23276944173E+02  0.26097445647E+02  0.38578847742E+02  0.51100000000E-03 0.  1.
         12    1    3    3    0    0 -0.26150384638E+02 -0.19509967170E+02 -0.25859649679E+02  0.41631753713E+02  0.00000000000E+00 0. -1.
</event>
<event>
 7    1  0.2405891E-015  0.9000775E+02  0.7816164E-02  0.1186339E+00
        -11   -1    0    0    0    0  0.00000000000E+00  0.00000000000E+00  0.45593999997E+02  0.45594000000E+02  0.51100000000E-03 0. -1.
         11   -1    0    0    0    0 -0.00000000000E+00 -0.00000000000E+00 -0.45593999997E+02  0.45594000000E+02  0.51100000000E-03 0.  1.
    9900012    2    1    2    0    0  0.83063012991E-01 -0.10589009759E+00  0.11725479378E+01  0.90007753906E+02  0.90000015457E+02 0.  0.
        -12    1    1    2    0    0 -0.83063012991E-01  0.10589009759E+00 -0.11725479378E+01  0.11802460944E+01  0.00000000000E+00 0.  1.
         11    1    3    3    0    0  0.93913667432E+01 -0.44567936408E+00 -0.29513342137E+01  0.98542769042E+01  0.51100000000E-03 0. -1.
        -11    1    3    3    0    0  0.31968383991E+02 -0.12688802674E+02 -0.77777519346E+01  0.35262965186E+02  0.51100000000E-03 0.  1.
         12    1    3    3    0    0 -0.41276687721E+02  0.13028591940E+02  0.11901634086E+02  0.44890511816E+02  0.00000000000E+00 0. -1.
</event>
<event>
 7    1  0.2405891E-015  0.9000771E+02  0.7816164E-02  0.1186339E+00
        -11   -1    0    0    0    0  0.00000000000E+00  0.00000000000E+00  0.45593999997E+02  0.45594000000E+02  0.51100000000E-03 0. -1.
         11   -1    0    0    0    0 -0.00000000000E+00 -0.00000000000E+00 -0.45593999997E+02  0.45594000000E+02  0.51100000000E-03 0.  1.
    9900012    2    1    2    0    0 -0.18657654752E-01  0.13305737835E+00  0.11726177072E+01  0.90007709925E+02  0.89999970896E+02 0.  0.
        -12    1    1    2    0    0  0.18657654752E-01 -0.13305737835E+00 -0.11726177072E+01  0.11802900751E+01  0.00000000000E+00 0.  1.
         11    1    3    3    0    0 -0.33822706508E+02 -0.11962077353E+02  0.86699653705E+01  0.36908468810E+02  0.51100000000E-03 0. -1.
        -11    1    3    3    0    0 -0.80194315484E+01  0.65118751928E+01 -0.62984457771E+00  0.10349517155E+02  0.51100000000E-03 0.  1.
        -12    1    3    3    0    0  0.41823480402E+02  0.55832595390E+01 -0.68675030856E+01  0.42749723960E+02  0.00000000000E+00 0.  1.
</event>
<event>
 7    1  0.2405891E-015  0.9000772E+02  0.7816164E-02  0.1186339E+00
        -11   -1    0    0    0    0  0.00000000000E+00  0.00000000000E+00  0.45593999997E+02  0.45594000000E+02  0.51100000000E-03 0.  1.
         11   -1    0    0    0    0 -0.00000000000E+00 -0.00000000000E+00 -0.45593999997E+02  0.45594000000E+02  0.51100000000E-03 0. -1.
    9900012    2    1    2    0    0 -0.41049394515E+00 -0.10769818324E+01 -0.25427820976E+00  0.90007723526E+02  0.89999984677E+02 0.  0.
        -12    1    1    2    0    0  0.41049394515E+00  0.10769818324E+01  0.25427820976E+00  0.11802764736E+01  0.00000000000E+00 0.  1.
         11    1    3    3    0    0 -0.10538784735E+02 -0.13479439669E+02 -0.33153847678E+02  0.37308697291E+02  0.51100000000E-03 0. -1.
        -11    1    3    3    0    0  0.70476219160E+01 -0.25485195950E+01 -0.68288172084E+01  0.10138869342E+02  0.51100000000E-03 0.  1.
        -12    1    3    3    0    0  0.30806688736E+01  0.14950977432E+02  0.39728386677E+02  0.42560156893E+02  0.00000000000E+00 0.  1.
</event>
<event>
 7    1  0.2405891E-015  0.9000778E+02  0.7816164E-02  0.1186339E+00
        -11   -1    0    0    0    0  0.00000000000E+00  0.00000000000E+00  0.45593999997E+02  0.45594000000E+02  0.51100000000E-03 0.  1.
         11   -1    0    0    0    0 -0.00000000000E+00 -0.00000000000E+00 -0.45593999997E+02  0.45594000000E+02  0.51100000000E-03 0. -1.
    9900012    2    1    2    0    0  0.52145110386E+00  0.58132771590E+00 -0.88491179651E+00  0.90007778811E+02  0.90000040691E+02 0.  0.
        -12    1    1    2    0    0 -0.52145110386E+00 -0.58132771590E+00  0.88491179651E+00  0.11802211888E+01  0.00000000000E+00 0.  1.
         11    1    3    3    0    0 -0.38575411994E+01  0.55238114200E+01  0.61088589730E+01  0.90945739274E+01  0.51100000000E-03 0. -1.
        -11    1    3    3    0    0 -0.32794168057E+02 -0.20418619840E+02  0.48668822790E+01  0.38936667013E+02  0.51100000000E-03 0.  1.
         12    1    3    3    0    0  0.37173160360E+02  0.15476136135E+02 -0.11860653048E+02  0.41976537871E+02  0.00000000000E+00 0. -1.
</event>
<event>
 7    1  0.2405891E-015  0.9000765E+02  0.7816164E-02  0.1186339E+00
        -11   -1    0    0    0    0  0.00000000000E+00  0.00000000000E+00  0.45593999997E+02  0.45594000000E+02  0.51100000000E-03 0. -1.
         11   -1    0    0    0    0 -0.00000000000E+00 -0.00000000000E+00 -0.45593999997E+02  0.45594000000E+02  0.51100000000E-03 0.  1.
    9900012    2    1    2    0    0  0.52979665879E+00  0.10281618214E+01  0.23542242583E+00  0.90007650497E+02  0.89999910683E+02 0.  0.
        -12    1    1    2    0    0 -0.52979665879E+00 -0.10281618214E+01 -0.23542242583E+00  0.11803495030E+01  0.00000000000E+00 0.  1.
         11    1    3    3    0    0  0.33240981055E+02 -0.10148080710E+02 -0.79164179966E+01  0.35645701532E+02  0.51100000000E-03 0. -1.
        -11    1    3    3    0    0  0.79912643385E+01 -0.44612226274E+01  0.55016017670E+01  0.10678503421E+02  0.51100000000E-03 0.  1.
        -12    1    3    3    0    0 -0.40702448735E+02  0.15637465159E+02  0.26502386555E+01  0.43683445543E+02  0.00000000000E+00 0.  1.
</event>
<event>
 7    1  0.2405891E-015  0.9000771E+02  0.7816164E-02  0.1186339E+00
        -11   -1    0    0    0    0  0.00000000000E+00  0.00000000000E+00  0.45593999997E+02  0.45594000000E+02  0.51100000000E-03 0. -1.
         11   -1    0    0    0    0 -0.00000000000E+00 -0.00000000000E+00 -0.45593999997E+02  0.45594000000E+02  0.51100000000E-03 0.  1.
    9900012    2    1    2    0    0 -0.75316689939E+00  0.70742322255E+00  0.57042138061E+00  0.90007708279E+02  0.89999969229E+02 0.  0.
        -12    1    1    2    0    0  0.75316689939E+00 -0.70742322255E+00 -0.57042138061E+00  0.11802917206E+01  0.00000000000E+00 0.  1.
         11    1    3    3    0    0  0.13892362412E+02  0.16831658324E+02 -0.79862232090E+01  0.23239669032E+02  0.51100000000E-03 0. -1.
        -11    1    3    3    0    0  0.13922954082E+01  0.18008469656E+02  0.20392609685E+02  0.27241549073E+02  0.51100000000E-03 0.  1.
        -12    1    3    3    0    0 -0.16037824719E+02 -0.34132704758E+02 -0.11835965095E+02  0.39526490175E+02  0.00000000000E+00 0.  1.
</event>
<event>
 7    1  0.2405891E-015  0.9000772E+02  0.7816164E-02  0.1186339E+00
        -11   -1    0    0    0    0  0.00000000000E+00  0.00000000000E+00  0.45593999997E+02  0.45594000000E+02  0.51100000000E-03 0. -1.
         11   -1    0    0    0    0 -0.00000000000E+00 -0.00000000000E+00 -0.45593999997E+02  0.45594000000E+02  0.51100000000E-03 0.  1.
    9900012    2    1    2    0    0  0.28173064015E+00 -0.11165475232E+01 -0.25886602171E+00  0.90007719465E+02  0.89999980561E+02 0.  0.
        -12    1    1    2    0    0 -0.28173064015E+00  0.11165475232E+01  0.25886602171E+00  0.11802805355E+01  0.00000000000E+00 0.  1.
         11    1    3    3    0    0  0.36976936490E+02  0.14160219632E+02 -0.12110996199E+02  0.41406302436E+02  0.51100000000E-03 0. -1.
        -11    1    3    3    0    0 -0.16613289579E+01 -0.92665596885E+01 -0.32793113198E+01  0.99691035385E+01  0.51100000000E-03 0.  1.
        -12    1    3    3    0    0 -0.35033876892E+02 -0.60102074670E+01  0.15131441497E+02  0.38632313490E+02  0.00000000000E+00 0.  1.
</event>
<event>
 7    1  0.2405891E-015  0.9000886E+02  0.7816164E-02  0.1186337E+00
        -11   -1    0    0    0    0  0.00000000000E+00  0.00000000000E+00  0.45593999997E+02  0.45594000000E+02  0.51100000000E-03 0.  1.
         11   -1    0    0    0    0 -0.00000000000E+00 -0.00000000000E+00 -0.45593999997E+02  0.45594000000E+02  0.51100000000E-03 0. -1.
    9900012    2    1    2    0    0 -0.39755861349E+00 -0.72324073263E+00 -0.84217154556E+00  0.90008855004E+02  0.90001131083E+02 0.  0.
        -12    1    1    2    0    0  0.39755861349E+00  0.72324073263E+00  0.84217154556E+00  0.11791449956E+01  0.00000000000E+00 0.  1.
         11    1    3    3    0    0  0.12876198850E+02 -0.11548326753E+02  0.29893738198E+02  0.34536877846E+02  0.51100000000E-03 0. -1.
        -11    1    3    3    0    0  0.12284142899E+01 -0.87647196448E+01  0.64911336376E+01  0.10975615166E+02  0.51100000000E-03 0.  1.
        -12    1    3    3    0    0 -0.14502171753E+02  0.19589805666E+02 -0.37227043381E+02  0.44496361992E+02  0.00000000000E+00 0.  1.
</event>
<event>
 7    1  0.2410828E-015  0.9000772E+02  0.7816164E-02  0.1186339E+00
        -11   -1    0    0    0    0  0.00000000000E+00  0.00000000000E+00  0.45593999997E+02  0.45594000000E+02  0.51100000000E-03 0.  1.
         11   -1    0    0    0    0 -0.00000000000E+00 -0.00000000000E+00 -0.45593999997E+02  0.45594000000E+02  0.51100000000E-03 0. -1.
    9900012    2    1    2    0    0  0.81639385544E-01  0.11532732634E+01 -0.23737292648E+00  0.90007724559E+02  0.89999985724E+02 0.  0.
        -12    1    1    2    0    0 -0.81639385544E-01 -0.11532732634E+01  0.23737292648E+00  0.11802754405E+01  0.00000000000E+00 0.  1.
         11    1    3    3    0    0  0.67935045248E+01 -0.65040896874E+01  0.16075005535E+01  0.95414330517E+01  0.51100000000E-03 0. -1.
        -11    1    3    3    0    0 -0.23656000896E+02 -0.24316129297E+02  0.18820356530E+02  0.38795442291E+02  0.51100000000E-03 0.  1.
         12    1    3    3    0    0  0.16944135756E+02  0.31973492248E+02 -0.20665230010E+02  0.41670849217E+02  0.00000000000E+00 0. -1.
</event>
<event>
 7    1  0.2405891E-015  0.9000768E+02  0.7816164E-02  0.1186339E+00
        -11   -1    0    0    0    0  0.00000000000E+00  0.00000000000E+00  0.45593999997E+02  0.45594000000E+02  0.51100000000E-03 0.  1.
         11   -1    0    0    0    0 -0.00000000000E+00 -0.00000000000E+00 -0.45593999997E+02  0.45594000000E+02  0.51100000000E-03 0. -1.
    9900012    2    1    2    0    0  0.10260170119E+01 -0.14752966904E+00 -0.56450905672E+00  0.90007683777E+02  0.89999944403E+02 0.  0.
        -12    1    1    2    0    0 -0.10260170119E+01  0.14752966904E+00  0.56450905672E+00  0.11803162233E+01  0.00000000000E+00 0.  1.
         11    1    3    3    0    0  0.62911944742E+01  0.27732095998E+01 -0.72120081976E+01  0.99640795812E+01  0.51100000000E-03 0. -1.
        -11    1    3    3    0    0 -0.30005638574E+02  0.10918062890E+01 -0.25421664446E+02  0.39341980259E+02  0.51100000000E-03 0.  1.
         12    1    3    3    0    0  0.24740461112E+02 -0.40125455578E+01  0.32069163587E+02  0.40701623936E+02  0.00000000000E+00 0. -1.
</event>
<event>
 7    1  0.2405891E-015  0.9000772E+02  0.7816164E-02  0.1186339E+00
        -11   -1    0    0    0    0  0.00000000000E+00  0.00000000000E+00  0.45593999997E+02  0.45594000000E+02  0.51100000000E-03 0. -1.
         11   -1    0    0    0    0 -0.00000000000E+00 -0.00000000000E+00 -0.45593999997E+02  0.45594000000E+02  0.51100000000E-03 0.  1.
    9900012    2    1    2    0    0 -0.60499027262E-01 -0.36843885465E+00  0.11196670300E+01  0.90007719703E+02  0.89999980803E+02 0.  0.
        -12    1    1    2    0    0  0.60499027262E-01  0.36843885465E+00 -0.11196670300E+01  0.11802802972E+01  0.00000000000E+00 0.  1.
         11    1    3    3    0    0 -0.23492933959E+02 -0.15357036650E+02 -0.28071676659E+02  0.39696039492E+02  0.51100000000E-03 0. -1.
        -11    1    3    3    0    0 -0.73294866521E+01  0.21334178900E+01  0.56995704221E+01  0.95266966854E+01  0.51100000000E-03 0.  1.
        -12    1    3    3    0    0  0.30761921584E+02  0.12855179905E+02  0.23491773266E+02  0.40784983525E+02  0.00000000000E+00 0.  1.
</event>
<event>
 7    1  0.2405891E-015  0.9000765E+02  0.7816164E-02  0.1186339E+00
        -11   -1    0    0    0    0  0.00000000000E+00  0.00000000000E+00  0.45593999997E+02  0.45594000000E+02  0.51100000000E-03 0. -1.
         11   -1    0    0    0    0 -0.00000000000E+00 -0.00000000000E+00 -0.45593999997E+02  0.45594000000E+02  0.51100000000E-03 0.  1.
    9900012    2    1    2    0    0 -0.89943763381E-01  0.11693557090E+01 -0.13322157255E+00  0.90007648086E+02  0.89999908240E+02 0.  0.
        -12    1    1    2    0    0  0.89943763381E-01 -0.11693557090E+01  0.13322157255E+00  0.11803519145E+01  0.00000000000E+00 0.  1.
         11    1    3    3    0    0 -0.32369623168E+01 -0.29728436331E+01 -0.68172504048E+01  0.81111421914E+01  0.51100000000E-03 0. -1.
        -11    1    3    3    0    0  0.40134888335E+02  0.15203727751E+02  0.55288841891E+01  0.43272753088E+02  0.51100000000E-03 0.  1.
         12    1    3    3    0    0 -0.36987869781E+02 -0.11061528409E+02  0.11551446431E+01  0.38623752806E+02  0.00000000000E+00 0. -1.
</event>
<event>
 7    1  0.2405891E-015  0.9000776E+02  0.7816164E-02  0.1186339E+00
        -11   -1    0    0    0    0  0.00000000000E+00  0.00000000000E+00  0.45593999997E+02  0.45594000000E+02  0.51100000000E-03 0.  1.
         11   -1    0    0    0    0 -0.00000000000E+00 -0.00000000000E+00 -0.45593999997E+02  0.45594000000E+02  0.51100000000E-03 0. -1.
    9900012    2    1    2    0    0  0.89734167241E-01  0.82634361621E+00 -0.83790143281E+00  0.90007756464E+02  0.90000018049E+02 0.  0.
        -12    1    1    2    0    0 -0.89734167241E-01 -0.82634361621E+00  0.83790143281E+00  0.11802435359E+01  0.00000000000E+00 0.  1.
         11    1    3    3    0    0 -0.51549354712E+01 -0.44756575927E+01  0.68633218969E+01  0.96803955664E+01  0.51100000000E-03 0. -1.
        -11    1    3    3    0    0 -0.33291711453E+02  0.84615389715E+01  0.12683792181E+02  0.36617130930E+02  0.51100000000E-03 0.  1.
         12    1    3    3    0    0  0.38536381091E+02 -0.31595377626E+01 -0.20385015510E+02  0.43710229968E+02  0.00000000000E+00 0. -1.
</event>
<event>
 7    1  0.2405891E-015  0.9000777E+02  0.7816164E-02  0.1186339E+00
        -11   -1    0    0    0    0  0.00000000000E+00  0.00000000000E+00  0.45593999997E+02  0.45594000000E+02  0.51100000000E-03 0. -1.
         11   -1    0    0    0    0 -0.00000000000E+00 -0.00000000000E+00 -0.45593999997E+02  0.45594000000E+02  0.51100000000E-03 0.  1.
    9900012    2    1    2    0    0 -0.11577288145E+01  0.19254541620E+00 -0.12458537448E+00  0.90007774911E+02  0.90000036740E+02 0.  0.
        -12    1    1    2    0    0  0.11577288145E+01 -0.19254541620E+00  0.12458537448E+00  0.11802250890E+01  0.00000000000E+00 0.  1.
         11    1    3    3    0    0 -0.20464553512E+02  0.31107123464E+01  0.32734993408E+02  0.38730534149E+02  0.51100000000E-03 0. -1.
        -11    1    3    3    0    0  0.28714778331E+01 -0.62190302694E+01  0.59046429012E+01  0.90435905750E+01  0.51100000000E-03 0.  1.
        -12    1    3    3    0    0  0.16435346865E+02  0.33008633392E+01 -0.38764221684E+02  0.42233650187E+02  0.00000000000E+00 0.  1.
</event>
<event>
 7    1  0.2405891E-015  0.9000768E+02  0.7816164E-02  0.1186339E+00
        -11   -1    0    0    0    0  0.00000000000E+00  0.00000000000E+00  0.45593999997E+02  0.45594000000E+02  0.51100000000E-03 0. -1.
         11   -1    0    0    0    0 -0.00000000000E+00 -0.00000000000E+00 -0.45593999997E+02  0.45594000000E+02  0.51100000000E-03 0.  1.
    9900012    2    1    2    0    0  0.50013763830E+00 -0.96775367276E+00 -0.45438648798E+00  0.90007681438E+02  0.89999942033E+02 0.  0.
        -12    1    1    2    0    0 -0.50013763830E+00  0.96775367276E+00  0.45438648798E+00  0.11803185624E+01  0.00000000000E+00 0.  1.
         11    1    3    3    0    0  0.76812814435E+01  0.91776287538E+01 -0.60463323523E+01  0.13408545385E+02  0.51100000000E-03 0. -1.
        -11    1    3    3    0    0  0.30930358114E+02  0.24534906292E+01 -0.11339008768E+02  0.33034524204E+02  0.51100000000E-03 0.  1.
         12    1    3    3    0    0 -0.38111501919E+02 -0.12598873056E+02  0.16930954632E+02  0.43564611849E+02  0.00000000000E+00 0. -1.
</event>
<event>
 7    1  0.2405891E-015  0.9000832E+02  0.7816164E-02  0.1186338E+00
        -11   -1    0    0    0    0  0.00000000000E+00  0.00000000000E+00  0.45593999997E+02  0.45594000000E+02  0.51100000000E-03 0.  1.
         11   -1    0    0    0    0 -0.00000000000E+00 -0.00000000000E+00 -0.45593999997E+02  0.45594000000E+02  0.51100000000E-03 0. -1.
    9900012    2    1    2    0    0  0.65554345832E+00 -0.10481581964E-01 -0.98071768243E+00  0.90008316033E+02  0.90000585003E+02 0.  0.
        -12    1    1    2    0    0 -0.65554345832E+00  0.10481581964E-01  0.98071768243E+00  0.11796839670E+01  0.00000000000E+00 0.  1.
         11    1    3    3    0    0  0.11354353958E+01  0.28751863047E+01  0.85654840247E+01  0.91062301017E+01  0.51100000000E-03 0. -1.
        -11    1    3    3    0    0  0.41566977319E+01 -0.40582991766E+02  0.29914690768E+01  0.40904843775E+02  0.51100000000E-03 0.  1.
         12    1    3    3    0    0 -0.46365896694E+01  0.37697323880E+02 -0.12537670784E+02  0.39997242157E+02  0.00000000000E+00 0. -1.
</event>
<event>
 7    1  0.2405891E-015  0.9000772E+02  0.7816164E-02  0.1186339E+00
        -11   -1    0    0    0    0  0.00000000000E+00  0.00000000000E+00  0.45593999997E+02  0.45594000000E+02  0.51100000000E-03 0. -1.
         11   -1    0    0    0    0 -0.00000000000E+00 -0.00000000000E+00 -0.45593999997E+02  0.45594000000E+02  0.51100000000E-03 0.  1.
    9900012    2    1    2    0    0 -0.11117974198E+01  0.28049153055E+00  0.27980329220E+00  0.90007720845E+02  0.89999981960E+02 0.  0.
        -12    1    1    2    0    0  0.11117974198E+01 -0.28049153055E+00 -0.27980329220E+00  0.11802791550E+01  0.00000000000E+00 0.  1.
         11    1    3    3    0    0  0.16188324169E+01  0.13885054477E+02 -0.25816595562E+02  0.29358337196E+02  0.51100000000E-03 0. -1.
        -11    1    3    3    0    0 -0.26804197667E+02 -0.10782506402E+01  0.78600673605E+01  0.27953681264E+02  0.51100000000E-03 0.  1.
         12    1    3    3    0    0  0.24073567831E+02 -0.12526312306E+02  0.18236331494E+02  0.32695702385E+02  0.00000000000E+00 0. -1.
</event>
<event>
 7    1  0.2405891E-015  0.9000793E+02  0.7816164E-02  0.1186339E+00
        -11   -1    0    0    0    0  0.00000000000E+00  0.00000000000E+00  0.45593999997E+02  0.45594000000E+02  0.51100000000E-03 0.  1.
         11   -1    0    0    0    0 -0.00000000000E+00 -0.00000000000E+00 -0.45593999997E+02  0.45594000000E+02  0.51100000000E-03 0. -1.
    9900012    2    1    2    0    0 -0.74637052933E+00  0.28143683498E+00 -0.86965352045E+00  0.90007926738E+02  0.90000190570E+02 0.  0.
        -12    1    1    2    0    0  0.74637052933E+00 -0.28143683498E+00  0.86965352045E+00  0.11800732625E+01  0.00000000000E+00 0.  1.
         11    1    3    3    0    0 -0.63621890254E+01  0.19141634182E+01  0.80119579149E+01  0.10408311135E+02  0.51100000000E-03 0. -1.
        -11    1    3    3    0    0 -0.16621540870E+02  0.25595535997E+02  0.17921866709E+02  0.35392095028E+02  0.51100000000E-03 0.  1.
         12    1    3    3    0    0  0.22237359366E+02 -0.27228262580E+02 -0.26803478144E+02  0.44207520575E+02  0.00000000000E+00 0. -1.
</event>
<event>
 7    1  0.2405891E-015  0.9000779E+02  0.7816164E-02  0.1186339E+00
        -11   -1    0    0    0    0  0.00000000000E+00  0.00000000000E+00  0.45593999997E+02  0.45594000000E+02  0.51100000000E-03 0. -1.
         11   -1    0    0    0    0 -0.00000000000E+00 -0.00000000000E+00 -0.45593999997E+02  0.45594000000E+02  0.51100000000E-03 0.  1.
    9900012    2    1    2    0    0  0.32523590398E+00  0.38923523813E+00  0.10656569169E+01  0.90007785135E+02  0.90000047098E+02 0.  0.
        -12    1    1    2    0    0 -0.32523590398E+00 -0.38923523813E+00 -0.10656569169E+01  0.11802148654E+01  0.00000000000E+00 0.  1.
         11    1    3    3    0    0  0.14042284232E+01 -0.76805948662E+01 -0.31491413529E+01  0.84190549639E+01  0.51100000000E-03 0. -1.
        -11    1    3    3    0    0 -0.42634760750E+01 -0.14534408818E+02 -0.33917463302E+02  0.37145936319E+02  0.51100000000E-03 0.  1.
         12    1    3    3    0    0  0.31844835558E+01  0.22604238922E+02  0.38132261572E+02  0.44442793852E+02  0.00000000000E+00 0. -1.
</event>
<event>
 7    1  0.2405891E-015  0.9000766E+02  0.7816164E-02  0.1186339E+00
        -11   -1    0    0    0    0  0.00000000000E+00  0.00000000000E+00  0.45593999997E+02  0.45594000000E+02  0.51100000000E-03 0.  1.
         11   -1    0    0    0    0 -0.00000000000E+00 -0.00000000000E+00 -0.45593999997E+02  0.45594000000E+02  0.51100000000E-03 0. -1.
    9900012    2    1    2    0    0  0.30580224682E-01 -0.98930392696E+00 -0.64307635933E+00  0.90007659111E+02  0.89999919411E+02 0.  0.
        -12    1    1    2    0    0 -0.30580224682E-01  0.98930392696E+00  0.64307635933E+00  0.11803408889E+01  0.00000000000E+00 0.  1.
         11    1    3    3    0    0 -0.24283163541E+01  0.78212695599E+01 -0.76807544167E+01  0.11227776561E+02  0.51100000000E-03 0. -1.
        -11    1    3    3    0    0 -0.23320231815E+02  0.24673319967E+02  0.12483614643E+02  0.36172455887E+02  0.51100000000E-03 0.  1.
         12    1    3    3    0    0  0.25779128394E+02 -0.33483893453E+02 -0.54459365852E+01  0.42607426663E+02  0.00000000000E+00 0. -1.
</event>
<event>
 7    1  0.2405891E-015  0.9000768E+02  0.7816164E-02  0.1186339E+00
        -11   -1    0    0    0    0  0.00000000000E+00  0.00000000000E+00  0.45593999997E+02  0.45594000000E+02  0.51100000000E-03 0.  1.
         11   -1    0    0    0    0 -0.00000000000E+00 -0.00000000000E+00 -0.45593999997E+02  0.45594000000E+02  0.51100000000E-03 0. -1.
    9900012    2    1    2    0    0 -0.46254665236E+00 -0.97554279489E+00  0.47699865681E+00  0.90007677642E+02  0.89999938187E+02 0.  0.
        -12    1    1    2    0    0  0.46254665236E+00  0.97554279489E+00 -0.47699865681E+00  0.11803223580E+01  0.00000000000E+00 0.  1.
         11    1    3    3    0    0 -0.45215482468E+01 -0.45551525101E+01 -0.59821986307E+01  0.87738539796E+01  0.51100000000E-03 0. -1.
        -11    1    3    3    0    0 -0.96671430816E+01 -0.28935960494E+02  0.26705159551E+02  0.40545147822E+02  0.51100000000E-03 0.  1.
         12    1    3    3    0    0  0.13726144676E+02  0.32515570209E+02 -0.20245962263E+02  0.40688675840E+02  0.00000000000E+00 0. -1.
</event>
<event>
 7    1  0.2405891E-015  0.9000774E+02  0.7816164E-02  0.1186339E+00
        -11   -1    0    0    0    0  0.00000000000E+00  0.00000000000E+00  0.45593999997E+02  0.45594000000E+02  0.51100000000E-03 0.  1.
         11   -1    0    0    0    0 -0.00000000000E+00 -0.00000000000E+00 -0.45593999997E+02  0.45594000000E+02  0.51100000000E-03 0. -1.
    9900012    2    1    2    0    0  0.62371146407E+00  0.91585356400E+00  0.40645732094E+00  0.90007741005E+02  0.90000002386E+02 0.  0.
        -12    1    1    2    0    0 -0.62371146407E+00 -0.91585356400E+00 -0.40645732094E+00  0.11802589948E+01  0.00000000000E+00 0.  1.
         11    1    3    3    0    0 -0.77282093526E+01  0.24342799236E+01  0.36968533369E+01  0.89060464517E+01  0.51100000000E-03 0. -1.
        -11    1    3    3    0    0 -0.32793454194E+02 -0.42118795008E+01  0.14614261599E+02  0.36148681985E+02  0.51100000000E-03 0.  1.
         12    1    3    3    0    0  0.41145375011E+02  0.26934531412E+01 -0.17904657615E+02  0.44953012568E+02  0.00000000000E+00 0. -1.
</event>
<event>
 7    1  0.2405891E-015  0.9000769E+02  0.7816164E-02  0.1186339E+00
        -11   -1    0    0    0    0  0.00000000000E+00  0.00000000000E+00  0.45593999997E+02  0.45594000000E+02  0.51100000000E-03 0. -1.
         11   -1    0    0    0    0 -0.00000000000E+00 -0.00000000000E+00 -0.45593999997E+02  0.45594000000E+02  0.51100000000E-03 0.  1.
    9900012    2    1    2    0    0 -0.94628949730E+00 -0.70033020216E+00 -0.84937819852E-01  0.90007686212E+02  0.89999946870E+02 0.  0.
        -12    1    1    2    0    0  0.94628949730E+00  0.70033020216E+00  0.84937819852E-01  0.11803137879E+01  0.00000000000E+00 0.  1.
         11    1    3    3    0    0 -0.48297371739E+00  0.11589388595E+01 -0.10123311001E+02  0.10200873922E+02  0.51100000000E-03 0. -1.
        -11    1    3    3    0    0 -0.26306713787E+02 -0.10954433253E+02  0.33327033721E+02  0.43848990582E+02  0.51100000000E-03 0.  1.
         12    1    3    3    0    0  0.25843398007E+02  0.90951641914E+01 -0.23288660541E+02  0.35957821708E+02  0.00000000000E+00 0. -1.
</event>
<event>
 7    1  0.2405891E-015  0.9000776E+02  0.7816164E-02  0.1186339E+00
        -11   -1    0    0    0    0  0.00000000000E+00  0.00000000000E+00  0.45593999997E+02  0.45594000000E+02  0.51100000000E-03 0. -1.
         11   -1    0    0    0    0 -0.00000000000E+00 -0.00000000000E+00 -0.45593999997E+02  0.45594000000E+02  0.51100000000E-03 0.  1.
    9900012    2    1    2    0    0 -0.19251043240E+00  0.11644299965E+01 -0.16788563624E-02  0.90007762608E+02  0.90000024274E+02 0.  0.
        -12    1    1    2    0    0  0.19251043240E+00 -0.11644299965E+01  0.16788563624E-02  0.11802373922E+01  0.00000000000E+00 0.  1.
         11    1    3    3    0    0  0.33557043314E+01  0.87756777691E+01  0.37785848138E+01  0.10126745544E+02  0.51100000000E-03 0. -1.
        -11    1    3    3    0    0 -0.33807641326E+02  0.18308945377E+02 -0.95675603116E+01  0.39619594943E+02  0.51100000000E-03 0.  1.
         12    1    3    3    0    0  0.30259426562E+02 -0.25920193150E+02  0.57872966414E+01  0.40261422121E+02  0.00000000000E+00 0. -1.
</event>
<event>
 7    1  0.2405891E-015  0.9000775E+02  0.7816164E-02  0.1186339E+00
        -11   -1    0    0    0    0  0.00000000000E+00  0.00000000000E+00  0.45593999997E+02  0.45594000000E+02  0.51100000000E-03 0. -1.
         11   -1    0    0    0    0 -0.00000000000E+00 -0.00000000000E+00 -0.45593999997E+02  0.45594000000E+02  0.51100000000E-03 0.  1.
    9900012    2    1    2    0    0 -0.58706583526E+00 -0.59066705747E+00  0.83632941584E+00  0.90007753941E+02  0.90000015493E+02 0.  0.
        -12    1    1    2    0    0  0.58706583526E+00  0.59066705747E+00 -0.83632941584E+00  0.11802460589E+01  0.00000000000E+00 0.  1.
         11    1    3    3    0    0  0.47570041555E+01 -0.37900580076E+00  0.80456954888E+01  0.93544615073E+01  0.51100000000E-03 0. -1.
        -11    1    3    3    0    0 -0.15832752693E+02 -0.37105504162E+02  0.43939384330E+01  0.40580798319E+02  0.51100000000E-03 0.  1.
         12    1    3    3    0    0  0.10488682702E+02  0.36893842905E+02 -0.11603304506E+02  0.40072494115E+02  0.00000000000E+00 0. -1.
</event>
<event>
 7    1  0.2405891E-015  0.9000774E+02  0.7816164E-02  0.1186339E+00
        -11   -1    0    0    0    0  0.00000000000E+00  0.00000000000E+00  0.45593999997E+02  0.45594000000E+02  0.51100000000E-03 0.  1.
         11   -1    0    0    0    0 -0.00000000000E+00 -0.00000000000E+00 -0.45593999997E+02  0.45594000000E+02  0.51100000000E-03 0. -1.
    9900012    2    1    2    0    0  0.10344496573E+00 -0.23774165809E+00 -0.11514306899E+01  0.90007739609E+02  0.90000000972E+02 0.  0.
        -12    1    1    2    0    0 -0.10344496573E+00  0.23774165809E+00  0.11514306899E+01  0.11802603910E+01  0.00000000000E+00 0.  1.
         11    1    3    3    0    0 -0.28616167880E+02  0.14143764142E+02 -0.25434608217E+02  0.40814830927E+02  0.51100000000E-03 0. -1.
        -11    1    3    3    0    0  0.49944677227E+01  0.71885186046E+01 -0.34729166242E+00  0.87601437957E+01  0.51100000000E-03 0.  1.
        -12    1    3    3    0    0  0.23725145123E+02 -0.21570024404E+02  0.24630469189E+02  0.40432764886E+02  0.00000000000E+00 0.  1.
</event>
<event>
 7    1  0.2405891E-015  0.9000776E+02  0.7816164E-02  0.1186339E+00
        -11   -1    0    0    0    0  0.00000000000E+00  0.00000000000E+00  0.45593999997E+02  0.45594000000E+02  0.51100000000E-03 0. -1.
         11   -1    0    0    0    0 -0.00000000000E+00 -0.00000000000E+00 -0.45593999997E+02  0.45594000000E+02  0.51100000000E-03 0.  1.
    9900012    2    1    2    0    0  0.20496693131E+00 -0.10170986075E+01  0.56255659105E+00  0.90007758102E+02  0.90000019709E+02 0.  0.
        -12    1    1    2    0    0 -0.20496693131E+00  0.10170986075E+01 -0.56255659105E+00  0.11802418983E+01  0.00000000000E+00 0.  1.
         11    1    3    3    0    0 -0.43440631109E+02  0.61615848971E+01 -0.38363179607E+01  0.44042830238E+02  0.51100000000E-03 0. -1.
        -11    1    3    3    0    0  0.65022766921E+01 -0.21077259002E+01  0.50055061962E+01  0.84721427745E+01  0.51100000000E-03 0.  1.
        -12    1    3    3    0    0  0.37143321348E+02 -0.50709576044E+01 -0.60663164440E+00  0.37492785089E+02  0.00000000000E+00 0.  1.
</event>
<event>
 7    1  0.2405891E-015  0.9000757E+02  0.7816164E-02  0.1186339E+00
        -11   -1    0    0    0    0  0.00000000000E+00  0.00000000000E+00  0.45593999997E+02  0.45594000000E+02  0.51100000000E-03 0.  1.
         11   -1    0    0    0    0 -0.00000000000E+00 -0.00000000000E+00 -0.45593999997E+02  0.45594000000E+02  0.51100000000E-03 0. -1.
    9900012    2    1    2    0    0  0.10357699494E+00 -0.89077868204E+00  0.76759911683E+00  0.90007566496E+02  0.89999825573E+02 0.  0.
        -12    1    1    2    0    0 -0.10357699494E+00  0.89077868204E+00 -0.76759911683E+00  0.11804335044E+01  0.00000000000E+00 0.  1.
         11    1    3    3    0    0 -0.76384321560E+01  0.45599653666E+01  0.60302961652E+01  0.10747250907E+02  0.51100000000E-03 0. -1.
        -11    1    3    3    0    0 -0.84316783460E+00  0.13059532772E+01  0.36275816029E+02  0.36309107326E+02  0.51100000000E-03 0.  1.
         12    1    3    3    0    0  0.85851769855E+01 -0.67566973258E+01 -0.41538513077E+02  0.42951208263E+02  0.00000000000E+00 0. -1.
</event>
<event>
 7    1  0.2686953E-015  0.9000770E+02  0.7816164E-02  0.1186339E+00
        -11   -1    0    0    0    0  0.00000000000E+00  0.00000000000E+00  0.45593999997E+02  0.45594000000E+02  0.51100000000E-03 0. -1.
         11   -1    0    0    0    0 -0.00000000000E+00 -0.00000000000E+00 -0.45593999997E+02  0.45594000000E+02  0.51100000000E-03 0.  1.
    9900012    2    1    2    0    0 -0.68525072861E+00  0.70333025809E+00  0.65488510721E+00  0.90007696430E+02  0.89999957223E+02 0.  0.
        -12    1    1    2    0    0  0.68525072861E+00 -0.70333025809E+00 -0.65488510721E+00  0.11803035697E+01  0.00000000000E+00 0.  1.
         11    1    3    3    0    0 -0.47298860922E+01  0.79087019837E+01 -0.32632186365E+01  0.97758879720E+01  0.51100000000E-03 0. -1.
        -11    1    3    3    0    0  0.13857105594E+02  0.34362428486E+02  0.56857684011E+01  0.37484981385E+02  0.51100000000E-03 0.  1.
         12    1    3    3    0    0 -0.98124702308E+01 -0.41567800211E+02 -0.17676646574E+01  0.42746827073E+02  0.00000000000E+00 0. -1.
</event>
<event>
 7    1  0.2405891E-015  0.9000778E+02  0.7816164E-02  0.1186339E+00
        -11   -1    0    0    0    0  0.00000000000E+00  0.00000000000E+00  0.45593999997E+02  0.45594000000E+02  0.51100000000E-03 0.  1.
         11   -1    0    0    0    0 -0.00000000000E+00 -0.00000000000E+00 -0.45593999997E+02  0.45594000000E+02  0.51100000000E-03 0. -1.
    9900012    2    1    2    0    0  0.95487520629E+00  0.67880783927E+00 -0.14262178139E+00  0.90007784886E+02  0.90000046847E+02 0.  0.
        -12    1    1    2    0    0 -0.95487520629E+00 -0.67880783927E+00  0.14262178139E+00  0.11802151138E+01  0.00000000000E+00 0.  1.
         11    1    3    3    0    0 -0.20721501203E+02 -0.28060614627E+02 -0.35946989538E+00  0.34884207376E+02  0.51100000000E-03 0. -1.
        -11    1    3    3    0    0 -0.82676561540E+01 -0.57568722533E+00 -0.89815075079E+01  0.12221007791E+02  0.51100000000E-03 0.  1.
        -12    1    3    3    0    0  0.29944032563E+02  0.29315109692E+02  0.91983556219E+01  0.42902569719E+02  0.00000000000E+00 0.  1.
</event>
<event>
 7    1  0.2405891E-015  0.9000765E+02  0.7816164E-02  0.1186339E+00
        -11   -1    0    0    0    0  0.00000000000E+00  0.00000000000E+00  0.45593999997E+02  0.45594000000E+02  0.51100000000E-03 0.  1.
         11   -1    0    0    0    0 -0.00000000000E+00 -0.00000000000E+00 -0.45593999997E+02  0.45594000000E+02  0.51100000000E-03 0. -1.
    9900012    2    1    2    0    0 -0.84228260167E+00  0.29916732503E+00 -0.77090625458E+00  0.90007645171E+02  0.89999905287E+02 0.  0.
        -12    1    1    2    0    0  0.84228260167E+00 -0.29916732503E+00  0.77090625458E+00  0.11803548292E+01  0.00000000000E+00 0.  1.
         11    1    3    3    0    0 -0.26762217546E+01 -0.73576594701E+01 -0.57942588359E+00  0.78506719696E+01  0.51100000000E-03 0. -1.
        -11    1    3    3    0    0 -0.19639811999E+02 -0.25714231622E+02  0.19581683146E+02  0.37820447358E+02  0.51100000000E-03 0.  1.
         12    1    3    3    0    0  0.21473751151E+02  0.33371058417E+02 -0.19773163517E+02  0.44336525843E+02  0.00000000000E+00 0. -1.
</event>
<event>
 7    1  0.2405891E-015  0.9000778E+02  0.7816164E-02  0.1186339E+00
        -11   -1    0    0    0    0  0.00000000000E+00  0.00000000000E+00  0.45593999997E+02  0.45594000000E+02  0.51100000000E-03 0. -1.
         11   -1    0    0    0    0 -0.00000000000E+00 -0.00000000000E+00 -0.45593999997E+02  0.45594000000E+02  0.51100000000E-03 0.  1.
    9900012    2    1    2    0    0 -0.74059189955E-01 -0.10406953575E+01  0.55171948434E+00  0.90007777148E+02  0.90000039006E+02 0.  0.
        -12    1    1    2    0    0  0.74059189955E-01  0.10406953575E+01 -0.55171948434E+00  0.11802228519E+01  0.00000000000E+00 0.  1.
         11    1    3    3    0    0  0.59450291724E+01 -0.35988713736E+00  0.77878457939E+01  0.98042558607E+01  0.51100000000E-03 0. -1.
        -11    1    3    3    0    0  0.20919201066E+02 -0.26975708723E+02 -0.21049738424E+02  0.40104779295E+02  0.51100000000E-03 0.  1.
         12    1    3    3    0    0 -0.26938289428E+02  0.26294900502E+02  0.13813612114E+02  0.40098741993E+02  0.00000000000E+00 0. -1.
</event>
<event>
 7    1  0.2405891E-015  0.9000780E+02  0.7816164E-02  0.1186339E+00
        -11   -1    0    0    0    0  0.00000000000E+00  0.00000000000E+00  0.45593999997E+02  0.45594000000E+02  0.51100000000E-03 0.  1.
         11   -1    0    0    0    0 -0.00000000000E+00 -0.00000000000E+00 -0.45593999997E+02  0.45594000000E+02  0.51100000000E-03 0. -1.
    9900012    2    1    2    0    0  0.39182941985E+00  0.10567363070E+01  0.35021951030E+00  0.90007798482E+02  0.90000060622E+02 0.  0.
        -12    1    1    2    0    0 -0.39182941985E+00 -0.10567363070E+01 -0.35021951030E+00  0.11802015176E+01  0.00000000000E+00 0.  1.
         11    1    3    3    0    0 -0.54871109325E+01 -0.75909905986E-01 -0.33128140851E+01  0.64100613197E+01  0.51100000000E-03 0. -1.
        -11    1    3    3    0    0  0.39332616146E+02 -0.17469868602E+02 -0.75856624006E+01  0.43701181633E+02  0.51100000000E-03 0.  1.
         12    1    3    3    0    0 -0.33453675793E+02  0.18602514815E+02  0.11248695996E+02  0.39896555530E+02  0.00000000000E+00 0. -1.
</event>
<event>
 7    1  0.2405891E-015  0.9000778E+02  0.7816164E-02  0.1186339E+00
        -11   -1    0    0    0    0  0.00000000000E+00  0.00000000000E+00  0.45593999997E+02  0.45594000000E+02  0.51100000000E-03 0. -1.
         11   -1    0    0    0    0 -0.00000000000E+00 -0.00000000000E+00 -0.45593999997E+02  0.45594000000E+02  0.51100000000E-03 0.  1.
    9900012    2    1    2    0    0 -0.85974313676E+00  0.80743716519E+00  0.42626377310E-01  0.90007775426E+02  0.90000037262E+02 0.  0.
        -12    1    1    2    0    0  0.85974313676E+00 -0.80743716519E+00 -0.42626377310E-01  0.11802245740E+01  0.00000000000E+00 0.  1.
         11    1    3    3    0    0 -0.26895882930E+01 -0.24089435461E+01 -0.76167272683E+01  0.84292009547E+01  0.51100000000E-03 0. -1.
        -11    1    3    3    0    0  0.28483308740E+02  0.15637407882E+02 -0.22448073247E+02  0.39493586755E+02  0.51100000000E-03 0.  1.
         12    1    3    3    0    0 -0.26653463584E+02 -0.12421027170E+02  0.30107426892E+02  0.42084987716E+02  0.00000000000E+00 0. -1.
</event>
<event>
 7    1  0.2405891E-015  0.9000769E+02  0.7816164E-02  0.1186339E+00
        -11   -1    0    0    0    0  0.00000000000E+00  0.00000000000E+00  0.45593999997E+02  0.45594000000E+02  0.51100000000E-03 0. -1.
         11   -1    0    0    0    0 -0.00000000000E+00 -0.00000000000E+00 -0.45593999997E+02  0.45594000000E+02  0.51100000000E-03 0.  1.
    9900012    2    1    2    0    0 -0.74246043281E+00  0.89300979091E+00  0.21076411540E+00  0.90007688391E+02  0.89999949078E+02 0.  0.
        -12    1    1    2    0    0  0.74246043281E+00 -0.89300979091E+00 -0.21076411540E+00  0.11803116086E+01  0.00000000000E+00 0.  1.
         11    1    3    3    0    0 -0.25032737325E+02  0.27405441687E+02  0.12657084293E+02  0.39216042063E+02  0.51100000000E-03 0.  1.
        -11    1    3    3    0    0  0.92098549771E+01 -0.24399034372E+01 -0.19341394431E+02  0.21560707231E+02  0.51100000000E-03 0. -1.
        -12    1    3    3    0    0  0.15080421915E+02 -0.24072528459E+02  0.68950742533E+01  0.29230939097E+02  0.00000000000E+00 0.  1.
</event>
<event>
 7    1  0.2405891E-015  0.9000809E+02  0.7816164E-02  0.1186338E+00
        -11   -1    0    0    0    0  0.00000000000E+00  0.00000000000E+00  0.45593999997E+02  0.45594000000E+02  0.51100000000E-03 0.  1.
         11   -1    0    0    0    0 -0.00000000000E+00 -0.00000000000E+00 -0.45593999997E+02  0.45594000000E+02  0.51100000000E-03 0. -1.
    9900012    2    1    2    0    0 -0.11444486656E+01 -0.20099186291E-01 -0.28640908135E+00  0.90008086068E+02  0.90000352003E+02 0.  0.
        -12    1    1    2    0    0  0.11444486656E+01  0.20099186291E-01  0.28640908135E+00  0.11799139322E+01  0.00000000000E+00 0.  1.
         11    1    3    3    0    0 -0.86143114205E+01 -0.61374812289E+00  0.65347179878E+01  0.10829847065E+02  0.51100000000E-03 0. -1.
        -11    1    3    3    0    0 -0.33314410471E+02 -0.80000190815E+00  0.10365172104E+02  0.34898807158E+02  0.51100000000E-03 0.  1.
         12    1    3    3    0    0  0.40784273226E+02  0.13936508447E+01 -0.17186299173E+02  0.44279431845E+02  0.00000000000E+00 0. -1.
</event>
<event>
 7    1  0.2405891E-015  0.9000773E+02  0.7816164E-02  0.1186339E+00
        -11   -1    0    0    0    0  0.00000000000E+00  0.00000000000E+00  0.45593999997E+02  0.45594000000E+02  0.51100000000E-03 0.  1.
         11   -1    0    0    0    0 -0.00000000000E+00 -0.00000000000E+00 -0.45593999997E+02  0.45594000000E+02  0.51100000000E-03 0. -1.
    9900012    2    1    2    0    0  0.68547377105E-01  0.11144625467E+01 -0.38250977449E+00  0.90007729167E+02  0.89999990392E+02 0.  0.
        -12    1    1    2    0    0 -0.68547377105E-01 -0.11144625467E+01  0.38250977449E+00  0.11802708327E+01  0.00000000000E+00 0.  1.
         11    1    3    3    0    0 -0.40743967926E+01 -0.10623552296E+01  0.13265553604E+01  0.44146412360E+01  0.51100000000E-03 0. -1.
        -11    1    3    3    0    0 -0.28876968820E+02  0.22839039727E+02  0.19051349262E+02  0.41454251566E+02  0.51100000000E-03 0.  1.
         12    1    3    3    0    0  0.33019912990E+02 -0.20662221951E+02 -0.20760414397E+02  0.44138836366E+02  0.00000000000E+00 0. -1.
</event>
<event>
 7    1  0.2405891E-015  0.9000755E+02  0.7816164E-02  0.1186339E+00
        -11   -1    0    0    0    0  0.00000000000E+00  0.00000000000E+00  0.45593999997E+02  0.45594000000E+02  0.51100000000E-03 0.  1.
         11   -1    0    0    0    0 -0.00000000000E+00 -0.00000000000E+00 -0.45593999997E+02  0.45594000000E+02  0.51100000000E-03 0. -1.
    9900012    2    1    2    0    0  0.10806664412E+01 -0.33568593536E+00 -0.33606622837E+00  0.90007548597E+02  0.89999807439E+02 0.  0.
        -12    1    1    2    0    0 -0.10806664412E+01  0.33568593536E+00  0.33606622837E+00  0.11804514027E+01  0.00000000000E+00 0.  1.
         11    1    3    3    0    0 -0.90625682241E+01  0.69581423671E+01 -0.96789757609E+00  0.11466591211E+02  0.51100000000E-03 0. -1.
        -11    1    3    3    0    0  0.29067053333E+02  0.22484187383E+02  0.15970660033E+02  0.40068619316E+02  0.51100000000E-03 0.  1.
         12    1    3    3    0    0 -0.18923818668E+02 -0.29778015685E+02 -0.15338828686E+02  0.38472338070E+02  0.00000000000E+00 0. -1.
</event>
<event>
 7    1  0.2405891E-015  0.9000773E+02  0.7816164E-02  0.1186339E+00
        -11   -1    0    0    0    0  0.00000000000E+00  0.00000000000E+00  0.45593999997E+02  0.45594000000E+02  0.51100000000E-03 0.  1.
         11   -1    0    0    0    0 -0.00000000000E+00 -0.00000000000E+00 -0.45593999997E+02  0.45594000000E+02  0.51100000000E-03 0. -1.
    9900012    2    1    2    0    0 -0.85395344613E+00  0.20732121124E+00 -0.78792308749E+00  0.90007728267E+02  0.89999989480E+02 0.  0.
        -12    1    1    2    0    0  0.85395344613E+00 -0.20732121124E+00  0.78792308749E+00  0.11802717334E+01  0.00000000000E+00 0.  1.
         11    1    3    3    0    0 -0.26408226237E+02 -0.26483203706E+02 -0.12576948017E+02  0.39458004425E+02  0.51100000000E-03 0. -1.
        -11    1    3    3    0    0 -0.41685955954E+01 -0.33684738386E+01  0.57284144390E+01  0.78446502462E+01  0.51100000000E-03 0.  1.
        -12    1    3    3    0    0  0.29722868386E+02  0.30058998756E+02  0.60606104901E+01  0.42705073596E+02  0.00000000000E+00 0.  1.
</event>
<event>
 7    1  0.2405891E-015  0.9000768E+02  0.7816164E-02  0.1186339E+00
        -11   -1    0    0    0    0  0.00000000000E+00  0.00000000000E+00  0.45593999997E+02  0.45594000000E+02  0.51100000000E-03 0. -1.
         11   -1    0    0    0    0 -0.00000000000E+00 -0.00000000000E+00 -0.45593999997E+02  0.45594000000E+02  0.51100000000E-03 0.  1.
    9900012    2    1    2    0    0 -0.10450319424E+01 -0.54465466720E+00 -0.66471020649E-01  0.90007678491E+02  0.89999939047E+02 0.  0.
        -12    1    1    2    0    0  0.10450319424E+01  0.54465466720E+00  0.66471020649E-01  0.11803215087E+01  0.00000000000E+00 0.  1.
         11    1    3    3    0    0 -0.30177482489E+01  0.58078982447E+00  0.88493400771E+01  0.93677607450E+01  0.51100000000E-03 0. -1.
        -11    1    3    3    0    0  0.32683005600E+02 -0.23944406762E+02 -0.12001320655E+02  0.42255711661E+02  0.51100000000E-03 0.  1.
         12    1    3    3    0    0 -0.30710289294E+02  0.22818962270E+02  0.30855095570E+01  0.38384206086E+02  0.00000000000E+00 0. -1.
</event>
<event>
 7    1  0.2405891E-015  0.9000775E+02  0.7816164E-02  0.1186339E+00
        -11   -1    0    0    0    0  0.00000000000E+00  0.00000000000E+00  0.45593999997E+02  0.45594000000E+02  0.51100000000E-03 0. -1.
         11   -1    0    0    0    0 -0.00000000000E+00 -0.00000000000E+00 -0.45593999997E+02  0.45594000000E+02  0.51100000000E-03 0.  1.
    9900012    2    1    2    0    0 -0.88704077482E+00  0.27543914143E+00  0.72821240854E+00  0.90007745210E+02  0.90000006647E+02 0.  0.
        -12    1    1    2    0    0  0.88704077482E+00 -0.27543914143E+00 -0.72821240854E+00  0.11802547898E+01  0.00000000000E+00 0.  1.
         11    1    3    3    0    0 -0.11046728924E+02  0.38141128582E+02 -0.62994659473E+01  0.40205213355E+02  0.51100000000E-03 0. -1.
        -11    1    3    3    0    0 -0.35554023201E+01 -0.70524754541E+00 -0.69168647598E+01  0.78090510387E+01  0.51100000000E-03 0.  1.
        -12    1    3    3    0    0  0.13715090469E+02 -0.37160441895E+02  0.13944543116E+02  0.41993480817E+02  0.00000000000E+00 0.  1.
</event>
<event>
 7    1  0.2405891E-015  0.9000775E+02  0.7816164E-02  0.1186339E+00
        -11   -1    0    0    0    0  0.00000000000E+00  0.00000000000E+00  0.45593999997E+02  0.45594000000E+02  0.51100000000E-03 0.  1.
         11   -1    0    0    0    0 -0.00000000000E+00 -0.00000000000E+00 -0.45593999997E+02  0.45594000000E+02  0.51100000000E-03 0. -1.
    9900012    2    1    2    0    0 -0.85763688291E-01 -0.11496968097E+01 -0.25263187242E+00  0.90007753828E+02  0.90000015378E+02 0.  0.
        -12    1    1    2    0    0  0.85763688291E-01  0.11496968097E+01  0.25263187242E+00  0.11802461724E+01  0.00000000000E+00 0.  1.
         11    1    3    3    0    0 -0.15638990529E+01 -0.23730933121E+01  0.31228382293E+01  0.42224958239E+01  0.51100000000E-03 0. -1.
        -11    1    3    3    0    0  0.35748173611E+02  0.28583169804E+01  0.22917849929E+02  0.42559719666E+02  0.51100000000E-03 0.  1.
         12    1    3    3    0    0 -0.34270038246E+02 -0.16349204781E+01 -0.26293320030E+02  0.43225538337E+02  0.00000000000E+00 0. -1.
</event>
<event>
 7    1  0.2405891E-015  0.9000770E+02  0.7816164E-02  0.1186339E+00
        -11   -1    0    0    0    0  0.00000000000E+00  0.00000000000E+00  0.45593999997E+02  0.45594000000E+02  0.51100000000E-03 0. -1.
         11   -1    0    0    0    0 -0.00000000000E+00 -0.00000000000E+00 -0.45593999997E+02  0.45594000000E+02  0.51100000000E-03 0.  1.
    9900012    2    1    2    0    0  0.11297184589E+01  0.40803371153E-01  0.33939732010E+00  0.90007695271E+02  0.89999956049E+02 0.  0.
        -12    1    1    2    0    0 -0.11297184589E+01 -0.40803371153E-01 -0.33939732010E+00  0.11803047286E+01  0.00000000000E+00 0.  1.
         11    1    3    3    0    0  0.16559155118E+01 -0.63471833709E+01 -0.69708125719E+01  0.95718870187E+01  0.51100000000E-03 0. -1.
        -11    1    3    3    0    0  0.11633825486E+02  0.31219867010E+02 -0.22169349460E+02  0.40018821163E+02  0.51100000000E-03 0.  1.
         12    1    3    3    0    0 -0.12160022539E+02 -0.24831880268E+02  0.29479559351E+02  0.40416987089E+02  0.00000000000E+00 0. -1.
</event>
<event>
 7    1  0.2405891E-015  0.9000773E+02  0.7816164E-02  0.1186339E+00
        -11   -1    0    0    0    0  0.00000000000E+00  0.00000000000E+00  0.45593999997E+02  0.45594000000E+02  0.51100000000E-03 0.  1.
         11   -1    0    0    0    0 -0.00000000000E+00 -0.00000000000E+00 -0.45593999997E+02  0.45594000000E+02  0.51100000000E-03 0. -1.
    9900012    2    1    2    0    0 -0.63815775884E+00 -0.63453570682E+00 -0.76363917703E+00  0.90007734911E+02  0.89999996211E+02 0.  0.
        -12    1    1    2    0    0  0.63815775884E+00  0.63453570682E+00  0.76363917703E+00  0.11802650893E+01  0.00000000000E+00 0.  1.
         11    1    3    3    0    0 -0.46109174784E+01 -0.35586517994E+01 -0.92665611467E+01  0.10945031675E+02  0.51100000000E-03 0. -1.
        -11    1    3    3    0    0 -0.27971183090E+02  0.46724122660E+01 -0.21200727852E+02  0.35407476350E+02  0.51100000000E-03 0.  1.
         12    1    3    3    0    0  0.31943942809E+02 -0.17482961734E+01  0.29703649821E+02  0.43655226885E+02  0.00000000000E+00 0. -1.
</event>
<event>
 7    1  0.2405891E-015  0.9000765E+02  0.7816164E-02  0.1186339E+00
        -11   -1    0    0    0    0  0.00000000000E+00  0.00000000000E+00  0.45593999997E+02  0.45594000000E+02  0.51100000000E-03 0.  1.
         11   -1    0    0    0    0 -0.00000000000E+00 -0.00000000000E+00 -0.45593999997E+02  0.45594000000E+02  0.51100000000E-03 0. -1.
    9900012    2    1    2    0    0  0.11145165809E+01 -0.93716893909E-01 -0.37721569809E+00  0.90007651853E+02  0.89999912057E+02 0.  0.
        -12    1    1    2    0    0 -0.11145165809E+01  0.93716893909E-01  0.37721569809E+00  0.11803481470E+01  0.00000000000E+00 0.  1.
         11    1    3    3    0    0  0.76438751761E+01  0.30008611000E+02 -0.24761657862E+02  0.39649530416E+02  0.51100000000E-03 0. -1.
        -11    1    3    3    0    0 -0.57969167250E+01 -0.35368038945E+01 -0.66467907324E+01  0.95022656565E+01  0.51100000000E-03 0.  1.
        -12    1    3    3    0    0 -0.73244187019E+00 -0.26565524000E+02  0.31031232896E+02  0.40855855780E+02  0.00000000000E+00 0.  1.
</event>
<event>
 7    1  0.2405891E-015  0.9000771E+02  0.7816164E-02  0.1186339E+00
        -11   -1    0    0    0    0  0.00000000000E+00  0.00000000000E+00  0.45593999997E+02  0.45594000000E+02  0.51100000000E-03 0. -1.
         11   -1    0    0    0    0 -0.00000000000E+00 -0.00000000000E+00 -0.45593999997E+02  0.45594000000E+02  0.51100000000E-03 0.  1.
    9900012    2    1    2    0    0 -0.11766772019E+01 -0.74391181331E-01  0.54522172117E-01  0.90007713614E+02  0.89999974634E+02 0.  0.
        -12    1    1    2    0    0  0.11766772019E+01  0.74391181331E-01 -0.54522172117E-01  0.11802863858E+01  0.00000000000E+00 0.  1.
         11    1    3    3    0    0  0.27045172259E+02  0.27412350547E+02  0.21035019957E+01  0.38565567880E+02  0.51100000000E-03 0. -1.
        -11    1    3    3    0    0 -0.10202039613E+01  0.16429401562E+01  0.96999896524E+01  0.98908982402E+01  0.51100000000E-03 0.  1.
        -12    1    3    3    0    0 -0.27201645500E+02 -0.29129681884E+02 -0.11748969476E+02  0.41551247494E+02  0.00000000000E+00 0.  1.
</event>
<event>
 7    1  0.2405891E-015  0.9000775E+02  0.7816164E-02  0.1186339E+00
        -11   -1    0    0    0    0  0.00000000000E+00  0.00000000000E+00  0.45593999997E+02  0.45594000000E+02  0.51100000000E-03 0.  1.
         11   -1    0    0    0    0 -0.00000000000E+00 -0.00000000000E+00 -0.45593999997E+02  0.45594000000E+02  0.51100000000E-03 0. -1.
    9900012    2    1    2    0    0  0.70094820130E-01  0.11712760267E+01 -0.12721695757E+00  0.90007752158E+02  0.90000013686E+02 0.  0.
        -12    1    1    2    0    0 -0.70094820130E-01 -0.11712760267E+01  0.12721695757E+00  0.11802478421E+01  0.00000000000E+00 0.  1.
         11    1    3    3    0    0 -0.21308608564E+02  0.26744646893E+02 -0.94240525397E+01  0.35470349630E+02  0.51100000000E-03 0. -1.
        -11    1    3    3    0    0  0.26005695059E+01  0.11301688235E+02 -0.16979152120E+01  0.11720667006E+02  0.51100000000E-03 0.  1.
        -12    1    3    3    0    0  0.18778133878E+02 -0.36875059102E+02  0.10994750794E+02  0.42816735522E+02  0.00000000000E+00 0.  1.
</event>
<event>
 7    1  0.2405891E-015  0.9000763E+02  0.7816164E-02  0.1186339E+00
        -11   -1    0    0    0    0  0.00000000000E+00  0.00000000000E+00  0.45593999997E+02  0.45594000000E+02  0.51100000000E-03 0. -1.
         11   -1    0    0    0    0 -0.00000000000E+00 -0.00000000000E+00 -0.45593999997E+02  0.45594000000E+02  0.51100000000E-03 0.  1.
    9900012    2    1    2    0    0 -0.80768866210E+00 -0.21574578078E+00  0.83328639763E+00  0.90007629957E+02  0.89999889873E+02 0.  0.
        -12    1    1    2    0    0  0.80768866210E+00  0.21574578078E+00 -0.83328639763E+00  0.11803700425E+01  0.00000000000E+00 0.  1.
         11    1    3    3    0    0 -0.12144057659E+02  0.15404030086E+02  0.34483939337E+02  0.39672463395E+02  0.51100000000E-03 0. -1.
        -11    1    3    3    0    0  0.77212539297E+01 -0.27520062470E+01  0.48885084240E+01  0.95440460762E+01  0.51100000000E-03 0.  1.
        -12    1    3    3    0    0  0.36151150669E+01 -0.12867769620E+02 -0.38539161364E+02  0.40791120487E+02  0.00000000000E+00 0.  1.
</event>
<event>
 7    1  0.2405891E-015  0.9000776E+02  0.7816164E-02  0.1186339E+00
        -11   -1    0    0    0    0  0.00000000000E+00  0.00000000000E+00  0.45593999997E+02  0.45594000000E+02  0.51100000000E-03 0. -1.
         11   -1    0    0    0    0 -0.00000000000E+00 -0.00000000000E+00 -0.45593999997E+02  0.45594000000E+02  0.51100000000E-03 0.  1.
    9900012    2    1    2    0    0 -0.75970520553E+00 -0.77193230422E+00  0.46897883502E+00  0.90007757385E+02  0.90000018983E+02 0.  0.
        -12    1    1    2    0    0  0.75970520553E+00  0.77193230422E+00 -0.46897883502E+00  0.11802426146E+01  0.00000000000E+00 0.  1.
         11    1    3    3    0    0  0.11072647943E+02 -0.34769664169E+02  0.16972634170E+02  0.40244296364E+02  0.51100000000E-03 0. -1.
        -11    1    3    3    0    0 -0.91530548778E+01 -0.30787817302E+01 -0.20053850670E+01  0.98630056305E+01  0.51100000000E-03 0.  1.
        -12    1    3    3    0    0 -0.26792982709E+01  0.37076513595E+02 -0.14498270268E+02  0.39900455391E+02  0.00000000000E+00 0.  1.
</event>
<event>
 7    1  0.2405891E-015  0.9000773E+02  0.7816164E-02  0.1186339E+00
        -11   -1    0    0    0    0  0.00000000000E+00  0.00000000000E+00  0.45593999997E+02  0.45594000000E+02  0.51100000000E-03 0.  1.
         11   -1    0    0    0    0 -0.00000000000E+00 -0.00000000000E+00 -0.45593999997E+02  0.45594000000E+02  0.51100000000E-03 0. -1.
    9900012    2    1    2    0    0 -0.84754055835E+00  0.43883656416E+00 -0.69435219465E+00  0.90007734141E+02  0.89999995431E+02 0.  0.
        -12    1    1    2    0    0  0.84754055835E+00 -0.43883656416E+00  0.69435219465E+00  0.11802658592E+01  0.00000000000E+00 0.  1.
         11    1    3    3    0    0 -0.27002324429E+02  0.67013698164E+01  0.25163047177E+02  0.37512835476E+02  0.51100000000E-03 0. -1.
        -11    1    3    3    0    0  0.37431696590E+01 -0.41979678602E+00  0.95043413487E+01  0.10223504936E+02  0.51100000000E-03 0.  1.
        -12    1    3    3    0    0  0.22411614212E+02 -0.58427364662E+01 -0.35361740720E+02  0.42271393729E+02  0.00000000000E+00 0.  1.
</event>
<event>
 7    1  0.2405891E-015  0.9000808E+02  0.7816164E-02  0.1186338E+00
        -11   -1    0    0    0    0  0.00000000000E+00  0.00000000000E+00  0.45593999997E+02  0.45594000000E+02  0.51100000000E-03 0.  1.
         11   -1    0    0    0    0 -0.00000000000E+00 -0.00000000000E+00 -0.45593999997E+02  0.45594000000E+02  0.51100000000E-03 0. -1.
    9900012    2    1    2    0    0  0.50555356984E+00 -0.94852674792E+00 -0.48673665800E+00  0.90008084758E+02  0.90000350676E+02 0.  0.
        -12    1    1    2    0    0 -0.50555356984E+00  0.94852674792E+00  0.48673665800E+00  0.11799152418E+01  0.00000000000E+00 0.  1.
         11    1    3    3    0    0  0.78916946408E+01  0.16595544254E+02  0.61681268573E+01  0.19383929493E+02  0.51100000000E-03 0. -1.
        -11    1    3    3    0    0 -0.24976566594E+02 -0.16227447511E+02  0.21962603676E+02  0.37006957346E+02  0.51100000000E-03 0.  1.
         12    1    3    3    0    0  0.17590425523E+02 -0.13166234907E+01 -0.28617467191E+02  0.33617197919E+02  0.00000000000E+00 0. -1.
</event>
<event>
 7    1  0.2405891E-015  0.9000773E+02  0.7816164E-02  0.1186339E+00
        -11   -1    0    0    0    0  0.00000000000E+00  0.00000000000E+00  0.45593999997E+02  0.45594000000E+02  0.51100000000E-03 0.  1.
         11   -1    0    0    0    0 -0.00000000000E+00 -0.00000000000E+00 -0.45593999997E+02  0.45594000000E+02  0.51100000000E-03 0. -1.
    9900012    2    1    2    0    0  0.11677370930E+01  0.17128185178E+00 -0.95452801767E-02  0.90007729479E+02  0.89999990708E+02 0.  0.
        -12    1    1    2    0    0 -0.11677370930E+01 -0.17128185178E+00  0.95452801767E-02  0.11802705213E+01  0.00000000000E+00 0.  1.
         11    1    3    3    0    0  0.10189228553E+02 -0.21287502177E+01 -0.15861121398E+01  0.10529373579E+02  0.51100000000E-03 0. -1.
        -11    1    3    3    0    0 -0.31597975945E+02  0.28839743963E+02 -0.75923136825E+01  0.43448891159E+02  0.51100000000E-03 0.  1.
         12    1    3    3    0    0  0.22576484485E+02 -0.26539711893E+02  0.91688805422E+01  0.36029464741E+02  0.00000000000E+00 0. -1.
</event>
<event>
 7    1  0.2405891E-015  0.9000788E+02  0.7816164E-02  0.1186339E+00
        -11   -1    0    0    0    0  0.00000000000E+00  0.00000000000E+00  0.45593999997E+02  0.45594000000E+02  0.51100000000E-03 0.  1.
         11   -1    0    0    0    0 -0.00000000000E+00 -0.00000000000E+00 -0.45593999997E+02  0.45594000000E+02  0.51100000000E-03 0. -1.
    9900012    2    1    2    0    0 -0.22064276649E+00 -0.10698226785E+01  0.44663629062E+00  0.90007878070E+02  0.90000141260E+02 0.  0.
        -12    1    1    2    0    0  0.22064276649E+00  0.10698226785E+01 -0.44663629062E+00  0.11801219301E+01  0.00000000000E+00 0.  1.
         11    1    3    3    0    0  0.82926187672E+01 -0.40014854051E+02 -0.54829466346E+01  0.41231283934E+02  0.51100000000E-03 0. -1.
        -11    1    3    3    0    0 -0.24393474784E+01  0.63175900179E+01 -0.99096452745E+01  0.12002642604E+02  0.51100000000E-03 0.  1.
        -12    1    3    3    0    0 -0.60739140554E+01  0.32627441355E+02  0.15839228200E+02  0.36773951532E+02  0.00000000000E+00 0.  1.
</event>
<event>
 7    1  0.2405891E-015  0.9000791E+02  0.7816164E-02  0.1186339E+00
        -11   -1    0    0    0    0  0.00000000000E+00  0.00000000000E+00  0.45593999997E+02  0.45594000000E+02  0.51100000000E-03 0. -1.
         11   -1    0    0    0    0 -0.00000000000E+00 -0.00000000000E+00 -0.45593999997E+02  0.45594000000E+02  0.51100000000E-03 0.  1.
    9900012    2    1    2    0    0 -0.30571927348E+00  0.33364290067E+00  0.10898759732E+01  0.90007910386E+02  0.90000174003E+02 0.  0.
        -12    1    1    2    0    0  0.30571927348E+00 -0.33364290067E+00 -0.10898759732E+01  0.11800896137E+01  0.00000000000E+00 0.  1.
         11    1    3    3    0    0  0.86677432147E+01  0.33157137214E+02 -0.14773317114E+02  0.37319919875E+02  0.51100000000E-03 0. -1.
        -11    1    3    3    0    0  0.59620745197E+01  0.87280430354E+00 -0.70610208455E+01  0.92825716034E+01  0.51100000000E-03 0.  1.
        -12    1    3    3    0    0 -0.14935537008E+02 -0.33696298616E+02  0.22924213933E+02  0.43405418908E+02  0.00000000000E+00 0.  1.
</event>
<event>
 7    1  0.2405891E-015  0.9000773E+02  0.7816164E-02  0.1186339E+00
        -11   -1    0    0    0    0  0.00000000000E+00  0.00000000000E+00  0.45593999997E+02  0.45594000000E+02  0.51100000000E-03 0.  1.
         11   -1    0    0    0    0 -0.00000000000E+00 -0.00000000000E+00 -0.45593999997E+02  0.45594000000E+02  0.51100000000E-03 0. -1.
    9900012    2    1    2    0    0  0.11916218832E+00  0.98617765888E+00  0.63741223082E+00  0.90007728695E+02  0.89999989914E+02 0.  0.
        -12    1    1    2    0    0 -0.11916218832E+00 -0.98617765888E+00 -0.63741223082E+00  0.11802713053E+01  0.00000000000E+00 0.  1.
         11    1    3    3    0    0  0.37169887271E+00  0.10119805439E+02 -0.21753042373E+01  0.10357633463E+02  0.51100000000E-03 0. -1.
        -11    1    3    3    0    0 -0.32524099883E+02  0.33110667512E+01 -0.19898951067E+02  0.38272032741E+02  0.51100000000E-03 0.  1.
         12    1    3    3    0    0  0.32271563199E+02 -0.12444694531E+02  0.22711667535E+02  0.41378062491E+02  0.00000000000E+00 0. -1.
</event>
<event>
 7    1  0.2405891E-015  0.9000782E+02  0.7816164E-02  0.1186339E+00
        -11   -1    0    0    0    0  0.00000000000E+00  0.00000000000E+00  0.45593999997E+02  0.45594000000E+02  0.51100000000E-03 0.  1.
         11   -1    0    0    0    0 -0.00000000000E+00 -0.00000000000E+00 -0.45593999997E+02  0.45594000000E+02  0.51100000000E-03 0. -1.
    9900012    2    1    2    0    0  0.26644045713E+00  0.13427854177E+00 -0.11418370778E+01  0.90007824947E+02  0.90000087436E+02 0.  0.
        -12    1    1    2    0    0 -0.26644045713E+00 -0.13427854177E+00  0.11418370778E+01  0.11801750532E+01  0.00000000000E+00 0.  1.
         11    1    3    3    0    0 -0.12336091764E+01 -0.30318019392E+01  0.84575728465E+01  0.90688562297E+01  0.51100000000E-03 0. -1.
        -11    1    3    3    0    0 -0.28076808577E+02  0.18117322247E+02  0.17870570455E+02  0.37893295369E+02  0.51100000000E-03 0.  1.
         12    1    3    3    0    0  0.29576858210E+02 -0.14951241766E+02 -0.27469980380E+02  0.43045673348E+02  0.00000000000E+00 0. -1.
</event>
<event>
 7    1  0.2405891E-015  0.9000768E+02  0.7816164E-02  0.1186339E+00
        -11   -1    0    0    0    0  0.00000000000E+00  0.00000000000E+00  0.45593999997E+02  0.45594000000E+02  0.51100000000E-03 0.  1.
         11   -1    0    0    0    0 -0.00000000000E+00 -0.00000000000E+00 -0.45593999997E+02  0.45594000000E+02  0.51100000000E-03 0. -1.
    9900012    2    1    2    0    0  0.63836646458E+00  0.68704251386E+00  0.71667192302E+00  0.90007678940E+02  0.89999939502E+02 0.  0.
        -12    1    1    2    0    0 -0.63836646458E+00 -0.68704251386E+00 -0.71667192302E+00  0.11803210598E+01  0.00000000000E+00 0.  1.
         11    1    3    3    0    0 -0.26476572568E+02 -0.21444238121E+02 -0.17186485559E+02  0.38160706619E+02  0.51100000000E-03 0. -1.
        -11    1    3    3    0    0  0.31192202794E+01  0.20971393548E+00 -0.90807669592E+01  0.96038452671E+01  0.51100000000E-03 0.  1.
        -12    1    3    3    0    0  0.23995718753E+02  0.21921566700E+02  0.26983924441E+02  0.42243127054E+02  0.00000000000E+00 0.  1.
</event>
<event>
 7    1  0.2405891E-015  0.9000773E+02  0.7816164E-02  0.1186339E+00
        -11   -1    0    0    0    0  0.00000000000E+00  0.00000000000E+00  0.45593999997E+02  0.45594000000E+02  0.51100000000E-03 0.  1.
         11   -1    0    0    0    0 -0.00000000000E+00 -0.00000000000E+00 -0.45593999997E+02  0.45594000000E+02  0.51100000000E-03 0. -1.
    9900012    2    1    2    0    0 -0.31184275541E+00  0.10149918845E+01 -0.51535002519E+00  0.90007728812E+02  0.89999990032E+02 0.  0.
        -12    1    1    2    0    0  0.31184275541E+00 -0.10149918845E+01  0.51535002519E+00  0.11802711884E+01  0.00000000000E+00 0.  1.
         11    1    3    3    0    0  0.62086898014E+01 -0.55687418618E+01 -0.15838283450E+01  0.84892418661E+01  0.51100000000E-03 0. -1.
        -11    1    3    3    0    0 -0.13339547522E+02 -0.34637645738E+02  0.10724154812E+02  0.38635702751E+02  0.51100000000E-03 0.  1.
         12    1    3    3    0    0  0.68190149657E+01  0.41221379485E+02 -0.96556764926E+01  0.42882784194E+02  0.00000000000E+00 0. -1.
</event>
<event>
 7    1  0.2405891E-015  0.9000780E+02  0.7816164E-02  0.1186339E+00
        -11   -1    0    0    0    0  0.00000000000E+00  0.00000000000E+00  0.45593999997E+02  0.45594000000E+02  0.51100000000E-03 0.  1.
         11   -1    0    0    0    0 -0.00000000000E+00 -0.00000000000E+00 -0.45593999997E+02  0.45594000000E+02  0.51100000000E-03 0. -1.
    9900012    2    1    2    0    0 -0.37286986722E+00 -0.28248456279E+00 -0.10835309521E+01  0.90007801377E+02  0.90000063555E+02 0.  0.
        -12    1    1    2    0    0  0.37286986722E+00  0.28248456279E+00  0.10835309521E+01  0.11801986232E+01  0.00000000000E+00 0.  1.
         11    1    3    3    0    0 -0.70039068823E+01  0.40366672207E+02 -0.14389907185E+02  0.43423408039E+02  0.51100000000E-03 0. -1.
        -11    1    3    3    0    0  0.27519023572E+01  0.78094237476E+00  0.19137313769E+01  0.34416864500E+01  0.51100000000E-03 0.  1.
        -12    1    3    3    0    0  0.38791346579E+01 -0.41430099144E+02  0.11392644856E+02  0.43142706888E+02  0.00000000000E+00 0.  1.
</event>
<event>
 7    1  0.2405891E-015  0.9000766E+02  0.7816164E-02  0.1186339E+00
        -11   -1    0    0    0    0  0.00000000000E+00  0.00000000000E+00  0.45593999997E+02  0.45594000000E+02  0.51100000000E-03 0.  1.
         11   -1    0    0    0    0 -0.00000000000E+00 -0.00000000000E+00 -0.45593999997E+02  0.45594000000E+02  0.51100000000E-03 0. -1.
    9900012    2    1    2    0    0  0.11205259161E+01  0.36260193875E+00 -0.78415253975E-01  0.90007657911E+02  0.89999918196E+02 0.  0.
        -12    1    1    2    0    0 -0.11205259161E+01 -0.36260193875E+00  0.78415253975E-01  0.11803420889E+01  0.00000000000E+00 0.  1.
         11    1    3    3    0    0 -0.23984770013E+01  0.16763257348E+00 -0.92207035684E+01  0.95290171142E+01  0.51100000000E-03 0. -1.
        -11    1    3    3    0    0  0.74078385529E+01 -0.38941633274E+02 -0.17186672932E+01  0.39677206197E+02  0.51100000000E-03 0.  1.
         12    1    3    3    0    0 -0.38888356355E+01  0.39136602639E+02  0.10860955608E+02  0.40801434600E+02  0.00000000000E+00 0. -1.
</event>
<event>
 7    1  0.2405891E-015  0.9000772E+02  0.7816164E-02  0.1186339E+00
        -11   -1    0    0    0    0  0.00000000000E+00  0.00000000000E+00  0.45593999997E+02  0.45594000000E+02  0.51100000000E-03 0. -1.
         11   -1    0    0    0    0 -0.00000000000E+00 -0.00000000000E+00 -0.45593999997E+02  0.45594000000E+02  0.51100000000E-03 0.  1.
    9900012    2    1    2    0    0  0.52071010120E+00  0.21122203848E-01 -0.10589957896E+01  0.90007721542E+02  0.89999982666E+02 0.  0.
        -12    1    1    2    0    0 -0.52071010120E+00 -0.21122203848E-01  0.10589957896E+01  0.11802784584E+01  0.00000000000E+00 0.  1.
         11    1    3    3    0    0  0.15878433764E+02 -0.20715489990E+02 -0.22799715504E+02  0.34656647438E+02  0.51100000000E-03 0. -1.
        -11    1    3    3    0    0  0.12648867858E+02 -0.19981188134E+01 -0.77339829776E+00  0.12829048370E+02  0.51100000000E-03 0.  1.
        -12    1    3    3    0    0 -0.28006591521E+02  0.22734731007E+02  0.22514118013E+02  0.42522025733E+02  0.00000000000E+00 0.  1.
</event>
<event>
 7    1  0.2405891E-015  0.9000769E+02  0.7816164E-02  0.1186339E+00
        -11   -1    0    0    0    0  0.00000000000E+00  0.00000000000E+00  0.45593999997E+02  0.45594000000E+02  0.51100000000E-03 0.  1.
         11   -1    0    0    0    0 -0.00000000000E+00 -0.00000000000E+00 -0.45593999997E+02  0.45594000000E+02  0.51100000000E-03 0. -1.
    9900012    2    1    2    0    0  0.11163843500E+01  0.85069001680E-01 -0.37361197532E+00  0.90007687897E+02  0.89999948577E+02 0.  0.
        -12    1    1    2    0    0 -0.11163843500E+01 -0.85069001680E-01  0.37361197532E+00  0.11803121028E+01  0.00000000000E+00 0.  1.
         11    1    3    3    0    0 -0.36103385342E+02  0.10306294773E+02 -0.88714148458E+01  0.38579478310E+02  0.51100000000E-03 0. -1.
        -11    1    3    3    0    0  0.25995184855E+01  0.94574921259E+01 -0.24870266841E+01  0.10118643963E+02  0.51100000000E-03 0.  1.
        -12    1    3    3    0    0  0.34620251206E+02 -0.19678717897E+02  0.10984829555E+02  0.41309565623E+02  0.00000000000E+00 0.  1.
</event>
<event>
 7    1  0.2405891E-015  0.9000771E+02  0.7816164E-02  0.1186339E+00
        -11   -1    0    0    0    0  0.00000000000E+00  0.00000000000E+00  0.45593999997E+02  0.45594000000E+02  0.51100000000E-03 0.  1.
         11   -1    0    0    0    0 -0.00000000000E+00 -0.00000000000E+00 -0.45593999997E+02  0.45594000000E+02  0.51100000000E-03 0. -1.
    9900012    2    1    2    0    0 -0.52049624769E+00 -0.85863684876E+00  0.62041038189E+00  0.90007710788E+02  0.89999971770E+02 0.  0.
        -12    1    1    2    0    0  0.52049624769E+00  0.85863684876E+00 -0.62041038189E+00  0.11802892120E+01  0.00000000000E+00 0.  1.
         11    1    3    3    0    0  0.35406163033E+01  0.70259449818E+01  0.18827952632E+01  0.80897951123E+01  0.51100000000E-03 0. -1.
        -11    1    3    3    0    0  0.27589966400E+01  0.27009725728E+02  0.25631319844E+02  0.37337674052E+02  0.51100000000E-03 0.  1.
         12    1    3    3    0    0 -0.68201091910E+01 -0.34894307559E+02 -0.26893704725E+02  0.44580241624E+02  0.00000000000E+00 0. -1.
</event>
<event>
 7    1  0.2405891E-015  0.9000771E+02  0.7816164E-02  0.1186339E+00
        -11   -1    0    0    0    0  0.00000000000E+00  0.00000000000E+00  0.45593999997E+02  0.45594000000E+02  0.51100000000E-03 0. -1.
         11   -1    0    0    0    0 -0.00000000000E+00 -0.00000000000E+00 -0.45593999997E+02  0.45594000000E+02  0.51100000000E-03 0.  1.
    9900012    2    1    2    0    0 -0.80305723054E+00  0.21653078029E+00  0.83743771762E+00  0.90007708330E+02  0.89999969280E+02 0.  0.
        -12    1    1    2    0    0  0.80305723054E+00 -0.21653078029E+00 -0.83743771762E+00  0.11802916696E+01  0.00000000000E+00 0.  1.
         11    1    3    3    0    0 -0.83051011695E+01  0.12754561445E+02  0.33192771563E+02  0.36515936622E+02  0.51100000000E-03 0. -1.
        -11    1    3    3    0    0 -0.12191370689E+02  0.13010299859E+01  0.10641350199E+01  0.12306688503E+02  0.51100000000E-03 0.  1.
        -12    1    3    3    0    0  0.19693414628E+02 -0.13839060651E+02 -0.33419468865E+02  0.41185083206E+02  0.00000000000E+00 0.  1.
</event>
<event>
 7    1  0.2405891E-015  0.9000767E+02  0.7816164E-02  0.1186339E+00
        -11   -1    0    0    0    0  0.00000000000E+00  0.00000000000E+00  0.45593999997E+02  0.45594000000E+02  0.51100000000E-03 0.  1.
         11   -1    0    0    0    0 -0.00000000000E+00 -0.00000000000E+00 -0.45593999997E+02  0.45594000000E+02  0.51100000000E-03 0. -1.
    9900012    2    1    2    0    0 -0.12911139416E+00 -0.22956264607E+00 -0.11505694557E+01  0.90007670032E+02  0.89999930477E+02 0.  0.
        -12    1    1    2    0    0  0.12911139416E+00  0.22956264607E+00  0.11505694557E+01  0.11803299678E+01  0.00000000000E+00 0.  1.
         11    1    3    3    0    0 -0.61706057171E+01 -0.40343752288E+01 -0.79056279137E+01  0.10809787758E+02  0.51100000000E-03 0. -1.
        -11    1    3    3    0    0 -0.46557602399E-01 -0.35432696965E+02 -0.88717905300E+01  0.36526522546E+02  0.51100000000E-03 0.  1.
         12    1    3    3    0    0  0.60880519254E+01  0.39237509548E+02  0.15626848988E+02  0.42671359728E+02  0.00000000000E+00 0. -1.
</event>
<event>
 7    1  0.2405891E-015  0.9000789E+02  0.7816164E-02  0.1186339E+00
        -11   -1    0    0    0    0  0.00000000000E+00  0.00000000000E+00  0.45593999997E+02  0.45594000000E+02  0.51100000000E-03 0. -1.
         11   -1    0    0    0    0 -0.00000000000E+00 -0.00000000000E+00 -0.45593999997E+02  0.45594000000E+02  0.51100000000E-03 0.  1.
    9900012    2    1    2    0    0  0.80853895133E+00  0.85376313251E-01  0.85535041586E+00  0.90007894630E+02  0.90000158039E+02 0.  0.
        -12    1    1    2    0    0 -0.80853895133E+00 -0.85376313251E-01 -0.85535041586E+00  0.11801053701E+01  0.00000000000E+00 0.  1.
         11    1    3    3    0    0 -0.35778833471E+02 -0.90496453662E+01  0.19374657166E+02  0.41682110627E+02  0.51100000000E-03 0. -1.
        -11    1    3    3    0    0 -0.92418852349E+00  0.59746024461E+01 -0.63392150136E+01  0.87598884733E+01  0.51100000000E-03 0.  1.
        -12    1    3    3    0    0  0.37511560946E+02  0.31604192334E+01 -0.12180091737E+02  0.39565895529E+02  0.00000000000E+00 0.  1.
</event>
<event>
 7    1  0.2405891E-015  0.9000768E+02  0.7816164E-02  0.1186339E+00
        -11   -1    0    0    0    0  0.00000000000E+00  0.00000000000E+00  0.45593999997E+02  0.45594000000E+02  0.51100000000E-03 0. -1.
         11   -1    0    0    0    0 -0.00000000000E+00 -0.00000000000E+00 -0.45593999997E+02  0.45594000000E+02  0.51100000000E-03 0.  1.
    9900012    2    1    2    0    0 -0.57363360632E+00  0.33428601116E+00 -0.97588977553E+00  0.90007676525E+02  0.89999937055E+02 0.  0.
        -12    1    1    2    0    0  0.57363360632E+00 -0.33428601116E+00  0.97588977553E+00  0.11803234750E+01  0.00000000000E+00 0.  1.
         11    1    3    3    0    0  0.17610806748E+02  0.25309550654E+02 -0.56315929332E+00  0.30838790788E+02  0.51100000000E-03 0. -1.
        -11    1    3    3    0    0  0.81121694767E+01 -0.17188414724E+02  0.17966796154E+02  0.26154438603E+02  0.51100000000E-03 0.  1.
         12    1    3    3    0    0 -0.26296609831E+02 -0.77868499185E+01 -0.18379526636E+02  0.33014447135E+02  0.00000000000E+00 0. -1.
</event>
<event>
 7    1  0.2405891E-015  0.9000764E+02  0.7816164E-02  0.1186339E+00
        -11   -1    0    0    0    0  0.00000000000E+00  0.00000000000E+00  0.45593999997E+02  0.45594000000E+02  0.51100000000E-03 0. -1.
         11   -1    0    0    0    0 -0.00000000000E+00 -0.00000000000E+00 -0.45593999997E+02  0.45594000000E+02  0.51100000000E-03 0.  1.
    9900012    2    1    2    0    0 -0.90589339788E+00  0.72295389440E+00  0.22350640861E+00  0.90007635524E+02  0.89999895513E+02 0.  0.
        -12    1    1    2    0    0  0.90589339788E+00 -0.72295389440E+00 -0.22350640861E+00  0.11803644761E+01  0.00000000000E+00 0.  1.
         11    1    3    3    0    0  0.21655940902E+02 -0.11243951737E+02  0.27734793567E+02  0.36940831088E+02  0.51100000000E-03 0. -1.
        -11    1    3    3    0    0  0.32033889194E+01 -0.74345901639E+01  0.30339676289E+01  0.86452178289E+01  0.51100000000E-03 0.  1.
        -12    1    3    3    0    0 -0.25765223219E+02  0.19401495795E+02 -0.30545254788E+02  0.44421586607E+02  0.00000000000E+00 0.  1.
</event>
<event>
 7    1  0.2405891E-015  0.9000773E+02  0.7816164E-02  0.1186339E+00
        -11   -1    0    0    0    0  0.00000000000E+00  0.00000000000E+00  0.45593999997E+02  0.45594000000E+02  0.51100000000E-03 0.  1.
         11   -1    0    0    0    0 -0.00000000000E+00 -0.00000000000E+00 -0.45593999997E+02  0.45594000000E+02  0.51100000000E-03 0. -1.
    9900012    2    1    2    0    0  0.27944464946E-01  0.44034571350E+00 -0.10946946896E+01  0.90007728123E+02  0.89999989334E+02 0.  0.
        -12    1    1    2    0    0 -0.27944464946E-01 -0.44034571350E+00  0.10946946896E+01  0.11802718772E+01  0.00000000000E+00 0.  1.
         11    1    3    3    0    0 -0.16438668520E+02 -0.12483211696E+02 -0.31785048061E+02  0.37899204179E+02  0.51100000000E-03 0. -1.
        -11    1    3    3    0    0 -0.87002915920E+01  0.54052172685E+01 -0.17255430291E+01  0.10386960408E+02  0.51100000000E-03 0.  1.
        -12    1    3    3    0    0  0.25166904577E+02  0.75183401408E+01  0.32415896400E+02  0.41721563536E+02  0.00000000000E+00 0.  1.
</event>
<event>
 7    1  0.2405891E-015  0.9000784E+02  0.7816164E-02  0.1186339E+00
        -11   -1    0    0    0    0  0.00000000000E+00  0.00000000000E+00  0.45593999997E+02  0.45594000000E+02  0.51100000000E-03 0.  1.
         11   -1    0    0    0    0 -0.00000000000E+00 -0.00000000000E+00 -0.45593999997E+02  0.45594000000E+02  0.51100000000E-03 0. -1.
    9900012    2    1    2    0    0 -0.65272463368E+00  0.60581071002E+00 -0.77441875236E+00  0.90007838796E+02  0.90000101468E+02 0.  0.
        -12    1    1    2    0    0  0.65272463368E+00 -0.60581071002E+00  0.77441875236E+00  0.11801612042E+01  0.00000000000E+00 0.  1.
         11    1    3    3    0    0  0.27457455149E+01  0.17625114406E+01  0.82816653709E+01  0.89012104001E+01  0.51100000000E-03 0. -1.
        -11    1    3    3    0    0  0.28144706220E+02 -0.10142461637E+02  0.21054739773E+02  0.36582729306E+02  0.51100000000E-03 0.  1.
         12    1    3    3    0    0 -0.31543176369E+02  0.89857609061E+01 -0.30110823896E+02  0.44523899090E+02  0.00000000000E+00 0. -1.
</event>
<event>
 7    1  0.2405891E-015  0.9000770E+02  0.7816164E-02  0.1186339E+00
        -11   -1    0    0    0    0  0.00000000000E+00  0.00000000000E+00  0.45593999997E+02  0.45594000000E+02  0.51100000000E-03 0.  1.
         11   -1    0    0    0    0 -0.00000000000E+00 -0.00000000000E+00 -0.45593999997E+02  0.45594000000E+02  0.51100000000E-03 0. -1.
    9900012    2    1    2    0    0 -0.10902438058E+01  0.38066018000E+00 -0.24407898906E+00  0.90007699919E+02  0.89999960758E+02 0.  0.
        -12    1    1    2    0    0  0.10902438058E+01 -0.38066018000E+00  0.24407898906E+00  0.11803000812E+01  0.00000000000E+00 0.  1.
         11    1    3    3    0    0 -0.74441248262E+01  0.27167057095E+00  0.32875492580E+01  0.81422834458E+01  0.51100000000E-03 0. -1.
        -11    1    3    3    0    0 -0.84332019798E+00  0.18382474350E+02  0.34478110631E+02  0.39081538674E+02  0.51100000000E-03 0.  1.
         12    1    3    3    0    0  0.71972012183E+01 -0.18273484741E+02 -0.38009738878E+02  0.42783877799E+02  0.00000000000E+00 0. -1.
</event>
<event>
 7    1  0.2405891E-015  0.9000767E+02  0.7816164E-02  0.1186339E+00
        -11   -1    0    0    0    0  0.00000000000E+00  0.00000000000E+00  0.45593999997E+02  0.45594000000E+02  0.51100000000E-03 0.  1.
         11   -1    0    0    0    0 -0.00000000000E+00 -0.00000000000E+00 -0.45593999997E+02  0.45594000000E+02  0.51100000000E-03 0. -1.
    9900012    2    1    2    0    0 -0.99119016777E+00  0.62042637443E+00 -0.16060891082E+00  0.90007668666E+02  0.89999929093E+02 0.  0.
        -12    1    1    2    0    0  0.99119016777E+00 -0.62042637443E+00  0.16060891082E+00  0.11803313336E+01  0.00000000000E+00 0.  1.
         11    1    3    3    0    0 -0.60717273118E+01 -0.24972644619E+02 -0.25866541770E+02  0.36463362917E+02  0.51100000000E-03 0. -1.
        -11    1    3    3    0    0 -0.74362890331E+01 -0.65841486255E+01  0.13842150286E+02  0.17036858059E+02  0.51100000000E-03 0.  1.
        -12    1    3    3    0    0  0.12516826177E+02  0.32177219619E+02  0.11863782573E+02  0.36507447691E+02  0.00000000000E+00 0.  1.
</event>
<event>
 7    1  0.2405891E-015  0.9000777E+02  0.7816164E-02  0.1186339E+00
        -11   -1    0    0    0    0  0.00000000000E+00  0.00000000000E+00  0.45593999997E+02  0.45594000000E+02  0.51100000000E-03 0. -1.
         11   -1    0    0    0    0 -0.00000000000E+00 -0.00000000000E+00 -0.45593999997E+02  0.45594000000E+02  0.51100000000E-03 0.  1.
    9900012    2    1    2    0    0 -0.10951181404E+01 -0.38935700729E+00  0.20507796394E+00  0.90007771382E+02  0.90000033164E+02 0.  0.
        -12    1    1    2    0    0  0.10951181404E+01  0.38935700729E+00 -0.20507796394E+00  0.11802286185E+01  0.00000000000E+00 0.  1.
         11    1    3    3    0    0 -0.21582185320E+02 -0.91062600712E+01 -0.22386866853E+02  0.32401952155E+02  0.51100000000E-03 0.  1.
        -11    1    3    3    0    0  0.12126107996E+01  0.13107089731E+02 -0.11968793537E+02  0.17790959647E+02  0.51100000000E-03 0. -1.
         12    1    3    3    0    0  0.19274456380E+02 -0.43901866673E+01  0.34560738355E+02  0.39814859579E+02  0.00000000000E+00 0. -1.
</event>
<event>
 7    1  0.2405891E-015  0.9000785E+02  0.7816164E-02  0.1186339E+00
        -11   -1    0    0    0    0  0.00000000000E+00  0.00000000000E+00  0.45593999997E+02  0.45594000000E+02  0.51100000000E-03 0.  1.
         11   -1    0    0    0    0 -0.00000000000E+00 -0.00000000000E+00 -0.45593999997E+02  0.45594000000E+02  0.51100000000E-03 0. -1.
    9900012    2    1    2    0    0 -0.51770985621E+00 -0.67409027884E+00 -0.81873697383E+00  0.90007851098E+02  0.90000113932E+02 0.  0.
        -12    1    1    2    0    0  0.51770985621E+00  0.67409027884E+00  0.81873697383E+00  0.11801489023E+01  0.00000000000E+00 0.  1.
         11    1    3    3    0    0  0.18878160196E+02 -0.23191437853E+02  0.68436522996E+01  0.30676755029E+02  0.51100000000E-03 0. -1.
        -11    1    3    3    0    0 -0.30788757215E+02 -0.28459589957E+01 -0.58413072506E+01  0.31466933821E+02  0.51100000000E-03 0.  1.
        -12    1    3    3    0    0  0.11392887163E+02  0.25363306570E+02 -0.18210820228E+01  0.27864162248E+02  0.00000000000E+00 0.  1.
</event>
<event>
 7    1  0.2405891E-015  0.9000771E+02  0.7816164E-02  0.1186339E+00
        -11   -1    0    0    0    0  0.00000000000E+00  0.00000000000E+00  0.45593999997E+02  0.45594000000E+02  0.51100000000E-03 0.  1.
         11   -1    0    0    0    0 -0.00000000000E+00 -0.00000000000E+00 -0.45593999997E+02  0.45594000000E+02  0.51100000000E-03 0. -1.
    9900012    2    1    2    0    0 -0.72988905686E+00  0.80930734216E+00 -0.45318259596E+00  0.90007707293E+02  0.89999968229E+02 0.  0.
        -12    1    1    2    0    0  0.72988905686E+00 -0.80930734216E+00  0.45318259596E+00  0.11802927072E+01  0.00000000000E+00 0.  1.
         11    1    3    3    0    0  0.25948214670E+01 -0.37517776858E+01 -0.62444867059E+01  0.77332107646E+01  0.51100000000E-03 0. -1.
        -11    1    3    3    0    0 -0.23281508960E+02 -0.32154147415E+02  0.77198110875E+01  0.40441480425E+02  0.51100000000E-03 0.  1.
         12    1    3    3    0    0  0.19956798436E+02  0.36715232443E+02 -0.19285069776E+01  0.41833016104E+02  0.00000000000E+00 0. -1.
</event>
<event>
 7    1  0.2405891E-015  0.9000775E+02  0.7816164E-02  0.1186339E+00
        -11   -1    0    0    0    0  0.00000000000E+00  0.00000000000E+00  0.45593999997E+02  0.45594000000E+02  0.51100000000E-03 0.  1.
         11   -1    0    0    0    0 -0.00000000000E+00 -0.00000000000E+00 -0.45593999997E+02  0.45594000000E+02  0.51100000000E-03 0. -1.
    9900012    2    1    2    0    0  0.96019189055E+00 -0.71285389234E-01  0.68260064518E+00  0.90007748453E+02  0.90000009933E+02 0.  0.
        -12    1    1    2    0    0 -0.96019189055E+00  0.71285389234E-01 -0.68260064518E+00  0.11802515470E+01  0.00000000000E+00 0.  1.
         11    1    3    3    0    0  0.51726227252E+00 -0.27410340500E+00 -0.35125161327E+02  0.35130039161E+02  0.51100000000E-03 0. -1.
        -11    1    3    3    0    0 -0.34890966810E+01 -0.60773351157E+01 -0.78920114725E+01  0.10554223946E+02  0.51100000000E-03 0.  1.
        -12    1    3    3    0    0  0.39320262991E+01  0.62801531315E+01  0.43699773444E+02  0.44323485346E+02  0.00000000000E+00 0.  1.
</event>
<event>
 7    1  0.2405891E-015  0.9000745E+02  0.7816164E-02  0.1186340E+00
        -11   -1    0    0    0    0  0.00000000000E+00  0.00000000000E+00  0.45593999997E+02  0.45594000000E+02  0.51100000000E-03 0.  1.
         11   -1    0    0    0    0 -0.00000000000E+00 -0.00000000000E+00 -0.45593999997E+02  0.45594000000E+02  0.51100000000E-03 0. -1.
    9900012    2    1    2    0    0  0.10650781013E+01 -0.45978417754E+00 -0.21888381253E+00  0.90007448021E+02  0.89999705534E+02 0.  0.
        -12    1    1    2    0    0 -0.10650781013E+01  0.45978417754E+00  0.21888381253E+00  0.11805519790E+01  0.00000000000E+00 0.  1.
         11    1    3    3    0    0  0.89522154558E+01  0.37993467482E+01  0.38260841972E+01  0.10450651550E+02  0.51100000000E-03 0. -1.
        -11    1    3    3    0    0 -0.39725589049E+02  0.14720714367E+02 -0.30936773381E+01  0.42478143750E+02  0.51100000000E-03 0.  1.
         12    1    3    3    0    0  0.31838451694E+02 -0.18979845293E+02 -0.95129067159E+00  0.37078652720E+02  0.00000000000E+00 0. -1.
</event>
<event>
 7    1  0.2405891E-015  0.9000774E+02  0.7816164E-02  0.1186339E+00
        -11   -1    0    0    0    0  0.00000000000E+00  0.00000000000E+00  0.45593999997E+02  0.45594000000E+02  0.51100000000E-03 0. -1.
         11   -1    0    0    0    0 -0.00000000000E+00 -0.00000000000E+00 -0.45593999997E+02  0.45594000000E+02  0.51100000000E-03 0.  1.
    9900012    2    1    2    0    0 -0.65669655892E+00 -0.49711724757E+00  0.84536090947E+00  0.90007741132E+02  0.90000002515E+02 0.  0.
        -12    1    1    2    0    0  0.65669655892E+00  0.49711724757E+00 -0.84536090947E+00  0.11802588680E+01  0.00000000000E+00 0.  1.
         11    1    3    3    0    0  0.23957046905E+02 -0.13068094251E+02  0.27688931772E+02  0.38876626997E+02  0.51100000000E-03 0. -1.
        -11    1    3    3    0    0 -0.39133182348E+01 -0.90434006559E+01  0.14332619622E+01  0.99574793569E+01  0.51100000000E-03 0.  1.
        -12    1    3    3    0    0 -0.20700425229E+02  0.21614377660E+02 -0.28276832824E+02  0.41173634778E+02  0.00000000000E+00 0.  1.
</event>
<event>
 7    1  0.2405891E-015  0.9000773E+02  0.7816164E-02  0.1186339E+00
        -11   -1    0    0    0    0  0.00000000000E+00  0.00000000000E+00  0.45593999997E+02  0.45594000000E+02  0.51100000000E-03 0.  1.
         11   -1    0    0    0    0 -0.00000000000E+00 -0.00000000000E+00 -0.45593999997E+02  0.45594000000E+02  0.51100000000E-03 0. -1.
    9900012    2    1    2    0    0 -0.90304987668E+00  0.74377517881E+00 -0.15602240739E+00  0.90007727325E+02  0.89999988525E+02 0.  0.
        -12    1    1    2    0    0  0.90304987668E+00 -0.74377517881E+00  0.15602240739E+00  0.11802726753E+01  0.00000000000E+00 0.  1.
         11    1    3    3    0    0 -0.17459469736E+01  0.40887013222E+01  0.94454812359E+01  0.10439488751E+02  0.51100000000E-03 0. -1.
        -11    1    3    3    0    0  0.17874977923E+02 -0.18202508416E+02 -0.36438591086E+02  0.44481648676E+02  0.51100000000E-03 0.  1.
         12    1    3    3    0    0 -0.17032080826E+02  0.14857582272E+02  0.26837087443E+02  0.35086589898E+02  0.00000000000E+00 0. -1.
</event>
<event>
 7    1  0.2405891E-015  0.9000775E+02  0.7816164E-02  0.1186339E+00
        -11   -1    0    0    0    0  0.00000000000E+00  0.00000000000E+00  0.45593999997E+02  0.45594000000E+02  0.51100000000E-03 0.  1.
         11   -1    0    0    0    0 -0.00000000000E+00 -0.00000000000E+00 -0.45593999997E+02  0.45594000000E+02  0.51100000000E-03 0. -1.
    9900012    2    1    2    0    0 -0.69089857665E+00  0.77864747704E-01 -0.95372450231E+00  0.90007748252E+02  0.90000009729E+02 0.  0.
        -12    1    1    2    0    0  0.69089857665E+00 -0.77864747704E-01  0.95372450231E+00  0.11802517479E+01  0.00000000000E+00 0.  1.
         11    1    3    3    0    0 -0.84229999189E+01 -0.35034246941E+02 -0.12325263588E+02  0.38082246640E+02  0.51100000000E-03 0. -1.
        -11    1    3    3    0    0  0.60036247592E+01 -0.65683171785E+01  0.28860822561E+01  0.93549864701E+01  0.51100000000E-03 0.  1.
        -12    1    3    3    0    0  0.17284765830E+01  0.41680428867E+02  0.84854568301E+01  0.42570515142E+02  0.00000000000E+00 0.  1.
</event>
<event>
 7    1  0.2405891E-015  0.9000777E+02  0.7816164E-02  0.1186339E+00
        -11   -1    0    0    0    0  0.00000000000E+00  0.00000000000E+00  0.45593999997E+02  0.45594000000E+02  0.51100000000E-03 0. -1.
         11   -1    0    0    0    0 -0.00000000000E+00 -0.00000000000E+00 -0.45593999997E+02  0.45594000000E+02  0.51100000000E-03 0.  1.
    9900012    2    1    2    0    0  0.48073846442E+00 -0.71422998174E+00  0.80728424863E+00  0.90007770448E+02  0.90000032218E+02 0.  0.
        -12    1    1    2    0    0 -0.48073846442E+00  0.71422998174E+00 -0.80728424863E+00  0.11802295523E+01  0.00000000000E+00 0.  1.
         11    1    3    3    0    0  0.62864908662E+01  0.11461372984E+02 -0.49411598446E+01  0.13974909623E+02  0.51100000000E-03 0. -1.
        -11    1    3    3    0    0  0.46085920617E+01  0.18031426903E+02 -0.25348126972E+02  0.31446764829E+02  0.51100000000E-03 0.  1.
         12    1    3    3    0    0 -0.10414344463E+02 -0.30207029870E+02  0.31096571065E+02  0.44586095996E+02  0.00000000000E+00 0. -1.
</event>
<event>
 7    1  0.2405891E-015  0.9000771E+02  0.7816164E-02  0.1186339E+00
        -11   -1    0    0    0    0  0.00000000000E+00  0.00000000000E+00  0.45593999997E+02  0.45594000000E+02  0.51100000000E-03 0. -1.
         11   -1    0    0    0    0 -0.00000000000E+00 -0.00000000000E+00 -0.45593999997E+02  0.45594000000E+02  0.51100000000E-03 0.  1.
    9900012    2    1    2    0    0 -0.39778800581E+00  0.48720461027E+00  0.99873466288E+00  0.90007714206E+02  0.89999975233E+02 0.  0.
        -12    1    1    2    0    0  0.39778800581E+00 -0.48720461027E+00 -0.99873466288E+00  0.11802857945E+01  0.00000000000E+00 0.  1.
         11    1    3    3    0    0 -0.39901036411E+01 -0.33508806495E+02 -0.11991284071E+02  0.35812734240E+02  0.51100000000E-03 0. -1.
        -11    1    3    3    0    0 -0.70321172498E+01 -0.46363883006E+01 -0.55082649702E+01  0.10064181672E+02  0.51100000000E-03 0.  1.
        -12    1    3    3    0    0  0.10624432885E+02  0.38632399406E+02  0.18498283704E+02  0.44130798293E+02  0.00000000000E+00 0.  1.
</event>
<event>
 7    1  0.2405891E-015  0.9000779E+02  0.7816164E-02  0.1186339E+00
        -11   -1    0    0    0    0  0.00000000000E+00  0.00000000000E+00  0.45593999997E+02  0.45594000000E+02  0.51100000000E-03 0.  1.
         11   -1    0    0    0    0 -0.00000000000E+00 -0.00000000000E+00 -0.45593999997E+02  0.45594000000E+02  0.51100000000E-03 0. -1.
    9900012    2    1    2    0    0 -0.53770026332E+00  0.21385507437E+00 -0.10286094742E+01  0.90007791113E+02  0.90000053156E+02 0.  0.
        -12    1    1    2    0    0  0.53770026332E+00 -0.21385507437E+00  0.10286094742E+01  0.11802088868E+01  0.00000000000E+00 0.  1.
         11    1    3    3    0    0  0.11340699757E+02 -0.63639053279E+01  0.20522301426E+01  0.13165196953E+02  0.51100000000E-03 0. -1.
        -11    1    3    3    0    0  0.12099004082E+01 -0.33047765733E+02 -0.99844717154E+01  0.34544295544E+02  0.51100000000E-03 0.  1.
         12    1    3    3    0    0 -0.13088300428E+02  0.39625526136E+02  0.69036320986E+01  0.42298298616E+02  0.00000000000E+00 0. -1.
</event>
<event>
 7    1  0.2405891E-015  0.9000776E+02  0.7816164E-02  0.1186339E+00
        -11   -1    0    0    0    0  0.00000000000E+00  0.00000000000E+00  0.45593999997E+02  0.45594000000E+02  0.51100000000E-03 0.  1.
         11   -1    0    0    0    0 -0.00000000000E+00 -0.00000000000E+00 -0.45593999997E+02  0.45594000000E+02  0.51100000000E-03 0. -1.
    9900012    2    1    2    0    0  0.44240864479E+00  0.54930296345E+00 -0.94631084826E+00  0.90007761305E+02  0.90000022955E+02 0.  0.
        -12    1    1    2    0    0 -0.44240864479E+00 -0.54930296345E+00  0.94631084826E+00  0.11802386946E+01  0.00000000000E+00 0.  1.
         11    1    3    3    0    0 -0.29420219157E+02 -0.72098704394E+01 -0.22764416085E+02  0.37891294079E+02  0.51100000000E-03 0. -1.
        -11    1    3    3    0    0 -0.56237651916E+01  0.39152706333E+01 -0.41179575806E+01  0.79946015510E+01  0.51100000000E-03 0.  1.
        -12    1    3    3    0    0  0.35486392994E+02  0.38439027696E+01  0.25936062818E+02  0.44121865675E+02  0.00000000000E+00 0.  1.
</event>
<event>
 7    1  0.2405891E-015  0.9000786E+02  0.7816164E-02  0.1186339E+00
        -11   -1    0    0    0    0  0.00000000000E+00  0.00000000000E+00  0.45593999997E+02  0.45594000000E+02  0.51100000000E-03 0.  1.
         11   -1    0    0    0    0 -0.00000000000E+00 -0.00000000000E+00 -0.45593999997E+02  0.45594000000E+02  0.51100000000E-03 0. -1.
    9900012    2    1    2    0    0 -0.14337676123E+00 -0.11028772612E+00 -0.11661969507E+01  0.90007857803E+02  0.90000120726E+02 0.  0.
        -12    1    1    2    0    0  0.14337676123E+00  0.11028772612E+00  0.11661969507E+01  0.11801421973E+01  0.00000000000E+00 0.  1.
         11    1    3    3    0    0 -0.15493600329E+01  0.85441604862E+01  0.26733089568E+01  0.90856907258E+01  0.51100000000E-03 0. -1.
        -11    1    3    3    0    0  0.18041726086E+02 -0.56290715504E+01  0.34322547597E+02  0.39181980558E+02  0.51100000000E-03 0.  1.
         12    1    3    3    0    0 -0.16635742815E+02 -0.30253766620E+01 -0.38162053504E+02  0.41740186518E+02  0.00000000000E+00 0. -1.
</event>
<event>
 7    1  0.2405891E-015  0.9000775E+02  0.7816164E-02  0.1186339E+00
        -11   -1    0    0    0    0  0.00000000000E+00  0.00000000000E+00  0.45593999997E+02  0.45594000000E+02  0.51100000000E-03 0.  1.
         11   -1    0    0    0    0 -0.00000000000E+00 -0.00000000000E+00 -0.45593999997E+02  0.45594000000E+02  0.51100000000E-03 0. -1.
    9900012    2    1    2    0    0  0.49757041179E+00 -0.33039290005E+00 -0.10179653639E+01  0.90007750338E+02  0.90000011842E+02 0.  0.
        -12    1    1    2    0    0 -0.49757041179E+00  0.33039290005E+00  0.10179653639E+01  0.11802496622E+01  0.00000000000E+00 0.  1.
         11    1    3    3    0    0  0.84066483279E+00 -0.14473639146E+02 -0.30984899162E+02  0.34209018165E+02  0.51100000000E-03 0. -1.
        -11    1    3    3    0    0  0.25216699970E+01  0.40033270317E+01 -0.11805268587E+02  0.12718090012E+02  0.51100000000E-03 0.  1.
        -12    1    3    3    0    0 -0.28647644180E+01  0.10139919214E+02  0.41772202385E+02  0.43080642160E+02  0.00000000000E+00 0.  1.
</event>
<event>
 7    1  0.2405891E-015  0.9000767E+02  0.7816164E-02  0.1186339E+00
        -11   -1    0    0    0    0  0.00000000000E+00  0.00000000000E+00  0.45593999997E+02  0.45594000000E+02  0.51100000000E-03 0.  1.
         11   -1    0    0    0    0 -0.00000000000E+00 -0.00000000000E+00 -0.45593999997E+02  0.45594000000E+02  0.51100000000E-03 0. -1.
    9900012    2    1    2    0    0  0.40820945397E-01 -0.11195839052E+00 -0.11742967863E+01  0.90007672091E+02  0.89999932562E+02 0.  0.
        -12    1    1    2    0    0 -0.40820945397E-01  0.11195839052E+00  0.11742967863E+01  0.11803279091E+01  0.00000000000E+00 0.  1.
         11    1    3    3    0    0 -0.57081739958E+01  0.34899775314E+01  0.68369412905E+01  0.95659270333E+01  0.51100000000E-03 0. -1.
        -11    1    3    3    0    0 -0.23252004994E+02 -0.31890062072E+02 -0.23666131724E+01  0.39537737080E+02  0.51100000000E-03 0.  1.
         12    1    3    3    0    0  0.29000999935E+02  0.28288126150E+02 -0.56446249043E+01  0.40904007978E+02  0.00000000000E+00 0. -1.
</event>
<event>
 7    1  0.2405891E-015  0.9000768E+02  0.7816164E-02  0.1186339E+00
        -11   -1    0    0    0    0  0.00000000000E+00  0.00000000000E+00  0.45593999997E+02  0.45594000000E+02  0.51100000000E-03 0. -1.
         11   -1    0    0    0    0 -0.00000000000E+00 -0.00000000000E+00 -0.45593999997E+02  0.45594000000E+02  0.51100000000E-03 0.  1.
    9900012    2    1    2    0    0 -0.96596712986E+00 -0.83341887718E-01 -0.67314539726E+00  0.90007676700E+02  0.89999937233E+02 0.  0.
        -12    1    1    2    0    0  0.96596712986E+00  0.83341887718E-01  0.67314539726E+00  0.11803232998E+01  0.00000000000E+00 0.  1.
         11    1    3    3    0    0  0.98531978225E+01  0.15905456767E+02  0.27730123009E+02  0.33451887610E+02  0.51100000000E-03 0. -1.
        -11    1    3    3    0    0  0.41527776675E+01  0.11040417432E+02  0.33377251506E+01  0.12258743364E+02  0.51100000000E-03 0.  1.
        -12    1    3    3    0    0 -0.14971942620E+02 -0.27029216087E+02 -0.31740993557E+02  0.44297045726E+02  0.00000000000E+00 0.  1.
</event>
<event>
 7    1  0.2405891E-015  0.9000774E+02  0.7816164E-02  0.1186339E+00
        -11   -1    0    0    0    0  0.00000000000E+00  0.00000000000E+00  0.45593999997E+02  0.45594000000E+02  0.51100000000E-03 0.  1.
         11   -1    0    0    0    0 -0.00000000000E+00 -0.00000000000E+00 -0.45593999997E+02  0.45594000000E+02  0.51100000000E-03 0. -1.
    9900012    2    1    2    0    0 -0.40392491350E-01  0.59546907522E+00  0.10182308372E+01  0.90007741973E+02  0.90000003367E+02 0.  0.
        -12    1    1    2    0    0  0.40392491350E-01 -0.59546907522E+00 -0.10182308372E+01  0.11802580272E+01  0.00000000000E+00 0.  1.
         11    1    3    3    0    0 -0.28870483432E+02 -0.10448524501E+02  0.20433308898E+02  0.36880843139E+02  0.51100000000E-03 0. -1.
        -11    1    3    3    0    0 -0.23950672001E+01 -0.10629000765E+02 -0.11485457614E+01  0.10955873392E+02  0.51100000000E-03 0.  1.
        -12    1    3    3    0    0  0.31225158141E+02  0.21672994340E+02 -0.18266532300E+02  0.42171025442E+02  0.00000000000E+00 0.  1.
</event>
<event>
 7    1  0.2405891E-015  0.9000868E+02  0.7816164E-02  0.1186337E+00
        -11   -1    0    0    0    0  0.00000000000E+00  0.00000000000E+00  0.45593999997E+02  0.45594000000E+02  0.51100000000E-03 0. -1.
         11   -1    0    0    0    0 -0.00000000000E+00 -0.00000000000E+00 -0.45593999997E+02  0.45594000000E+02  0.51100000000E-03 0.  1.
    9900012    2    1    2    0    0 -0.63960647333E+00 -0.95628256827E+00 -0.25928872207E+00  0.90008676706E+02  0.90000950433E+02 0.  0.
        -12    1    1    2    0    0  0.63960647333E+00  0.95628256827E+00  0.25928872207E+00  0.11793232943E+01  0.00000000000E+00 0.  1.
         11    1    3    3    0    0 -0.10486242903E+01 -0.94578824582E+00  0.88625318854E+01  0.89743300579E+01  0.51100000000E-03 0. -1.
        -11    1    3    3    0    0 -0.27459789460E+02  0.11644664514E+02  0.22455582447E+02  0.37334855459E+02  0.51100000000E-03 0.  1.
         12    1    3    3    0    0  0.27868807277E+02 -0.11655158836E+02 -0.31577403054E+02  0.43699491189E+02  0.00000000000E+00 0. -1.
</event>
<event>
 7    1  0.3398761E-015  0.9000773E+02  0.7816164E-02  0.1186339E+00
        -11   -1    0    0    0    0  0.00000000000E+00  0.00000000000E+00  0.45593999997E+02  0.45594000000E+02  0.51100000000E-03 0.  1.
         11   -1    0    0    0    0 -0.00000000000E+00 -0.00000000000E+00 -0.45593999997E+02  0.45594000000E+02  0.51100000000E-03 0. -1.
    9900012    2    1    2    0    0 -0.10860538027E+01 -0.45242002703E+00  0.94025812565E-01  0.90007729863E+02  0.89999991097E+02 0.  0.
        -12    1    1    2    0    0  0.10860538027E+01  0.45242002703E+00 -0.94025812565E-01  0.11802701371E+01  0.00000000000E+00 0.  1.
         11    1    3    3    0    0  0.11338501254E+01  0.74745843907E+01  0.49945059508E+01  0.90609115365E+01  0.51100000000E-03 0. -1.
        -11    1    3    3    0    0 -0.23531999826E+02  0.29325347496E+02 -0.56539609429E+01  0.38022339436E+02  0.51100000000E-03 0.  1.
         12    1    3    3    0    0  0.21312095898E+02 -0.37252351914E+02  0.75348080474E+00  0.42924478890E+02  0.00000000000E+00 0. -1.
</event>
<event>
 7    1  0.2405891E-015  0.9000803E+02  0.7816164E-02  0.1186338E+00
        -11   -1    0    0    0    0  0.00000000000E+00  0.00000000000E+00  0.45593999997E+02  0.45594000000E+02  0.51100000000E-03 0.  1.
         11   -1    0    0    0    0 -0.00000000000E+00 -0.00000000000E+00 -0.45593999997E+02  0.45594000000E+02  0.51100000000E-03 0. -1.
    9900012    2    1    2    0    0  0.11785151523E+01 -0.21595264872E-01  0.54358907238E-01  0.90008034233E+02  0.90000299485E+02 0.  0.
        -12    1    1    2    0    0 -0.11785151523E+01  0.21595264872E-01 -0.54358907238E-01  0.11799657666E+01  0.00000000000E+00 0.  1.
         11    1    3    3    0    0  0.91293743301E+00  0.67154657989E+01 -0.56012926632E+01  0.87923498232E+01  0.51100000000E-03 0. -1.
        -11    1    3    3    0    0  0.24963018231E+02 -0.33630934183E+02 -0.72152101732E+01  0.42500014957E+02  0.51100000000E-03 0.  1.
         12    1    3    3    0    0 -0.24697440512E+02  0.26893873119E+02  0.12870861744E+02  0.38715669453E+02  0.00000000000E+00 0. -1.
</event>
<event>
 7    1  0.2405891E-015  0.9000771E+02  0.7816164E-02  0.1186339E+00
        -11   -1    0    0    0    0  0.00000000000E+00  0.00000000000E+00  0.45593999997E+02  0.45594000000E+02  0.51100000000E-03 0. -1.
         11   -1    0    0    0    0 -0.00000000000E+00 -0.00000000000E+00 -0.45593999997E+02  0.45594000000E+02  0.51100000000E-03 0.  1.
    9900012    2    1    2    0    0  0.10106896181E+01 -0.16218862868E+00  0.58760283247E+00  0.90007713702E+02  0.89999974723E+02 0.  0.
        -12    1    1    2    0    0 -0.10106896181E+01  0.16218862868E+00 -0.58760283247E+00  0.11802862975E+01  0.00000000000E+00 0.  1.
         11    1    3    3    0    0  0.21432298042E+01  0.11802996189E+01 -0.94523031895E+01  0.97638402809E+01  0.51100000000E-03 0. -1.
        -11    1    3    3    0    0  0.18029740769E+02  0.20326318944E+02 -0.23521272334E+02  0.35937181950E+02  0.51100000000E-03 0.  1.
         12    1    3    3    0    0 -0.19162280955E+02 -0.21668807191E+02  0.33561178356E+02  0.44306691472E+02  0.00000000000E+00 0. -1.
</event>
<event>
 7    1  0.2405891E-015  0.9000774E+02  0.7816164E-02  0.1186339E+00
        -11   -1    0    0    0    0  0.00000000000E+00  0.00000000000E+00  0.45593999997E+02  0.45594000000E+02  0.51100000000E-03 0. -1.
         11   -1    0    0    0    0 -0.00000000000E+00 -0.00000000000E+00 -0.45593999997E+02  0.45594000000E+02  0.51100000000E-03 0.  1.
    9900012    2    1    2    0    0  0.51259803579E+00  0.11430149495E+00  0.10569682138E+01  0.90007744357E+02  0.90000005782E+02 0.  0.
        -12    1    1    2    0    0 -0.51259803579E+00 -0.11430149495E+00 -0.10569682138E+01  0.11802556430E+01  0.00000000000E+00 0.  1.
         11    1    3    3    0    0 -0.28962120381E+02 -0.21858027222E+02 -0.10748700193E+02  0.37843259995E+02  0.51100000000E-03 0. -1.
        -11    1    3    3    0    0 -0.78813409900E+01  0.58516872285E+01  0.57794781154E-01  0.98163699868E+01  0.51100000000E-03 0.  1.
        -12    1    3    3    0    0  0.37356059406E+02  0.16120641489E+02  0.11747873626E+02  0.42348114375E+02  0.00000000000E+00 0.  1.
</event>
<event>
 7    1  0.2405891E-015  0.9000772E+02  0.7816164E-02  0.1186339E+00
        -11   -1    0    0    0    0  0.00000000000E+00  0.00000000000E+00  0.45593999997E+02  0.45594000000E+02  0.51100000000E-03 0. -1.
         11   -1    0    0    0    0 -0.00000000000E+00 -0.00000000000E+00 -0.45593999997E+02  0.45594000000E+02  0.51100000000E-03 0.  1.
    9900012    2    1    2    0    0 -0.61685675160E+00 -0.13580094243E+00  0.99704637713E+00  0.90007722225E+02  0.89999983358E+02 0.  0.
        -12    1    1    2    0    0  0.61685675160E+00  0.13580094243E+00 -0.99704637713E+00  0.11802777750E+01  0.00000000000E+00 0.  1.
         11    1    3    3    0    0 -0.54322950052E+01  0.43337917507E+01  0.50789029719E+01  0.86073710052E+01  0.51100000000E-03 0. -1.
        -11    1    3    3    0    0 -0.22379408162E+02  0.11983707048E+01 -0.33905680170E+02  0.40643193158E+02  0.51100000000E-03 0.  1.
         12    1    3    3    0    0  0.27194846415E+02 -0.56679633979E+01  0.29823823575E+02  0.40757158062E+02  0.00000000000E+00 0. -1.
</event>
<event>
 7    1  0.2425969E-015  0.9000774E+02  0.7816164E-02  0.1186339E+00
        -11   -1    0    0    0    0  0.00000000000E+00  0.00000000000E+00  0.45593999997E+02  0.45594000000E+02  0.51100000000E-03 0. -1.
         11   -1    0    0    0    0 -0.00000000000E+00 -0.00000000000E+00 -0.45593999997E+02  0.45594000000E+02  0.51100000000E-03 0.  1.
    9900012    2    1    2    0    0 -0.85040373240E+00 -0.13617376278E+00  0.80702482416E+00  0.90007737797E+02  0.89999999136E+02 0.  0.
        -12    1    1    2    0    0  0.85040373240E+00  0.13617376278E+00 -0.80702482416E+00  0.11802622033E+01  0.00000000000E+00 0.  1.
         11    1    3    3    0    0  0.22748410186E+01  0.71934061220E+01  0.54979708059E+01  0.93352919900E+01  0.51100000000E-03 0. -1.
        -11    1    3    3    0    0 -0.33073509244E+02  0.20858565195E+02  0.12298719166E+01  0.39120957822E+02  0.51100000000E-03 0.  1.
         12    1    3    3    0    0  0.29948264493E+02 -0.28188145080E+02 -0.59208178983E+01  0.41551487985E+02  0.00000000000E+00 0. -1.
</event>
<event>
 7    1  0.2405891E-015  0.9000769E+02  0.7816164E-02  0.1186339E+00
        -11   -1    0    0    0    0  0.00000000000E+00  0.00000000000E+00  0.45593999997E+02  0.45594000000E+02  0.51100000000E-03 0. -1.
         11   -1    0    0    0    0 -0.00000000000E+00 -0.00000000000E+00 -0.45593999997E+02  0.45594000000E+02  0.51100000000E-03 0.  1.
    9900012    2    1    2    0    0  0.60974189852E+00 -0.60572746279E+00  0.80898074810E+00  0.90007686146E+02  0.89999946804E+02 0.  0.
        -12    1    1    2    0    0 -0.60974189852E+00  0.60572746279E+00 -0.80898074810E+00  0.11803138535E+01  0.00000000000E+00 0.  1.
         11    1    3    3    0    0 -0.62613505787E+01 -0.97300718663E+01  0.13579414759E+01  0.11650013515E+02  0.51100000000E-03 0. -1.
        -11    1    3    3    0    0  0.20906989001E+02 -0.28007022873E+02 -0.12149925188E+02  0.37001570259E+02  0.51100000000E-03 0.  1.
         12    1    3    3    0    0 -0.14035896523E+02  0.37131367276E+02  0.11600964460E+02  0.41356102372E+02  0.00000000000E+00 0. -1.
</event>
<event>
 7    1  0.2405891E-015  0.9000773E+02  0.7816164E-02  0.1186339E+00
        -11   -1    0    0    0    0  0.00000000000E+00  0.00000000000E+00  0.45593999997E+02  0.45594000000E+02  0.51100000000E-03 0. -1.
         11   -1    0    0    0    0 -0.00000000000E+00 -0.00000000000E+00 -0.45593999997E+02  0.45594000000E+02  0.51100000000E-03 0.  1.
    9900012    2    1    2    0    0  0.27149221943E+00 -0.11232203470E+01  0.24019474398E+00  0.90007734992E+02  0.89999996294E+02 0.  0.
        -12    1    1    2    0    0 -0.27149221943E+00  0.11232203470E+01 -0.24019474398E+00  0.11802650076E+01  0.00000000000E+00 0.  1.
         11    1    3    3    0    0 -0.66001266847E+01  0.11247387603E+01 -0.39664778781E+00  0.67070141838E+01  0.51100000000E-03 0. -1.
        -11    1    3    3    0    0 -0.24446316266E+02 -0.22023773166E+02 -0.22287163510E+02  0.39741497468E+02  0.51100000000E-03 0.  1.
         12    1    3    3    0    0  0.31317935170E+02  0.19775814059E+02  0.22924006042E+02  0.43559223340E+02  0.00000000000E+00 0. -1.
</event>
<event>
 7    1  0.2405891E-015  0.9000775E+02  0.7816164E-02  0.1186339E+00
        -11   -1    0    0    0    0  0.00000000000E+00  0.00000000000E+00  0.45593999997E+02  0.45594000000E+02  0.51100000000E-03 0. -1.
         11   -1    0    0    0    0 -0.00000000000E+00 -0.00000000000E+00 -0.45593999997E+02  0.45594000000E+02  0.51100000000E-03 0.  1.
    9900012    2    1    2    0    0  0.56784549514E+00  0.16303083310E+00  0.10217444148E+01  0.90007750362E+02  0.90000011867E+02 0.  0.
        -12    1    1    2    0    0 -0.56784549514E+00 -0.16303083310E+00 -0.10217444148E+01  0.11802496380E+01  0.00000000000E+00 0.  1.
         11    1    3    3    0    0  0.25223883664E+02 -0.42200707786E+00  0.30566746403E+02  0.39632668129E+02  0.51100000000E-03 0. -1.
        -11    1    3    3    0    0  0.78806921720E+01 -0.20806031461E+01 -0.55963406211E+01  0.98870241817E+01  0.51100000000E-03 0.  1.
        -12    1    3    3    0    0 -0.32536730341E+02  0.26656410571E+01 -0.23948661367E+02  0.40488058052E+02  0.00000000000E+00 0.  1.
</event>
<event>
 7    1  0.2405891E-015  0.9000770E+02  0.7816164E-02  0.1186339E+00
        -11   -1    0    0    0    0  0.00000000000E+00  0.00000000000E+00  0.45593999997E+02  0.45594000000E+02  0.51100000000E-03 0. -1.
         11   -1    0    0    0    0 -0.00000000000E+00 -0.00000000000E+00 -0.45593999997E+02  0.45594000000E+02  0.51100000000E-03 0.  1.
    9900012    2    1    2    0    0  0.94667431170E-01 -0.73414297560E+00  0.91933170203E+00  0.90007704016E+02  0.89999964909E+02 0.  0.
        -12    1    1    2    0    0 -0.94667431170E-01  0.73414297560E+00 -0.91933170203E+00  0.11802959839E+01  0.00000000000E+00 0.  1.
         11    1    3    3    0    0  0.12507832728E+02  0.26095397609E+02  0.28436087709E+02  0.40571255100E+02  0.51100000000E-03 0. -1.
        -11    1    3    3    0    0 -0.25852708583E+01 -0.67470249340E+01  0.58326337795E+01  0.92857734162E+01  0.51100000000E-03 0.  1.
        -12    1    3    3    0    0 -0.98278944385E+01 -0.20082515651E+02 -0.33349389786E+02  0.40150675500E+02  0.00000000000E+00 0.  1.
</event>
<event>
 7    1  0.2405891E-015  0.9000776E+02  0.7816164E-02  0.1186339E+00
        -11   -1    0    0    0    0  0.00000000000E+00  0.00000000000E+00  0.45593999997E+02  0.45594000000E+02  0.51100000000E-03 0.  1.
         11   -1    0    0    0    0 -0.00000000000E+00 -0.00000000000E+00 -0.45593999997E+02  0.45594000000E+02  0.51100000000E-03 0. -1.
    9900012    2    1    2    0    0 -0.87640557035E+00 -0.54257741617E+00 -0.57488107672E+00  0.90007760521E+02  0.90000022160E+02 0.  0.
        -12    1    1    2    0    0  0.87640557035E+00  0.54257741617E+00  0.57488107672E+00  0.11802394794E+01  0.00000000000E+00 0.  1.
         11    1    3    3    0    0  0.39921223742E+01  0.14616048346E+01  0.76469335466E+01  0.87492241182E+01  0.51100000000E-03 0. -1.
        -11    1    3    3    0    0  0.27671642187E+02 -0.21312576803E+02 -0.21667984166E+02  0.41102886144E+02  0.51100000000E-03 0.  1.
         12    1    3    3    0    0 -0.32540170131E+02  0.19308394552E+02  0.13446169542E+02  0.40155650259E+02  0.00000000000E+00 0. -1.
</event>
<event>
 7    1  0.2405891E-015  0.9000775E+02  0.7816164E-02  0.1186339E+00
        -11   -1    0    0    0    0  0.00000000000E+00  0.00000000000E+00  0.45593999997E+02  0.45594000000E+02  0.51100000000E-03 0. -1.
         11   -1    0    0    0    0 -0.00000000000E+00 -0.00000000000E+00 -0.45593999997E+02  0.45594000000E+02  0.51100000000E-03 0.  1.
    9900012    2    1    2    0    0  0.81381856303E+00 -0.51892130260E+00  0.67927910140E+00  0.90007745761E+02  0.90000007205E+02 0.  0.
        -12    1    1    2    0    0 -0.81381856303E+00  0.51892130260E+00 -0.67927910140E+00  0.11802542393E+01  0.00000000000E+00 0.  1.
         11    1    3    3    0    0  0.24635922211E+02 -0.33510929238E+02  0.31241066157E+01  0.41709364464E+02  0.51100000000E-03 0. -1.
        -11    1    3    3    0    0  0.48537253986E+01  0.79479140994E+01  0.31197531298E+01  0.98214483977E+01  0.51100000000E-03 0.  1.
        -12    1    3    3    0    0 -0.28675829047E+02  0.25044093836E+02 -0.55645806441E+01  0.38476932899E+02  0.00000000000E+00 0.  1.
</event>
<event>
 7    1  0.2405891E-015  0.9000773E+02  0.7816164E-02  0.1186339E+00
        -11   -1    0    0    0    0  0.00000000000E+00  0.00000000000E+00  0.45593999997E+02  0.45594000000E+02  0.51100000000E-03 0. -1.
         11   -1    0    0    0    0 -0.00000000000E+00 -0.00000000000E+00 -0.45593999997E+02  0.45594000000E+02  0.51100000000E-03 0.  1.
    9900012    2    1    2    0    0  0.10236867428E+01  0.52352000894E-01  0.58510911261E+00  0.90007733948E+02  0.89999995236E+02 0.  0.
        -12    1    1    2    0    0 -0.10236867428E+01 -0.52352000894E-01 -0.58510911261E+00  0.11802660518E+01  0.00000000000E+00 0.  1.
         11    1    3    3    0    0 -0.21951376000E+02  0.26689590917E+02 -0.10304134164E+02  0.36060675988E+02  0.51100000000E-03 0. -1.
        -11    1    3    3    0    0 -0.99110485899E+01 -0.27652230299E+00 -0.14743377607E+01  0.10023922427E+02  0.51100000000E-03 0.  1.
        -12    1    3    3    0    0  0.32886111333E+02 -0.26360716613E+02  0.12363581038E+02  0.43923135533E+02  0.00000000000E+00 0.  1.
</event>
<event>
 7    1  0.2405891E-015  0.9000717E+02  0.7816164E-02  0.1186340E+00
        -11   -1    0    0    0    0  0.00000000000E+00  0.00000000000E+00  0.45593999997E+02  0.45594000000E+02  0.51100000000E-03 0. -1.
         11   -1    0    0    0    0 -0.00000000000E+00 -0.00000000000E+00 -0.45593999997E+02  0.45594000000E+02  0.51100000000E-03 0.  1.
    9900012    2    1    2    0    0  0.28040850145E+00  0.91778745540E+00  0.68803924967E+00  0.90007169466E+02  0.89999423301E+02 0.  0.
        -12    1    1    2    0    0 -0.28040850145E+00 -0.91778745540E+00 -0.68803924967E+00  0.11808305340E+01  0.00000000000E+00 0.  1.
         11    1    3    3    0    0 -0.13673952617E+02 -0.33823840826E+02  0.23826880078E+02  0.43574641742E+02  0.51100000000E-03 0. -1.
        -11    1    3    3    0    0 -0.27716982575E+01  0.57880053004E+01 -0.63053944707E+01  0.89967392027E+01  0.51100000000E-03 0.  1.
        -12    1    3    3    0    0  0.16726059376E+02  0.28953622981E+02 -0.16833446358E+02  0.37435788522E+02  0.00000000000E+00 0.  1.
</event>
<event>
 7    1  0.2405891E-015  0.9000778E+02  0.7816164E-02  0.1186339E+00
        -11   -1    0    0    0    0  0.00000000000E+00  0.00000000000E+00  0.45593999997E+02  0.45594000000E+02  0.51100000000E-03 0.  1.
         11   -1    0    0    0    0 -0.00000000000E+00 -0.00000000000E+00 -0.45593999997E+02  0.45594000000E+02  0.51100000000E-03 0. -1.
    9900012    2    1    2    0    0 -0.48321586041E+00  0.10079537121E+01 -0.37874983140E+00  0.90007779814E+02  0.90000041707E+02 0.  0.
        -12    1    1    2    0    0  0.48321586041E+00 -0.10079537121E+01  0.37874983140E+00  0.11802201863E+01  0.00000000000E+00 0.  1.
         11    1    3    3    0    0  0.42374530432E+01 -0.59597866077E+01 -0.47718976423E+00  0.73282177257E+01  0.51100000000E-03 0. -1.
        -11    1    3    3    0    0  0.19517332588E+01  0.21090856866E+02  0.36985775056E+02  0.42621368618E+02  0.51100000000E-03 0.  1.
         12    1    3    3    0    0 -0.66724021624E+01 -0.14123116546E+02 -0.36887335123E+02  0.40058193470E+02  0.00000000000E+00 0. -1.
</event>
<event>
 7    1  0.2405891E-015  0.9000776E+02  0.7816164E-02  0.1186339E+00
        -11   -1    0    0    0    0  0.00000000000E+00  0.00000000000E+00  0.45593999997E+02  0.45594000000E+02  0.51100000000E-03 0. -1.
         11   -1    0    0    0    0 -0.00000000000E+00 -0.00000000000E+00 -0.45593999997E+02  0.45594000000E+02  0.51100000000E-03 0.  1.
    9900012    2    1    2    0    0 -0.98606242824E+00 -0.36103762251E+00  0.53880482193E+00  0.90007755147E+02  0.90000016715E+02 0.  0.
        -12    1    1    2    0    0  0.98606242824E+00  0.36103762251E+00 -0.53880482193E+00  0.11802448532E+01  0.00000000000E+00 0.  1.
         11    1    3    3    0    0 -0.19812436612E+01  0.72875436448E+01 -0.52920295664E+01  0.92216699146E+01  0.51100000000E-03 0. -1.
        -11    1    3    3    0    0  0.33781291820E+02  0.32272116870E+00  0.24956500752E+02  0.42001270886E+02  0.51100000000E-03 0.  1.
         12    1    3    3    0    0 -0.32786110587E+02 -0.79713024360E+01 -0.19125666364E+02  0.38784814346E+02  0.00000000000E+00 0. -1.
</event>
<event>
 7    1  0.2405891E-015  0.9000779E+02  0.7816164E-02  0.1186339E+00
        -11   -1    0    0    0    0  0.00000000000E+00  0.00000000000E+00  0.45593999997E+02  0.45594000000E+02  0.51100000000E-03 0.  1.
         11   -1    0    0    0    0 -0.00000000000E+00 -0.00000000000E+00 -0.45593999997E+02  0.45594000000E+02  0.51100000000E-03 0. -1.
    9900012    2    1    2    0    0  0.18959581483E+00 -0.87935303985E+00 -0.76399935440E+00  0.90007786733E+02  0.90000048718E+02 0.  0.
        -12    1    1    2    0    0 -0.18959581483E+00  0.87935303985E+00  0.76399935440E+00  0.11802132668E+01  0.00000000000E+00 0.  1.
         11    1    3    3    0    0 -0.29369834580E+01  0.21043797636E+02 -0.12205915519E+02  0.24504115260E+02  0.51100000000E-03 0. -1.
        -11    1    3    3    0    0  0.72176999906E+01  0.15355340583E+02 -0.12443456557E+02  0.21040943157E+02  0.51100000000E-03 0.  1.
         12    1    3    3    0    0 -0.40911207178E+01 -0.37278491259E+02  0.23885372721E+02  0.44462728316E+02  0.00000000000E+00 0. -1.
</event>
<event>
 7    1  0.2405891E-015  0.9000776E+02  0.7816164E-02  0.1186339E+00
        -11   -1    0    0    0    0  0.00000000000E+00  0.00000000000E+00  0.45593999997E+02  0.45594000000E+02  0.51100000000E-03 0. -1.
         11   -1    0    0    0    0 -0.00000000000E+00 -0.00000000000E+00 -0.45593999997E+02  0.45594000000E+02  0.51100000000E-03 0.  1.
    9900012    2    1    2    0    0 -0.84387025215E+00  0.63743913593E+00 -0.52394490401E+00  0.90007761076E+02  0.90000022723E+02 0.  0.
        -12    1    1    2    0    0  0.84387025215E+00 -0.63743913593E+00  0.52394490401E+00  0.11802389237E+01  0.00000000000E+00 0.  1.
         11    1    3    3    0    0  0.25140318404E+02  0.26206553334E+02 -0.21045856066E+01  0.36376480422E+02  0.51100000000E-03 0. -1.
        -11    1    3    3    0    0  0.10207286302E+02 -0.38905389566E+01 -0.26253539671E+01  0.11234654900E+02  0.51100000000E-03 0.  1.
        -12    1    3    3    0    0 -0.36191474958E+02 -0.21678575241E+02  0.42059946696E+01  0.42396625753E+02  0.00000000000E+00 0.  1.
</event>
<event>
 7    1  0.2405891E-015  0.9000774E+02  0.7816164E-02  0.1186339E+00
        -11   -1    0    0    0    0  0.00000000000E+00  0.00000000000E+00  0.45593999997E+02  0.45594000000E+02  0.51100000000E-03 0.  1.
         11   -1    0    0    0    0 -0.00000000000E+00 -0.00000000000E+00 -0.45593999997E+02  0.45594000000E+02  0.51100000000E-03 0. -1.
    9900012    2    1    2    0    0 -0.37523037195E+00 -0.10882803545E+01  0.26050886278E+00  0.90007738660E+02  0.90000000011E+02 0.  0.
        -12    1    1    2    0    0  0.37523037195E+00  0.10882803545E+01 -0.26050886278E+00  0.11802613396E+01  0.00000000000E+00 0.  1.
         11    1    3    3    0    0 -0.21226275689E+00  0.58189697993E+01 -0.75993909183E+01  0.95737248547E+01  0.51100000000E-03 0. -1.
        -11    1    3    3    0    0  0.69510327817E+01  0.35480571496E+02  0.96345544513E+01  0.37416740240E+02  0.51100000000E-03 0.  1.
         12    1    3    3    0    0 -0.71140003967E+01 -0.42387821650E+02 -0.17746546703E+01  0.43017273566E+02  0.00000000000E+00 0. -1.
</event>
<event>
 7    1  0.2405891E-015  0.9000781E+02  0.7816164E-02  0.1186339E+00
        -11   -1    0    0    0    0  0.00000000000E+00  0.00000000000E+00  0.45593999997E+02  0.45594000000E+02  0.51100000000E-03 0. -1.
         11   -1    0    0    0    0 -0.00000000000E+00 -0.00000000000E+00 -0.45593999997E+02  0.45594000000E+02  0.51100000000E-03 0.  1.
    9900012    2    1    2    0    0  0.16510903380E+00  0.11488214377E+01  0.21402562025E+00  0.90007805671E+02  0.90000067906E+02 0.  0.
        -12    1    1    2    0    0 -0.16510903380E+00 -0.11488214377E+01 -0.21402562025E+00  0.11801943293E+01  0.00000000000E+00 0.  1.
         11    1    3    3    0    0  0.82100069485E+00  0.68880280776E+01  0.64864316244E+01  0.94969873338E+01  0.51100000000E-03 0. -1.
        -11    1    3    3    0    0  0.37901573232E+02  0.63292227870E+01 -0.10642978862E+02  0.39873065017E+02  0.51100000000E-03 0.  1.
         12    1    3    3    0    0 -0.38557464893E+02 -0.12068429427E+02  0.43705728576E+01  0.40637753320E+02  0.00000000000E+00 0. -1.
</event>
<event>
 7    1  0.2405891E-015  0.9000771E+02  0.7816164E-02  0.1186339E+00
        -11   -1    0    0    0    0  0.00000000000E+00  0.00000000000E+00  0.45593999997E+02  0.45594000000E+02  0.51100000000E-03 0.  1.
         11   -1    0    0    0    0 -0.00000000000E+00 -0.00000000000E+00 -0.45593999997E+02  0.45594000000E+02  0.51100000000E-03 0. -1.
    9900012    2    1    2    0    0  0.24185141262E+00  0.10571555018E+01 -0.46584323493E+00  0.90007711993E+02  0.89999972991E+02 0.  0.
        -12    1    1    2    0    0 -0.24185141262E+00 -0.10571555018E+01  0.46584323493E+00  0.11802880074E+01  0.00000000000E+00 0.  1.
         11    1    3    3    0    0  0.41832358825E+01 -0.10812637314E+02 -0.26067174478E+01  0.11883078904E+02  0.51100000000E-03 0. -1.
        -11    1    3    3    0    0  0.10876952700E+02  0.19776878320E+00  0.36958084184E+02  0.38525928922E+02  0.51100000000E-03 0.  1.
         12    1    3    3    0    0 -0.14818337170E+02  0.11672024032E+02 -0.34817209971E+02  0.39598704166E+02  0.00000000000E+00 0. -1.
</event>
<event>
 7    1  0.2405891E-015  0.9000779E+02  0.7816164E-02  0.1186339E+00
        -11   -1    0    0    0    0  0.00000000000E+00  0.00000000000E+00  0.45593999997E+02  0.45594000000E+02  0.51100000000E-03 0.  1.
         11   -1    0    0    0    0 -0.00000000000E+00 -0.00000000000E+00 -0.45593999997E+02  0.45594000000E+02  0.51100000000E-03 0. -1.
    9900012    2    1    2    0    0 -0.35403685870E+00  0.93350585505E+00 -0.62937479734E+00  0.90007793275E+02  0.90000055346E+02 0.  0.
        -12    1    1    2    0    0  0.35403685870E+00 -0.93350585505E+00  0.62937479734E+00  0.11802067252E+01  0.00000000000E+00 0.  1.
         11    1    3    3    0    0  0.51373632894E+01 -0.64333597428E+01  0.32624376347E+01  0.88557393101E+01  0.51100000000E-03 0. -1.
        -11    1    3    3    0    0  0.91135804618E+00 -0.24825503816E+02  0.26568157504E+02  0.36373111039E+02  0.51100000000E-03 0.  1.
         12    1    3    3    0    0 -0.64027581943E+01  0.32192369414E+02 -0.30459969936E+02  0.44778942926E+02  0.00000000000E+00 0. -1.
</event>
<event>
 7    1  0.2405891E-015  0.9000776E+02  0.7816164E-02  0.1186339E+00
        -11   -1    0    0    0    0  0.00000000000E+00  0.00000000000E+00  0.45593999997E+02  0.45594000000E+02  0.51100000000E-03 0. -1.
         11   -1    0    0    0    0 -0.00000000000E+00 -0.00000000000E+00 -0.45593999997E+02  0.45594000000E+02  0.51100000000E-03 0.  1.
    9900012    2    1    2    0    0 -0.91574050789E-01  0.30882647906E+00  0.11354337245E+01  0.90007758777E+02  0.90000020393E+02 0.  0.
        -12    1    1    2    0    0  0.91574050789E-01 -0.30882647906E+00 -0.11354337245E+01  0.11802412227E+01  0.00000000000E+00 0.  1.
         11    1    3    3    0    0  0.17394705780E+02  0.94780286493E+01  0.33338495748E+02  0.38779686889E+02  0.51100000000E-03 0. -1.
        -11    1    3    3    0    0  0.94699443216E+00 -0.96969236703E+01  0.40524324386E+01  0.10552219485E+02  0.51100000000E-03 0.  1.
        -12    1    3    3    0    0 -0.18433274263E+02  0.52772150007E+00 -0.36255494462E+02  0.40675852403E+02  0.00000000000E+00 0.  1.
</event>
<event>
 7    1  0.2405891E-015  0.9000775E+02  0.7816164E-02  0.1186339E+00
        -11   -1    0    0    0    0  0.00000000000E+00  0.00000000000E+00  0.45593999997E+02  0.45594000000E+02  0.51100000000E-03 0.  1.
         11   -1    0    0    0    0 -0.00000000000E+00 -0.00000000000E+00 -0.45593999997E+02  0.45594000000E+02  0.51100000000E-03 0. -1.
    9900012    2    1    2    0    0 -0.92767400730E+00  0.57955243597E+00 -0.44332777217E+00  0.90007745958E+02  0.90000007405E+02 0.  0.
        -12    1    1    2    0    0  0.92767400730E+00 -0.57955243597E+00  0.44332777217E+00  0.11802540419E+01  0.00000000000E+00 0.  1.
         11    1    3    3    0    0  0.10150029768E+02  0.21467980200E+01 -0.17266040694E+01  0.10517271885E+02  0.51100000000E-03 0. -1.
        -11    1    3    3    0    0 -0.22668659651E+02  0.15175026357E+02  0.32367829957E+02  0.42329965411E+02  0.51100000000E-03 0.  1.
         12    1    3    3    0    0  0.11590955876E+02 -0.16742271941E+02 -0.31084553660E+02  0.37160508663E+02  0.00000000000E+00 0. -1.
</event>
<event>
 7    1  0.2405891E-015  0.9000803E+02  0.7816164E-02  0.1186338E+00
        -11   -1    0    0    0    0  0.00000000000E+00  0.00000000000E+00  0.45593999997E+02  0.45594000000E+02  0.51100000000E-03 0.  1.
         11   -1    0    0    0    0 -0.00000000000E+00 -0.00000000000E+00 -0.45593999997E+02  0.45594000000E+02  0.51100000000E-03 0. -1.
    9900012    2    1    2    0    0  0.73542890484E+00  0.79098120085E+00 -0.47520614925E+00  0.90008030586E+02  0.90000295789E+02 0.  0.
        -12    1    1    2    0    0 -0.73542890484E+00 -0.79098120085E+00  0.47520614925E+00  0.11799694142E+01  0.00000000000E+00 0.  1.
         11    1    3    3    0    0 -0.82850440599E+01  0.10685923951E+01  0.22889427952E+01  0.86615878545E+01  0.51100000000E-03 0. -1.
        -11    1    3    3    0    0  0.23140065020E+02 -0.35964583997E+02 -0.39631119095E+01  0.42949041520E+02  0.51100000000E-03 0.  1.
         12    1    3    3    0    0 -0.14119592056E+02  0.35686972802E+02  0.11989629651E+01  0.38397401212E+02  0.00000000000E+00 0. -1.
</event>
<event>
 7    1  0.2405891E-015  0.9000756E+02  0.7816164E-02  0.1186339E+00
        -11   -1    0    0    0    0  0.00000000000E+00  0.00000000000E+00  0.45593999997E+02  0.45594000000E+02  0.51100000000E-03 0.  1.
         11   -1    0    0    0    0 -0.00000000000E+00 -0.00000000000E+00 -0.45593999997E+02  0.45594000000E+02  0.51100000000E-03 0. -1.
    9900012    2    1    2    0    0  0.57858183680E+00 -0.42051955601E+00 -0.93906202680E+00  0.90007563162E+02  0.89999822195E+02 0.  0.
        -12    1    1    2    0    0 -0.57858183680E+00  0.42051955601E+00  0.93906202680E+00  0.11804368382E+01  0.00000000000E+00 0.  1.
         11    1    3    3    0    0  0.44801776336E+01  0.25824562961E+01 -0.67176418353E+01  0.84774869058E+01  0.51100000000E-03 0. -1.
        -11    1    3    3    0    0  0.86716619044E+01  0.36022188603E+02  0.14189921729E+02  0.39675555080E+02  0.51100000000E-03 0.  1.
         12    1    3    3    0    0 -0.12573257701E+02 -0.39025164455E+02 -0.84113419207E+01  0.41854521176E+02  0.00000000000E+00 0. -1.
</event>
<event>
 7    1  0.2405891E-015  0.9000774E+02  0.7816164E-02  0.1186339E+00
        -11   -1    0    0    0    0  0.00000000000E+00  0.00000000000E+00  0.45593999997E+02  0.45594000000E+02  0.51100000000E-03 0.  1.
         11   -1    0    0    0    0 -0.00000000000E+00 -0.00000000000E+00 -0.45593999997E+02  0.45594000000E+02  0.51100000000E-03 0. -1.
    9900012    2    1    2    0    0 -0.17551388521E-01 -0.63427640323E+00 -0.99518374071E+00  0.90007743551E+02  0.90000004966E+02 0.  0.
        -12    1    1    2    0    0  0.17551388521E-01  0.63427640323E+00  0.99518374071E+00  0.11802564487E+01  0.00000000000E+00 0.  1.
         11    1    3    3    0    0 -0.63547306315E+01  0.64513725448E+00 -0.98139099765E+01  0.11709467655E+02  0.51100000000E-03 0. -1.
        -11    1    3    3    0    0  0.85016072069E+01 -0.39049809286E+02  0.41776041473E+01  0.40182300918E+02  0.51100000000E-03 0.  1.
         12    1    3    3    0    0 -0.21644279639E+01  0.37770395628E+02  0.46411220885E+01  0.38115974979E+02  0.00000000000E+00 0. -1.
</event>
<event>
 7    1  0.2405891E-015  0.9000767E+02  0.7816164E-02  0.1186339E+00
        -11   -1    0    0    0    0  0.00000000000E+00  0.00000000000E+00  0.45593999997E+02  0.45594000000E+02  0.51100000000E-03 0.  1.
         11   -1    0    0    0    0 -0.00000000000E+00 -0.00000000000E+00 -0.45593999997E+02  0.45594000000E+02  0.51100000000E-03 0. -1.
    9900012    2    1    2    0    0  0.18925602106E+00  0.73193490839E+00 -0.90643942917E+00  0.90007669965E+02  0.89999930409E+02 0.  0.
        -12    1    1    2    0    0 -0.18925602106E+00 -0.73193490839E+00  0.90643942917E+00  0.11803300345E+01  0.00000000000E+00 0.  1.
         11    1    3    3    0    0 -0.44521718978E+01  0.13988135453E+01  0.67395766513E+01  0.81975854764E+01  0.51100000000E-03 0. -1.
        -11    1    3    3    0    0  0.55213406548E+01  0.33182037376E+02 -0.26709041760E+02  0.42952365697E+02  0.51100000000E-03 0.  1.
         12    1    3    3    0    0 -0.87991273591E+00 -0.33848916013E+02  0.19063025679E+02  0.38857718792E+02  0.00000000000E+00 0. -1.
</event>
<event>
 7    1  0.2405891E-015  0.9000764E+02  0.7816164E-02  0.1186339E+00
        -11   -1    0    0    0    0  0.00000000000E+00  0.00000000000E+00  0.45593999997E+02  0.45594000000E+02  0.51100000000E-03 0.  1.
         11   -1    0    0    0    0 -0.00000000000E+00 -0.00000000000E+00 -0.45593999997E+02  0.45594000000E+02  0.51100000000E-03 0. -1.
    9900012    2    1    2    0    0 -0.58298475580E+00  0.97781958517E+00 -0.31184436639E+00  0.90007640192E+02  0.89999900243E+02 0.  0.
        -12    1    1    2    0    0  0.58298475580E+00 -0.97781958517E+00  0.31184436639E+00  0.11803598076E+01  0.00000000000E+00 0.  1.
         11    1    3    3    0    0  0.73322562791E+01  0.64154249219E+01  0.34147550432E+01  0.10323769241E+02  0.51100000000E-03 0. -1.
        -11    1    3    3    0    0  0.53089546014E+01  0.35334863810E+02  0.45774309457E+01  0.36023471151E+02  0.51100000000E-03 0.  1.
         12    1    3    3    0    0 -0.13224195636E+02 -0.40772469147E+02 -0.83040303552E+01  0.43660399800E+02  0.00000000000E+00 0. -1.
</event>
<event>
 7    1  0.2405891E-015  0.9000767E+02  0.7816164E-02  0.1186339E+00
        -11   -1    0    0    0    0  0.00000000000E+00  0.00000000000E+00  0.45593999997E+02  0.45594000000E+02  0.51100000000E-03 0. -1.
         11   -1    0    0    0    0 -0.00000000000E+00 -0.00000000000E+00 -0.45593999997E+02  0.45594000000E+02  0.51100000000E-03 0.  1.
    9900012    2    1    2    0    0  0.93607592872E+00  0.70480731841E+00  0.14209587091E+00  0.90007668378E+02  0.89999928801E+02 0.  0.
        -12    1    1    2    0    0 -0.93607592872E+00 -0.70480731841E+00 -0.14209587091E+00  0.11803316216E+01  0.00000000000E+00 0.  1.
         11    1    3    3    0    0 -0.72028501463E+01 -0.70095539507E+01  0.32898147008E+01  0.10575338191E+02  0.51100000000E-03 0. -1.
        -11    1    3    3    0    0 -0.24315540108E+02  0.23483817112E+02 -0.20351818945E+02  0.39457973738E+02  0.51100000000E-03 0.  1.
         12    1    3    3    0    0  0.32454466183E+02 -0.15769455843E+02  0.17204100115E+02  0.39974356450E+02  0.00000000000E+00 0. -1.
</event>
<event>
 7    1  0.2405891E-015  0.9000801E+02  0.7816164E-02  0.1186339E+00
        -11   -1    0    0    0    0  0.00000000000E+00  0.00000000000E+00  0.45593999997E+02  0.45594000000E+02  0.51100000000E-03 0. -1.
         11   -1    0    0    0    0 -0.00000000000E+00 -0.00000000000E+00 -0.45593999997E+02  0.45594000000E+02  0.51100000000E-03 0.  1.
    9900012    2    1    2    0    0 -0.78636206219E+00  0.80615961685E+00  0.35231924926E+00  0.90008005308E+02  0.90000270177E+02 0.  0.
        -12    1    1    2    0    0  0.78636206219E+00 -0.80615961685E+00 -0.35231924926E+00  0.11799946924E+01  0.00000000000E+00 0.  1.
         11    1    3    3    0    0  0.63313994987E+01 -0.43598287234E+01 -0.62302220923E+01  0.98949680995E+01  0.51100000000E-03 0. -1.
        -11    1    3    3    0    0  0.35845161919E+02  0.24811050050E+01  0.88563082531E+01  0.37006292859E+02  0.51100000000E-03 0.  1.
         12    1    3    3    0    0 -0.42962923479E+02  0.26848833353E+01 -0.22737669115E+01  0.43106744349E+02  0.00000000000E+00 0. -1.
</event>
<event>
 7    1  0.2405891E-015  0.9000778E+02  0.7816164E-02  0.1186339E+00
        -11   -1    0    0    0    0  0.00000000000E+00  0.00000000000E+00  0.45593999997E+02  0.45594000000E+02  0.51100000000E-03 0.  1.
         11   -1    0    0    0    0 -0.00000000000E+00 -0.00000000000E+00 -0.45593999997E+02  0.45594000000E+02  0.51100000000E-03 0. -1.
    9900012    2    1    2    0    0  0.45784810507E+00 -0.10486366714E+01 -0.28925172280E+00  0.90007775312E+02  0.90000037146E+02 0.  0.
        -12    1    1    2    0    0 -0.45784810507E+00  0.10486366714E+01  0.28925172280E+00  0.11802246884E+01  0.00000000000E+00 0.  1.
         11    1    3    3    0    0  0.74191838434E+01  0.55286033060E+01 -0.11907589098E+01  0.93288611556E+01  0.51100000000E-03 0. -1.
        -11    1    3    3    0    0  0.34912925640E+02  0.79942550332E+00 -0.10844747478E+02  0.36567198498E+02  0.51100000000E-03 0.  1.
         12    1    3    3    0    0 -0.41874261378E+02 -0.73766654807E+01  0.11746254665E+02  0.44111715658E+02  0.00000000000E+00 0. -1.
</event>
<event>
 7    1  0.2405891E-015  0.9000766E+02  0.7816164E-02  0.1186339E+00
        -11   -1    0    0    0    0  0.00000000000E+00  0.00000000000E+00  0.45593999997E+02  0.45594000000E+02  0.51100000000E-03 0. -1.
         11   -1    0    0    0    0 -0.00000000000E+00 -0.00000000000E+00 -0.45593999997E+02  0.45594000000E+02  0.51100000000E-03 0.  1.
    9900012    2    1    2    0    0 -0.83565024550E+00 -0.37123208270E+00  0.74637263905E+00  0.90007662460E+02  0.89999922804E+02 0.  0.
        -12    1    1    2    0    0  0.83565024550E+00  0.37123208270E+00 -0.74637263905E+00  0.11803375400E+01  0.00000000000E+00 0.  1.
         11    1    3    3    0    0 -0.71393294864E+01  0.59648694226E+01  0.20270281949E+01  0.95214776326E+01  0.51100000000E-03 0. -1.
        -11    1    3    3    0    0 -0.22705065801E+02  0.27480211630E+02  0.27367189303E+01  0.35751526891E+02  0.51100000000E-03 0.  1.
         12    1    3    3    0    0  0.29008745042E+02 -0.33816313135E+02 -0.40173744861E+01  0.44734657937E+02  0.00000000000E+00 0. -1.
</event>
<event>
 7    1  0.2405891E-015  0.9000776E+02  0.7816164E-02  0.1186339E+00
        -11   -1    0    0    0    0  0.00000000000E+00  0.00000000000E+00  0.45593999997E+02  0.45594000000E+02  0.51100000000E-03 0. -1.
         11   -1    0    0    0    0 -0.00000000000E+00 -0.00000000000E+00 -0.45593999997E+02  0.45594000000E+02  0.51100000000E-03 0.  1.
    9900012    2    1    2    0    0  0.63844592634E-01  0.31935151196E+00  0.11344169487E+01  0.90007761323E+02  0.90000022973E+02 0.  0.
        -12    1    1    2    0    0 -0.63844592634E-01 -0.31935151196E+00 -0.11344169487E+01  0.11802386766E+01  0.00000000000E+00 0.  1.
         11    1    3    3    0    0  0.12609886932E+02 -0.30211460966E+01  0.34489646820E+02  0.36846605138E+02  0.51100000000E-03 0. -1.
        -11    1    3    3    0    0  0.90598252071E+01 -0.45880251488E+01  0.25890701135E+01  0.10480157053E+02  0.51100000000E-03 0.  1.
        -12    1    3    3    0    0 -0.21605867547E+02  0.79285227574E+01 -0.35944299984E+02  0.42680999132E+02  0.00000000000E+00 0.  1.
</event>
<event>
 7    1  0.2405891E-015  0.9000759E+02  0.7816164E-02  0.1186339E+00
        -11   -1    0    0    0    0  0.00000000000E+00  0.00000000000E+00  0.45593999997E+02  0.45594000000E+02  0.51100000000E-03 0.  1.
         11   -1    0    0    0    0 -0.00000000000E+00 -0.00000000000E+00 -0.45593999997E+02  0.45594000000E+02  0.51100000000E-03 0. -1.
    9900012    2    1    2    0    0 -0.11272329081E+01  0.11362477888E-01 -0.35011653127E+00  0.90007591291E+02  0.89999850696E+02 0.  0.
        -12    1    1    2    0    0  0.11272329081E+01 -0.11362477888E-01  0.35011653127E+00  0.11804087091E+01  0.00000000000E+00 0.  1.
         11    1    3    3    0    0 -0.18307385938E+02 -0.35606612664E+02 -0.35303536757E+01  0.40192718776E+02  0.51100000000E-03 0. -1.
        -11    1    3    3    0    0 -0.71907489035E+01  0.37561144155E+01 -0.40295364420E+01  0.90582796100E+01  0.51100000000E-03 0.  1.
        -12    1    3    3    0    0  0.24370901933E+02  0.31861860727E+02  0.72097735864E+01  0.40756592904E+02  0.00000000000E+00 0.  1.
</event>
<event>
 7    1  0.2405891E-015  0.9000808E+02  0.7816164E-02  0.1186338E+00
        -11   -1    0    0    0    0  0.00000000000E+00  0.00000000000E+00  0.45593999997E+02  0.45594000000E+02  0.51100000000E-03 0. -1.
         11   -1    0    0    0    0 -0.00000000000E+00 -0.00000000000E+00 -0.45593999997E+02  0.45594000000E+02  0.51100000000E-03 0.  1.
    9900012    2    1    2    0    0  0.34162066178E+00  0.11240494912E+01 -0.10966082967E+00  0.90008077361E+02  0.90000343182E+02 0.  0.
        -12    1    1    2    0    0 -0.34162066178E+00 -0.11240494912E+01  0.10966082967E+00  0.11799226385E+01  0.00000000000E+00 0.  1.
         11    1    3    3    0    0  0.20302293249E+02 -0.40220992120E+01  0.27852694786E+01  0.20883441277E+02  0.51100000000E-03 0. -1.
        -11    1    3    3    0    0  0.24125470019E+02  0.54804370515E+01 -0.37865373494E+01  0.25028211268E+02  0.51100000000E-03 0.  1.
         12    1    3    3    0    0 -0.44086142606E+02 -0.33428834824E+00  0.89160704113E+00  0.44096424817E+02  0.00000000000E+00 0. -1.
</event>
<event>
 7    1  0.2405891E-015  0.9000776E+02  0.7816164E-02  0.1186339E+00
        -11   -1    0    0    0    0  0.00000000000E+00  0.00000000000E+00  0.45593999997E+02  0.45594000000E+02  0.51100000000E-03 0. -1.
         11   -1    0    0    0    0 -0.00000000000E+00 -0.00000000000E+00 -0.45593999997E+02  0.45594000000E+02  0.51100000000E-03 0.  1.
    9900012    2    1    2    0    0  0.44304690359E+00  0.16913067727E+00  0.10807686615E+01  0.90007764157E+02  0.90000025844E+02 0.  0.
        -12    1    1    2    0    0 -0.44304690359E+00 -0.16913067727E+00 -0.10807686615E+01  0.11802358427E+01  0.00000000000E+00 0.  1.
         11    1    3    3    0    0 -0.31480791675E+02 -0.13556863635E+02  0.20112112033E+02  0.39740732842E+02  0.51100000000E-03 0. -1.
        -11    1    3    3    0    0  0.14350342900E+01  0.66832714867E+01  0.68364862447E+01  0.96676256451E+01  0.51100000000E-03 0.  1.
        -12    1    3    3    0    0  0.30488804288E+02  0.70427228258E+01 -0.25867829617E+02  0.40599405671E+02  0.00000000000E+00 0.  1.
</event>
<event>
 7    1  0.2405891E-015  0.9000754E+02  0.7816164E-02  0.1186339E+00
        -11   -1    0    0    0    0  0.00000000000E+00  0.00000000000E+00  0.45593999997E+02  0.45594000000E+02  0.51100000000E-03 0. -1.
         11   -1    0    0    0    0 -0.00000000000E+00 -0.00000000000E+00 -0.45593999997E+02  0.45594000000E+02  0.51100000000E-03 0.  1.
    9900012    2    1    2    0    0 -0.36455355548E-01 -0.33336516005E+00  0.11318243173E+01  0.90007539239E+02  0.89999797957E+02 0.  0.
        -12    1    1    2    0    0  0.36455355548E-01  0.33336516005E+00 -0.11318243173E+01  0.11804607609E+01  0.00000000000E+00 0.  1.
         11    1    3    3    0    0  0.97769361311E+01  0.18438748635E+02  0.31908524598E+02  0.38127809714E+02  0.51100000000E-03 0. -1.
        -11    1    3    3    0    0 -0.49711279825E+01 -0.23961088140E+01  0.78793725227E+01  0.96196654038E+01  0.51100000000E-03 0.  1.
        -12    1    3    3    0    0 -0.48422635041E+01 -0.16376004981E+02 -0.38656072803E+02  0.42260064121E+02  0.00000000000E+00 0.  1.
</event>
<event>
 7    1  0.2405891E-015  0.9000772E+02  0.7816164E-02  0.1186339E+00
        -11   -1    0    0    0    0  0.00000000000E+00  0.00000000000E+00  0.45593999997E+02  0.45594000000E+02  0.51100000000E-03 0. -1.
         11   -1    0    0    0    0 -0.00000000000E+00 -0.00000000000E+00 -0.45593999997E+02  0.45594000000E+02  0.51100000000E-03 0.  1.
    9900012    2    1    2    0    0  0.63577607624E+00 -0.67876428093E+00  0.72672322250E+00  0.90007720876E+02  0.89999981992E+02 0.  0.
        -12    1    1    2    0    0 -0.63577607624E+00  0.67876428093E+00 -0.72672322250E+00  0.11802791239E+01  0.00000000000E+00 0.  1.
         11    1    3    3    0    0 -0.30453711327E+01  0.84931840409E+01 -0.50275680467E+01  0.10328838328E+02  0.51100000000E-03 0. -1.
        -11    1    3    3    0    0 -0.30945914904E+02 -0.97685266690E+01 -0.18541248448E+02  0.37374478682E+02  0.51100000000E-03 0.  1.
         12    1    3    3    0    0  0.34627062112E+02  0.59657834724E+00  0.24295539717E+02  0.42304403865E+02  0.00000000000E+00 0. -1.
</event>
<event>
 7    1  0.2405891E-015  0.9000799E+02  0.7816164E-02  0.1186339E+00
        -11   -1    0    0    0    0  0.00000000000E+00  0.00000000000E+00  0.45593999997E+02  0.45594000000E+02  0.51100000000E-03 0. -1.
         11   -1    0    0    0    0 -0.00000000000E+00 -0.00000000000E+00 -0.45593999997E+02  0.45594000000E+02  0.51100000000E-03 0.  1.
    9900012    2    1    2    0    0 -0.71938548542E+00  0.51702350538E+00  0.77948880065E+00  0.90007986622E+02  0.90000251245E+02 0.  0.
        -12    1    1    2    0    0  0.71938548542E+00 -0.51702350538E+00 -0.77948880065E+00  0.11800133779E+01  0.00000000000E+00 0.  1.
         11    1    3    3    0    0 -0.58772100553E+01 -0.30179659170E+02 -0.18402932904E+02  0.35833243858E+02  0.51100000000E-03 0. -1.
        -11    1    3    3    0    0 -0.61625367263E+01 -0.39786792839E+01 -0.63077344905E+01  0.96744127682E+01  0.51100000000E-03 0.  1.
        -12    1    3    3    0    0  0.11320361296E+02  0.34675361960E+02  0.25490156195E+02  0.44500329996E+02  0.00000000000E+00 0.  1.
</event>
<event>
 7    1  0.2405891E-015  0.9000773E+02  0.7816164E-02  0.1186339E+00
        -11   -1    0    0    0    0  0.00000000000E+00  0.00000000000E+00  0.45593999997E+02  0.45594000000E+02  0.51100000000E-03 0.  1.
         11   -1    0    0    0    0 -0.00000000000E+00 -0.00000000000E+00 -0.45593999997E+02  0.45594000000E+02  0.51100000000E-03 0. -1.
    9900012    2    1    2    0    0 -0.42265096998E+00 -0.15017077673E+00 -0.10917148610E+01  0.90007734588E+02  0.89999995885E+02 0.  0.
        -12    1    1    2    0    0  0.42265096998E+00  0.15017077673E+00  0.10917148610E+01  0.11802654118E+01  0.00000000000E+00 0.  1.
         11    1    3    3    0    0 -0.47111590379E+01  0.58444203977E+01  0.56234148122E+01  0.93795023150E+01  0.51100000000E-03 0. -1.
        -11    1    3    3    0    0  0.19087223133E+02  0.31265851401E+02  0.87415652926E+01  0.37660198018E+02  0.51100000000E-03 0.  1.
         12    1    3    3    0    0 -0.14798715065E+02 -0.37260442575E+02 -0.15456694966E+02  0.42968034255E+02  0.00000000000E+00 0. -1.
</event>
<event>
 7    1  0.2405891E-015  0.9000773E+02  0.7816164E-02  0.1186339E+00
        -11   -1    0    0    0    0  0.00000000000E+00  0.00000000000E+00  0.45593999997E+02  0.45594000000E+02  0.51100000000E-03 0.  1.
         11   -1    0    0    0    0 -0.00000000000E+00 -0.00000000000E+00 -0.45593999997E+02  0.45594000000E+02  0.51100000000E-03 0. -1.
    9900012    2    1    2    0    0  0.10843721098E+01  0.39988159632E+00  0.23932055083E+00  0.90007727790E+02  0.89999988997E+02 0.  0.
        -12    1    1    2    0    0 -0.10843721098E+01 -0.39988159632E+00 -0.23932055083E+00  0.11802722100E+01  0.00000000000E+00 0.  1.
         11    1    3    3    0    0 -0.37090498466E+01 -0.63321273929E+01 -0.34999156900E+01  0.81303319848E+01  0.51100000000E-03 0. -1.
        -11    1    3    3    0    0 -0.31383162965E+02  0.11670322573E+02 -0.19355178728E+02  0.38674569041E+02  0.51100000000E-03 0.  1.
         12    1    3    3    0    0  0.36176584921E+02 -0.49383135839E+01  0.23094414969E+02  0.43202826764E+02  0.00000000000E+00 0. -1.
</event>
<event>
 7    1  0.2405891E-015  0.9000779E+02  0.7816164E-02  0.1186339E+00
        -11   -1    0    0    0    0  0.00000000000E+00  0.00000000000E+00  0.45593999997E+02  0.45594000000E+02  0.51100000000E-03 0. -1.
         11   -1    0    0    0    0 -0.00000000000E+00 -0.00000000000E+00 -0.45593999997E+02  0.45594000000E+02  0.51100000000E-03 0.  1.
    9900012    2    1    2    0    0 -0.94062279983E+00 -0.14108144018E+00  0.69873216403E+00  0.90007787366E+02  0.90000049359E+02 0.  0.
        -12    1    1    2    0    0  0.94062279983E+00  0.14108144018E+00 -0.69873216403E+00  0.11802126340E+01  0.00000000000E+00 0.  1.
         11    1    3    3    0    0 -0.10207537338E+01  0.23149273748E+01 -0.86459518259E+01  0.90085132054E+01  0.51100000000E-03 0. -1.
        -11    1    3    3    0    0 -0.21999684910E+02 -0.19605444964E+02 -0.23626931494E+02  0.37770246233E+02  0.51100000000E-03 0.  1.
         12    1    3    3    0    0  0.22079815844E+02  0.17149436149E+02  0.32971615484E+02  0.43229027928E+02  0.00000000000E+00 0. -1.
</event>
<event>
 7    1  0.2405891E-015  0.9000777E+02  0.7816164E-02  0.1186339E+00
        -11   -1    0    0    0    0  0.00000000000E+00  0.00000000000E+00  0.45593999997E+02  0.45594000000E+02  0.51100000000E-03 0. -1.
         11   -1    0    0    0    0 -0.00000000000E+00 -0.00000000000E+00 -0.45593999997E+02  0.45594000000E+02  0.51100000000E-03 0.  1.
    9900012    2    1    2    0    0  0.10475958277E+01  0.54141721481E+00 -0.48469635858E-01  0.90007771664E+02  0.90000033450E+02 0.  0.
        -12    1    1    2    0    0 -0.10475958277E+01 -0.54141721481E+00  0.48469635858E-01  0.11802283357E+01  0.00000000000E+00 0.  1.
         11    1    3    3    0    0  0.18113725429E+01 -0.97240768505E+01  0.24551717616E+02  0.26469332807E+02  0.51100000000E-03 0. -1.
        -11    1    3    3    0    0 -0.90100877396E+01 -0.22102228793E+02 -0.37437867756E+01  0.24160011141E+02  0.51100000000E-03 0.  1.
        -12    1    3    3    0    0  0.82463110244E+01  0.32367722858E+02 -0.20856400477E+02  0.39378427716E+02  0.00000000000E+00 0.  1.
</event>
<event>
 7    1  0.2405891E-015  0.9000827E+02  0.7816164E-02  0.1186338E+00
        -11   -1    0    0    0    0  0.00000000000E+00  0.00000000000E+00  0.45593999997E+02  0.45594000000E+02  0.51100000000E-03 0. -1.
         11   -1    0    0    0    0 -0.00000000000E+00 -0.00000000000E+00 -0.45593999997E+02  0.45594000000E+02  0.51100000000E-03 0.  1.
    9900012    2    1    2    0    0 -0.12341735365E+00 -0.11726531211E+01 -0.37741605055E-01  0.90008266295E+02  0.90000534609E+02 0.  0.
        -12    1    1    2    0    0  0.12341735365E+00  0.11726531211E+01  0.37741605055E-01  0.11797337049E+01  0.00000000000E+00 0.  1.
         11    1    3    3    0    0 -0.37300819079E+00 -0.23626027474E+01 -0.96052659315E+01  0.98985938763E+01  0.51100000000E-03 0. -1.
        -11    1    3    3    0    0  0.24788032312E+02 -0.30597179055E+02  0.44866061770E+01  0.39632859438E+02  0.51100000000E-03 0.  1.
         12    1    3    3    0    0 -0.24538441475E+02  0.31787128681E+02  0.50809181495E+01  0.40476812980E+02  0.00000000000E+00 0. -1.
</event>
<event>
 7    1  0.2405891E-015  0.9000784E+02  0.7816164E-02  0.1186339E+00
        -11   -1    0    0    0    0  0.00000000000E+00  0.00000000000E+00  0.45593999997E+02  0.45594000000E+02  0.51100000000E-03 0. -1.
         11   -1    0    0    0    0 -0.00000000000E+00 -0.00000000000E+00 -0.45593999997E+02  0.45594000000E+02  0.51100000000E-03 0.  1.
    9900012    2    1    2    0    0  0.92113508335E+00  0.64506873450E+00  0.35800354725E+00  0.90007843208E+02  0.90000105938E+02 0.  0.
        -12    1    1    2    0    0 -0.92113508335E+00 -0.64506873450E+00 -0.35800354725E+00  0.11801567921E+01  0.00000000000E+00 0.  1.
         11    1    3    3    0    0 -0.22201331145E+02  0.19880628127E+02  0.11552326410E+02  0.31962395484E+02  0.51100000000E-03 0. -1.
        -11    1    3    3    0    0 -0.13080302299E+02 -0.36788433737E+01  0.62460360530E+01  0.14954636854E+02  0.51100000000E-03 0.  1.
        -12    1    3    3    0    0  0.36202768527E+02 -0.15556716019E+02 -0.17440358915E+02  0.43090810870E+02  0.00000000000E+00 0.  1.
</event>
<event>
 7    1  0.2405891E-015  0.9000766E+02  0.7816164E-02  0.1186339E+00
        -11   -1    0    0    0    0  0.00000000000E+00  0.00000000000E+00  0.45593999997E+02  0.45594000000E+02  0.51100000000E-03 0.  1.
         11   -1    0    0    0    0 -0.00000000000E+00 -0.00000000000E+00 -0.45593999997E+02  0.45594000000E+02  0.51100000000E-03 0. -1.
    9900012    2    1    2    0    0  0.49308670844E+00  0.10323204333E+01 -0.29047743078E+00  0.90007662287E+02  0.89999922629E+02 0.  0.
        -12    1    1    2    0    0 -0.49308670844E+00 -0.10323204333E+01  0.29047743078E+00  0.11803377130E+01  0.00000000000E+00 0.  1.
         11    1    3    3    0    0 -0.46008779767E+01 -0.82297445684E+01  0.31790879541E+01  0.99500439345E+01  0.51100000000E-03 0. -1.
        -11    1    3    3    0    0 -0.36040788684E+02 -0.43893425474E+01  0.20598567904E+01  0.36365475210E+02  0.51100000000E-03 0.  1.
         12    1    3    3    0    0  0.41134753369E+02  0.13651407549E+02 -0.55294221753E+01  0.43692143143E+02  0.00000000000E+00 0. -1.
</event>
<event>
 7    1  0.2405891E-015  0.9000776E+02  0.7816164E-02  0.1186339E+00
        -11   -1    0    0    0    0  0.00000000000E+00  0.00000000000E+00  0.45593999997E+02  0.45594000000E+02  0.51100000000E-03 0.  1.
         11   -1    0    0    0    0 -0.00000000000E+00 -0.00000000000E+00 -0.45593999997E+02  0.45594000000E+02  0.51100000000E-03 0. -1.
    9900012    2    1    2    0    0 -0.74949260933E+00  0.15112006262E+00 -0.89910844864E+00  0.90007757463E+02  0.90000019061E+02 0.  0.
        -12    1    1    2    0    0  0.74949260933E+00 -0.15112006262E+00  0.89910844864E+00  0.11802425374E+01  0.00000000000E+00 0.  1.
         11    1    3    3    0    0  0.28138412131E+01 -0.69276808282E-01  0.13331572445E+02  0.13625466075E+02  0.51100000000E-03 0. -1.
        -11    1    3    3    0    0 -0.10479305013E+02 -0.35040910188E+02  0.26728130458E+01  0.36671857741E+02  0.51100000000E-03 0.  1.
         12    1    3    3    0    0  0.69159711903E+01  0.35261307059E+02 -0.16903493940E+02  0.39710433646E+02  0.00000000000E+00 0. -1.
</event>
<event>
 7    1  0.2405891E-015  0.9000773E+02  0.7816164E-02  0.1186339E+00
        -11   -1    0    0    0    0  0.00000000000E+00  0.00000000000E+00  0.45593999997E+02  0.45594000000E+02  0.51100000000E-03 0.  1.
         11   -1    0    0    0    0 -0.00000000000E+00 -0.00000000000E+00 -0.45593999997E+02  0.45594000000E+02  0.51100000000E-03 0. -1.
    9900012    2    1    2    0    0 -0.44658125043E+00  0.27192899417E+00 -0.10581349234E+01  0.90007733205E+02  0.89999994483E+02 0.  0.
        -12    1    1    2    0    0  0.44658125043E+00 -0.27192899417E+00  0.10581349234E+01  0.11802667949E+01  0.00000000000E+00 0.  1.
         11    1    3    3    0    0 -0.11458195155E+02 -0.39566827418E+01  0.40750117019E-01  0.12122179481E+02  0.51100000000E-03 0. -1.
        -11    1    3    3    0    0  0.41154782981E+02  0.10184944964E+01  0.14685882668E+02  0.43708450479E+02  0.51100000000E-03 0.  1.
         12    1    3    3    0    0 -0.30143169076E+02  0.32101172396E+01 -0.15784767709E+02  0.34177103245E+02  0.00000000000E+00 0. -1.
</event>
<event>
 7    1  0.2405891E-015  0.9000774E+02  0.7816164E-02  0.1186339E+00
        -11   -1    0    0    0    0  0.00000000000E+00  0.00000000000E+00  0.45593999997E+02  0.45594000000E+02  0.51100000000E-03 0. -1.
         11   -1    0    0    0    0 -0.00000000000E+00 -0.00000000000E+00 -0.45593999997E+02  0.45594000000E+02  0.51100000000E-03 0.  1.
    9900012    2    1    2    0    0  0.29271067792E+00  0.11131635230E+01 -0.26117181974E+00  0.90007735924E+02  0.89999997238E+02 0.  0.
        -12    1    1    2    0    0 -0.29271067792E+00 -0.11131635230E+01  0.26117181974E+00  0.11802640761E+01  0.00000000000E+00 0.  1.
         11    1    3    3    0    0  0.11710392371E+02 -0.38261369848E+02 -0.12806897755E+02  0.42012883054E+02  0.51100000000E-03 0. -1.
        -11    1    3    3    0    0  0.50853156744E+01  0.77001103062E+01 -0.19806568505E+01  0.94379624950E+01  0.51100000000E-03 0.  1.
        -12    1    3    3    0    0 -0.16502997367E+02  0.31674423064E+02  0.14526382786E+02  0.38556890375E+02  0.00000000000E+00 0.  1.
</event>
<event>
 7    1  0.2405891E-015  0.9000778E+02  0.7816164E-02  0.1186339E+00
        -11   -1    0    0    0    0  0.00000000000E+00  0.00000000000E+00  0.45593999997E+02  0.45594000000E+02  0.51100000000E-03 0. -1.
         11   -1    0    0    0    0 -0.00000000000E+00 -0.00000000000E+00 -0.45593999997E+02  0.45594000000E+02  0.51100000000E-03 0.  1.
    9900012    2    1    2    0    0  0.70246246611E+00  0.82885384354E+00  0.46094413155E+00  0.90007778960E+02  0.90000040843E+02 0.  0.
        -12    1    1    2    0    0 -0.70246246611E+00 -0.82885384354E+00 -0.46094413155E+00  0.11802210397E+01  0.00000000000E+00 0.  1.
         11    1    3    3    0    0 -0.16960653709E+02  0.11587030240E+01  0.20878127284E+02  0.26924014672E+02  0.51100000000E-03 0. -1.
        -11    1    3    3    0    0  0.70600405339E+01  0.20497760788E+02 -0.30673172003E+02  0.37561228024E+02  0.51100000000E-03 0.  1.
         12    1    3    3    0    0  0.10603075641E+02 -0.20827609969E+02  0.10255988850E+02  0.25522536264E+02  0.00000000000E+00 0. -1.
</event>
<event>
 7    1  0.2405891E-015  0.9000770E+02  0.7816164E-02  0.1186339E+00
        -11   -1    0    0    0    0  0.00000000000E+00  0.00000000000E+00  0.45593999997E+02  0.45594000000E+02  0.51100000000E-03 0.  1.
         11   -1    0    0    0    0 -0.00000000000E+00 -0.00000000000E+00 -0.45593999997E+02  0.45594000000E+02  0.51100000000E-03 0. -1.
    9900012    2    1    2    0    0 -0.10582902402E+01 -0.22011731543E+00 -0.47399412624E+00  0.90007703301E+02  0.89999964185E+02 0.  0.
        -12    1    1    2    0    0  0.10582902402E+01  0.22011731543E+00  0.47399412624E+00  0.11802966986E+01  0.00000000000E+00 0.  1.
         11    1    3    3    0    0  0.29858499210E+02  0.27337601109E+01 -0.20694159046E+02  0.36431464949E+02  0.51100000000E-03 0. -1.
        -11    1    3    3    0    0  0.12306559199E+01  0.67507444223E+01 -0.74031388043E+01  0.10094232446E+02  0.51100000000E-03 0.  1.
        -12    1    3    3    0    0 -0.32147445370E+02 -0.97046218486E+01  0.27623303724E+02  0.43482005907E+02  0.00000000000E+00 0.  1.
</event>
<event>
 7    1  0.2405891E-015  0.9000785E+02  0.7816164E-02  0.1186339E+00
        -11   -1    0    0    0    0  0.00000000000E+00  0.00000000000E+00  0.45593999997E+02  0.45594000000E+02  0.51100000000E-03 0.  1.
         11   -1    0    0    0    0 -0.00000000000E+00 -0.00000000000E+00 -0.45593999997E+02  0.45594000000E+02  0.51100000000E-03 0. -1.
    9900012    2    1    2    0    0 -0.54837637284E+00 -0.30889921861E+00 -0.99831227987E+00  0.90007846289E+02  0.90000109060E+02 0.  0.
        -12    1    1    2    0    0  0.54837637284E+00  0.30889921861E+00  0.99831227987E+00  0.11801537110E+01  0.00000000000E+00 0.  1.
         11    1    3    3    0    0 -0.59476839060E+01  0.93922154089E+01 -0.13244396945E+01  0.11195659646E+02  0.51100000000E-03 0. -1.
        -11    1    3    3    0    0  0.25029799223E+02  0.26458738895E+02  0.71171036320E+01  0.37110764980E+02  0.51100000000E-03 0.  1.
         12    1    3    3    0    0 -0.19630491690E+02 -0.36159853522E+02 -0.67909762174E+01  0.41701421663E+02  0.00000000000E+00 0. -1.
</event>
<event>
 7    1  0.2405891E-015  0.9000756E+02  0.7816164E-02  0.1186339E+00
        -11   -1    0    0    0    0  0.00000000000E+00  0.00000000000E+00  0.45593999997E+02  0.45594000000E+02  0.51100000000E-03 0. -1.
         11   -1    0    0    0    0 -0.00000000000E+00 -0.00000000000E+00 -0.45593999997E+02  0.45594000000E+02  0.51100000000E-03 0.  1.
    9900012    2    1    2    0    0  0.18660179535E+00  0.73529271110E+00  0.90440900590E+00  0.90007563110E+02  0.89999822143E+02 0.  0.
        -12    1    1    2    0    0 -0.18660179535E+00 -0.73529271110E+00 -0.90440900590E+00  0.11804368899E+01  0.00000000000E+00 0.  1.
         11    1    3    3    0    0  0.16955824365E+02  0.10407139453E+02 -0.84716945275E+01  0.21623555210E+02  0.51100000000E-03 0.  1.
        -11    1    3    3    0    0 -0.11864961531E+02  0.50502910011E+01  0.35627466344E+02  0.37889300728E+02  0.51100000000E-03 0. -1.
         12    1    3    3    0    0 -0.49042610393E+01 -0.14722137743E+02 -0.26251362811E+02  0.30494707172E+02  0.00000000000E+00 0. -1.
</event>
<event>
 7    1  0.2405891E-015  0.9000779E+02  0.7816164E-02  0.1186339E+00
        -11   -1    0    0    0    0  0.00000000000E+00  0.00000000000E+00  0.45593999997E+02  0.45594000000E+02  0.51100000000E-03 0.  1.
         11   -1    0    0    0    0 -0.00000000000E+00 -0.00000000000E+00 -0.45593999997E+02  0.45594000000E+02  0.51100000000E-03 0. -1.
    9900012    2    1    2    0    0  0.11404109644E+01  0.11301765093E+00  0.28212360111E+00  0.90007786509E+02  0.90000048491E+02 0.  0.
        -12    1    1    2    0    0 -0.11404109644E+01 -0.11301765093E+00 -0.28212360111E+00  0.11802134906E+01  0.00000000000E+00 0.  1.
         11    1    3    3    0    0 -0.27028811479E+02 -0.25225332835E+02 -0.16762865609E+02  0.40593937113E+02  0.51100000000E-03 0. -1.
        -11    1    3    3    0    0 -0.33878607392E+01  0.57878721766E+01  0.93431502884E+01  0.11500935714E+02  0.51100000000E-03 0.  1.
        -12    1    3    3    0    0  0.31557083183E+02  0.19550478309E+02  0.77018389216E+01  0.37912913683E+02  0.00000000000E+00 0.  1.
</event>
<event>
 7    1  0.2405891E-015  0.9000773E+02  0.7816164E-02  0.1186339E+00
        -11   -1    0    0    0    0  0.00000000000E+00  0.00000000000E+00  0.45593999997E+02  0.45594000000E+02  0.51100000000E-03 0. -1.
         11   -1    0    0    0    0 -0.00000000000E+00 -0.00000000000E+00 -0.45593999997E+02  0.45594000000E+02  0.51100000000E-03 0.  1.
    9900012    2    1    2    0    0 -0.45820389305E+00 -0.34043148273E-01  0.10871681508E+01  0.90007727010E+02  0.89999988206E+02 0.  0.
        -12    1    1    2    0    0  0.45820389305E+00  0.34043148273E-01 -0.10871681508E+01  0.11802729903E+01  0.00000000000E+00 0.  1.
         11    1    3    3    0    0  0.36220845403E+01  0.31340747425E+02  0.26461737321E+02  0.41177487634E+02  0.51100000000E-03 0. -1.
        -11    1    3    3    0    0 -0.60656483893E+01  0.32414879634E+01 -0.59055806628E+01  0.90650547613E+01  0.51100000000E-03 0.  1.
        -12    1    3    3    0    0  0.19853599559E+01 -0.34616278537E+02 -0.19468988507E+02  0.39765184614E+02  0.00000000000E+00 0.  1.
</event>
<event>
 7    1  0.2405891E-015  0.9000767E+02  0.7816164E-02  0.1186339E+00
        -11   -1    0    0    0    0  0.00000000000E+00  0.00000000000E+00  0.45593999997E+02  0.45594000000E+02  0.51100000000E-03 0.  1.
         11   -1    0    0    0    0 -0.00000000000E+00 -0.00000000000E+00 -0.45593999997E+02  0.45594000000E+02  0.51100000000E-03 0. -1.
    9900012    2    1    2    0    0 -0.10624973225E+01 -0.20306896375E+00 -0.47227304460E+00  0.90007669795E+02  0.89999930236E+02 0.  0.
        -12    1    1    2    0    0  0.10624973225E+01  0.20306896375E+00  0.47227304460E+00  0.11803302051E+01  0.00000000000E+00 0.  1.
         11    1    3    3    0    0 -0.14552303043E+01 -0.44675595202E+01  0.10264507960E+02  0.11288795650E+02  0.51100000000E-03 0. -1.
        -11    1    3    3    0    0 -0.71625351803E+01 -0.16209559518E+02  0.28651298942E+02  0.33688999113E+02  0.51100000000E-03 0.  1.
         12    1    3    3    0    0  0.75552681621E+01  0.20474050074E+02 -0.39388079947E+02  0.45029875031E+02  0.00000000000E+00 0. -1.
</event>
<event>
 7    1  0.2405891E-015  0.9000822E+02  0.7816164E-02  0.1186338E+00
        -11   -1    0    0    0    0  0.00000000000E+00  0.00000000000E+00  0.45593999997E+02  0.45594000000E+02  0.51100000000E-03 0.  1.
         11   -1    0    0    0    0 -0.00000000000E+00 -0.00000000000E+00 -0.45593999997E+02  0.45594000000E+02  0.51100000000E-03 0. -1.
    9900012    2    1    2    0    0  0.10456369301E+00 -0.11708773211E+01 -0.99969787269E-01  0.90008219840E+02  0.90000487541E+02 0.  0.
        -12    1    1    2    0    0 -0.10456369301E+00  0.11708773211E+01  0.99969787269E-01  0.11797801597E+01  0.00000000000E+00 0.  1.
         11    1    3    3    0    0 -0.94444579828E+00 -0.11022421192E+02 -0.18159501954E+01  0.11210861794E+02  0.51100000000E-03 0. -1.
        -11    1    3    3    0    0 -0.30809863098E+02 -0.13728598873E+02  0.15109381249E+02  0.36959646821E+02  0.51100000000E-03 0.  1.
         12    1    3    3    0    0  0.31858872589E+02  0.23580142744E+02 -0.13393400841E+02  0.41837711225E+02  0.00000000000E+00 0. -1.
</event>
<event>
 7    1  0.2405891E-015  0.9000781E+02  0.7816164E-02  0.1186339E+00
        -11   -1    0    0    0    0  0.00000000000E+00  0.00000000000E+00  0.45593999997E+02  0.45594000000E+02  0.51100000000E-03 0.  1.
         11   -1    0    0    0    0 -0.00000000000E+00 -0.00000000000E+00 -0.45593999997E+02  0.45594000000E+02  0.51100000000E-03 0. -1.
    9900012    2    1    2    0    0 -0.59604825703E+00 -0.10116942154E+01 -0.11852369068E+00  0.90007810788E+02  0.90000073091E+02 0.  0.
        -12    1    1    2    0    0  0.59604825703E+00  0.10116942154E+01  0.11852369068E+00  0.11801892117E+01  0.00000000000E+00 0.  1.
         11    1    3    3    0    0 -0.19601777381E+02  0.23055481674E+02 -0.14786549740E+02  0.33681255398E+02  0.51100000000E-03 0. -1.
        -11    1    3    3    0    0 -0.17203523379E+01  0.10348407207E+01 -0.13274769401E+02  0.13425721969E+02  0.51100000000E-03 0.  1.
        -12    1    3    3    0    0  0.20726081462E+02 -0.25102016610E+02  0.27942795450E+02  0.42900833421E+02  0.00000000000E+00 0.  1.
</event>
<event>
 7    1  0.2405891E-015  0.9000774E+02  0.7816164E-02  0.1186339E+00
        -11   -1    0    0    0    0  0.00000000000E+00  0.00000000000E+00  0.45593999997E+02  0.45594000000E+02  0.51100000000E-03 0.  1.
         11   -1    0    0    0    0 -0.00000000000E+00 -0.00000000000E+00 -0.45593999997E+02  0.45594000000E+02  0.51100000000E-03 0. -1.
    9900012    2    1    2    0    0 -0.69564427469E+00 -0.84870572614E+00 -0.43450085099E+00  0.90007740132E+02  0.90000001502E+02 0.  0.
        -12    1    1    2    0    0  0.69564427469E+00  0.84870572614E+00  0.43450085099E+00  0.11802598680E+01  0.00000000000E+00 0.  1.
         11    1    3    3    0    0  0.21723970965E+01  0.38013636175E+01  0.61200099196E+01  0.75249050608E+01  0.51100000000E-03 0. -1.
        -11    1    3    3    0    0  0.11885461665E+02 -0.39145718728E+02  0.89656959463E+01  0.41881203394E+02  0.51100000000E-03 0.  1.
         12    1    3    3    0    0 -0.14753503037E+02  0.34495649384E+02 -0.15520206717E+02  0.40601631677E+02  0.00000000000E+00 0. -1.
</event>
<event>
 7    1  0.2405891E-015  0.9000773E+02  0.7816164E-02  0.1186339E+00
        -11   -1    0    0    0    0  0.00000000000E+00  0.00000000000E+00  0.45593999997E+02  0.45594000000E+02  0.51100000000E-03 0.  1.
         11   -1    0    0    0    0 -0.00000000000E+00 -0.00000000000E+00 -0.45593999997E+02  0.45594000000E+02  0.51100000000E-03 0. -1.
    9900012    2    1    2    0    0 -0.41121327390E+00 -0.90050835530E+00 -0.64266572597E+00  0.90007732704E+02  0.89999993976E+02 0.  0.
        -12    1    1    2    0    0  0.41121327390E+00  0.90050835530E+00  0.64266572597E+00  0.11802672960E+01  0.00000000000E+00 0.  1.
         11    1    3    3    0    0 -0.12825515898E+02 -0.38029110349E+02  0.65431762153E+01  0.40663500184E+02  0.51100000000E-03 0. -1.
        -11    1    3    3    0    0 -0.41375398302E+01  0.57528948983E+00 -0.82027697584E+01  0.92051955880E+01  0.51100000000E-03 0.  1.
        -12    1    3    3    0    0  0.16551842454E+02  0.36553312504E+02  0.10169278172E+01  0.40139036932E+02  0.00000000000E+00 0.  1.
</event>
<event>
 7    1  0.2412217E-015  0.9000776E+02  0.7816164E-02  0.1186339E+00
        -11   -1    0    0    0    0  0.00000000000E+00  0.00000000000E+00  0.45593999997E+02  0.45594000000E+02  0.51100000000E-03 0. -1.
         11   -1    0    0    0    0 -0.00000000000E+00 -0.00000000000E+00 -0.45593999997E+02  0.45594000000E+02  0.51100000000E-03 0.  1.
    9900012    2    1    2    0    0  0.12265866418E+00  0.10475490511E+01  0.52967352993E+00  0.90007763494E+02  0.90000025172E+02 0.  0.
        -12    1    1    2    0    0 -0.12265866418E+00 -0.10475490511E+01 -0.52967352993E+00  0.11802365063E+01  0.00000000000E+00 0.  1.
         11    1    3    3    0    0 -0.85138919971E+01 -0.26033397678E+01 -0.25478585314E+01  0.92604167423E+01  0.51100000000E-03 0. -1.
        -11    1    3    3    0    0 -0.12412417265E+02 -0.91569433318E+01 -0.33364452598E+02  0.36757372199E+02  0.51100000000E-03 0.  1.
         12    1    3    3    0    0  0.21048967926E+02  0.12807832151E+02  0.36441984660E+02  0.43989974552E+02  0.00000000000E+00 0. -1.
</event>
<event>
 7    1  0.2405891E-015  0.9000767E+02  0.7816164E-02  0.1186339E+00
        -11   -1    0    0    0    0  0.00000000000E+00  0.00000000000E+00  0.45593999997E+02  0.45594000000E+02  0.51100000000E-03 0.  1.
         11   -1    0    0    0    0 -0.00000000000E+00 -0.00000000000E+00 -0.45593999997E+02  0.45594000000E+02  0.51100000000E-03 0. -1.
    9900012    2    1    2    0    0  0.12102903515E+00 -0.10985986662E+01  0.41425952524E+00  0.90007670380E+02  0.89999930829E+02 0.  0.
        -12    1    1    2    0    0 -0.12102903515E+00  0.10985986662E+01 -0.41425952524E+00  0.11803296197E+01  0.00000000000E+00 0.  1.
         11    1    3    3    0    0 -0.67381745299E+01 -0.44365428203E+01 -0.20795692105E+01  0.83312974112E+01  0.51100000000E-03 0. -1.
        -11    1    3    3    0    0 -0.35289192215E+02  0.11233170087E+02 -0.71647112549E+01  0.37720608227E+02  0.51100000000E-03 0.  1.
         12    1    3    3    0    0  0.42148395780E+02 -0.78952259327E+01  0.96585399907E+01  0.43955764742E+02  0.00000000000E+00 0. -1.
</event>
<event>
 7    1  0.2405891E-015  0.9000772E+02  0.7816164E-02  0.1186339E+00
        -11   -1    0    0    0    0  0.00000000000E+00  0.00000000000E+00  0.45593999997E+02  0.45594000000E+02  0.51100000000E-03 0.  1.
         11   -1    0    0    0    0 -0.00000000000E+00 -0.00000000000E+00 -0.45593999997E+02  0.45594000000E+02  0.51100000000E-03 0. -1.
    9900012    2    1    2    0    0 -0.10369927272E+01 -0.30475138420E+00  0.47417362473E+00  0.90007717005E+02  0.89999978069E+02 0.  0.
        -12    1    1    2    0    0  0.10369927272E+01  0.30475138420E+00 -0.47417362473E+00  0.11802829952E+01  0.00000000000E+00 0.  1.
         11    1    3    3    0    0  0.46792549969E+01  0.18124404266E+02 -0.16257989741E+02  0.24793379923E+02  0.51100000000E-03 0. -1.
        -11    1    3    3    0    0 -0.31565012108E+02 -0.18633094910E+02  0.56413284029E+01  0.37085938059E+02  0.51100000000E-03 0.  1.
         12    1    3    3    0    0  0.25848764384E+02  0.20393925972E+00  0.11090834963E+02  0.28128399023E+02  0.00000000000E+00 0. -1.
</event>
<event>
 7    1  0.2405891E-015  0.9000790E+02  0.7816164E-02  0.1186339E+00
        -11   -1    0    0    0    0  0.00000000000E+00  0.00000000000E+00  0.45593999997E+02  0.45594000000E+02  0.51100000000E-03 0. -1.
         11   -1    0    0    0    0 -0.00000000000E+00 -0.00000000000E+00 -0.45593999997E+02  0.45594000000E+02  0.51100000000E-03 0.  1.
    9900012    2    1    2    0    0 -0.53209664687E+00  0.97315616222E+00  0.40309035233E+00  0.90007897636E+02  0.90000161085E+02 0.  0.
        -12    1    1    2    0    0  0.53209664687E+00 -0.97315616222E+00 -0.40309035233E+00  0.11801023641E+01  0.00000000000E+00 0.  1.
         11    1    3    3    0    0 -0.66178216796E+01 -0.81719869279E+00  0.58234452464E+01  0.88530159994E+01  0.51100000000E-03 0. -1.
        -11    1    3    3    0    0 -0.18338792209E+02  0.34690767341E+02  0.28865311046E+01  0.39345809185E+02  0.51100000000E-03 0.  1.
         12    1    3    3    0    0  0.24424517241E+02 -0.32900412486E+02 -0.83068859987E+01  0.41809072451E+02  0.00000000000E+00 0. -1.
</event>
<event>
 7    1  0.2405891E-015  0.9000781E+02  0.7816164E-02  0.1186339E+00
        -11   -1    0    0    0    0  0.00000000000E+00  0.00000000000E+00  0.45593999997E+02  0.45594000000E+02  0.51100000000E-03 0.  1.
         11   -1    0    0    0    0 -0.00000000000E+00 -0.00000000000E+00 -0.45593999997E+02  0.45594000000E+02  0.51100000000E-03 0. -1.
    9900012    2    1    2    0    0 -0.10026837178E+01  0.16155167853E+00 -0.60115369821E+00  0.90007805376E+02  0.90000067606E+02 0.  0.
        -12    1    1    2    0    0  0.10026837178E+01 -0.16155167853E+00  0.60115369821E+00  0.11801946244E+01  0.00000000000E+00 0.  1.
         11    1    3    3    0    0 -0.12029598531E+02  0.13495365156E+02 -0.32808279333E+02  0.37459569066E+02  0.51100000000E-03 0. -1.
        -11    1    3    3    0    0 -0.48147477416E+00  0.95653481752E+01 -0.20213150661E+01  0.97884328944E+01  0.51100000000E-03 0.  1.
        -12    1    3    3    0    0  0.11508389588E+02 -0.22899161652E+02  0.34228440701E+02  0.42759803415E+02  0.00000000000E+00 0.  1.
</event>
<event>
 7    1  0.2405891E-015  0.9000774E+02  0.7816164E-02  0.1186339E+00
        -11   -1    0    0    0    0  0.00000000000E+00  0.00000000000E+00  0.45593999997E+02  0.45594000000E+02  0.51100000000E-03 0.  1.
         11   -1    0    0    0    0 -0.00000000000E+00 -0.00000000000E+00 -0.45593999997E+02  0.45594000000E+02  0.51100000000E-03 0. -1.
    9900012    2    1    2    0    0 -0.39139317878E+00 -0.10644368576E+01  0.32681001425E+00  0.90007737644E+02  0.89999998981E+02 0.  0.
        -12    1    1    2    0    0  0.39139317878E+00  0.10644368576E+01 -0.32681001425E+00  0.11802623563E+01  0.00000000000E+00 0.  1.
         11    1    3    3    0    0  0.25922844428E+02  0.25754971086E+02 -0.22343860028E+02  0.42831769518E+02  0.51100000000E-03 0. -1.
        -11    1    3    3    0    0  0.61949440961E+00 -0.21907225413E+01  0.71724214861E+01  0.75250693560E+01  0.51100000000E-03 0.  1.
        -12    1    3    3    0    0 -0.26933732016E+02 -0.24628685402E+02  0.15498248556E+02  0.39650898770E+02  0.00000000000E+00 0.  1.
</event>
<event>
 7    1  0.2405891E-015  0.9000782E+02  0.7816164E-02  0.1186339E+00
        -11   -1    0    0    0    0  0.00000000000E+00  0.00000000000E+00  0.45593999997E+02  0.45594000000E+02  0.51100000000E-03 0. -1.
         11   -1    0    0    0    0 -0.00000000000E+00 -0.00000000000E+00 -0.45593999997E+02  0.45594000000E+02  0.51100000000E-03 0.  1.
    9900012    2    1    2    0    0 -0.91657930549E+00  0.44832634937E+00  0.59305695414E+00  0.90007817519E+02  0.90000079910E+02 0.  0.
        -12    1    1    2    0    0  0.91657930549E+00 -0.44832634937E+00 -0.59305695414E+00  0.11801824815E+01  0.00000000000E+00 0.  1.
         11    1    3    3    0    0  0.16185181277E+02  0.27784455883E+02  0.25562547172E+02  0.41077729975E+02  0.51100000000E-03 0. -1.
        -11    1    3    3    0    0 -0.46841517558E+01  0.41485155347E+01  0.91220486498E+00  0.63232568183E+01  0.51100000000E-03 0.  1.
        -12    1    3    3    0    0 -0.12417608826E+02 -0.31484645069E+02 -0.25881695083E+02  0.42606830725E+02  0.00000000000E+00 0.  1.
</event>
<event>
 7    1  0.2405891E-015  0.9000769E+02  0.7816164E-02  0.1186339E+00
        -11   -1    0    0    0    0  0.00000000000E+00  0.00000000000E+00  0.45593999997E+02  0.45594000000E+02  0.51100000000E-03 0. -1.
         11   -1    0    0    0    0 -0.00000000000E+00 -0.00000000000E+00 -0.45593999997E+02  0.45594000000E+02  0.51100000000E-03 0.  1.
    9900012    2    1    2    0    0 -0.77988196760E+00 -0.59970064774E+00  0.65213066187E+00  0.90007690231E+02  0.89999950942E+02 0.  0.
        -12    1    1    2    0    0  0.77988196760E+00  0.59970064774E+00 -0.65213066187E+00  0.11803097689E+01  0.00000000000E+00 0.  1.
         11    1    3    3    0    0  0.22016990125E+02 -0.17251352291E+02  0.22811123283E+02  0.36092995937E+02  0.51100000000E-03 0. -1.
        -11    1    3    3    0    0  0.39904293246E+01 -0.91284417597E+01  0.11588163600E+01  0.10029697442E+02  0.51100000000E-03 0.  1.
        -12    1    3    3    0    0 -0.26787301417E+02  0.25780093403E+02 -0.23317808981E+02  0.43884996852E+02  0.00000000000E+00 0.  1.
</event>
<event>
 7    1  0.2405891E-015  0.9000778E+02  0.7816164E-02  0.1186339E+00
        -11   -1    0    0    0    0  0.00000000000E+00  0.00000000000E+00  0.45593999997E+02  0.45594000000E+02  0.51100000000E-03 0.  1.
         11   -1    0    0    0    0 -0.00000000000E+00 -0.00000000000E+00 -0.45593999997E+02  0.45594000000E+02  0.51100000000E-03 0. -1.
    9900012    2    1    2    0    0  0.64820680691E+00 -0.15152256174E+00  0.97457359347E+00  0.90007777631E+02  0.90000039496E+02 0.  0.
        -12    1    1    2    0    0 -0.64820680691E+00  0.15152256174E+00 -0.97457359347E+00  0.11802223690E+01  0.00000000000E+00 0.  1.
         11    1    3    3    0    0  0.71905683014E+01  0.48260618979E+01  0.58272373318E+01  0.10437999862E+02  0.51100000000E-03 0. -1.
        -11    1    3    3    0    0 -0.15425484586E+02  0.85598620233E+01  0.33543248373E+02  0.37899423798E+02  0.51100000000E-03 0.  1.
         12    1    3    3    0    0  0.88831230912E+01 -0.13537446483E+02 -0.38395912112E+02  0.41670353970E+02  0.00000000000E+00 0. -1.
</event>
<event>
 7    1  0.2780917E-015  0.9000788E+02  0.7816164E-02  0.1186339E+00
        -11   -1    0    0    0    0  0.00000000000E+00  0.00000000000E+00  0.45593999997E+02  0.45594000000E+02  0.51100000000E-03 0.  1.
         11   -1    0    0    0    0 -0.00000000000E+00 -0.00000000000E+00 -0.45593999997E+02  0.45594000000E+02  0.51100000000E-03 0. -1.
    9900012    2    1    2    0    0 -0.10139539459E+01  0.45479818465E+00 -0.39715090935E+00  0.90007884396E+02  0.90000147670E+02 0.  0.
        -12    1    1    2    0    0  0.10139539459E+01 -0.45479818465E+00  0.39715090935E+00  0.11801156036E+01  0.00000000000E+00 0.  1.
         11    1    3    3    0    0 -0.47408206617E+01  0.76665290561E+01  0.39007872525E+01  0.98217712132E+01  0.51100000000E-03 0. -1.
        -11    1    3    3    0    0 -0.32940625195E+02  0.15867169868E+02  0.72328225413E+00  0.36570138164E+02  0.51100000000E-03 0.  1.
         12    1    3    3    0    0  0.36667491911E+02 -0.23078900739E+02 -0.50212204160E+01  0.43615975019E+02  0.00000000000E+00 0. -1.
</event>
<event>
 7    1  0.2405891E-015  0.9000765E+02  0.7816164E-02  0.1186339E+00
        -11   -1    0    0    0    0  0.00000000000E+00  0.00000000000E+00  0.45593999997E+02  0.45594000000E+02  0.51100000000E-03 0.  1.
         11   -1    0    0    0    0 -0.00000000000E+00 -0.00000000000E+00 -0.45593999997E+02  0.45594000000E+02  0.51100000000E-03 0. -1.
    9900012    2    1    2    0    0  0.41610737927E+00 -0.68153721155E+00 -0.86924333211E+00  0.90007651623E+02  0.89999911824E+02 0.  0.
        -12    1    1    2    0    0 -0.41610737927E+00  0.68153721155E+00  0.86924333211E+00  0.11803483775E+01  0.00000000000E+00 0.  1.
         11    1    3    3    0    0 -0.31476608619E+01 -0.68183150765E+01 -0.67119444558E+01  0.10072109413E+02  0.51100000000E-03 0. -1.
        -11    1    3    3    0    0  0.10245586393E+02 -0.31985658953E+02  0.19567115487E+02  0.38870637092E+02  0.51100000000E-03 0.  1.
         12    1    3    3    0    0 -0.66818181514E+01  0.38122436818E+02 -0.13724414363E+02  0.41064905118E+02  0.00000000000E+00 0. -1.
</event>
<event>
 7    1  0.2405891E-015  0.9000797E+02  0.7816164E-02  0.1186339E+00
        -11   -1    0    0    0    0  0.00000000000E+00  0.00000000000E+00  0.45593999997E+02  0.45594000000E+02  0.51100000000E-03 0.  1.
         11   -1    0    0    0    0 -0.00000000000E+00 -0.00000000000E+00 -0.45593999997E+02  0.45594000000E+02  0.51100000000E-03 0. -1.
    9900012    2    1    2    0    0 -0.10848443142E+01  0.35963472879E+00 -0.29367314729E+00  0.90007971084E+02  0.90000235502E+02 0.  0.
        -12    1    1    2    0    0  0.10848443142E+01 -0.35963472879E+00  0.29367314729E+00  0.11800289156E+01  0.00000000000E+00 0.  1.
         11    1    3    3    0    0  0.55543005227E+01  0.43335135969E+01 -0.32538218979E+01  0.77599582212E+01  0.51100000000E-03 0. -1.
        -11    1    3    3    0    0  0.11257339516E+02  0.29214371609E+02  0.23651574864E+02  0.39237790398E+02  0.51100000000E-03 0.  1.
         12    1    3    3    0    0 -0.17896484352E+02 -0.33188250477E+02 -0.20691426114E+02  0.43010222465E+02  0.00000000000E+00 0. -1.
</event>
<event>
 7    1  0.2405891E-015  0.9000774E+02  0.7816164E-02  0.1186339E+00
        -11   -1    0    0    0    0  0.00000000000E+00  0.00000000000E+00  0.45593999997E+02  0.45594000000E+02  0.51100000000E-03 0. -1.
         11   -1    0    0    0    0 -0.00000000000E+00 -0.00000000000E+00 -0.45593999997E+02  0.45594000000E+02  0.51100000000E-03 0.  1.
    9900012    2    1    2    0    0  0.88900872106E+00  0.65029681256E+00 -0.42401956548E+00  0.90007739418E+02  0.90000000778E+02 0.  0.
        -12    1    1    2    0    0 -0.88900872106E+00 -0.65029681256E+00  0.42401956548E+00  0.11802605824E+01  0.00000000000E+00 0.  1.
         11    1    3    3    0    0 -0.13477299541E+02 -0.20819081576E+02  0.29035760179E+02  0.38185692740E+02  0.51100000000E-03 0. -1.
        -11    1    3    3    0    0 -0.53621892996E+01  0.40975801045E+01  0.50586779797E+01  0.84340654468E+01  0.51100000000E-03 0.  1.
        -12    1    3    3    0    0  0.19728497562E+02  0.17371798284E+02 -0.34518457724E+02  0.43387981231E+02  0.00000000000E+00 0.  1.
</event>
<event>
 7    1  0.2405891E-015  0.9000777E+02  0.7816164E-02  0.1186339E+00
        -11   -1    0    0    0    0  0.00000000000E+00  0.00000000000E+00  0.45593999997E+02  0.45594000000E+02  0.51100000000E-03 0.  1.
         11   -1    0    0    0    0 -0.00000000000E+00 -0.00000000000E+00 -0.45593999997E+02  0.45594000000E+02  0.51100000000E-03 0. -1.
    9900012    2    1    2    0    0 -0.91185308246E+00  0.55908539547E+00 -0.49888011292E+00  0.90007773797E+02  0.90000035611E+02 0.  0.
        -12    1    1    2    0    0  0.91185308246E+00 -0.55908539547E+00  0.49888011292E+00  0.11802262031E+01  0.00000000000E+00 0.  1.
         11    1    3    3    0    0 -0.29145315955E+01  0.70737737364E+01  0.69848730024E+01  0.10359595572E+02  0.51100000000E-03 0. -1.
        -11    1    3    3    0    0  0.92470035903E+01 -0.12347805115E+02  0.33893212519E+02  0.37238759669E+02  0.51100000000E-03 0.  1.
         12    1    3    3    0    0 -0.72443250772E+01  0.58331167742E+01 -0.41376965634E+02  0.42409418556E+02  0.00000000000E+00 0. -1.
</event>
<event>
 7    1  0.2405891E-015  0.9000766E+02  0.7816164E-02  0.1186339E+00
        -11   -1    0    0    0    0  0.00000000000E+00  0.00000000000E+00  0.45593999997E+02  0.45594000000E+02  0.51100000000E-03 0.  1.
         11   -1    0    0    0    0 -0.00000000000E+00 -0.00000000000E+00 -0.45593999997E+02  0.45594000000E+02  0.51100000000E-03 0. -1.
    9900012    2    1    2    0    0 -0.65970238772E+00  0.32617540475E+00 -0.92282464648E+00  0.90007659810E+02  0.89999920120E+02 0.  0.
        -12    1    1    2    0    0  0.65970238772E+00 -0.32617540475E+00  0.92282464648E+00  0.11803401896E+01  0.00000000000E+00 0.  1.
         11    1    3    3    0    0 -0.14998841696E+02  0.85513723372E+01 -0.12021534537E+01  0.17307119756E+02  0.51100000000E-03 0. -1.
        -11    1    3    3    0    0 -0.28550265653E+02 -0.46135101922E+01  0.51813292275E+01  0.29381087760E+02  0.51100000000E-03 0.  1.
         12    1    3    3    0    0  0.42889404961E+02 -0.36116867402E+01 -0.49020004204E+01  0.43319452295E+02  0.00000000000E+00 0. -1.
</event>
<event>
 7    1  0.2405891E-015  0.9000776E+02  0.7816164E-02  0.1186339E+00
        -11   -1    0    0    0    0  0.00000000000E+00  0.00000000000E+00  0.45593999997E+02  0.45594000000E+02  0.51100000000E-03 0.  1.
         11   -1    0    0    0    0 -0.00000000000E+00 -0.00000000000E+00 -0.45593999997E+02  0.45594000000E+02  0.51100000000E-03 0. -1.
    9900012    2    1    2    0    0 -0.89677909996E-01 -0.39632727887E+00 -0.11080801343E+01  0.90007763149E+02  0.90000024823E+02 0.  0.
        -12    1    1    2    0    0  0.89677909996E-01  0.39632727887E+00  0.11080801343E+01  0.11802368506E+01  0.00000000000E+00 0.  1.
         11    1    3    3    0    0 -0.29491589234E+02 -0.13364582835E+02 -0.97995656738E+01  0.33828943193E+02  0.51100000000E-03 0. -1.
        -11    1    3    3    0    0 -0.11321517408E+02  0.25165544273E+01 -0.39894244066E+01  0.12264799629E+02  0.51100000000E-03 0.  1.
        -12    1    3    3    0    0  0.40723428732E+02  0.10451701129E+02  0.12680909946E+02  0.43914020326E+02  0.00000000000E+00 0.  1.
</event>
<event>
 7    1  0.2405891E-015  0.9000776E+02  0.7816164E-02  0.1186339E+00
        -11   -1    0    0    0    0  0.00000000000E+00  0.00000000000E+00  0.45593999997E+02  0.45594000000E+02  0.51100000000E-03 0. -1.
         11   -1    0    0    0    0 -0.00000000000E+00 -0.00000000000E+00 -0.45593999997E+02  0.45594000000E+02  0.51100000000E-03 0.  1.
    9900012    2    1    2    0    0  0.10910994982E+01 -0.44600415223E+00 -0.59553577523E-01  0.90007760852E+02  0.90000022495E+02 0.  0.
        -12    1    1    2    0    0 -0.10910994982E+01  0.44600415223E+00  0.59553577523E-01  0.11802391484E+01  0.00000000000E+00 0.  1.
         11    1    3    3    0    0  0.35574391033E+02  0.33425914560E+01  0.11024282184E+02  0.37393114512E+02  0.51100000000E-03 0. -1.
        -11    1    3    3    0    0  0.75307212507E+01 -0.50523661233E+01  0.27909779743E+00  0.90728199498E+01  0.51100000000E-03 0.  1.
        -12    1    3    3    0    0 -0.42014012785E+02  0.12637705150E+01 -0.11362933559E+02  0.43541826389E+02  0.00000000000E+00 0.  1.
</event>
<event>
 7    1  0.2405891E-015  0.9000772E+02  0.7816164E-02  0.1186339E+00
        -11   -1    0    0    0    0  0.00000000000E+00  0.00000000000E+00  0.45593999997E+02  0.45594000000E+02  0.51100000000E-03 0.  1.
         11   -1    0    0    0    0 -0.00000000000E+00 -0.00000000000E+00 -0.45593999997E+02  0.45594000000E+02  0.51100000000E-03 0. -1.
    9900012    2    1    2    0    0  0.50583917375E+00 -0.10138114924E+01 -0.33070112345E+00  0.90007724505E+02  0.89999985668E+02 0.  0.
        -12    1    1    2    0    0 -0.50583917375E+00  0.10138114924E+01  0.33070112345E+00  0.11802754954E+01  0.00000000000E+00 0.  1.
         11    1    3    3    0    0  0.31907003598E+02 -0.29499090385E+02 -0.17366284623E+01  0.43488723720E+02  0.51100000000E-03 0. -1.
        -11    1    3    3    0    0 -0.12471466823E+02  0.78138018321E+00 -0.24850281764E+01  0.12740620275E+02  0.51100000000E-03 0.  1.
        -12    1    3    3    0    0 -0.18929697601E+02  0.27703898710E+02  0.38909555152E+01  0.33778380509E+02  0.00000000000E+00 0.  1.
</event>
<event>
 7    1  0.2405891E-015  0.9000774E+02  0.7816164E-02  0.1186339E+00
        -11   -1    0    0    0    0  0.00000000000E+00  0.00000000000E+00  0.45593999997E+02  0.45594000000E+02  0.51100000000E-03 0.  1.
         11   -1    0    0    0    0 -0.00000000000E+00 -0.00000000000E+00 -0.45593999997E+02  0.45594000000E+02  0.51100000000E-03 0. -1.
    9900012    2    1    2    0    0 -0.11056963790E+01 -0.30252165483E+00 -0.28092425823E+00  0.90007744827E+02  0.90000006259E+02 0.  0.
        -12    1    1    2    0    0  0.11056963790E+01  0.30252165483E+00  0.28092425823E+00  0.11802551729E+01  0.00000000000E+00 0.  1.
         11    1    3    3    0    0 -0.52134256733E+01  0.69425110062E+01  0.42360763443E+01  0.96603627974E+01  0.51100000000E-03 0. -1.
        -11    1    3    3    0    0 -0.10518023407E+02 -0.91861588068E+01  0.35258703667E+02  0.37923482363E+02  0.51100000000E-03 0.  1.
         12    1    3    3    0    0  0.14625752702E+02  0.19411261459E+01 -0.39775704269E+02  0.42423899667E+02  0.00000000000E+00 0. -1.
</event>
<event>
 7    1  0.2405891E-015  0.9000777E+02  0.7816164E-02  0.1186339E+00
        -11   -1    0    0    0    0  0.00000000000E+00  0.00000000000E+00  0.45593999997E+02  0.45594000000E+02  0.51100000000E-03 0.  1.
         11   -1    0    0    0    0 -0.00000000000E+00 -0.00000000000E+00 -0.45593999997E+02  0.45594000000E+02  0.51100000000E-03 0. -1.
    9900012    2    1    2    0    0 -0.81961683148E+00  0.51325657460E+00 -0.67656437452E+00  0.90007769762E+02  0.90000031523E+02 0.  0.
        -12    1    1    2    0    0  0.81961683148E+00 -0.51325657460E+00  0.67656437452E+00  0.11802302380E+01  0.00000000000E+00 0.  1.
         11    1    3    3    0    0  0.85634743724E+01 -0.25831617097E+02 -0.30972081555E+02  0.41229544883E+02  0.51100000000E-03 0. -1.
        -11    1    3    3    0    0 -0.53478372363E+01 -0.44345005330E+01  0.35438978763E+01  0.77989339336E+01  0.51100000000E-03 0.  1.
        -12    1    3    3    0    0 -0.40352539676E+01  0.30779374204E+02  0.26751619304E+02  0.40979290945E+02  0.00000000000E+00 0.  1.
</event>
<event>
 7    1  0.2405891E-015  0.9000752E+02  0.7816164E-02  0.1186339E+00
        -11   -1    0    0    0    0  0.00000000000E+00  0.00000000000E+00  0.45593999997E+02  0.45594000000E+02  0.51100000000E-03 0. -1.
         11   -1    0    0    0    0 -0.00000000000E+00 -0.00000000000E+00 -0.45593999997E+02  0.45594000000E+02  0.51100000000E-03 0.  1.
    9900012    2    1    2    0    0  0.67834386822E+00 -0.87912624909E+00  0.40065946674E+00  0.90007516466E+02  0.89999774883E+02 0.  0.
        -12    1    1    2    0    0 -0.67834386822E+00  0.87912624909E+00 -0.40065946674E+00  0.11804835338E+01  0.00000000000E+00 0.  1.
         11    1    3    3    0    0 -0.54064874919E+01  0.13639836541E+02  0.40342773257E+02  0.42928016518E+02  0.51100000000E-03 0. -1.
        -11    1    3    3    0    0  0.71438818484E+01 -0.38275538189E+01 -0.30577741186E+01  0.86622860101E+01  0.51100000000E-03 0.  1.
        -12    1    3    3    0    0 -0.10590504883E+01 -0.10691408971E+02 -0.36884339672E+02  0.38417213938E+02  0.00000000000E+00 0.  1.
</event>
<event>
 7    1  0.2405891E-015  0.9000792E+02  0.7816164E-02  0.1186339E+00
        -11   -1    0    0    0    0  0.00000000000E+00  0.00000000000E+00  0.45593999997E+02  0.45594000000E+02  0.51100000000E-03 0.  1.
         11   -1    0    0    0    0 -0.00000000000E+00 -0.00000000000E+00 -0.45593999997E+02  0.45594000000E+02  0.51100000000E-03 0. -1.
    9900012    2    1    2    0    0  0.10995191277E+01 -0.98738301692E-01 -0.41702095211E+00  0.90007916088E+02  0.90000179780E+02 0.  0.
        -12    1    1    2    0    0 -0.10995191277E+01  0.98738301692E-01  0.41702095211E+00  0.11800839118E+01  0.00000000000E+00 0.  1.
         11    1    3    3    0    0  0.19530726426E+02  0.34340804783E+02 -0.13914887074E+02  0.41885131376E+02  0.51100000000E-03 0. -1.
        -11    1    3    3    0    0 -0.82955270051E+01  0.18375078139E+01  0.31394392368E+01  0.90580506866E+01  0.51100000000E-03 0.  1.
        -12    1    3    3    0    0 -0.10135680293E+02 -0.36277050899E+02  0.10358426885E+02  0.39064734025E+02  0.00000000000E+00 0.  1.
</event>
<event>
 7    1  0.2405891E-015  0.9000772E+02  0.7816164E-02  0.1186339E+00
        -11   -1    0    0    0    0  0.00000000000E+00  0.00000000000E+00  0.45593999997E+02  0.45594000000E+02  0.51100000000E-03 0.  1.
         11   -1    0    0    0    0 -0.00000000000E+00 -0.00000000000E+00 -0.45593999997E+02  0.45594000000E+02  0.51100000000E-03 0. -1.
    9900012    2    1    2    0    0 -0.66561254048E+00 -0.97411082188E+00  0.33424843013E-01  0.90007724961E+02  0.89999986131E+02 0.  0.
        -12    1    1    2    0    0  0.66561254048E+00  0.97411082188E+00 -0.33424843013E-01  0.11802750389E+01  0.00000000000E+00 0.  1.
         11    1    3    3    0    0 -0.35957491433E+01  0.77078321670E+01  0.62894668262E+01  0.10578160607E+02  0.51100000000E-03 0. -1.
        -11    1    3    3    0    0  0.17902222652E+02  0.29869791547E+02  0.79153012983E+01  0.35711987033E+02  0.51100000000E-03 0.  1.
         12    1    3    3    0    0 -0.14972086049E+02 -0.38551734536E+02 -0.14171343281E+02  0.43717577321E+02  0.00000000000E+00 0. -1.
</event>
<event>
 7    1  0.2405891E-015  0.9000762E+02  0.7816164E-02  0.1186339E+00
        -11   -1    0    0    0    0  0.00000000000E+00  0.00000000000E+00  0.45593999997E+02  0.45594000000E+02  0.51100000000E-03 0. -1.
         11   -1    0    0    0    0 -0.00000000000E+00 -0.00000000000E+00 -0.45593999997E+02  0.45594000000E+02  0.51100000000E-03 0.  1.
    9900012    2    1    2    0    0 -0.50678878029E+00 -0.21482676517E+00  0.10441764950E+01  0.90007622959E+02  0.89999882782E+02 0.  0.
        -12    1    1    2    0    0  0.50678878029E+00  0.21482676517E+00 -0.10441764950E+01  0.11803770413E+01  0.00000000000E+00 0.  1.
         11    1    3    3    0    0  0.13168084321E+02  0.66567728979E+01  0.22305420881E+02  0.26744024960E+02  0.51100000000E-03 0. -1.
        -11    1    3    3    0    0  0.14382251789E+02 -0.20741306292E+01 -0.30128871548E+02  0.33449963908E+02  0.51100000000E-03 0.  1.
         12    1    3    3    0    0 -0.28057124890E+02 -0.47974690339E+01  0.88676271617E+01  0.29813634091E+02  0.00000000000E+00 0. -1.
</event>
<event>
 7    1  0.2405891E-015  0.9000765E+02  0.7816164E-02  0.1186339E+00
        -11   -1    0    0    0    0  0.00000000000E+00  0.00000000000E+00  0.45593999997E+02  0.45594000000E+02  0.51100000000E-03 0.  1.
         11   -1    0    0    0    0 -0.00000000000E+00 -0.00000000000E+00 -0.45593999997E+02  0.45594000000E+02  0.51100000000E-03 0. -1.
    9900012    2    1    2    0    0 -0.34885071795E+00  0.98440775625E+00  0.54997654864E+00  0.90007648502E+02  0.89999908663E+02 0.  0.
        -12    1    1    2    0    0  0.34885071795E+00 -0.98440775625E+00 -0.54997654864E+00  0.11803514977E+01  0.00000000000E+00 0.  1.
         11    1    3    3    0    0 -0.44684490267E+01 -0.13034822853E+01  0.91902702679E+01  0.10301804242E+02  0.51100000000E-03 0. -1.
        -11    1    3    3    0    0 -0.10932666263E+02 -0.62001248863E+01  0.32628326078E+02  0.34965302846E+02  0.51100000000E-03 0.  1.
         12    1    3    3    0    0  0.15052264572E+02  0.84880149278E+01 -0.41268619797E+02  0.44740541415E+02  0.00000000000E+00 0. -1.
</event>
<event>
 7    1  0.2405891E-015  0.9000775E+02  0.7816164E-02  0.1186339E+00
        -11   -1    0    0    0    0  0.00000000000E+00  0.00000000000E+00  0.45593999997E+02  0.45594000000E+02  0.51100000000E-03 0.  1.
         11   -1    0    0    0    0 -0.00000000000E+00 -0.00000000000E+00 -0.45593999997E+02  0.45594000000E+02  0.51100000000E-03 0. -1.
    9900012    2    1    2    0    0  0.50541210686E+00 -0.84388021689E+00 -0.65223081076E+00  0.90007754158E+02  0.90000015712E+02 0.  0.
        -12    1    1    2    0    0 -0.50541210686E+00  0.84388021689E+00  0.65223081076E+00  0.11802458425E+01  0.00000000000E+00 0.  1.
         11    1    3    3    0    0 -0.98644419766E+00  0.16954496011E+02  0.10585115814E+01  0.17016123360E+02  0.51100000000E-03 0. -1.
        -11    1    3    3    0    0  0.32481126177E+02 -0.64229788208E+01  0.14581824040E+02  0.36178830927E+02  0.51100000000E-03 0.  1.
         12    1    3    3    0    0 -0.30989269872E+02 -0.11375397408E+02 -0.16292566433E+02  0.36812799871E+02  0.00000000000E+00 0. -1.
</event>
<event>
 7    1  0.2405891E-015  0.9000762E+02  0.7816164E-02  0.1186339E+00
        -11   -1    0    0    0    0  0.00000000000E+00  0.00000000000E+00  0.45593999997E+02  0.45594000000E+02  0.51100000000E-03 0.  1.
         11   -1    0    0    0    0 -0.00000000000E+00 -0.00000000000E+00 -0.45593999997E+02  0.45594000000E+02  0.51100000000E-03 0. -1.
    9900012    2    1    2    0    0 -0.11260994260E+01 -0.31082430466E+00  0.16906713375E+00  0.90007620671E+02  0.89999880463E+02 0.  0.
        -12    1    1    2    0    0  0.11260994260E+01  0.31082430466E+00 -0.16906713375E+00  0.11803793294E+01  0.00000000000E+00 0.  1.
         11    1    3    3    0    0 -0.30880769363E+02 -0.58467204491E+01 -0.24486401663E+01  0.31524623636E+02  0.51100000000E-03 0.  1.
        -11    1    3    3    0    0  0.92801389376E+00 -0.13389362176E+02 -0.14691092158E+02  0.19898854698E+02  0.51100000000E-03 0. -1.
        -12    1    3    3    0    0  0.28826656044E+02  0.18925258320E+02  0.17308799458E+02  0.38584142336E+02  0.00000000000E+00 0.  1.
</event>
<event>
 7    1  0.2405891E-015  0.9000785E+02  0.7816164E-02  0.1186339E+00
        -11   -1    0    0    0    0  0.00000000000E+00  0.00000000000E+00  0.45593999997E+02  0.45594000000E+02  0.51100000000E-03 0.  1.
         11   -1    0    0    0    0 -0.00000000000E+00 -0.00000000000E+00 -0.45593999997E+02  0.45594000000E+02  0.51100000000E-03 0. -1.
    9900012    2    1    2    0    0  0.41945798657E+00  0.56732074908E-01 -0.11016310366E+01  0.90007849810E+02  0.90000112627E+02 0.  0.
        -12    1    1    2    0    0 -0.41945798657E+00 -0.56732074908E-01  0.11016310366E+01  0.11801501903E+01  0.00000000000E+00 0.  1.
         11    1    3    3    0    0 -0.95635471746E+01 -0.96248123938E+01 -0.34822374685E+02  0.37372399269E+02  0.51100000000E-03 0. -1.
        -11    1    3    3    0    0 -0.46402027053E+00 -0.49843178757E+01 -0.67127666835E+01  0.83737671514E+01  0.51100000000E-03 0.  1.
        -12    1    3    3    0    0  0.10447025432E+02  0.14665862344E+02  0.40433510332E+02  0.44261683389E+02  0.00000000000E+00 0.  1.
</event>
<event>
 7    1  0.2405891E-015  0.9000771E+02  0.7816164E-02  0.1186339E+00
        -11   -1    0    0    0    0  0.00000000000E+00  0.00000000000E+00  0.45593999997E+02  0.45594000000E+02  0.51100000000E-03 0. -1.
         11   -1    0    0    0    0 -0.00000000000E+00 -0.00000000000E+00 -0.45593999997E+02  0.45594000000E+02  0.51100000000E-03 0.  1.
    9900012    2    1    2    0    0 -0.18326903622E+00 -0.11144138896E+01 -0.34289799065E+00  0.90007709828E+02  0.89999970798E+02 0.  0.
        -12    1    1    2    0    0  0.18326903622E+00  0.11144138896E+01  0.34289799065E+00  0.11802901715E+01  0.00000000000E+00 0.  1.
         11    1    3    3    0    0  0.74088723172E+01  0.49988080154E+01 -0.54488018445E+01  0.10467517012E+02  0.51100000000E-03 0. -1.
        -11    1    3    3    0    0  0.34733544022E+02 -0.93792928525E+01  0.84517479339E+01  0.36957032594E+02  0.51100000000E-03 0.  1.
         12    1    3    3    0    0 -0.42325685376E+02  0.32660709475E+01 -0.33458440800E+01  0.42583160223E+02  0.00000000000E+00 0. -1.
</event>
<event>
 7    1  0.2405891E-015  0.9000750E+02  0.7816164E-02  0.1186340E+00
        -11   -1    0    0    0    0  0.00000000000E+00  0.00000000000E+00  0.45593999997E+02  0.45594000000E+02  0.51100000000E-03 0. -1.
         11   -1    0    0    0    0 -0.00000000000E+00 -0.00000000000E+00 -0.45593999997E+02  0.45594000000E+02  0.51100000000E-03 0.  1.
    9900012    2    1    2    0    0  0.48913622087E+00 -0.49783308698E+00  0.95209979674E+00  0.90007497544E+02  0.89999755712E+02 0.  0.
        -12    1    1    2    0    0 -0.48913622087E+00  0.49783308698E+00 -0.95209979674E+00  0.11805024557E+01  0.00000000000E+00 0.  1.
         11    1    3    3    0    0  0.28838404461E+02  0.27874950378E+02  0.90353054461E-01  0.40108285856E+02  0.51100000000E-03 0. -1.
        -11    1    3    3    0    0 -0.83316698291E+01  0.58299446740E+01  0.14059099354E+01  0.10265552106E+02  0.51100000000E-03 0.  1.
        -12    1    3    3    0    0 -0.20017598411E+02 -0.34202728139E+02 -0.54416319315E+00  0.39633659582E+02  0.00000000000E+00 0.  1.
</event>
<event>
 7    1  0.2405891E-015  0.9000779E+02  0.7816164E-02  0.1186339E+00
        -11   -1    0    0    0    0  0.00000000000E+00  0.00000000000E+00  0.45593999997E+02  0.45594000000E+02  0.51100000000E-03 0.  1.
         11   -1    0    0    0    0 -0.00000000000E+00 -0.00000000000E+00 -0.45593999997E+02  0.45594000000E+02  0.51100000000E-03 0. -1.
    9900012    2    1    2    0    0  0.28035838894E+00  0.14578594391E+00 -0.11371208770E+01  0.90007788893E+02  0.90000050907E+02 0.  0.
        -12    1    1    2    0    0 -0.28035838894E+00 -0.14578594391E+00  0.11371208770E+01  0.11802111068E+01  0.00000000000E+00 0.  1.
         11    1    3    3    0    0 -0.71829988313E+01 -0.15500152986E+01  0.67214436950E+01  0.99587060025E+01  0.51100000000E-03 0. -1.
        -11    1    3    3    0    0 -0.65868992107E+01  0.14533252427E+02  0.32068069307E+02  0.35818483171E+02  0.51100000000E-03 0.  1.
         12    1    3    3    0    0  0.14050256431E+02 -0.12837451184E+02 -0.39926633879E+02  0.44230599720E+02  0.00000000000E+00 0. -1.
</event>
<event>
 7    1  0.2405891E-015  0.9000777E+02  0.7816164E-02  0.1186339E+00
        -11   -1    0    0    0    0  0.00000000000E+00  0.00000000000E+00  0.45593999997E+02  0.45594000000E+02  0.51100000000E-03 0. -1.
         11   -1    0    0    0    0 -0.00000000000E+00 -0.00000000000E+00 -0.45593999997E+02  0.45594000000E+02  0.51100000000E-03 0.  1.
    9900012    2    1    2    0    0  0.92462806469E+00  0.28991399654E+00  0.67376105726E+00  0.90007770723E+02  0.90000032497E+02 0.  0.
        -12    1    1    2    0    0 -0.92462806469E+00 -0.28991399654E+00 -0.67376105726E+00  0.11802292767E+01  0.00000000000E+00 0.  1.
         11    1    3    3    0    0 -0.15557733655E+02  0.17019839421E+02  0.30497667282E+02  0.38233829527E+02  0.51100000000E-03 0. -1.
        -11    1    3    3    0    0 -0.28655431784E+01 -0.48509039707E+01  0.67091172876E+01  0.87609852232E+01  0.51100000000E-03 0.  1.
        -12    1    3    3    0    0  0.19347904898E+02 -0.11879021454E+02 -0.36533023512E+02  0.43012955973E+02  0.00000000000E+00 0.  1.
</event>
<event>
 7    1  0.2405891E-015  0.9000770E+02  0.7816164E-02  0.1186339E+00
        -11   -1    0    0    0    0  0.00000000000E+00  0.00000000000E+00  0.45593999997E+02  0.45594000000E+02  0.51100000000E-03 0. -1.
         11   -1    0    0    0    0 -0.00000000000E+00 -0.00000000000E+00 -0.45593999997E+02  0.45594000000E+02  0.51100000000E-03 0.  1.
    9900012    2    1    2    0    0 -0.46371861332E+00 -0.97555089763E+00  0.47577601119E+00  0.90007704563E+02  0.89999965463E+02 0.  0.
        -12    1    1    2    0    0  0.46371861332E+00  0.97555089763E+00 -0.47577601119E+00  0.11802954372E+01  0.00000000000E+00 0.  1.
         11    1    3    3    0    0  0.54162574598E+00 -0.90313673698E+01  0.96619756770E+00  0.90990380271E+01  0.51100000000E-03 0. -1.
        -11    1    3    3    0    0  0.79566569721E+01 -0.32220494572E+02  0.15535303412E+02  0.36644430860E+02  0.51100000000E-03 0.  1.
         12    1    3    3    0    0 -0.89620013314E+01  0.40276311044E+02 -0.16025724969E+02  0.44264235676E+02  0.00000000000E+00 0. -1.
</event>
<event>
 7    1  0.2405891E-015  0.9000785E+02  0.7816164E-02  0.1186339E+00
        -11   -1    0    0    0    0  0.00000000000E+00  0.00000000000E+00  0.45593999997E+02  0.45594000000E+02  0.51100000000E-03 0. -1.
         11   -1    0    0    0    0 -0.00000000000E+00 -0.00000000000E+00 -0.45593999997E+02  0.45594000000E+02  0.51100000000E-03 0.  1.
    9900012    2    1    2    0    0  0.68254541398E+00  0.84230340560E+00  0.46627688490E+00  0.90007848568E+02  0.90000111369E+02 0.  0.
        -12    1    1    2    0    0 -0.68254541398E+00 -0.84230340560E+00 -0.46627688490E+00  0.11801514321E+01  0.00000000000E+00 0.  1.
         11    1    3    3    0    0 -0.29605602693E+01  0.80009408371E+01  0.52167489526E+01  0.99997220602E+01  0.51100000000E-03 0. -1.
        -11    1    3    3    0    0  0.38824122224E+02  0.10890998675E+02 -0.20424749862E+01  0.40374472417E+02  0.51100000000E-03 0.  1.
         12    1    3    3    0    0 -0.35181016541E+02 -0.18049636106E+02 -0.27079970814E+01  0.39633654091E+02  0.00000000000E+00 0. -1.
</event>
<event>
 7    1  0.2405891E-015  0.9000790E+02  0.7816164E-02  0.1186339E+00
        -11   -1    0    0    0    0  0.00000000000E+00  0.00000000000E+00  0.45593999997E+02  0.45594000000E+02  0.51100000000E-03 0.  1.
         11   -1    0    0    0    0 -0.00000000000E+00 -0.00000000000E+00 -0.45593999997E+02  0.45594000000E+02  0.51100000000E-03 0. -1.
    9900012    2    1    2    0    0 -0.11395719934E+01  0.20658762929E+00  0.22654821097E+00  0.90007903873E+02  0.90000167404E+02 0.  0.
        -12    1    1    2    0    0  0.11395719934E+01 -0.20658762929E+00 -0.22654821097E+00  0.11800961268E+01  0.00000000000E+00 0.  1.
         11    1    3    3    0    0 -0.44725187781E+01 -0.69338348118E+01  0.40773121200E+01  0.92035842911E+01  0.51100000000E-03 0. -1.
        -11    1    3    3    0    0 -0.32435456375E+02  0.32241090011E+01  0.19430391439E+02  0.37947250505E+02  0.51100000000E-03 0.  1.
         12    1    3    3    0    0  0.35768403160E+02  0.39163134400E+01 -0.23281155348E+02  0.42857069078E+02  0.00000000000E+00 0. -1.
</event>
<event>
 7    1  0.2405891E-015  0.9000781E+02  0.7816164E-02  0.1186339E+00
        -11   -1    0    0    0    0  0.00000000000E+00  0.00000000000E+00  0.45593999997E+02  0.45594000000E+02  0.51100000000E-03 0. -1.
         11   -1    0    0    0    0 -0.00000000000E+00 -0.00000000000E+00 -0.45593999997E+02  0.45594000000E+02  0.51100000000E-03 0.  1.
    9900012    2    1    2    0    0 -0.27414647501E+00  0.77911517501E+00  0.84301359927E+00  0.90007809899E+02  0.90000072190E+02 0.  0.
        -12    1    1    2    0    0  0.27414647501E+00 -0.77911517501E+00 -0.84301359927E+00  0.11801901009E+01  0.00000000000E+00 0.  1.
         11    1    3    3    0    0 -0.12457627841E+02  0.26133890658E+02  0.24696959096E+02  0.38054073648E+02  0.51100000000E-03 0. -1.
        -11    1    3    3    0    0 -0.24197018616E+01 -0.20929115810E+01  0.87537632628E+01  0.93200647802E+01  0.51100000000E-03 0.  1.
        -12    1    3    3    0    0  0.14603183227E+02 -0.23261863902E+02 -0.32607708759E+02  0.42633671471E+02  0.00000000000E+00 0.  1.
</event>
<event>
 7    1  0.2405891E-015  0.9000847E+02  0.7816164E-02  0.1186338E+00
        -11   -1    0    0    0    0  0.00000000000E+00  0.00000000000E+00  0.45593999997E+02  0.45594000000E+02  0.51100000000E-03 0.  1.
         11   -1    0    0    0    0 -0.00000000000E+00 -0.00000000000E+00 -0.45593999997E+02  0.45594000000E+02  0.51100000000E-03 0. -1.
    9900012    2    1    2    0    0  0.18852064338E+00 -0.90390268630E+00 -0.73396677983E+00  0.90008471563E+02  0.90000742585E+02 0.  0.
        -12    1    1    2    0    0 -0.18852064338E+00  0.90390268630E+00  0.73396677983E+00  0.11795284368E+01  0.00000000000E+00 0.  1.
         11    1    3    3    0    0 -0.75996981072E+00  0.30686554435E+02 -0.22604532335E+02  0.38120953026E+02  0.51100000000E-03 0. -1.
        -11    1    3    3    0    0 -0.73774303427E+01  0.52521181876E+01  0.22841830537E+01  0.93396314918E+01  0.51100000000E-03 0.  1.
        -12    1    3    3    0    0  0.83259207969E+01 -0.36842575309E+02  0.19586382502E+02  0.42547887046E+02  0.00000000000E+00 0.  1.
</event>
<event>
 7    1  0.2405891E-015  0.9000774E+02  0.7816164E-02  0.1186339E+00
        -11   -1    0    0    0    0  0.00000000000E+00  0.00000000000E+00  0.45593999997E+02  0.45594000000E+02  0.51100000000E-03 0. -1.
         11   -1    0    0    0    0 -0.00000000000E+00 -0.00000000000E+00 -0.45593999997E+02  0.45594000000E+02  0.51100000000E-03 0.  1.
    9900012    2    1    2    0    0 -0.10778527154E+01  0.82119664994E-01  0.47382526680E+00  0.90007737106E+02  0.89999998436E+02 0.  0.
        -12    1    1    2    0    0  0.10778527154E+01 -0.82119664994E-01 -0.47382526680E+00  0.11802628940E+01  0.00000000000E+00 0.  1.
         11    1    3    3    0    0 -0.36038647417E+02 -0.77610457586E+01 -0.18674780401E+01  0.36912130979E+02  0.51100000000E-03 0. -1.
        -11    1    3    3    0    0 -0.41158508298E+01 -0.68978218891E+01 -0.65863263766E+01  0.10387486234E+02  0.51100000000E-03 0.  1.
        -12    1    3    3    0    0  0.39076645532E+02  0.14740987313E+02  0.89276296835E+01  0.42708119892E+02  0.00000000000E+00 0.  1.
</event>
<event>
 7    1  0.2405891E-015  0.9000774E+02  0.7816164E-02  0.1186339E+00
        -11   -1    0    0    0    0  0.00000000000E+00  0.00000000000E+00  0.45593999997E+02  0.45594000000E+02  0.51100000000E-03 0. -1.
         11   -1    0    0    0    0 -0.00000000000E+00 -0.00000000000E+00 -0.45593999997E+02  0.45594000000E+02  0.51100000000E-03 0.  1.
    9900012    2    1    2    0    0  0.32206823864E+00 -0.10757506184E+01  0.36337010753E+00  0.90007743596E+02  0.90000005012E+02 0.  0.
        -12    1    1    2    0    0 -0.32206823864E+00  0.10757506184E+01 -0.36337010753E+00  0.11802564036E+01  0.00000000000E+00 0.  1.
         11    1    3    3    0    0  0.21775018776E+00 -0.11052551123E+02  0.44205632831E+01  0.11905783530E+02  0.51100000000E-03 0. -1.
        -11    1    3    3    0    0  0.35340771057E+02  0.17458768497E+02 -0.12020732713E+02  0.41210153015E+02  0.51100000000E-03 0.  1.
         12    1    3    3    0    0 -0.35236453006E+02 -0.74819679926E+01  0.79635395377E+01  0.36891807051E+02  0.00000000000E+00 0. -1.
</event>
<event>
 7    1  0.2405891E-015  0.9000779E+02  0.7816164E-02  0.1186339E+00
        -11   -1    0    0    0    0  0.00000000000E+00  0.00000000000E+00  0.45593999997E+02  0.45594000000E+02  0.51100000000E-03 0. -1.
         11   -1    0    0    0    0 -0.00000000000E+00 -0.00000000000E+00 -0.45593999997E+02  0.45594000000E+02  0.51100000000E-03 0.  1.
    9900012    2    1    2    0    0  0.10337443553E+01 -0.46487532806E+00 -0.32889096811E+00  0.90007785726E+02  0.90000047698E+02 0.  0.
        -12    1    1    2    0    0 -0.10337443553E+01  0.46487532806E+00  0.32889096811E+00  0.11802142736E+01  0.00000000000E+00 0.  1.
         11    1    3    3    0    0 -0.74714415399E+01 -0.50578285790E+00  0.80643668057E+01  0.11005101872E+02  0.51100000000E-03 0. -1.
        -11    1    3    3    0    0 -0.18508200607E+02 -0.14001850093E+02 -0.32662426853E+02  0.40067935110E+02  0.51100000000E-03 0.  1.
         12    1    3    3    0    0  0.27013386503E+02  0.14042757623E+02  0.24269169079E+02  0.38934748744E+02  0.00000000000E+00 0. -1.
</event>
<event>
 7    1  0.2405891E-015  0.9000776E+02  0.7816164E-02  0.1186339E+00
        -11   -1    0    0    0    0  0.00000000000E+00  0.00000000000E+00  0.45593999997E+02  0.45594000000E+02  0.51100000000E-03 0. -1.
         11   -1    0    0    0    0 -0.00000000000E+00 -0.00000000000E+00 -0.45593999997E+02  0.45594000000E+02  0.51100000000E-03 0.  1.
    9900012    2    1    2    0    0  0.39290369373E-01 -0.11384276654E+01  0.30888431713E+00  0.90007758159E+02  0.90000019766E+02 0.  0.
        -12    1    1    2    0    0 -0.39290369373E-01  0.11384276654E+01 -0.30888431713E+00  0.11802418413E+01  0.00000000000E+00 0.  1.
         11    1    3    3    0    0 -0.33945293493E+01  0.10148673691E+02  0.34991993707E+02  0.36591775457E+02  0.51100000000E-03 0. -1.
        -11    1    3    3    0    0 -0.11546367786E+01  0.68268178980E+01  0.56682236716E+01  0.89480382518E+01  0.51100000000E-03 0.  1.
        -12    1    3    3    0    0  0.45884564973E+01 -0.18113919254E+02 -0.40351333062E+02  0.44467944450E+02  0.00000000000E+00 0.  1.
</event>
<event>
 7    1  0.2405891E-015  0.9000788E+02  0.7816164E-02  0.1186339E+00
        -11   -1    0    0    0    0  0.00000000000E+00  0.00000000000E+00  0.45593999997E+02  0.45594000000E+02  0.51100000000E-03 0.  1.
         11   -1    0    0    0    0 -0.00000000000E+00 -0.00000000000E+00 -0.45593999997E+02  0.45594000000E+02  0.51100000000E-03 0. -1.
    9900012    2    1    2    0    0 -0.10843562475E+01 -0.45843057941E+00 -0.81773591102E-01  0.90007883909E+02  0.90000147177E+02 0.  0.
        -12    1    1    2    0    0  0.10843562475E+01  0.45843057941E+00  0.81773591102E-01  0.11801160908E+01  0.00000000000E+00 0.  1.
         11    1    3    3    0    0 -0.49093030462E+01 -0.71050244481E+01 -0.86843954569E+01  0.12247503971E+02  0.51100000000E-03 0. -1.
        -11    1    3    3    0    0 -0.27973313346E+01  0.41422136030E+02  0.84082578594E+01  0.42359381681E+02  0.51100000000E-03 0.  1.
         12    1    3    3    0    0  0.66222781333E+01 -0.34775542161E+02  0.19436400644E+00  0.35400998258E+02  0.00000000000E+00 0. -1.
</event>
<event>
 7    1  0.2405891E-015  0.9000774E+02  0.7816164E-02  0.1186339E+00
        -11   -1    0    0    0    0  0.00000000000E+00  0.00000000000E+00  0.45593999997E+02  0.45594000000E+02  0.51100000000E-03 0. -1.
         11   -1    0    0    0    0 -0.00000000000E+00 -0.00000000000E+00 -0.45593999997E+02  0.45594000000E+02  0.51100000000E-03 0.  1.
    9900012    2    1    2    0    0 -0.79769655422E+00 -0.53239824071E+00  0.68792671059E+00  0.90007741199E+02  0.90000002582E+02 0.  0.
        -12    1    1    2    0    0  0.79769655422E+00  0.53239824071E+00 -0.68792671059E+00  0.11802588015E+01  0.00000000000E+00 0.  1.
         11    1    3    3    0    0  0.34279011320E+02  0.22820973001E+02  0.53491852151E+01  0.41526632521E+02  0.51100000000E-03 0. -1.
        -11    1    3    3    0    0 -0.80774897917E+01  0.46799639318E+01 -0.98378206020E+00  0.93869979834E+01  0.51100000000E-03 0.  1.
        -12    1    3    3    0    0 -0.26999218082E+02 -0.28033335173E+02 -0.36774764443E+01  0.39094110695E+02  0.00000000000E+00 0.  1.
</event>
<event>
 7    1  0.2405891E-015  0.9000684E+02  0.7816164E-02  0.1186341E+00
        -11   -1    0    0    0    0  0.00000000000E+00  0.00000000000E+00  0.45593999997E+02  0.45594000000E+02  0.51100000000E-03 0. -1.
         11   -1    0    0    0    0 -0.00000000000E+00 -0.00000000000E+00 -0.45593999997E+02  0.45594000000E+02  0.51100000000E-03 0.  1.
    9900012    2    1    2    0    0 -0.78379745527E+00  0.60715882082E+00 -0.64200478618E+00  0.90006835138E+02  0.89999084558E+02 0.  0.
        -12    1    1    2    0    0  0.78379745527E+00 -0.60715882082E+00  0.64200478618E+00  0.11811648615E+01  0.00000000000E+00 0.  1.
         11    1    3    3    0    0  0.12007812732E+02 -0.17331726924E+02  0.27516398987E+02  0.34665956474E+02  0.51100000000E-03 0. -1.
        -11    1    3    3    0    0  0.17308728756E+01 -0.78246133502E+01  0.61084189768E+01  0.10076372246E+02  0.51100000000E-03 0.  1.
        -12    1    3    3    0    0 -0.14522483063E+02  0.25763499095E+02 -0.34266822750E+02  0.45264506418E+02  0.00000000000E+00 0.  1.
</event>
<event>
 7    1  0.2405891E-015  0.9000770E+02  0.7816164E-02  0.1186339E+00
        -11   -1    0    0    0    0  0.00000000000E+00  0.00000000000E+00  0.45593999997E+02  0.45594000000E+02  0.51100000000E-03 0.  1.
         11   -1    0    0    0    0 -0.00000000000E+00 -0.00000000000E+00 -0.45593999997E+02  0.45594000000E+02  0.51100000000E-03 0. -1.
    9900012    2    1    2    0    0 -0.70088216222E+00  0.73299487589E+00  0.60380927062E+00  0.90007702186E+02  0.89999963055E+02 0.  0.
        -12    1    1    2    0    0  0.70088216222E+00 -0.73299487589E+00 -0.60380927062E+00  0.11802978136E+01  0.00000000000E+00 0.  1.
         11    1    3    3    0    0 -0.62006307216E+01  0.13148368685E+02 -0.42867504704E+01  0.15155977378E+02  0.51100000000E-03 0. -1.
        -11    1    3    3    0    0 -0.28511580945E+01  0.22864713539E+02 -0.20296639173E+02  0.30706315144E+02  0.51100000000E-03 0.  1.
         12    1    3    3    0    0  0.83509066539E+01 -0.35280087349E+02  0.25187198914E+02  0.44145409664E+02  0.00000000000E+00 0. -1.
</event>
<event>
 7    1  0.2405891E-015  0.9000785E+02  0.7816164E-02  0.1186339E+00
        -11   -1    0    0    0    0  0.00000000000E+00  0.00000000000E+00  0.45593999997E+02  0.45594000000E+02  0.51100000000E-03 0. -1.
         11   -1    0    0    0    0 -0.00000000000E+00 -0.00000000000E+00 -0.45593999997E+02  0.45594000000E+02  0.51100000000E-03 0.  1.
    9900012    2    1    2    0    0  0.62410204977E+00 -0.12665417210E-01  0.10015482067E+01  0.90007846369E+02  0.90000109141E+02 0.  0.
        -12    1    1    2    0    0 -0.62410204977E+00  0.12665417210E-01 -0.10015482067E+01  0.11801536306E+01  0.00000000000E+00 0.  1.
         11    1    3    3    0    0 -0.66963076164E+01 -0.41816306269E+01  0.39213153460E+00  0.79044505056E+01  0.51100000000E-03 0. -1.
        -11    1    3    3    0    0 -0.23299988096E+02 -0.39009510887E+01 -0.29916580552E+02  0.38119662340E+02  0.51100000000E-03 0.  1.
         12    1    3    3    0    0  0.30620397763E+02  0.80699162984E+01  0.30525997224E+02  0.43983733524E+02  0.00000000000E+00 0. -1.
</event>
<event>
 7    1  0.2405891E-015  0.9000768E+02  0.7816164E-02  0.1186339E+00
        -11   -1    0    0    0    0  0.00000000000E+00  0.00000000000E+00  0.45593999997E+02  0.45594000000E+02  0.51100000000E-03 0. -1.
         11   -1    0    0    0    0 -0.00000000000E+00 -0.00000000000E+00 -0.45593999997E+02  0.45594000000E+02  0.51100000000E-03 0.  1.
    9900012    2    1    2    0    0 -0.11342226713E+01  0.17797194292E-01  0.32614872163E+00  0.90007681909E+02  0.89999942510E+02 0.  0.
        -12    1    1    2    0    0  0.11342226713E+01 -0.17797194292E-01 -0.32614872163E+00  0.11803180913E+01  0.00000000000E+00 0.  1.
         11    1    3    3    0    0 -0.70403711605E+01  0.41736535294E+01 -0.73240349442E+01  0.10983064144E+02  0.51100000000E-03 0. -1.
        -11    1    3    3    0    0  0.31015835963E+02  0.23932083782E+02  0.12305507434E+02  0.41062783979E+02  0.51100000000E-03 0.  1.
         12    1    3    3    0    0 -0.25109687474E+02 -0.28087940117E+02 -0.46553237680E+01  0.37961833786E+02  0.00000000000E+00 0. -1.
</event>
<event>
 7    1  0.2405891E-015  0.9000776E+02  0.7816164E-02  0.1186339E+00
        -11   -1    0    0    0    0  0.00000000000E+00  0.00000000000E+00  0.45593999997E+02  0.45594000000E+02  0.51100000000E-03 0. -1.
         11   -1    0    0    0    0 -0.00000000000E+00 -0.00000000000E+00 -0.45593999997E+02  0.45594000000E+02  0.51100000000E-03 0.  1.
    9900012    2    1    2    0    0 -0.49141480764E+00 -0.78618429855E+00 -0.73034059859E+00  0.90007757798E+02  0.90000019401E+02 0.  0.
        -12    1    1    2    0    0  0.49141480764E+00  0.78618429855E+00  0.73034059859E+00  0.11802422016E+01  0.00000000000E+00 0.  1.
         11    1    3    3    0    0 -0.32966337822E+01 -0.40119623047E+02  0.24710272005E+01  0.40330607774E+02  0.51100000000E-03 0. -1.
        -11    1    3    3    0    0 -0.57436198645E+01  0.17823037383E+00  0.62603532762E+01  0.84978208158E+01  0.51100000000E-03 0.  1.
        -12    1    3    3    0    0  0.85488388391E+01  0.39155208375E+02 -0.94617210753E+01  0.41179329209E+02  0.00000000000E+00 0.  1.
</event>
<event>
 7    1  0.2405891E-015  0.9000773E+02  0.7816164E-02  0.1186339E+00
        -11   -1    0    0    0    0  0.00000000000E+00  0.00000000000E+00  0.45593999997E+02  0.45594000000E+02  0.51100000000E-03 0.  1.
         11   -1    0    0    0    0 -0.00000000000E+00 -0.00000000000E+00 -0.45593999997E+02  0.45594000000E+02  0.51100000000E-03 0. -1.
    9900012    2    1    2    0    0  0.11641740507E+01  0.14171836498E+00 -0.13281977665E+00  0.90007734603E+02  0.89999995899E+02 0.  0.
        -12    1    1    2    0    0 -0.11641740507E+01 -0.14171836498E+00  0.13281977665E+00  0.11802653975E+01  0.00000000000E+00 0.  1.
         11    1    3    3    0    0  0.46809967913E+00 -0.28398992165E+01  0.64473048378E+01  0.70605867179E+01  0.51100000000E-03 0. -1.
        -11    1    3    3    0    0  0.38687129690E+02  0.13642188008E+02 -0.12863537295E+02  0.42991556024E+02  0.51100000000E-03 0.  1.
         12    1    3    3    0    0 -0.37991055319E+02 -0.10660570426E+02  0.62834126804E+01  0.39955591861E+02  0.00000000000E+00 0. -1.
</event>
<event>
 7    1  0.2405891E-015  0.9000770E+02  0.7816164E-02  0.1186339E+00
        -11   -1    0    0    0    0  0.00000000000E+00  0.00000000000E+00  0.45593999997E+02  0.45594000000E+02  0.51100000000E-03 0.  1.
         11   -1    0    0    0    0 -0.00000000000E+00 -0.00000000000E+00 -0.45593999997E+02  0.45594000000E+02  0.51100000000E-03 0. -1.
    9900012    2    1    2    0    0  0.10664231834E+01 -0.50578800177E+00  0.60373551918E-02  0.90007696497E+02  0.89999957291E+02 0.  0.
        -12    1    1    2    0    0 -0.10664231834E+01  0.50578800177E+00 -0.60373551918E-02  0.11803035027E+01  0.00000000000E+00 0.  1.
         11    1    3    3    0    0 -0.39042819356E+01 -0.20414906680E+02  0.15821272468E+02  0.26121341753E+02  0.51100000000E-03 0. -1.
        -11    1    3    3    0    0 -0.21795842250E+02  0.62624935093E+01  0.95109663852E+01  0.24591381543E+02  0.51100000000E-03 0.  1.
        -12    1    3    3    0    0  0.26766547369E+02  0.13646625169E+02 -0.25326201498E+02  0.39294973202E+02  0.00000000000E+00 0.  1.
</event>
<event>
 7    1  0.2405891E-015  0.9000703E+02  0.7816164E-02  0.1186340E+00
        -11   -1    0    0    0    0  0.00000000000E+00  0.00000000000E+00  0.45593999997E+02  0.45594000000E+02  0.51100000000E-03 0.  1.
         11   -1    0    0    0    0 -0.00000000000E+00 -0.00000000000E+00 -0.45593999997E+02  0.45594000000E+02  0.51100000000E-03 0. -1.
    9900012    2    1    2    0    0  0.56368350227E-01 -0.97739602905E+00  0.66046501276E+00  0.90007028188E+02  0.89999280157E+02 0.  0.
        -12    1    1    2    0    0 -0.56368350227E-01  0.97739602905E+00 -0.66046501276E+00  0.11809718124E+01  0.00000000000E+00 0.  1.
         11    1    3    3    0    0 -0.75131666132E+01  0.29505060841E+01  0.12263718820E+02  0.14681687855E+02  0.51100000000E-03 0. -1.
        -11    1    3    3    0    0  0.14074505181E+02  0.30793004983E+02  0.81892374167E+01  0.34833381428E+02  0.51100000000E-03 0.  1.
         12    1    3    3    0    0 -0.65049702175E+01 -0.34720907096E+02 -0.19792491224E+02  0.40491958905E+02  0.00000000000E+00 0. -1.
</event>
<event>
 7    1  0.2405891E-015  0.9000781E+02  0.7816164E-02  0.1186339E+00
        -11   -1    0    0    0    0  0.00000000000E+00  0.00000000000E+00  0.45593999997E+02  0.45594000000E+02  0.51100000000E-03 0.  1.
         11   -1    0    0    0    0 -0.00000000000E+00 -0.00000000000E+00 -0.45593999997E+02  0.45594000000E+02  0.51100000000E-03 0. -1.
    9900012    2    1    2    0    0  0.93740001114E+00 -0.30336662833E+00 -0.64968689329E+00  0.90007812239E+02  0.90000074560E+02 0.  0.
        -12    1    1    2    0    0 -0.93740001114E+00  0.30336662833E+00  0.64968689329E+00  0.11801877611E+01  0.00000000000E+00 0.  1.
         11    1    3    3    0    0 -0.14641906822E+02  0.30131332411E+02 -0.24302946301E+02  0.41387387299E+02  0.51100000000E-03 0. -1.
        -11    1    3    3    0    0 -0.39187404255E+01 -0.82582603603E+01 -0.21675943791E+01  0.93943523648E+01  0.51100000000E-03 0.  1.
        -12    1    3    3    0    0  0.19498047259E+02 -0.22176438679E+02  0.25820853787E+02  0.39226072575E+02  0.00000000000E+00 0.  1.
</event>
<event>
 7    1  0.2405891E-015  0.9000773E+02  0.7816164E-02  0.1186339E+00
        -11   -1    0    0    0    0  0.00000000000E+00  0.00000000000E+00  0.45593999997E+02  0.45594000000E+02  0.51100000000E-03 0. -1.
         11   -1    0    0    0    0 -0.00000000000E+00 -0.00000000000E+00 -0.45593999997E+02  0.45594000000E+02  0.51100000000E-03 0.  1.
    9900012    2    1    2    0    0  0.18256704843E+00  0.25739746992E+00  0.11372960781E+01  0.90007734541E+02  0.89999995837E+02 0.  0.
        -12    1    1    2    0    0 -0.18256704843E+00 -0.25739746992E+00 -0.11372960781E+01  0.11802654591E+01  0.00000000000E+00 0.  1.
         11    1    3    3    0    0 -0.62471875105E+00 -0.42492710711E+01 -0.68939640952E+01  0.81223961588E+01  0.51100000000E-03 0. -1.
        -11    1    3    3    0    0 -0.86981679827E+01  0.11822294580E+02 -0.34607669583E+02  0.37591429470E+02  0.51100000000E-03 0.  1.
         12    1    3    3    0    0  0.95054537821E+01 -0.73156260389E+01  0.42638929756E+02  0.44293908912E+02  0.00000000000E+00 0. -1.
</event>
<event>
 7    1  0.2405891E-015  0.9000771E+02  0.7816164E-02  0.1186339E+00
        -11   -1    0    0    0    0  0.00000000000E+00  0.00000000000E+00  0.45593999997E+02  0.45594000000E+02  0.51100000000E-03 0.  1.
         11   -1    0    0    0    0 -0.00000000000E+00 -0.00000000000E+00 -0.45593999997E+02  0.45594000000E+02  0.51100000000E-03 0. -1.
    9900012    2    1    2    0    0 -0.82844923942E+00 -0.38127728457E+00 -0.74926229572E+00  0.90007705758E+02  0.89999966674E+02 0.  0.
        -12    1    1    2    0    0  0.82844923942E+00  0.38127728457E+00  0.74926229572E+00  0.11802942421E+01  0.00000000000E+00 0.  1.
         11    1    3    3    0    0 -0.36617222159E+01  0.83054121037E+01 -0.24331865531E+01  0.93972590079E+01  0.51100000000E-03 0. -1.
        -11    1    3    3    0    0  0.38915871484E+02  0.82590395477E+01 -0.53181012740E+01  0.40136504444E+02  0.51100000000E-03 0.  1.
         12    1    3    3    0    0 -0.36082598507E+02 -0.16945728936E+02  0.70020255314E+01  0.40473942306E+02  0.00000000000E+00 0. -1.
</event>
<event>
 7    1  0.2405891E-015  0.9000770E+02  0.7816164E-02  0.1186339E+00
        -11   -1    0    0    0    0  0.00000000000E+00  0.00000000000E+00  0.45593999997E+02  0.45594000000E+02  0.51100000000E-03 0. -1.
         11   -1    0    0    0    0 -0.00000000000E+00 -0.00000000000E+00 -0.45593999997E+02  0.45594000000E+02  0.51100000000E-03 0.  1.
    9900012    2    1    2    0    0  0.30342451818E+00  0.10587058787E+01  0.42448023866E+00  0.90007700017E+02  0.89999960858E+02 0.  0.
        -12    1    1    2    0    0 -0.30342451818E+00 -0.10587058787E+01 -0.42448023866E+00  0.11802999826E+01  0.00000000000E+00 0.  1.
         11    1    3    3    0    0 -0.16860027692E+01  0.25622740848E+02 -0.27273956545E+02  0.37459793910E+02  0.51100000000E-03 0. -1.
        -11    1    3    3    0    0  0.18094634044E+01  0.93718542198E+01  0.14704637928E+01  0.96575397155E+01  0.51100000000E-03 0.  1.
        -12    1    3    3    0    0  0.17996388308E+00 -0.33935889189E+02  0.26227972991E+02  0.42890366392E+02  0.00000000000E+00 0.  1.
</event>
<event>
 7    1  0.2405891E-015  0.9000777E+02  0.7816164E-02  0.1186339E+00
        -11   -1    0    0    0    0  0.00000000000E+00  0.00000000000E+00  0.45593999997E+02  0.45594000000E+02  0.51100000000E-03 0.  1.
         11   -1    0    0    0    0 -0.00000000000E+00 -0.00000000000E+00 -0.45593999997E+02  0.45594000000E+02  0.51100000000E-03 0. -1.
    9900012    2    1    2    0    0  0.43567981799E-01 -0.77028477449E+00 -0.89314392111E+00  0.90007769994E+02  0.90000031758E+02 0.  0.
        -12    1    1    2    0    0 -0.43567981799E-01  0.77028477449E+00  0.89314392111E+00  0.11802300058E+01  0.00000000000E+00 0.  1.
         11    1    3    3    0    0  0.30858232441E+01  0.79004763209E+01  0.32912167343E+01  0.90979084983E+01  0.51100000000E-03 0. -1.
        -11    1    3    3    0    0 -0.38551578974E+02 -0.16310899504E+02  0.79624056902E+01  0.42610674585E+02  0.51100000000E-03 0.  1.
         12    1    3    3    0    0  0.35509323711E+02  0.76401384085E+01 -0.12146766346E+02  0.38299186910E+02  0.00000000000E+00 0. -1.
</event>
<event>
 7    1  0.2405891E-015  0.9000772E+02  0.7816164E-02  0.1186339E+00
        -11   -1    0    0    0    0  0.00000000000E+00  0.00000000000E+00  0.45593999997E+02  0.45594000000E+02  0.51100000000E-03 0.  1.
         11   -1    0    0    0    0 -0.00000000000E+00 -0.00000000000E+00 -0.45593999997E+02  0.45594000000E+02  0.51100000000E-03 0. -1.
    9900012    2    1    2    0    0 -0.11350580922E+01  0.14505968618E+00 -0.28922424005E+00  0.90007724674E+02  0.89999985839E+02 0.  0.
        -12    1    1    2    0    0  0.11350580922E+01 -0.14505968618E+00  0.28922424005E+00  0.11802753264E+01  0.00000000000E+00 0.  1.
         11    1    3    3    0    0 -0.89425252590E+01 -0.35639979345E+02 -0.59706615678E+00  0.36749603726E+02  0.51100000000E-03 0. -1.
        -11    1    3    3    0    0  0.33353854826E+01 -0.80030106762E+01 -0.28565824189E+01  0.91286932021E+01  0.51100000000E-03 0.  1.
        -12    1    3    3    0    0  0.44720816842E+01  0.43788049708E+02  0.31644243356E+01  0.44129427746E+02  0.00000000000E+00 0.  1.
</event>
<event>
 7    1  0.2405891E-015  0.9000771E+02  0.7816164E-02  0.1186339E+00
        -11   -1    0    0    0    0  0.00000000000E+00  0.00000000000E+00  0.45593999997E+02  0.45594000000E+02  0.51100000000E-03 0. -1.
         11   -1    0    0    0    0 -0.00000000000E+00 -0.00000000000E+00 -0.45593999997E+02  0.45594000000E+02  0.51100000000E-03 0.  1.
    9900012    2    1    2    0    0  0.79378880323E+00 -0.91477008621E-01  0.86868167268E+00  0.90007713359E+02  0.89999974375E+02 0.  0.
        -12    1    1    2    0    0 -0.79378880323E+00  0.91477008621E-01 -0.86868167268E+00  0.11802866413E+01  0.00000000000E+00 0.  1.
         11    1    3    3    0    0 -0.87613183472E+01  0.46070678153E+01  0.20476932512E+01  0.10108354018E+02  0.51100000000E-03 0. -1.
        -11    1    3    3    0    0  0.44276855385E+02  0.12176634308E+01  0.31845337152E+01  0.44407925894E+02  0.51100000000E-03 0.  1.
         12    1    3    3    0    0 -0.34721748234E+02 -0.59162082547E+01 -0.43635452937E+01  0.35491433447E+02  0.00000000000E+00 0. -1.
</event>
<event>
 7    1  0.2405891E-015  0.9000879E+02  0.7816164E-02  0.1186337E+00
        -11   -1    0    0    0    0  0.00000000000E+00  0.00000000000E+00  0.45593999997E+02  0.45594000000E+02  0.51100000000E-03 0. -1.
         11   -1    0    0    0    0 -0.00000000000E+00 -0.00000000000E+00 -0.45593999997E+02  0.45594000000E+02  0.51100000000E-03 0.  1.
    9900012    2    1    2    0    0  0.79252176375E+00  0.47579363129E+00  0.73216907374E+00  0.90008787603E+02  0.90001062793E+02 0.  0.
        -12    1    1    2    0    0 -0.79252176375E+00 -0.47579363129E+00 -0.73216907374E+00  0.11792123974E+01  0.00000000000E+00 0.  1.
         11    1    3    3    0    0 -0.34607092540E+02 -0.24167052487E+01  0.95978197937E+01  0.35994575472E+02  0.51100000000E-03 0. -1.
        -11    1    3    3    0    0 -0.47972343486E+01 -0.71238204600E+01  0.54646579594E+01  0.10179624856E+02  0.51100000000E-03 0.  1.
        -12    1    3    3    0    0  0.40196848652E+02  0.10016319340E+02 -0.14330308679E+02  0.43834587275E+02  0.00000000000E+00 0.  1.
</event>
<event>
 7    1  0.2405891E-015  0.9000775E+02  0.7816164E-02  0.1186339E+00
        -11   -1    0    0    0    0  0.00000000000E+00  0.00000000000E+00  0.45593999997E+02  0.45594000000E+02  0.51100000000E-03 0.  1.
         11   -1    0    0    0    0 -0.00000000000E+00 -0.00000000000E+00 -0.45593999997E+02  0.45594000000E+02  0.51100000000E-03 0. -1.
    9900012    2    1    2    0    0  0.86320796845E-01 -0.68509203165E+00 -0.95718255317E+00  0.90007745446E+02  0.90000006886E+02 0.  0.
        -12    1    1    2    0    0 -0.86320796845E-01  0.68509203165E+00  0.95718255317E+00  0.11802545539E+01  0.00000000000E+00 0.  1.
         11    1    3    3    0    0 -0.67408288307E+01  0.14867782652E+01 -0.63920019700E+01  0.94078144316E+01  0.51100000000E-03 0. -1.
        -11    1    3    3    0    0  0.14368028514E+01 -0.32635464217E+02  0.27417712224E+02  0.42648198918E+02  0.51100000000E-03 0.  1.
         12    1    3    3    0    0  0.53903467761E+01  0.30463593920E+02 -0.21982892807E+02  0.37951732096E+02  0.00000000000E+00 0. -1.
</event>
<event>
 7    1  0.2405891E-015  0.9000782E+02  0.7816164E-02  0.1186339E+00
        -11   -1    0    0    0    0  0.00000000000E+00  0.00000000000E+00  0.45593999997E+02  0.45594000000E+02  0.51100000000E-03 0.  1.
         11   -1    0    0    0    0 -0.00000000000E+00 -0.00000000000E+00 -0.45593999997E+02  0.45594000000E+02  0.51100000000E-03 0. -1.
    9900012    2    1    2    0    0  0.28781400608E+00  0.37272495328E+00 -0.10821614061E+01  0.90007816073E+02  0.90000078445E+02 0.  0.
        -12    1    1    2    0    0 -0.28781400608E+00 -0.37272495328E+00  0.10821614061E+01  0.11801839271E+01  0.00000000000E+00 0.  1.
         11    1    3    3    0    0 -0.14593121784E+02 -0.11861496418E+02  0.32861054970E+01  0.19090646670E+02  0.51100000000E-03 0. -1.
        -11    1    3    3    0    0 -0.10570034052E+02 -0.23814275743E+02 -0.60864365308E+01  0.26756121896E+02  0.51100000000E-03 0.  1.
         12    1    3    3    0    0  0.25450969842E+02  0.36048497114E+02  0.17181696277E+01  0.44161047507E+02  0.00000000000E+00 0. -1.
</event>
<event>
 7    1  0.2405891E-015  0.9000775E+02  0.7816164E-02  0.1186339E+00
        -11   -1    0    0    0    0  0.00000000000E+00  0.00000000000E+00  0.45593999997E+02  0.45594000000E+02  0.51100000000E-03 0. -1.
         11   -1    0    0    0    0 -0.00000000000E+00 -0.00000000000E+00 -0.45593999997E+02  0.45594000000E+02  0.51100000000E-03 0.  1.
    9900012    2    1    2    0    0  0.17140395886E+00 -0.10551055352E+01 -0.50037313636E+00  0.90007745670E+02  0.90000007113E+02 0.  0.
        -12    1    1    2    0    0 -0.17140395886E+00  0.10551055352E+01  0.50037313636E+00  0.11802543299E+01  0.00000000000E+00 0.  1.
         11    1    3    3    0    0 -0.72368371104E+01  0.35096402282E+02 -0.11872392907E+02  0.37750271232E+02  0.51100000000E-03 0. -1.
        -11    1    3    3    0    0  0.55718079164E+01  0.61375156517E+01  0.43120590544E+01  0.93438747521E+01  0.51100000000E-03 0.  1.
        -12    1    3    3    0    0  0.18364331528E+01 -0.42289023469E+02  0.70599607167E+01  0.42913599686E+02  0.00000000000E+00 0.  1.
</event>
<event>
 7    1  0.2405891E-015  0.9000777E+02  0.7816164E-02  0.1186339E+00
        -11   -1    0    0    0    0  0.00000000000E+00  0.00000000000E+00  0.45593999997E+02  0.45594000000E+02  0.51100000000E-03 0.  1.
         11   -1    0    0    0    0 -0.00000000000E+00 -0.00000000000E+00 -0.45593999997E+02  0.45594000000E+02  0.51100000000E-03 0. -1.
    9900012    2    1    2    0    0 -0.11007877988E+01  0.23206431573E+00  0.35687324621E+00  0.90007768608E+02  0.90000030354E+02 0.  0.
        -12    1    1    2    0    0  0.11007877988E+01 -0.23206431573E+00 -0.35687324621E+00  0.11802313919E+01  0.00000000000E+00 0.  1.
         11    1    3    3    0    0 -0.35506397903E+02 -0.37447403901E+01 -0.14222065868E+00  0.35703607656E+02  0.51100000000E-03 0. -1.
        -11    1    3    3    0    0  0.51539441195E+01 -0.12181672191E+01  0.18718411715E+02  0.19453174773E+02  0.51100000000E-03 0.  1.
        -12    1    3    3    0    0  0.29251665985E+02  0.51949719249E+01 -0.18219317810E+02  0.34850986179E+02  0.00000000000E+00 0.  1.
</event>
<event>
 7    1  0.2405891E-015  0.9000768E+02  0.7816164E-02  0.1186339E+00
        -11   -1    0    0    0    0  0.00000000000E+00  0.00000000000E+00  0.45593999997E+02  0.45594000000E+02  0.51100000000E-03 0.  1.
         11   -1    0    0    0    0 -0.00000000000E+00 -0.00000000000E+00 -0.45593999997E+02  0.45594000000E+02  0.51100000000E-03 0. -1.
    9900012    2    1    2    0    0 -0.66876792355E-01 -0.11675685486E+01  0.15955310389E+00  0.90007683935E+02  0.89999944563E+02 0.  0.
        -12    1    1    2    0    0  0.66876792355E-01  0.11675685486E+01 -0.15955310389E+00  0.11803160653E+01  0.00000000000E+00 0.  1.
         11    1    3    3    0    0 -0.86442825307E+01 -0.16525609107E+01  0.19642127643E+01  0.90173560470E+01  0.51100000000E-03 0. -1.
        -11    1    3    3    0    0 -0.28857176725E+02  0.14981147542E+02  0.16966907944E+02  0.36674887807E+02  0.51100000000E-03 0.  1.
         12    1    3    3    0    0  0.37434582463E+02 -0.14496155180E+02 -0.18771567604E+02  0.44315440081E+02  0.00000000000E+00 0. -1.
</event>
<event>
 7    1  0.2405891E-015  0.9000774E+02  0.7816164E-02  0.1186339E+00
        -11   -1    0    0    0    0  0.00000000000E+00  0.00000000000E+00  0.45593999997E+02  0.45594000000E+02  0.51100000000E-03 0. -1.
         11   -1    0    0    0    0 -0.00000000000E+00 -0.00000000000E+00 -0.45593999997E+02  0.45594000000E+02  0.51100000000E-03 0.  1.
    9900012    2    1    2    0    0  0.11124869322E+01 -0.32052673515E+00 -0.22944948640E+00  0.90007740864E+02  0.90000002243E+02 0.  0.
        -12    1    1    2    0    0 -0.11124869322E+01  0.32052673515E+00  0.22944948640E+00  0.11802591364E+01  0.00000000000E+00 0.  1.
         11    1    3    3    0    0 -0.10221273607E+01  0.36828437511E+01 -0.84496428982E+01  0.92738636935E+01  0.51100000000E-03 0. -1.
        -11    1    3    3    0    0  0.13031865584E+02 -0.10466463722E+02 -0.33334696487E+02  0.37290459552E+02  0.51100000000E-03 0.  1.
         12    1    3    3    0    0 -0.10897251291E+02  0.64630932362E+01  0.41554889899E+02  0.43443417618E+02  0.00000000000E+00 0. -1.
</event>
<event>
 7    1  0.2405891E-015  0.9000776E+02  0.7816164E-02  0.1186339E+00
        -11   -1    0    0    0    0  0.00000000000E+00  0.00000000000E+00  0.45593999997E+02  0.45594000000E+02  0.51100000000E-03 0.  1.
         11   -1    0    0    0    0 -0.00000000000E+00 -0.00000000000E+00 -0.45593999997E+02  0.45594000000E+02  0.51100000000E-03 0. -1.
    9900012    2    1    2    0    0  0.16158337732E+00 -0.11437033962E+01 -0.24247052491E+00  0.90007763328E+02  0.90000025004E+02 0.  0.
        -12    1    1    2    0    0 -0.16158337732E+00  0.11437033962E+01  0.24247052491E+00  0.11802366720E+01  0.00000000000E+00 0.  1.
         11    1    3    3    0    0 -0.23371622252E+02 -0.73221752856E+01 -0.24602087100E+02  0.34714689507E+02  0.51100000000E-03 0. -1.
        -11    1    3    3    0    0 -0.53118919150E+01 -0.79215665864E+01 -0.58660668810E+01  0.11197238669E+02  0.51100000000E-03 0.  1.
        -12    1    3    3    0    0  0.28845097545E+02  0.14100038476E+02  0.30225683456E+02  0.44095835152E+02  0.00000000000E+00 0.  1.
</event>
<event>
 7    1  0.2405891E-015  0.9000769E+02  0.7816164E-02  0.1186339E+00
        -11   -1    0    0    0    0  0.00000000000E+00  0.00000000000E+00  0.45593999997E+02  0.45594000000E+02  0.51100000000E-03 0.  1.
         11   -1    0    0    0    0 -0.00000000000E+00 -0.00000000000E+00 -0.45593999997E+02  0.45594000000E+02  0.51100000000E-03 0. -1.
    9900012    2    1    2    0    0  0.76388491582E+00  0.87894840370E+00 -0.19252344481E+00  0.90007688288E+02  0.89999948973E+02 0.  0.
        -12    1    1    2    0    0 -0.76388491582E+00 -0.87894840370E+00  0.19252344481E+00  0.11803117121E+01  0.00000000000E+00 0.  1.
         11    1    3    3    0    0 -0.55113172118E+01 -0.31928357406E+01  0.25359264199E+01  0.68556356776E+01  0.51100000000E-03 0. -1.
        -11    1    3    3    0    0 -0.75316344235E+01  0.15306902091E+02  0.36381052465E+02  0.40182181965E+02  0.51100000000E-03 0.  1.
         12    1    3    3    0    0  0.13806836551E+02 -0.11235117947E+02 -0.39109502330E+02  0.42969870646E+02  0.00000000000E+00 0. -1.
</event>
<event>
 7    1  0.2405891E-015  0.9000773E+02  0.7816164E-02  0.1186339E+00
        -11   -1    0    0    0    0  0.00000000000E+00  0.00000000000E+00  0.45593999997E+02  0.45594000000E+02  0.51100000000E-03 0.  1.
         11   -1    0    0    0    0 -0.00000000000E+00 -0.00000000000E+00 -0.45593999997E+02  0.45594000000E+02  0.51100000000E-03 0. -1.
    9900012    2    1    2    0    0 -0.47514954538E+00  0.66485215149E+00 -0.85161165240E+00  0.90007729743E+02  0.89999990975E+02 0.  0.
        -12    1    1    2    0    0  0.47514954538E+00 -0.66485215149E+00  0.85161165240E+00  0.11802702573E+01  0.00000000000E+00 0.  1.
         11    1    3    3    0    0  0.15415783447E+02  0.31457661784E+02  0.17928889415E+02  0.39353220200E+02  0.51100000000E-03 0. -1.
        -11    1    3    3    0    0 -0.24900063283E+01  0.66753020438E+01 -0.15476243595E+01  0.72907427818E+01  0.51100000000E-03 0.  1.
        -12    1    3    3    0    0 -0.13400926664E+02 -0.37468111677E+02 -0.17232876708E+02  0.43363766761E+02  0.00000000000E+00 0.  1.
</event>
<event>
 7    1  0.2405891E-015  0.9000769E+02  0.7816164E-02  0.1186339E+00
        -11   -1    0    0    0    0  0.00000000000E+00  0.00000000000E+00  0.45593999997E+02  0.45594000000E+02  0.51100000000E-03 0. -1.
         11   -1    0    0    0    0 -0.00000000000E+00 -0.00000000000E+00 -0.45593999997E+02  0.45594000000E+02  0.51100000000E-03 0.  1.
    9900012    2    1    2    0    0 -0.22178725272E+00  0.67761582044E+00  0.94063131431E+00  0.90007686459E+02  0.89999947120E+02 0.  0.
        -12    1    1    2    0    0  0.22178725272E+00 -0.67761582044E+00 -0.94063131431E+00  0.11803135410E+01  0.00000000000E+00 0.  1.
         11    1    3    3    0    0 -0.47901845368E+01  0.77423613518E+01 -0.24543443409E+01  0.94294132163E+01  0.51100000000E-03 0. -1.
        -11    1    3    3    0    0  0.40716178090E+02 -0.14711194391E+02  0.50974442915E+01  0.43591402102E+02  0.51100000000E-03 0.  1.
         12    1    3    3    0    0 -0.36147780805E+02  0.76464488600E+01 -0.17024686364E+01  0.36986871141E+02  0.00000000000E+00 0. -1.
</event>
<event>
 7    1  0.2405891E-015  0.9000778E+02  0.7816164E-02  0.1186339E+00
        -11   -1    0    0    0    0  0.00000000000E+00  0.00000000000E+00  0.45593999997E+02  0.45594000000E+02  0.51100000000E-03 0.  1.
         11   -1    0    0    0    0 -0.00000000000E+00 -0.00000000000E+00 -0.45593999997E+02  0.45594000000E+02  0.51100000000E-03 0. -1.
    9900012    2    1    2    0    0 -0.71814650258E+00 -0.59303224999E+00 -0.72491717145E+00  0.90007776905E+02  0.90000038760E+02 0.  0.
        -12    1    1    2    0    0  0.71814650258E+00  0.59303224999E+00  0.72491717145E+00  0.11802230951E+01  0.00000000000E+00 0.  1.
         11    1    3    3    0    0  0.12261627443E+02  0.35665260131E+02 -0.60437374478E+01  0.38195353780E+02  0.51100000000E-03 0. -1.
        -11    1    3    3    0    0  0.87206192783E+01  0.59899144522E+00  0.28125647509E+00  0.87456901851E+01  0.51100000000E-03 0.  1.
        -12    1    3    3    0    0 -0.21700393224E+02 -0.36857283826E+02  0.50375638013E+01  0.43066732940E+02  0.00000000000E+00 0.  1.
</event>
<event>
 7    1  0.2405891E-015  0.9000776E+02  0.7816164E-02  0.1186339E+00
        -11   -1    0    0    0    0  0.00000000000E+00  0.00000000000E+00  0.45593999997E+02  0.45594000000E+02  0.51100000000E-03 0.  1.
         11   -1    0    0    0    0 -0.00000000000E+00 -0.00000000000E+00 -0.45593999997E+02  0.45594000000E+02  0.51100000000E-03 0. -1.
    9900012    2    1    2    0    0  0.62478575960E-01 -0.12880354765E+00 -0.11715227944E+01  0.90007762912E+02  0.90000024582E+02 0.  0.
        -12    1    1    2    0    0 -0.62478575960E-01  0.12880354765E+00  0.11715227944E+01  0.11802370882E+01  0.00000000000E+00 0.  1.
         11    1    3    3    0    0  0.72026219271E+01  0.29193654405E+01 -0.40842884438E+01  0.87796280988E+01  0.51100000000E-03 0. -1.
        -11    1    3    3    0    0  0.26565832587E+02 -0.13292623333E+02  0.25693398275E+02  0.39275794216E+02  0.51100000000E-03 0.  1.
         12    1    3    3    0    0 -0.33705975938E+02  0.10244454345E+02 -0.22780632625E+02  0.41952340597E+02  0.00000000000E+00 0. -1.
</event>
<event>
 7    1  0.2405891E-015  0.9000771E+02  0.7816164E-02  0.1186339E+00
        -11   -1    0    0    0    0  0.00000000000E+00  0.00000000000E+00  0.45593999997E+02  0.45594000000E+02  0.51100000000E-03 0.  1.
         11   -1    0    0    0    0 -0.00000000000E+00 -0.00000000000E+00 -0.45593999997E+02  0.45594000000E+02  0.51100000000E-03 0. -1.
    9900012    2    1    2    0    0 -0.69106907178E+00  0.95572506305E+00 -0.45757074428E-01  0.90007711659E+02  0.89999972653E+02 0.  0.
        -12    1    1    2    0    0  0.69106907178E+00 -0.95572506305E+00  0.45757074428E-01  0.11802883410E+01  0.00000000000E+00 0.  1.
         11    1    3    3    0    0 -0.19172432023E+02 -0.29578708315E+02 -0.23853170820E+00  0.35249667132E+02  0.51100000000E-03 0. -1.
        -11    1    3    3    0    0 -0.26364273748E+00 -0.80511306513E+01  0.77747074326E+01  0.11195369051E+02  0.51100000000E-03 0.  1.
        -12    1    3    3    0    0  0.18745005689E+02  0.38585564029E+02 -0.75819327988E+01  0.43562675477E+02  0.00000000000E+00 0.  1.
</event>
<event>
 7    1  0.2405891E-015  0.9000768E+02  0.7816164E-02  0.1186339E+00
        -11   -1    0    0    0    0  0.00000000000E+00  0.00000000000E+00  0.45593999997E+02  0.45594000000E+02  0.51100000000E-03 0. -1.
         11   -1    0    0    0    0 -0.00000000000E+00 -0.00000000000E+00 -0.45593999997E+02  0.45594000000E+02  0.51100000000E-03 0.  1.
    9900012    2    1    2    0    0  0.66423036828E+00  0.84976437892E+00  0.47942722709E+00  0.90007681421E+02  0.89999942016E+02 0.  0.
        -12    1    1    2    0    0 -0.66423036828E+00 -0.84976437892E+00 -0.47942722709E+00  0.11803185790E+01  0.00000000000E+00 0.  1.
         11    1    3    3    0    0 -0.16499063695E+02  0.19759082224E+01  0.40038266014E+02  0.43349579718E+02  0.51100000000E-03 0. -1.
        -11    1    3    3    0    0  0.58072308000E+01 -0.69663708462E+01 -0.63299170174E+01  0.11059932280E+02  0.51100000000E-03 0.  1.
        -12    1    3    3    0    0  0.11356063263E+02  0.58402270027E+01 -0.33228921769E+02  0.35598169423E+02  0.00000000000E+00 0.  1.
</event>
<event>
 7    1  0.2405891E-015  0.9000778E+02  0.7816164E-02  0.1186339E+00
        -11   -1    0    0    0    0  0.00000000000E+00  0.00000000000E+00  0.45593999997E+02  0.45594000000E+02  0.51100000000E-03 0.  1.
         11   -1    0    0    0    0 -0.00000000000E+00 -0.00000000000E+00 -0.45593999997E+02  0.45594000000E+02  0.51100000000E-03 0. -1.
    9900012    2    1    2    0    0  0.48992055365E+00 -0.31023587891E+00 -0.10279297598E+01  0.90007784748E+02  0.90000046707E+02 0.  0.
        -12    1    1    2    0    0 -0.48992055365E+00  0.31023587891E+00  0.10279297598E+01  0.11802152518E+01  0.00000000000E+00 0.  1.
         11    1    3    3    0    0  0.34086456092E+02  0.32735138947E+01  0.91994167079E+01  0.35457462546E+02  0.51100000000E-03 0. -1.
        -11    1    3    3    0    0  0.62491471243E+01  0.10832395042E+01  0.82297707336E+01  0.10390109441E+02  0.51100000000E-03 0.  1.
        -12    1    3    3    0    0 -0.39845682663E+02 -0.46669892779E+01 -0.18457117201E+02  0.44160212762E+02  0.00000000000E+00 0.  1.
</event>
<event>
 7    1  0.2405891E-015  0.9000802E+02  0.7816164E-02  0.1186338E+00
        -11   -1    0    0    0    0  0.00000000000E+00  0.00000000000E+00  0.45593999997E+02  0.45594000000E+02  0.51100000000E-03 0. -1.
         11   -1    0    0    0    0 -0.00000000000E+00 -0.00000000000E+00 -0.45593999997E+02  0.45594000000E+02  0.51100000000E-03 0.  1.
    9900012    2    1    2    0    0 -0.61884260419E+00  0.59484492784E+00  0.80966298761E+00  0.90008016606E+02  0.90000281625E+02 0.  0.
        -12    1    1    2    0    0  0.61884260419E+00 -0.59484492784E+00 -0.80966298761E+00  0.11799833941E+01  0.00000000000E+00 0.  1.
         11    1    3    3    0    0 -0.83868627997E+01  0.60271428637E+01  0.74749660830E+01  0.12749158283E+02  0.51100000000E-03 0. -1.
        -11    1    3    3    0    0 -0.29614830036E+02 -0.17375456214E+02  0.81865748693E+01  0.35298224389E+02  0.51100000000E-03 0.  1.
         12    1    3    3    0    0  0.37382850231E+02  0.11943158278E+02 -0.14851877965E+02  0.41960633934E+02  0.00000000000E+00 0. -1.
</event>
<event>
 7    1  0.2405891E-015  0.9000782E+02  0.7816164E-02  0.1186339E+00
        -11   -1    0    0    0    0  0.00000000000E+00  0.00000000000E+00  0.45593999997E+02  0.45594000000E+02  0.51100000000E-03 0.  1.
         11   -1    0    0    0    0 -0.00000000000E+00 -0.00000000000E+00 -0.45593999997E+02  0.45594000000E+02  0.51100000000E-03 0. -1.
    9900012    2    1    2    0    0 -0.28847400039E+00 -0.35610815888E+00 -0.10875688582E+01  0.90007815145E+02  0.90000077505E+02 0.  0.
        -12    1    1    2    0    0  0.28847400039E+00  0.35610815888E+00  0.10875688582E+01  0.11801848546E+01  0.00000000000E+00 0.  1.
         11    1    3    3    0    0 -0.17881815365E+02 -0.28003598717E+02 -0.17986586983E+02  0.37781982127E+02  0.51100000000E-03 0. -1.
        -11    1    3    3    0    0 -0.47824423537E+01  0.25167659437E+01 -0.84964063052E+01  0.10069497805E+02  0.51100000000E-03 0.  1.
        -12    1    3    3    0    0  0.22375783719E+02  0.25130724614E+02  0.25395424430E+02  0.42156335214E+02  0.00000000000E+00 0.  1.
</event>
<event>
 7    1  0.2405891E-015  0.9000752E+02  0.7816164E-02  0.1186339E+00
        -11   -1    0    0    0    0  0.00000000000E+00  0.00000000000E+00  0.45593999997E+02  0.45594000000E+02  0.51100000000E-03 0.  1.
         11   -1    0    0    0    0 -0.00000000000E+00 -0.00000000000E+00 -0.45593999997E+02  0.45594000000E+02  0.51100000000E-03 0. -1.
    9900012    2    1    2    0    0 -0.75380166858E-01  0.11431737508E+01 -0.28461574261E+00  0.90007519371E+02  0.89999777827E+02 0.  0.
        -12    1    1    2    0    0  0.75380166858E-01 -0.11431737508E+01  0.28461574261E+00  0.11804806288E+01  0.00000000000E+00 0.  1.
         11    1    3    3    0    0 -0.29832944025E+02 -0.12459880288E+02 -0.21271605062E+02  0.38700572969E+02  0.51100000000E-03 0. -1.
        -11    1    3    3    0    0 -0.74220829063E+01  0.13901915358E+01  0.48610675412E+01  0.89805303338E+01  0.51100000000E-03 0.  1.
        -12    1    3    3    0    0  0.37179646764E+02  0.12212862503E+02  0.16125921778E+02  0.42326416068E+02  0.00000000000E+00 0.  1.
</event>
<event>
 7    1  0.2405891E-015  0.9000772E+02  0.7816164E-02  0.1186339E+00
        -11   -1    0    0    0    0  0.00000000000E+00  0.00000000000E+00  0.45593999997E+02  0.45594000000E+02  0.51100000000E-03 0.  1.
         11   -1    0    0    0    0 -0.00000000000E+00 -0.00000000000E+00 -0.45593999997E+02  0.45594000000E+02  0.51100000000E-03 0. -1.
    9900012    2    1    2    0    0  0.64633148701E+00  0.97054732139E+00 -0.18264897750E+00  0.90007717346E+02  0.89999978415E+02 0.  0.
        -12    1    1    2    0    0 -0.64633148701E+00 -0.97054732139E+00  0.18264897750E+00  0.11802826539E+01  0.00000000000E+00 0.  1.
         11    1    3    3    0    0  0.82843727562E+01 -0.17134680366E+01 -0.24277670298E+01  0.88011850162E+01  0.51100000000E-03 0. -1.
        -11    1    3    3    0    0 -0.91790067584E+00  0.41495350195E+02  0.45270515586E+01  0.41751656561E+02  0.51100000000E-03 0.  1.
         12    1    3    3    0    0 -0.67201405934E+01 -0.38811334837E+02 -0.22819335063E+01  0.39454875769E+02  0.00000000000E+00 0. -1.
</event>
<event>
 7    1  0.2405891E-015  0.9000773E+02  0.7816164E-02  0.1186339E+00
        -11   -1    0    0    0    0  0.00000000000E+00  0.00000000000E+00  0.45593999997E+02  0.45594000000E+02  0.51100000000E-03 0.  1.
         11   -1    0    0    0    0 -0.00000000000E+00 -0.00000000000E+00 -0.45593999997E+02  0.45594000000E+02  0.51100000000E-03 0. -1.
    9900012    2    1    2    0    0 -0.99700451642E-01  0.32582934733E+00 -0.11300129106E+01  0.90007731335E+02  0.89999992589E+02 0.  0.
        -12    1    1    2    0    0  0.99700451642E-01 -0.32582934733E+00  0.11300129106E+01  0.11802686651E+01  0.00000000000E+00 0.  1.
         11    1    3    3    0    0  0.20059294472E+01  0.15056012684E+02 -0.28021945598E+01  0.15445373595E+02  0.51100000000E-03 0. -1.
        -11    1    3    3    0    0 -0.25044162990E+02  0.20056909571E+02 -0.46345185707E+01  0.32418644081E+02  0.51100000000E-03 0.  1.
         12    1    3    3    0    0  0.22938533091E+02 -0.34787092907E+02  0.63067002199E+01  0.42143713659E+02  0.00000000000E+00 0. -1.
</event>
<event>
 7    1  0.2405891E-015  0.9000777E+02  0.7816164E-02  0.1186339E+00
        -11   -1    0    0    0    0  0.00000000000E+00  0.00000000000E+00  0.45593999997E+02  0.45594000000E+02  0.51100000000E-03 0.  1.
         11   -1    0    0    0    0 -0.00000000000E+00 -0.00000000000E+00 -0.45593999997E+02  0.45594000000E+02  0.51100000000E-03 0. -1.
    9900012    2    1    2    0    0 -0.26112841896E+00  0.11436638748E+01 -0.12960539064E+00  0.90007765842E+02  0.90000027551E+02 0.  0.
        -12    1    1    2    0    0  0.26112841896E+00 -0.11436638748E+01  0.12960539064E+00  0.11802341577E+01  0.00000000000E+00 0.  1.
         11    1    3    3    0    0 -0.27827821865E+02 -0.29993181776E+02 -0.67550231437E+01  0.41468168042E+02  0.51100000000E-03 0. -1.
        -11    1    3    3    0    0 -0.36861757211E+01  0.90745338743E+01  0.21007556398E+01  0.10017396418E+02  0.51100000000E-03 0.  1.
        -12    1    3    3    0    0  0.31252869167E+02  0.22062311776E+02  0.45246621133E+01  0.38522201382E+02  0.00000000000E+00 0.  1.
</event>
<event>
 7    1  0.2405891E-015  0.9000774E+02  0.7816164E-02  0.1186339E+00
        -11   -1    0    0    0    0  0.00000000000E+00  0.00000000000E+00  0.45593999997E+02  0.45594000000E+02  0.51100000000E-03 0.  1.
         11   -1    0    0    0    0 -0.00000000000E+00 -0.00000000000E+00 -0.45593999997E+02  0.45594000000E+02  0.51100000000E-03 0. -1.
    9900012    2    1    2    0    0 -0.69379370444E+00  0.90053169484E+00 -0.31733612500E+00  0.90007741870E+02  0.90000003262E+02 0.  0.
        -12    1    1    2    0    0  0.69379370444E+00 -0.90053169484E+00  0.31733612500E+00  0.11802581302E+01  0.00000000000E+00 0.  1.
         11    1    3    3    0    0  0.22101431019E+01 -0.14846595172E+01  0.21471701596E+02  0.21636148366E+02  0.51100000000E-03 0. -1.
        -11    1    3    3    0    0  0.13040466583E+02 -0.35097933214E+01  0.19500226992E+02  0.23719849723E+02  0.51100000000E-03 0.  1.
         12    1    3    3    0    0 -0.15944403389E+02  0.58949845334E+01 -0.41289264714E+02  0.44651743781E+02  0.00000000000E+00 0. -1.
</event>
<event>
 7    1  0.7005934E-015  0.9000768E+02  0.7816164E-02  0.1186339E+00
        -11   -1    0    0    0    0  0.00000000000E+00  0.00000000000E+00  0.45593999997E+02  0.45594000000E+02  0.51100000000E-03 0. -1.
         11   -1    0    0    0    0 -0.00000000000E+00 -0.00000000000E+00 -0.45593999997E+02  0.45594000000E+02  0.51100000000E-03 0.  1.
    9900012    2    1    2    0    0 -0.32782697427E+00  0.60608407029E+00  0.95830755882E+00  0.90007677246E+02  0.89999937786E+02 0.  0.
        -12    1    1    2    0    0  0.32782697427E+00 -0.60608407029E+00 -0.95830755882E+00  0.11803227536E+01  0.00000000000E+00 0.  1.
         11    1    3    3    0    0 -0.58323998676E+01 -0.30559082439E+01 -0.65825847128E+01  0.93105255047E+01  0.51100000000E-03 0. -1.
        -11    1    3    3    0    0  0.85707261858E+01  0.93517731653E+01 -0.35228180416E+02  0.37442458578E+02  0.51100000000E-03 0.  1.
         12    1    3    3    0    0 -0.30661532925E+01 -0.56897808511E+01  0.42769072688E+02  0.43254693164E+02  0.00000000000E+00 0. -1.
</event>
<event>
 7    1  0.2405891E-015  0.9000778E+02  0.7816164E-02  0.1186339E+00
        -11   -1    0    0    0    0  0.00000000000E+00  0.00000000000E+00  0.45593999997E+02  0.45594000000E+02  0.51100000000E-03 0.  1.
         11   -1    0    0    0    0 -0.00000000000E+00 -0.00000000000E+00 -0.45593999997E+02  0.45594000000E+02  0.51100000000E-03 0. -1.
    9900012    2    1    2    0    0 -0.29833494891E+00 -0.80392093014E+00 -0.81093467587E+00  0.90007784913E+02  0.90000046874E+02 0.  0.
        -12    1    1    2    0    0  0.29833494891E+00  0.80392093014E+00  0.81093467587E+00  0.11802150873E+01  0.00000000000E+00 0.  1.
         11    1    3    3    0    0  0.36600774218E+02  0.54492468695E+01 -0.13605010068E+02  0.39425971948E+02  0.51100000000E-03 0. -1.
        -11    1    3    3    0    0  0.12608725293E+01  0.73863987787E+01 -0.14399335803E+01  0.76303404530E+01  0.51100000000E-03 0.  1.
        -12    1    3    3    0    0 -0.38159981697E+02 -0.13639566578E+02  0.14234008972E+02  0.42951472512E+02  0.00000000000E+00 0.  1.
</event>
<event>
 7    1  0.2405891E-015  0.9000778E+02  0.7816164E-02  0.1186339E+00
        -11   -1    0    0    0    0  0.00000000000E+00  0.00000000000E+00  0.45593999997E+02  0.45594000000E+02  0.51100000000E-03 0.  1.
         11   -1    0    0    0    0 -0.00000000000E+00 -0.00000000000E+00 -0.45593999997E+02  0.45594000000E+02  0.51100000000E-03 0. -1.
    9900012    2    1    2    0    0  0.22164395284E-01  0.74294390119E+00 -0.91676487213E+00  0.90007781914E+02  0.90000043835E+02 0.  0.
        -12    1    1    2    0    0 -0.22164395284E-01 -0.74294390119E+00  0.91676487213E+00  0.11802180864E+01  0.00000000000E+00 0.  1.
         11    1    3    3    0    0  0.11065054655E+00  0.92450312077E+01 -0.23944211652E+01  0.95507119396E+01  0.51100000000E-03 0. -1.
        -11    1    3    3    0    0  0.34538330374E+02  0.14576563852E+02 -0.66068540604E+01  0.38066034723E+02  0.51100000000E-03 0.  1.
         12    1    3    3    0    0 -0.34626816525E+02 -0.23078651159E+02  0.80845103535E+01  0.42391035251E+02  0.00000000000E+00 0. -1.
</event>
<event>
 7    1  0.2405891E-015  0.9000776E+02  0.7816164E-02  0.1186339E+00
        -11   -1    0    0    0    0  0.00000000000E+00  0.00000000000E+00  0.45593999997E+02  0.45594000000E+02  0.51100000000E-03 0.  1.
         11   -1    0    0    0    0 -0.00000000000E+00 -0.00000000000E+00 -0.45593999997E+02  0.45594000000E+02  0.51100000000E-03 0. -1.
    9900012    2    1    2    0    0  0.66736396493E+00 -0.71838428542E+00  0.65689805877E+00  0.90007760320E+02  0.90000021956E+02 0.  0.
        -12    1    1    2    0    0 -0.66736396493E+00  0.71838428542E+00 -0.65689805877E+00  0.11802396803E+01  0.00000000000E+00 0.  1.
         11    1    3    3    0    0 -0.40291974244E+01  0.60319283043E+01 -0.36494039651E+01  0.81201441191E+01  0.51100000000E-03 0. -1.
        -11    1    3    3    0    0 -0.71220401043E+01  0.29890425651E+02  0.23675352661E+02  0.38790247804E+02  0.51100000000E-03 0.  1.
         12    1    3    3    0    0  0.11818601494E+02 -0.36640738241E+02 -0.19369050637E+02  0.43097368396E+02  0.00000000000E+00 0. -1.
</event>
<event>
 7    1  0.2405891E-015  0.9000790E+02  0.7816164E-02  0.1186339E+00
        -11   -1    0    0    0    0  0.00000000000E+00  0.00000000000E+00  0.45593999997E+02  0.45594000000E+02  0.51100000000E-03 0. -1.
         11   -1    0    0    0    0 -0.00000000000E+00 -0.00000000000E+00 -0.45593999997E+02  0.45594000000E+02  0.51100000000E-03 0.  1.
    9900012    2    1    2    0    0  0.28908446430E+00 -0.76090772996E+00  0.85444494036E+00  0.90007904005E+02  0.90000167538E+02 0.  0.
        -12    1    1    2    0    0 -0.28908446430E+00  0.76090772996E+00 -0.85444494036E+00  0.11800959949E+01  0.00000000000E+00 0.  1.
         11    1    3    3    0    0 -0.77766267504E+01  0.96130905169E+01  0.32053265268E+02  0.34355483515E+02  0.51100000000E-03 0. -1.
        -11    1    3    3    0    0 -0.99105327623E+01  0.37968046612E+01  0.58382355249E+01  0.12112777533E+02  0.51100000000E-03 0.  1.
        -12    1    3    3    0    0  0.17976243977E+02 -0.14170802908E+02 -0.37037055853E+02  0.43539642957E+02  0.00000000000E+00 0.  1.
</event>
<event>
 7    1  0.2405891E-015  0.9000744E+02  0.7816164E-02  0.1186340E+00
        -11   -1    0    0    0    0  0.00000000000E+00  0.00000000000E+00  0.45593999997E+02  0.45594000000E+02  0.51100000000E-03 0. -1.
         11   -1    0    0    0    0 -0.00000000000E+00 -0.00000000000E+00 -0.45593999997E+02  0.45594000000E+02  0.51100000000E-03 0.  1.
    9900012    2    1    2    0    0  0.59948237268E+00  0.10166526593E+01  0.27391990058E-01  0.90007444171E+02  0.89999701633E+02 0.  0.
        -12    1    1    2    0    0 -0.59948237268E+00 -0.10166526593E+01 -0.27391990058E-01  0.11805558292E+01  0.00000000000E+00 0.  1.
         11    1    3    3    0    0 -0.94944949192E+01 -0.23922336473E+02  0.13494383823E+02  0.29060660886E+02  0.51100000000E-03 0. -1.
        -11    1    3    3    0    0  0.63092534454E+01 -0.25269456825E+01  0.17861979977E+02  0.19111317654E+02  0.51100000000E-03 0.  1.
        -12    1    3    3    0    0  0.37847238464E+01  0.27465934815E+02 -0.31328971810E+02  0.41835465631E+02  0.00000000000E+00 0.  1.
</event>
<event>
 7    1  0.2405891E-015  0.9000773E+02  0.7816164E-02  0.1186339E+00
        -11   -1    0    0    0    0  0.00000000000E+00  0.00000000000E+00  0.45593999997E+02  0.45594000000E+02  0.51100000000E-03 0.  1.
         11   -1    0    0    0    0 -0.00000000000E+00 -0.00000000000E+00 -0.45593999997E+02  0.45594000000E+02  0.51100000000E-03 0. -1.
    9900012    2    1    2    0    0  0.50899721934E+00 -0.20076311879E+00 -0.10457755767E+01  0.90007732845E+02  0.89999994119E+02 0.  0.
        -12    1    1    2    0    0 -0.50899721934E+00  0.20076311879E+00  0.10457755767E+01  0.11802671545E+01  0.00000000000E+00 0.  1.
         11    1    3    3    0    0  0.31653504135E+02  0.73667974871E+01 -0.19820015215E+02  0.38066350398E+02  0.51100000000E-03 0. -1.
        -11    1    3    3    0    0 -0.55125146128E+01  0.12883289976E+02 -0.28106121479E+00  0.14015918580E+02  0.51100000000E-03 0.  1.
        -12    1    3    3    0    0 -0.25631992303E+02 -0.20450850582E+02  0.19055300853E+02  0.37925463867E+02  0.00000000000E+00 0.  1.
</event>
<event>
 7    1  0.2405891E-015  0.9000761E+02  0.7816164E-02  0.1186339E+00
        -11   -1    0    0    0    0  0.00000000000E+00  0.00000000000E+00  0.45593999997E+02  0.45594000000E+02  0.51100000000E-03 0.  1.
         11   -1    0    0    0    0 -0.00000000000E+00 -0.00000000000E+00 -0.45593999997E+02  0.45594000000E+02  0.51100000000E-03 0. -1.
    9900012    2    1    2    0    0 -0.69960706387E+00  0.47802570212E+00 -0.82180096194E+00  0.90007612167E+02  0.89999871847E+02 0.  0.
        -12    1    1    2    0    0  0.69960706387E+00 -0.47802570212E+00  0.82180096194E+00  0.11803878332E+01  0.00000000000E+00 0.  1.
         11    1    3    3    0    0  0.11419798211E+02 -0.12030388688E+02 -0.39127900503E+02  0.42498642816E+02  0.51100000000E-03 0. -1.
        -11    1    3    3    0    0 -0.11070469103E+02 -0.25613476578E+01  0.88410071155E+01  0.14397193999E+02  0.51100000000E-03 0.  1.
        -12    1    3    3    0    0 -0.10489361724E+01  0.15069762048E+02  0.29465092426E+02  0.33111775351E+02  0.00000000000E+00 0.  1.
</event>
<event>
 7    1  0.2405891E-015  0.9000775E+02  0.7816164E-02  0.1186339E+00
        -11   -1    0    0    0    0  0.00000000000E+00  0.00000000000E+00  0.45593999997E+02  0.45594000000E+02  0.51100000000E-03 0. -1.
         11   -1    0    0    0    0 -0.00000000000E+00 -0.00000000000E+00 -0.45593999997E+02  0.45594000000E+02  0.51100000000E-03 0.  1.
    9900012    2    1    2    0    0 -0.43057906179E+00  0.82907588356E+00  0.72125916697E+00  0.90007754290E+02  0.90000015847E+02 0.  0.
        -12    1    1    2    0    0  0.43057906179E+00 -0.82907588356E+00 -0.72125916697E+00  0.11802457096E+01  0.00000000000E+00 0.  1.
         11    1    3    3    0    0  0.12520460905E+02 -0.32934965623E+02 -0.13124961163E+02  0.37599714197E+02  0.51100000000E-03 0. -1.
        -11    1    3    3    0    0  0.21725312692E+01  0.41360795331E+00 -0.89858048745E+01  0.92539533800E+01  0.51100000000E-03 0.  1.
        -12    1    3    3    0    0 -0.15123571236E+02  0.33350433554E+02  0.22832025205E+02  0.43154086714E+02  0.00000000000E+00 0.  1.
</event>
<event>
 7    1  0.2405891E-015  0.9000776E+02  0.7816164E-02  0.1186339E+00
        -11   -1    0    0    0    0  0.00000000000E+00  0.00000000000E+00  0.45593999997E+02  0.45594000000E+02  0.51100000000E-03 0. -1.
         11   -1    0    0    0    0 -0.00000000000E+00 -0.00000000000E+00 -0.45593999997E+02  0.45594000000E+02  0.51100000000E-03 0.  1.
    9900012    2    1    2    0    0  0.78262505474E+00  0.82865554913E+00  0.30625649560E+00  0.90007760602E+02  0.90000022242E+02 0.  0.
        -12    1    1    2    0    0 -0.78262505474E+00 -0.82865554913E+00 -0.30625649560E+00  0.11802393980E+01  0.00000000000E+00 0.  1.
         11    1    3    3    0    0 -0.87609411587E+01  0.15214979233E+01  0.23065211900E+01  0.91863532578E+01  0.51100000000E-03 0. -1.
        -11    1    3    3    0    0 -0.30200410174E+02 -0.17498291759E+02 -0.11285646261E+02  0.36682704385E+02  0.51100000000E-03 0.  1.
         12    1    3    3    0    0  0.39743976388E+02  0.16805449385E+02  0.92853815666E+01  0.44138702960E+02  0.00000000000E+00 0. -1.
</event>
<event>
 7    1  0.2405891E-015  0.9000779E+02  0.7816164E-02  0.1186339E+00
        -11   -1    0    0    0    0  0.00000000000E+00  0.00000000000E+00  0.45593999997E+02  0.45594000000E+02  0.51100000000E-03 0.  1.
         11   -1    0    0    0    0 -0.00000000000E+00 -0.00000000000E+00 -0.45593999997E+02  0.45594000000E+02  0.51100000000E-03 0. -1.
    9900012    2    1    2    0    0  0.74603904318E+00  0.86988292656E+00 -0.28217733666E+00  0.90007790438E+02  0.90000052472E+02 0.  0.
        -12    1    1    2    0    0 -0.74603904318E+00 -0.86988292656E+00  0.28217733666E+00  0.11802095616E+01  0.00000000000E+00 0.  1.
         11    1    3    3    0    0 -0.38752372819E+01  0.59413939972E+01  0.34315595052E+01  0.78799256038E+01  0.51100000000E-03 0. -1.
        -11    1    3    3    0    0  0.28796949261E+02 -0.33027718035E+02  0.51493472556E+01  0.44120405968E+02  0.51100000000E-03 0.  1.
         12    1    3    3    0    0 -0.24175672936E+02  0.27956206965E+02 -0.88630840975E+01  0.38007458866E+02  0.00000000000E+00 0. -1.
</event>
<event>
 7    1  0.2405891E-015  0.9000761E+02  0.7816164E-02  0.1186339E+00
        -11   -1    0    0    0    0  0.00000000000E+00  0.00000000000E+00  0.45593999997E+02  0.45594000000E+02  0.51100000000E-03 0. -1.
         11   -1    0    0    0    0 -0.00000000000E+00 -0.00000000000E+00 -0.45593999997E+02  0.45594000000E+02  0.51100000000E-03 0.  1.
    9900012    2    1    2    0    0 -0.61343957853E+00  0.59883841253E+00  0.81141761443E+00  0.90007612731E+02  0.89999872419E+02 0.  0.
        -12    1    1    2    0    0  0.61343957853E+00 -0.59883841253E+00 -0.81141761443E+00  0.11803872694E+01  0.00000000000E+00 0.  1.
         11    1    3    3    0    0  0.28805682000E+02 -0.24584470803E+02  0.65328102838E+01  0.38429690743E+02  0.51100000000E-03 0. -1.
        -11    1    3    3    0    0  0.98598334925E+00  0.29165304667E+01  0.10208675903E+02  0.10662803435E+02  0.51100000000E-03 0.  1.
        -12    1    3    3    0    0 -0.30405104927E+02  0.22266778749E+02 -0.15930068572E+02  0.40915118553E+02  0.00000000000E+00 0.  1.
</event>
<event>
 7    1  0.2405891E-015  0.9000779E+02  0.7816164E-02  0.1186339E+00
        -11   -1    0    0    0    0  0.00000000000E+00  0.00000000000E+00  0.45593999997E+02  0.45594000000E+02  0.51100000000E-03 0.  1.
         11   -1    0    0    0    0 -0.00000000000E+00 -0.00000000000E+00 -0.45593999997E+02  0.45594000000E+02  0.51100000000E-03 0. -1.
    9900012    2    1    2    0    0  0.43259049938E+00 -0.99840050458E+00  0.45711147289E+00  0.90007792812E+02  0.90000054877E+02 0.  0.
        -12    1    1    2    0    0 -0.43259049938E+00  0.99840050458E+00 -0.45711147289E+00  0.11802071879E+01  0.00000000000E+00 0.  1.
         11    1    3    3    0    0 -0.33568384302E+01  0.55374825453E+01  0.44463312948E+01  0.78550582067E+01  0.51100000000E-03 0. -1.
        -11    1    3    3    0    0 -0.38382274341E+02  0.38839047381E+01 -0.31184252223E+01  0.38704111871E+02  0.51100000000E-03 0.  1.
         12    1    3    3    0    0  0.42171703270E+02 -0.10419787788E+02 -0.87079459956E+00  0.43448622734E+02  0.00000000000E+00 0. -1.
</event>
<event>
 7    1  0.2405891E-015  0.9000776E+02  0.7816164E-02  0.1186339E+00
        -11   -1    0    0    0    0  0.00000000000E+00  0.00000000000E+00  0.45593999997E+02  0.45594000000E+02  0.51100000000E-03 0. -1.
         11   -1    0    0    0    0 -0.00000000000E+00 -0.00000000000E+00 -0.45593999997E+02  0.45594000000E+02  0.51100000000E-03 0.  1.
    9900012    2    1    2    0    0 -0.83641949645E+00  0.23293530805E-02  0.83267985056E+00  0.90007763272E+02  0.90000024947E+02 0.  0.
        -12    1    1    2    0    0  0.83641949645E+00 -0.23293530805E-02 -0.83267985056E+00  0.11802367277E+01  0.00000000000E+00 0.  1.
         11    1    3    3    0    0 -0.75421596134E+01  0.58240445408E+01  0.13828704586E+02  0.16793949423E+02  0.51100000000E-03 0. -1.
        -11    1    3    3    0    0  0.22206474833E+02  0.25547679333E+02  0.44055925546E+01  0.34135329057E+02  0.51100000000E-03 0.  1.
         12    1    3    3    0    0 -0.15500734716E+02 -0.31369394521E+02 -0.17401617290E+02  0.39078484792E+02  0.00000000000E+00 0. -1.
</event>
<event>
 7    1  0.2405891E-015  0.9000767E+02  0.7816164E-02  0.1186339E+00
        -11   -1    0    0    0    0  0.00000000000E+00  0.00000000000E+00  0.45593999997E+02  0.45594000000E+02  0.51100000000E-03 0. -1.
         11   -1    0    0    0    0 -0.00000000000E+00 -0.00000000000E+00 -0.45593999997E+02  0.45594000000E+02  0.51100000000E-03 0.  1.
    9900012    2    1    2    0    0 -0.73708072913E+00 -0.79084575058E+00 -0.47375734718E+00  0.90007673339E+02  0.89999933827E+02 0.  0.
        -12    1    1    2    0    0  0.73708072913E+00  0.79084575058E+00  0.47375734718E+00  0.11803266609E+01  0.00000000000E+00 0.  1.
         11    1    3    3    0    0  0.53280883946E+00  0.21774794030E+01  0.50472630385E+01  0.55226955602E+01  0.51100000000E-03 0. -1.
        -11    1    3    3    0    0  0.21330967015E+02  0.32627921513E+02  0.87841236451E+01  0.39959382434E+02  0.51100000000E-03 0.  1.
         12    1    3    3    0    0 -0.22600856583E+02 -0.35596246667E+02 -0.14305144031E+02  0.44525595345E+02  0.00000000000E+00 0. -1.
</event>
<event>
 7    1  0.2405891E-015  0.9000771E+02  0.7816164E-02  0.1186339E+00
        -11   -1    0    0    0    0  0.00000000000E+00  0.00000000000E+00  0.45593999997E+02  0.45594000000E+02  0.51100000000E-03 0. -1.
         11   -1    0    0    0    0 -0.00000000000E+00 -0.00000000000E+00 -0.45593999997E+02  0.45594000000E+02  0.51100000000E-03 0.  1.
    9900012    2    1    2    0    0  0.79915300994E+00 -0.73912795383E+00  0.45621854439E+00  0.90007707229E+02  0.89999968164E+02 0.  0.
        -12    1    1    2    0    0 -0.79915300994E+00  0.73912795383E+00 -0.45621854439E+00  0.11802927712E+01  0.00000000000E+00 0.  1.
         11    1    3    3    0    0  0.30603037146E+02 -0.19452146299E+02  0.78433903411E+01  0.37100547846E+02  0.51100000000E-03 0. -1.
        -11    1    3    3    0    0 -0.46248945441E+01  0.33690646447E+01 -0.20025448544E+02  0.20826877725E+02  0.51100000000E-03 0.  1.
        -12    1    3    3    0    0 -0.25178989592E+02  0.15343953700E+02  0.12638276748E+02  0.32080281657E+02  0.00000000000E+00 0.  1.
</event>
<event>
 7    1  0.2405891E-015  0.9000791E+02  0.7816164E-02  0.1186339E+00
        -11   -1    0    0    0    0  0.00000000000E+00  0.00000000000E+00  0.45593999997E+02  0.45594000000E+02  0.51100000000E-03 0.  1.
         11   -1    0    0    0    0 -0.00000000000E+00 -0.00000000000E+00 -0.45593999997E+02  0.45594000000E+02  0.51100000000E-03 0. -1.
    9900012    2    1    2    0    0 -0.11550145267E+01  0.19768872733E+00  0.13951383581E+00  0.90007913774E+02  0.90000177436E+02 0.  0.
        -12    1    1    2    0    0  0.11550145267E+01 -0.19768872733E+00 -0.13951383581E+00  0.11800862258E+01  0.00000000000E+00 0.  1.
         11    1    3    3    0    0 -0.25617580469E+02  0.28995506736E+02 -0.66595756799E+01  0.39260027871E+02  0.51100000000E-03 0. -1.
        -11    1    3    3    0    0 -0.29101369583E+01  0.41708492876E+01  0.60323748926E+01  0.78901475273E+01  0.51100000000E-03 0.  1.
        -12    1    3    3    0    0  0.27372702901E+02 -0.32968667296E+02  0.76671462312E+00  0.42857738376E+02  0.00000000000E+00 0.  1.
</event>
<event>
 7    1  0.2405891E-015  0.9000775E+02  0.7816164E-02  0.1186339E+00
        -11   -1    0    0    0    0  0.00000000000E+00  0.00000000000E+00  0.45593999997E+02  0.45594000000E+02  0.51100000000E-03 0.  1.
         11   -1    0    0    0    0 -0.00000000000E+00 -0.00000000000E+00 -0.45593999997E+02  0.45594000000E+02  0.51100000000E-03 0. -1.
    9900012    2    1    2    0    0  0.46195653117E+00  0.86000552365E+00 -0.66331420009E+00  0.90007746186E+02  0.90000007636E+02 0.  0.
        -12    1    1    2    0    0 -0.46195653117E+00 -0.86000552365E+00  0.66331420009E+00  0.11802538140E+01  0.00000000000E+00 0.  1.
         11    1    3    3    0    0 -0.44302951113E+01 -0.39199678511E+02  0.48633004837E+01  0.39747880472E+02  0.51100000000E-03 0. -1.
        -11    1    3    3    0    0 -0.87676173520E+01  0.17419564402E+01 -0.32674826439E+01  0.95174560341E+01  0.51100000000E-03 0.  1.
        -12    1    3    3    0    0  0.13659868995E+02  0.38317727595E+02 -0.22591320398E+01  0.40742409680E+02  0.00000000000E+00 0.  1.
</event>
<event>
 7    1  0.2405891E-015  0.9000775E+02  0.7816164E-02  0.1186339E+00
        -11   -1    0    0    0    0  0.00000000000E+00  0.00000000000E+00  0.45593999997E+02  0.45594000000E+02  0.51100000000E-03 0.  1.
         11   -1    0    0    0    0 -0.00000000000E+00 -0.00000000000E+00 -0.45593999997E+02  0.45594000000E+02  0.51100000000E-03 0. -1.
    9900012    2    1    2    0    0  0.25519117840E+00 -0.48749937982E+00 -0.10441350853E+01  0.90007747375E+02  0.90000008840E+02 0.  0.
        -12    1    1    2    0    0 -0.25519117840E+00  0.48749937982E+00  0.10441350853E+01  0.11802526251E+01  0.00000000000E+00 0.  1.
         11    1    3    3    0    0  0.41577785771E+01  0.95783731143E+00 -0.90815181294E+01  0.10033869982E+02  0.51100000000E-03 0. -1.
        -11    1    3    3    0    0 -0.13704271631E+01  0.37490653889E+02 -0.69909580219E+01  0.38161508014E+02  0.51100000000E-03 0.  1.
         12    1    3    3    0    0 -0.25321602356E+01 -0.38935990580E+02  0.15028341066E+02  0.41812369379E+02  0.00000000000E+00 0. -1.
</event>
<event>
 7    1  0.2405891E-015  0.9000776E+02  0.7816164E-02  0.1186339E+00
        -11   -1    0    0    0    0  0.00000000000E+00  0.00000000000E+00  0.45593999997E+02  0.45594000000E+02  0.51100000000E-03 0. -1.
         11   -1    0    0    0    0 -0.00000000000E+00 -0.00000000000E+00 -0.45593999997E+02  0.45594000000E+02  0.51100000000E-03 0.  1.
    9900012    2    1    2    0    0 -0.37544672698E+00 -0.11138020975E+01 -0.10701589118E+00  0.90007759449E+02  0.90000021074E+02 0.  0.
        -12    1    1    2    0    0  0.37544672698E+00  0.11138020975E+01  0.10701589118E+00  0.11802405510E+01  0.00000000000E+00 0.  1.
         11    1    3    3    0    0 -0.40377055443E+00  0.60414076806E+01  0.56619606956E+01  0.82897187289E+01  0.51100000000E-03 0. -1.
        -11    1    3    3    0    0 -0.22693957692E+02  0.29316987504E+02 -0.10380580690E+02  0.38500102958E+02  0.51100000000E-03 0.  1.
         12    1    3    3    0    0  0.22722281519E+02 -0.36472197282E+02  0.46116041033E+01  0.43217937762E+02  0.00000000000E+00 0. -1.
</event>
<event>
 7    1  0.2660590E-015  0.9000772E+02  0.7816164E-02  0.1186339E+00
        -11   -1    0    0    0    0  0.00000000000E+00  0.00000000000E+00  0.45593999997E+02  0.45594000000E+02  0.51100000000E-03 0. -1.
         11   -1    0    0    0    0 -0.00000000000E+00 -0.00000000000E+00 -0.45593999997E+02  0.45594000000E+02  0.51100000000E-03 0.  1.
    9900012    2    1    2    0    0  0.54558035088E+00  0.60944588485E-02  0.10465930294E+01  0.90007723748E+02  0.89999984902E+02 0.  0.
        -12    1    1    2    0    0 -0.54558035088E+00 -0.60944588485E-02 -0.10465930294E+01  0.11802762520E+01  0.00000000000E+00 0.  1.
         11    1    3    3    0    0 -0.58172533087E+01 -0.67277007811E+01  0.22438049134E+01  0.91726252844E+01  0.51100000000E-03 0. -1.
        -11    1    3    3    0    0 -0.76829029724E+01  0.96208288609E+00 -0.39175546856E+02  0.39933395464E+02  0.51100000000E-03 0.  1.
         12    1    3    3    0    0  0.14045736632E+02  0.57717123539E+01  0.37978334972E+02  0.40901703000E+02  0.00000000000E+00 0. -1.
</event>
<event>
 7    1  0.2405891E-015  0.9000766E+02  0.7816164E-02  0.1186339E+00
        -11   -1    0    0    0    0  0.00000000000E+00  0.00000000000E+00  0.45593999997E+02  0.45594000000E+02  0.51100000000E-03 0. -1.
         11   -1    0    0    0    0 -0.00000000000E+00 -0.00000000000E+00 -0.45593999997E+02  0.45594000000E+02  0.51100000000E-03 0.  1.
    9900012    2    1    2    0    0  0.10254134286E+01  0.57521740502E+00  0.10416745131E+00  0.90007661650E+02  0.89999921984E+02 0.  0.
        -12    1    1    2    0    0 -0.10254134286E+01 -0.57521740502E+00 -0.10416745131E+00  0.11803383500E+01  0.00000000000E+00 0.  1.
         11    1    3    3    0    0  0.99846790173E+01  0.43391052005E+01 -0.22883719771E+01  0.11124670583E+02  0.51100000000E-03 0. -1.
        -11    1    3    3    0    0  0.11099462482E+02 -0.20774248736E+02 -0.29368192319E+02  0.37646489854E+02  0.51100000000E-03 0.  1.
         12    1    3    3    0    0 -0.20058728071E+02  0.17010360941E+02  0.31760731748E+02  0.41236501213E+02  0.00000000000E+00 0. -1.
</event>
<event>
 7    1  0.2405891E-015  0.9000773E+02  0.7816164E-02  0.1186339E+00
        -11   -1    0    0    0    0  0.00000000000E+00  0.00000000000E+00  0.45593999997E+02  0.45594000000E+02  0.51100000000E-03 0.  1.
         11   -1    0    0    0    0 -0.00000000000E+00 -0.00000000000E+00 -0.45593999997E+02  0.45594000000E+02  0.51100000000E-03 0. -1.
    9900012    2    1    2    0    0 -0.11695588606E+01  0.15679195216E+00  0.24395904295E-01  0.90007725962E+02  0.89999987145E+02 0.  0.
        -12    1    1    2    0    0  0.11695588606E+01 -0.15679195216E+00 -0.24395904295E-01  0.11802740380E+01  0.00000000000E+00 0.  1.
         11    1    3    3    0    0 -0.87378477237E+01 -0.17228819353E+01  0.77920779664E+01  0.11833629380E+02  0.51100000000E-03 0. -1.
        -11    1    3    3    0    0 -0.27408578726E+02 -0.12450279555E+02  0.15426854645E+02  0.33826431874E+02  0.51100000000E-03 0.  1.
         12    1    3    3    0    0  0.34976867589E+02  0.14329953442E+02 -0.23194536708E+02  0.44347664708E+02  0.00000000000E+00 0. -1.
</event>
<event>
 7    1  0.2405891E-015  0.9000771E+02  0.7816164E-02  0.1186339E+00
        -11   -1    0    0    0    0  0.00000000000E+00  0.00000000000E+00  0.45593999997E+02  0.45594000000E+02  0.51100000000E-03 0.  1.
         11   -1    0    0    0    0 -0.00000000000E+00 -0.00000000000E+00 -0.45593999997E+02  0.45594000000E+02  0.51100000000E-03 0. -1.
    9900012    2    1    2    0    0 -0.62948030778E+00 -0.97212376169E-01 -0.99367413986E+00  0.90007710205E+02  0.89999971180E+02 0.  0.
        -12    1    1    2    0    0  0.62948030778E+00  0.97212376169E-01  0.99367413986E+00  0.11802897950E+01  0.00000000000E+00 0.  1.
         11    1    3    3    0    0 -0.24957402046E+01 -0.37603296257E+02 -0.19304994598E+02  0.42342879274E+02  0.51100000000E-03 0. -1.
        -11    1    3    3    0    0  0.87572531041E+01  0.50468479837E+01  0.78454850312E+00  0.10137833749E+02  0.51100000000E-03 0.  1.
        -12    1    3    3    0    0 -0.68909932072E+01  0.32459235897E+02  0.17526771955E+02  0.37526997182E+02  0.00000000000E+00 0.  1.
</event>
<event>
 7    1  0.2405891E-015  0.9000774E+02  0.7816164E-02  0.1186339E+00
        -11   -1    0    0    0    0  0.00000000000E+00  0.00000000000E+00  0.45593999997E+02  0.45594000000E+02  0.51100000000E-03 0.  1.
         11   -1    0    0    0    0 -0.00000000000E+00 -0.00000000000E+00 -0.45593999997E+02  0.45594000000E+02  0.51100000000E-03 0. -1.
    9900012    2    1    2    0    0  0.98043400085E+00  0.58225904730E+00  0.30453757997E+00  0.90007737501E+02  0.89999998836E+02 0.  0.
        -12    1    1    2    0    0 -0.98043400085E+00 -0.58225904730E+00 -0.30453757997E+00  0.11802624987E+01  0.00000000000E+00 0.  1.
         11    1    3    3    0    0  0.13622313203E+02 -0.98470928812E+01  0.56018268693E+01  0.17717593509E+02  0.51100000000E-03 0. -1.
        -11    1    3    3    0    0 -0.24698902307E+02  0.11844291943E+02  0.26586870022E+02  0.38173088487E+02  0.51100000000E-03 0.  1.
         12    1    3    3    0    0  0.12057023105E+02 -0.14149400144E+01 -0.31884159311E+02  0.34117055506E+02  0.00000000000E+00 0. -1.
</event>
<event>
 7    1  0.2405891E-015  0.9000773E+02  0.7816164E-02  0.1186339E+00
        -11   -1    0    0    0    0  0.00000000000E+00  0.00000000000E+00  0.45593999997E+02  0.45594000000E+02  0.51100000000E-03 0.  1.
         11   -1    0    0    0    0 -0.00000000000E+00 -0.00000000000E+00 -0.45593999997E+02  0.45594000000E+02  0.51100000000E-03 0. -1.
    9900012    2    1    2    0    0  0.11304328693E+01 -0.26807571090E+00 -0.20807769058E+00  0.90007729106E+02  0.89999990330E+02 0.  0.
        -12    1    1    2    0    0 -0.11304328693E+01  0.26807571090E+00  0.20807769058E+00  0.11802708944E+01  0.00000000000E+00 0.  1.
         11    1    3    3    0    0  0.26802630943E+01 -0.82698602331E+01 -0.38874610046E+01  0.95229591962E+01  0.51100000000E-03 0. -1.
        -11    1    3    3    0    0 -0.12975325479E+02  0.39991427765E+02 -0.11032263830E+02  0.43467047420E+02  0.51100000000E-03 0.  1.
         12    1    3    3    0    0  0.11425495254E+02 -0.31989643243E+02  0.14711647144E+02  0.37017722489E+02  0.00000000000E+00 0. -1.
</event>
<event>
 7    1  0.2405891E-015  0.9000774E+02  0.7816164E-02  0.1186339E+00
        -11   -1    0    0    0    0  0.00000000000E+00  0.00000000000E+00  0.45593999997E+02  0.45594000000E+02  0.51100000000E-03 0.  1.
         11   -1    0    0    0    0 -0.00000000000E+00 -0.00000000000E+00 -0.45593999997E+02  0.45594000000E+02  0.51100000000E-03 0. -1.
    9900012    2    1    2    0    0 -0.16864209791E+00  0.73155026539E+00 -0.91071520174E+00  0.90007742347E+02  0.90000003746E+02 0.  0.
        -12    1    1    2    0    0  0.16864209791E+00 -0.73155026539E+00  0.91071520174E+00  0.11802576527E+01  0.00000000000E+00 0.  1.
         11    1    3    3    0    0 -0.11515610837E+02  0.37149088615E+02 -0.18512180265E+01  0.38937014348E+02  0.51100000000E-03 0. -1.
        -11    1    3    3    0    0  0.78599222541E+01  0.51136425004E+01 -0.17229716882E+00  0.93785608724E+01  0.51100000000E-03 0.  1.
        -12    1    3    3    0    0  0.34870464854E+01 -0.41531180850E+02  0.11127999936E+01  0.41692167127E+02  0.00000000000E+00 0.  1.
</event>
<event>
 7    1  0.2405891E-015  0.9000776E+02  0.7816164E-02  0.1186339E+00
        -11   -1    0    0    0    0  0.00000000000E+00  0.00000000000E+00  0.45593999997E+02  0.45594000000E+02  0.51100000000E-03 0. -1.
         11   -1    0    0    0    0 -0.00000000000E+00 -0.00000000000E+00 -0.45593999997E+02  0.45594000000E+02  0.51100000000E-03 0.  1.
    9900012    2    1    2    0    0  0.87838772751E+00  0.19580453117E+00 -0.76358056572E+00  0.90007762865E+02  0.90000024535E+02 0.  0.
        -12    1    1    2    0    0 -0.87838772751E+00 -0.19580453117E+00  0.76358056572E+00  0.11802371349E+01  0.00000000000E+00 0.  1.
         11    1    3    3    0    0 -0.50812101312E+01  0.14522100991E+02 -0.11253231923E+01  0.15426485864E+02  0.51100000000E-03 0. -1.
        -11    1    3    3    0    0  0.33970598787E+02  0.10677579598E+02  0.74255921951E+01  0.36375152340E+02  0.51100000000E-03 0.  1.
         12    1    3    3    0    0 -0.28011000929E+02 -0.25003876057E+02 -0.70638495685E+01  0.38206124661E+02  0.00000000000E+00 0. -1.
</event>
<event>
 7    1  0.2405891E-015  0.9000781E+02  0.7816164E-02  0.1186339E+00
        -11   -1    0    0    0    0  0.00000000000E+00  0.00000000000E+00  0.45593999997E+02  0.45594000000E+02  0.51100000000E-03 0.  1.
         11   -1    0    0    0    0 -0.00000000000E+00 -0.00000000000E+00 -0.45593999997E+02  0.45594000000E+02  0.51100000000E-03 0. -1.
    9900012    2    1    2    0    0 -0.93984744007E+00 -0.51546653271E+00 -0.49378309136E+00  0.90007813278E+02  0.90000075613E+02 0.  0.
        -12    1    1    2    0    0  0.93984744007E+00  0.51546653271E+00  0.49378309136E+00  0.11801867218E+01  0.00000000000E+00 0.  1.
         11    1    3    3    0    0 -0.73335593999E+01 -0.27209059044E+01  0.63618906547E+01  0.10082562937E+02  0.51100000000E-03 0. -1.
        -11    1    3    3    0    0  0.26849045152E+02 -0.29872393943E+02  0.39952528829E+01  0.40363265370E+02  0.51100000000E-03 0.  1.
         12    1    3    3    0    0 -0.20455333192E+02  0.32077833315E+02 -0.10850926629E+02  0.39561984971E+02  0.00000000000E+00 0. -1.
</event>
<event>
 7    1  0.2405891E-015  0.9000776E+02  0.7816164E-02  0.1186339E+00
        -11   -1    0    0    0    0  0.00000000000E+00  0.00000000000E+00  0.45593999997E+02  0.45594000000E+02  0.51100000000E-03 0.  1.
         11   -1    0    0    0    0 -0.00000000000E+00 -0.00000000000E+00 -0.45593999997E+02  0.45594000000E+02  0.51100000000E-03 0. -1.
    9900012    2    1    2    0    0  0.92926284711E+00 -0.71565524335E+00  0.13140456744E+00  0.90007763148E+02  0.90000024822E+02 0.  0.
        -12    1    1    2    0    0 -0.92926284711E+00  0.71565524335E+00 -0.13140456744E+00  0.11802368520E+01  0.00000000000E+00 0.  1.
         11    1    3    3    0    0 -0.79752940119E+01  0.20888210127E+01  0.40566121693E+01  0.91882854958E+01  0.51100000000E-03 0. -1.
        -11    1    3    3    0    0 -0.30752281490E+02  0.15342242420E+02 -0.12126176657E+02  0.36443536874E+02  0.51100000000E-03 0.  1.
         12    1    3    3    0    0  0.39656838349E+02 -0.18146718676E+02  0.82009690551E+01  0.44375940778E+02  0.00000000000E+00 0. -1.
</event>
<event>
 7    1  0.2405891E-015  0.9000781E+02  0.7816164E-02  0.1186339E+00
        -11   -1    0    0    0    0  0.00000000000E+00  0.00000000000E+00  0.45593999997E+02  0.45594000000E+02  0.51100000000E-03 0.  1.
         11   -1    0    0    0    0 -0.00000000000E+00 -0.00000000000E+00 -0.45593999997E+02  0.45594000000E+02  0.51100000000E-03 0. -1.
    9900012    2    1    2    0    0 -0.48702533665E-01 -0.14124988015E+00 -0.11706965787E+01  0.90007807666E+02  0.90000069927E+02 0.  0.
        -12    1    1    2    0    0  0.48702533665E-01  0.14124988015E+00  0.11706965787E+01  0.11801923338E+01  0.00000000000E+00 0.  1.
         11    1    3    3    0    0  0.52367317433E+01 -0.66667236581E+01 -0.43801037702E+01  0.95422153080E+01  0.51100000000E-03 0. -1.
        -11    1    3    3    0    0  0.18398218331E+02  0.22728427243E+02 -0.26282174629E+02  0.39317026161E+02  0.51100000000E-03 0.  1.
         12    1    3    3    0    0 -0.23683652608E+02 -0.16202953465E+02  0.29491581820E+02  0.41148566197E+02  0.00000000000E+00 0. -1.
</event>
<event>
 7    1  0.2405891E-015  0.9000779E+02  0.7816164E-02  0.1186339E+00
        -11   -1    0    0    0    0  0.00000000000E+00  0.00000000000E+00  0.45593999997E+02  0.45594000000E+02  0.51100000000E-03 0.  1.
         11   -1    0    0    0    0 -0.00000000000E+00 -0.00000000000E+00 -0.45593999997E+02  0.45594000000E+02  0.51100000000E-03 0. -1.
    9900012    2    1    2    0    0 -0.35824985413E+00  0.94737274109E+00 -0.60583674990E+00  0.90007789749E+02  0.90000051774E+02 0.  0.
        -12    1    1    2    0    0  0.35824985413E+00 -0.94737274109E+00  0.60583674990E+00  0.11802102508E+01  0.00000000000E+00 0.  1.
         11    1    3    3    0    0 -0.20988414935E+02 -0.52636525492E+01 -0.31062079429E+02  0.37855942445E+02  0.51100000000E-03 0. -1.
        -11    1    3    3    0    0 -0.92882515207E+01 -0.85084458942E+00  0.67569705307E+00  0.93515838015E+01  0.51100000000E-03 0.  1.
        -12    1    3    3    0    0  0.29918416602E+02  0.70618698797E+01  0.29780545626E+02  0.42800263503E+02  0.00000000000E+00 0.  1.
</event>
<event>
 7    1  0.2405891E-015  0.9000778E+02  0.7816164E-02  0.1186339E+00
        -11   -1    0    0    0    0  0.00000000000E+00  0.00000000000E+00  0.45593999997E+02  0.45594000000E+02  0.51100000000E-03 0.  1.
         11   -1    0    0    0    0 -0.00000000000E+00 -0.00000000000E+00 -0.45593999997E+02  0.45594000000E+02  0.51100000000E-03 0. -1.
    9900012    2    1    2    0    0  0.11688529893E+01 -0.13750851731E+00  0.88328728330E-01  0.90007776349E+02  0.90000038196E+02 0.  0.
        -12    1    1    2    0    0 -0.11688529893E+01  0.13750851731E+00 -0.88328728330E-01  0.11802236513E+01  0.00000000000E+00 0.  1.
         11    1    3    3    0    0  0.13125783897E+02 -0.36943394168E+02 -0.17621177778E+02  0.42983793249E+02  0.51100000000E-03 0. -1.
        -11    1    3    3    0    0  0.27461696425E+01  0.76956113902E+01 -0.26357059207E+01  0.85855010533E+01  0.51100000000E-03 0.  1.
        -12    1    3    3    0    0 -0.14703100550E+02  0.29110274260E+02  0.20345212427E+02  0.38438482046E+02  0.00000000000E+00 0.  1.
</event>
<event>
 7    1  0.2405891E-015  0.9000776E+02  0.7816164E-02  0.1186339E+00
        -11   -1    0    0    0    0  0.00000000000E+00  0.00000000000E+00  0.45593999997E+02  0.45594000000E+02  0.51100000000E-03 0.  1.
         11   -1    0    0    0    0 -0.00000000000E+00 -0.00000000000E+00 -0.45593999997E+02  0.45594000000E+02  0.51100000000E-03 0. -1.
    9900012    2    1    2    0    0 -0.13378708428E+00 -0.49104523337E+00 -0.10648705356E+01  0.90007756948E+02  0.90000018539E+02 0.  0.
        -12    1    1    2    0    0  0.13378708428E+00  0.49104523337E+00  0.10648705356E+01  0.11802430524E+01  0.00000000000E+00 0.  1.
         11    1    3    3    0    0  0.17754324957E+02  0.20708328768E+02 -0.28787202178E+02  0.39657961931E+02  0.51100000000E-03 0. -1.
        -11    1    3    3    0    0 -0.76617867585E+01  0.40523321805E+01 -0.31071722534E+01  0.92075453900E+01  0.51100000000E-03 0.  1.
        -12    1    3    3    0    0 -0.10226325283E+02 -0.25251706182E+02  0.30829503896E+02  0.41142249627E+02  0.00000000000E+00 0.  1.
</event>
<event>
 7    1  0.2405891E-015  0.9000774E+02  0.7816164E-02  0.1186339E+00
        -11   -1    0    0    0    0  0.00000000000E+00  0.00000000000E+00  0.45593999997E+02  0.45594000000E+02  0.51100000000E-03 0. -1.
         11   -1    0    0    0    0 -0.00000000000E+00 -0.00000000000E+00 -0.45593999997E+02  0.45594000000E+02  0.51100000000E-03 0.  1.
    9900012    2    1    2    0    0 -0.10056471472E+01 -0.47363485539E+00  0.39667071201E+00  0.90007744174E+02  0.90000005597E+02 0.  0.
        -12    1    1    2    0    0  0.10056471472E+01  0.47363485539E+00 -0.39667071201E+00  0.11802558259E+01  0.00000000000E+00 0.  1.
         11    1    3    3    0    0  0.10345946983E+02  0.36744986952E+02 -0.32712493350E+01  0.38313623654E+02  0.51100000000E-03 0. -1.
        -11    1    3    3    0    0 -0.10514458485E+00  0.38424010368E-01  0.11912419756E+02  0.11912945752E+02  0.51100000000E-03 0.  1.
        -12    1    3    3    0    0 -0.11246449545E+02 -0.37257045818E+02 -0.82444997091E+01  0.39781174767E+02  0.00000000000E+00 0.  1.
</event>
<event>
 7    1  0.2405891E-015  0.9000772E+02  0.7816164E-02  0.1186339E+00
        -11   -1    0    0    0    0  0.00000000000E+00  0.00000000000E+00  0.45593999997E+02  0.45594000000E+02  0.51100000000E-03 0.  1.
         11   -1    0    0    0    0 -0.00000000000E+00 -0.00000000000E+00 -0.45593999997E+02  0.45594000000E+02  0.51100000000E-03 0. -1.
    9900012    2    1    2    0    0 -0.97823519963E+00 -0.41533065635E+00 -0.51344698978E+00  0.90007715513E+02  0.89999976557E+02 0.  0.
        -12    1    1    2    0    0  0.97823519963E+00  0.41533065635E+00  0.51344698978E+00  0.11802844874E+01  0.00000000000E+00 0.  1.
         11    1    3    3    0    0  0.32238657919E+02 -0.24965090069E+02 -0.11446565599E+02  0.42351040730E+02  0.51100000000E-03 0. -1.
        -11    1    3    3    0    0 -0.90389933332E+01  0.24246950967E+01 -0.56447212472E+01  0.10929109067E+02  0.51100000000E-03 0.  1.
        -12    1    3    3    0    0 -0.24177899786E+02  0.22125064316E+02  0.16577839857E+02  0.36727565715E+02  0.00000000000E+00 0.  1.
</event>
<event>
 7    1  0.2405891E-015  0.9000754E+02  0.7816164E-02  0.1186339E+00
        -11   -1    0    0    0    0  0.00000000000E+00  0.00000000000E+00  0.45593999997E+02  0.45594000000E+02  0.51100000000E-03 0.  1.
         11   -1    0    0    0    0 -0.00000000000E+00 -0.00000000000E+00 -0.45593999997E+02  0.45594000000E+02  0.51100000000E-03 0. -1.
    9900012    2    1    2    0    0  0.98699496924E+00 -0.54196416510E-01 -0.64528937276E+00  0.90007536237E+02  0.89999794915E+02 0.  0.
        -12    1    1    2    0    0 -0.98699496924E+00  0.54196416510E-01  0.64528937276E+00  0.11804637629E+01  0.00000000000E+00 0.  1.
         11    1    3    3    0    0 -0.33726863883E+02 -0.31546314360E+01 -0.10576964587E+02  0.35486972638E+02  0.51100000000E-03 0. -1.
        -11    1    3    3    0    0 -0.51365433338E+01  0.11100393764E+02 -0.14363733299E+01  0.12315274570E+02  0.51100000000E-03 0.  1.
        -12    1    3    3    0    0  0.39850402186E+02 -0.79999587443E+01  0.11368048544E+02  0.42205289029E+02  0.00000000000E+00 0.  1.
</event>
<event>
 7    1  0.2405891E-015  0.9000755E+02  0.7816164E-02  0.1186339E+00
        -11   -1    0    0    0    0  0.00000000000E+00  0.00000000000E+00  0.45593999997E+02  0.45594000000E+02  0.51100000000E-03 0. -1.
         11   -1    0    0    0    0 -0.00000000000E+00 -0.00000000000E+00 -0.45593999997E+02  0.45594000000E+02  0.51100000000E-03 0.  1.
    9900012    2    1    2    0    0  0.10314126688E+01 -0.32206627508E+00 -0.47532625291E+00  0.90007545077E+02  0.89999803872E+02 0.  0.
        -12    1    1    2    0    0 -0.10314126688E+01  0.32206627508E+00  0.47532625291E+00  0.11804549231E+01  0.00000000000E+00 0.  1.
         11    1    3    3    0    0  0.11709878253E+02 -0.32793550574E+01 -0.46922345408E+01  0.13034281090E+02  0.51100000000E-03 0. -1.
        -11    1    3    3    0    0 -0.28961212077E+02 -0.21675958081E+02 -0.16700837737E+02  0.39843656271E+02  0.51100000000E-03 0.  1.
         12    1    3    3    0    0  0.18282746493E+02  0.24633246863E+02  0.20917746025E+02  0.37129607716E+02  0.00000000000E+00 0. -1.
</event>
<event>
 7    1  0.2405891E-015  0.9000744E+02  0.7816164E-02  0.1186340E+00
        -11   -1    0    0    0    0  0.00000000000E+00  0.00000000000E+00  0.45593999997E+02  0.45594000000E+02  0.51100000000E-03 0. -1.
         11   -1    0    0    0    0 -0.00000000000E+00 -0.00000000000E+00 -0.45593999997E+02  0.45594000000E+02  0.51100000000E-03 0.  1.
    9900012    2    1    2    0    0  0.51510937465E+00  0.66314692968E+00  0.82983432134E+00  0.90007438049E+02  0.89999695431E+02 0.  0.
        -12    1    1    2    0    0 -0.51510937465E+00 -0.66314692968E+00 -0.82983432134E+00  0.11805619505E+01  0.00000000000E+00 0.  1.
         11    1    3    3    0    0 -0.26248468795E+02 -0.26586545525E+02  0.13076964252E+02  0.39583247862E+02  0.51100000000E-03 0. -1.
        -11    1    3    3    0    0 -0.53945413063E+01  0.97401330471E+00 -0.64963260708E+01  0.85001194405E+01  0.51100000000E-03 0.  1.
        -12    1    3    3    0    0  0.32158119475E+02  0.26275679150E+02 -0.57508038600E+01  0.41924070747E+02  0.00000000000E+00 0.  1.
</event>
<event>
 7    1  0.2405891E-015  0.9000783E+02  0.7816164E-02  0.1186339E+00
        -11   -1    0    0    0    0  0.00000000000E+00  0.00000000000E+00  0.45593999997E+02  0.45594000000E+02  0.51100000000E-03 0.  1.
         11   -1    0    0    0    0 -0.00000000000E+00 -0.00000000000E+00 -0.45593999997E+02  0.45594000000E+02  0.51100000000E-03 0. -1.
    9900012    2    1    2    0    0  0.84471214230E-01  0.20735890760E+00 -0.11587359625E+01  0.90007829617E+02  0.90000092168E+02 0.  0.
        -12    1    1    2    0    0 -0.84471214230E-01 -0.20735890760E+00  0.11587359625E+01  0.11801703832E+01  0.00000000000E+00 0.  1.
         11    1    3    3    0    0 -0.79832441560E+01 -0.51334454459E+01 -0.59766309999E+00  0.95100815371E+01  0.51100000000E-03 0. -1.
        -11    1    3    3    0    0 -0.12219396759E+02 -0.31661131150E+02  0.12744360073E+02  0.36251339241E+02  0.51100000000E-03 0.  1.
         12    1    3    3    0    0  0.20287112129E+02  0.37001935503E+02 -0.13305432936E+02  0.44246408839E+02  0.00000000000E+00 0. -1.
</event>
<event>
 7    1  0.2405891E-015  0.9000763E+02  0.7816164E-02  0.1186339E+00
        -11   -1    0    0    0    0  0.00000000000E+00  0.00000000000E+00  0.45593999997E+02  0.45594000000E+02  0.51100000000E-03 0.  1.
         11   -1    0    0    0    0 -0.00000000000E+00 -0.00000000000E+00 -0.45593999997E+02  0.45594000000E+02  0.51100000000E-03 0. -1.
    9900012    2    1    2    0    0  0.33922775941E+00  0.33881924651E-01 -0.11300675066E+01  0.90007628860E+02  0.89999888761E+02 0.  0.
        -12    1    1    2    0    0 -0.33922775941E+00 -0.33881924651E-01  0.11300675066E+01  0.11803711395E+01  0.00000000000E+00 0.  1.
         11    1    3    3    0    0  0.91981594720E+01  0.33226062210E+02 -0.16289084881E+02  0.38130193209E+02  0.51100000000E-03 0. -1.
        -11    1    3    3    0    0  0.78024318065E+01  0.20950845877E+01 -0.32776569954E+01  0.87183918911E+01  0.51100000000E-03 0.  1.
        -12    1    3    3    0    0 -0.16661363519E+02 -0.35287264873E+02  0.18436674370E+02  0.43159043761E+02  0.00000000000E+00 0.  1.
</event>
<event>
 7    1  0.2405891E-015  0.9000805E+02  0.7816164E-02  0.1186338E+00
        -11   -1    0    0    0    0  0.00000000000E+00  0.00000000000E+00  0.45593999997E+02  0.45594000000E+02  0.51100000000E-03 0. -1.
         11   -1    0    0    0    0 -0.00000000000E+00 -0.00000000000E+00 -0.45593999997E+02  0.45594000000E+02  0.51100000000E-03 0.  1.
    9900012    2    1    2    0    0 -0.78658405293E+00  0.64322884829E+00  0.59985828994E+00  0.90008047547E+02  0.90000312974E+02 0.  0.
        -12    1    1    2    0    0  0.78658405293E+00 -0.64322884829E+00 -0.59985828994E+00  0.11799524531E+01  0.00000000000E+00 0.  1.
         11    1    3    3    0    0  0.22829104944E+02  0.23386125312E+02 -0.24827577810E+02  0.41042508571E+02  0.51100000000E-03 0. -1.
        -11    1    3    3    0    0  0.25407253997E+01  0.84170871011E+00  0.10287636951E+02  0.10630109755E+02  0.51100000000E-03 0.  1.
        -12    1    3    3    0    0 -0.26156414396E+02 -0.23584605174E+02  0.15139799149E+02  0.38335429221E+02  0.00000000000E+00 0.  1.
</event>
<event>
 7    1  0.2405891E-015  0.9000776E+02  0.7816164E-02  0.1186339E+00
        -11   -1    0    0    0    0  0.00000000000E+00  0.00000000000E+00  0.45593999997E+02  0.45594000000E+02  0.51100000000E-03 0.  1.
         11   -1    0    0    0    0 -0.00000000000E+00 -0.00000000000E+00 -0.45593999997E+02  0.45594000000E+02  0.51100000000E-03 0. -1.
    9900012    2    1    2    0    0 -0.95114403252E+00 -0.38414438684E+00 -0.58372203639E+00  0.90007757103E+02  0.90000018697E+02 0.  0.
        -12    1    1    2    0    0  0.95114403252E+00  0.38414438684E+00  0.58372203639E+00  0.11802428972E+01  0.00000000000E+00 0.  1.
         11    1    3    3    0    0 -0.37999337032E+00  0.29928695070E+02  0.21315278018E+02  0.36745234531E+02  0.51100000000E-03 0. -1.
        -11    1    3    3    0    0 -0.43210343089E+01  0.77856891487E+01  0.48236859301E+00  0.89174532653E+01  0.51100000000E-03 0.  1.
        -12    1    3    3    0    0  0.37498836467E+01 -0.38098528605E+02 -0.22381368647E+02  0.44345069306E+02  0.00000000000E+00 0.  1.
</event>
<event>
 7    1  0.2405891E-015  0.9000732E+02  0.7816164E-02  0.1186340E+00
        -11   -1    0    0    0    0  0.00000000000E+00  0.00000000000E+00  0.45593999997E+02  0.45594000000E+02  0.51100000000E-03 0.  1.
         11   -1    0    0    0    0 -0.00000000000E+00 -0.00000000000E+00 -0.45593999997E+02  0.45594000000E+02  0.51100000000E-03 0. -1.
    9900012    2    1    2    0    0  0.74274010911E+00  0.57240462382E-01 -0.91599902843E+00  0.90007324956E+02  0.89999580844E+02 0.  0.
        -12    1    1    2    0    0 -0.74274010911E+00 -0.57240462382E-01  0.91599902843E+00  0.11806750443E+01  0.00000000000E+00 0.  1.
         11    1    3    3    0    0 -0.34752638074E+02  0.14460333161E+02 -0.34341462129E+01  0.37797360341E+02  0.51100000000E-03 0. -1.
        -11    1    3    3    0    0  0.15877344284E+01  0.10044226697E+02 -0.12170184192E+01  0.10241509881E+02  0.51100000000E-03 0.  1.
        -12    1    3    3    0    0  0.33907643755E+02 -0.24447319395E+02  0.37351656036E+01  0.41968454734E+02  0.00000000000E+00 0.  1.
</event>
<event>
 7    1  0.2405891E-015  0.9000777E+02  0.7816164E-02  0.1186339E+00
        -11   -1    0    0    0    0  0.00000000000E+00  0.00000000000E+00  0.45593999997E+02  0.45594000000E+02  0.51100000000E-03 0.  1.
         11   -1    0    0    0    0 -0.00000000000E+00 -0.00000000000E+00 -0.45593999997E+02  0.45594000000E+02  0.51100000000E-03 0. -1.
    9900012    2    1    2    0    0 -0.95017698306E+00  0.69662762465E+00  0.69327261875E-01  0.90007774337E+02  0.90000036158E+02 0.  0.
        -12    1    1    2    0    0  0.95017698306E+00 -0.69662762465E+00 -0.69327261875E-01  0.11802256631E+01  0.00000000000E+00 0.  1.
         11    1    3    3    0    0  0.19047669233E+01 -0.87539034321E+01  0.12907855809E+01  0.90512479806E+01  0.51100000000E-03 0. -1.
        -11    1    3    3    0    0 -0.30344843281E+02 -0.40422266315E+00  0.26797755494E+02  0.40485708707E+02  0.51100000000E-03 0.  1.
         12    1    3    3    0    0  0.27489899375E+02  0.98547537199E+01 -0.28019213813E+02  0.40470817649E+02  0.00000000000E+00 0. -1.
</event>
<event>
 7    1  0.2405891E-015  0.9000774E+02  0.7816164E-02  0.1186339E+00
        -11   -1    0    0    0    0  0.00000000000E+00  0.00000000000E+00  0.45593999997E+02  0.45594000000E+02  0.51100000000E-03 0. -1.
         11   -1    0    0    0    0 -0.00000000000E+00 -0.00000000000E+00 -0.45593999997E+02  0.45594000000E+02  0.51100000000E-03 0.  1.
    9900012    2    1    2    0    0  0.20550707175E+00  0.93936780959E+00  0.68437016516E+00  0.90007742587E+02  0.90000003989E+02 0.  0.
        -12    1    1    2    0    0 -0.20550707175E+00 -0.93936780959E+00 -0.68437016516E+00  0.11802574131E+01  0.00000000000E+00 0.  1.
         11    1    3    3    0    0  0.22950670144E+01  0.18575390047E+00  0.77841309215E+01  0.81175446766E+01  0.51100000000E-03 0. -1.
        -11    1    3    3    0    0 -0.19129469486E+02  0.35099932083E+02 -0.15086221172E+02  0.42726290555E+02  0.51100000000E-03 0.  1.
         12    1    3    3    0    0  0.17039909544E+02 -0.34346318174E+02  0.79864604158E+01  0.39163907355E+02  0.00000000000E+00 0. -1.
</event>
<event>
 7    1  0.2405891E-015  0.9000804E+02  0.7816164E-02  0.1186338E+00
        -11   -1    0    0    0    0  0.00000000000E+00  0.00000000000E+00  0.45593999997E+02  0.45594000000E+02  0.51100000000E-03 0.  1.
         11   -1    0    0    0    0 -0.00000000000E+00 -0.00000000000E+00 -0.45593999997E+02  0.45594000000E+02  0.51100000000E-03 0. -1.
    9900012    2    1    2    0    0 -0.35560395420E+00 -0.59940520521E+00 -0.95213538405E+00  0.90008041288E+02  0.90000306633E+02 0.  0.
        -12    1    1    2    0    0  0.35560395420E+00  0.59940520521E+00  0.95213538405E+00  0.11799587119E+01  0.00000000000E+00 0.  1.
         11    1    3    3    0    0  0.50886301947E+01  0.26732686143E+01  0.10030023257E+02  0.11560358522E+02  0.51100000000E-03 0. -1.
        -11    1    3    3    0    0 -0.19196155078E+02 -0.36631347481E+02 -0.28098639387E+01  0.41451698682E+02  0.51100000000E-03 0.  1.
         12    1    3    3    0    0  0.13751920929E+02  0.33358673661E+02 -0.81722947029E+01  0.36995984084E+02  0.00000000000E+00 0. -1.
</event>
<event>
 7    1  0.2405891E-015  0.9000789E+02  0.7816164E-02  0.1186339E+00
        -11   -1    0    0    0    0  0.00000000000E+00  0.00000000000E+00  0.45593999997E+02  0.45594000000E+02  0.51100000000E-03 0.  1.
         11   -1    0    0    0    0 -0.00000000000E+00 -0.00000000000E+00 -0.45593999997E+02  0.45594000000E+02  0.51100000000E-03 0. -1.
    9900012    2    1    2    0    0  0.11614165610E+01 -0.20295711723E+00  0.50829501372E-01  0.90007888286E+02  0.90000151611E+02 0.  0.
        -12    1    1    2    0    0 -0.11614165610E+01  0.20295711723E+00 -0.50829501372E-01  0.11801117141E+01  0.00000000000E+00 0.  1.
         11    1    3    3    0    0  0.41991109447E+01 -0.20114043441E+02 -0.26449914819E+02  0.33493361588E+02  0.51100000000E-03 0. -1.
        -11    1    3    3    0    0 -0.64839312998E+01 -0.84869673006E+01 -0.67633314865E+01  0.12641702105E+02  0.51100000000E-03 0.  1.
        -12    1    3    3    0    0  0.34462369161E+01  0.28398053624E+02  0.33264075806E+02  0.43872824593E+02  0.00000000000E+00 0.  1.
</event>
<event>
 7    1  0.2405891E-015  0.9000769E+02  0.7816164E-02  0.1186339E+00
        -11   -1    0    0    0    0  0.00000000000E+00  0.00000000000E+00  0.45593999997E+02  0.45594000000E+02  0.51100000000E-03 0.  1.
         11   -1    0    0    0    0 -0.00000000000E+00 -0.00000000000E+00 -0.45593999997E+02  0.45594000000E+02  0.51100000000E-03 0. -1.
    9900012    2    1    2    0    0  0.33214353410E+00  0.43841726330E+00 -0.10443193388E+01  0.90007689911E+02  0.89999950618E+02 0.  0.
        -12    1    1    2    0    0 -0.33214353410E+00 -0.43841726330E+00  0.10443193388E+01  0.11803100887E+01  0.00000000000E+00 0.  1.
         11    1    3    3    0    0 -0.12430713995E+01  0.87945663914E+01  0.85971851809E-01  0.88823992219E+01  0.51100000000E-03 0. -1.
        -11    1    3    3    0    0  0.12694027894E+02 -0.42337681574E+00  0.37795611786E+02  0.39872620464E+02  0.51100000000E-03 0.  1.
         12    1    3    3    0    0 -0.11118812961E+02 -0.79327723124E+01 -0.38925902977E+02  0.41252670226E+02  0.00000000000E+00 0. -1.
</event>
<event>
 7    1  0.2405891E-015  0.9000773E+02  0.7816164E-02  0.1186339E+00
        -11   -1    0    0    0    0  0.00000000000E+00  0.00000000000E+00  0.45593999997E+02  0.45594000000E+02  0.51100000000E-03 0. -1.
         11   -1    0    0    0    0 -0.00000000000E+00 -0.00000000000E+00 -0.45593999997E+02  0.45594000000E+02  0.51100000000E-03 0.  1.
    9900012    2    1    2    0    0  0.41183697782E+00 -0.10718172597E+01  0.27321573572E+00  0.90007725128E+02  0.89999986300E+02 0.  0.
        -12    1    1    2    0    0 -0.41183697782E+00  0.10718172597E+01 -0.27321573572E+00  0.11802748717E+01  0.00000000000E+00 0.  1.
         11    1    3    3    0    0 -0.25995645207E+02 -0.17166784146E+02  0.19008495041E+02  0.36493765654E+02  0.51100000000E-03 0. -1.
        -11    1    3    3    0    0 -0.10078432342E+02 -0.39885603650E+00 -0.37520420355E+01  0.10761584656E+02  0.51100000000E-03 0.  1.
        -12    1    3    3    0    0  0.36485914527E+02  0.16493822923E+02 -0.14983237270E+02  0.42752374818E+02  0.00000000000E+00 0.  1.
</event>
<event>
 7    1  0.2405891E-015  0.9000779E+02  0.7816164E-02  0.1186339E+00
        -11   -1    0    0    0    0  0.00000000000E+00  0.00000000000E+00  0.45593999997E+02  0.45594000000E+02  0.51100000000E-03 0.  1.
         11   -1    0    0    0    0 -0.00000000000E+00 -0.00000000000E+00 -0.45593999997E+02  0.45594000000E+02  0.51100000000E-03 0. -1.
    9900012    2    1    2    0    0 -0.81529351701E+00  0.78695622620E+00 -0.32997968110E+00  0.90007792302E+02  0.90000054360E+02 0.  0.
        -12    1    1    2    0    0  0.81529351701E+00 -0.78695622620E+00  0.32997968110E+00  0.11802076981E+01  0.00000000000E+00 0.  1.
         11    1    3    3    0    0  0.72298930759E+01  0.47503218770E+01 -0.20122877359E+01  0.88817911491E+01  0.51100000000E-03 0. -1.
        -11    1    3    3    0    0 -0.27453156394E+02  0.28449138142E+02  0.13117404412E+02  0.41654478220E+02  0.51100000000E-03 0.  1.
         12    1    3    3    0    0  0.19407969801E+02 -0.32412503793E+02 -0.11435096357E+02  0.39471522933E+02  0.00000000000E+00 0. -1.
</event>
<event>
 7    1  0.2405891E-015  0.9000771E+02  0.7816164E-02  0.1186339E+00
        -11   -1    0    0    0    0  0.00000000000E+00  0.00000000000E+00  0.45593999997E+02  0.45594000000E+02  0.51100000000E-03 0.  1.
         11   -1    0    0    0    0 -0.00000000000E+00 -0.00000000000E+00 -0.45593999997E+02  0.45594000000E+02  0.51100000000E-03 0. -1.
    9900012    2    1    2    0    0 -0.41933265879E+00 -0.34395238454E+00 -0.10483026133E+01  0.90007711268E+02  0.89999972257E+02 0.  0.
        -12    1    1    2    0    0  0.41933265879E+00  0.34395238454E+00  0.10483026133E+01  0.11802887318E+01  0.00000000000E+00 0.  1.
         11    1    3    3    0    0  0.38739355671E+02 -0.15868173920E+02  0.12922619753E+02  0.43812449405E+02  0.51100000000E-03 0. -1.
        -11    1    3    3    0    0 -0.43745362256E+01  0.57068649017E+01 -0.55522379928E+01  0.90847246070E+01  0.51100000000E-03 0.  1.
        -12    1    3    3    0    0 -0.34784152104E+02  0.98173566335E+01 -0.84186843738E+01  0.37110537256E+02  0.00000000000E+00 0.  1.
</event>
<event>
 7    1  0.2405891E-015  0.9000771E+02  0.7816164E-02  0.1186339E+00
        -11   -1    0    0    0    0  0.00000000000E+00  0.00000000000E+00  0.45593999997E+02  0.45594000000E+02  0.51100000000E-03 0.  1.
         11   -1    0    0    0    0 -0.00000000000E+00 -0.00000000000E+00 -0.45593999997E+02  0.45594000000E+02  0.51100000000E-03 0. -1.
    9900012    2    1    2    0    0  0.11716766566E+01  0.10777413819E+00 -0.92968537711E-01  0.90007709950E+02  0.89999970922E+02 0.  0.
        -12    1    1    2    0    0 -0.11716766566E+01 -0.10777413819E+00  0.92968537711E-01  0.11802900498E+01  0.00000000000E+00 0.  1.
         11    1    3    3    0    0 -0.27452494531E+01 -0.11187798589E+02 -0.40473420443E+02  0.42080886331E+02  0.51100000000E-03 0. -1.
        -11    1    3    3    0    0 -0.74870843430E+01 -0.22160147451E+01  0.90600347502E+01  0.11960408992E+02  0.51100000000E-03 0.  1.
        -12    1    3    3    0    0  0.11404010453E+02  0.13511587472E+02  0.31320417155E+02  0.35966414628E+02  0.00000000000E+00 0.  1.
</event>
<event>
 7    1  0.2405891E-015  0.9000754E+02  0.7816164E-02  0.1186339E+00
        -11   -1    0    0    0    0  0.00000000000E+00  0.00000000000E+00  0.45593999997E+02  0.45594000000E+02  0.51100000000E-03 0.  1.
         11   -1    0    0    0    0 -0.00000000000E+00 -0.00000000000E+00 -0.45593999997E+02  0.45594000000E+02  0.51100000000E-03 0. -1.
    9900012    2    1    2    0    0  0.24750822548E+00 -0.98972464409E-01 -0.11499714656E+01  0.90007538123E+02  0.89999796826E+02 0.  0.
        -12    1    1    2    0    0 -0.24750822548E+00  0.98972464409E-01  0.11499714656E+01  0.11804618766E+01  0.00000000000E+00 0.  1.
         11    1    3    3    0    0 -0.23457688780E+01 -0.11971904573E+02  0.11675488148E+02  0.16886271184E+02  0.51100000000E-03 0. -1.
        -11    1    3    3    0    0 -0.62406306502E+01 -0.82852332145E+01  0.26277152973E+02  0.28250297856E+02  0.51100000000E-03 0.  1.
         12    1    3    3    0    0  0.88339077537E+01  0.20158165324E+02 -0.39102612586E+02  0.44870969083E+02  0.00000000000E+00 0. -1.
</event>
<event>
 7    1  0.2405891E-015  0.9000767E+02  0.7816164E-02  0.1186339E+00
        -11   -1    0    0    0    0  0.00000000000E+00  0.00000000000E+00  0.45593999997E+02  0.45594000000E+02  0.51100000000E-03 0. -1.
         11   -1    0    0    0    0 -0.00000000000E+00 -0.00000000000E+00 -0.45593999997E+02  0.45594000000E+02  0.51100000000E-03 0.  1.
    9900012    2    1    2    0    0 -0.76789216001E+00 -0.85701575311E+00 -0.26274188992E+00  0.90007674760E+02  0.89999935267E+02 0.  0.
        -12    1    1    2    0    0  0.76789216001E+00  0.85701575311E+00  0.26274188992E+00  0.11803252396E+01  0.00000000000E+00 0.  1.
         11    1    3    3    0    0 -0.18793391671E+02 -0.29951284807E+02  0.45343421697E+01  0.35648720752E+02  0.51100000000E-03 0. -1.
        -11    1    3    3    0    0 -0.35383595803E+01 -0.74539185073E+01  0.64331552912E+01  0.10462618071E+02  0.51100000000E-03 0.  1.
        -12    1    3    3    0    0  0.21563859091E+02  0.36548187561E+02 -0.11230239351E+02  0.43896335938E+02  0.00000000000E+00 0.  1.
</event>
<event>
 7    1  0.2405891E-015  0.9000792E+02  0.7816164E-02  0.1186339E+00
        -11   -1    0    0    0    0  0.00000000000E+00  0.00000000000E+00  0.45593999997E+02  0.45594000000E+02  0.51100000000E-03 0. -1.
         11   -1    0    0    0    0 -0.00000000000E+00 -0.00000000000E+00 -0.45593999997E+02  0.45594000000E+02  0.51100000000E-03 0.  1.
    9900012    2    1    2    0    0  0.69723788009E+00  0.29692623672E+00 -0.90458713547E+00  0.90007922148E+02  0.90000185920E+02 0.  0.
        -12    1    1    2    0    0 -0.69723788009E+00 -0.29692623672E+00  0.90458713547E+00  0.11800778522E+01  0.00000000000E+00 0.  1.
         11    1    3    3    0    0 -0.33573183556E+02  0.91797935261E+01  0.17861061279E+02  0.39120899447E+02  0.51100000000E-03 0. -1.
        -11    1    3    3    0    0 -0.48081917987E+01 -0.62850087481E+01 -0.50625118400E+01  0.93940976005E+01  0.51100000000E-03 0.  1.
        -12    1    3    3    0    0  0.39078613235E+02 -0.25978585413E+01 -0.13703136575E+02  0.41492925100E+02  0.00000000000E+00 0.  1.
</event>
<event>
 7    1  0.2405891E-015  0.9000815E+02  0.7816164E-02  0.1186338E+00
        -11   -1    0    0    0    0  0.00000000000E+00  0.00000000000E+00  0.45593999997E+02  0.45594000000E+02  0.51100000000E-03 0. -1.
         11   -1    0    0    0    0 -0.00000000000E+00 -0.00000000000E+00 -0.45593999997E+02  0.45594000000E+02  0.51100000000E-03 0.  1.
    9900012    2    1    2    0    0  0.10797023848E+01  0.17613777403E+00  0.44187690578E+00  0.90008153843E+02  0.90000420672E+02 0.  0.
        -12    1    1    2    0    0 -0.10797023848E+01 -0.17613777403E+00 -0.44187690578E+00  0.11798461574E+01  0.00000000000E+00 0.  1.
         11    1    3    3    0    0 -0.10645678380E+02  0.92011638909E+01  0.21964282695E+01  0.14241354659E+02  0.51100000000E-03 0. -1.
        -11    1    3    3    0    0 -0.16186302126E+02 -0.32081951017E+02 -0.12428719170E+02  0.38022638231E+02  0.51100000000E-03 0.  1.
         12    1    3    3    0    0  0.27911682891E+02  0.23056924901E+02  0.10674167806E+02  0.37744160953E+02  0.00000000000E+00 0. -1.
</event>
<event>
 7    1  0.2405891E-015  0.9000815E+02  0.7816164E-02  0.1186338E+00
        -11   -1    0    0    0    0  0.00000000000E+00  0.00000000000E+00  0.45593999997E+02  0.45594000000E+02  0.51100000000E-03 0.  1.
         11   -1    0    0    0    0 -0.00000000000E+00 -0.00000000000E+00 -0.45593999997E+02  0.45594000000E+02  0.51100000000E-03 0. -1.
    9900012    2    1    2    0    0  0.96516955808E+00  0.65080204738E-01  0.67546193076E+00  0.90008154023E+02  0.90000420855E+02 0.  0.
        -12    1    1    2    0    0 -0.96516955808E+00 -0.65080204738E-01 -0.67546193076E+00  0.11798459767E+01  0.00000000000E+00 0.  1.
         11    1    3    3    0    0  0.18887140433E+02  0.12960643126E+02 -0.22620915912E+02  0.32193294037E+02  0.51100000000E-03 0. -1.
        -11    1    3    3    0    0  0.83021661676E+01 -0.20587779354E+02  0.46463597740E+00  0.22203569728E+02  0.51100000000E-03 0.  1.
        -12    1    3    3    0    0 -0.26224137043E+02  0.76922164332E+01  0.22831741865E+02  0.35611290259E+02  0.00000000000E+00 0.  1.
</event>
<event>
 7    1  0.2405891E-015  0.9000776E+02  0.7816164E-02  0.1186339E+00
        -11   -1    0    0    0    0  0.00000000000E+00  0.00000000000E+00  0.45593999997E+02  0.45594000000E+02  0.51100000000E-03 0. -1.
         11   -1    0    0    0    0 -0.00000000000E+00 -0.00000000000E+00 -0.45593999997E+02  0.45594000000E+02  0.51100000000E-03 0.  1.
    9900012    2    1    2    0    0 -0.10132816665E+01 -0.55725666631E+00 -0.23600389136E+00  0.90007757413E+02  0.90000019011E+02 0.  0.
        -12    1    1    2    0    0  0.10132816665E+01  0.55725666631E+00  0.23600389136E+00  0.11802425872E+01  0.00000000000E+00 0.  1.
         11    1    3    3    0    0  0.65851176593E+01  0.36057922709E+02 -0.15166733726E+02  0.39668216205E+02  0.51100000000E-03 0. -1.
        -11    1    3    3    0    0  0.37088758508E+01 -0.84497993047E+00 -0.62067361366E+01  0.72796514264E+01  0.51100000000E-03 0.  1.
        -12    1    3    3    0    0 -0.11307275177E+02 -0.35770199445E+02  0.21137465972E+02  0.43059889781E+02  0.00000000000E+00 0.  1.
</event>
<event>
 7    1  0.2405891E-015  0.9000774E+02  0.7816164E-02  0.1186339E+00
        -11   -1    0    0    0    0  0.00000000000E+00  0.00000000000E+00  0.45593999997E+02  0.45594000000E+02  0.51100000000E-03 0.  1.
         11   -1    0    0    0    0 -0.00000000000E+00 -0.00000000000E+00 -0.45593999997E+02  0.45594000000E+02  0.51100000000E-03 0. -1.
    9900012    2    1    2    0    0 -0.18316935518E+00 -0.99813027176E+00 -0.60265691139E+00  0.90007741382E+02  0.90000002768E+02 0.  0.
        -12    1    1    2    0    0  0.18316935518E+00  0.99813027176E+00  0.60265691139E+00  0.11802586178E+01  0.00000000000E+00 0.  1.
         11    1    3    3    0    0  0.98507149818E+01 -0.19877605699E+00 -0.51873141230E+01  0.11134824904E+02  0.51100000000E-03 0. -1.
        -11    1    3    3    0    0  0.80490688218E+01  0.92102278516E+01  0.37812353590E+02  0.39741538599E+02  0.51100000000E-03 0.  1.
         12    1    3    3    0    0 -0.18082953159E+02 -0.10009582066E+02 -0.33227696378E+02  0.39131377879E+02  0.00000000000E+00 0. -1.
</event>
<event>
 7    1  0.2405891E-015  0.9000775E+02  0.7816164E-02  0.1186339E+00
        -11   -1    0    0    0    0  0.00000000000E+00  0.00000000000E+00  0.45593999997E+02  0.45594000000E+02  0.51100000000E-03 0.  1.
         11   -1    0    0    0    0 -0.00000000000E+00 -0.00000000000E+00 -0.45593999997E+02  0.45594000000E+02  0.51100000000E-03 0. -1.
    9900012    2    1    2    0    0 -0.20670938628E+00 -0.88469220742E+00  0.75337197512E+00  0.90007754939E+02  0.90000016504E+02 0.  0.
        -12    1    1    2    0    0  0.20670938628E+00  0.88469220742E+00 -0.75337197512E+00  0.11802450615E+01  0.00000000000E+00 0.  1.
         11    1    3    3    0    0 -0.11952933703E+02  0.33887363285E+02 -0.73482965039E+01  0.36677288290E+02  0.51100000000E-03 0. -1.
        -11    1    3    3    0    0 -0.13836338141E+02 -0.10993220301E+02  0.10820054226E+01  0.17704967713E+02  0.51100000000E-03 0.  1.
        -12    1    3    3    0    0  0.25582562457E+02 -0.23778835192E+02  0.70196630564E+01  0.35625498935E+02  0.00000000000E+00 0.  1.
</event>
<event>
 7    1  0.2405891E-015  0.9000767E+02  0.7816164E-02  0.1186339E+00
        -11   -1    0    0    0    0  0.00000000000E+00  0.00000000000E+00  0.45593999997E+02  0.45594000000E+02  0.51100000000E-03 0.  1.
         11   -1    0    0    0    0 -0.00000000000E+00 -0.00000000000E+00 -0.45593999997E+02  0.45594000000E+02  0.51100000000E-03 0. -1.
    9900012    2    1    2    0    0  0.14679236861E+00 -0.16307147179E-02 -0.11711675316E+01  0.90007667824E+02  0.89999928239E+02 0.  0.
        -12    1    1    2    0    0 -0.14679236861E+00  0.16307147179E-02  0.11711675316E+01  0.11803321760E+01  0.00000000000E+00 0.  1.
         11    1    3    3    0    0 -0.28341515927E+02 -0.22684413806E+02  0.53272169635E+01  0.36690644525E+02  0.51100000000E-03 0. -1.
        -11    1    3    3    0    0 -0.91184487972E+01  0.55806891948E+01 -0.54294307983E+01  0.11990367776E+02  0.51100000000E-03 0.  1.
        -12    1    3    3    0    0  0.37606757093E+02  0.17102093897E+02 -0.10689536969E+01  0.41326655523E+02  0.00000000000E+00 0.  1.
</event>
<event>
 7    1  0.2405891E-015  0.9000769E+02  0.7816164E-02  0.1186339E+00
        -11   -1    0    0    0    0  0.00000000000E+00  0.00000000000E+00  0.45593999997E+02  0.45594000000E+02  0.51100000000E-03 0. -1.
         11   -1    0    0    0    0 -0.00000000000E+00 -0.00000000000E+00 -0.45593999997E+02  0.45594000000E+02  0.51100000000E-03 0.  1.
    9900012    2    1    2    0    0 -0.56839407127E-01  0.11340762899E+01  0.32212621182E+00  0.90007692817E+02  0.89999953562E+02 0.  0.
        -12    1    1    2    0    0  0.56839407127E-01 -0.11340762899E+01 -0.32212621182E+00  0.11803071829E+01  0.00000000000E+00 0.  1.
         11    1    3    3    0    0  0.19209032186E+02  0.68859488436E+01  0.26970199221E+02  0.33820036299E+02  0.51100000000E-03 0. -1.
        -11    1    3    3    0    0  0.11734759190E+02  0.80307471227E+00  0.36821070747E+01  0.12325072616E+02  0.51100000000E-03 0.  1.
        -12    1    3    3    0    0 -0.31000630783E+02 -0.65549472660E+01 -0.30330180084E+02  0.43862583901E+02  0.00000000000E+00 0.  1.
</event>
<event>
 7    1  0.3215615E-015  0.9000772E+02  0.7816164E-02  0.1186339E+00
        -11   -1    0    0    0    0  0.00000000000E+00  0.00000000000E+00  0.45593999997E+02  0.45594000000E+02  0.51100000000E-03 0.  1.
         11   -1    0    0    0    0 -0.00000000000E+00 -0.00000000000E+00 -0.45593999997E+02  0.45594000000E+02  0.51100000000E-03 0. -1.
    9900012    2    1    2    0    0  0.10977129354E+00 -0.11155804261E+01  0.36943717077E+00  0.90007723233E+02  0.89999984380E+02 0.  0.
        -12    1    1    2    0    0 -0.10977129354E+00  0.11155804261E+01 -0.36943717077E+00  0.11802767671E+01  0.00000000000E+00 0.  1.
         11    1    3    3    0    0 -0.81490857767E+01 -0.42869067422E+01 -0.29345918276E+00  0.92125613683E+01  0.51100000000E-03 0. -1.
        -11    1    3    3    0    0 -0.35296423027E+02  0.97280109236E+01 -0.20145268550E+01  0.36667833230E+02  0.51100000000E-03 0.  1.
         12    1    3    3    0    0  0.43555280097E+02 -0.65566846075E+01  0.26774232085E+01  0.44127328635E+02  0.00000000000E+00 0. -1.
</event>
<event>
 7    1  0.2405891E-015  0.9000773E+02  0.7816164E-02  0.1186339E+00
        -11   -1    0    0    0    0  0.00000000000E+00  0.00000000000E+00  0.45593999997E+02  0.45594000000E+02  0.51100000000E-03 0. -1.
         11   -1    0    0    0    0 -0.00000000000E+00 -0.00000000000E+00 -0.45593999997E+02  0.45594000000E+02  0.51100000000E-03 0.  1.
    9900012    2    1    2    0    0 -0.73253395171E+00 -0.10449700083E-02  0.92542987189E+00  0.90007734127E+02  0.89999995418E+02 0.  0.
        -12    1    1    2    0    0  0.73253395171E+00  0.10449700083E-02 -0.92542987189E+00  0.11802658727E+01  0.00000000000E+00 0.  1.
         11    1    3    3    0    0 -0.43026951164E+00  0.14697461766E+02 -0.92479622244E+01  0.17370242364E+02  0.51100000000E-03 0. -1.
        -11    1    3    3    0    0 -0.14772155999E+02 -0.15652508742E+02 -0.25948991109E+02  0.33713020669E+02  0.51100000000E-03 0.  1.
         12    1    3    3    0    0  0.14469891559E+02  0.95400200644E+00  0.36122383205E+02  0.38924471094E+02  0.00000000000E+00 0. -1.
</event>
<event>
 7    1  0.2405891E-015  0.9000780E+02  0.7816164E-02  0.1186339E+00
        -11   -1    0    0    0    0  0.00000000000E+00  0.00000000000E+00  0.45593999997E+02  0.45594000000E+02  0.51100000000E-03 0.  1.
         11   -1    0    0    0    0 -0.00000000000E+00 -0.00000000000E+00 -0.45593999997E+02  0.45594000000E+02  0.51100000000E-03 0. -1.
    9900012    2    1    2    0    0 -0.58268043088E+00 -0.56580661354E+00 -0.85627821498E+00  0.90007802563E+02  0.90000064757E+02 0.  0.
        -12    1    1    2    0    0  0.58268043088E+00  0.56580661354E+00  0.85627821498E+00  0.11801974368E+01  0.00000000000E+00 0.  1.
         11    1    3    3    0    0 -0.21622588329E+01 -0.71372094002E+01  0.45038116309E+01  0.87120285095E+01  0.51100000000E-03 0. -1.
        -11    1    3    3    0    0  0.19835604191E+01 -0.14090558420E+02  0.33990417211E+02  0.36848701619E+02  0.51100000000E-03 0.  1.
         12    1    3    3    0    0 -0.40398201704E+00  0.20661961207E+02 -0.39350507057E+02  0.44447072435E+02  0.00000000000E+00 0. -1.
</event>
<event>
 7    1  0.2405891E-015  0.9000777E+02  0.7816164E-02  0.1186339E+00
        -11   -1    0    0    0    0  0.00000000000E+00  0.00000000000E+00  0.45593999997E+02  0.45594000000E+02  0.51100000000E-03 0.  1.
         11   -1    0    0    0    0 -0.00000000000E+00 -0.00000000000E+00 -0.45593999997E+02  0.45594000000E+02  0.51100000000E-03 0. -1.
    9900012    2    1    2    0    0  0.44104355927E+00 -0.28435274804E+00 -0.10571453734E+01  0.90007774493E+02  0.90000036316E+02 0.  0.
        -12    1    1    2    0    0 -0.44104355927E+00  0.28435274804E+00  0.10571453734E+01  0.11802255068E+01  0.00000000000E+00 0.  1.
         11    1    3    3    0    0 -0.23875183333E+02  0.66570495582E+01 -0.32424074752E+02  0.40812514157E+02  0.51100000000E-03 0. -1.
        -11    1    3    3    0    0  0.32866988401E+01  0.97128308999E+01  0.43995144439E+01  0.11157831373E+02  0.51100000000E-03 0.  1.
        -12    1    3    3    0    0  0.21029528053E+02 -0.16654233206E+02  0.26967414935E+02  0.38037428962E+02  0.00000000000E+00 0.  1.
</event>
<event>
 7    1  0.2405891E-015  0.9000778E+02  0.7816164E-02  0.1186339E+00
        -11   -1    0    0    0    0  0.00000000000E+00  0.00000000000E+00  0.45593999997E+02  0.45594000000E+02  0.51100000000E-03 0. -1.
         11   -1    0    0    0    0 -0.00000000000E+00 -0.00000000000E+00 -0.45593999997E+02  0.45594000000E+02  0.51100000000E-03 0.  1.
    9900012    2    1    2    0    0 -0.44480392879E+00 -0.61132938188E+00  0.90627726392E+00  0.90007782805E+02  0.90000044738E+02 0.  0.
        -12    1    1    2    0    0  0.44480392879E+00  0.61132938188E+00 -0.90627726392E+00  0.11802171950E+01  0.00000000000E+00 0.  1.
         11    1    3    3    0    0  0.55903764905E+00  0.45559885847E+01 -0.81276611422E+01  0.93342611374E+01  0.51100000000E-03 0. -1.
        -11    1    3    3    0    0 -0.33406045094E+02 -0.35997802159E+01 -0.18293906042E+02  0.38256885197E+02  0.51100000000E-03 0.  1.
         12    1    3    3    0    0  0.32402203517E+02 -0.15675377507E+01  0.27327844448E+02  0.42416636471E+02  0.00000000000E+00 0. -1.
</event>
<event>
 7    1  0.2405891E-015  0.9000771E+02  0.7816164E-02  0.1186339E+00
        -11   -1    0    0    0    0  0.00000000000E+00  0.00000000000E+00  0.45593999997E+02  0.45594000000E+02  0.51100000000E-03 0. -1.
         11   -1    0    0    0    0 -0.00000000000E+00 -0.00000000000E+00 -0.45593999997E+02  0.45594000000E+02  0.51100000000E-03 0.  1.
    9900012    2    1    2    0    0 -0.75730420381E+00  0.68434241096E+00  0.59265984185E+00  0.90007711950E+02  0.89999972948E+02 0.  0.
        -12    1    1    2    0    0  0.75730420381E+00 -0.68434241096E+00 -0.59265984185E+00  0.11802880499E+01  0.00000000000E+00 0.  1.
         11    1    3    3    0    0 -0.30645933690E+02  0.62096021201E+01  0.14564429055E+02  0.34494274948E+02  0.51100000000E-03 0. -1.
        -11    1    3    3    0    0  0.61300800742E+01  0.12483729332E+01 -0.26908393798E+02  0.27626037967E+02  0.51100000000E-03 0.  1.
        -12    1    3    3    0    0  0.23758549412E+02 -0.67736326423E+01  0.12936624585E+02  0.27887399036E+02  0.00000000000E+00 0.  1.
</event>
<event>
 7    1  0.2405891E-015  0.9000783E+02  0.7816164E-02  0.1186339E+00
        -11   -1    0    0    0    0  0.00000000000E+00  0.00000000000E+00  0.45593999997E+02  0.45594000000E+02  0.51100000000E-03 0.  1.
         11   -1    0    0    0    0 -0.00000000000E+00 -0.00000000000E+00 -0.45593999997E+02  0.45594000000E+02  0.51100000000E-03 0. -1.
    9900012    2    1    2    0    0 -0.77459565822E+00  0.83858848223E+00 -0.29929135008E+00  0.90007828661E+02  0.90000091200E+02 0.  0.
        -12    1    1    2    0    0  0.77459565822E+00 -0.83858848223E+00  0.29929135008E+00  0.11801713386E+01  0.00000000000E+00 0.  1.
         11    1    3    3    0    0 -0.58482399953E+01  0.98140327063E+01  0.75964531265E+01  0.13719447852E+02  0.51100000000E-03 0. -1.
        -11    1    3    3    0    0 -0.23063087651E+02 -0.49732185088E+01  0.23940566194E+02  0.33612343332E+02  0.51100000000E-03 0.  1.
         12    1    3    3    0    0  0.28136731988E+02 -0.40022257153E+01 -0.31836310670E+02  0.42676037477E+02  0.00000000000E+00 0. -1.
</event>
<event>
 7    1  0.2405891E-015  0.9000772E+02  0.7816164E-02  0.1186339E+00
        -11   -1    0    0    0    0  0.00000000000E+00  0.00000000000E+00  0.45593999997E+02  0.45594000000E+02  0.51100000000E-03 0.  1.
         11   -1    0    0    0    0 -0.00000000000E+00 -0.00000000000E+00 -0.45593999997E+02  0.45594000000E+02  0.51100000000E-03 0. -1.
    9900012    2    1    2    0    0 -0.16570016103E+00  0.73620970928E+00 -0.90752184280E+00  0.90007721569E+02  0.89999982694E+02 0.  0.
        -12    1    1    2    0    0  0.16570016103E+00 -0.73620970928E+00  0.90752184280E+00  0.11802784309E+01  0.00000000000E+00 0.  1.
         11    1    3    3    0    0  0.31296034137E+02 -0.15353639183E+02  0.49314393949E+01  0.35206463663E+02  0.51100000000E-03 0. -1.
        -11    1    3    3    0    0  0.90005872311E+01  0.13140698071E+01  0.50042196421E+01  0.10381693718E+02  0.51100000000E-03 0.  1.
        -12    1    3    3    0    0 -0.40462321529E+02  0.14775779085E+02 -0.10843180880E+02  0.44419564189E+02  0.00000000000E+00 0.  1.
</event>
<event>
 7    1  0.2405891E-015  0.9000776E+02  0.7816164E-02  0.1186339E+00
        -11   -1    0    0    0    0  0.00000000000E+00  0.00000000000E+00  0.45593999997E+02  0.45594000000E+02  0.51100000000E-03 0. -1.
         11   -1    0    0    0    0 -0.00000000000E+00 -0.00000000000E+00 -0.45593999997E+02  0.45594000000E+02  0.51100000000E-03 0.  1.
    9900012    2    1    2    0    0  0.44150431727E+00  0.69979874151E+00  0.84162460970E+00  0.90007755820E+02  0.90000017397E+02 0.  0.
        -12    1    1    2    0    0 -0.44150431727E+00 -0.69979874151E+00 -0.84162460970E+00  0.11802441800E+01  0.00000000000E+00 0.  1.
         11    1    3    3    0    0 -0.28824181557E+02 -0.51041595618E+00 -0.16711313396E+02  0.33322094210E+02  0.51100000000E-03 0. -1.
        -11    1    3    3    0    0 -0.10709099957E+02  0.64345000685E+01 -0.52208931845E+00  0.12504406845E+02  0.51100000000E-03 0.  1.
        -12    1    3    3    0    0  0.39974785831E+02 -0.52242853708E+01  0.18075027324E+02  0.44181254765E+02  0.00000000000E+00 0.  1.
</event>
<event>
 7    1  0.2405891E-015  0.9000861E+02  0.7816164E-02  0.1186337E+00
        -11   -1    0    0    0    0  0.00000000000E+00  0.00000000000E+00  0.45593999997E+02  0.45594000000E+02  0.51100000000E-03 0.  1.
         11   -1    0    0    0    0 -0.00000000000E+00 -0.00000000000E+00 -0.45593999997E+02  0.45594000000E+02  0.51100000000E-03 0. -1.
    9900012    2    1    2    0    0  0.82054819440E+00 -0.48803929368E+00 -0.69244857025E+00  0.90008607481E+02  0.90000880295E+02 0.  0.
        -12    1    1    2    0    0 -0.82054819440E+00  0.48803929368E+00  0.69244857025E+00  0.11793925190E+01  0.00000000000E+00 0.  1.
         11    1    3    3    0    0  0.70126717643E+01 -0.19134573450E+01 -0.38242588684E+00  0.72790888238E+01  0.51100000000E-03 0. -1.
        -11    1    3    3    0    0 -0.17036613159E+02  0.28020791063E+02  0.27464632633E+02  0.42775191006E+02  0.51100000000E-03 0.  1.
         12    1    3    3    0    0  0.10844489589E+02 -0.26595373011E+02 -0.27774655317E+02  0.39954327651E+02  0.00000000000E+00 0. -1.
</event>
<event>
 7    1  0.2405891E-015  0.9000807E+02  0.7816164E-02  0.1186338E+00
        -11   -1    0    0    0    0  0.00000000000E+00  0.00000000000E+00  0.45593999997E+02  0.45594000000E+02  0.51100000000E-03 0. -1.
         11   -1    0    0    0    0 -0.00000000000E+00 -0.00000000000E+00 -0.45593999997E+02  0.45594000000E+02  0.51100000000E-03 0.  1.
    9900012    2    1    2    0    0  0.19241855423E+00  0.11127966199E+01  0.34191078653E+00  0.90008066017E+02  0.90000331688E+02 0.  0.
        -12    1    1    2    0    0 -0.19241855423E+00 -0.11127966199E+01 -0.34191078653E+00  0.11799339826E+01  0.00000000000E+00 0.  1.
         11    1    3    3    0    0 -0.14358017436E+02  0.17496895144E+02 -0.96636372235E+01  0.24610564582E+02  0.51100000000E-03 0. -1.
        -11    1    3    3    0    0  0.15599188094E+02  0.19472155250E+02  0.15103749040E+02  0.29165437329E+02  0.51100000000E-03 0.  1.
         12    1    3    3    0    0 -0.10487521041E+01 -0.35856253774E+02 -0.50982010295E+01  0.36232064107E+02  0.00000000000E+00 0. -1.
</event>
<event>
 7    1  0.2405891E-015  0.9000775E+02  0.7816164E-02  0.1186339E+00
        -11   -1    0    0    0    0  0.00000000000E+00  0.00000000000E+00  0.45593999997E+02  0.45594000000E+02  0.51100000000E-03 0.  1.
         11   -1    0    0    0    0 -0.00000000000E+00 -0.00000000000E+00 -0.45593999997E+02  0.45594000000E+02  0.51100000000E-03 0. -1.
    9900012    2    1    2    0    0  0.86273612354E+00 -0.77305320177E+00  0.22600035222E+00  0.90007745353E+02  0.90000006792E+02 0.  0.
        -12    1    1    2    0    0 -0.86273612354E+00  0.77305320177E+00 -0.22600035222E+00  0.11802546466E+01  0.00000000000E+00 0.  1.
         11    1    3    3    0    0 -0.23768983757E+02  0.68156024619E+01 -0.57434692694E+01  0.25385122912E+02  0.51100000000E-03 0. -1.
        -11    1    3    3    0    0 -0.72847939666E+01  0.63564819491E+01  0.23658807180E+02  0.25558017203E+02  0.51100000000E-03 0.  1.
        -12    1    3    3    0    0  0.31916513847E+02 -0.13945137613E+02 -0.17689337558E+02  0.39064605238E+02  0.00000000000E+00 0.  1.
</event>
<event>
 7    1  0.2405891E-015  0.9000772E+02  0.7816164E-02  0.1186339E+00
        -11   -1    0    0    0    0  0.00000000000E+00  0.00000000000E+00  0.45593999997E+02  0.45594000000E+02  0.51100000000E-03 0. -1.
         11   -1    0    0    0    0 -0.00000000000E+00 -0.00000000000E+00 -0.45593999997E+02  0.45594000000E+02  0.51100000000E-03 0.  1.
    9900012    2    1    2    0    0  0.43529543548E+00  0.10839863747E+01  0.16898538838E+00  0.90007718407E+02  0.89999979490E+02 0.  0.
        -12    1    1    2    0    0 -0.43529543548E+00 -0.10839863747E+01 -0.16898538838E+00  0.11802815928E+01  0.00000000000E+00 0.  1.
         11    1    3    3    0    0  0.76833191578E+01 -0.67999350343E+00 -0.47544844332E+01  0.90609550783E+01  0.51100000000E-03 0. -1.
        -11    1    3    3    0    0 -0.26324539198E+02  0.83242388327E+01 -0.29902957297E+02  0.40699645840E+02  0.51100000000E-03 0.  1.
         12    1    3    3    0    0  0.19076515476E+02 -0.65602589546E+01  0.34826427119E+02  0.40247117488E+02  0.00000000000E+00 0. -1.
</event>
<event>
 7    1  0.2405891E-015  0.9000771E+02  0.7816164E-02  0.1186339E+00
        -11   -1    0    0    0    0  0.00000000000E+00  0.00000000000E+00  0.45593999997E+02  0.45594000000E+02  0.51100000000E-03 0.  1.
         11   -1    0    0    0    0 -0.00000000000E+00 -0.00000000000E+00 -0.45593999997E+02  0.45594000000E+02  0.51100000000E-03 0. -1.
    9900012    2    1    2    0    0  0.55704068927E+00  0.10289108812E+01  0.15536221328E+00  0.90007707939E+02  0.89999968884E+02 0.  0.
        -12    1    1    2    0    0 -0.55704068927E+00 -0.10289108812E+01 -0.15536221328E+00  0.11802920606E+01  0.00000000000E+00 0.  1.
         11    1    3    3    0    0  0.88646681966E+00  0.37220209131E+01  0.95824585231E+01  0.10318079991E+02  0.51100000000E-03 0. -1.
        -11    1    3    3    0    0 -0.17502044201E+02  0.15101668093E+02  0.27073881000E+02  0.35600238244E+02  0.51100000000E-03 0.  1.
         12    1    3    3    0    0  0.17172618070E+02 -0.17794778125E+02 -0.36500977310E+02  0.44089389704E+02  0.00000000000E+00 0. -1.
</event>
<event>
 7    1  0.2405891E-015  0.9000779E+02  0.7816164E-02  0.1186339E+00
        -11   -1    0    0    0    0  0.00000000000E+00  0.00000000000E+00  0.45593999997E+02  0.45594000000E+02  0.51100000000E-03 0.  1.
         11   -1    0    0    0    0 -0.00000000000E+00 -0.00000000000E+00 -0.45593999997E+02  0.45594000000E+02  0.51100000000E-03 0. -1.
    9900012    2    1    2    0    0  0.17458159994E+00 -0.11928196380E+00 -0.11611106502E+01  0.90007794567E+02  0.90000056655E+02 0.  0.
        -12    1    1    2    0    0 -0.17458159994E+00  0.11928196380E+00  0.11611106502E+01  0.11802054329E+01  0.00000000000E+00 0.  1.
         11    1    3    3    0    0 -0.12188447429E+02  0.46946318913E+01  0.15479729334E+02  0.20253884561E+02  0.51100000000E-03 0. -1.
        -11    1    3    3    0    0 -0.14586112514E+02 -0.22315474882E+02  0.95297221737E+01  0.28311670782E+02  0.51100000000E-03 0.  1.
         12    1    3    3    0    0  0.26949141542E+02  0.17501561027E+02 -0.26170562158E+02  0.41442239224E+02  0.00000000000E+00 0. -1.
</event>
<event>
 7    1  0.2405891E-015  0.9000777E+02  0.7816164E-02  0.1186339E+00
        -11   -1    0    0    0    0  0.00000000000E+00  0.00000000000E+00  0.45593999997E+02  0.45594000000E+02  0.51100000000E-03 0.  1.
         11   -1    0    0    0    0 -0.00000000000E+00 -0.00000000000E+00 -0.45593999997E+02  0.45594000000E+02  0.51100000000E-03 0. -1.
    9900012    2    1    2    0    0  0.47188590766E+00  0.66900724200E+00  0.85011335959E+00  0.90007771326E+02  0.90000033107E+02 0.  0.
        -12    1    1    2    0    0 -0.47188590766E+00 -0.66900724200E+00 -0.85011335959E+00  0.11802286744E+01  0.00000000000E+00 0.  1.
         11    1    3    3    0    0 -0.26144458031E+02 -0.32768353369E+01  0.29438520014E+02  0.39508186449E+02  0.51100000000E-03 0. -1.
        -11    1    3    3    0    0 -0.51660176154E+01  0.73297808428E+01 -0.26902495281E+01  0.93622042271E+01  0.51100000000E-03 0.  1.
        -12    1    3    3    0    0  0.31782361554E+02 -0.33839382639E+01 -0.25898157127E+02  0.41137380650E+02  0.00000000000E+00 0.  1.
</event>
<event>
 7    1  0.2405891E-015  0.9000784E+02  0.7816164E-02  0.1186339E+00
        -11   -1    0    0    0    0  0.00000000000E+00  0.00000000000E+00  0.45593999997E+02  0.45594000000E+02  0.51100000000E-03 0.  1.
         11   -1    0    0    0    0 -0.00000000000E+00 -0.00000000000E+00 -0.45593999997E+02  0.45594000000E+02  0.51100000000E-03 0. -1.
    9900012    2    1    2    0    0 -0.46309193574E+00 -0.88551361942E+00  0.62785189293E+00  0.90007836236E+02  0.90000098874E+02 0.  0.
        -12    1    1    2    0    0  0.46309193574E+00  0.88551361942E+00 -0.62785189293E+00  0.11801637643E+01  0.00000000000E+00 0.  1.
         11    1    3    3    0    0  0.19634177702E+02 -0.33410817193E+02  0.14908414345E+02  0.41521614348E+02  0.51100000000E-03 0. -1.
        -11    1    3    3    0    0 -0.36009462428E+01 -0.27643695108E+01 -0.77585038567E+01  0.89890452769E+01  0.51100000000E-03 0.  1.
        -12    1    3    3    0    0 -0.16496323395E+02  0.35289673084E+02 -0.65220585955E+01  0.39497176611E+02  0.00000000000E+00 0.  1.
</event>
<event>
 7    1  0.2405891E-015  0.9000771E+02  0.7816164E-02  0.1186339E+00
        -11   -1    0    0    0    0  0.00000000000E+00  0.00000000000E+00  0.45593999997E+02  0.45594000000E+02  0.51100000000E-03 0. -1.
         11   -1    0    0    0    0 -0.00000000000E+00 -0.00000000000E+00 -0.45593999997E+02  0.45594000000E+02  0.51100000000E-03 0.  1.
    9900012    2    1    2    0    0  0.10641751205E+01 -0.26853122938E+00 -0.43417668190E+00  0.90007708892E+02  0.89999969849E+02 0.  0.
        -12    1    1    2    0    0 -0.10641751205E+01  0.26853122938E+00  0.43417668190E+00  0.11802911079E+01  0.00000000000E+00 0.  1.
         11    1    3    3    0    0 -0.32892654467E+01 -0.14425619351E+01 -0.63676824487E+01  0.73107887498E+01  0.51100000000E-03 0. -1.
        -11    1    3    3    0    0  0.12475496923E+02  0.38306867658E+02  0.16044326876E+02  0.43364438869E+02  0.51100000000E-03 0.  1.
         12    1    3    3    0    0 -0.81220563553E+01 -0.37132836953E+02 -0.10110821109E+02  0.39332481273E+02  0.00000000000E+00 0. -1.
</event>
<event>
 7    1  0.2405891E-015  0.9000767E+02  0.7816164E-02  0.1186339E+00
        -11   -1    0    0    0    0  0.00000000000E+00  0.00000000000E+00  0.45593999997E+02  0.45594000000E+02  0.51100000000E-03 0.  1.
         11   -1    0    0    0    0 -0.00000000000E+00 -0.00000000000E+00 -0.45593999997E+02  0.45594000000E+02  0.51100000000E-03 0. -1.
    9900012    2    1    2    0    0 -0.41734651982E+00 -0.49288551582E+00 -0.98795890044E+00  0.90007670792E+02  0.89999931247E+02 0.  0.
        -12    1    1    2    0    0  0.41734651982E+00  0.49288551582E+00  0.98795890044E+00  0.11803292076E+01  0.00000000000E+00 0.  1.
         11    1    3    3    0    0  0.12167625389E+02 -0.42002272061E+01  0.81973835902E+00  0.12898255209E+02  0.51100000000E-03 0. -1.
        -11    1    3    3    0    0  0.13210189652E+02  0.11727875833E+02 -0.32027437753E+02  0.36576070750E+02  0.51100000000E-03 0.  1.
         12    1    3    3    0    0 -0.25795161561E+02 -0.80205341431E+01  0.30219740494E+02  0.40533344834E+02  0.00000000000E+00 0. -1.
</event>
<event>
 7    1  0.2405891E-015  0.9000774E+02  0.7816164E-02  0.1186339E+00
        -11   -1    0    0    0    0  0.00000000000E+00  0.00000000000E+00  0.45593999997E+02  0.45594000000E+02  0.51100000000E-03 0. -1.
         11   -1    0    0    0    0 -0.00000000000E+00 -0.00000000000E+00 -0.45593999997E+02  0.45594000000E+02  0.51100000000E-03 0.  1.
    9900012    2    1    2    0    0  0.53694097981E+00  0.54747945510E-01  0.10496242548E+01  0.90007739847E+02  0.90000001213E+02 0.  0.
        -12    1    1    2    0    0 -0.53694097981E+00 -0.54747945510E-01 -0.10496242548E+01  0.11802601534E+01  0.00000000000E+00 0.  1.
         11    1    3    3    0    0 -0.78978270555E+01  0.42607060555E+01 -0.45605360347E+01  0.10066169951E+02  0.51100000000E-03 0. -1.
        -11    1    3    3    0    0  0.56461646879E+01  0.36267940871E+02  0.12532494368E+02  0.38785385470E+02  0.51100000000E-03 0.  1.
         12    1    3    3    0    0  0.27886033474E+01 -0.40473898981E+02 -0.69223340783E+01  0.41156184426E+02  0.00000000000E+00 0. -1.
</event>
<event>
 7    1  0.2405891E-015  0.9000773E+02  0.7816164E-02  0.1186339E+00
        -11   -1    0    0    0    0  0.00000000000E+00  0.00000000000E+00  0.45593999997E+02  0.45594000000E+02  0.51100000000E-03 0. -1.
         11   -1    0    0    0    0 -0.00000000000E+00 -0.00000000000E+00 -0.45593999997E+02  0.45594000000E+02  0.51100000000E-03 0.  1.
    9900012    2    1    2    0    0 -0.34285246778E+00 -0.10571607873E+01 -0.39737671817E+00  0.90007726726E+02  0.89999987919E+02 0.  0.
        -12    1    1    2    0    0  0.34285246778E+00  0.10571607873E+01  0.39737671817E+00  0.11802732739E+01  0.00000000000E+00 0.  1.
         11    1    3    3    0    0  0.19354029360E+01 -0.14849270803E+02 -0.80285193214E+01  0.16991284550E+02  0.51100000000E-03 0. -1.
        -11    1    3    3    0    0  0.11588705573E+01  0.55291792002E+01 -0.31945197497E+02  0.32440876175E+02  0.51100000000E-03 0.  1.
         12    1    3    3    0    0 -0.34371259611E+01  0.82629308155E+01  0.39576340101E+02  0.40575566001E+02  0.00000000000E+00 0. -1.
</event>
<event>
 7    1  0.2405891E-015  0.9000767E+02  0.7816164E-02  0.1186339E+00
        -11   -1    0    0    0    0  0.00000000000E+00  0.00000000000E+00  0.45593999997E+02  0.45594000000E+02  0.51100000000E-03 0.  1.
         11   -1    0    0    0    0 -0.00000000000E+00 -0.00000000000E+00 -0.45593999997E+02  0.45594000000E+02  0.51100000000E-03 0. -1.
    9900012    2    1    2    0    0 -0.43282161003E+00  0.67940700411E+00 -0.86269720253E+00  0.90007671704E+02  0.89999932170E+02 0.  0.
        -12    1    1    2    0    0  0.43282161003E+00 -0.67940700411E+00  0.86269720253E+00  0.11803282961E+01  0.00000000000E+00 0.  1.
         11    1    3    3    0    0  0.60700091921E+01 -0.31383107671E+02 -0.26160377574E+02  0.41305082178E+02  0.51100000000E-03 0. -1.
        -11    1    3    3    0    0  0.87083739784E+00  0.87809923584E+01 -0.47187304260E+01  0.10006527953E+02  0.51100000000E-03 0.  1.
        -12    1    3    3    0    0 -0.73736682000E+01  0.23281522316E+02  0.30016410798E+02  0.38696061573E+02  0.00000000000E+00 0.  1.
</event>
<event>
 7    1  0.2663980E-015  0.9000779E+02  0.7816164E-02  0.1186339E+00
        -11   -1    0    0    0    0  0.00000000000E+00  0.00000000000E+00  0.45593999997E+02  0.45594000000E+02  0.51100000000E-03 0.  1.
         11   -1    0    0    0    0 -0.00000000000E+00 -0.00000000000E+00 -0.45593999997E+02  0.45594000000E+02  0.51100000000E-03 0. -1.
    9900012    2    1    2    0    0 -0.37602140276E+00 -0.90172514381E+00  0.66212090315E+00  0.90007786282E+02  0.90000048261E+02 0.  0.
        -12    1    1    2    0    0  0.37602140276E+00  0.90172514381E+00 -0.66212090315E+00  0.11802137182E+01  0.00000000000E+00 0.  1.
         11    1    3    3    0    0  0.25792013887E+01 -0.46110589403E+01  0.81281028654E+01  0.96943385956E+01  0.51100000000E-03 0. -1.
        -11    1    3    3    0    0  0.28772072351E+02 -0.24147997241E+02 -0.81664043414E+00  0.37571595920E+02  0.51100000000E-03 0.  1.
         12    1    3    3    0    0 -0.31727295143E+02  0.27857331037E+02 -0.66493415281E+01  0.42741851766E+02  0.00000000000E+00 0. -1.
</event>
<event>
 7    1  0.2405891E-015  0.9000770E+02  0.7816164E-02  0.1186339E+00
        -11   -1    0    0    0    0  0.00000000000E+00  0.00000000000E+00  0.45593999997E+02  0.45594000000E+02  0.51100000000E-03 0. -1.
         11   -1    0    0    0    0 -0.00000000000E+00 -0.00000000000E+00 -0.45593999997E+02  0.45594000000E+02  0.51100000000E-03 0.  1.
    9900012    2    1    2    0    0 -0.12019713299E+00 -0.97754393761E+00  0.65044607308E+00  0.90007695126E+02  0.89999955902E+02 0.  0.
        -12    1    1    2    0    0  0.12019713299E+00  0.97754393761E+00 -0.65044607308E+00  0.11803048736E+01  0.00000000000E+00 0.  1.
         11    1    3    3    0    0  0.66676851694E+01  0.10418520599E+02 -0.53006014398E+00  0.12380814231E+02  0.51100000000E-03 0. -1.
        -11    1    3    3    0    0  0.31536857574E+02 -0.86137354774E+01 -0.14955871838E+02  0.35950631805E+02  0.51100000000E-03 0.  1.
         12    1    3    3    0    0 -0.38324739876E+02 -0.27823290593E+01  0.16136378055E+02  0.41676249091E+02  0.00000000000E+00 0. -1.
</event>
<event>
 7    1  0.2405891E-015  0.9000760E+02  0.7816164E-02  0.1186339E+00
        -11   -1    0    0    0    0  0.00000000000E+00  0.00000000000E+00  0.45593999997E+02  0.45594000000E+02  0.51100000000E-03 0.  1.
         11   -1    0    0    0    0 -0.00000000000E+00 -0.00000000000E+00 -0.45593999997E+02  0.45594000000E+02  0.51100000000E-03 0. -1.
    9900012    2    1    2    0    0  0.11078801306E+01 -0.40348933444E+00 -0.56075272644E-01  0.90007599024E+02  0.89999858531E+02 0.  0.
        -12    1    1    2    0    0 -0.11078801306E+01  0.40348933444E+00  0.56075272644E-01  0.11804009755E+01  0.00000000000E+00 0.  1.
         11    1    3    3    0    0 -0.13425858502E+00  0.91787036185E+01 -0.36373443081E+01  0.98740518208E+01  0.51100000000E-03 0. -1.
        -11    1    3    3    0    0 -0.31823548475E+02 -0.67563866720E+01 -0.21099329698E+02  0.38775877971E+02  0.51100000000E-03 0.  1.
         12    1    3    3    0    0  0.33065687191E+02 -0.28258062809E+01  0.24680598734E+02  0.41357669233E+02  0.00000000000E+00 0. -1.
</event>
<event>
 7    1  0.2405891E-015  0.9000772E+02  0.7816164E-02  0.1186339E+00
        -11   -1    0    0    0    0  0.00000000000E+00  0.00000000000E+00  0.45593999997E+02  0.45594000000E+02  0.51100000000E-03 0.  1.
         11   -1    0    0    0    0 -0.00000000000E+00 -0.00000000000E+00 -0.45593999997E+02  0.45594000000E+02  0.51100000000E-03 0. -1.
    9900012    2    1    2    0    0  0.58843470650E+00  0.26395898977E+00  0.98850232207E+00  0.90007717579E+02  0.89999978651E+02 0.  0.
        -12    1    1    2    0    0 -0.58843470650E+00 -0.26395898977E+00 -0.98850232207E+00  0.11802824208E+01  0.00000000000E+00 0.  1.
         11    1    3    3    0    0  0.10285822098E+02  0.15778083545E+01 -0.12265392945E+01  0.10478168463E+02  0.51100000000E-03 0. -1.
        -11    1    3    3    0    0 -0.14678226056E+02 -0.12113938942E+02  0.37631086242E+02  0.42169852843E+02  0.51100000000E-03 0.  1.
         12    1    3    3    0    0  0.49808386645E+01  0.10800089577E+02 -0.35416044625E+02  0.37359696272E+02  0.00000000000E+00 0. -1.
</event>
<event>
 7    1  0.2405891E-015  0.9000779E+02  0.7816164E-02  0.1186339E+00
        -11   -1    0    0    0    0  0.00000000000E+00  0.00000000000E+00  0.45593999997E+02  0.45594000000E+02  0.51100000000E-03 0. -1.
         11   -1    0    0    0    0 -0.00000000000E+00 -0.00000000000E+00 -0.45593999997E+02  0.45594000000E+02  0.51100000000E-03 0.  1.
    9900012    2    1    2    0    0 -0.53999667743E+00  0.19649705771E+00  0.10308632597E+01  0.90007793846E+02  0.90000055925E+02 0.  0.
        -12    1    1    2    0    0  0.53999667743E+00 -0.19649705771E+00 -0.10308632597E+01  0.11802061539E+01  0.00000000000E+00 0.  1.
         11    1    3    3    0    0  0.30597964517E+02  0.18831555010E+02  0.98617237471E+01  0.37257435394E+02  0.51100000000E-03 0. -1.
        -11    1    3    3    0    0  0.42653038133E+01 -0.43386231829E+01  0.87974910797E+01  0.10696369351E+02  0.51100000000E-03 0.  1.
        -12    1    3    3    0    0 -0.35403265007E+02 -0.14296434769E+02 -0.17628351567E+02  0.42053989100E+02  0.00000000000E+00 0.  1.
</event>
<event>
 7    1  0.2405891E-015  0.9000791E+02  0.7816164E-02  0.1186339E+00
        -11   -1    0    0    0    0  0.00000000000E+00  0.00000000000E+00  0.45593999997E+02  0.45594000000E+02  0.51100000000E-03 0.  1.
         11   -1    0    0    0    0 -0.00000000000E+00 -0.00000000000E+00 -0.45593999997E+02  0.45594000000E+02  0.51100000000E-03 0. -1.
    9900012    2    1    2    0    0  0.22174736484E+00  0.95873310540E+00 -0.65136993623E+00  0.90007905150E+02  0.90000168698E+02 0.  0.
        -12    1    1    2    0    0 -0.22174736484E+00 -0.95873310540E+00  0.65136993623E+00  0.11800948500E+01  0.00000000000E+00 0.  1.
         11    1    3    3    0    0  0.19740831622E+01  0.75408575198E+01 -0.21352661470E+01  0.80821345104E+01  0.51100000000E-03 0. -1.
        -11    1    3    3    0    0 -0.31529828024E+02  0.22532930247E+02  0.85468102730E+01  0.39685147937E+02  0.51100000000E-03 0.  1.
         12    1    3    3    0    0  0.29777492226E+02 -0.29115054661E+02 -0.70629140622E+01  0.42240622702E+02  0.00000000000E+00 0. -1.
</event>
<event>
 7    1  0.2405891E-015  0.9000777E+02  0.7816164E-02  0.1186339E+00
        -11   -1    0    0    0    0  0.00000000000E+00  0.00000000000E+00  0.45593999997E+02  0.45594000000E+02  0.51100000000E-03 0.  1.
         11   -1    0    0    0    0 -0.00000000000E+00 -0.00000000000E+00 -0.45593999997E+02  0.45594000000E+02  0.51100000000E-03 0. -1.
    9900012    2    1    2    0    0 -0.68823250969E+00 -0.84314232604E+00  0.45649675847E+00  0.90007770251E+02  0.90000032019E+02 0.  0.
        -12    1    1    2    0    0  0.68823250969E+00  0.84314232604E+00 -0.45649675847E+00  0.11802297488E+01  0.00000000000E+00 0.  1.
         11    1    3    3    0    0  0.29116764368E+02  0.40764052820E+00 -0.26834634777E+02  0.39598608080E+02  0.51100000000E-03 0. -1.
        -11    1    3    3    0    0 -0.22142611068E+00 -0.93543905396E+01  0.70190396477E-02  0.93570134881E+01  0.51100000000E-03 0.  1.
        -12    1    3    3    0    0 -0.29583570767E+02  0.81036076853E+01  0.27284112495E+02  0.41052148683E+02  0.00000000000E+00 0.  1.
</event>
<event>
 7    1  0.2405891E-015  0.9000788E+02  0.7816164E-02  0.1186339E+00
        -11   -1    0    0    0    0  0.00000000000E+00  0.00000000000E+00  0.45593999997E+02  0.45594000000E+02  0.51100000000E-03 0.  1.
         11   -1    0    0    0    0 -0.00000000000E+00 -0.00000000000E+00 -0.45593999997E+02  0.45594000000E+02  0.51100000000E-03 0. -1.
    9900012    2    1    2    0    0 -0.94670011036E+00 -0.55437706460E+00 -0.43485344821E+00  0.90007884518E+02  0.90000147794E+02 0.  0.
        -12    1    1    2    0    0  0.94670011036E+00  0.55437706460E+00  0.43485344821E+00  0.11801154817E+01  0.00000000000E+00 0.  1.
         11    1    3    3    0    0 -0.22411940231E+02  0.21749898438E+02 -0.17424131184E+02  0.35762459294E+02  0.51100000000E-03 0. -1.
        -11    1    3    3    0    0 -0.62049618383E+01  0.12230566099E+01 -0.79709641705E+01  0.10175150562E+02  0.51100000000E-03 0.  1.
        -12    1    3    3    0    0  0.27670201959E+02 -0.23527332112E+02  0.24960241907E+02  0.44070274662E+02  0.00000000000E+00 0.  1.
</event>
<event>
 7    1  0.2405891E-015  0.9000783E+02  0.7816164E-02  0.1186339E+00
        -11   -1    0    0    0    0  0.00000000000E+00  0.00000000000E+00  0.45593999997E+02  0.45594000000E+02  0.51100000000E-03 0.  1.
         11   -1    0    0    0    0 -0.00000000000E+00 -0.00000000000E+00 -0.45593999997E+02  0.45594000000E+02  0.51100000000E-03 0. -1.
    9900012    2    1    2    0    0  0.70914933836E+00 -0.93348955617E+00 -0.13607437669E+00  0.90007825533E+02  0.90000088030E+02 0.  0.
        -12    1    1    2    0    0 -0.70914933836E+00  0.93348955617E+00  0.13607437669E+00  0.11801744666E+01  0.00000000000E+00 0.  1.
         11    1    3    3    0    0 -0.46696992130E+01 -0.36489179464E+01  0.85270991041E+01  0.10384224204E+02  0.51100000000E-03 0. -1.
        -11    1    3    3    0    0 -0.13426088413E+02 -0.31312240545E+02  0.11332712594E+02  0.35904688176E+02  0.51100000000E-03 0.  1.
         12    1    3    3    0    0  0.18804936965E+02  0.34027668935E+02 -0.19995886075E+02  0.43718913154E+02  0.00000000000E+00 0. -1.
</event>
<event>
 7    1  0.2405891E-015  0.9000727E+02  0.7816164E-02  0.1186340E+00
        -11   -1    0    0    0    0  0.00000000000E+00  0.00000000000E+00  0.45593999997E+02  0.45594000000E+02  0.51100000000E-03 0.  1.
         11   -1    0    0    0    0 -0.00000000000E+00 -0.00000000000E+00 -0.45593999997E+02  0.45594000000E+02  0.51100000000E-03 0. -1.
    9900012    2    1    2    0    0 -0.11377782197E+01  0.21404000472E+00 -0.23189267176E+00  0.90007268611E+02  0.89999523756E+02 0.  0.
        -12    1    1    2    0    0  0.11377782197E+01 -0.21404000472E+00  0.23189267176E+00  0.11807313886E+01  0.00000000000E+00 0.  1.
         11    1    3    3    0    0  0.10971051479E+02 -0.66748656569E+00 -0.35204821367E+02  0.36880739643E+02  0.51100000000E-03 0. -1.
        -11    1    3    3    0    0 -0.38388751800E+01 -0.18379272714E+02  0.13549741355E+02  0.23154483782E+02  0.51100000000E-03 0.  1.
        -12    1    3    3    0    0 -0.82699545183E+01  0.19260799285E+02  0.21423187341E+02  0.29972045186E+02  0.00000000000E+00 0.  1.
</event>
<event>
 7    1  0.2405891E-015  0.9000773E+02  0.7816164E-02  0.1186339E+00
        -11   -1    0    0    0    0  0.00000000000E+00  0.00000000000E+00  0.45593999997E+02  0.45594000000E+02  0.51100000000E-03 0.  1.
         11   -1    0    0    0    0 -0.00000000000E+00 -0.00000000000E+00 -0.45593999997E+02  0.45594000000E+02  0.51100000000E-03 0. -1.
    9900012    2    1    2    0    0  0.10121192704E+01  0.36723053236E+00 -0.48353241730E+00  0.90007725761E+02  0.89999986941E+02 0.  0.
        -12    1    1    2    0    0 -0.10121192704E+01 -0.36723053236E+00  0.48353241730E+00  0.11802742393E+01  0.00000000000E+00 0.  1.
         11    1    3    3    0    0  0.34443607474E+01 -0.41251458083E+01 -0.87307632957E+01  0.10252154743E+02  0.51100000000E-03 0. -1.
        -11    1    3    3    0    0  0.34723165197E+02  0.11046157620E+02 -0.10086286489E+02  0.37808054365E+02  0.51100000000E-03 0.  1.
         12    1    3    3    0    0 -0.37155406674E+02 -0.65537812797E+01  0.18333517367E+02  0.41947516652E+02  0.00000000000E+00 0. -1.
</event>
<event>
 7    1  0.2405891E-015  0.9000767E+02  0.7816164E-02  0.1186339E+00
        -11   -1    0    0    0    0  0.00000000000E+00  0.00000000000E+00  0.45593999997E+02  0.45594000000E+02  0.51100000000E-03 0.  1.
         11   -1    0    0    0    0 -0.00000000000E+00 -0.00000000000E+00 -0.45593999997E+02  0.45594000000E+02  0.51100000000E-03 0. -1.
    9900012    2    1    2    0    0 -0.11180300555E+01 -0.37816414196E+00  0.13526867210E-01  0.90007668564E+02  0.89999928989E+02 0.  0.
        -12    1    1    2    0    0  0.11180300555E+01  0.37816414196E+00 -0.13526867210E-01  0.11803314363E+01  0.00000000000E+00 0.  1.
         11    1    3    3    0    0 -0.26402633600E+02  0.64505315624E+01 -0.26484850178E+02  0.37949383495E+02  0.51100000000E-03 0. -1.
        -11    1    3    3    0    0  0.46041943495E+01  0.11061733997E+02 -0.24577008665E+01  0.12231142974E+02  0.51100000000E-03 0.  1.
        -12    1    3    3    0    0  0.20680409195E+02 -0.17890429702E+02  0.28956077912E+02  0.39827142095E+02  0.00000000000E+00 0.  1.
</event>
<event>
 7    1  0.2405891E-015  0.9000773E+02  0.7816164E-02  0.1186339E+00
        -11   -1    0    0    0    0  0.00000000000E+00  0.00000000000E+00  0.45593999997E+02  0.45594000000E+02  0.51100000000E-03 0.  1.
         11   -1    0    0    0    0 -0.00000000000E+00 -0.00000000000E+00 -0.45593999997E+02  0.45594000000E+02  0.51100000000E-03 0. -1.
    9900012    2    1    2    0    0 -0.11406917507E+01  0.29922190467E+00  0.48187944830E-01  0.90007731600E+02  0.89999992857E+02 0.  0.
        -12    1    1    2    0    0  0.11406917507E+01 -0.29922190467E+00 -0.48187944830E-01  0.11802684002E+01  0.00000000000E+00 0.  1.
         11    1    3    3    0    0  0.31571095032E+02 -0.18778142331E+02 -0.72725101231E+00  0.36740734413E+02  0.51100000000E-03 0. -1.
        -11    1    3    3    0    0  0.21574105832E+01 -0.81083076617E+01  0.32149215080E+01  0.89852542605E+01  0.51100000000E-03 0.  1.
        -12    1    3    3    0    0 -0.34869197366E+02  0.27185671898E+02 -0.24394825509E+01  0.44281742926E+02  0.00000000000E+00 0.  1.
</event>
<event>
 7    1  0.2405891E-015  0.9000778E+02  0.7816164E-02  0.1186339E+00
        -11   -1    0    0    0    0  0.00000000000E+00  0.00000000000E+00  0.45593999997E+02  0.45594000000E+02  0.51100000000E-03 0.  1.
         11   -1    0    0    0    0 -0.00000000000E+00 -0.00000000000E+00 -0.45593999997E+02  0.45594000000E+02  0.51100000000E-03 0. -1.
    9900012    2    1    2    0    0  0.22892899652E+00  0.95905189007E+00 -0.64864188163E+00  0.90007777435E+02  0.90000039297E+02 0.  0.
        -12    1    1    2    0    0 -0.22892899652E+00 -0.95905189007E+00  0.64864188163E+00  0.11802225654E+01  0.00000000000E+00 0.  1.
         11    1    3    3    0    0  0.29516190145E+01  0.27498315782E+02 -0.29132720607E+02  0.40169451526E+02  0.51100000000E-03 0. -1.
        -11    1    3    3    0    0  0.66026526194E+01  0.31646528498E+01 -0.45011561537E+00  0.73357108449E+01  0.51100000000E-03 0.  1.
        -12    1    3    3    0    0 -0.93253426373E+01 -0.29703916742E+02  0.28934194341E+02  0.42502615064E+02  0.00000000000E+00 0.  1.
</event>
<event>
 7    1  0.2405891E-015  0.9000773E+02  0.7816164E-02  0.1186339E+00
        -11   -1    0    0    0    0  0.00000000000E+00  0.00000000000E+00  0.45593999997E+02  0.45594000000E+02  0.51100000000E-03 0. -1.
         11   -1    0    0    0    0 -0.00000000000E+00 -0.00000000000E+00 -0.45593999997E+02  0.45594000000E+02  0.51100000000E-03 0.  1.
    9900012    2    1    2    0    0  0.10575139717E+01 -0.24170323117E+00  0.46506187376E+00  0.90007729354E+02  0.89999990581E+02 0.  0.
        -12    1    1    2    0    0 -0.10575139717E+01  0.24170323117E+00 -0.46506187376E+00  0.11802706464E+01  0.00000000000E+00 0.  1.
         11    1    3    3    0    0 -0.27603161357E+02  0.34385629269E+01  0.21428571097E+02  0.35113272298E+02  0.51100000000E-03 0. -1.
        -11    1    3    3    0    0 -0.59546097898E+01  0.11391231243E+02 -0.36644114573E+01  0.13365831010E+02  0.51100000000E-03 0.  1.
        -12    1    3    3    0    0  0.34615285119E+02 -0.15071497401E+02 -0.17299097766E+02  0.41528626046E+02  0.00000000000E+00 0.  1.
</event>
<event>
 7    1  0.2405891E-015  0.9000776E+02  0.7816164E-02  0.1186339E+00
        -11   -1    0    0    0    0  0.00000000000E+00  0.00000000000E+00  0.45593999997E+02  0.45594000000E+02  0.51100000000E-03 0.  1.
         11   -1    0    0    0    0 -0.00000000000E+00 -0.00000000000E+00 -0.45593999997E+02  0.45594000000E+02  0.51100000000E-03 0. -1.
    9900012    2    1    2    0    0 -0.15554262243E+00  0.79084390443E-01 -0.11672687875E+01  0.90007760927E+02  0.90000022571E+02 0.  0.
        -12    1    1    2    0    0  0.15554262243E+00 -0.79084390443E-01  0.11672687875E+01  0.11802390734E+01  0.00000000000E+00 0.  1.
         11    1    3    3    0    0  0.33062542316E+02 -0.43647961455E+01 -0.18744457935E+02  0.38256213264E+02  0.51100000000E-03 0. -1.
        -11    1    3    3    0    0 -0.80227033830E+00  0.82169946801E+01 -0.70585869599E+01  0.10862149391E+02  0.51100000000E-03 0.  1.
        -12    1    3    3    0    0 -0.32415814600E+02 -0.37731141442E+01  0.24635776108E+02  0.40889398271E+02  0.00000000000E+00 0.  1.
</event>
<event>
 7    1  0.2405891E-015  0.9000772E+02  0.7816164E-02  0.1186339E+00
        -11   -1    0    0    0    0  0.00000000000E+00  0.00000000000E+00  0.45593999997E+02  0.45594000000E+02  0.51100000000E-03 0.  1.
         11   -1    0    0    0    0 -0.00000000000E+00 -0.00000000000E+00 -0.45593999997E+02  0.45594000000E+02  0.51100000000E-03 0. -1.
    9900012    2    1    2    0    0  0.50734876188E+00  0.91684644325E+00  0.54319034652E+00  0.90007717865E+02  0.89999978940E+02 0.  0.
        -12    1    1    2    0    0 -0.50734876188E+00 -0.91684644325E+00 -0.54319034652E+00  0.11802821354E+01  0.00000000000E+00 0.  1.
         11    1    3    3    0    0  0.28432535266E+02  0.15195816845E+02 -0.18617974583E+02  0.37228361353E+02  0.51100000000E-03 0. -1.
        -11    1    3    3    0    0 -0.15662857737E+01  0.76543222193E+00 -0.10320966530E+02  0.10467162366E+02  0.51100000000E-03 0.  1.
        -12    1    3    3    0    0 -0.26358900730E+02 -0.15044402624E+02  0.29482131460E+02  0.42312194146E+02  0.00000000000E+00 0.  1.
</event>
<event>
 7    1  0.2405891E-015  0.9000779E+02  0.7816164E-02  0.1186339E+00
        -11   -1    0    0    0    0  0.00000000000E+00  0.00000000000E+00  0.45593999997E+02  0.45594000000E+02  0.51100000000E-03 0.  1.
         11   -1    0    0    0    0 -0.00000000000E+00 -0.00000000000E+00 -0.45593999997E+02  0.45594000000E+02  0.51100000000E-03 0. -1.
    9900012    2    1    2    0    0 -0.63141717570E+00 -0.80191617561E+00 -0.59256492798E+00  0.90007792223E+02  0.90000054281E+02 0.  0.
        -12    1    1    2    0    0  0.63141717570E+00  0.80191617561E+00  0.59256492798E+00  0.11802077768E+01  0.00000000000E+00 0.  1.
         11    1    3    3    0    0  0.29975144022E+02  0.12417765914E+02 -0.99373575924E+01  0.33933187967E+02  0.51100000000E-03 0. -1.
        -11    1    3    3    0    0  0.99693336790E+01  0.27317726415E+01 -0.29972289617E+01  0.10762600870E+02  0.51100000000E-03 0.  1.
        -12    1    3    3    0    0 -0.40575894877E+02 -0.15951454731E+02  0.12342021626E+02  0.45312003387E+02  0.00000000000E+00 0.  1.
</event>
<event>
 7    1  0.2405891E-015  0.9000786E+02  0.7816164E-02  0.1186339E+00
        -11   -1    0    0    0    0  0.00000000000E+00  0.00000000000E+00  0.45593999997E+02  0.45594000000E+02  0.51100000000E-03 0.  1.
         11   -1    0    0    0    0 -0.00000000000E+00 -0.00000000000E+00 -0.45593999997E+02  0.45594000000E+02  0.51100000000E-03 0. -1.
    9900012    2    1    2    0    0  0.99002751307E+00 -0.55482188612E+00 -0.32363698902E+00  0.90007863270E+02  0.90000126265E+02 0.  0.
        -12    1    1    2    0    0 -0.99002751307E+00  0.55482188612E+00  0.32363698902E+00  0.11801367305E+01  0.00000000000E+00 0.  1.
         11    1    3    3    0    0 -0.14919592659E+01 -0.16403054046E+02 -0.28290576565E+02  0.32735956488E+02  0.51100000000E-03 0. -1.
        -11    1    3    3    0    0 -0.29330574048E+00 -0.12921990622E+02 -0.46082779262E+01  0.13722248197E+02  0.51100000000E-03 0.  1.
        -12    1    3    3    0    0  0.27752925195E+01  0.28770222782E+02  0.32575217503E+02  0.43549658585E+02  0.00000000000E+00 0.  1.
</event>
<event>
 7    1  0.2405891E-015  0.9000775E+02  0.7816164E-02  0.1186339E+00
        -11   -1    0    0    0    0  0.00000000000E+00  0.00000000000E+00  0.45593999997E+02  0.45594000000E+02  0.51100000000E-03 0.  1.
         11   -1    0    0    0    0 -0.00000000000E+00 -0.00000000000E+00 -0.45593999997E+02  0.45594000000E+02  0.51100000000E-03 0. -1.
    9900012    2    1    2    0    0 -0.85445231767E+00 -0.50540338668E+00 -0.63832970953E+00  0.90007751651E+02  0.90000013173E+02 0.  0.
        -12    1    1    2    0    0  0.85445231767E+00  0.50540338668E+00  0.63832970953E+00  0.11802483487E+01  0.00000000000E+00 0.  1.
         11    1    3    3    0    0  0.59083658427E+01  0.87662999439E+01  0.56761951643E+01  0.11998999685E+02  0.51100000000E-03 0. -1.
        -11    1    3    3    0    0 -0.25391749155E+02 -0.35972782399E+02 -0.10265710866E+02  0.45212463088E+02  0.51100000000E-03 0.  1.
         12    1    3    3    0    0  0.18628930994E+02  0.26701079069E+02  0.39511859923E+01  0.32796288878E+02  0.00000000000E+00 0. -1.
</event>
<event>
 7    1  0.2405891E-015  0.9000752E+02  0.7816164E-02  0.1186339E+00
        -11   -1    0    0    0    0  0.00000000000E+00  0.00000000000E+00  0.45593999997E+02  0.45594000000E+02  0.51100000000E-03 0.  1.
         11   -1    0    0    0    0 -0.00000000000E+00 -0.00000000000E+00 -0.45593999997E+02  0.45594000000E+02  0.51100000000E-03 0. -1.
    9900012    2    1    2    0    0  0.12176839420E+00 -0.11676421270E+01 -0.12380778603E+00  0.90007515334E+02  0.89999773736E+02 0.  0.
        -12    1    1    2    0    0 -0.12176839420E+00  0.11676421270E+01  0.12380778603E+00  0.11804846659E+01  0.00000000000E+00 0.  1.
         11    1    3    3    0    0  0.11124082704E+02  0.94485035680E+01  0.11013449345E+02  0.18284296607E+02  0.51100000000E-03 0. -1.
        -11    1    3    3    0    0 -0.31779121831E+01  0.23368943546E+02  0.15167976491E+02  0.28040580582E+02  0.51100000000E-03 0.  1.
         12    1    3    3    0    0 -0.78244021269E+01 -0.33985089241E+02 -0.26305233622E+02  0.43682638145E+02  0.00000000000E+00 0. -1.
</event>
<event>
 7    1  0.2405891E-015  0.9000787E+02  0.7816164E-02  0.1186339E+00
        -11   -1    0    0    0    0  0.00000000000E+00  0.00000000000E+00  0.45593999997E+02  0.45594000000E+02  0.51100000000E-03 0.  1.
         11   -1    0    0    0    0 -0.00000000000E+00 -0.00000000000E+00 -0.45593999997E+02  0.45594000000E+02  0.51100000000E-03 0. -1.
    9900012    2    1    2    0    0 -0.40238903753E+00 -0.61499061808E+00 -0.92334938157E+00  0.90007870991E+02  0.90000134088E+02 0.  0.
        -12    1    1    2    0    0  0.40238903753E+00  0.61499061808E+00  0.92334938157E+00  0.11801290092E+01  0.00000000000E+00 0.  1.
         11    1    3    3    0    0 -0.34716569159E+01  0.63987562794E+01  0.83259814517E+01  0.11059767224E+02  0.51100000000E-03 0. -1.
        -11    1    3    3    0    0 -0.43574187751E+01 -0.11696471977E+01  0.34193194292E+02  0.34489559422E+02  0.51100000000E-03 0.  1.
         12    1    3    3    0    0  0.74266866534E+01 -0.58440996998E+01 -0.43442525126E+02  0.44458544344E+02  0.00000000000E+00 0. -1.
</event>
<event>
 7    1  0.3581947E-015  0.9000763E+02  0.7816164E-02  0.1186339E+00
        -11   -1    0    0    0    0  0.00000000000E+00  0.00000000000E+00  0.45593999997E+02  0.45594000000E+02  0.51100000000E-03 0. -1.
         11   -1    0    0    0    0 -0.00000000000E+00 -0.00000000000E+00 -0.45593999997E+02  0.45594000000E+02  0.51100000000E-03 0.  1.
    9900012    2    1    2    0    0 -0.39231310582E+00  0.54445601848E+00  0.97104110344E+00  0.90007634483E+02  0.89999894458E+02 0.  0.
        -12    1    1    2    0    0  0.39231310582E+00 -0.54445601848E+00 -0.97104110344E+00  0.11803655170E+01  0.00000000000E+00 0.  1.
         11    1    3    3    0    0  0.45003815290E+00 -0.26456563184E+01  0.97435425516E+01  0.10106366974E+02  0.51100000000E-03 0. -1.
        -11    1    3    3    0    0 -0.35409947542E+02 -0.14367654759E+02 -0.14169870116E+02  0.40756338250E+02  0.51100000000E-03 0.  1.
         12    1    3    3    0    0  0.34567596283E+02  0.17557767096E+02  0.53973686680E+01  0.39144929259E+02  0.00000000000E+00 0. -1.
</event>
<event>
 7    1  0.2405891E-015  0.9000778E+02  0.7816164E-02  0.1186339E+00
        -11   -1    0    0    0    0  0.00000000000E+00  0.00000000000E+00  0.45593999997E+02  0.45594000000E+02  0.51100000000E-03 0. -1.
         11   -1    0    0    0    0 -0.00000000000E+00 -0.00000000000E+00 -0.45593999997E+02  0.45594000000E+02  0.51100000000E-03 0.  1.
    9900012    2    1    2    0    0  0.39898605395E+00 -0.85429778032E+00  0.70986497570E+00  0.90007778473E+02  0.90000040349E+02 0.  0.
        -12    1    1    2    0    0 -0.39898605395E+00  0.85429778032E+00 -0.70986497570E+00  0.11802215268E+01  0.00000000000E+00 0.  1.
         11    1    3    3    0    0  0.13569810511E+02  0.12679942362E+02 -0.38955950063E+02  0.43156537641E+02  0.51100000000E-03 0.  1.
        -11    1    3    3    0    0 -0.12038101418E+02 -0.10412892807E+02  0.14702737917E+02  0.21668288462E+02  0.51100000000E-03 0. -1.
        -12    1    3    3    0    0 -0.11327230387E+01 -0.31213473354E+01  0.24963077122E+02  0.25182952370E+02  0.00000000000E+00 0.  1.
</event>
<event>
 7    1  0.2405891E-015  0.9000780E+02  0.7816164E-02  0.1186339E+00
        -11   -1    0    0    0    0  0.00000000000E+00  0.00000000000E+00  0.45593999997E+02  0.45594000000E+02  0.51100000000E-03 0. -1.
         11   -1    0    0    0    0 -0.00000000000E+00 -0.00000000000E+00 -0.45593999997E+02  0.45594000000E+02  0.51100000000E-03 0.  1.
    9900012    2    1    2    0    0 -0.87610854013E+00 -0.72507486563E+00  0.31555774104E+00  0.90007798143E+02  0.90000060279E+02 0.  0.
        -12    1    1    2    0    0  0.87610854013E+00  0.72507486563E+00 -0.31555774104E+00  0.11802018568E+01  0.00000000000E+00 0.  1.
         11    1    3    3    0    0  0.94138132384E+01 -0.27789000562E+01  0.16920620422E+02  0.19561430442E+02  0.51100000000E-03 0. -1.
        -11    1    3    3    0    0  0.97938363785E+01  0.25440300809E+02  0.10681068257E+02  0.29278206155E+02  0.51100000000E-03 0.  1.
         12    1    3    3    0    0 -0.20083758157E+02 -0.23386475618E+02 -0.27286130938E+02  0.41168161547E+02  0.00000000000E+00 0. -1.
</event>
<event>
 7    1  0.2405891E-015  0.9000754E+02  0.7816164E-02  0.1186339E+00
        -11   -1    0    0    0    0  0.00000000000E+00  0.00000000000E+00  0.45593999997E+02  0.45594000000E+02  0.51100000000E-03 0.  1.
         11   -1    0    0    0    0 -0.00000000000E+00 -0.00000000000E+00 -0.45593999997E+02  0.45594000000E+02  0.51100000000E-03 0. -1.
    9900012    2    1    2    0    0  0.96630411754E+00  0.50880456145E+00 -0.44816574373E+00  0.90007543197E+02  0.89999801967E+02 0.  0.
        -12    1    1    2    0    0 -0.96630411754E+00 -0.50880456145E+00  0.44816574373E+00  0.11804568028E+01  0.00000000000E+00 0.  1.
         11    1    3    3    0    0  0.10953578337E+02 -0.32178944784E+02  0.82806587338E+01  0.34986206927E+02  0.51100000000E-03 0. -1.
        -11    1    3    3    0    0  0.18426322249E+01 -0.84754142136E+01  0.50421803945E+01  0.10032523262E+02  0.51100000000E-03 0.  1.
        -12    1    3    3    0    0 -0.11829906444E+02  0.41163163559E+02 -0.13771004872E+02  0.44988813008E+02  0.00000000000E+00 0.  1.
</event>
<event>
 7    1  0.2405891E-015  0.9000780E+02  0.7816164E-02  0.1186339E+00
        -11   -1    0    0    0    0  0.00000000000E+00  0.00000000000E+00  0.45593999997E+02  0.45594000000E+02  0.51100000000E-03 0.  1.
         11   -1    0    0    0    0 -0.00000000000E+00 -0.00000000000E+00 -0.45593999997E+02  0.45594000000E+02  0.51100000000E-03 0. -1.
    9900012    2    1    2    0    0  0.16793071666E+00 -0.88607342887E+00 -0.76128540500E+00  0.90007795647E+02  0.90000057750E+02 0.  0.
        -12    1    1    2    0    0 -0.16793071666E+00  0.88607342887E+00  0.76128540500E+00  0.11802043530E+01  0.00000000000E+00 0.  1.
         11    1    3    3    0    0  0.54565516440E+01 -0.61036700332E+01 -0.41801910850E+00  0.81977731094E+01  0.51100000000E-03 0. -1.
        -11    1    3    3    0    0  0.32571830927E+02 -0.16406661470E+02  0.81979240516E+01  0.37380592151E+02  0.51100000000E-03 0.  1.
         12    1    3    3    0    0 -0.37860451855E+02  0.21624258074E+02 -0.85411903481E+01  0.44429430386E+02  0.00000000000E+00 0. -1.
</event>
<event>
 7    1  0.2405891E-015  0.9000769E+02  0.7816164E-02  0.1186339E+00
        -11   -1    0    0    0    0  0.00000000000E+00  0.00000000000E+00  0.45593999997E+02  0.45594000000E+02  0.51100000000E-03 0. -1.
         11   -1    0    0    0    0 -0.00000000000E+00 -0.00000000000E+00 -0.45593999997E+02  0.45594000000E+02  0.51100000000E-03 0.  1.
    9900012    2    1    2    0    0  0.97576029896E+00 -0.34556606291E+00  0.56710769379E+00  0.90007688515E+02  0.89999949204E+02 0.  0.
        -12    1    1    2    0    0 -0.97576029896E+00  0.34556606291E+00 -0.56710769379E+00  0.11803114848E+01  0.00000000000E+00 0.  1.
         11    1    3    3    0    0  0.78594163802E+01  0.11310851934E+02 -0.15213361598E+02  0.20521992318E+02  0.51100000000E-03 0. -1.
        -11    1    3    3    0    0  0.29034017570E+02 -0.30127134146E+01  0.14321149660E+02  0.32513780867E+02  0.51100000000E-03 0.  1.
         12    1    3    3    0    0 -0.35917673652E+02 -0.86437045824E+01  0.14593196319E+01  0.36971915331E+02  0.00000000000E+00 0. -1.
</event>
<event>
 7    1  0.2405891E-015  0.9000787E+02  0.7816164E-02  0.1186339E+00
        -11   -1    0    0    0    0  0.00000000000E+00  0.00000000000E+00  0.45593999997E+02  0.45594000000E+02  0.51100000000E-03 0.  1.
         11   -1    0    0    0    0 -0.00000000000E+00 -0.00000000000E+00 -0.45593999997E+02  0.45594000000E+02  0.51100000000E-03 0. -1.
    9900012    2    1    2    0    0 -0.73807663538E-01 -0.11619224763E+01 -0.19286824396E+00  0.90007868833E+02  0.90000131901E+02 0.  0.
        -12    1    1    2    0    0  0.73807663538E-01  0.11619224763E+01  0.19286824396E+00  0.11801311671E+01  0.00000000000E+00 0.  1.
         11    1    3    3    0    0 -0.29076702202E+02 -0.23399858047E+02  0.69131150588E+01  0.37957859892E+02  0.51100000000E-03 0. -1.
        -11    1    3    3    0    0  0.16034025725E-01 -0.57560295953E+01 -0.10117203822E+02  0.11640014916E+02  0.51100000000E-03 0.  1.
        -12    1    3    3    0    0  0.28986860512E+02  0.27993965166E+02  0.30112205197E+01  0.40409994025E+02  0.00000000000E+00 0.  1.
</event>
<event>
 7    1  0.2405891E-015  0.9000780E+02  0.7816164E-02  0.1186339E+00
        -11   -1    0    0    0    0  0.00000000000E+00  0.00000000000E+00  0.45593999997E+02  0.45594000000E+02  0.51100000000E-03 0. -1.
         11   -1    0    0    0    0 -0.00000000000E+00 -0.00000000000E+00 -0.45593999997E+02  0.45594000000E+02  0.51100000000E-03 0.  1.
    9900012    2    1    2    0    0 -0.61569535779E+00  0.79473396605E+00  0.61821636756E+00  0.90007799031E+02  0.90000061178E+02 0.  0.
        -12    1    1    2    0    0  0.61569535779E+00 -0.79473396605E+00 -0.61821636756E+00  0.11802009691E+01  0.00000000000E+00 0.  1.
         11    1    3    3    0    0  0.48964967207E+01 -0.95765738534E+01  0.35206058625E+01  0.11317292645E+02  0.51100000000E-03 0. -1.
        -11    1    3    3    0    0 -0.25214781916E+02 -0.25205096856E+02 -0.10822403085E+02  0.37258643875E+02  0.51100000000E-03 0.  1.
         12    1    3    3    0    0  0.19702589837E+02  0.35576404675E+02  0.79200135896E+01  0.41431862512E+02  0.00000000000E+00 0. -1.
</event>
<event>
 7    1  0.2405891E-015  0.9000769E+02  0.7816164E-02  0.1186339E+00
        -11   -1    0    0    0    0  0.00000000000E+00  0.00000000000E+00  0.45593999997E+02  0.45594000000E+02  0.51100000000E-03 0.  1.
         11   -1    0    0    0    0 -0.00000000000E+00 -0.00000000000E+00 -0.45593999997E+02  0.45594000000E+02  0.51100000000E-03 0. -1.
    9900012    2    1    2    0    0 -0.56394203898E+00 -0.69258095348E+00 -0.77163803308E+00  0.90007693152E+02  0.89999953902E+02 0.  0.
        -12    1    1    2    0    0  0.56394203898E+00  0.69258095348E+00  0.77163803308E+00  0.11803068476E+01  0.00000000000E+00 0.  1.
         11    1    3    3    0    0 -0.17233119025E+02  0.51908727097E+01 -0.32540132773E+02  0.37185827837E+02  0.51100000000E-03 0. -1.
        -11    1    3    3    0    0 -0.92512853343E+01 -0.19556279866E+01 -0.23991429619E+01  0.97553394800E+01  0.51100000000E-03 0.  1.
        -12    1    3    3    0    0  0.25920462320E+02 -0.39278256766E+01  0.34167637701E+02  0.43066525835E+02  0.00000000000E+00 0.  1.
</event>
<event>
 7    1  0.2405891E-015  0.9000776E+02  0.7816164E-02  0.1186339E+00
        -11   -1    0    0    0    0  0.00000000000E+00  0.00000000000E+00  0.45593999997E+02  0.45594000000E+02  0.51100000000E-03 0.  1.
         11   -1    0    0    0    0 -0.00000000000E+00 -0.00000000000E+00 -0.45593999997E+02  0.45594000000E+02  0.51100000000E-03 0. -1.
    9900012    2    1    2    0    0 -0.58916741528E+00 -0.62902198535E+00 -0.80634032690E+00  0.90007757811E+02  0.90000019414E+02 0.  0.
        -12    1    1    2    0    0  0.58916741528E+00  0.62902198535E+00  0.80634032690E+00  0.11802421887E+01  0.00000000000E+00 0.  1.
         11    1    3    3    0    0 -0.31199185651E+01  0.57635615982E+01 -0.55786679147E+01  0.86066294281E+01  0.51100000000E-03 0. -1.
        -11    1    3    3    0    0 -0.20052140435E+02  0.31203453201E+02 -0.13679205936E+01  0.37116236807E+02  0.51100000000E-03 0.  1.
         12    1    3    3    0    0  0.22582891585E+02 -0.37596036784E+02  0.61402481814E+01  0.44284891577E+02  0.00000000000E+00 0. -1.
</event>
<event>
 7    1  0.2405891E-015  0.9000767E+02  0.7816164E-02  0.1186339E+00
        -11   -1    0    0    0    0  0.00000000000E+00  0.00000000000E+00  0.45593999997E+02  0.45594000000E+02  0.51100000000E-03 0.  1.
         11   -1    0    0    0    0 -0.00000000000E+00 -0.00000000000E+00 -0.45593999997E+02  0.45594000000E+02  0.51100000000E-03 0. -1.
    9900012    2    1    2    0    0  0.10317834483E+01  0.54101858964E+00  0.18948227369E+00  0.90007668805E+02  0.89999929233E+02 0.  0.
        -12    1    1    2    0    0 -0.10317834483E+01 -0.54101858964E+00 -0.18948227369E+00  0.11803311953E+01  0.00000000000E+00 0.  1.
         11    1    3    3    0    0 -0.33085558946E+01 -0.11228462433E+02 -0.21309096469E+01  0.11898137959E+02  0.51100000000E-03 0. -1.
        -11    1    3    3    0    0 -0.30335578919E+02  0.95053782117E+00  0.21344886748E+02  0.37104650127E+02  0.51100000000E-03 0.  1.
         12    1    3    3    0    0  0.34675918262E+02  0.10818943201E+02 -0.19024494828E+02  0.41004880719E+02  0.00000000000E+00 0. -1.
</event>
<event>
 7    1  0.2405891E-015  0.9000766E+02  0.7816164E-02  0.1186339E+00
        -11   -1    0    0    0    0  0.00000000000E+00  0.00000000000E+00  0.45593999997E+02  0.45594000000E+02  0.51100000000E-03 0. -1.
         11   -1    0    0    0    0 -0.00000000000E+00 -0.00000000000E+00 -0.45593999997E+02  0.45594000000E+02  0.51100000000E-03 0.  1.
    9900012    2    1    2    0    0  0.17364337418E+00  0.11650037105E+01  0.76271036750E-01  0.90007659821E+02  0.89999920131E+02 0.  0.
        -12    1    1    2    0    0 -0.17364337418E+00 -0.11650037105E+01 -0.76271036750E-01  0.11803401789E+01  0.00000000000E+00 0.  1.
         11    1    3    3    0    0  0.86790922560E+01 -0.45985412889E+01 -0.94569402303E-03  0.98220784730E+01  0.51100000000E-03 0. -1.
        -11    1    3    3    0    0 -0.14836107458E+02 -0.81307220316E+01  0.36752247731E+02  0.40459194737E+02  0.51100000000E-03 0.  1.
         12    1    3    3    0    0  0.63306585759E+01  0.13894267031E+02 -0.36675031000E+02  0.39726386611E+02  0.00000000000E+00 0. -1.
</event>
<event>
 7    1  0.2405891E-015  0.9000772E+02  0.7816164E-02  0.1186339E+00
        -11   -1    0    0    0    0  0.00000000000E+00  0.00000000000E+00  0.45593999997E+02  0.45594000000E+02  0.51100000000E-03 0.  1.
         11   -1    0    0    0    0 -0.00000000000E+00 -0.00000000000E+00 -0.45593999997E+02  0.45594000000E+02  0.51100000000E-03 0. -1.
    9900012    2    1    2    0    0  0.66018773030E+00 -0.95683530704E+00 -0.20416599876E+00  0.90007718085E+02  0.89999979164E+02 0.  0.
        -12    1    1    2    0    0 -0.66018773030E+00  0.95683530704E+00  0.20416599876E+00  0.11802819151E+01  0.00000000000E+00 0.  1.
         11    1    3    3    0    0  0.60357799478E+01 -0.50021261020E+00 -0.57468542684E+01  0.83490829723E+01  0.51100000000E-03 0. -1.
        -11    1    3    3    0    0 -0.23342446176E+02 -0.18314307994E+02 -0.27206782092E+02  0.40255343283E+02  0.51100000000E-03 0.  1.
         12    1    3    3    0    0  0.17966853959E+02  0.17857685297E+02  0.32749470362E+02  0.41403291829E+02  0.00000000000E+00 0. -1.
</event>
<event>
 7    1  0.2405891E-015  0.9000775E+02  0.7816164E-02  0.1186339E+00
        -11   -1    0    0    0    0  0.00000000000E+00  0.00000000000E+00  0.45593999997E+02  0.45594000000E+02  0.51100000000E-03 0.  1.
         11   -1    0    0    0    0 -0.00000000000E+00 -0.00000000000E+00 -0.45593999997E+02  0.45594000000E+02  0.51100000000E-03 0. -1.
    9900012    2    1    2    0    0 -0.98046848120E-01  0.29708941994E+00 -0.11380263844E+01  0.90007754534E+02  0.90000016094E+02 0.  0.
        -12    1    1    2    0    0  0.98046848120E-01 -0.29708941994E+00  0.11380263844E+01  0.11802454658E+01  0.00000000000E+00 0.  1.
         11    1    3    3    0    0  0.30999584662E+02 -0.10443084616E+02 -0.26819338937E+02  0.42300227030E+02  0.51100000000E-03 0. -1.
        -11    1    3    3    0    0 -0.17287081985E+01  0.94395438645E+01  0.16498479243E+01  0.97373209273E+01  0.51100000000E-03 0.  1.
        -12    1    3    3    0    0 -0.29368923311E+02  0.13006301713E+01  0.24031464629E+02  0.37970206577E+02  0.00000000000E+00 0.  1.
</event>
<event>
 7    1  0.2405891E-015  0.9000802E+02  0.7816164E-02  0.1186338E+00
        -11   -1    0    0    0    0  0.00000000000E+00  0.00000000000E+00  0.45593999997E+02  0.45594000000E+02  0.51100000000E-03 0. -1.
         11   -1    0    0    0    0 -0.00000000000E+00 -0.00000000000E+00 -0.45593999997E+02  0.45594000000E+02  0.51100000000E-03 0.  1.
    9900012    2    1    2    0    0 -0.43848633296E+00  0.10942501381E+01 -0.52063327543E-01  0.90008015162E+02  0.90000280161E+02 0.  0.
        -12    1    1    2    0    0  0.43848633296E+00 -0.10942501381E+01  0.52063327543E-01  0.11799848385E+01  0.00000000000E+00 0.  1.
         11    1    3    3    0    0  0.58271156632E+01 -0.38740474828E+01 -0.71232028731E+01  0.99851660118E+01  0.51100000000E-03 0. -1.
        -11    1    3    3    0    0  0.29629280298E+02  0.24565994278E+02 -0.17709689766E+00  0.38489137291E+02  0.51100000000E-03 0.  1.
         12    1    3    3    0    0 -0.35894882294E+02 -0.19597696657E+02  0.72482364432E+01  0.41533711858E+02  0.00000000000E+00 0. -1.
</event>
<event>
 7    1  0.3354484E-015  0.9000771E+02  0.7816164E-02  0.1186339E+00
        -11   -1    0    0    0    0  0.00000000000E+00  0.00000000000E+00  0.45593999997E+02  0.45594000000E+02  0.51100000000E-03 0. -1.
         11   -1    0    0    0    0 -0.00000000000E+00 -0.00000000000E+00 -0.45593999997E+02  0.45594000000E+02  0.51100000000E-03 0.  1.
    9900012    2    1    2    0    0  0.29924429231E+00  0.21959684115E+00  0.11204103441E+01  0.90007707978E+02  0.89999968923E+02 0.  0.
        -12    1    1    2    0    0 -0.29924429231E+00 -0.21959684115E+00 -0.11204103441E+01  0.11802920224E+01  0.00000000000E+00 0.  1.
         11    1    3    3    0    0  0.63370811792E+00 -0.90759802043E+01  0.82177625796E+00  0.91351146204E+01  0.51100000000E-03 0. -1.
        -11    1    3    3    0    0  0.88194012760E+01  0.59642385765E+01 -0.38978041571E+02  0.40405961264E+02  0.51100000000E-03 0.  1.
         12    1    3    3    0    0 -0.91538651016E+01  0.33313384690E+01  0.39276675657E+02  0.40466632093E+02  0.00000000000E+00 0. -1.
</event>
<event>
 7    1  0.2405891E-015  0.9000775E+02  0.7816164E-02  0.1186339E+00
        -11   -1    0    0    0    0  0.00000000000E+00  0.00000000000E+00  0.45593999997E+02  0.45594000000E+02  0.51100000000E-03 0.  1.
         11   -1    0    0    0    0 -0.00000000000E+00 -0.00000000000E+00 -0.45593999997E+02  0.45594000000E+02  0.51100000000E-03 0. -1.
    9900012    2    1    2    0    0 -0.41546591236E+00 -0.11044689568E+01  0.23142733741E-01  0.90007746135E+02  0.90000007584E+02 0.  0.
        -12    1    1    2    0    0  0.41546591236E+00  0.11044689568E+01 -0.23142733741E-01  0.11802538655E+01  0.00000000000E+00 0.  1.
         11    1    3    3    0    0  0.38933440232E+02 -0.90680138694E+00 -0.79693939668E+01  0.39751054042E+02  0.51100000000E-03 0. -1.
        -11    1    3    3    0    0 -0.43761896689E+01  0.78635280013E+01 -0.69600917310E+01  0.11376686065E+02  0.51100000000E-03 0.  1.
        -12    1    3    3    0    0 -0.34972716475E+02 -0.80611955712E+01  0.14952628432E+02  0.38880006028E+02  0.00000000000E+00 0.  1.
</event>
<event>
 7    1  0.2405891E-015  0.9000786E+02  0.7816164E-02  0.1186339E+00
        -11   -1    0    0    0    0  0.00000000000E+00  0.00000000000E+00  0.45593999997E+02  0.45594000000E+02  0.51100000000E-03 0.  1.
         11   -1    0    0    0    0 -0.00000000000E+00 -0.00000000000E+00 -0.45593999997E+02  0.45594000000E+02  0.51100000000E-03 0. -1.
    9900012    2    1    2    0    0  0.90719043738E+00  0.27394053059E+00 -0.70334955784E+00  0.90007856575E+02  0.90000119481E+02 0.  0.
        -12    1    1    2    0    0 -0.90719043738E+00 -0.27394053059E+00  0.70334955784E+00  0.11801434254E+01  0.00000000000E+00 0.  1.
         11    1    3    3    0    0 -0.44703792066E+01 -0.14177091189E+01  0.94774932854E+01  0.10574359018E+02  0.51100000000E-03 0. -1.
        -11    1    3    3    0    0 -0.21845866194E+02  0.29633219114E+02  0.58127566440E+01  0.37271405727E+02  0.51100000000E-03 0.  1.
         12    1    3    3    0    0  0.27223435838E+02 -0.27941569464E+02 -0.15993599487E+02  0.42162091830E+02  0.00000000000E+00 0. -1.
</event>
<event>
 7    1  0.2405891E-015  0.9000769E+02  0.7816164E-02  0.1186339E+00
        -11   -1    0    0    0    0  0.00000000000E+00  0.00000000000E+00  0.45593999997E+02  0.45594000000E+02  0.51100000000E-03 0. -1.
         11   -1    0    0    0    0 -0.00000000000E+00 -0.00000000000E+00 -0.45593999997E+02  0.45594000000E+02  0.51100000000E-03 0.  1.
    9900012    2    1    2    0    0 -0.10677176031E+01 -0.19688071014E+00  0.46296562998E+00  0.90007694926E+02  0.89999955699E+02 0.  0.
        -12    1    1    2    0    0  0.10677176031E+01  0.19688071014E+00 -0.46296562998E+00  0.11803050744E+01  0.00000000000E+00 0.  1.
         11    1    3    3    0    0  0.92544614750E+01  0.22715480844E+02 -0.11965251913E+02  0.27291122746E+02  0.51100000000E-03 0. -1.
        -11    1    3    3    0    0 -0.26372347634E+02  0.34917504986E+01  0.16868117067E+02  0.31499625632E+02  0.51100000000E-03 0.  1.
        -12    1    3    3    0    0  0.16050168556E+02 -0.26404112053E+02 -0.44398995246E+01  0.31216946548E+02  0.00000000000E+00 0.  1.
</event>
<event>
 7    1  0.2405891E-015  0.9000776E+02  0.7816164E-02  0.1186339E+00
        -11   -1    0    0    0    0  0.00000000000E+00  0.00000000000E+00  0.45593999997E+02  0.45594000000E+02  0.51100000000E-03 0.  1.
         11   -1    0    0    0    0 -0.00000000000E+00 -0.00000000000E+00 -0.45593999997E+02  0.45594000000E+02  0.51100000000E-03 0. -1.
    9900012    2    1    2    0    0  0.87200892282E+00 -0.70072456854E+00  0.37624727666E+00  0.90007755747E+02  0.90000017323E+02 0.  0.
        -12    1    1    2    0    0 -0.87200892282E+00  0.70072456854E+00 -0.37624727666E+00  0.11802442525E+01  0.00000000000E+00 0.  1.
         11    1    3    3    0    0 -0.42594214938E+01  0.63243444272E+01 -0.60289873564E+01  0.97205294455E+01  0.51100000000E-03 0. -1.
        -11    1    3    3    0    0 -0.91973874195E+01  0.32787584952E+02  0.14832924944E+02  0.37143415634E+02  0.51100000000E-03 0.  1.
         12    1    3    3    0    0  0.14328817836E+02 -0.39812653948E+02 -0.84276903113E+01  0.43143810668E+02  0.00000000000E+00 0. -1.
</event>
<event>
 7    1  0.2405891E-015  0.9000768E+02  0.7816164E-02  0.1186339E+00
        -11   -1    0    0    0    0  0.00000000000E+00  0.00000000000E+00  0.45593999997E+02  0.45594000000E+02  0.51100000000E-03 0.  1.
         11   -1    0    0    0    0 -0.00000000000E+00 -0.00000000000E+00 -0.45593999997E+02  0.45594000000E+02  0.51100000000E-03 0. -1.
    9900012    2    1    2    0    0 -0.78104490131E+00 -0.42466312527E+00 -0.77639320989E+00  0.90007679567E+02  0.89999940137E+02 0.  0.
        -12    1    1    2    0    0  0.78104490131E+00  0.42466312527E+00  0.77639320989E+00  0.11803204328E+01  0.00000000000E+00 0.  1.
         11    1    3    3    0    0  0.68881675174E+01 -0.42000578621E+01 -0.67484702663E+01  0.10518041119E+02  0.51100000000E-03 0. -1.
        -11    1    3    3    0    0  0.70693239571E+01  0.24296632627E+02 -0.27618553341E+02  0.37457792075E+02  0.51100000000E-03 0.  1.
         12    1    3    3    0    0 -0.14738536376E+02 -0.20521237890E+02  0.33590630397E+02  0.42031846373E+02  0.00000000000E+00 0. -1.
</event>
<event>
 7    1  0.2405891E-015  0.9000781E+02  0.7816164E-02  0.1186339E+00
        -11   -1    0    0    0    0  0.00000000000E+00  0.00000000000E+00  0.45593999997E+02  0.45594000000E+02  0.51100000000E-03 0. -1.
         11   -1    0    0    0    0 -0.00000000000E+00 -0.00000000000E+00 -0.45593999997E+02  0.45594000000E+02  0.51100000000E-03 0.  1.
    9900012    2    1    2    0    0 -0.64555206187E+00 -0.68795189489E+00  0.70910908475E+00  0.90007808927E+02  0.90000071205E+02 0.  0.
        -12    1    1    2    0    0  0.64555206187E+00  0.68795189489E+00 -0.70910908475E+00  0.11801910728E+01  0.00000000000E+00 0.  1.
         11    1    3    3    0    0  0.16456715928E+00  0.69743823624E+01  0.52030722272E+01  0.87029335600E+01  0.51100000000E-03 0. -1.
        -11    1    3    3    0    0 -0.97086705857E+00  0.30763883909E+02  0.19089667512E+02  0.36218428210E+02  0.51100000000E-03 0.  1.
         12    1    3    3    0    0  0.16074783742E+00 -0.38426218166E+02 -0.23583630655E+02  0.45086447157E+02  0.00000000000E+00 0. -1.
</event>
<event>
 7    1  0.2405891E-015  0.9000779E+02  0.7816164E-02  0.1186339E+00
        -11   -1    0    0    0    0  0.00000000000E+00  0.00000000000E+00  0.45593999997E+02  0.45594000000E+02  0.51100000000E-03 0.  1.
         11   -1    0    0    0    0 -0.00000000000E+00 -0.00000000000E+00 -0.45593999997E+02  0.45594000000E+02  0.51100000000E-03 0. -1.
    9900012    2    1    2    0    0 -0.44395587829E+00 -0.86031983027E+00 -0.67502249878E+00  0.90007787135E+02  0.90000049125E+02 0.  0.
        -12    1    1    2    0    0  0.44395587829E+00  0.86031983027E+00  0.67502249878E+00  0.11802128647E+01  0.00000000000E+00 0.  1.
         11    1    3    3    0    0 -0.37617102334E+02  0.58362049191E+01 -0.12556217410E+02  0.40084489167E+02  0.51100000000E-03 0. -1.
        -11    1    3    3    0    0 -0.10476739567E+01  0.20814068748E+01  0.10423045787E+02  0.10680344518E+02  0.51100000000E-03 0.  1.
        -12    1    3    3    0    0  0.38220820412E+02 -0.87779316241E+01  0.14581491249E+01  0.39242953450E+02  0.00000000000E+00 0.  1.
</event>
<event>
 7    1  0.2405891E-015  0.9000772E+02  0.7816164E-02  0.1186339E+00
        -11   -1    0    0    0    0  0.00000000000E+00  0.00000000000E+00  0.45593999997E+02  0.45594000000E+02  0.51100000000E-03 0. -1.
         11   -1    0    0    0    0 -0.00000000000E+00 -0.00000000000E+00 -0.45593999997E+02  0.45594000000E+02  0.51100000000E-03 0.  1.
    9900012    2    1    2    0    0 -0.10258071182E+01  0.55762660585E+00  0.17273492636E+00  0.90007718241E+02  0.89999979322E+02 0.  0.
        -12    1    1    2    0    0  0.10258071182E+01 -0.55762660585E+00 -0.17273492636E+00  0.11802817588E+01  0.00000000000E+00 0.  1.
         11    1    3    3    0    0  0.19305650230E+02  0.20014344830E+02  0.23364069705E+02  0.36320268215E+02  0.51100000000E-03 0. -1.
        -11    1    3    3    0    0  0.71363649466E+01  0.59480485422E+01  0.66502809733E+00  0.93139276755E+01  0.51100000000E-03 0.  1.
        -12    1    3    3    0    0 -0.27467822295E+02 -0.25404766767E+02 -0.23856362876E+02  0.44373522350E+02  0.00000000000E+00 0.  1.
</event>
<event>
 7    1  0.2405891E-015  0.9000767E+02  0.7816164E-02  0.1186339E+00
        -11   -1    0    0    0    0  0.00000000000E+00  0.00000000000E+00  0.45593999997E+02  0.45594000000E+02  0.51100000000E-03 0.  1.
         11   -1    0    0    0    0 -0.00000000000E+00 -0.00000000000E+00 -0.45593999997E+02  0.45594000000E+02  0.51100000000E-03 0. -1.
    9900012    2    1    2    0    0  0.63207070835E+00 -0.40203029715E+00 -0.91215723596E+00  0.90007672688E+02  0.89999933168E+02 0.  0.
        -12    1    1    2    0    0 -0.63207070835E+00  0.40203029715E+00  0.91215723596E+00  0.11803273119E+01  0.00000000000E+00 0.  1.
         11    1    3    3    0    0  0.57389624417E+00 -0.64757189275E+01  0.67638837489E+01  0.93815998720E+01  0.51100000000E-03 0. -1.
        -11    1    3    3    0    0 -0.38350887227E+02 -0.38396749206E+01  0.52654504563E+01  0.38900624974E+02  0.51100000000E-03 0.  1.
         12    1    3    3    0    0  0.38409061691E+02  0.99133635510E+01 -0.12941491441E+02  0.41725447842E+02  0.00000000000E+00 0. -1.
</event>
<event>
 7    1  0.2405891E-015  0.9000752E+02  0.7816164E-02  0.1186339E+00
        -11   -1    0    0    0    0  0.00000000000E+00  0.00000000000E+00  0.45593999997E+02  0.45594000000E+02  0.51100000000E-03 0.  1.
         11   -1    0    0    0    0 -0.00000000000E+00 -0.00000000000E+00 -0.45593999997E+02  0.45594000000E+02  0.51100000000E-03 0. -1.
    9900012    2    1    2    0    0  0.84152259958E+00 -0.68479392169E+00 -0.46520797239E+00  0.90007524901E+02  0.89999783430E+02 0.  0.
        -12    1    1    2    0    0 -0.84152259958E+00  0.68479392169E+00  0.46520797239E+00  0.11804750986E+01  0.00000000000E+00 0.  1.
         11    1    3    3    0    0  0.20140060698E+00 -0.92700499260E+01 -0.10143481128E+01  0.93275554241E+01  0.51100000000E-03 0. -1.
        -11    1    3    3    0    0 -0.24239059122E+02 -0.11800495883E+02  0.27652165139E+02  0.38618984028E+02  0.51100000000E-03 0.  1.
         12    1    3    3    0    0  0.24879181114E+02  0.20385751888E+02 -0.27103024998E+02  0.42060985450E+02  0.00000000000E+00 0. -1.
</event>
<event>
 7    1  0.2405891E-015  0.9000776E+02  0.7816164E-02  0.1186339E+00
        -11   -1    0    0    0    0  0.00000000000E+00  0.00000000000E+00  0.45593999997E+02  0.45594000000E+02  0.51100000000E-03 0.  1.
         11   -1    0    0    0    0 -0.00000000000E+00 -0.00000000000E+00 -0.45593999997E+02  0.45594000000E+02  0.51100000000E-03 0. -1.
    9900012    2    1    2    0    0 -0.53056627694E+00 -0.19496810573E+00  0.10360730760E+01  0.90007762500E+02  0.90000024165E+02 0.  0.
        -12    1    1    2    0    0  0.53056627694E+00  0.19496810573E+00 -0.10360730760E+01  0.11802374995E+01  0.00000000000E+00 0.  1.
         11    1    3    3    0    0 -0.23711045623E+02  0.20041091672E+02 -0.16287603506E+02  0.35059165252E+02  0.51100000000E-03 0. -1.
        -11    1    3    3    0    0 -0.10068311850E+02  0.32694677763E+01 -0.27581835029E+00  0.10589447534E+02  0.51100000000E-03 0.  1.
        -12    1    3    3    0    0  0.33248791195E+02 -0.23505527554E+02  0.17599494932E+02  0.44359149715E+02  0.00000000000E+00 0.  1.
</event>
<event>
 7    1  0.2405891E-015  0.9000778E+02  0.7816164E-02  0.1186339E+00
        -11   -1    0    0    0    0  0.00000000000E+00  0.00000000000E+00  0.45593999997E+02  0.45594000000E+02  0.51100000000E-03 0.  1.
         11   -1    0    0    0    0 -0.00000000000E+00 -0.00000000000E+00 -0.45593999997E+02  0.45594000000E+02  0.51100000000E-03 0. -1.
    9900012    2    1    2    0    0  0.80737816630E+00 -0.37913253055E+00 -0.77286372568E+00  0.90007779971E+02  0.90000041866E+02 0.  0.
        -12    1    1    2    0    0 -0.80737816630E+00  0.37913253055E+00  0.77286372568E+00  0.11802200293E+01  0.00000000000E+00 0.  1.
         11    1    3    3    0    0  0.10000572644E+02 -0.14991390375E+01  0.55240614751E+01  0.11522765576E+02  0.51100000000E-03 0. -1.
        -11    1    3    3    0    0 -0.11290736412E+02 -0.24900010220E+02  0.25471682866E+02  0.37367069272E+02  0.51100000000E-03 0.  1.
         12    1    3    3    0    0  0.20975419343E+01  0.26020016727E+02 -0.31768608067E+02  0.41117945123E+02  0.00000000000E+00 0. -1.
</event>
<event>
 7    1  0.2405891E-015  0.9000772E+02  0.7816164E-02  0.1186339E+00
        -11   -1    0    0    0    0  0.00000000000E+00  0.00000000000E+00  0.45593999997E+02  0.45594000000E+02  0.51100000000E-03 0.  1.
         11   -1    0    0    0    0 -0.00000000000E+00 -0.00000000000E+00 -0.45593999997E+02  0.45594000000E+02  0.51100000000E-03 0. -1.
    9900012    2    1    2    0    0  0.76162034600E+00  0.85556699061E+00 -0.28458593694E+00  0.90007724785E+02  0.89999985952E+02 0.  0.
        -12    1    1    2    0    0 -0.76162034600E+00 -0.85556699061E+00  0.28458593694E+00  0.11802752147E+01  0.00000000000E+00 0.  1.
         11    1    3    3    0    0  0.33507165527E+02  0.16181768594E+02  0.85543046301E+01  0.38180569724E+02  0.51100000000E-03 0. -1.
        -11    1    3    3    0    0  0.56129305575E+01 -0.97682340233E+01 -0.64793377134E+01  0.12996353444E+02  0.51100000000E-03 0.  1.
        -12    1    3    3    0    0 -0.38358475738E+02 -0.55579675802E+01 -0.23595528537E+01  0.38830801617E+02  0.00000000000E+00 0.  1.
</event>
<event>
 7    1  0.2405891E-015  0.9000775E+02  0.7816164E-02  0.1186339E+00
        -11   -1    0    0    0    0  0.00000000000E+00  0.00000000000E+00  0.45593999997E+02  0.45594000000E+02  0.51100000000E-03 0.  1.
         11   -1    0    0    0    0 -0.00000000000E+00 -0.00000000000E+00 -0.45593999997E+02  0.45594000000E+02  0.51100000000E-03 0. -1.
    9900012    2    1    2    0    0  0.97706131279E-01  0.11761814045E+01  0.67106105676E-02  0.90007748240E+02  0.90000009717E+02 0.  0.
        -12    1    1    2    0    0 -0.97706131279E-01 -0.11761814045E+01 -0.67106105676E-02  0.11802517599E+01  0.00000000000E+00 0.  1.
         11    1    3    3    0    0 -0.17473816863E+02  0.25219932456E+02 -0.10260405156E+02  0.32352050678E+02  0.51100000000E-03 0. -1.
        -11    1    3    3    0    0 -0.10135588132E+02 -0.59791504316E+01 -0.12756653425E+02  0.17355477335E+02  0.51100000000E-03 0.  1.
        -12    1    3    3    0    0  0.27707111127E+02 -0.18064600619E+02  0.23023769192E+02  0.40300220227E+02  0.00000000000E+00 0.  1.
</event>
<event>
 7    1  0.2405891E-015  0.9000777E+02  0.7816164E-02  0.1186339E+00
        -11   -1    0    0    0    0  0.00000000000E+00  0.00000000000E+00  0.45593999997E+02  0.45594000000E+02  0.51100000000E-03 0. -1.
         11   -1    0    0    0    0 -0.00000000000E+00 -0.00000000000E+00 -0.45593999997E+02  0.45594000000E+02  0.51100000000E-03 0.  1.
    9900012    2    1    2    0    0  0.22001776924E+00  0.11463047768E+01  0.17467018230E+00  0.90007774542E+02  0.90000036366E+02 0.  0.
        -12    1    1    2    0    0 -0.22001776924E+00 -0.11463047768E+01 -0.17467018230E+00  0.11802254584E+01  0.00000000000E+00 0.  1.
         11    1    3    3    0    0 -0.92028443417E+01  0.35818215735E+02  0.18345060574E+01  0.37027048697E+02  0.51100000000E-03 0. -1.
        -11    1    3    3    0    0 -0.19653723217E+01  0.67883041385E+01  0.60452740359E+01  0.92999516058E+01  0.51100000000E-03 0.  1.
        -12    1    3    3    0    0  0.11388234433E+02 -0.41460215097E+02 -0.77051099110E+01  0.43680774239E+02  0.00000000000E+00 0.  1.
</event>
<event>
 7    1  0.2405891E-015  0.9000758E+02  0.7816164E-02  0.1186339E+00
        -11   -1    0    0    0    0  0.00000000000E+00  0.00000000000E+00  0.45593999997E+02  0.45594000000E+02  0.51100000000E-03 0. -1.
         11   -1    0    0    0    0 -0.00000000000E+00 -0.00000000000E+00 -0.45593999997E+02  0.45594000000E+02  0.51100000000E-03 0.  1.
    9900012    2    1    2    0    0  0.43012000330E+00  0.55322119941E+00  0.94991428635E+00  0.90007578862E+02  0.89999838102E+02 0.  0.
        -12    1    1    2    0    0 -0.43012000330E+00 -0.55322119941E+00 -0.94991428635E+00  0.11804211385E+01  0.00000000000E+00 0.  1.
         11    1    3    3    0    0  0.60596183494E+01  0.21657473133E+02  0.33308169192E+01  0.22734543291E+02  0.51100000000E-03 0. -1.
        -11    1    3    3    0    0  0.28807169205E+02 -0.78428383941E+01 -0.50288485882E+01  0.30276268430E+02  0.51100000000E-03 0.  1.
         12    1    3    3    0    0 -0.34436667551E+02 -0.13261413539E+02  0.26479459553E+01  0.36996767141E+02  0.00000000000E+00 0. -1.
</event>
<event>
 7    1  0.2405891E-015  0.9000770E+02  0.7816164E-02  0.1186339E+00
        -11   -1    0    0    0    0  0.00000000000E+00  0.00000000000E+00  0.45593999997E+02  0.45594000000E+02  0.51100000000E-03 0.  1.
         11   -1    0    0    0    0 -0.00000000000E+00 -0.00000000000E+00 -0.45593999997E+02  0.45594000000E+02  0.51100000000E-03 0. -1.
    9900012    2    1    2    0    0 -0.13826151686E+00 -0.66281485347E+00 -0.96677944735E+00  0.90007702463E+02  0.89999963335E+02 0.  0.
        -12    1    1    2    0    0  0.13826151686E+00  0.66281485347E+00  0.96677944735E+00  0.11802975374E+01  0.00000000000E+00 0.  1.
         11    1    3    3    0    0 -0.34800710504E+02  0.32410208636E+01  0.15860169592E+02  0.38381488345E+02  0.51100000000E-03 0. -1.
        -11    1    3    3    0    0 -0.33406064867E+00  0.53310122193E+01  0.66159371333E+01  0.85030531113E+01  0.51100000000E-03 0.  1.
        -12    1    3    3    0    0  0.34996509636E+02 -0.92348479364E+01 -0.23442886173E+02  0.43123161007E+02  0.00000000000E+00 0.  1.
</event>
<event>
 7    1  0.2405891E-015  0.9000776E+02  0.7816164E-02  0.1186339E+00
        -11   -1    0    0    0    0  0.00000000000E+00  0.00000000000E+00  0.45593999997E+02  0.45594000000E+02  0.51100000000E-03 0.  1.
         11   -1    0    0    0    0 -0.00000000000E+00 -0.00000000000E+00 -0.45593999997E+02  0.45594000000E+02  0.51100000000E-03 0. -1.
    9900012    2    1    2    0    0 -0.96280987680E+00  0.66763568466E+00 -0.14224965276E+00  0.90007756284E+02  0.90000017867E+02 0.  0.
        -12    1    1    2    0    0  0.96280987680E+00 -0.66763568466E+00  0.14224965276E+00  0.11802437164E+01  0.00000000000E+00 0.  1.
         11    1    3    3    0    0  0.10144991013E+02 -0.94797334094E+00  0.19578201787E+01  0.10375574982E+02  0.51100000000E-03 0. -1.
        -11    1    3    3    0    0  0.28148946657E+02  0.21495456117E+02 -0.36218010015E+01  0.35602461633E+02  0.51100000000E-03 0.  1.
         12    1    3    3    0    0 -0.39256747546E+02 -0.19879847092E+02  0.15217311701E+01  0.44029719668E+02  0.00000000000E+00 0. -1.
</event>
<event>
 7    1  0.2405891E-015  0.9000778E+02  0.7816164E-02  0.1186339E+00
        -11   -1    0    0    0    0  0.00000000000E+00  0.00000000000E+00  0.45593999997E+02  0.45594000000E+02  0.51100000000E-03 0. -1.
         11   -1    0    0    0    0 -0.00000000000E+00 -0.00000000000E+00 -0.45593999997E+02  0.45594000000E+02  0.51100000000E-03 0.  1.
    9900012    2    1    2    0    0 -0.94903297167E+00 -0.64617779000E+00  0.27332170938E+00  0.90007782192E+02  0.90000044117E+02 0.  0.
        -12    1    1    2    0    0  0.94903297167E+00  0.64617779000E+00 -0.27332170938E+00  0.11802178080E+01  0.00000000000E+00 0.  1.
         11    1    3    3    0    0 -0.33432593918E+02  0.17170721226E+02  0.16304120279E+01  0.37619546079E+02  0.51100000000E-03 0. -1.
        -11    1    3    3    0    0 -0.33208352787E+00  0.34690147533E+00 -0.13082234408E+02  0.13091045698E+02  0.51100000000E-03 0.  1.
        -12    1    3    3    0    0  0.32815644475E+02 -0.18163800492E+02  0.11725144089E+02  0.39297190415E+02  0.00000000000E+00 0.  1.
</event>
<event>
 7    1  0.2405891E-015  0.9000774E+02  0.7816164E-02  0.1186339E+00
        -11   -1    0    0    0    0  0.00000000000E+00  0.00000000000E+00  0.45593999997E+02  0.45594000000E+02  0.51100000000E-03 0.  1.
         11   -1    0    0    0    0 -0.00000000000E+00 -0.00000000000E+00 -0.45593999997E+02  0.45594000000E+02  0.51100000000E-03 0. -1.
    9900012    2    1    2    0    0  0.18234437501E+00  0.11443604531E+01 -0.22404455099E+00  0.90007743130E+02  0.90000004540E+02 0.  0.
        -12    1    1    2    0    0 -0.18234437501E+00 -0.11443604531E+01  0.22404455099E+00  0.11802568697E+01  0.00000000000E+00 0.  1.
         11    1    3    3    0    0 -0.19781361971E+01  0.38834066252E+01  0.77069476710E+01  0.88538642691E+01  0.51100000000E-03 0. -1.
        -11    1    3    3    0    0 -0.32216382100E+02  0.17604471844E+02  0.89504510852E+01  0.37787872121E+02  0.51100000000E-03 0.  1.
         12    1    3    3    0    0  0.34376862672E+02 -0.20343518016E+02 -0.16881443307E+02  0.43366006740E+02  0.00000000000E+00 0. -1.
</event>
<event>
 7    1  0.2405891E-015  0.9000790E+02  0.7816164E-02  0.1186339E+00
        -11   -1    0    0    0    0  0.00000000000E+00  0.00000000000E+00  0.45593999997E+02  0.45594000000E+02  0.51100000000E-03 0.  1.
         11   -1    0    0    0    0 -0.00000000000E+00 -0.00000000000E+00 -0.45593999997E+02  0.45594000000E+02  0.51100000000E-03 0. -1.
    9900012    2    1    2    0    0  0.38395215563E+00  0.85909174294E+00 -0.71217013629E+00  0.90007896537E+02  0.90000159971E+02 0.  0.
        -12    1    1    2    0    0 -0.38395215563E+00 -0.85909174294E+00  0.71217013629E+00  0.11801034631E+01  0.00000000000E+00 0.  1.
         11    1    3    3    0    0 -0.71535461947E+01  0.29204751572E+02 -0.33360285605E+02  0.44911016392E+02  0.51100000000E-03 0. -1.
        -11    1    3    3    0    0  0.60531027631E+01 -0.54187172393E+01  0.80119417642E+01  0.11410248055E+02  0.51100000000E-03 0.  1.
        -12    1    3    3    0    0  0.14843955872E+01 -0.22926942589E+02  0.24636173704E+02  0.33686632090E+02  0.00000000000E+00 0.  1.
</event>
<event>
 7    1  0.2405891E-015  0.9000785E+02  0.7816164E-02  0.1186339E+00
        -11   -1    0    0    0    0  0.00000000000E+00  0.00000000000E+00  0.45593999997E+02  0.45594000000E+02  0.51100000000E-03 0. -1.
         11   -1    0    0    0    0 -0.00000000000E+00 -0.00000000000E+00 -0.45593999997E+02  0.45594000000E+02  0.51100000000E-03 0.  1.
    9900012    2    1    2    0    0  0.36290911132E+00 -0.11200710711E+01 -0.80627626924E-01  0.90007846179E+02  0.90000108948E+02 0.  0.
        -12    1    1    2    0    0 -0.36290911132E+00  0.11200710711E+01  0.80627626924E-01  0.11801538211E+01  0.00000000000E+00 0.  1.
         11    1    3    3    0    0 -0.14135745811E+02  0.27767210254E+02  0.23749055409E+02  0.39177224353E+02  0.51100000000E-03 0. -1.
        -11    1    3    3    0    0  0.55615297596E+01  0.63823834594E+01 -0.35857642728E+01  0.91936465873E+01  0.51100000000E-03 0.  1.
        -12    1    3    3    0    0  0.89371251627E+01 -0.35269664784E+02 -0.20243918763E+02  0.41636975239E+02  0.00000000000E+00 0.  1.
</event>
<event>
 7    1  0.2405891E-015  0.9000772E+02  0.7816164E-02  0.1186339E+00
        -11   -1    0    0    0    0  0.00000000000E+00  0.00000000000E+00  0.45593999997E+02  0.45594000000E+02  0.51100000000E-03 0. -1.
         11   -1    0    0    0    0 -0.00000000000E+00 -0.00000000000E+00 -0.45593999997E+02  0.45594000000E+02  0.51100000000E-03 0.  1.
    9900012    2    1    2    0    0 -0.73886701519E+00  0.91731297834E+00 -0.75340024775E-01  0.90007718811E+02  0.89999979899E+02 0.  0.
        -12    1    1    2    0    0  0.73886701519E+00 -0.91731297834E+00  0.75340024775E-01  0.11802811892E+01  0.00000000000E+00 0.  1.
         11    1    3    3    0    0  0.17823317369E+02 -0.58993778293E+01 -0.20952461966E+02  0.28133235924E+02  0.51100000000E-03 0. -1.
        -11    1    3    3    0    0  0.15984391327E+02 -0.10699560271E+02  0.41179949976E+01  0.19670771188E+02  0.51100000000E-03 0.  1.
        -12    1    3    3    0    0 -0.34546575711E+02  0.17516251078E+02  0.16759126944E+02  0.42203711699E+02  0.00000000000E+00 0.  1.
</event>
<event>
 7    1  0.2405891E-015  0.9000772E+02  0.7816164E-02  0.1186339E+00
        -11   -1    0    0    0    0  0.00000000000E+00  0.00000000000E+00  0.45593999997E+02  0.45594000000E+02  0.51100000000E-03 0. -1.
         11   -1    0    0    0    0 -0.00000000000E+00 -0.00000000000E+00 -0.45593999997E+02  0.45594000000E+02  0.51100000000E-03 0.  1.
    9900012    2    1    2    0    0 -0.80863584193E+00  0.16222856664E+00  0.84431185114E+00  0.90007715062E+02  0.89999976101E+02 0.  0.
        -12    1    1    2    0    0  0.80863584193E+00 -0.16222856664E+00 -0.84431185114E+00  0.11802849379E+01  0.00000000000E+00 0.  1.
         11    1    3    3    0    0  0.91515669595E+01 -0.37385028835E+01  0.18691250739E+01  0.10060875232E+02  0.51100000000E-03 0. -1.
        -11    1    3    3    0    0 -0.51893983520E+01 -0.36687137822E+02 -0.94091008887E+01  0.38228354877E+02  0.51100000000E-03 0.  1.
         12    1    3    3    0    0 -0.47708044495E+01  0.40587869272E+02  0.83842876660E+01  0.41718484953E+02  0.00000000000E+00 0. -1.
</event>
<event>
 7    1  0.2405891E-015  0.9000741E+02  0.7816164E-02  0.1186340E+00
        -11   -1    0    0    0    0  0.00000000000E+00  0.00000000000E+00  0.45593999997E+02  0.45594000000E+02  0.51100000000E-03 0. -1.
         11   -1    0    0    0    0 -0.00000000000E+00 -0.00000000000E+00 -0.45593999997E+02  0.45594000000E+02  0.51100000000E-03 0.  1.
    9900012    2    1    2    0    0 -0.77862457098E+00 -0.60690058810E+00  0.64746359002E+00  0.90007409619E+02  0.89999666626E+02 0.  0.
        -12    1    1    2    0    0  0.77862457098E+00  0.60690058810E+00 -0.64746359002E+00  0.11805903806E+01  0.00000000000E+00 0.  1.
         11    1    3    3    0    0 -0.32465726360E+02 -0.13273300250E+02  0.24239484188E+01  0.35157921068E+02  0.51100000000E-03 0. -1.
        -11    1    3    3    0    0 -0.10408538343E+02 -0.48599383933E+00  0.19089349101E+01  0.10593294729E+02  0.51100000000E-03 0.  1.
        -12    1    3    3    0    0  0.42095640133E+02  0.13152393501E+02 -0.36854197389E+01  0.44256193823E+02  0.00000000000E+00 0.  1.
</event>
<event>
 7    1  0.2405891E-015  0.9000791E+02  0.7816164E-02  0.1186339E+00
        -11   -1    0    0    0    0  0.00000000000E+00  0.00000000000E+00  0.45593999997E+02  0.45594000000E+02  0.51100000000E-03 0. -1.
         11   -1    0    0    0    0 -0.00000000000E+00 -0.00000000000E+00 -0.45593999997E+02  0.45594000000E+02  0.51100000000E-03 0.  1.
    9900012    2    1    2    0    0  0.55341700871E+00 -0.56796731276E+00 -0.87392924573E+00  0.90007911198E+02  0.90000174826E+02 0.  0.
        -12    1    1    2    0    0 -0.55341700871E+00  0.56796731276E+00  0.87392924573E+00  0.11800888019E+01  0.00000000000E+00 0.  1.
         11    1    3    3    0    0 -0.59538394628E+01 -0.63744783724E+01 -0.26192731693E+01  0.91072921917E+01  0.51100000000E-03 0. -1.
        -11    1    3    3    0    0  0.14889094834E+02 -0.29955020587E+02 -0.19248146066E+02  0.38593775801E+02  0.51100000000E-03 0.  1.
         12    1    3    3    0    0 -0.83818383625E+01  0.35761531646E+02  0.20993489990E+02  0.42306843205E+02  0.00000000000E+00 0. -1.
</event>
<event>
 7    1  0.2405891E-015  0.9000774E+02  0.7816164E-02  0.1186339E+00
        -11   -1    0    0    0    0  0.00000000000E+00  0.00000000000E+00  0.45593999997E+02  0.45594000000E+02  0.51100000000E-03 0. -1.
         11   -1    0    0    0    0 -0.00000000000E+00 -0.00000000000E+00 -0.45593999997E+02  0.45594000000E+02  0.51100000000E-03 0.  1.
    9900012    2    1    2    0    0 -0.54298774079E+00 -0.52024585936E+00  0.90968146805E+00  0.90007740785E+02  0.90000002164E+02 0.  0.
        -12    1    1    2    0    0  0.54298774079E+00  0.52024585936E+00 -0.90968146805E+00  0.11802592148E+01  0.00000000000E+00 0.  1.
         11    1    3    3    0    0  0.19792425172E+02  0.59758725942E+01  0.30374891710E+02  0.36743505468E+02  0.51100000000E-03 0. -1.
        -11    1    3    3    0    0  0.57909317969E+01  0.67029565446E+01  0.31857759400E+01  0.94134842708E+01  0.51100000000E-03 0.  1.
        -12    1    3    3    0    0 -0.26126344709E+02 -0.13199074998E+02 -0.32650986182E+02  0.43850751046E+02  0.00000000000E+00 0.  1.
</event>
<event>
 7    1  0.2405891E-015  0.9000773E+02  0.7816164E-02  0.1186339E+00
        -11   -1    0    0    0    0  0.00000000000E+00  0.00000000000E+00  0.45593999997E+02  0.45594000000E+02  0.51100000000E-03 0.  1.
         11   -1    0    0    0    0 -0.00000000000E+00 -0.00000000000E+00 -0.45593999997E+02  0.45594000000E+02  0.51100000000E-03 0. -1.
    9900012    2    1    2    0    0  0.20917215163E+00 -0.10765394555E+01  0.43628633970E+00  0.90007730557E+02  0.89999991800E+02 0.  0.
        -12    1    1    2    0    0 -0.20917215163E+00  0.10765394555E+01 -0.43628633970E+00  0.11802694431E+01  0.00000000000E+00 0.  1.
         11    1    3    3    0    0 -0.18409765669E+01  0.33171286844E+02 -0.16164299825E+02  0.36946015410E+02  0.51100000000E-03 0. -1.
        -11    1    3    3    0    0  0.63479132769E+01  0.66946417825E+01  0.33269091556E+01  0.98072705866E+01  0.51100000000E-03 0.  1.
        -12    1    3    3    0    0 -0.42977645583E+01 -0.40942468082E+02  0.13273677009E+02  0.43254444560E+02  0.00000000000E+00 0.  1.
</event>
<event>
 7    1  0.2405891E-015  0.9000812E+02  0.7816164E-02  0.1186338E+00
        -11   -1    0    0    0    0  0.00000000000E+00  0.00000000000E+00  0.45593999997E+02  0.45594000000E+02  0.51100000000E-03 0.  1.
         11   -1    0    0    0    0 -0.00000000000E+00 -0.00000000000E+00 -0.45593999997E+02  0.45594000000E+02  0.51100000000E-03 0. -1.
    9900012    2    1    2    0    0  0.86553985374E+00  0.65538036467E+00  0.46199438395E+00  0.90008118026E+02  0.90000384384E+02 0.  0.
        -12    1    1    2    0    0 -0.86553985374E+00 -0.65538036467E+00 -0.46199438395E+00  0.11798819736E+01  0.00000000000E+00 0.  1.
         11    1    3    3    0    0 -0.19270972502E+01 -0.87365809871E+01 -0.56684368432E+01  0.10591162715E+02  0.51100000000E-03 0. -1.
        -11    1    3    3    0    0  0.11316197181E+02  0.26932200081E+01  0.41147538537E+02  0.42760141260E+02  0.51100000000E-03 0.  1.
         12    1    3    3    0    0 -0.85235600768E+01  0.66987413437E+01 -0.35017107310E+02  0.36656814051E+02  0.00000000000E+00 0. -1.
</event>
<event>
 7    1  0.2405891E-015  0.9000771E+02  0.7816164E-02  0.1186339E+00
        -11   -1    0    0    0    0  0.00000000000E+00  0.00000000000E+00  0.45593999997E+02  0.45594000000E+02  0.51100000000E-03 0.  1.
         11   -1    0    0    0    0 -0.00000000000E+00 -0.00000000000E+00 -0.45593999997E+02  0.45594000000E+02  0.51100000000E-03 0. -1.
    9900012    2    1    2    0    0 -0.16074888732E+00 -0.11612594550E+01 -0.13679977079E+00  0.90007712788E+02  0.89999973796E+02 0.  0.
        -12    1    1    2    0    0  0.16074888732E+00  0.11612594550E+01  0.13679977079E+00  0.11802872125E+01  0.00000000000E+00 0.  1.
         11    1    3    3    0    0  0.13744430924E+02  0.23415371185E+01  0.72583916524E-01  0.13942648464E+02  0.51100000000E-03 0. -1.
        -11    1    3    3    0    0 -0.15870801290E+01  0.20592476072E+02  0.29414652367E+02  0.35941489511E+02  0.51100000000E-03 0.  1.
         12    1    3    3    0    0 -0.12318099682E+02 -0.24095272645E+02 -0.29624036055E+02  0.40123574813E+02  0.00000000000E+00 0. -1.
</event>
<event>
 7    1  0.2405891E-015  0.9000783E+02  0.7816164E-02  0.1186339E+00
        -11   -1    0    0    0    0  0.00000000000E+00  0.00000000000E+00  0.45593999997E+02  0.45594000000E+02  0.51100000000E-03 0.  1.
         11   -1    0    0    0    0 -0.00000000000E+00 -0.00000000000E+00 -0.45593999997E+02  0.45594000000E+02  0.51100000000E-03 0. -1.
    9900012    2    1    2    0    0 -0.57930330443E+00  0.81024655319E+00  0.63301980771E+00  0.90007828033E+02  0.90000090563E+02 0.  0.
        -12    1    1    2    0    0  0.57930330443E+00 -0.81024655319E+00 -0.63301980771E+00  0.11801719673E+01  0.00000000000E+00 0.  1.
         11    1    3    3    0    0  0.33924157171E+01 -0.12159781618E+02  0.59600477230E+00  0.12638195890E+02  0.51100000000E-03 0. -1.
        -11    1    3    3    0    0  0.43476610879E+01 -0.19892981738E+02  0.27166525849E+02  0.33950743826E+02  0.51100000000E-03 0.  1.
         12    1    3    3    0    0 -0.83193801095E+01  0.32863009909E+02 -0.27129510814E+02  0.43418888317E+02  0.00000000000E+00 0. -1.
</event>
<event>
 7    1  0.5589638E-015  0.9000780E+02  0.7816164E-02  0.1186339E+00
        -11   -1    0    0    0    0  0.00000000000E+00  0.00000000000E+00  0.45593999997E+02  0.45594000000E+02  0.51100000000E-03 0. -1.
         11   -1    0    0    0    0 -0.00000000000E+00 -0.00000000000E+00 -0.45593999997E+02  0.45594000000E+02  0.51100000000E-03 0.  1.
    9900012    2    1    2    0    0 -0.76121428384E-01 -0.53354611085E+00  0.10499508408E+01  0.90007803960E+02  0.90000066172E+02 0.  0.
        -12    1    1    2    0    0  0.76121428384E-01  0.53354611085E+00 -0.10499508408E+01  0.11801960398E+01  0.00000000000E+00 0.  1.
         11    1    3    3    0    0 -0.17694914505E+01  0.33236190883E+01 -0.84063383575E+01  0.92110840122E+01  0.51100000000E-03 0. -1.
        -11    1    3    3    0    0  0.13340373543E+02  0.62252618067E+01 -0.32728630750E+02  0.35887082938E+02  0.51100000000E-03 0.  1.
         12    1    3    3    0    0 -0.11647003521E+02 -0.10082427006E+02  0.42184919948E+02  0.44909637010E+02  0.00000000000E+00 0. -1.
</event>
<event>
 7    1  0.2405891E-015  0.9000767E+02  0.7816164E-02  0.1186339E+00
        -11   -1    0    0    0    0  0.00000000000E+00  0.00000000000E+00  0.45593999997E+02  0.45594000000E+02  0.51100000000E-03 0.  1.
         11   -1    0    0    0    0 -0.00000000000E+00 -0.00000000000E+00 -0.45593999997E+02  0.45594000000E+02  0.51100000000E-03 0. -1.
    9900012    2    1    2    0    0 -0.38982184016E+00  0.10256027745E+01  0.43514677449E+00  0.90007671726E+02  0.89999932193E+02 0.  0.
        -12    1    1    2    0    0  0.38982184016E+00 -0.10256027745E+01 -0.43514677449E+00  0.11803282736E+01  0.00000000000E+00 0.  1.
         11    1    3    3    0    0 -0.17316813909E+02 -0.36433214629E+02  0.12363355089E+02  0.42191275419E+02  0.51100000000E-03 0. -1.
        -11    1    3    3    0    0  0.85961829356E+01  0.43097810239E+01  0.36088415840E+01  0.10270945009E+02  0.51100000000E-03 0.  1.
        -12    1    3    3    0    0  0.83308091330E+01  0.33149036379E+02 -0.15537049898E+02  0.37545451299E+02  0.00000000000E+00 0.  1.
</event>
<event>
 7    1  0.2405891E-015  0.9000773E+02  0.7816164E-02  0.1186339E+00
        -11   -1    0    0    0    0  0.00000000000E+00  0.00000000000E+00  0.45593999997E+02  0.45594000000E+02  0.51100000000E-03 0.  1.
         11   -1    0    0    0    0 -0.00000000000E+00 -0.00000000000E+00 -0.45593999997E+02  0.45594000000E+02  0.51100000000E-03 0. -1.
    9900012    2    1    2    0    0  0.28912363542E-01 -0.28856187908E-01 -0.11795644230E+01  0.90007728492E+02  0.89999989708E+02 0.  0.
        -12    1    1    2    0    0 -0.28912363542E-01  0.28856187908E-01  0.11795644230E+01  0.11802715079E+01  0.00000000000E+00 0.  1.
         11    1    3    3    0    0 -0.31454058913E+02 -0.21217796304E+02 -0.13986823485E+02  0.40437407602E+02  0.51100000000E-03 0. -1.
        -11    1    3    3    0    0  0.92937639850E+01  0.74406430774E+01 -0.95021709804E+01  0.15232480823E+02  0.51100000000E-03 0.  1.
        -12    1    3    3    0    0  0.22189207291E+02  0.13748297039E+02  0.22309430043E+02  0.34337840068E+02  0.00000000000E+00 0.  1.
</event>
<event>
 7    1  0.2903420E-015  0.9000774E+02  0.7816164E-02  0.1186339E+00
        -11   -1    0    0    0    0  0.00000000000E+00  0.00000000000E+00  0.45593999997E+02  0.45594000000E+02  0.51100000000E-03 0. -1.
         11   -1    0    0    0    0 -0.00000000000E+00 -0.00000000000E+00 -0.45593999997E+02  0.45594000000E+02  0.51100000000E-03 0.  1.
    9900012    2    1    2    0    0 -0.55640707898E+00 -0.22001862497E+00  0.10173574961E+01  0.90007740152E+02  0.90000001522E+02 0.  0.
        -12    1    1    2    0    0  0.55640707898E+00  0.22001862497E+00 -0.10173574961E+01  0.11802598476E+01  0.00000000000E+00 0.  1.
         11    1    3    3    0    0  0.19238530561E+01  0.86763231366E+00 -0.87064680934E+01  0.89586038720E+01  0.51100000000E-03 0. -1.
        -11    1    3    3    0    0 -0.38379715203E+02 -0.94192907713E+01 -0.77361633522E+01  0.40268769554E+02  0.51100000000E-03 0.  1.
         12    1    3    3    0    0  0.35899455068E+02  0.83316398327E+01  0.17459988942E+02  0.40780366726E+02  0.00000000000E+00 0. -1.
</event>
<event>
 7    1  0.2405891E-015  0.9000797E+02  0.7816164E-02  0.1186339E+00
        -11   -1    0    0    0    0  0.00000000000E+00  0.00000000000E+00  0.45593999997E+02  0.45594000000E+02  0.51100000000E-03 0. -1.
         11   -1    0    0    0    0 -0.00000000000E+00 -0.00000000000E+00 -0.45593999997E+02  0.45594000000E+02  0.51100000000E-03 0.  1.
    9900012    2    1    2    0    0 -0.49002424724E+00 -0.13808837087E+00  0.10645518375E+01  0.90007973400E+02  0.90000237849E+02 0.  0.
        -12    1    1    2    0    0  0.49002424724E+00  0.13808837087E+00 -0.10645518375E+01  0.11800265996E+01  0.00000000000E+00 0.  1.
         11    1    3    3    0    0  0.95364658640E+01  0.24072005942E+00  0.38119034527E+02  0.39294566047E+02  0.51100000000E-03 0. -1.
        -11    1    3    3    0    0 -0.73429906735E+01  0.21408631474E+01  0.45809309219E+01  0.89155894600E+01  0.51100000000E-03 0.  1.
        -12    1    3    3    0    0 -0.26834994377E+01 -0.25196715777E+01 -0.41635413611E+02  0.41797817893E+02  0.00000000000E+00 0.  1.
</event>
<event>
 7    1  0.2405891E-015  0.9000777E+02  0.7816164E-02  0.1186339E+00
        -11   -1    0    0    0    0  0.00000000000E+00  0.00000000000E+00  0.45593999997E+02  0.45594000000E+02  0.51100000000E-03 0. -1.
         11   -1    0    0    0    0 -0.00000000000E+00 -0.00000000000E+00 -0.45593999997E+02  0.45594000000E+02  0.51100000000E-03 0.  1.
    9900012    2    1    2    0    0 -0.38456108277E+00 -0.23971668437E+00  0.10897661941E+01  0.90007770500E+02  0.90000032270E+02 0.  0.
        -12    1    1    2    0    0  0.38456108277E+00  0.23971668437E+00 -0.10897661941E+01  0.11802295002E+01  0.00000000000E+00 0.  1.
         11    1    3    3    0    0  0.72225970383E+01  0.16940901011E+01 -0.50053715251E+01  0.89492789438E+01  0.51100000000E-03 0. -1.
        -11    1    3    3    0    0  0.29553098697E+02  0.20384109424E+02  0.10714392659E+02  0.37465928120E+02  0.51100000000E-03 0.  1.
         12    1    3    3    0    0 -0.37160256818E+02 -0.22317916209E+02 -0.46192549398E+01  0.43592563436E+02  0.00000000000E+00 0. -1.
</event>
<event>
 7    1  0.2405891E-015  0.9000778E+02  0.7816164E-02  0.1186339E+00
        -11   -1    0    0    0    0  0.00000000000E+00  0.00000000000E+00  0.45593999997E+02  0.45594000000E+02  0.51100000000E-03 0.  1.
         11   -1    0    0    0    0 -0.00000000000E+00 -0.00000000000E+00 -0.45593999997E+02  0.45594000000E+02  0.51100000000E-03 0. -1.
    9900012    2    1    2    0    0  0.20775716301E+00  0.52338686615E+00 -0.10372201153E+01  0.90007778657E+02  0.90000040535E+02 0.  0.
        -12    1    1    2    0    0 -0.20775716301E+00 -0.52338686615E+00  0.10372201153E+01  0.11802213428E+01  0.00000000000E+00 0.  1.
         11    1    3    3    0    0  0.30876662423E+01  0.63937174140E+01 -0.75899862851E+01  0.10393324649E+02  0.51100000000E-03 0. -1.
        -11    1    3    3    0    0  0.15318603007E+02  0.70091392282E+01  0.37710197332E+02  0.41301896008E+02  0.51100000000E-03 0.  1.
         12    1    3    3    0    0 -0.18198512087E+02 -0.12879469776E+02 -0.31157431162E+02  0.38312558000E+02  0.00000000000E+00 0. -1.
</event>
<event>
 7    1  0.2405891E-015  0.9000776E+02  0.7816164E-02  0.1186339E+00
        -11   -1    0    0    0    0  0.00000000000E+00  0.00000000000E+00  0.45593999997E+02  0.45594000000E+02  0.51100000000E-03 0. -1.
         11   -1    0    0    0    0 -0.00000000000E+00 -0.00000000000E+00 -0.45593999997E+02  0.45594000000E+02  0.51100000000E-03 0.  1.
    9900012    2    1    2    0    0  0.58721934406E+00  0.91470219526E+00  0.45985350884E+00  0.90007757689E+02  0.90000019290E+02 0.  0.
        -12    1    1    2    0    0 -0.58721934406E+00 -0.91470219526E+00 -0.45985350884E+00  0.11802423114E+01  0.00000000000E+00 0.  1.
         11    1    3    3    0    0 -0.34444395135E+01  0.66791274297E+01  0.57523572950E+01  0.94638534168E+01  0.51100000000E-03 0. -1.
        -11    1    3    3    0    0 -0.72180050129E+01 -0.16889617925E+02  0.33746220191E+02  0.38420907947E+02  0.51100000000E-03 0.  1.
         12    1    3    3    0    0  0.11249663870E+02  0.11125192691E+02 -0.39038723977E+02  0.42122996325E+02  0.00000000000E+00 0. -1.
</event>
<event>
 7    1  0.2405891E-015  0.9000769E+02  0.7816164E-02  0.1186339E+00
        -11   -1    0    0    0    0  0.00000000000E+00  0.00000000000E+00  0.45593999997E+02  0.45594000000E+02  0.51100000000E-03 0.  1.
         11   -1    0    0    0    0 -0.00000000000E+00 -0.00000000000E+00 -0.45593999997E+02  0.45594000000E+02  0.51100000000E-03 0. -1.
    9900012    2    1    2    0    0  0.38535718768E+00 -0.69314522137E+00 -0.87417887938E+00  0.90007686833E+02  0.89999947499E+02 0.  0.
        -12    1    1    2    0    0 -0.38535718768E+00  0.69314522137E+00  0.87417887938E+00  0.11803131674E+01  0.00000000000E+00 0.  1.
         11    1    3    3    0    0 -0.20319939827E+02 -0.19191936531E+02  0.22524702773E+02  0.35896972263E+02  0.51100000000E-03 0. -1.
        -11    1    3    3    0    0 -0.77108373739E+01  0.99987696771E+01  0.44869503764E+01  0.13400191491E+02  0.51100000000E-03 0.  1.
        -12    1    3    3    0    0  0.28416134389E+02  0.85000216323E+01 -0.27885832029E+02  0.40710523078E+02  0.00000000000E+00 0.  1.
</event>
<event>
 7    1  0.2405891E-015  0.9000738E+02  0.7816164E-02  0.1186340E+00
        -11   -1    0    0    0    0  0.00000000000E+00  0.00000000000E+00  0.45593999997E+02  0.45594000000E+02  0.51100000000E-03 0.  1.
         11   -1    0    0    0    0 -0.00000000000E+00 -0.00000000000E+00 -0.45593999997E+02  0.45594000000E+02  0.51100000000E-03 0. -1.
    9900012    2    1    2    0    0  0.31706451606E+00  0.50533570420E-01 -0.11361209155E+01  0.90007383939E+02  0.89999640606E+02 0.  0.
        -12    1    1    2    0    0 -0.31706451606E+00 -0.50533570420E-01  0.11361209155E+01  0.11806160611E+01  0.00000000000E+00 0.  1.
         11    1    3    3    0    0  0.11533404450E+02  0.18727545403E+02 -0.37830608322E+01  0.22317076972E+02  0.51100000000E-03 0. -1.
        -11    1    3    3    0    0  0.24440084678E+02 -0.74686979653E+00  0.11166092621E+02  0.26880423699E+02  0.51100000000E-03 0.  1.
         12    1    3    3    0    0 -0.35656424612E+02 -0.17930142036E+02 -0.85191527044E+01  0.40809883268E+02  0.00000000000E+00 0. -1.
</event>
<event>
 7    1  0.2405891E-015  0.9000734E+02  0.7816164E-02  0.1186340E+00
        -11   -1    0    0    0    0  0.00000000000E+00  0.00000000000E+00  0.45593999997E+02  0.45594000000E+02  0.51100000000E-03 0.  1.
         11   -1    0    0    0    0 -0.00000000000E+00 -0.00000000000E+00 -0.45593999997E+02  0.45594000000E+02  0.51100000000E-03 0. -1.
    9900012    2    1    2    0    0  0.81704835593E-01 -0.66595512040E+00 -0.97149200891E+00  0.90007335515E+02  0.89999591543E+02 0.  0.
        -12    1    1    2    0    0 -0.81704835593E-01  0.66595512040E+00  0.97149200891E+00  0.11806644849E+01  0.00000000000E+00 0.  1.
         11    1    3    3    0    0  0.51684287750E+01 -0.73219323040E+01  0.23816200086E+01  0.92733738624E+01  0.51100000000E-03 0. -1.
        -11    1    3    3    0    0  0.36035730819E+02  0.12245650883E+02  0.50440238918E+01  0.38392343487E+02  0.51100000000E-03 0.  1.
         12    1    3    3    0    0 -0.41122454758E+02 -0.55896736993E+01 -0.83971359093E+01  0.42341618165E+02  0.00000000000E+00 0. -1.
</event>
<event>
 7    1  0.2405891E-015  0.9000768E+02  0.7816164E-02  0.1186339E+00
        -11   -1    0    0    0    0  0.00000000000E+00  0.00000000000E+00  0.45593999997E+02  0.45594000000E+02  0.51100000000E-03 0.  1.
         11   -1    0    0    0    0 -0.00000000000E+00 -0.00000000000E+00 -0.45593999997E+02  0.45594000000E+02  0.51100000000E-03 0. -1.
    9900012    2    1    2    0    0 -0.33904161300E+00  0.10846851325E+01 -0.31883285882E+00  0.90007684176E+02  0.89999944807E+02 0.  0.
        -12    1    1    2    0    0  0.33904161300E+00 -0.10846851325E+01  0.31883285882E+00  0.11803158238E+01  0.00000000000E+00 0.  1.
         11    1    3    3    0    0  0.63709092180E+01  0.56298374002E+01 -0.50551018157E+00  0.85169885653E+01  0.51100000000E-03 0. -1.
        -11    1    3    3    0    0  0.32293649618E+02 -0.21356634231E+02 -0.34079151816E+01  0.38866431757E+02  0.51100000000E-03 0.  1.
         12    1    3    3    0    0 -0.39003600449E+02  0.16811481964E+02  0.35945925043E+01  0.42624263854E+02  0.00000000000E+00 0. -1.
</event>
<event>
 7    1  0.2405891E-015  0.9000753E+02  0.7816164E-02  0.1186339E+00
        -11   -1    0    0    0    0  0.00000000000E+00  0.00000000000E+00  0.45593999997E+02  0.45594000000E+02  0.51100000000E-03 0. -1.
         11   -1    0    0    0    0 -0.00000000000E+00 -0.00000000000E+00 -0.45593999997E+02  0.45594000000E+02  0.51100000000E-03 0.  1.
    9900012    2    1    2    0    0 -0.11543840506E+01 -0.13273095135E+00 -0.20805381322E+00  0.90007531266E+02  0.89999789879E+02 0.  0.
        -12    1    1    2    0    0  0.11543840506E+01  0.13273095135E+00  0.20805381322E+00  0.11804687336E+01  0.00000000000E+00 0.  1.
         11    1    3    3    0    0 -0.13472824364E+01  0.95553431978E+01  0.16734963734E+02  0.19317835412E+02  0.51100000000E-03 0. -1.
        -11    1    3    3    0    0 -0.24356590625E+00 -0.34986546899E+02  0.71960328516E+01  0.35719751921E+02  0.51100000000E-03 0.  1.
         12    1    3    3    0    0  0.43646429199E+00  0.25298472749E+02 -0.24139050399E+02  0.34969943933E+02  0.00000000000E+00 0. -1.
</event>
<event>
 7    1  0.2405891E-015  0.9000776E+02  0.7816164E-02  0.1186339E+00
        -11   -1    0    0    0    0  0.00000000000E+00  0.00000000000E+00  0.45593999997E+02  0.45594000000E+02  0.51100000000E-03 0.  1.
         11   -1    0    0    0    0 -0.00000000000E+00 -0.00000000000E+00 -0.45593999997E+02  0.45594000000E+02  0.51100000000E-03 0. -1.
    9900012    2    1    2    0    0 -0.58389566738E+00 -0.64242372136E+00 -0.79957973793E+00  0.90007758438E+02  0.90000020049E+02 0.  0.
        -12    1    1    2    0    0  0.58389566738E+00  0.64242372136E+00  0.79957973793E+00  0.11802415623E+01  0.00000000000E+00 0.  1.
         11    1    3    3    0    0 -0.26934019509E+02 -0.35848041354E+01 -0.22695472993E+02  0.35403060916E+02  0.51100000000E-03 0. -1.
        -11    1    3    3    0    0 -0.50874297216E+01  0.39147115850E+01 -0.86425107189E+01  0.10765681574E+02  0.51100000000E-03 0.  1.
        -12    1    3    3    0    0  0.31437553563E+02 -0.97233117092E+00  0.30538403974E+02  0.43839015947E+02  0.00000000000E+00 0.  1.
</event>
<event>
 7    1  0.2405891E-015  0.9000776E+02  0.7816164E-02  0.1186339E+00
        -11   -1    0    0    0    0  0.00000000000E+00  0.00000000000E+00  0.45593999997E+02  0.45594000000E+02  0.51100000000E-03 0. -1.
         11   -1    0    0    0    0 -0.00000000000E+00 -0.00000000000E+00 -0.45593999997E+02  0.45594000000E+02  0.51100000000E-03 0.  1.
    9900012    2    1    2    0    0  0.93626818927E+00  0.16807102039E+00 -0.69866424070E+00  0.90007755232E+02  0.90000016801E+02 0.  0.
        -12    1    1    2    0    0 -0.93626818927E+00 -0.16807102039E+00  0.69866424070E+00  0.11802447676E+01  0.00000000000E+00 0.  1.
         11    1    3    3    0    0  0.42638548978E+00  0.13842908770E+02 -0.34040914809E+02  0.36750398761E+02  0.51100000000E-03 0. -1.
        -11    1    3    3    0    0  0.22602866362E+01  0.72508840849E+01 -0.53114944268E+01  0.92680196912E+01  0.51100000000E-03 0.  1.
        -12    1    3    3    0    0 -0.17504039367E+01 -0.20925721835E+02  0.38653744995E+02  0.43989336780E+02  0.00000000000E+00 0.  1.
</event>
<event>
 7    1  0.2405891E-015  0.9000787E+02  0.7816164E-02  0.1186339E+00
        -11   -1    0    0    0    0  0.00000000000E+00  0.00000000000E+00  0.45593999997E+02  0.45594000000E+02  0.51100000000E-03 0. -1.
         11   -1    0    0    0    0 -0.00000000000E+00 -0.00000000000E+00 -0.45593999997E+02  0.45594000000E+02  0.51100000000E-03 0.  1.
    9900012    2    1    2    0    0  0.10522359129E+01  0.42391767657E+00  0.32526950706E+00  0.90007869980E+02  0.90000133063E+02 0.  0.
        -12    1    1    2    0    0 -0.10522359129E+01 -0.42391767657E+00 -0.32526950706E+00  0.11801300205E+01  0.00000000000E+00 0.  1.
         11    1    3    3    0    0  0.79934910060E+01  0.13703238363E+02 -0.68193397320E+01  0.17267832369E+02  0.51100000000E-03 0. -1.
        -11    1    3    3    0    0 -0.26313856700E+02 -0.14887164159E+02 -0.22222635438E+02  0.37521890107E+02  0.51100000000E-03 0.  1.
         12    1    3    3    0    0  0.19372601607E+02  0.16078434723E+01  0.29367244677E+02  0.35218147503E+02  0.00000000000E+00 0. -1.
</event>
<event>
 7    1  0.2405891E-015  0.9000774E+02  0.7816164E-02  0.1186339E+00
        -11   -1    0    0    0    0  0.00000000000E+00  0.00000000000E+00  0.45593999997E+02  0.45594000000E+02  0.51100000000E-03 0.  1.
         11   -1    0    0    0    0 -0.00000000000E+00 -0.00000000000E+00 -0.45593999997E+02  0.45594000000E+02  0.51100000000E-03 0. -1.
    9900012    2    1    2    0    0 -0.26652508350E+00 -0.10361755950E+01 -0.49830904592E+00  0.90007742660E+02  0.90000004063E+02 0.  0.
        -12    1    1    2    0    0  0.26652508350E+00  0.10361755950E+01  0.49830904592E+00  0.11802573401E+01  0.00000000000E+00 0.  1.
         11    1    3    3    0    0  0.18228402187E+02  0.82443986609E+01 -0.14751986456E+02  0.24856907696E+02  0.51100000000E-03 0. -1.
        -11    1    3    3    0    0 -0.79679031057E+00  0.17879855333E+02 -0.13545783622E+02  0.22445764761E+02  0.51100000000E-03 0.  1.
        -12    1    3    3    0    0 -0.17698136960E+02 -0.27160429589E+02  0.27799461032E+02  0.42705070202E+02  0.00000000000E+00 0.  1.
</event>
<event>
 7    1  0.2405891E-015  0.9000776E+02  0.7816164E-02  0.1186339E+00
        -11   -1    0    0    0    0  0.00000000000E+00  0.00000000000E+00  0.45593999997E+02  0.45594000000E+02  0.51100000000E-03 0.  1.
         11   -1    0    0    0    0 -0.00000000000E+00 -0.00000000000E+00 -0.45593999997E+02  0.45594000000E+02  0.51100000000E-03 0. -1.
    9900012    2    1    2    0    0 -0.68826623894E+00  0.51641168281E+00 -0.80782224618E+00  0.90007759252E+02  0.90000020874E+02 0.  0.
        -12    1    1    2    0    0  0.68826623894E+00 -0.51641168281E+00  0.80782224618E+00  0.11802407480E+01  0.00000000000E+00 0.  1.
         11    1    3    3    0    0 -0.97804685878E+01  0.13118020334E+01  0.17587300388E+00  0.98696160992E+01  0.51100000000E-03 0. -1.
        -11    1    3    3    0    0 -0.26839710657E+02 -0.18108240060E+02  0.16790260326E+02  0.36471787292E+02  0.51100000000E-03 0.  1.
         12    1    3    3    0    0  0.35931913006E+02  0.17312849710E+02 -0.17773955576E+02  0.43666355860E+02  0.00000000000E+00 0. -1.
</event>
<event>
 7    1  0.2405891E-015  0.9000776E+02  0.7816164E-02  0.1186339E+00
        -11   -1    0    0    0    0  0.00000000000E+00  0.00000000000E+00  0.45593999997E+02  0.45594000000E+02  0.51100000000E-03 0. -1.
         11   -1    0    0    0    0 -0.00000000000E+00 -0.00000000000E+00 -0.45593999997E+02  0.45594000000E+02  0.51100000000E-03 0.  1.
    9900012    2    1    2    0    0  0.51021539279E+00 -0.12207947515E+00  0.10572333639E+01  0.90007760393E+02  0.90000022030E+02 0.  0.
        -12    1    1    2    0    0 -0.51021539279E+00  0.12207947515E+00 -0.10572333639E+01  0.11802396074E+01  0.00000000000E+00 0.  1.
         11    1    3    3    0    0 -0.74932513321E+00 -0.29393407075E+02  0.28421878860E+02  0.40894218000E+02  0.51100000000E-03 0. -1.
        -11    1    3    3    0    0  0.13219004700E+02  0.60112211041E+01 -0.80813000698E+01  0.16618792841E+02  0.51100000000E-03 0.  1.
        -12    1    3    3    0    0 -0.11959464174E+02  0.23260106496E+02 -0.19283345427E+02  0.32494749551E+02  0.00000000000E+00 0.  1.
</event>
<event>
 7    1  0.2405891E-015  0.9000772E+02  0.7816164E-02  0.1186339E+00
        -11   -1    0    0    0    0  0.00000000000E+00  0.00000000000E+00  0.45593999997E+02  0.45594000000E+02  0.51100000000E-03 0. -1.
         11   -1    0    0    0    0 -0.00000000000E+00 -0.00000000000E+00 -0.45593999997E+02  0.45594000000E+02  0.51100000000E-03 0.  1.
    9900012    2    1    2    0    0  0.23039247637E+00 -0.76727708245E+00 -0.86676023725E+00  0.90007716931E+02  0.89999977994E+02 0.  0.
        -12    1    1    2    0    0 -0.23039247637E+00  0.76727708245E+00  0.86676023725E+00  0.11802830691E+01  0.00000000000E+00 0.  1.
         11    1    3    3    0    0 -0.29818614734E+02 -0.22500197390E+02 -0.17031378375E+02  0.41054555373E+02  0.51100000000E-03 0. -1.
        -11    1    3    3    0    0  0.65040096512E+01 -0.53222117989E+01 -0.21602631518E+01  0.86772586179E+01  0.51100000000E-03 0.  1.
        -12    1    3    3    0    0  0.23544997559E+02  0.27055132107E+02  0.18324881290E+02  0.40275902940E+02  0.00000000000E+00 0.  1.
</event>
<event>
 7    1  0.2405891E-015  0.9000779E+02  0.7816164E-02  0.1186339E+00
        -11   -1    0    0    0    0  0.00000000000E+00  0.00000000000E+00  0.45593999997E+02  0.45594000000E+02  0.51100000000E-03 0.  1.
         11   -1    0    0    0    0 -0.00000000000E+00 -0.00000000000E+00 -0.45593999997E+02  0.45594000000E+02  0.51100000000E-03 0. -1.
    9900012    2    1    2    0    0  0.37855430452E+00  0.97049442192E+00 -0.55473395276E+00  0.90007791314E+02  0.90000053359E+02 0.  0.
        -12    1    1    2    0    0 -0.37855430452E+00 -0.97049442192E+00  0.55473395276E+00  0.11802086861E+01  0.00000000000E+00 0.  1.
         11    1    3    3    0    0  0.11652299849E+02 -0.81921634395E+00  0.22145546863E+00  0.11683160958E+02  0.51100000000E-03 0. -1.
        -11    1    3    3    0    0  0.61648605131E+01 -0.35662475002E+02 -0.59903184891E+01  0.36683804932E+02  0.51100000000E-03 0.  1.
         12    1    3    3    0    0 -0.17438606057E+02  0.37452185768E+02  0.52141290677E+01  0.41640825424E+02  0.00000000000E+00 0. -1.
</event>
<event>
 7    1  0.2405891E-015  0.9000778E+02  0.7816164E-02  0.1186339E+00
        -11   -1    0    0    0    0  0.00000000000E+00  0.00000000000E+00  0.45593999997E+02  0.45594000000E+02  0.51100000000E-03 0.  1.
         11   -1    0    0    0    0 -0.00000000000E+00 -0.00000000000E+00 -0.45593999997E+02  0.45594000000E+02  0.51100000000E-03 0. -1.
    9900012    2    1    2    0    0 -0.75874500267E+00 -0.77244085016E+00 -0.46964118201E+00  0.90007778967E+02  0.90000040850E+02 0.  0.
        -12    1    1    2    0    0  0.75874500267E+00  0.77244085016E+00  0.46964118201E+00  0.11802210327E+01  0.00000000000E+00 0.  1.
         11    1    3    3    0    0 -0.12054568873E+02 -0.39279117444E+02 -0.91338262693E+01  0.42090242105E+02  0.51100000000E-03 0. -1.
        -11    1    3    3    0    0 -0.37963749630E-01  0.88872127054E+00  0.85832492616E+01  0.86292198310E+01  0.51100000000E-03 0.  1.
        -12    1    3    3    0    0  0.11333787620E+02  0.37617955323E+02  0.80935825629E-01  0.39288317031E+02  0.00000000000E+00 0.  1.
</event>
<event>
 7    1  0.2405891E-015  0.9000766E+02  0.7816164E-02  0.1186339E+00
        -11   -1    0    0    0    0  0.00000000000E+00  0.00000000000E+00  0.45593999997E+02  0.45594000000E+02  0.51100000000E-03 0. -1.
         11   -1    0    0    0    0 -0.00000000000E+00 -0.00000000000E+00 -0.45593999997E+02  0.45594000000E+02  0.51100000000E-03 0.  1.
    9900012    2    1    2    0    0 -0.71422882423E+00 -0.50116625016E+00 -0.79493513360E+00  0.90007655859E+02  0.89999916117E+02 0.  0.
        -12    1    1    2    0    0  0.71422882423E+00  0.50116625016E+00  0.79493513360E+00  0.11803441406E+01  0.00000000000E+00 0.  1.
         11    1    3    3    0    0 -0.77467620668E+01  0.22329988910E+02  0.25895894021E+02  0.35060491364E+02  0.51100000000E-03 0. -1.
        -11    1    3    3    0    0  0.73503513667E+01  0.85194327070E+01  0.31284142016E+01  0.11678843031E+02  0.51100000000E-03 0.  1.
        -12    1    3    3    0    0 -0.31781812415E+00 -0.31350587868E+02 -0.29819243356E+02  0.43268321465E+02  0.00000000000E+00 0.  1.
</event>
<event>
 7    1  0.2405891E-015  0.9000786E+02  0.7816164E-02  0.1186339E+00
        -11   -1    0    0    0    0  0.00000000000E+00  0.00000000000E+00  0.45593999997E+02  0.45594000000E+02  0.51100000000E-03 0.  1.
         11   -1    0    0    0    0 -0.00000000000E+00 -0.00000000000E+00 -0.45593999997E+02  0.45594000000E+02  0.51100000000E-03 0. -1.
    9900012    2    1    2    0    0 -0.11513582892E+01 -0.20659936173E+00  0.15624405400E+00  0.90007863817E+02  0.90000126819E+02 0.  0.
        -12    1    1    2    0    0  0.11513582892E+01  0.20659936173E+00 -0.15624405400E+00  0.11801361831E+01  0.00000000000E+00 0.  1.
         11    1    3    3    0    0 -0.22216042606E+02  0.23937152381E+02 -0.25967068284E+02  0.41723236317E+02  0.51100000000E-03 0. -1.
        -11    1    3    3    0    0  0.90256509419E+01  0.40748420070E+01  0.56506015542E+01  0.11401579298E+02  0.51100000000E-03 0.  1.
        -12    1    3    3    0    0  0.12039033375E+02 -0.28218593750E+02  0.20472710784E+02  0.36883048202E+02  0.00000000000E+00 0.  1.
</event>
<event>
 7    1  0.2405891E-015  0.9000772E+02  0.7816164E-02  0.1186339E+00
        -11   -1    0    0    0    0  0.00000000000E+00  0.00000000000E+00  0.45593999997E+02  0.45594000000E+02  0.51100000000E-03 0.  1.
         11   -1    0    0    0    0 -0.00000000000E+00 -0.00000000000E+00 -0.45593999997E+02  0.45594000000E+02  0.51100000000E-03 0. -1.
    9900012    2    1    2    0    0  0.94131534621E+00 -0.68847430517E-01 -0.70870080280E+00  0.90007715552E+02  0.89999976598E+02 0.  0.
        -12    1    1    2    0    0 -0.94131534621E+00  0.68847430517E-01  0.70870080280E+00  0.11802844477E+01  0.00000000000E+00 0.  1.
         11    1    3    3    0    0  0.19575249181E+00 -0.36067510689E+01  0.82777837497E+01  0.90315378745E+01  0.51100000000E-03 0. -1.
        -11    1    3    3    0    0 -0.29930415814E+02 -0.19170123653E+02  0.11882548971E+02  0.37476904915E+02  0.51100000000E-03 0.  1.
         12    1    3    3    0    0  0.30675978669E+02  0.22708027291E+02 -0.20869033523E+02  0.43499272763E+02  0.00000000000E+00 0. -1.
</event>
<event>
 7    1  0.2405891E-015  0.9000782E+02  0.7816164E-02  0.1186339E+00
        -11   -1    0    0    0    0  0.00000000000E+00  0.00000000000E+00  0.45593999997E+02  0.45594000000E+02  0.51100000000E-03 0. -1.
         11   -1    0    0    0    0 -0.00000000000E+00 -0.00000000000E+00 -0.45593999997E+02  0.45594000000E+02  0.51100000000E-03 0.  1.
    9900012    2    1    2    0    0  0.71608179608E+00 -0.41824123064E+00  0.83971583704E+00  0.90007821390E+02  0.90000083832E+02 0.  0.
        -12    1    1    2    0    0 -0.71608179608E+00  0.41824123064E+00 -0.83971583704E+00  0.11801786105E+01  0.00000000000E+00 0.  1.
         11    1    3    3    0    0  0.14758076794E+02  0.11407800745E+02  0.34760408162E+02  0.39449014238E+02  0.51100000000E-03 0. -1.
        -11    1    3    3    0    0  0.26617967665E+01 -0.85804011230E+01  0.33494819491E+01  0.95878816767E+01  0.51100000000E-03 0.  1.
        -12    1    3    3    0    0 -0.16703791765E+02 -0.32456408529E+01 -0.37270174274E+02  0.40970925475E+02  0.00000000000E+00 0.  1.
</event>
<event>
 7    1  0.2405891E-015  0.9000769E+02  0.7816164E-02  0.1186339E+00
        -11   -1    0    0    0    0  0.00000000000E+00  0.00000000000E+00  0.45593999997E+02  0.45594000000E+02  0.51100000000E-03 0. -1.
         11   -1    0    0    0    0 -0.00000000000E+00 -0.00000000000E+00 -0.45593999997E+02  0.45594000000E+02  0.51100000000E-03 0.  1.
    9900012    2    1    2    0    0  0.73378449627E+00  0.26302730840E+00  0.88629084864E+00  0.90007688804E+02  0.89999949496E+02 0.  0.
        -12    1    1    2    0    0 -0.73378449627E+00 -0.26302730840E+00 -0.88629084864E+00  0.11803111964E+01  0.00000000000E+00 0.  1.
         11    1    3    3    0    0  0.22379072587E+02 -0.13997710733E+02 -0.26889749895E+02  0.37680465036E+02  0.51100000000E-03 0. -1.
        -11    1    3    3    0    0  0.95061820682E+01 -0.11474057616E+01  0.53967678195E+01  0.10991321151E+02  0.51100000000E-03 0.  1.
        -12    1    3    3    0    0 -0.31151470159E+02  0.15408143803E+02  0.22379272924E+02  0.41335902617E+02  0.00000000000E+00 0.  1.
</event>
<event>
 7    1  0.2580887E-015  0.9000782E+02  0.7816164E-02  0.1186339E+00
        -11   -1    0    0    0    0  0.00000000000E+00  0.00000000000E+00  0.45593999997E+02  0.45594000000E+02  0.51100000000E-03 0.  1.
         11   -1    0    0    0    0 -0.00000000000E+00 -0.00000000000E+00 -0.45593999997E+02  0.45594000000E+02  0.51100000000E-03 0. -1.
    9900012    2    1    2    0    0 -0.73385268421E+00  0.77290687608E+00 -0.50685812473E+00  0.90007817828E+02  0.90000080223E+02 0.  0.
        -12    1    1    2    0    0  0.73385268421E+00 -0.77290687608E+00  0.50685812473E+00  0.11801821723E+01  0.00000000000E+00 0.  1.
         11    1    3    3    0    0  0.73895642972E+01 -0.50791103713E+01 -0.21207262735E+01  0.92141468869E+01  0.51100000000E-03 0. -1.
        -11    1    3    3    0    0 -0.19761468870E+02 -0.33955726660E+02  0.15878358763E+01  0.39319565714E+02  0.51100000000E-03 0.  1.
         12    1    3    3    0    0  0.11638051888E+02  0.39807743907E+02  0.26032272467E-01  0.41474105227E+02  0.00000000000E+00 0. -1.
</event>
<event>
 7    1  0.2405891E-015  0.9000771E+02  0.7816164E-02  0.1186339E+00
        -11   -1    0    0    0    0  0.00000000000E+00  0.00000000000E+00  0.45593999997E+02  0.45594000000E+02  0.51100000000E-03 0. -1.
         11   -1    0    0    0    0 -0.00000000000E+00 -0.00000000000E+00 -0.45593999997E+02  0.45594000000E+02  0.51100000000E-03 0.  1.
    9900012    2    1    2    0    0  0.62988697138E+00 -0.46320563294E+00  0.88418000038E+00  0.90007707101E+02  0.89999968034E+02 0.  0.
        -12    1    1    2    0    0 -0.62988697138E+00  0.46320563294E+00 -0.88418000038E+00  0.11802928993E+01  0.00000000000E+00 0.  1.
         11    1    3    3    0    0  0.12591670507E+01  0.54416402492E+01  0.42110209414E+02  0.42479014671E+02  0.51100000000E-03 0. -1.
        -11    1    3    3    0    0 -0.69108610424E+01 -0.77219285590E+01 -0.65898597182E+01  0.12280652767E+02  0.51100000000E-03 0.  1.
        -12    1    3    3    0    0  0.62815809631E+01  0.18170826769E+01 -0.34636169696E+02  0.35248039662E+02  0.00000000000E+00 0.  1.
</event>
<event>
 7    1  0.2405891E-015  0.9000795E+02  0.7816164E-02  0.1186339E+00
        -11   -1    0    0    0    0  0.00000000000E+00  0.00000000000E+00  0.45593999997E+02  0.45594000000E+02  0.51100000000E-03 0.  1.
         11   -1    0    0    0    0 -0.00000000000E+00 -0.00000000000E+00 -0.45593999997E+02  0.45594000000E+02  0.51100000000E-03 0. -1.
    9900012    2    1    2    0    0 -0.10096775201E+01  0.38246788276E+00 -0.47621016122E+00  0.90007954876E+02  0.90000219081E+02 0.  0.
        -12    1    1    2    0    0  0.10096775201E+01 -0.38246788276E+00  0.47621016122E+00  0.11800451235E+01  0.00000000000E+00 0.  1.
         11    1    3    3    0    0  0.54502481154E-01 -0.12062553859E+02 -0.54192376672E+00  0.12074844005E+02  0.51100000000E-03 0. -1.
        -11    1    3    3    0    0  0.31741029239E+02  0.23825170258E+02  0.11593356595E+02  0.41346554782E+02  0.51100000000E-03 0.  1.
         12    1    3    3    0    0 -0.32805209240E+02 -0.11380148517E+02 -0.11527642989E+02  0.36586556089E+02  0.00000000000E+00 0. -1.
</event>
<event>
 7    1  0.2405891E-015  0.9000773E+02  0.7816164E-02  0.1186339E+00
        -11   -1    0    0    0    0  0.00000000000E+00  0.00000000000E+00  0.45593999997E+02  0.45594000000E+02  0.51100000000E-03 0.  1.
         11   -1    0    0    0    0 -0.00000000000E+00 -0.00000000000E+00 -0.45593999997E+02  0.45594000000E+02  0.51100000000E-03 0. -1.
    9900012    2    1    2    0    0 -0.10592808210E+01  0.10706172368E+00 -0.50941076355E+00  0.90007729948E+02  0.89999991183E+02 0.  0.
        -12    1    1    2    0    0  0.10592808210E+01 -0.10706172368E+00  0.50941076355E+00  0.11802700524E+01  0.00000000000E+00 0.  1.
         11    1    3    3    0    0 -0.15498815010E+02  0.29741837753E+02 -0.22866745550E+02  0.40591602973E+02  0.51100000000E-03 0. -1.
        -11    1    3    3    0    0 -0.14754517043E+01  0.39529079618E+01  0.89671792985E+01  0.99102343019E+01  0.51100000000E-03 0.  1.
        -12    1    3    3    0    0  0.15914985893E+02 -0.33587683991E+02  0.13390155488E+02  0.39505892672E+02  0.00000000000E+00 0.  1.
</event>
<event>
 7    1  0.2405891E-015  0.9000770E+02  0.7816164E-02  0.1186339E+00
        -11   -1    0    0    0    0  0.00000000000E+00  0.00000000000E+00  0.45593999997E+02  0.45594000000E+02  0.51100000000E-03 0. -1.
         11   -1    0    0    0    0 -0.00000000000E+00 -0.00000000000E+00 -0.45593999997E+02  0.45594000000E+02  0.51100000000E-03 0.  1.
    9900012    2    1    2    0    0 -0.15617692134E+00  0.46685359585E+00  0.10727343118E+01  0.90007702404E+02  0.89999963276E+02 0.  0.
        -12    1    1    2    0    0  0.15617692134E+00 -0.46685359585E+00 -0.10727343118E+01  0.11802975957E+01  0.00000000000E+00 0.  1.
         11    1    3    3    0    0  0.12219247703E+02 -0.44984732271E+01 -0.10525142517E+02  0.16742905992E+02  0.51100000000E-03 0. -1.
        -11    1    3    3    0    0  0.67707531389E+01 -0.14259090819E+02 -0.23865097257E+02  0.28613067581E+02  0.51100000000E-03 0.  1.
         12    1    3    3    0    0 -0.19146177763E+02  0.19224417642E+02  0.35462974086E+02  0.44651728831E+02  0.00000000000E+00 0. -1.
</event>
<event>
 7    1  0.2405891E-015  0.9000765E+02  0.7816164E-02  0.1186339E+00
        -11   -1    0    0    0    0  0.00000000000E+00  0.00000000000E+00  0.45593999997E+02  0.45594000000E+02  0.51100000000E-03 0.  1.
         11   -1    0    0    0    0 -0.00000000000E+00 -0.00000000000E+00 -0.45593999997E+02  0.45594000000E+02  0.51100000000E-03 0. -1.
    9900012    2    1    2    0    0  0.12270551369E+00  0.98913461241E+00 -0.63228673224E+00  0.90007648173E+02  0.89999908328E+02 0.  0.
        -12    1    1    2    0    0 -0.12270551369E+00 -0.98913461241E+00  0.63228673224E+00  0.11803518274E+01  0.00000000000E+00 0.  1.
         11    1    3    3    0    0 -0.82699586862E+01  0.28335342954E+02 -0.28675691861E+02  0.41153118727E+02  0.51100000000E-03 0. -1.
        -11    1    3    3    0    0 -0.50737235704E+01  0.20119476052E+01  0.11126728866E+02  0.12393332867E+02  0.51100000000E-03 0.  1.
        -12    1    3    3    0    0  0.13466387770E+02 -0.29358155946E+02  0.16916676262E+02  0.36461196578E+02  0.00000000000E+00 0.  1.
</event>
<event>
 7    1  0.2405891E-015  0.9000796E+02  0.7816164E-02  0.1186339E+00
        -11   -1    0    0    0    0  0.00000000000E+00  0.00000000000E+00  0.45593999997E+02  0.45594000000E+02  0.51100000000E-03 0.  1.
         11   -1    0    0    0    0 -0.00000000000E+00 -0.00000000000E+00 -0.45593999997E+02  0.45594000000E+02  0.51100000000E-03 0. -1.
    9900012    2    1    2    0    0 -0.62388063242E+00 -0.86996028553E+00 -0.49642024546E+00  0.90007961440E+02  0.90000225731E+02 0.  0.
        -12    1    1    2    0    0  0.62388063242E+00  0.86996028553E+00  0.49642024546E+00  0.11800385595E+01  0.00000000000E+00 0.  1.
         11    1    3    3    0    0  0.67740580656E+01 -0.83089295943E+01  0.48201055804E+01  0.11754130838E+02  0.51100000000E-03 0. -1.
        -11    1    3    3    0    0  0.22141381556E+02 -0.24925371963E+02 -0.82262222418E+01  0.34339273105E+02  0.51100000000E-03 0.  1.
         12    1    3    3    0    0 -0.29539320254E+02  0.32364341272E+02  0.29096964159E+01  0.43914557498E+02  0.00000000000E+00 0. -1.
</event>
<event>
 7    1  0.2405891E-015  0.9000776E+02  0.7816164E-02  0.1186339E+00
        -11   -1    0    0    0    0  0.00000000000E+00  0.00000000000E+00  0.45593999997E+02  0.45594000000E+02  0.51100000000E-03 0.  1.
         11   -1    0    0    0    0 -0.00000000000E+00 -0.00000000000E+00 -0.45593999997E+02  0.45594000000E+02  0.51100000000E-03 0. -1.
    9900012    2    1    2    0    0  0.24197215081E+00 -0.11347873123E+01 -0.21604091125E+00  0.90007760007E+02  0.90000021639E+02 0.  0.
        -12    1    1    2    0    0 -0.24197215081E+00  0.11347873123E+01  0.21604091125E+00  0.11802399931E+01  0.00000000000E+00 0.  1.
         11    1    3    3    0    0  0.55939592497E+01  0.57001392112E+01 -0.19560910479E+01  0.82225458079E+01  0.51100000000E-03 0. -1.
        -11    1    3    3    0    0 -0.78086038438E+01  0.27978741071E+02 -0.24596633679E+02  0.38062824836E+02  0.51100000000E-03 0.  1.
         12    1    3    3    0    0  0.24566167449E+01 -0.34813667594E+02  0.26336683816E+02  0.43722389363E+02  0.00000000000E+00 0. -1.
</event>
<event>
 7    1  0.2405891E-015  0.9000772E+02  0.7816164E-02  0.1186339E+00
        -11   -1    0    0    0    0  0.00000000000E+00  0.00000000000E+00  0.45593999997E+02  0.45594000000E+02  0.51100000000E-03 0.  1.
         11   -1    0    0    0    0 -0.00000000000E+00 -0.00000000000E+00 -0.45593999997E+02  0.45594000000E+02  0.51100000000E-03 0. -1.
    9900012    2    1    2    0    0  0.42514993576E+00 -0.10999044929E+01  0.50104939935E-01  0.90007723394E+02  0.89999984543E+02 0.  0.
        -12    1    1    2    0    0 -0.42514993576E+00  0.10999044929E+01 -0.50104939935E-01  0.11802766059E+01  0.00000000000E+00 0.  1.
         11    1    3    3    0    0  0.10376714889E+02  0.19347025416E+01  0.44418491058E+00  0.10564875121E+02  0.51100000000E-03 0. -1.
        -11    1    3    3    0    0 -0.16440091082E+02 -0.36243265567E+02 -0.15077040627E+02  0.42557820058E+02  0.51100000000E-03 0.  1.
         12    1    3    3    0    0  0.64885261286E+01  0.33208658532E+02  0.14682960656E+02  0.36885028216E+02  0.00000000000E+00 0. -1.
</event>
<event>
 7    1  0.2405891E-015  0.9000772E+02  0.7816164E-02  0.1186339E+00
        -11   -1    0    0    0    0  0.00000000000E+00  0.00000000000E+00  0.45593999997E+02  0.45594000000E+02  0.51100000000E-03 0.  1.
         11   -1    0    0    0    0 -0.00000000000E+00 -0.00000000000E+00 -0.45593999997E+02  0.45594000000E+02  0.51100000000E-03 0. -1.
    9900012    2    1    2    0    0 -0.42944963506E+00  0.10287055028E+01  0.38782539820E+00  0.90007715907E+02  0.89999976957E+02 0.  0.
        -12    1    1    2    0    0  0.42944963506E+00 -0.10287055028E+01 -0.38782539820E+00  0.11802840929E+01  0.00000000000E+00 0.  1.
         11    1    3    3    0    0  0.30805795468E+01 -0.86062138828E+01 -0.86165949798E+00  0.91814674803E+01  0.51100000000E-03 0. -1.
        -11    1    3    3    0    0 -0.22310304889E+02  0.28545644617E+02 -0.24516881463E+02  0.43745639872E+02  0.51100000000E-03 0.  1.
         12    1    3    3    0    0  0.18800275707E+02 -0.18910725232E+02  0.25766366359E+02  0.37080608555E+02  0.00000000000E+00 0. -1.
</event>
<event>
 7    1  0.2405891E-015  0.9000776E+02  0.7816164E-02  0.1186339E+00
        -11   -1    0    0    0    0  0.00000000000E+00  0.00000000000E+00  0.45593999997E+02  0.45594000000E+02  0.51100000000E-03 0. -1.
         11   -1    0    0    0    0 -0.00000000000E+00 -0.00000000000E+00 -0.45593999997E+02  0.45594000000E+02  0.51100000000E-03 0.  1.
    9900012    2    1    2    0    0 -0.94584330539E+00  0.66926689346E+00  0.22455941075E+00  0.90007760761E+02  0.90000022403E+02 0.  0.
        -12    1    1    2    0    0  0.94584330539E+00 -0.66926689346E+00 -0.22455941075E+00  0.11802392393E+01  0.00000000000E+00 0.  1.
         11    1    3    3    0    0  0.96576342176E+01 -0.18378253755E+01  0.33488830938E+02  0.34901995625E+02  0.51100000000E-03 0. -1.
        -11    1    3    3    0    0  0.86173741519E+01  0.17572808909E+01  0.64982060941E+01  0.10934983132E+02  0.51100000000E-03 0.  1.
        -12    1    3    3    0    0 -0.19220851675E+02  0.74981137815E+00 -0.39762477621E+02  0.44170782003E+02  0.00000000000E+00 0.  1.
</event>
<event>
 7    1  0.2405891E-015  0.9000775E+02  0.7816164E-02  0.1186339E+00
        -11   -1    0    0    0    0  0.00000000000E+00  0.00000000000E+00  0.45593999997E+02  0.45594000000E+02  0.51100000000E-03 0. -1.
         11   -1    0    0    0    0 -0.00000000000E+00 -0.00000000000E+00 -0.45593999997E+02  0.45594000000E+02  0.51100000000E-03 0.  1.
    9900012    2    1    2    0    0  0.93200800963E+00 -0.57422140691E+00  0.44115259126E+00  0.90007752245E+02  0.90000013775E+02 0.  0.
        -12    1    1    2    0    0 -0.93200800963E+00  0.57422140691E+00 -0.44115259126E+00  0.11802477549E+01  0.00000000000E+00 0.  1.
         11    1    3    3    0    0  0.54951377000E+01 -0.32249020113E+00  0.39727838209E+01  0.67884865633E+01  0.51100000000E-03 0. -1.
        -11    1    3    3    0    0 -0.36107700953E+02  0.26045685693E+01  0.22151766071E+02  0.42441142608E+02  0.51100000000E-03 0.  1.
         12    1    3    3    0    0  0.31544571262E+02 -0.28562997751E+01 -0.25683397301E+02  0.40778123074E+02  0.00000000000E+00 0. -1.
</event>
<event>
 7    1  0.2405891E-015  0.9000772E+02  0.7816164E-02  0.1186339E+00
        -11   -1    0    0    0    0  0.00000000000E+00  0.00000000000E+00  0.45593999997E+02  0.45594000000E+02  0.51100000000E-03 0.  1.
         11   -1    0    0    0    0 -0.00000000000E+00 -0.00000000000E+00 -0.45593999997E+02  0.45594000000E+02  0.51100000000E-03 0. -1.
    9900012    2    1    2    0    0  0.45537884367E+00  0.68888994233E+00 -0.84327600393E+00  0.90007723057E+02  0.89999984201E+02 0.  0.
        -12    1    1    2    0    0 -0.45537884367E+00 -0.68888994233E+00  0.84327600393E+00  0.11802769432E+01  0.00000000000E+00 0.  1.
         11    1    3    3    0    0  0.17361598955E+01  0.65762443136E-01  0.10282391760E+02  0.10428142522E+02  0.51100000000E-03 0. -1.
        -11    1    3    3    0    0  0.11972766228E+02  0.15156232032E+02  0.29028397238E+02  0.34866980756E+02  0.51100000000E-03 0.  1.
         12    1    3    3    0    0 -0.13253547280E+02 -0.14533104533E+02 -0.40154065002E+02  0.44712599779E+02  0.00000000000E+00 0. -1.
</event>
<event>
 7    1  0.2405891E-015  0.9000776E+02  0.7816164E-02  0.1186339E+00
        -11   -1    0    0    0    0  0.00000000000E+00  0.00000000000E+00  0.45593999997E+02  0.45594000000E+02  0.51100000000E-03 0. -1.
         11   -1    0    0    0    0 -0.00000000000E+00 -0.00000000000E+00 -0.45593999997E+02  0.45594000000E+02  0.51100000000E-03 0.  1.
    9900012    2    1    2    0    0 -0.56298824082E+00  0.98909302541E+00 -0.31256333221E+00  0.90007764172E+02  0.90000025859E+02 0.  0.
        -12    1    1    2    0    0  0.56298824082E+00 -0.98909302541E+00  0.31256333221E+00  0.11802358276E+01  0.00000000000E+00 0.  1.
         11    1    3    3    0    0 -0.29639443624E+02 -0.15131883116E+02  0.13958470567E+02  0.36087524240E+02  0.51100000000E-03 0. -1.
        -11    1    3    3    0    0 -0.79488086121E+01 -0.44286597255E+01 -0.56353115835E+01  0.10702958573E+02  0.51100000000E-03 0.  1.
        -12    1    3    3    0    0  0.37025263995E+02  0.20549635867E+02 -0.86357223161E+01  0.43217281359E+02  0.00000000000E+00 0.  1.
</event>
<event>
 7    1  0.2405891E-015  0.9000766E+02  0.7816164E-02  0.1186339E+00
        -11   -1    0    0    0    0  0.00000000000E+00  0.00000000000E+00  0.45593999997E+02  0.45594000000E+02  0.51100000000E-03 0. -1.
         11   -1    0    0    0    0 -0.00000000000E+00 -0.00000000000E+00 -0.45593999997E+02  0.45594000000E+02  0.51100000000E-03 0.  1.
    9900012    2    1    2    0    0  0.71247553927E+00 -0.87852828375E+00 -0.33728186186E+00  0.90007664288E+02  0.89999924656E+02 0.  0.
        -12    1    1    2    0    0 -0.71247553927E+00  0.87852828375E+00  0.33728186186E+00  0.11803357123E+01  0.00000000000E+00 0.  1.
         11    1    3    3    0    0  0.79161905655E+01 -0.27603579674E+01 -0.42232639057E+01  0.93873109811E+01  0.51100000000E-03 0. -1.
        -11    1    3    3    0    0  0.18563763564E+01 -0.35103206515E+02  0.18633724071E+02  0.39785637030E+02  0.51100000000E-03 0.  1.
         12    1    3    3    0    0 -0.90600913826E+01  0.36985036199E+02 -0.14747742028E+02  0.40834716277E+02  0.00000000000E+00 0. -1.
</event>
<event>
 7    1  0.2405891E-015  0.9000766E+02  0.7816164E-02  0.1186339E+00
        -11   -1    0    0    0    0  0.00000000000E+00  0.00000000000E+00  0.45593999997E+02  0.45594000000E+02  0.51100000000E-03 0.  1.
         11   -1    0    0    0    0 -0.00000000000E+00 -0.00000000000E+00 -0.45593999997E+02  0.45594000000E+02  0.51100000000E-03 0. -1.
    9900012    2    1    2    0    0  0.10846560328E+01  0.16607894134E+00 -0.43489245784E+00  0.90007664296E+02  0.89999924665E+02 0.  0.
        -12    1    1    2    0    0 -0.10846560328E+01 -0.16607894134E+00  0.43489245784E+00  0.11803357040E+01  0.00000000000E+00 0.  1.
         11    1    3    3    0    0 -0.19309563138E+02  0.20539806820E+02 -0.19860691851E+02  0.34484633880E+02  0.51100000000E-03 0. -1.
        -11    1    3    3    0    0 -0.88959149612E+01  0.98876525013E+00 -0.64073156151E+01  0.11007663393E+02  0.51100000000E-03 0.  1.
        -12    1    3    3    0    0  0.29290134132E+02 -0.21362493129E+02  0.25833115008E+02  0.44515367023E+02  0.00000000000E+00 0.  1.
</event>
<event>
 7    1  0.3186452E-015  0.9000798E+02  0.7816164E-02  0.1186339E+00
        -11   -1    0    0    0    0  0.00000000000E+00  0.00000000000E+00  0.45593999997E+02  0.45594000000E+02  0.51100000000E-03 0.  1.
         11   -1    0    0    0    0 -0.00000000000E+00 -0.00000000000E+00 -0.45593999997E+02  0.45594000000E+02  0.51100000000E-03 0. -1.
    9900012    2    1    2    0    0  0.87616282258E+00  0.77902391794E+00 -0.13383172480E+00  0.90007978607E+02  0.90000243125E+02 0.  0.
        -12    1    1    2    0    0 -0.87616282258E+00 -0.77902391794E+00  0.13383172480E+00  0.11800213926E+01  0.00000000000E+00 0.  1.
         11    1    3    3    0    0  0.43682287649E+01 -0.86379195673E+01 -0.17451399567E+00  0.96811947811E+01  0.51100000000E-03 0. -1.
        -11    1    3    3    0    0 -0.10269108556E+02 -0.26490703736E+02  0.23527243718E+02  0.36888252496E+02  0.51100000000E-03 0.  1.
         12    1    3    3    0    0  0.67770426135E+01  0.35907647221E+02 -0.23486561448E+02  0.43438531331E+02  0.00000000000E+00 0. -1.
</event>
<event>
 7    1  0.2405891E-015  0.9000773E+02  0.7816164E-02  0.1186339E+00
        -11   -1    0    0    0    0  0.00000000000E+00  0.00000000000E+00  0.45593999997E+02  0.45594000000E+02  0.51100000000E-03 0.  1.
         11   -1    0    0    0    0 -0.00000000000E+00 -0.00000000000E+00 -0.45593999997E+02  0.45594000000E+02  0.51100000000E-03 0. -1.
    9900012    2    1    2    0    0  0.14614723571E+00  0.10915002455E+01 -0.42462567348E+00  0.90007729369E+02  0.89999990596E+02 0.  0.
        -12    1    1    2    0    0 -0.14614723571E+00 -0.10915002455E+01  0.42462567348E+00  0.11802706312E+01  0.00000000000E+00 0.  1.
         11    1    3    3    0    0  0.14258801158E+02  0.51097624399E+01 -0.16704624668E+02  0.22549225446E+02  0.51100000000E-03 0. -1.
        -11    1    3    3    0    0 -0.11024189798E+02 -0.14132392197E+02  0.38711293812E+02  0.42659366366E+02  0.51100000000E-03 0.  1.
         12    1    3    3    0    0 -0.30884641244E+01  0.10114130002E+02 -0.22431294818E+02  0.24799137556E+02  0.00000000000E+00 0. -1.
</event>
<event>
 7    1  0.2405891E-015  0.9000759E+02  0.7816164E-02  0.1186339E+00
        -11   -1    0    0    0    0  0.00000000000E+00  0.00000000000E+00  0.45593999997E+02  0.45594000000E+02  0.51100000000E-03 0.  1.
         11   -1    0    0    0    0 -0.00000000000E+00 -0.00000000000E+00 -0.45593999997E+02  0.45594000000E+02  0.51100000000E-03 0. -1.
    9900012    2    1    2    0    0  0.82127145387E+00  0.21015095871E+00 -0.82140595347E+00  0.90007594152E+02  0.89999853594E+02 0.  0.
        -12    1    1    2    0    0 -0.82127145387E+00 -0.21015095871E+00  0.82140595347E+00  0.11804058483E+01  0.00000000000E+00 0.  1.
         11    1    3    3    0    0  0.13412703577E+02  0.25347443242E+00 -0.70600143549E+01  0.15159441595E+02  0.51100000000E-03 0. -1.
        -11    1    3    3    0    0  0.36263348240E+01  0.29748293838E+02  0.22263645239E+02  0.37333379034E+02  0.51100000000E-03 0.  1.
         12    1    3    3    0    0 -0.16217766947E+02 -0.29791617312E+02 -0.16025036837E+02  0.37514773522E+02  0.00000000000E+00 0. -1.
</event>
<event>
 7    1  0.2405891E-015  0.9000769E+02  0.7816164E-02  0.1186339E+00
        -11   -1    0    0    0    0  0.00000000000E+00  0.00000000000E+00  0.45593999997E+02  0.45594000000E+02  0.51100000000E-03 0.  1.
         11   -1    0    0    0    0 -0.00000000000E+00 -0.00000000000E+00 -0.45593999997E+02  0.45594000000E+02  0.51100000000E-03 0. -1.
    9900012    2    1    2    0    0 -0.89724475901E+00  0.65967813209E-01 -0.76401814758E+00  0.90007693413E+02  0.89999954166E+02 0.  0.
        -12    1    1    2    0    0  0.89724475901E+00 -0.65967813209E-01  0.76401814758E+00  0.11803065872E+01  0.00000000000E+00 0.  1.
         11    1    3    3    0    0  0.36634568895E+02  0.65868537970E+01 -0.56776622404E+01  0.37652544799E+02  0.51100000000E-03 0. -1.
        -11    1    3    3    0    0  0.21286782638E+01 -0.87023110095E+00  0.11525052887E+02  0.11752251599E+02  0.51100000000E-03 0.  1.
        -12    1    3    3    0    0 -0.39660491918E+02 -0.56506548829E+01 -0.66114087944E+01  0.40602897015E+02  0.00000000000E+00 0.  1.
</event>
<event>
 7    1  0.2405891E-015  0.9000769E+02  0.7816164E-02  0.1186339E+00
        -11   -1    0    0    0    0  0.00000000000E+00  0.00000000000E+00  0.45593999997E+02  0.45594000000E+02  0.51100000000E-03 0.  1.
         11   -1    0    0    0    0 -0.00000000000E+00 -0.00000000000E+00 -0.45593999997E+02  0.45594000000E+02  0.51100000000E-03 0. -1.
    9900012    2    1    2    0    0 -0.22920238952E-01  0.46881031500E+00 -0.10829694047E+01  0.90007690218E+02  0.89999950929E+02 0.  0.
        -12    1    1    2    0    0  0.22920238952E-01 -0.46881031500E+00  0.10829694047E+01  0.11803097815E+01  0.00000000000E+00 0.  1.
         11    1    3    3    0    0 -0.24713537829E+02  0.18427971050E+02 -0.20154501131E+02  0.36831413021E+02  0.51100000000E-03 0. -1.
        -11    1    3    3    0    0 -0.38104423996E+01 -0.25069955656E+01 -0.91303216502E+01  0.10206236904E+02  0.51100000000E-03 0.  1.
        -12    1    3    3    0    0  0.28501059990E+02 -0.15452165169E+02  0.28201853376E+02  0.42970040293E+02  0.00000000000E+00 0.  1.
</event>
<event>
 7    1  0.2405891E-015  0.9000778E+02  0.7816164E-02  0.1186339E+00
        -11   -1    0    0    0    0  0.00000000000E+00  0.00000000000E+00  0.45593999997E+02  0.45594000000E+02  0.51100000000E-03 0. -1.
         11   -1    0    0    0    0 -0.00000000000E+00 -0.00000000000E+00 -0.45593999997E+02  0.45594000000E+02  0.51100000000E-03 0.  1.
    9900012    2    1    2    0    0 -0.25993272664E+00  0.44248635336E+00  0.10628036124E+01  0.90007783616E+02  0.90000045559E+02 0.  0.
        -12    1    1    2    0    0  0.25993272664E+00 -0.44248635336E+00 -0.10628036124E+01  0.11802163843E+01  0.00000000000E+00 0.  1.
         11    1    3    3    0    0 -0.58669682958E+01  0.28378555383E+01 -0.50346977258E+01  0.82354673511E+01  0.51100000000E-03 0. -1.
        -11    1    3    3    0    0 -0.11043455684E+01 -0.12762528584E+02 -0.35836640960E+02  0.38057411243E+02  0.51100000000E-03 0.  1.
         12    1    3    3    0    0  0.67113811376E+01  0.10367159399E+02  0.41934142298E+02  0.43714905022E+02  0.00000000000E+00 0. -1.
</event>
<event>
 7    1  0.2405891E-015  0.9000773E+02  0.7816164E-02  0.1186339E+00
        -11   -1    0    0    0    0  0.00000000000E+00  0.00000000000E+00  0.45593999997E+02  0.45594000000E+02  0.51100000000E-03 0.  1.
         11   -1    0    0    0    0 -0.00000000000E+00 -0.00000000000E+00 -0.45593999997E+02  0.45594000000E+02  0.51100000000E-03 0. -1.
    9900012    2    1    2    0    0  0.26084676199E-01 -0.11799033040E+01  0.13784841900E-01  0.90007727896E+02  0.89999989104E+02 0.  0.
        -12    1    1    2    0    0 -0.26084676199E-01  0.11799033040E+01 -0.13784841900E-01  0.11802721037E+01  0.00000000000E+00 0.  1.
         11    1    3    3    0    0 -0.19866645710E+02  0.19964755860E+01  0.46401074481E+01  0.20498783474E+02  0.51100000000E-03 0. -1.
        -11    1    3    3    0    0  0.30460000922E+01  0.30743770748E+02 -0.65723651425E+01  0.31585654025E+02  0.51100000000E-03 0.  1.
        -12    1    3    3    0    0  0.16846730294E+02 -0.33920149638E+02  0.19460425363E+01  0.37923290398E+02  0.00000000000E+00 0.  1.
</event>
<event>
 7    1  0.2405891E-015  0.9000777E+02  0.7816164E-02  0.1186339E+00
        -11   -1    0    0    0    0  0.00000000000E+00  0.00000000000E+00  0.45593999997E+02  0.45594000000E+02  0.51100000000E-03 0. -1.
         11   -1    0    0    0    0 -0.00000000000E+00 -0.00000000000E+00 -0.45593999997E+02  0.45594000000E+02  0.51100000000E-03 0.  1.
    9900012    2    1    2    0    0 -0.38571582284E+00 -0.11007435573E+01  0.18038418495E+00  0.90007766324E+02  0.90000028040E+02 0.  0.
        -12    1    1    2    0    0  0.38571582284E+00  0.11007435573E+01 -0.18038418495E+00  0.11802336757E+01  0.00000000000E+00 0.  1.
         11    1    3    3    0    0  0.46508022076E+01 -0.77934942869E+01 -0.18970890397E+01  0.92718639690E+01  0.51100000000E-03 0. -1.
        -11    1    3    3    0    0  0.25007624077E+02  0.28112510027E+02 -0.14450644055E+02  0.40305279999E+02  0.51100000000E-03 0.  1.
         12    1    3    3    0    0 -0.30044142107E+02 -0.21419759297E+02  0.16528117279E+02  0.40430622356E+02  0.00000000000E+00 0. -1.
</event>
<event>
 7    1  0.2405891E-015  0.9000772E+02  0.7816164E-02  0.1186339E+00
        -11   -1    0    0    0    0  0.00000000000E+00  0.00000000000E+00  0.45593999997E+02  0.45594000000E+02  0.51100000000E-03 0.  1.
         11   -1    0    0    0    0 -0.00000000000E+00 -0.00000000000E+00 -0.45593999997E+02  0.45594000000E+02  0.51100000000E-03 0. -1.
    9900012    2    1    2    0    0  0.15872398434E+00  0.11001449055E+01 -0.39691083157E+00  0.90007724471E+02  0.89999985634E+02 0.  0.
        -12    1    1    2    0    0 -0.15872398434E+00 -0.11001449055E+01  0.39691083157E+00  0.11802755290E+01  0.00000000000E+00 0.  1.
         11    1    3    3    0    0  0.34321758397E+02 -0.96695407650E+01  0.46229354966E+01  0.35956288058E+02  0.51100000000E-03 0. -1.
        -11    1    3    3    0    0  0.90821001646E+01  0.70659439957E+00 -0.30523781176E+01  0.96073321729E+01  0.51100000000E-03 0.  1.
        -12    1    3    3    0    0 -0.43245134577E+02  0.10063091271E+02 -0.19674682106E+01  0.44444104240E+02  0.00000000000E+00 0.  1.
</event>
<event>
 7    1  0.2405891E-015  0.9000773E+02  0.7816164E-02  0.1186339E+00
        -11   -1    0    0    0    0  0.00000000000E+00  0.00000000000E+00  0.45593999997E+02  0.45594000000E+02  0.51100000000E-03 0. -1.
         11   -1    0    0    0    0 -0.00000000000E+00 -0.00000000000E+00 -0.45593999997E+02  0.45594000000E+02  0.51100000000E-03 0.  1.
    9900012    2    1    2    0    0 -0.49949926020E+00  0.15058673546E+00  0.10587085338E+01  0.90007728999E+02  0.89999990222E+02 0.  0.
        -12    1    1    2    0    0  0.49949926020E+00 -0.15058673546E+00 -0.10587085338E+01  0.11802710008E+01  0.00000000000E+00 0.  1.
         11    1    3    3    0    0 -0.37898333244E+01  0.90462205107E+01 -0.34205179700E+01  0.10387342567E+02  0.51100000000E-03 0. -1.
        -11    1    3    3    0    0 -0.12860752479E+02  0.29333878238E+02  0.17013621486E+02  0.36267598254E+02  0.51100000000E-03 0.  1.
         12    1    3    3    0    0  0.16151086543E+02 -0.38229512013E+02 -0.12534394982E+02  0.43352788178E+02  0.00000000000E+00 0. -1.
</event>
<event>
 7    1  0.2405891E-015  0.9000753E+02  0.7816164E-02  0.1186339E+00
        -11   -1    0    0    0    0  0.00000000000E+00  0.00000000000E+00  0.45593999997E+02  0.45594000000E+02  0.51100000000E-03 0.  1.
         11   -1    0    0    0    0 -0.00000000000E+00 -0.00000000000E+00 -0.45593999997E+02  0.45594000000E+02  0.51100000000E-03 0. -1.
    9900012    2    1    2    0    0  0.59709366890E+00 -0.72045883247E+00 -0.71967521371E+00  0.90007527979E+02  0.89999786548E+02 0.  0.
        -12    1    1    2    0    0 -0.59709366890E+00  0.72045883247E+00  0.71967521371E+00  0.11804720208E+01  0.00000000000E+00 0.  1.
         11    1    3    3    0    0  0.19068256757E+01 -0.21780204287E+02  0.13935142637E+02  0.25926848700E+02  0.51100000000E-03 0. -1.
        -11    1    3    3    0    0 -0.19239537511E+00  0.10402835371E+02  0.22832812706E+02  0.25091698549E+02  0.51100000000E-03 0.  1.
         12    1    3    3    0    0 -0.11173366317E+01  0.10656910083E+02 -0.37487630556E+02  0.38988980731E+02  0.00000000000E+00 0. -1.
</event>
<event>
 7    1  0.2405891E-015  0.9000769E+02  0.7816164E-02  0.1186339E+00
        -11   -1    0    0    0    0  0.00000000000E+00  0.00000000000E+00  0.45593999997E+02  0.45594000000E+02  0.51100000000E-03 0.  1.
         11   -1    0    0    0    0 -0.00000000000E+00 -0.00000000000E+00 -0.45593999997E+02  0.45594000000E+02  0.51100000000E-03 0. -1.
    9900012    2    1    2    0    0 -0.16077519352E+00 -0.42741256922E+00 -0.10883976256E+01  0.90007686669E+02  0.89999947333E+02 0.  0.
        -12    1    1    2    0    0  0.16077519352E+00  0.42741256922E+00  0.10883976256E+01  0.11803133307E+01  0.00000000000E+00 0.  1.
         11    1    3    3    0    0  0.30178083886E+01  0.24392158871E+02 -0.19177066060E+02  0.31174419719E+02  0.51100000000E-03 0. -1.
        -11    1    3    3    0    0  0.14689735258E+01  0.42005584190E+01 -0.14371564167E+02  0.15044747625E+02  0.51100000000E-03 0.  1.
        -12    1    3    3    0    0 -0.46475571080E+01 -0.29020129860E+02  0.32460232601E+02  0.43788519325E+02  0.00000000000E+00 0.  1.
</event>
<event>
 7    1  0.2405891E-015  0.9000778E+02  0.7816164E-02  0.1186339E+00
        -11   -1    0    0    0    0  0.00000000000E+00  0.00000000000E+00  0.45593999997E+02  0.45594000000E+02  0.51100000000E-03 0.  1.
         11   -1    0    0    0    0 -0.00000000000E+00 -0.00000000000E+00 -0.45593999997E+02  0.45594000000E+02  0.51100000000E-03 0. -1.
    9900012    2    1    2    0    0 -0.55466072976E-01  0.65558358040E+00 -0.97981968683E+00  0.90007782675E+02  0.90000044606E+02 0.  0.
        -12    1    1    2    0    0  0.55466072976E-01 -0.65558358040E+00  0.97981968683E+00  0.11802173253E+01  0.00000000000E+00 0.  1.
         11    1    3    3    0    0 -0.60496793190E+01 -0.28636984591E+01  0.31894622673E+01  0.74143144351E+01  0.51100000000E-03 0. -1.
        -11    1    3    3    0    0 -0.35789137298E+02  0.11051753995E+02  0.82559938383E+01  0.38355769441E+02  0.51100000000E-03 0.  1.
         12    1    3    3    0    0  0.41783350544E+02 -0.75324719558E+01 -0.12425275792E+02  0.44237698798E+02  0.00000000000E+00 0. -1.
</event>
<event>
 7    1  0.2405891E-015  0.9000774E+02  0.7816164E-02  0.1186339E+00
        -11   -1    0    0    0    0  0.00000000000E+00  0.00000000000E+00  0.45593999997E+02  0.45594000000E+02  0.51100000000E-03 0.  1.
         11   -1    0    0    0    0 -0.00000000000E+00 -0.00000000000E+00 -0.45593999997E+02  0.45594000000E+02  0.51100000000E-03 0. -1.
    9900012    2    1    2    0    0  0.64439202342E+00 -0.79155886252E+00 -0.59261816931E+00  0.90007744601E+02  0.90000006030E+02 0.  0.
        -12    1    1    2    0    0 -0.64439202342E+00  0.79155886252E+00  0.59261816931E+00  0.11802553992E+01  0.00000000000E+00 0.  1.
         11    1    3    3    0    0  0.41613380690E+00  0.49376241749E+01 -0.83942537820E+01  0.97476559570E+01  0.51100000000E-03 0. -1.
        -11    1    3    3    0    0  0.74085219264E+01  0.81091781803E+01  0.41607299001E+02  0.43032688718E+02  0.51100000000E-03 0.  1.
         12    1    3    3    0    0 -0.71802637099E+01 -0.13838361218E+02 -0.33805663388E+02  0.37227399926E+02  0.00000000000E+00 0. -1.
</event>
<event>
 7    1  0.2405891E-015  0.9000773E+02  0.7816164E-02  0.1186339E+00
        -11   -1    0    0    0    0  0.00000000000E+00  0.00000000000E+00  0.45593999997E+02  0.45594000000E+02  0.51100000000E-03 0.  1.
         11   -1    0    0    0    0 -0.00000000000E+00 -0.00000000000E+00 -0.45593999997E+02  0.45594000000E+02  0.51100000000E-03 0. -1.
    9900012    2    1    2    0    0  0.87989511460E+00 -0.78659509151E+00 -0.91415341795E-02  0.90007732734E+02  0.89999994006E+02 0.  0.
        -12    1    1    2    0    0 -0.87989511460E+00  0.78659509151E+00  0.91415341795E-02  0.11802672656E+01  0.00000000000E+00 0.  1.
         11    1    3    3    0    0  0.52769176974E+01  0.42479453485E+01 -0.56037897678E+01  0.87916642391E+01  0.51100000000E-03 0. -1.
        -11    1    3    3    0    0  0.18345025914E+01  0.28478677331E+02 -0.23055626290E+02  0.36687359760E+02  0.51100000000E-03 0.  1.
         12    1    3    3    0    0 -0.62315251742E+01 -0.33513217771E+02  0.28650274524E+02  0.44528708735E+02  0.00000000000E+00 0. -1.
</event>
<event>
 7    1  0.2405891E-015  0.9000754E+02  0.7816164E-02  0.1186339E+00
        -11   -1    0    0    0    0  0.00000000000E+00  0.00000000000E+00  0.45593999997E+02  0.45594000000E+02  0.51100000000E-03 0.  1.
         11   -1    0    0    0    0 -0.00000000000E+00 -0.00000000000E+00 -0.45593999997E+02  0.45594000000E+02  0.51100000000E-03 0. -1.
    9900012    2    1    2    0    0  0.90043428481E+00  0.36925070808E+00 -0.66809739495E+00  0.90007541565E+02  0.89999800314E+02 0.  0.
        -12    1    1    2    0    0 -0.90043428481E+00 -0.36925070808E+00  0.66809739495E+00  0.11804584346E+01  0.00000000000E+00 0.  1.
         11    1    3    3    0    0 -0.31660132692E+02 -0.18891745111E+02 -0.14975966795E+02  0.39793738416E+02  0.51100000000E-03 0. -1.
        -11    1    3    3    0    0  0.11049048379E+02 -0.78155419377E+01  0.34293378284E+01  0.13961537310E+02  0.51100000000E-03 0.  1.
        -12    1    3    3    0    0  0.21511518598E+02  0.27076537757E+02  0.10878531572E+02  0.36252265839E+02  0.00000000000E+00 0.  1.
</event>
<event>
 7    1  0.2405891E-015  0.9000777E+02  0.7816164E-02  0.1186339E+00
        -11   -1    0    0    0    0  0.00000000000E+00  0.00000000000E+00  0.45593999997E+02  0.45594000000E+02  0.51100000000E-03 0.  1.
         11   -1    0    0    0    0 -0.00000000000E+00 -0.00000000000E+00 -0.45593999997E+02  0.45594000000E+02  0.51100000000E-03 0. -1.
    9900012    2    1    2    0    0 -0.66473908003E+00 -0.96443097361E+00 -0.14473295289E+00  0.90007765797E+02  0.90000027505E+02 0.  0.
        -12    1    1    2    0    0  0.66473908003E+00  0.96443097361E+00  0.14473295289E+00  0.11802342035E+01  0.00000000000E+00 0.  1.
         11    1    3    3    0    0 -0.21089269523E+02  0.26437570953E+02 -0.23139619395E+02  0.40977364885E+02  0.51100000000E-03 0. -1.
        -11    1    3    3    0    0  0.15394398151E+01  0.50943446880E+01  0.52175245353E+01  0.74528373981E+01  0.51100000000E-03 0.  1.
        -12    1    3    3    0    0  0.18885090628E+02 -0.32496346615E+02  0.17777361907E+02  0.41577563513E+02  0.00000000000E+00 0.  1.
</event>
<event>
 7    1  0.2405891E-015  0.9000789E+02  0.7816164E-02  0.1186339E+00
        -11   -1    0    0    0    0  0.00000000000E+00  0.00000000000E+00  0.45593999997E+02  0.45594000000E+02  0.51100000000E-03 0. -1.
         11   -1    0    0    0    0 -0.00000000000E+00 -0.00000000000E+00 -0.45593999997E+02  0.45594000000E+02  0.51100000000E-03 0.  1.
    9900012    2    1    2    0    0  0.20429278323E+00  0.61626207996E+00  0.98546950496E+00  0.90007887871E+02  0.90000151190E+02 0.  0.
        -12    1    1    2    0    0 -0.20429278323E+00 -0.61626207996E+00 -0.98546950496E+00  0.11801121293E+01  0.00000000000E+00 0.  1.
         11    1    3    3    0    0  0.18438753162E+02 -0.29537452078E+02  0.20355411944E+00  0.34820828938E+02  0.51100000000E-03 0. -1.
        -11    1    3    3    0    0  0.16158684694E+00 -0.94070236976E+01 -0.58179574287E+01  0.11061954351E+02  0.51100000000E-03 0.  1.
        -12    1    3    3    0    0 -0.18396047226E+02  0.39560737855E+02  0.65998728142E+01  0.44125104582E+02  0.00000000000E+00 0.  1.
</event>
<event>
 7    1  0.2405891E-015  0.9000774E+02  0.7816164E-02  0.1186339E+00
        -11   -1    0    0    0    0  0.00000000000E+00  0.00000000000E+00  0.45593999997E+02  0.45594000000E+02  0.51100000000E-03 0.  1.
         11   -1    0    0    0    0 -0.00000000000E+00 -0.00000000000E+00 -0.45593999997E+02  0.45594000000E+02  0.51100000000E-03 0. -1.
    9900012    2    1    2    0    0  0.47822927557E+00  0.85910731321E+00 -0.65288069067E+00  0.90007736550E+02  0.89999997872E+02 0.  0.
        -12    1    1    2    0    0 -0.47822927557E+00 -0.85910731321E+00  0.65288069067E+00  0.11802634502E+01  0.00000000000E+00 0.  1.
         11    1    3    3    0    0  0.94149072118E+00 -0.34049612498E+02  0.90697132672E+01  0.35249428578E+02  0.51100000000E-03 0. -1.
        -11    1    3    3    0    0  0.33778876332E+01 -0.41373186576E+01  0.96288533071E+01  0.11011010254E+02  0.51100000000E-03 0.  1.
        -12    1    3    3    0    0 -0.38411490788E+01  0.39046038469E+02 -0.19351447265E+02  0.43747297718E+02  0.00000000000E+00 0.  1.
</event>
<event>
 7    1  0.2405891E-015  0.9000777E+02  0.7816164E-02  0.1186339E+00
        -11   -1    0    0    0    0  0.00000000000E+00  0.00000000000E+00  0.45593999997E+02  0.45594000000E+02  0.51100000000E-03 0. -1.
         11   -1    0    0    0    0 -0.00000000000E+00 -0.00000000000E+00 -0.45593999997E+02  0.45594000000E+02  0.51100000000E-03 0.  1.
    9900012    2    1    2    0    0  0.23065158508E+00  0.11426319119E+01  0.18475391362E+00  0.90007770426E+02  0.90000032195E+02 0.  0.
        -12    1    1    2    0    0 -0.23065158508E+00 -0.11426319119E+01 -0.18475391362E+00  0.11802295744E+01  0.00000000000E+00 0.  1.
         11    1    3    3    0    0 -0.46813583346E+01 -0.63616484006E+01 -0.59673311226E+01  0.98992286173E+01  0.51100000000E-03 0. -1.
        -11    1    3    3    0    0 -0.45571701796E+01  0.37799843538E+02 -0.16107171984E+02  0.41340500253E+02  0.51100000000E-03 0.  1.
         12    1    3    3    0    0  0.94691800993E+01 -0.30295563226E+02  0.22259257020E+02  0.38768041555E+02  0.00000000000E+00 0. -1.
</event>
<event>
 7    1  0.2538706E-015  0.9000771E+02  0.7816164E-02  0.1186339E+00
        -11   -1    0    0    0    0  0.00000000000E+00  0.00000000000E+00  0.45593999997E+02  0.45594000000E+02  0.51100000000E-03 0. -1.
         11   -1    0    0    0    0 -0.00000000000E+00 -0.00000000000E+00 -0.45593999997E+02  0.45594000000E+02  0.51100000000E-03 0.  1.
    9900012    2    1    2    0    0 -0.23988390013E+00 -0.39716357162E+00  0.10852701100E+01  0.90007705799E+02  0.89999966716E+02 0.  0.
        -12    1    1    2    0    0  0.23988390013E+00  0.39716357162E+00 -0.10852701100E+01  0.11802942005E+01  0.00000000000E+00 0.  1.
         11    1    3    3    0    0  0.76403050069E+01 -0.51368332545E+01  0.15077649343E+01  0.93292374737E+01  0.51100000000E-03 0. -1.
        -11    1    3    3    0    0  0.33175927966E+02 -0.63975883534E+01 -0.13179921825E+02  0.36266812277E+02  0.51100000000E-03 0.  1.
         12    1    3    3    0    0 -0.41056116873E+02  0.11137258036E+02  0.12757427001E+02  0.44411656049E+02  0.00000000000E+00 0. -1.
</event>
<event>
 7    1  0.2405891E-015  0.9000776E+02  0.7816164E-02  0.1186339E+00
        -11   -1    0    0    0    0  0.00000000000E+00  0.00000000000E+00  0.45593999997E+02  0.45594000000E+02  0.51100000000E-03 0.  1.
         11   -1    0    0    0    0 -0.00000000000E+00 -0.00000000000E+00 -0.45593999997E+02  0.45594000000E+02  0.51100000000E-03 0. -1.
    9900012    2    1    2    0    0 -0.69849711973E+00  0.95130420518E+00 -0.88513141576E-02  0.90007764319E+02  0.90000026008E+02 0.  0.
        -12    1    1    2    0    0  0.69849711973E+00 -0.95130420518E+00  0.88513141575E-02  0.11802356810E+01  0.00000000000E+00 0.  1.
         11    1    3    3    0    0 -0.21401986517E+02 -0.35693260190E+02  0.26167334613E+01  0.41700133623E+02  0.51100000000E-03 0. -1.
        -11    1    3    3    0    0  0.75744606788E+01 -0.12923175711E+01 -0.27552220465E+01  0.81629521661E+01  0.51100000000E-03 0.  1.
        -12    1    3    3    0    0  0.13129028719E+02  0.37936881967E+02  0.12963727112E+00  0.40144678530E+02  0.00000000000E+00 0.  1.
</event>
<event>
 7    1  0.2405891E-015  0.9000774E+02  0.7816164E-02  0.1186339E+00
        -11   -1    0    0    0    0  0.00000000000E+00  0.00000000000E+00  0.45593999997E+02  0.45594000000E+02  0.51100000000E-03 0.  1.
         11   -1    0    0    0    0 -0.00000000000E+00 -0.00000000000E+00 -0.45593999997E+02  0.45594000000E+02  0.51100000000E-03 0. -1.
    9900012    2    1    2    0    0 -0.46362914297E+00 -0.18531195784E+00 -0.10694466981E+01  0.90007742086E+02  0.90000003481E+02 0.  0.
        -12    1    1    2    0    0  0.46362914297E+00  0.18531195784E+00  0.10694466981E+01  0.11802579142E+01  0.00000000000E+00 0.  1.
         11    1    3    3    0    0 -0.29648145072E+01 -0.11858598914E+02 -0.28384112059E+00  0.12226899007E+02  0.51100000000E-03 0. -1.
        -11    1    3    3    0    0  0.50575700072E+01 -0.31160422993E+02  0.10748318918E+02  0.33347823547E+02  0.51100000000E-03 0.  1.
         12    1    3    3    0    0 -0.25563846430E+01  0.42833709950E+02 -0.11533924496E+02  0.44433019532E+02  0.00000000000E+00 0. -1.
</event>
<event>
 7    1  0.2405891E-015  0.9000769E+02  0.7816164E-02  0.1186339E+00
        -11   -1    0    0    0    0  0.00000000000E+00  0.00000000000E+00  0.45593999997E+02  0.45594000000E+02  0.51100000000E-03 0.  1.
         11   -1    0    0    0    0 -0.00000000000E+00 -0.00000000000E+00 -0.45593999997E+02  0.45594000000E+02  0.51100000000E-03 0. -1.
    9900012    2    1    2    0    0 -0.94692488222E+00 -0.52916665245E+00 -0.46524250130E+00  0.90007688743E+02  0.89999949434E+02 0.  0.
        -12    1    1    2    0    0  0.94692488222E+00  0.52916665245E+00  0.46524250130E+00  0.11803112571E+01  0.00000000000E+00 0.  1.
         11    1    3    3    0    0  0.37367528361E+02  0.20537460004E+01  0.73974297876E+00  0.37431233861E+02  0.51100000000E-03 0. -1.
        -11    1    3    3    0    0  0.50064186570E+01 -0.71825717878E+01 -0.20974600666E+01  0.90029386452E+01  0.51100000000E-03 0.  1.
        -12    1    3    3    0    0 -0.43320871900E+02  0.45996591349E+01  0.89247458651E+00  0.43573516237E+02  0.00000000000E+00 0.  1.
</event>
<event>
 7    1  0.2405891E-015  0.9000764E+02  0.7816164E-02  0.1186339E+00
        -11   -1    0    0    0    0  0.00000000000E+00  0.00000000000E+00  0.45593999997E+02  0.45594000000E+02  0.51100000000E-03 0. -1.
         11   -1    0    0    0    0 -0.00000000000E+00 -0.00000000000E+00 -0.45593999997E+02  0.45594000000E+02  0.51100000000E-03 0.  1.
    9900012    2    1    2    0    0  0.70296928388E+00 -0.51440430826E+00  0.79653346633E+00  0.90007642779E+02  0.89999902864E+02 0.  0.
        -12    1    1    2    0    0 -0.70296928388E+00  0.51440430826E+00 -0.79653346633E+00  0.11803572211E+01  0.00000000000E+00 0.  1.
         11    1    3    3    0    0  0.15839302731E+02  0.14823350516E+02  0.33794985320E+02  0.40158638729E+02  0.51100000000E-03 0. -1.
        -11    1    3    3    0    0  0.81206284231E+01 -0.62820631690E+01 -0.27409642450E+01  0.10626467376E+02  0.51100000000E-03 0.  1.
        -12    1    3    3    0    0 -0.23256961870E+02 -0.90556916555E+01 -0.30257487608E+02  0.39222536674E+02  0.00000000000E+00 0.  1.
</event>
<event>
 7    1  0.2405891E-015  0.9000772E+02  0.7816164E-02  0.1186339E+00
        -11   -1    0    0    0    0  0.00000000000E+00  0.00000000000E+00  0.45593999997E+02  0.45594000000E+02  0.51100000000E-03 0.  1.
         11   -1    0    0    0    0 -0.00000000000E+00 -0.00000000000E+00 -0.45593999997E+02  0.45594000000E+02  0.51100000000E-03 0. -1.
    9900012    2    1    2    0    0  0.58016316246E-01 -0.88442189713E+00 -0.77941777679E+00  0.90007720348E+02  0.89999981457E+02 0.  0.
        -12    1    1    2    0    0 -0.58016316246E-01  0.88442189713E+00  0.77941777679E+00  0.11802796515E+01  0.00000000000E+00 0.  1.
         11    1    3    3    0    0 -0.90370872064E+01 -0.45698804349E+01 -0.26650039348E+02  0.28509250251E+02  0.51100000000E-03 0. -1.
        -11    1    3    3    0    0  0.25694276149E+02  0.50645746195E+01 -0.47735132678E+01  0.26620145982E+02  0.51100000000E-03 0.  1.
        -12    1    3    3    0    0 -0.16599172627E+02 -0.13791160818E+01  0.30644134839E+02  0.34878324115E+02  0.00000000000E+00 0.  1.
</event>
<event>
 7    1  0.2405891E-015  0.9000771E+02  0.7816164E-02  0.1186339E+00
        -11   -1    0    0    0    0  0.00000000000E+00  0.00000000000E+00  0.45593999997E+02  0.45594000000E+02  0.51100000000E-03 0. -1.
         11   -1    0    0    0    0 -0.00000000000E+00 -0.00000000000E+00 -0.45593999997E+02  0.45594000000E+02  0.51100000000E-03 0.  1.
    9900012    2    1    2    0    0 -0.10673519922E+01  0.39240381245E-01 -0.50229438782E+00  0.90007712012E+02  0.89999973010E+02 0.  0.
        -12    1    1    2    0    0  0.10673519922E+01 -0.39240381245E-01  0.50229438782E+00  0.11802879881E+01  0.00000000000E+00 0.  1.
         11    1    3    3    0    0 -0.35477817488E+01  0.47946686219E+01 -0.65124895501E+01  0.88310884342E+01  0.51100000000E-03 0. -1.
        -11    1    3    3    0    0  0.15556011522E+02  0.29256314414E+02 -0.17834495997E+02  0.37629651543E+02  0.51100000000E-03 0.  1.
         12    1    3    3    0    0 -0.13075581765E+02 -0.34011742654E+02  0.23844691159E+02  0.43546972034E+02  0.00000000000E+00 0. -1.
</event>
<event>
 7    1  0.2405891E-015  0.9000773E+02  0.7816164E-02  0.1186339E+00
        -11   -1    0    0    0    0  0.00000000000E+00  0.00000000000E+00  0.45593999997E+02  0.45594000000E+02  0.51100000000E-03 0. -1.
         11   -1    0    0    0    0 -0.00000000000E+00 -0.00000000000E+00 -0.45593999997E+02  0.45594000000E+02  0.51100000000E-03 0.  1.
    9900012    2    1    2    0    0  0.61024191547E+00  0.13143730051E+00  0.10016853319E+01  0.90007726954E+02  0.89999988150E+02 0.  0.
        -12    1    1    2    0    0 -0.61024191547E+00 -0.13143730051E+00 -0.10016853319E+01  0.11802730462E+01  0.00000000000E+00 0.  1.
         11    1    3    3    0    0 -0.88795918631E-01 -0.97532851906E+01 -0.91910220020E+00  0.97968977662E+01  0.51100000000E-03 0. -1.
        -11    1    3    3    0    0  0.25744136768E+02  0.35823249180E+02  0.23070165436E+00  0.44114838584E+02  0.51100000000E-03 0.  1.
         12    1    3    3    0    0 -0.25045098934E+02 -0.25938526689E+02  0.16900858778E+01  0.36095990604E+02  0.00000000000E+00 0. -1.
</event>
<event>
 7    1  0.2405891E-015  0.9000752E+02  0.7816164E-02  0.1186339E+00
        -11   -1    0    0    0    0  0.00000000000E+00  0.00000000000E+00  0.45593999997E+02  0.45594000000E+02  0.51100000000E-03 0. -1.
         11   -1    0    0    0    0 -0.00000000000E+00 -0.00000000000E+00 -0.45593999997E+02  0.45594000000E+02  0.51100000000E-03 0.  1.
    9900012    2    1    2    0    0 -0.36196385462E+00 -0.84531404376E-01  0.11204343105E+01  0.90007518558E+02  0.89999777003E+02 0.  0.
        -12    1    1    2    0    0  0.36196385462E+00  0.84531404376E-01 -0.11204343105E+01  0.11804814418E+01  0.00000000000E+00 0.  1.
         11    1    3    3    0    0 -0.61994354898E+01 -0.35581422506E+01  0.53649034539E+01  0.89373131308E+01  0.51100000000E-03 0. -1.
        -11    1    3    3    0    0 -0.24429573561E+02  0.27473829978E+02  0.12690830669E+02  0.38893091692E+02  0.51100000000E-03 0.  1.
         12    1    3    3    0    0  0.30267045196E+02 -0.24000219132E+02 -0.16935299812E+02  0.42177113735E+02  0.00000000000E+00 0. -1.
</event>
<event>
 7    1  0.2405891E-015  0.9000770E+02  0.7816164E-02  0.1186339E+00
        -11   -1    0    0    0    0  0.00000000000E+00  0.00000000000E+00  0.45593999997E+02  0.45594000000E+02  0.51100000000E-03 0.  1.
         11   -1    0    0    0    0 -0.00000000000E+00 -0.00000000000E+00 -0.45593999997E+02  0.45594000000E+02  0.51100000000E-03 0. -1.
    9900012    2    1    2    0    0  0.31464913409E+00 -0.11328730903E+01 -0.10346808325E+00  0.90007698699E+02  0.89999959522E+02 0.  0.
        -12    1    1    2    0    0 -0.31464913409E+00  0.11328730903E+01  0.10346808325E+00  0.11803013007E+01  0.00000000000E+00 0.  1.
         11    1    3    3    0    0 -0.32391661370E+02  0.18906781049E+02  0.15459549647E+02  0.40567028132E+02  0.51100000000E-03 0. -1.
        -11    1    3    3    0    0  0.85583061750E+00 -0.78988946246E+01  0.52311594785E+01  0.95126238276E+01  0.51100000000E-03 0.  1.
        -12    1    3    3    0    0  0.31850479887E+02 -0.12140759515E+02 -0.20794177209E+02  0.39928046739E+02  0.00000000000E+00 0.  1.
</event>
<event>
 7    1  0.2405891E-015  0.9000773E+02  0.7816164E-02  0.1186339E+00
        -11   -1    0    0    0    0  0.00000000000E+00  0.00000000000E+00  0.45593999997E+02  0.45594000000E+02  0.51100000000E-03 0. -1.
         11   -1    0    0    0    0 -0.00000000000E+00 -0.00000000000E+00 -0.45593999997E+02  0.45594000000E+02  0.51100000000E-03 0.  1.
    9900012    2    1    2    0    0 -0.36788556090E+00 -0.34213612049E+00  0.10680119866E+01  0.90007726085E+02  0.89999987269E+02 0.  0.
        -12    1    1    2    0    0  0.36788556090E+00  0.34213612049E+00 -0.10680119866E+01  0.11802739150E+01  0.00000000000E+00 0.  1.
         11    1    3    3    0    0  0.71474240945E+01 -0.56796152388E+00 -0.30145999918E+01  0.77779216280E+01  0.51100000000E-03 0. -1.
        -11    1    3    3    0    0 -0.10752441017E+02 -0.87624499850E+01 -0.37280762145E+02  0.39777515558E+02  0.51100000000E-03 0.  1.
         12    1    3    3    0    0  0.32371313615E+01  0.89882753884E+01  0.41363374124E+02  0.42452288899E+02  0.00000000000E+00 0. -1.
</event>
<event>
 7    1  0.2946877E-015  0.9000765E+02  0.7816164E-02  0.1186339E+00
        -11   -1    0    0    0    0  0.00000000000E+00  0.00000000000E+00  0.45593999997E+02  0.45594000000E+02  0.51100000000E-03 0.  1.
         11   -1    0    0    0    0 -0.00000000000E+00 -0.00000000000E+00 -0.45593999997E+02  0.45594000000E+02  0.51100000000E-03 0. -1.
    9900012    2    1    2    0    0  0.49141472364E+00  0.85448429249E+00 -0.64930555046E+00  0.90007648555E+02  0.89999908716E+02 0.  0.
        -12    1    1    2    0    0 -0.49141472364E+00 -0.85448429249E+00  0.64930555046E+00  0.11803514454E+01  0.00000000000E+00 0.  1.
         11    1    3    3    0    0 -0.71185914007E+01 -0.25081932043E+01  0.58661873217E+01  0.95591595150E+01  0.51100000000E-03 0. -1.
        -11    1    3    3    0    0 -0.12404979538E+02  0.62822962923E+01  0.33136371374E+02  0.35935635130E+02  0.51100000000E-03 0.  1.
         12    1    3    3    0    0  0.20014985663E+02 -0.29196187955E+01 -0.39651864246E+02  0.44512853910E+02  0.00000000000E+00 0. -1.
</event>
<event>
 7    1  0.2405891E-015  0.9000761E+02  0.7816164E-02  0.1186339E+00
        -11   -1    0    0    0    0  0.00000000000E+00  0.00000000000E+00  0.45593999997E+02  0.45594000000E+02  0.51100000000E-03 0.  1.
         11   -1    0    0    0    0 -0.00000000000E+00 -0.00000000000E+00 -0.45593999997E+02  0.45594000000E+02  0.51100000000E-03 0. -1.
    9900012    2    1    2    0    0  0.42125085074E+00 -0.67221651215E+00 -0.87406439095E+00  0.90007611980E+02  0.89999871658E+02 0.  0.
        -12    1    1    2    0    0 -0.42125085074E+00  0.67221651215E+00  0.87406439095E+00  0.11803880201E+01  0.00000000000E+00 0.  1.
         11    1    3    3    0    0 -0.26794861464E+02  0.21793719034E+02  0.69452857513E+01  0.35230211249E+02  0.51100000000E-03 0. -1.
        -11    1    3    3    0    0 -0.10377319107E+02 -0.44509393753E+01 -0.65865071428E+01  0.13072172343E+02  0.51100000000E-03 0.  1.
        -12    1    3    3    0    0  0.37593431421E+02 -0.18014996171E+02 -0.12328429995E+01  0.41705228388E+02  0.00000000000E+00 0.  1.
</event>
<event>
 7    1  0.2405891E-015  0.9000771E+02  0.7816164E-02  0.1186339E+00
        -11   -1    0    0    0    0  0.00000000000E+00  0.00000000000E+00  0.45593999997E+02  0.45594000000E+02  0.51100000000E-03 0.  1.
         11   -1    0    0    0    0 -0.00000000000E+00 -0.00000000000E+00 -0.45593999997E+02  0.45594000000E+02  0.51100000000E-03 0. -1.
    9900012    2    1    2    0    0 -0.11375058169E+01 -0.22313337464E+00  0.22221944424E+00  0.90007707889E+02  0.89999968833E+02 0.  0.
        -12    1    1    2    0    0  0.11375058169E+01  0.22313337464E+00 -0.22221944424E+00  0.11802921112E+01  0.00000000000E+00 0.  1.
         11    1    3    3    0    0 -0.20356427790E+02  0.29732844958E+02 -0.19880280307E+02  0.41154000620E+02  0.51100000000E-03 0. -1.
        -11    1    3    3    0    0  0.15672090392E+00 -0.62844405516E+01 -0.60747227161E+01  0.87419111656E+01  0.51100000000E-03 0.  1.
        -12    1    3    3    0    0  0.19062201069E+02 -0.23671537781E+02  0.26177222468E+02  0.40111796103E+02  0.00000000000E+00 0.  1.
</event>
<event>
 7    1  0.2405891E-015  0.9000769E+02  0.7816164E-02  0.1186339E+00
        -11   -1    0    0    0    0  0.00000000000E+00  0.00000000000E+00  0.45593999997E+02  0.45594000000E+02  0.51100000000E-03 0.  1.
         11   -1    0    0    0    0 -0.00000000000E+00 -0.00000000000E+00 -0.45593999997E+02  0.45594000000E+02  0.51100000000E-03 0. -1.
    9900012    2    1    2    0    0 -0.41641815655E+00  0.10697749093E+01 -0.27442062577E+00  0.90007691092E+02  0.89999951815E+02 0.  0.
        -12    1    1    2    0    0  0.41641815655E+00 -0.10697749093E+01  0.27442062577E+00  0.11803089076E+01  0.00000000000E+00 0.  1.
         11    1    3    3    0    0  0.20136062192E+02  0.15171762791E+02 -0.26608630322E+02  0.36656003528E+02  0.51100000000E-03 0. -1.
        -11    1    3    3    0    0  0.87882368864E+01  0.12672402465E+01 -0.27260836767E+01  0.92881934674E+01  0.51100000000E-03 0.  1.
        -12    1    3    3    0    0 -0.29340717235E+02 -0.15369228128E+02  0.29060293373E+02  0.44063494097E+02  0.00000000000E+00 0.  1.
</event>
<event>
 7    1  0.2405891E-015  0.9000777E+02  0.7816164E-02  0.1186339E+00
        -11   -1    0    0    0    0  0.00000000000E+00  0.00000000000E+00  0.45593999997E+02  0.45594000000E+02  0.51100000000E-03 0.  1.
         11   -1    0    0    0    0 -0.00000000000E+00 -0.00000000000E+00 -0.45593999997E+02  0.45594000000E+02  0.51100000000E-03 0. -1.
    9900012    2    1    2    0    0  0.31431257970E+00 -0.45276370366E+00 -0.10436281262E+01  0.90007768228E+02  0.90000029969E+02 0.  0.
        -12    1    1    2    0    0 -0.31431257970E+00  0.45276370366E+00  0.10436281262E+01  0.11802317717E+01  0.00000000000E+00 0.  1.
         11    1    3    3    0    0 -0.71085286938E+01 -0.53087460771E+01  0.17554176550E+01  0.90440840612E+01  0.51100000000E-03 0. -1.
        -11    1    3    3    0    0 -0.31636536840E+02  0.60176307535E+01 -0.20383733431E+02  0.38112713521E+02  0.51100000000E-03 0.  1.
         12    1    3    3    0    0  0.39059378113E+02 -0.11616483800E+01  0.17584687649E+02  0.42850970646E+02  0.00000000000E+00 0. -1.
</event>
<event>
 7    1  0.2405891E-015  0.9000779E+02  0.7816164E-02  0.1186339E+00
        -11   -1    0    0    0    0  0.00000000000E+00  0.00000000000E+00  0.45593999997E+02  0.45594000000E+02  0.51100000000E-03 0.  1.
         11   -1    0    0    0    0 -0.00000000000E+00 -0.00000000000E+00 -0.45593999997E+02  0.45594000000E+02  0.51100000000E-03 0. -1.
    9900012    2    1    2    0    0  0.78796740756E+00 -0.79323171021E+00 -0.37785913335E+00  0.90007793787E+02  0.90000055865E+02 0.  0.
        -12    1    1    2    0    0 -0.78796740756E+00  0.79323171021E+00  0.37785913335E+00  0.11802062134E+01  0.00000000000E+00 0.  1.
         11    1    3    3    0    0  0.27815445921E+01 -0.94874785384E+01  0.16651867726E+00  0.98882237063E+01  0.51100000000E-03 0. -1.
        -11    1    3    3    0    0  0.26197445487E+01 -0.30449214934E+02  0.19142744366E+02  0.36061924709E+02  0.51100000000E-03 0.  1.
         12    1    3    3    0    0 -0.46133217333E+01  0.39143461762E+02 -0.19687122177E+02  0.44057645372E+02  0.00000000000E+00 0. -1.
</event>
<event>
 7    1  0.2405891E-015  0.9000764E+02  0.7816164E-02  0.1186339E+00
        -11   -1    0    0    0    0  0.00000000000E+00  0.00000000000E+00  0.45593999997E+02  0.45594000000E+02  0.51100000000E-03 0.  1.
         11   -1    0    0    0    0 -0.00000000000E+00 -0.00000000000E+00 -0.45593999997E+02  0.45594000000E+02  0.51100000000E-03 0. -1.
    9900012    2    1    2    0    0 -0.28411288449E+00  0.92859285753E+00 -0.67100919749E+00  0.90007636425E+02  0.89999896426E+02 0.  0.
        -12    1    1    2    0    0  0.28411288449E+00 -0.92859285753E+00  0.67100919749E+00  0.11803635751E+01  0.00000000000E+00 0.  1.
         11    1    3    3    0    0  0.33225172975E+02  0.19182444686E+02 -0.14153894050E+02  0.40892676855E+02  0.51100000000E-03 0. -1.
        -11    1    3    3    0    0 -0.70640974033E+01  0.64475344101E+01 -0.19727751690E+01  0.97654500265E+01  0.51100000000E-03 0.  1.
        -12    1    3    3    0    0 -0.26445188456E+02 -0.24701386239E+02  0.15455660021E+02  0.39349509543E+02  0.00000000000E+00 0.  1.
</event>
<event>
 7    1  0.2405891E-015  0.9000826E+02  0.7816164E-02  0.1186338E+00
        -11   -1    0    0    0    0  0.00000000000E+00  0.00000000000E+00  0.45593999997E+02  0.45594000000E+02  0.51100000000E-03 0.  1.
         11   -1    0    0    0    0 -0.00000000000E+00 -0.00000000000E+00 -0.45593999997E+02  0.45594000000E+02  0.51100000000E-03 0. -1.
    9900012    2    1    2    0    0 -0.11072160409E+01 -0.15679023218E+00  0.37585673106E+00  0.90008263241E+02  0.90000531514E+02 0.  0.
        -12    1    1    2    0    0  0.11072160409E+01  0.15679023218E+00 -0.37585673106E+00  0.11797367589E+01  0.00000000000E+00 0.  1.
         11    1    3    3    0    0 -0.50433997616E-01  0.76475612170E+01 -0.54024264794E+01  0.93634367773E+01  0.51100000000E-03 0. -1.
        -11    1    3    3    0    0 -0.36792945247E+02  0.52571012193E+01  0.17151204353E+02  0.40933137483E+02  0.51100000000E-03 0.  1.
         12    1    3    3    0    0  0.35736163204E+02 -0.13061452668E+02 -0.11372921143E+02  0.39711688980E+02  0.00000000000E+00 0. -1.
</event>
<event>
 7    1  0.2405891E-015  0.9000733E+02  0.7816164E-02  0.1186340E+00
        -11   -1    0    0    0    0  0.00000000000E+00  0.00000000000E+00  0.45593999997E+02  0.45594000000E+02  0.51100000000E-03 0.  1.
         11   -1    0    0    0    0 -0.00000000000E+00 -0.00000000000E+00 -0.45593999997E+02  0.45594000000E+02  0.51100000000E-03 0. -1.
    9900012    2    1    2    0    0  0.64836736088E+00  0.91688604039E+00 -0.36458771633E+00  0.90007328814E+02  0.89999584754E+02 0.  0.
        -12    1    1    2    0    0 -0.64836736088E+00 -0.91688604039E+00  0.36458771633E+00  0.11806711856E+01  0.00000000000E+00 0.  1.
         11    1    3    3    0    0  0.16977282574E+02  0.57630137000E+01 -0.23532973066E+02  0.29584476877E+02  0.51100000000E-03 0. -1.
        -11    1    3    3    0    0  0.13347141970E+02  0.10790602926E+02 -0.35645432102E+01  0.17529668531E+02  0.51100000000E-03 0.  1.
        -12    1    3    3    0    0 -0.29676057183E+02 -0.15636730585E+02  0.26732928560E+02  0.42893183406E+02  0.00000000000E+00 0.  1.
</event>
<event>
 7    1  0.2405891E-015  0.9000768E+02  0.7816164E-02  0.1186339E+00
        -11   -1    0    0    0    0  0.00000000000E+00  0.00000000000E+00  0.45593999997E+02  0.45594000000E+02  0.51100000000E-03 0.  1.
         11   -1    0    0    0    0 -0.00000000000E+00 -0.00000000000E+00 -0.45593999997E+02  0.45594000000E+02  0.51100000000E-03 0. -1.
    9900012    2    1    2    0    0  0.89019291166E+00 -0.68910387672E+00 -0.35473686468E+00  0.90007684019E+02  0.89999944648E+02 0.  0.
        -12    1    1    2    0    0 -0.89019291166E+00  0.68910387672E+00  0.35473686468E+00  0.11803159814E+01  0.00000000000E+00 0.  1.
         11    1    3    3    0    0 -0.18703666052E+02  0.12018770396E+02 -0.29918613923E+02  0.37274675383E+02  0.51100000000E-03 0. -1.
        -11    1    3    3    0    0  0.33274232036E+01  0.14751325223E+01 -0.83490679289E+01  0.91079468969E+01  0.51100000000E-03 0.  1.
        -12    1    3    3    0    0  0.16266435760E+02 -0.14183006795E+02  0.37912944987E+02  0.43625061738E+02  0.00000000000E+00 0.  1.
</event>
<event>
 7    1  0.2405891E-015  0.9000764E+02  0.7816164E-02  0.1186339E+00
        -11   -1    0    0    0    0  0.00000000000E+00  0.00000000000E+00  0.45593999997E+02  0.45594000000E+02  0.51100000000E-03 0. -1.
         11   -1    0    0    0    0 -0.00000000000E+00 -0.00000000000E+00 -0.45593999997E+02  0.45594000000E+02  0.51100000000E-03 0.  1.
    9900012    2    1    2    0    0 -0.33699521217E-01 -0.55229922272E+00  0.10426363293E+01  0.90007635394E+02  0.89999895381E+02 0.  0.
        -12    1    1    2    0    0  0.33699521217E-01  0.55229922272E+00 -0.10426363293E+01  0.11803646065E+01  0.00000000000E+00 0.  1.
         11    1    3    3    0    0 -0.71447421361E+01 -0.92706066244E+01  0.14723497333E+01  0.11796580071E+02  0.51100000000E-03 0. -1.
        -11    1    3    3    0    0  0.16860790539E+02 -0.18262895411E+01 -0.36030724509E+02  0.39822540100E+02  0.51100000000E-03 0.  1.
         12    1    3    3    0    0 -0.97497479240E+01  0.10544596943E+02  0.35601011105E+02  0.38388515222E+02  0.00000000000E+00 0. -1.
</event>
<event>
 7    1  0.2405891E-015  0.9000774E+02  0.7816164E-02  0.1186339E+00
        -11   -1    0    0    0    0  0.00000000000E+00  0.00000000000E+00  0.45593999997E+02  0.45594000000E+02  0.51100000000E-03 0.  1.
         11   -1    0    0    0    0 -0.00000000000E+00 -0.00000000000E+00 -0.45593999997E+02  0.45594000000E+02  0.51100000000E-03 0. -1.
    9900012    2    1    2    0    0 -0.44055012797E-03  0.78015061957E+00 -0.88564484600E+00  0.90007744953E+02  0.90000006386E+02 0.  0.
        -12    1    1    2    0    0  0.44055012797E-03 -0.78015061957E+00  0.88564484600E+00  0.11802550472E+01  0.00000000000E+00 0.  1.
         11    1    3    3    0    0 -0.11132826560E+02  0.36534828491E+02 -0.26656059928E+01  0.38286276597E+02  0.51100000000E-03 0. -1.
        -11    1    3    3    0    0 -0.12036237781E+01  0.55586990759E+01  0.61595704788E+01  0.83838030964E+01  0.51100000000E-03 0.  1.
        -12    1    3    3    0    0  0.12336009788E+02 -0.41313376947E+02 -0.43796093319E+01  0.43337665260E+02  0.00000000000E+00 0.  1.
</event>
<event>
 7    1  0.2405891E-015  0.9000809E+02  0.7816164E-02  0.1186338E+00
        -11   -1    0    0    0    0  0.00000000000E+00  0.00000000000E+00  0.45593999997E+02  0.45594000000E+02  0.51100000000E-03 0.  1.
         11   -1    0    0    0    0 -0.00000000000E+00 -0.00000000000E+00 -0.45593999997E+02  0.45594000000E+02  0.51100000000E-03 0. -1.
    9900012    2    1    2    0    0  0.81159700741E+00 -0.17480077650E+00 -0.83841430169E+00  0.90008091717E+02  0.90000357727E+02 0.  0.
        -12    1    1    2    0    0 -0.81159700741E+00  0.17480077650E+00  0.83841430169E+00  0.11799082825E+01  0.00000000000E+00 0.  1.
         11    1    3    3    0    0 -0.28401262416E+01 -0.16227372282E+01  0.12196786244E+02  0.12627794270E+02  0.51100000000E-03 0. -1.
        -11    1    3    3    0    0  0.17781802162E+02  0.34217099821E+02  0.20971430877E+01  0.38618653753E+02  0.51100000000E-03 0.  1.
         12    1    3    3    0    0 -0.14130078913E+02 -0.32769163369E+02 -0.15132343634E+02  0.38761643694E+02  0.00000000000E+00 0. -1.
</event>
<event>
 7    1  0.2405891E-015  0.9000771E+02  0.7816164E-02  0.1186339E+00
        -11   -1    0    0    0    0  0.00000000000E+00  0.00000000000E+00  0.45593999997E+02  0.45594000000E+02  0.51100000000E-03 0.  1.
         11   -1    0    0    0    0 -0.00000000000E+00 -0.00000000000E+00 -0.45593999997E+02  0.45594000000E+02  0.51100000000E-03 0. -1.
    9900012    2    1    2    0    0 -0.72764941544E-01 -0.16338642337E+00 -0.11666588755E+01  0.90007710717E+02  0.89999971698E+02 0.  0.
        -12    1    1    2    0    0  0.72764941544E-01  0.16338642337E+00  0.11666588755E+01  0.11802892832E+01  0.00000000000E+00 0.  1.
         11    1    3    3    0    0 -0.10672696389E+02 -0.38271468757E+02 -0.29023155188E+01  0.39837610428E+02  0.51100000000E-03 0. -1.
        -11    1    3    3    0    0 -0.20690308767E+01  0.50642984915E+00 -0.88508428296E+01  0.91035585908E+01  0.51100000000E-03 0.  1.
        -12    1    3    3    0    0  0.12668962324E+02  0.37601652484E+02  0.10586499473E+02  0.41066541698E+02  0.00000000000E+00 0.  1.
</event>
<event>
 7    1  0.2405891E-015  0.9000781E+02  0.7816164E-02  0.1186339E+00
        -11   -1    0    0    0    0  0.00000000000E+00  0.00000000000E+00  0.45593999997E+02  0.45594000000E+02  0.51100000000E-03 0. -1.
         11   -1    0    0    0    0 -0.00000000000E+00 -0.00000000000E+00 -0.45593999997E+02  0.45594000000E+02  0.51100000000E-03 0.  1.
    9900012    2    1    2    0    0  0.10488532953E+01 -0.52503987806E+00 -0.13074035609E+00  0.90007808003E+02  0.90000070269E+02 0.  0.
        -12    1    1    2    0    0 -0.10488532953E+01  0.52503987806E+00  0.13074035609E+00  0.11801919968E+01  0.00000000000E+00 0.  1.
         11    1    3    3    0    0 -0.32996873328E+01  0.89254844252E+01 -0.20390562393E+01  0.97319041984E+01  0.51100000000E-03 0. -1.
        -11    1    3    3    0    0  0.35969776431E+02 -0.11219289005E+01 -0.19753444390E+02  0.41052187596E+02  0.51100000000E-03 0.  1.
         12    1    3    3    0    0 -0.31621235803E+02 -0.83285954027E+01  0.21661760273E+02  0.39223716208E+02  0.00000000000E+00 0. -1.
</event>
<event>
 7    1  0.2405891E-015  0.9000771E+02  0.7816164E-02  0.1186339E+00
        -11   -1    0    0    0    0  0.00000000000E+00  0.00000000000E+00  0.45593999997E+02  0.45594000000E+02  0.51100000000E-03 0.  1.
         11   -1    0    0    0    0 -0.00000000000E+00 -0.00000000000E+00 -0.45593999997E+02  0.45594000000E+02  0.51100000000E-03 0. -1.
    9900012    2    1    2    0    0  0.57250917707E+00  0.10143574298E+01  0.19078619791E+00  0.90007708881E+02  0.89999969838E+02 0.  0.
        -12    1    1    2    0    0 -0.57250917707E+00 -0.10143574298E+01 -0.19078619791E+00  0.11802911194E+01  0.00000000000E+00 0.  1.
         11    1    3    3    0    0 -0.83313727597E+01 -0.48678642450E+01  0.46060215153E+00  0.96602292402E+01  0.51100000000E-03 0. -1.
        -11    1    3    3    0    0 -0.27975937230E+01 -0.34417370284E+02  0.12114267984E+02  0.36594226279E+02  0.51100000000E-03 0.  1.
         12    1    3    3    0    0  0.11701475660E+02  0.40299591959E+02 -0.12384083938E+02  0.43753253361E+02  0.00000000000E+00 0. -1.
</event>
<event>
 7    1  0.2405891E-015  0.9000782E+02  0.7816164E-02  0.1186339E+00
        -11   -1    0    0    0    0  0.00000000000E+00  0.00000000000E+00  0.45593999997E+02  0.45594000000E+02  0.51100000000E-03 0.  1.
         11   -1    0    0    0    0 -0.00000000000E+00 -0.00000000000E+00 -0.45593999997E+02  0.45594000000E+02  0.51100000000E-03 0. -1.
    9900012    2    1    2    0    0 -0.39521752435E+00 -0.74766549259E+00 -0.82318092839E+00  0.90007818903E+02  0.90000081313E+02 0.  0.
        -12    1    1    2    0    0  0.39521752435E+00  0.74766549259E+00  0.82318092839E+00  0.11801810968E+01  0.00000000000E+00 0.  1.
         11    1    3    3    0    0  0.32374998105E+01 -0.64496732831E+01  0.58211690827E+01  0.92717689915E+01  0.51100000000E-03 0. -1.
        -11    1    3    3    0    0  0.23200371228E+02  0.43116236631E+01  0.28177184600E+02  0.36753245516E+02  0.51100000000E-03 0.  1.
         12    1    3    3    0    0 -0.26833088563E+02  0.13903841274E+01 -0.34821534611E+02  0.43982804396E+02  0.00000000000E+00 0. -1.
</event>
<event>
 7    1  0.2405891E-015  0.9000779E+02  0.7816164E-02  0.1186339E+00
        -11   -1    0    0    0    0  0.00000000000E+00  0.00000000000E+00  0.45593999997E+02  0.45594000000E+02  0.51100000000E-03 0. -1.
         11   -1    0    0    0    0 -0.00000000000E+00 -0.00000000000E+00 -0.45593999997E+02  0.45594000000E+02  0.51100000000E-03 0.  1.
    9900012    2    1    2    0    0  0.28621628392E+00  0.30637028698E+00  0.11032300257E+01  0.90007788577E+02  0.90000050586E+02 0.  0.
        -12    1    1    2    0    0 -0.28621628392E+00 -0.30637028698E+00 -0.11032300257E+01  0.11802114232E+01  0.00000000000E+00 0.  1.
         11    1    3    3    0    0  0.42480432390E+01 -0.68600283990E+01  0.35580100909E+02  0.36483550292E+02  0.51100000000E-03 0. -1.
        -11    1    3    3    0    0  0.15006521341E+01  0.92488127133E+01  0.69632064012E+01  0.11673848426E+02  0.51100000000E-03 0.  1.
        -12    1    3    3    0    0 -0.54624790892E+01 -0.20824140273E+01 -0.41440077284E+02  0.41850389858E+02  0.00000000000E+00 0.  1.
</event>
<event>
 7    1  0.2405891E-015  0.9000772E+02  0.7816164E-02  0.1186339E+00
        -11   -1    0    0    0    0  0.00000000000E+00  0.00000000000E+00  0.45593999997E+02  0.45594000000E+02  0.51100000000E-03 0.  1.
         11   -1    0    0    0    0 -0.00000000000E+00 -0.00000000000E+00 -0.45593999997E+02  0.45594000000E+02  0.51100000000E-03 0. -1.
    9900012    2    1    2    0    0  0.69127029862E+00 -0.47437198342E+00 -0.83076362510E+00  0.90007723928E+02  0.89999985084E+02 0.  0.
        -12    1    1    2    0    0 -0.69127029862E+00  0.47437198342E+00  0.83076362510E+00  0.11802760716E+01  0.00000000000E+00 0.  1.
         11    1    3    3    0    0  0.74463483749E+01 -0.20932599327E+01  0.64847067232E+01  0.10093624860E+02  0.51100000000E-03 0. -1.
        -11    1    3    3    0    0  0.35953315703E+02  0.45480007832E+01  0.12303928632E+01  0.36260709977E+02  0.51100000000E-03 0.  1.
         12    1    3    3    0    0 -0.42708393779E+02 -0.29291128339E+01 -0.85458632115E+01  0.43653389092E+02  0.00000000000E+00 0. -1.
</event>
<event>
 7    1  0.2405891E-015  0.9000783E+02  0.7816164E-02  0.1186339E+00
        -11   -1    0    0    0    0  0.00000000000E+00  0.00000000000E+00  0.45593999997E+02  0.45594000000E+02  0.51100000000E-03 0. -1.
         11   -1    0    0    0    0 -0.00000000000E+00 -0.00000000000E+00 -0.45593999997E+02  0.45594000000E+02  0.51100000000E-03 0.  1.
    9900012    2    1    2    0    0 -0.10189844700E+01 -0.20808836852E+00  0.55783497579E+00  0.90007826293E+02  0.90000088800E+02 0.  0.
        -12    1    1    2    0    0  0.10189844700E+01  0.20808836852E+00 -0.55783497579E+00  0.11801737073E+01  0.00000000000E+00 0.  1.
         11    1    3    3    0    0 -0.84827684948E+01  0.23918603838E+01 -0.51077459900E+01  0.10186629805E+02  0.51100000000E-03 0. -1.
        -11    1    3    3    0    0  0.41758123026E+02 -0.11360527742E+02 -0.30016774663E+01  0.43379862806E+02  0.51100000000E-03 0.  1.
         12    1    3    3    0    0 -0.34294339001E+02  0.87605789896E+01  0.86672584321E+01  0.36441333681E+02  0.00000000000E+00 0. -1.
</event>
<event>
 7    1  0.2405891E-015  0.9000744E+02  0.7816164E-02  0.1186340E+00
        -11   -1    0    0    0    0  0.00000000000E+00  0.00000000000E+00  0.45593999997E+02  0.45594000000E+02  0.51100000000E-03 0.  1.
         11   -1    0    0    0    0 -0.00000000000E+00 -0.00000000000E+00 -0.45593999997E+02  0.45594000000E+02  0.51100000000E-03 0. -1.
    9900012    2    1    2    0    0 -0.44816013839E+00 -0.10010892648E+01 -0.43669458612E+00  0.90007436835E+02  0.89999694200E+02 0.  0.
        -12    1    1    2    0    0  0.44816013839E+00  0.10010892648E+01  0.43669458612E+00  0.11805631653E+01  0.00000000000E+00 0.  1.
         11    1    3    3    0    0 -0.13775975838E+01 -0.45136059168E+01 -0.86737078011E+01  0.98743921714E+01  0.51100000000E-03 0. -1.
        -11    1    3    3    0    0  0.25985202545E+02 -0.27742627543E+02 -0.40646040910E+01  0.38228329037E+02  0.51100000000E-03 0.  1.
         12    1    3    3    0    0 -0.25055765100E+02  0.31255144195E+02  0.12301617306E+02  0.41904715626E+02  0.00000000000E+00 0. -1.
</event>
<event>
 7    1  0.2426985E-015  0.9000767E+02  0.7816164E-02  0.1186339E+00
        -11   -1    0    0    0    0  0.00000000000E+00  0.00000000000E+00  0.45593999997E+02  0.45594000000E+02  0.51100000000E-03 0.  1.
         11   -1    0    0    0    0 -0.00000000000E+00 -0.00000000000E+00 -0.45593999997E+02  0.45594000000E+02  0.51100000000E-03 0. -1.
    9900012    2    1    2    0    0  0.64118975629E+00  0.73097424005E+00 -0.66911950608E+00  0.90007674385E+02  0.89999934887E+02 0.  0.
        -12    1    1    2    0    0 -0.64118975629E+00 -0.73097424005E+00  0.66911950608E+00  0.11803256147E+01  0.00000000000E+00 0.  1.
         11    1    3    3    0    0 -0.61286866426E+01  0.74286274865E+01 -0.18223823765E+01  0.98013460343E+01  0.51100000000E-03 0. -1.
        -11    1    3    3    0    0 -0.10827712962E+02  0.27054570504E+02  0.22270732072E+02  0.36676622805E+02  0.51100000000E-03 0.  1.
         12    1    3    3    0    0  0.17597589361E+02 -0.33752223750E+02 -0.21117469202E+02  0.43529705546E+02  0.00000000000E+00 0. -1.
</event>
<event>
 7    1  0.2405891E-015  0.9000773E+02  0.7816164E-02  0.1186339E+00
        -11   -1    0    0    0    0  0.00000000000E+00  0.00000000000E+00  0.45593999997E+02  0.45594000000E+02  0.51100000000E-03 0. -1.
         11   -1    0    0    0    0 -0.00000000000E+00 -0.00000000000E+00 -0.45593999997E+02  0.45594000000E+02  0.51100000000E-03 0.  1.
    9900012    2    1    2    0    0 -0.87285994055E+00 -0.78955418808E+00 -0.88060145079E-01  0.90007731013E+02  0.89999992263E+02 0.  0.
        -12    1    1    2    0    0  0.87285994055E+00  0.78955418808E+00  0.88060145079E-01  0.11802689867E+01  0.00000000000E+00 0.  1.
         11    1    3    3    0    0 -0.28614608087E+02  0.15944465551E+02 -0.24612484957E+02  0.40973115498E+02  0.51100000000E-03 0. -1.
        -11    1    3    3    0    0 -0.17491730106E+01  0.24995302234E+01  0.10838445324E+02  0.11259624987E+02  0.51100000000E-03 0.  1.
        -12    1    3    3    0    0  0.29490921157E+02 -0.19233549962E+02  0.13685979488E+02  0.37774990527E+02  0.00000000000E+00 0.  1.
</event>
<event>
 7    1  0.2405891E-015  0.9000762E+02  0.7816164E-02  0.1186339E+00
        -11   -1    0    0    0    0  0.00000000000E+00  0.00000000000E+00  0.45593999997E+02  0.45594000000E+02  0.51100000000E-03 0. -1.
         11   -1    0    0    0    0 -0.00000000000E+00 -0.00000000000E+00 -0.45593999997E+02  0.45594000000E+02  0.51100000000E-03 0.  1.
    9900012    2    1    2    0    0  0.60196360962E+00  0.23544542284E+00  0.98767869711E+00  0.90007617035E+02  0.89999876780E+02 0.  0.
        -12    1    1    2    0    0 -0.60196360962E+00 -0.23544542284E+00 -0.98767869711E+00  0.11803829646E+01  0.00000000000E+00 0.  1.
         11    1    3    3    0    0 -0.20438967650E+00 -0.57198651676E+01  0.42877852395E+01  0.71514848246E+01  0.51100000000E-03 0. -1.
        -11    1    3    3    0    0  0.11642978055E+01 -0.15451926949E+02 -0.38586862752E+02  0.41582010692E+02  0.51100000000E-03 0.  1.
         12    1    3    3    0    0 -0.35794451935E+00  0.21407237540E+02  0.35286756210E+02  0.41274121519E+02  0.00000000000E+00 0. -1.
</event>
<event>
 7    1  0.2405891E-015  0.9000776E+02  0.7816164E-02  0.1186339E+00
        -11   -1    0    0    0    0  0.00000000000E+00  0.00000000000E+00  0.45593999997E+02  0.45594000000E+02  0.51100000000E-03 0. -1.
         11   -1    0    0    0    0 -0.00000000000E+00 -0.00000000000E+00 -0.45593999997E+02  0.45594000000E+02  0.51100000000E-03 0.  1.
    9900012    2    1    2    0    0 -0.10569727630E+01 -0.46665090590E+00  0.24085282059E+00  0.90007760799E+02  0.90000022442E+02 0.  0.
        -12    1    1    2    0    0  0.10569727630E+01  0.46665090590E+00 -0.24085282059E+00  0.11802392007E+01  0.00000000000E+00 0.  1.
         11    1    3    3    0    0 -0.12675793817E+02 -0.89064615072E+01  0.33634846340E+02  0.37031117915E+02  0.51100000000E-03 0. -1.
        -11    1    3    3    0    0  0.53866967092E+01 -0.25348787038E+01  0.78458518316E+01  0.98488325554E+01  0.51100000000E-03 0.  1.
        -12    1    3    3    0    0  0.62321243450E+01  0.10974689305E+02 -0.41239845351E+02  0.43127810329E+02  0.00000000000E+00 0.  1.
</event>
<event>
 7    1  0.2405891E-015  0.9000765E+02  0.7816164E-02  0.1186339E+00
        -11   -1    0    0    0    0  0.00000000000E+00  0.00000000000E+00  0.45593999997E+02  0.45594000000E+02  0.51100000000E-03 0.  1.
         11   -1    0    0    0    0 -0.00000000000E+00 -0.00000000000E+00 -0.45593999997E+02  0.45594000000E+02  0.51100000000E-03 0. -1.
    9900012    2    1    2    0    0 -0.72638827704E+00  0.25687141950E+00 -0.89420178717E+00  0.90007652724E+02  0.89999912940E+02 0.  0.
        -12    1    1    2    0    0  0.72638827704E+00 -0.25687141950E+00  0.89420178717E+00  0.11803472757E+01  0.00000000000E+00 0.  1.
         11    1    3    3    0    0 -0.14984361887E+01 -0.36130054265E+02 -0.21800660385E+01  0.36226769389E+02  0.51100000000E-03 0. -1.
        -11    1    3    3    0    0  0.98963271825E+01 -0.49507891513E+01 -0.22806726111E+01  0.11298188914E+02  0.51100000000E-03 0.  1.
        -12    1    3    3    0    0 -0.91242792709E+01  0.41337714836E+02  0.35665368624E+01  0.42482694421E+02  0.00000000000E+00 0.  1.
</event>
<event>
 7    1  0.2405891E-015  0.9000792E+02  0.7816164E-02  0.1186339E+00
        -11   -1    0    0    0    0  0.00000000000E+00  0.00000000000E+00  0.45593999997E+02  0.45594000000E+02  0.51100000000E-03 0.  1.
         11   -1    0    0    0    0 -0.00000000000E+00 -0.00000000000E+00 -0.45593999997E+02  0.45594000000E+02  0.51100000000E-03 0. -1.
    9900012    2    1    2    0    0  0.67388496400E+00  0.20694040274E+00 -0.94638880943E+00  0.90007916506E+02  0.90000180203E+02 0.  0.
        -12    1    1    2    0    0 -0.67388496400E+00 -0.20694040274E+00  0.94638880943E+00  0.11800834943E+01  0.00000000000E+00 0.  1.
         11    1    3    3    0    0 -0.16394123756E+02  0.18883341932E+02 -0.28649205517E+02  0.38027948581E+02  0.51100000000E-03 0. -1.
        -11    1    3    3    0    0 -0.48172060717E+01  0.79984932393E+01  0.42415154988E+01  0.10255331415E+02  0.51100000000E-03 0.  1.
        -12    1    3    3    0    0  0.21885214792E+02 -0.26674894769E+02  0.23461301209E+02  0.41724636510E+02  0.00000000000E+00 0.  1.
</event>
<event>
 7    1  0.2405891E-015  0.9000772E+02  0.7816164E-02  0.1186339E+00
        -11   -1    0    0    0    0  0.00000000000E+00  0.00000000000E+00  0.45593999997E+02  0.45594000000E+02  0.51100000000E-03 0.  1.
         11   -1    0    0    0    0 -0.00000000000E+00 -0.00000000000E+00 -0.45593999997E+02  0.45594000000E+02  0.51100000000E-03 0. -1.
    9900012    2    1    2    0    0 -0.21961337787E-02  0.68283261581E+00 -0.96270636884E+00  0.90007716662E+02  0.89999977722E+02 0.  0.
        -12    1    1    2    0    0  0.21961337787E-02 -0.68283261581E+00  0.96270636884E+00  0.11802833375E+01  0.00000000000E+00 0.  1.
         11    1    3    3    0    0 -0.17724618959E+01 -0.14511309731E+02 -0.96835553848E+00  0.14651192579E+02  0.51100000000E-03 0. -1.
        -11    1    3    3    0    0 -0.25072558138E+02 -0.17627922208E+02 -0.91351007102E+01  0.31981664718E+02  0.51100000000E-03 0.  1.
         12    1    3    3    0    0  0.26842823900E+02  0.32822064555E+02  0.91407498798E+01  0.43374859365E+02  0.00000000000E+00 0. -1.
</event>
<event>
 7    1  0.2405891E-015  0.9000773E+02  0.7816164E-02  0.1186339E+00
        -11   -1    0    0    0    0  0.00000000000E+00  0.00000000000E+00  0.45593999997E+02  0.45594000000E+02  0.51100000000E-03 0. -1.
         11   -1    0    0    0    0 -0.00000000000E+00 -0.00000000000E+00 -0.45593999997E+02  0.45594000000E+02  0.51100000000E-03 0.  1.
    9900012    2    1    2    0    0 -0.17975204644E+00 -0.11599394369E+01 -0.12355510625E+00  0.90007730472E+02  0.89999991714E+02 0.  0.
        -12    1    1    2    0    0  0.17975204644E+00  0.11599394369E+01  0.12355510625E+00  0.11802695285E+01  0.00000000000E+00 0.  1.
         11    1    3    3    0    0 -0.10388790052E+02  0.12029228486E+01 -0.63455696724E+01  0.12232752627E+02  0.51100000000E-03 0. -1.
        -11    1    3    3    0    0 -0.13430346789E+02  0.79539937833E+01 -0.29700207387E+02  0.33552087135E+02  0.51100000000E-03 0.  1.
         12    1    3    3    0    0  0.23639384794E+02 -0.10316856069E+02  0.35922221954E+02  0.44222890709E+02  0.00000000000E+00 0. -1.
</event>
<event>
 7    1  0.2405891E-015  0.9000778E+02  0.7816164E-02  0.1186339E+00
        -11   -1    0    0    0    0  0.00000000000E+00  0.00000000000E+00  0.45593999997E+02  0.45594000000E+02  0.51100000000E-03 0.  1.
         11   -1    0    0    0    0 -0.00000000000E+00 -0.00000000000E+00 -0.45593999997E+02  0.45594000000E+02  0.51100000000E-03 0. -1.
    9900012    2    1    2    0    0  0.58265760254E+00 -0.74575145930E+00 -0.70518198650E+00  0.90007781056E+02  0.90000042966E+02 0.  0.
        -12    1    1    2    0    0 -0.58265760254E+00  0.74575145930E+00  0.70518198650E+00  0.11802189436E+01  0.00000000000E+00 0.  1.
         11    1    3    3    0    0  0.82776812102E+00 -0.33623958810E+01  0.94725254865E+01  0.10085615771E+02  0.51100000000E-03 0. -1.
        -11    1    3    3    0    0 -0.10018489218E+02  0.25933919054E+02  0.24465894797E+02  0.37034015340E+02  0.51100000000E-03 0.  1.
         12    1    3    3    0    0  0.97733787000E+01 -0.23317274632E+02 -0.34643602270E+02  0.42888149946E+02  0.00000000000E+00 0. -1.
</event>
<event>
 7    1  0.2405891E-015  0.9000774E+02  0.7816164E-02  0.1186339E+00
        -11   -1    0    0    0    0  0.00000000000E+00  0.00000000000E+00  0.45593999997E+02  0.45594000000E+02  0.51100000000E-03 0. -1.
         11   -1    0    0    0    0 -0.00000000000E+00 -0.00000000000E+00 -0.45593999997E+02  0.45594000000E+02  0.51100000000E-03 0.  1.
    9900012    2    1    2    0    0 -0.52171545687E+00  0.19486328450E+00  0.10406026652E+01  0.90007740442E+02  0.90000001816E+02 0.  0.
        -12    1    1    2    0    0  0.52171545687E+00 -0.19486328450E+00 -0.10406026652E+01  0.11802595581E+01  0.00000000000E+00 0.  1.
         11    1    3    3    0    0  0.84511766716E+01  0.52553255411E+01  0.45522404354E+01  0.10943661495E+02  0.51100000000E-03 0. -1.
        -11    1    3    3    0    0  0.10270192702E+02 -0.10088228219E+02 -0.37230249270E+02  0.39916671551E+02  0.51100000000E-03 0.  1.
         12    1    3    3    0    0 -0.19243084831E+02  0.50277659621E+01  0.33718611500E+02  0.39147407396E+02  0.00000000000E+00 0. -1.
</event>
<event>
 7    1  0.2405891E-015  0.9000778E+02  0.7816164E-02  0.1186339E+00
        -11   -1    0    0    0    0  0.00000000000E+00  0.00000000000E+00  0.45593999997E+02  0.45594000000E+02  0.51100000000E-03 0.  1.
         11   -1    0    0    0    0 -0.00000000000E+00 -0.00000000000E+00 -0.45593999997E+02  0.45594000000E+02  0.51100000000E-03 0. -1.
    9900012    2    1    2    0    0  0.71925764795E+00 -0.93520130242E+00 -0.31394260390E-01  0.90007780258E+02  0.90000042157E+02 0.  0.
        -12    1    1    2    0    0 -0.71925764795E+00  0.93520130242E+00  0.31394260390E-01  0.11802197422E+01  0.00000000000E+00 0.  1.
         11    1    3    3    0    0  0.87185549468E+01  0.82383091681E+00 -0.75712462616E+00  0.87900589133E+01  0.51100000000E-03 0. -1.
        -11    1    3    3    0    0 -0.15393677231E+02  0.36826790853E+02 -0.86170266100E+01  0.40834188752E+02  0.51100000000E-03 0.  1.
         12    1    3    3    0    0  0.73943799324E+01 -0.38585823072E+02  0.93427569757E+01  0.40383532592E+02  0.00000000000E+00 0. -1.
</event>
<event>
 7    1  0.2405891E-015  0.9000767E+02  0.7816164E-02  0.1186339E+00
        -11   -1    0    0    0    0  0.00000000000E+00  0.00000000000E+00  0.45593999997E+02  0.45594000000E+02  0.51100000000E-03 0. -1.
         11   -1    0    0    0    0 -0.00000000000E+00 -0.00000000000E+00 -0.45593999997E+02  0.45594000000E+02  0.51100000000E-03 0.  1.
    9900012    2    1    2    0    0  0.87074195929E+00  0.70752924512E+00  0.36659525846E+00  0.90007668997E+02  0.89999929428E+02 0.  0.
        -12    1    1    2    0    0 -0.87074195929E+00 -0.70752924512E+00 -0.36659525846E+00  0.11803310027E+01  0.00000000000E+00 0.  1.
         11    1    3    3    0    0  0.30014299598E+02  0.24028217336E+02 -0.11069161503E+02  0.40009245748E+02  0.51100000000E-03 0. -1.
        -11    1    3    3    0    0  0.50416145749E+01 -0.61988966949E+01  0.84795527337E+01  0.11651051995E+02  0.51100000000E-03 0.  1.
        -12    1    3    3    0    0 -0.34185172213E+02 -0.17121791396E+02  0.29562040276E+01  0.38347371254E+02  0.00000000000E+00 0.  1.
</event>
<event>
 7    1  0.2405891E-015  0.9000775E+02  0.7816164E-02  0.1186339E+00
        -11   -1    0    0    0    0  0.00000000000E+00  0.00000000000E+00  0.45593999997E+02  0.45594000000E+02  0.51100000000E-03 0.  1.
         11   -1    0    0    0    0 -0.00000000000E+00 -0.00000000000E+00 -0.45593999997E+02  0.45594000000E+02  0.51100000000E-03 0. -1.
    9900012    2    1    2    0    0  0.35566423262E+00  0.96702797917E+00 -0.57563550938E+00  0.90007747316E+02  0.90000008780E+02 0.  0.
        -12    1    1    2    0    0 -0.35566423262E+00 -0.96702797917E+00  0.57563550938E+00  0.11802526842E+01  0.00000000000E+00 0.  1.
         11    1    3    3    0    0  0.87821301742E+01  0.28985277576E+01  0.31159824588E+01  0.97589251715E+01  0.51100000000E-03 0. -1.
        -11    1    3    3    0    0 -0.17934669461E+01  0.52429746060E+01  0.37503577224E+02  0.37910732139E+02  0.51100000000E-03 0.  1.
         12    1    3    3    0    0 -0.66329989955E+01 -0.71744743845E+01 -0.41195195193E+02  0.42338090006E+02  0.00000000000E+00 0. -1.
</event>
<event>
 7    1  0.2405891E-015  0.9000777E+02  0.7816164E-02  0.1186339E+00
        -11   -1    0    0    0    0  0.00000000000E+00  0.00000000000E+00  0.45593999997E+02  0.45594000000E+02  0.51100000000E-03 0.  1.
         11   -1    0    0    0    0 -0.00000000000E+00 -0.00000000000E+00 -0.45593999997E+02  0.45594000000E+02  0.51100000000E-03 0. -1.
    9900012    2    1    2    0    0  0.99374488197E+00  0.59638265111E+00 -0.22300835426E+00  0.90007773800E+02  0.90000035614E+02 0.  0.
        -12    1    1    2    0    0 -0.99374488197E+00 -0.59638265111E+00  0.22300835426E+00  0.11802262000E+01  0.00000000000E+00 0.  1.
         11    1    3    3    0    0  0.10160913949E+02 -0.62438303766E+01 -0.66018838581E+00  0.11944263854E+02  0.51100000000E-03 0. -1.
        -11    1    3    3    0    0 -0.17833217567E+02 -0.67321447127E+01  0.35044510736E+02  0.39893146708E+02  0.51100000000E-03 0.  1.
         12    1    3    3    0    0  0.86660485003E+01  0.13572357740E+02 -0.34607330705E+02  0.38170363238E+02  0.00000000000E+00 0. -1.
</event>
<event>
 7    1  0.2405891E-015  0.9000767E+02  0.7816164E-02  0.1186339E+00
        -11   -1    0    0    0    0  0.00000000000E+00  0.00000000000E+00  0.45593999997E+02  0.45594000000E+02  0.51100000000E-03 0. -1.
         11   -1    0    0    0    0 -0.00000000000E+00 -0.00000000000E+00 -0.45593999997E+02  0.45594000000E+02  0.51100000000E-03 0.  1.
    9900012    2    1    2    0    0 -0.12919630476E+00 -0.11564614346E+01  0.19771126931E+00  0.90007667640E+02  0.89999928052E+02 0.  0.
        -12    1    1    2    0    0  0.12919630476E+00  0.11564614346E+01 -0.19771126931E+00  0.11803323604E+01  0.00000000000E+00 0.  1.
         11    1    3    3    0    0 -0.36099904588E+02  0.91174089488E+01 -0.93399065573E+01  0.38387030517E+02  0.51100000000E-03 0. -1.
        -11    1    3    3    0    0 -0.40197801407E+01 -0.72669092580E+01 -0.41003907915E+01  0.92617388997E+01  0.51100000000E-03 0.  1.
        -12    1    3    3    0    0  0.39990488424E+02 -0.30069611255E+01  0.13638008618E+02  0.42358898223E+02  0.00000000000E+00 0.  1.
</event>
<event>
 7    1  0.2405891E-015  0.9000780E+02  0.7816164E-02  0.1186339E+00
        -11   -1    0    0    0    0  0.00000000000E+00  0.00000000000E+00  0.45593999997E+02  0.45594000000E+02  0.51100000000E-03 0. -1.
         11   -1    0    0    0    0 -0.00000000000E+00 -0.00000000000E+00 -0.45593999997E+02  0.45594000000E+02  0.51100000000E-03 0.  1.
    9900012    2    1    2    0    0  0.11020996871E+01 -0.68612354998E-01  0.41659475891E+00  0.90007795539E+02  0.90000057640E+02 0.  0.
        -12    1    1    2    0    0 -0.11020996871E+01  0.68612354998E-01 -0.41659475891E+00  0.11802044606E+01  0.00000000000E+00 0.  1.
         11    1    3    3    0    0 -0.27983527205E+01  0.88573288032E+01  0.33452410758E-01  0.92889273224E+01  0.51100000000E-03 0. -1.
        -11    1    3    3    0    0 -0.16176665783E+02 -0.40079838377E+02 -0.39604816658E+01  0.43402342972E+02  0.51100000000E-03 0.  1.
         12    1    3    3    0    0  0.20077118190E+02  0.31153897219E+02  0.43436240140E+01  0.37316525245E+02  0.00000000000E+00 0. -1.
</event>
<event>
 7    1  0.2405891E-015  0.9000811E+02  0.7816164E-02  0.1186338E+00
        -11   -1    0    0    0    0  0.00000000000E+00  0.00000000000E+00  0.45593999997E+02  0.45594000000E+02  0.51100000000E-03 0.  1.
         11   -1    0    0    0    0 -0.00000000000E+00 -0.00000000000E+00 -0.45593999997E+02  0.45594000000E+02  0.51100000000E-03 0. -1.
    9900012    2    1    2    0    0 -0.91648597993E+00  0.74309039974E+00  0.82326004723E-03  0.90008114170E+02  0.90000380476E+02 0.  0.
        -12    1    1    2    0    0  0.91648597993E+00 -0.74309039974E+00 -0.82326004723E-03  0.11798858298E+01  0.00000000000E+00 0.  1.
         11    1    3    3    0    0 -0.40586055321E+01 -0.98479887761E+01 -0.26207833163E+01  0.10969214523E+02  0.51100000000E-03 0. -1.
        -11    1    3    3    0    0 -0.12965394941E+02  0.39667039092E+02 -0.10935242466E+02  0.43141105507E+02  0.51100000000E-03 0.  1.
         12    1    3    3    0    0  0.16107514494E+02 -0.29075959916E+02  0.13556849042E+02  0.35897794140E+02  0.00000000000E+00 0. -1.
</event>
<event>
 7    1  0.2405891E-015  0.9000802E+02  0.7816164E-02  0.1186338E+00
        -11   -1    0    0    0    0  0.00000000000E+00  0.00000000000E+00  0.45593999997E+02  0.45594000000E+02  0.51100000000E-03 0. -1.
         11   -1    0    0    0    0 -0.00000000000E+00 -0.00000000000E+00 -0.45593999997E+02  0.45594000000E+02  0.51100000000E-03 0.  1.
    9900012    2    1    2    0    0  0.77436068461E-01  0.10542733594E+01 -0.52427904477E+00  0.90008018145E+02  0.90000283184E+02 0.  0.
        -12    1    1    2    0    0 -0.77436068461E-01 -0.10542733594E+01  0.52427904477E+00  0.11799818548E+01  0.00000000000E+00 0.  1.
         11    1    3    3    0    0  0.17388849151E+02 -0.13795054669E+02  0.68769869944E+01  0.23237223554E+02  0.51100000000E-03 0. -1.
        -11    1    3    3    0    0  0.52962652742E+01  0.41825933807E+01 -0.31400491126E+02  0.32117524133E+02  0.51100000000E-03 0.  1.
         12    1    3    3    0    0 -0.22607678356E+02  0.10666734648E+02  0.23999225087E+02  0.34653270458E+02  0.00000000000E+00 0. -1.
</event>
<event>
 7    1  0.2405891E-015  0.9000754E+02  0.7816164E-02  0.1186339E+00
        -11   -1    0    0    0    0  0.00000000000E+00  0.00000000000E+00  0.45593999997E+02  0.45594000000E+02  0.51100000000E-03 0. -1.
         11   -1    0    0    0    0 -0.00000000000E+00 -0.00000000000E+00 -0.45593999997E+02  0.45594000000E+02  0.51100000000E-03 0.  1.
    9900012    2    1    2    0    0 -0.56973795858E+00 -0.38921629631E+00 -0.95780895261E+00  0.90007538795E+02  0.89999797507E+02 0.  0.
        -12    1    1    2    0    0  0.56973795858E+00  0.38921629631E+00  0.95780895261E+00  0.11804612050E+01  0.00000000000E+00 0.  1.
         11    1    3    3    0    0  0.84410306582E+01  0.30654878194E+02  0.19025616796E+02  0.37053294731E+02  0.51100000000E-03 0. -1.
        -11    1    3    3    0    0  0.98068758022E+00  0.73470226568E+01 -0.92585777604E+01  0.11860090744E+02  0.51100000000E-03 0.  1.
        -12    1    3    3    0    0 -0.99914561970E+01 -0.38391117147E+02 -0.10724847988E+02  0.41094153320E+02  0.00000000000E+00 0.  1.
</event>
<event>
 7    1  0.2405891E-015  0.9000764E+02  0.7816164E-02  0.1186339E+00
        -11   -1    0    0    0    0  0.00000000000E+00  0.00000000000E+00  0.45593999997E+02  0.45594000000E+02  0.51100000000E-03 0.  1.
         11   -1    0    0    0    0 -0.00000000000E+00 -0.00000000000E+00 -0.45593999997E+02  0.45594000000E+02  0.51100000000E-03 0. -1.
    9900012    2    1    2    0    0  0.88301274795E+00  0.53698117486E+00  0.57025277075E+00  0.90007640513E+02  0.89999900568E+02 0.  0.
        -12    1    1    2    0    0 -0.88301274795E+00 -0.53698117486E+00 -0.57025277075E+00  0.11803594867E+01  0.00000000000E+00 0.  1.
         11    1    3    3    0    0  0.29353335273E+02  0.14460067299E+02 -0.17121364719E+02  0.36930380014E+02  0.51100000000E-03 0. -1.
        -11    1    3    3    0    0  0.82495644258E+01 -0.25291164761E+01 -0.33415567147E+01  0.92529857291E+01  0.51100000000E-03 0.  1.
        -12    1    3    3    0    0 -0.36719886950E+02 -0.11393969648E+02  0.21033174204E+02  0.43824274770E+02  0.00000000000E+00 0.  1.
</event>
<event>
 7    1  0.2405891E-015  0.9000769E+02  0.7816164E-02  0.1186339E+00
        -11   -1    0    0    0    0  0.00000000000E+00  0.00000000000E+00  0.45593999997E+02  0.45594000000E+02  0.51100000000E-03 0. -1.
         11   -1    0    0    0    0 -0.00000000000E+00 -0.00000000000E+00 -0.45593999997E+02  0.45594000000E+02  0.51100000000E-03 0.  1.
    9900012    2    1    2    0    0 -0.42473381527E+00 -0.54094700348E+00  0.95922400395E+00  0.90007689378E+02  0.89999950078E+02 0.  0.
        -12    1    1    2    0    0  0.42473381527E+00  0.54094700348E+00 -0.95922400395E+00  0.11803106219E+01  0.00000000000E+00 0.  1.
         11    1    3    3    0    0  0.41280098903E+01  0.43742711048E+01 -0.78254814066E+01  0.98697959887E+01  0.51100000000E-03 0. -1.
        -11    1    3    3    0    0  0.13978708938E+02  0.33743207516E+02  0.81735885007E+00  0.36533223685E+02  0.51100000000E-03 0.  1.
         12    1    3    3    0    0 -0.18531452643E+02 -0.38658425625E+02  0.79673465604E+01  0.43604669705E+02  0.00000000000E+00 0. -1.
</event>
<event>
 7    1  0.2405891E-015  0.9000777E+02  0.7816164E-02  0.1186339E+00
        -11   -1    0    0    0    0  0.00000000000E+00  0.00000000000E+00  0.45593999997E+02  0.45594000000E+02  0.51100000000E-03 0. -1.
         11   -1    0    0    0    0 -0.00000000000E+00 -0.00000000000E+00 -0.45593999997E+02  0.45594000000E+02  0.51100000000E-03 0.  1.
    9900012    2    1    2    0    0 -0.10531680789E+01 -0.47641466220E+00 -0.23833400230E+00  0.90007772467E+02  0.90000034264E+02 0.  0.
        -12    1    1    2    0    0  0.10531680789E+01  0.47641466220E+00  0.23833400230E+00  0.11802275329E+01  0.00000000000E+00 0.  1.
         11    1    3    3    0    0 -0.32731969365E+02 -0.91611914402E+01  0.22440661404E+02  0.40729504437E+02  0.51100000000E-03 0. -1.
        -11    1    3    3    0    0 -0.48284225184E+01  0.32152257415E+01 -0.72088380986E+01  0.92530366679E+01  0.51100000000E-03 0.  1.
        -12    1    3    3    0    0  0.36507223805E+02  0.54695510365E+01 -0.15470157308E+02  0.40025231362E+02  0.00000000000E+00 0.  1.
</event>
<event>
 7    1  0.2405891E-015  0.9000767E+02  0.7816164E-02  0.1186339E+00
        -11   -1    0    0    0    0  0.00000000000E+00  0.00000000000E+00  0.45593999997E+02  0.45594000000E+02  0.51100000000E-03 0.  1.
         11   -1    0    0    0    0 -0.00000000000E+00 -0.00000000000E+00 -0.45593999997E+02  0.45594000000E+02  0.51100000000E-03 0. -1.
    9900012    2    1    2    0    0  0.73209204527E+00 -0.70903726888E+00 -0.59538572138E+00  0.90007670907E+02  0.89999931363E+02 0.  0.
        -12    1    1    2    0    0 -0.73209204527E+00  0.70903726888E+00  0.59538572138E+00  0.11803290934E+01  0.00000000000E+00 0.  1.
         11    1    3    3    0    0  0.37925042907E+02  0.12670110669E+01 -0.10414724526E+02  0.39349468659E+02  0.51100000000E-03 0. -1.
        -11    1    3    3    0    0  0.22008255541E+01  0.72761603697E+01  0.65957646372E+01  0.10064305950E+02  0.51100000000E-03 0.  1.
        -12    1    3    3    0    0 -0.39393776416E+02 -0.92522087055E+01  0.32235741675E+01  0.40593896298E+02  0.00000000000E+00 0.  1.
</event>
<event>
 7    1  0.2405891E-015  0.9000768E+02  0.7816164E-02  0.1186339E+00
        -11   -1    0    0    0    0  0.00000000000E+00  0.00000000000E+00  0.45593999997E+02  0.45594000000E+02  0.51100000000E-03 0.  1.
         11   -1    0    0    0    0 -0.00000000000E+00 -0.00000000000E+00 -0.45593999997E+02  0.45594000000E+02  0.51100000000E-03 0. -1.
    9900012    2    1    2    0    0  0.10739200272E+01  0.45688687215E+00 -0.17633426817E+00  0.90007684952E+02  0.89999945593E+02 0.  0.
        -12    1    1    2    0    0 -0.10739200272E+01 -0.45688687215E+00  0.17633426817E+00  0.11803150481E+01  0.00000000000E+00 0.  1.
         11    1    3    3    0    0  0.73040518305E+01  0.36104869870E+01 -0.36915503372E+02  0.37803957186E+02  0.51100000000E-03 0. -1.
        -11    1    3    3    0    0 -0.80051526990E+01 -0.22231536740E+01 -0.54699085081E+01  0.99470991420E+01  0.51100000000E-03 0.  1.
        -12    1    3    3    0    0  0.17750208957E+01 -0.93044644087E+00  0.42209077612E+02  0.42256628624E+02  0.00000000000E+00 0.  1.
</event>
<event>
 7    1  0.2405891E-015  0.9000771E+02  0.7816164E-02  0.1186339E+00
        -11   -1    0    0    0    0  0.00000000000E+00  0.00000000000E+00  0.45593999997E+02  0.45594000000E+02  0.51100000000E-03 0. -1.
         11   -1    0    0    0    0 -0.00000000000E+00 -0.00000000000E+00 -0.45593999997E+02  0.45594000000E+02  0.51100000000E-03 0.  1.
    9900012    2    1    2    0    0 -0.83443681650E+00  0.78020647308E-01  0.83108504428E+00  0.90007714283E+02  0.89999975312E+02 0.  0.
        -12    1    1    2    0    0  0.83443681650E+00 -0.78020647308E-01 -0.83108504428E+00  0.11802857167E+01  0.00000000000E+00 0.  1.
         11    1    3    3    0    0  0.15095162073E+02  0.14859034441E+02  0.30930560194E+02  0.37488056454E+02  0.51100000000E-03 0. -1.
        -11    1    3    3    0    0  0.80095507164E+01  0.21595796230E+01  0.25057134025E+01  0.86657536743E+01  0.51100000000E-03 0.  1.
        -12    1    3    3    0    0 -0.23939149606E+02 -0.16940593416E+02 -0.32605188552E+02  0.43853904155E+02  0.00000000000E+00 0.  1.
</event>
<event>
 7    1  0.2405891E-015  0.9000773E+02  0.7816164E-02  0.1186339E+00
        -11   -1    0    0    0    0  0.00000000000E+00  0.00000000000E+00  0.45593999997E+02  0.45594000000E+02  0.51100000000E-03 0. -1.
         11   -1    0    0    0    0 -0.00000000000E+00 -0.00000000000E+00 -0.45593999997E+02  0.45594000000E+02  0.51100000000E-03 0.  1.
    9900012    2    1    2    0    0 -0.37509539271E+00 -0.10280904544E+01 -0.44199471366E+00  0.90007734834E+02  0.89999996133E+02 0.  0.
        -12    1    1    2    0    0  0.37509539271E+00  0.10280904544E+01  0.44199471366E+00  0.11802651664E+01  0.00000000000E+00 0.  1.
         11    1    3    3    0    0 -0.14629437984E+02  0.38690525361E+02  0.60978679018E+01  0.41811017707E+02  0.51100000000E-03 0. -1.
        -11    1    3    3    0    0 -0.35684260958E+01 -0.94338859838E+01  0.49374886301E+01  0.11229900435E+02  0.51100000000E-03 0.  1.
        -12    1    3    3    0    0  0.17822768687E+02 -0.30284729832E+02 -0.11477351246E+02  0.36966816691E+02  0.00000000000E+00 0.  1.
</event>
<event>
 7    1  0.2405891E-015  0.9000751E+02  0.7816164E-02  0.1186339E+00
        -11   -1    0    0    0    0  0.00000000000E+00  0.00000000000E+00  0.45593999997E+02  0.45594000000E+02  0.51100000000E-03 0. -1.
         11   -1    0    0    0    0 -0.00000000000E+00 -0.00000000000E+00 -0.45593999997E+02  0.45594000000E+02  0.51100000000E-03 0.  1.
    9900012    2    1    2    0    0 -0.50554591234E+00  0.88839405074E+00  0.59053162299E+00  0.90007513551E+02  0.89999771929E+02 0.  0.
        -12    1    1    2    0    0  0.50554591234E+00 -0.88839405074E+00 -0.59053162299E+00  0.11804864491E+01  0.00000000000E+00 0.  1.
         11    1    3    3    0    0  0.27216624521E+02 -0.24046991695E+02 -0.97090792681E+00  0.36331049013E+02  0.51100000000E-03 0. -1.
        -11    1    3    3    0    0  0.84951353705E+01 -0.12888252630E+01  0.25109072970E+01  0.89517066103E+01  0.51100000000E-03 0.  1.
        -12    1    3    3    0    0 -0.36217305804E+02  0.26224211009E+02 -0.94946774716E+00  0.44724757928E+02  0.00000000000E+00 0.  1.
</event>
<event>
 7    1  0.2405891E-015  0.9000757E+02  0.7816164E-02  0.1186339E+00
        -11   -1    0    0    0    0  0.00000000000E+00  0.00000000000E+00  0.45593999997E+02  0.45594000000E+02  0.51100000000E-03 0. -1.
         11   -1    0    0    0    0 -0.00000000000E+00 -0.00000000000E+00 -0.45593999997E+02  0.45594000000E+02  0.51100000000E-03 0.  1.
    9900012    2    1    2    0    0  0.82250768216E+00 -0.55108989780E+00  0.64280412331E+00  0.90007569526E+02  0.89999828644E+02 0.  0.
        -12    1    1    2    0    0 -0.82250768216E+00  0.55108989780E+00 -0.64280412331E+00  0.11804304739E+01  0.00000000000E+00 0.  1.
         11    1    3    3    0    0  0.15879632138E+02 -0.18581162436E+02  0.30226848303E+02  0.38872672572E+02  0.51100000000E-03 0. -1.
        -11    1    3    3    0    0 -0.26413090070E+01  0.23772582447E+01  0.78979856635E+01  0.86606032026E+01  0.51100000000E-03 0.  1.
        -12    1    3    3    0    0 -0.12415815449E+02  0.15652814293E+02 -0.37482029843E+02  0.42474293752E+02  0.00000000000E+00 0.  1.
</event>
<event>
 7    1  0.2405891E-015  0.9000772E+02  0.7816164E-02  0.1186339E+00
        -11   -1    0    0    0    0  0.00000000000E+00  0.00000000000E+00  0.45593999997E+02  0.45594000000E+02  0.51100000000E-03 0.  1.
         11   -1    0    0    0    0 -0.00000000000E+00 -0.00000000000E+00 -0.45593999997E+02  0.45594000000E+02  0.51100000000E-03 0. -1.
    9900012    2    1    2    0    0 -0.22031515106E+00  0.59976210823E+00 -0.99237477326E+00  0.90007719930E+02  0.89999981033E+02 0.  0.
        -12    1    1    2    0    0  0.22031515106E+00 -0.59976210823E+00  0.99237477326E+00  0.11802800697E+01  0.00000000000E+00 0.  1.
         11    1    3    3    0    0  0.47239351272E+01 -0.22479876939E+02  0.27410640381E+02  0.35763160328E+02  0.51100000000E-03 0. -1.
        -11    1    3    3    0    0 -0.21131582981E+01 -0.20663337707E+01  0.87820671875E+01  0.92660605217E+01  0.51100000000E-03 0.  1.
        -12    1    3    3    0    0 -0.28310919801E+01  0.25145972818E+02 -0.37185082342E+02  0.44978499081E+02  0.00000000000E+00 0.  1.
</event>
<event>
 7    1  0.2405891E-015  0.9000758E+02  0.7816164E-02  0.1186339E+00
        -11   -1    0    0    0    0  0.00000000000E+00  0.00000000000E+00  0.45593999997E+02  0.45594000000E+02  0.51100000000E-03 0.  1.
         11   -1    0    0    0    0 -0.00000000000E+00 -0.00000000000E+00 -0.45593999997E+02  0.45594000000E+02  0.51100000000E-03 0. -1.
    9900012    2    1    2    0    0  0.18362357152E+00 -0.57822086476E-01 -0.11646171331E+01  0.90007578856E+02  0.89999838097E+02 0.  0.
        -12    1    1    2    0    0 -0.18362357152E+00  0.57822086476E-01  0.11646171331E+01  0.11804211436E+01  0.00000000000E+00 0.  1.
         11    1    3    3    0    0 -0.69373597303E+01  0.55712342811E+01 -0.81033064323E+01  0.12034499858E+02  0.51100000000E-03 0. -1.
        -11    1    3    3    0    0 -0.14409402419E+02  0.28001065039E+02 -0.12098960202E+02  0.33735372529E+02  0.51100000000E-03 0.  1.
         12    1    3    3    0    0  0.21530385721E+02 -0.33630121407E+02  0.19037649501E+02  0.44237706469E+02  0.00000000000E+00 0. -1.
</event>
<event>
 7    1  0.2405891E-015  0.9000772E+02  0.7816164E-02  0.1186339E+00
        -11   -1    0    0    0    0  0.00000000000E+00  0.00000000000E+00  0.45593999997E+02  0.45594000000E+02  0.51100000000E-03 0. -1.
         11   -1    0    0    0    0 -0.00000000000E+00 -0.00000000000E+00 -0.45593999997E+02  0.45594000000E+02  0.51100000000E-03 0.  1.
    9900012    2    1    2    0    0  0.85097635669E-01  0.25847923686E+00  0.11484817611E+01  0.90007718898E+02  0.89999979988E+02 0.  0.
        -12    1    1    2    0    0 -0.85097635669E-01 -0.25847923686E+00 -0.11484817611E+01  0.11802811017E+01  0.00000000000E+00 0.  1.
         11    1    3    3    0    0 -0.68989738664E+01 -0.18404582402E+02  0.18547259111E+01  0.19742454312E+02  0.51100000000E-03 0. -1.
        -11    1    3    3    0    0 -0.23986371750E+02 -0.10188538393E+02 -0.81147232945E+01  0.27294707889E+02  0.51100000000E-03 0.  1.
         12    1    3    3    0    0  0.30970443252E+02  0.28851600032E+02  0.74084791445E+01  0.42970556697E+02  0.00000000000E+00 0. -1.
</event>
<event>
 7    1  0.2405891E-015  0.9000774E+02  0.7816164E-02  0.1186339E+00
        -11   -1    0    0    0    0  0.00000000000E+00  0.00000000000E+00  0.45593999997E+02  0.45594000000E+02  0.51100000000E-03 0. -1.
         11   -1    0    0    0    0 -0.00000000000E+00 -0.00000000000E+00 -0.45593999997E+02  0.45594000000E+02  0.51100000000E-03 0.  1.
    9900012    2    1    2    0    0  0.95711827571E+00  0.52367005163E+00 -0.45023111775E+00  0.90007739954E+02  0.90000001321E+02 0.  0.
        -12    1    1    2    0    0 -0.95711827571E+00 -0.52367005163E+00  0.45023111775E+00  0.11802600460E+01  0.00000000000E+00 0.  1.
         11    1    3    3    0    0  0.44772939766E+01  0.85385944320E+01  0.31797922588E+01  0.10152085268E+02  0.51100000000E-03 0. -1.
        -11    1    3    3    0    0  0.36210035056E+02  0.34518897636E+01  0.72649529631E+01  0.37092610093E+02  0.51100000000E-03 0.  1.
         12    1    3    3    0    0 -0.39730210757E+02 -0.11466814144E+02 -0.10894976340E+02  0.42763044593E+02  0.00000000000E+00 0. -1.
</event>
<event>
 7    1  0.2405891E-015  0.9000789E+02  0.7816164E-02  0.1186339E+00
        -11   -1    0    0    0    0  0.00000000000E+00  0.00000000000E+00  0.45593999997E+02  0.45594000000E+02  0.51100000000E-03 0. -1.
         11   -1    0    0    0    0 -0.00000000000E+00 -0.00000000000E+00 -0.45593999997E+02  0.45594000000E+02  0.51100000000E-03 0.  1.
    9900012    2    1    2    0    0  0.11404178220E+01 -0.27804510501E+00  0.12167363097E+00  0.90007887140E+02  0.90000150450E+02 0.  0.
        -12    1    1    2    0    0 -0.11404178220E+01  0.27804510501E+00 -0.12167363097E+00  0.11801128597E+01  0.00000000000E+00 0.  1.
         11    1    3    3    0    0 -0.20099661757E+02  0.32654864376E+02 -0.96469891242E+01  0.39539865573E+02  0.51100000000E-03 0. -1.
        -11    1    3    3    0    0  0.67059245764E+01  0.41825993938E+01 -0.32362962306E+01  0.85403264379E+01  0.51100000000E-03 0.  1.
        -12    1    3    3    0    0  0.14534155002E+02 -0.37115508874E+02  0.13004958986E+02  0.41927695129E+02  0.00000000000E+00 0.  1.
</event>
<event>
 7    1  0.2405891E-015  0.9000772E+02  0.7816164E-02  0.1186339E+00
        -11   -1    0    0    0    0  0.00000000000E+00  0.00000000000E+00  0.45593999997E+02  0.45594000000E+02  0.51100000000E-03 0. -1.
         11   -1    0    0    0    0 -0.00000000000E+00 -0.00000000000E+00 -0.45593999997E+02  0.45594000000E+02  0.51100000000E-03 0.  1.
    9900012    2    1    2    0    0  0.11002048162E+01  0.23236266345E+00 -0.35863637805E+00  0.90007719060E+02  0.89999980152E+02 0.  0.
        -12    1    1    2    0    0 -0.11002048162E+01 -0.23236266345E+00  0.35863637805E+00  0.11802809397E+01  0.00000000000E+00 0.  1.
         11    1    3    3    0    0 -0.10536276817E+02 -0.31536914411E+01  0.11231370475E+02  0.15719496871E+02  0.51100000000E-03 0. -1.
        -11    1    3    3    0    0 -0.18365277635E+01 -0.79728914660E+01 -0.40015520473E+02  0.40843380266E+02  0.51100000000E-03 0.  1.
         12    1    3    3    0    0  0.13473009397E+02  0.11358945571E+02  0.28425513620E+02  0.33444841923E+02  0.00000000000E+00 0. -1.
</event>
<event>
 7    1  0.2405891E-015  0.9000774E+02  0.7816164E-02  0.1186339E+00
        -11   -1    0    0    0    0  0.00000000000E+00  0.00000000000E+00  0.45593999997E+02  0.45594000000E+02  0.51100000000E-03 0.  1.
         11   -1    0    0    0    0 -0.00000000000E+00 -0.00000000000E+00 -0.45593999997E+02  0.45594000000E+02  0.51100000000E-03 0. -1.
    9900012    2    1    2    0    0 -0.55978367696E+00  0.39802013283E+00 -0.95980419187E+00  0.90007744995E+02  0.90000006428E+02 0.  0.
        -12    1    1    2    0    0  0.55978367696E+00 -0.39802013283E+00  0.95980419187E+00  0.11802550054E+01  0.00000000000E+00 0.  1.
         11    1    3    3    0    0 -0.93686467566E+01 -0.61253729581E+01 -0.34995957910E+02  0.36742465979E+02  0.51100000000E-03 0. -1.
        -11    1    3    3    0    0 -0.52982874064E+01 -0.11701557962E+02  0.86584452673E+00  0.12874315329E+02  0.51100000000E-03 0.  1.
        -12    1    3    3    0    0  0.14107150486E+02  0.18224951053E+02  0.33170309191E+02  0.40390963687E+02  0.00000000000E+00 0.  1.
</event>
<event>
 7    1  0.2405891E-015  0.9000772E+02  0.7816164E-02  0.1186339E+00
        -11   -1    0    0    0    0  0.00000000000E+00  0.00000000000E+00  0.45593999997E+02  0.45594000000E+02  0.51100000000E-03 0.  1.
         11   -1    0    0    0    0 -0.00000000000E+00 -0.00000000000E+00 -0.45593999997E+02  0.45594000000E+02  0.51100000000E-03 0. -1.
    9900012    2    1    2    0    0 -0.56873277941E-01  0.10611211257E+01 -0.51367156996E+00  0.90007715672E+02  0.89999976719E+02 0.  0.
        -12    1    1    2    0    0  0.56873277941E-01 -0.10611211257E+01  0.51367156996E+00  0.11802843280E+01  0.00000000000E+00 0.  1.
         11    1    3    3    0    0 -0.87624954859E+01  0.20389640224E+01  0.63398973262E+01  0.11006043785E+02  0.51100000000E-03 0. -1.
        -11    1    3    3    0    0 -0.58161303842E+01 -0.19138491131E+02  0.29622988303E+02  0.35743959653E+02  0.51100000000E-03 0.  1.
         12    1    3    3    0    0  0.14521752592E+02  0.18160648234E+02 -0.36476557199E+02  0.43257712234E+02  0.00000000000E+00 0. -1.
</event>
<event>
 7    1  0.2683633E-015  0.9000777E+02  0.7816164E-02  0.1186339E+00
        -11   -1    0    0    0    0  0.00000000000E+00  0.00000000000E+00  0.45593999997E+02  0.45594000000E+02  0.51100000000E-03 0. -1.
         11   -1    0    0    0    0 -0.00000000000E+00 -0.00000000000E+00 -0.45593999997E+02  0.45594000000E+02  0.51100000000E-03 0.  1.
    9900012    2    1    2    0    0  0.67697902816E-01 -0.10929742215E+01  0.44018417638E+00  0.90007772156E+02  0.90000033948E+02 0.  0.
        -12    1    1    2    0    0 -0.67697902816E-01  0.10929742215E+01 -0.44018417638E+00  0.11802278441E+01  0.00000000000E+00 0.  1.
         11    1    3    3    0    0  0.58394283696E+01  0.19275611445E+01 -0.72429302760E+01  0.95012870125E+01  0.51100000000E-03 0. -1.
        -11    1    3    3    0    0 -0.14136176666E+02 -0.30930290141E+02 -0.20715260083E+02  0.39820049467E+02  0.51100000000E-03 0.  1.
         12    1    3    3    0    0  0.83644461994E+01  0.27909754775E+02  0.28398374535E+02  0.40686435677E+02  0.00000000000E+00 0. -1.
</event>
<event>
 7    1  0.2405891E-015  0.9000772E+02  0.7816164E-02  0.1186339E+00
        -11   -1    0    0    0    0  0.00000000000E+00  0.00000000000E+00  0.45593999997E+02  0.45594000000E+02  0.51100000000E-03 0.  1.
         11   -1    0    0    0    0 -0.00000000000E+00 -0.00000000000E+00 -0.45593999997E+02  0.45594000000E+02  0.51100000000E-03 0. -1.
    9900012    2    1    2    0    0 -0.86375621110E+00  0.80235004383E+00  0.56760904264E-01  0.90007719446E+02  0.89999980543E+02 0.  0.
        -12    1    1    2    0    0  0.86375621110E+00 -0.80235004383E+00 -0.56760904264E-01  0.11802805536E+01  0.00000000000E+00 0.  1.
         11    1    3    3    0    0  0.79172187471E+01 -0.29864062093E+01  0.37662102658E+01  0.92620362104E+01  0.51100000000E-03 0. -1.
        -11    1    3    3    0    0  0.20795899810E+02  0.88498403877E+01  0.28731282555E+02  0.36555105270E+02  0.51100000000E-03 0.  1.
         12    1    3    3    0    0 -0.29576874768E+02 -0.50610841346E+01 -0.32440731917E+02  0.44190577966E+02  0.00000000000E+00 0. -1.
</event>
<event>
 7    1  0.3424744E-015  0.9000778E+02  0.7816164E-02  0.1186339E+00
        -11   -1    0    0    0    0  0.00000000000E+00  0.00000000000E+00  0.45593999997E+02  0.45594000000E+02  0.51100000000E-03 0. -1.
         11   -1    0    0    0    0 -0.00000000000E+00 -0.00000000000E+00 -0.45593999997E+02  0.45594000000E+02  0.51100000000E-03 0.  1.
    9900012    2    1    2    0    0 -0.50070700630E+00  0.26950596814E+00  0.10342053912E+01  0.90007778934E+02  0.90000040816E+02 0.  0.
        -12    1    1    2    0    0  0.50070700630E+00 -0.26950596814E+00 -0.10342053912E+01  0.11802210658E+01  0.00000000000E+00 0.  1.
         11    1    3    3    0    0 -0.57138988119E+01 -0.54047939902E+01  0.45698796927E+01  0.90963860063E+01  0.51100000000E-03 0. -1.
        -11    1    3    3    0    0 -0.26991057629E+02 -0.52035402761E+00 -0.28829283963E+02  0.39495766537E+02  0.51100000000E-03 0.  1.
         12    1    3    3    0    0  0.32204249435E+02  0.61946539859E+01  0.25293609662E+02  0.41415626391E+02  0.00000000000E+00 0. -1.
</event>
<event>
 7    1  0.2629365E-015  0.9000788E+02  0.7816164E-02  0.1186339E+00
        -11   -1    0    0    0    0  0.00000000000E+00  0.00000000000E+00  0.45593999997E+02  0.45594000000E+02  0.51100000000E-03 0.  1.
         11   -1    0    0    0    0 -0.00000000000E+00 -0.00000000000E+00 -0.45593999997E+02  0.45594000000E+02  0.51100000000E-03 0. -1.
    9900012    2    1    2    0    0  0.78291006340E+00  0.83075849631E+00 -0.29931062629E+00  0.90007875135E+02  0.90000138286E+02 0.  0.
        -12    1    1    2    0    0 -0.78291006340E+00 -0.83075849631E+00  0.29931062629E+00  0.11801248652E+01  0.00000000000E+00 0.  1.
         11    1    3    3    0    0  0.29053229202E+01  0.97804760582E+00  0.93332715868E+01  0.98238198865E+01  0.51100000000E-03 0. -1.
        -11    1    3    3    0    0  0.20032213748E+02 -0.33738472159E+02 -0.24945029375E+01  0.39316620359E+02  0.51100000000E-03 0.  1.
         12    1    3    3    0    0 -0.22154626605E+02  0.33591183050E+02 -0.71380792755E+01  0.40867434889E+02  0.00000000000E+00 0. -1.
</event>
<event>
 7    1  0.2405891E-015  0.9000782E+02  0.7816164E-02  0.1186339E+00
        -11   -1    0    0    0    0  0.00000000000E+00  0.00000000000E+00  0.45593999997E+02  0.45594000000E+02  0.51100000000E-03 0. -1.
         11   -1    0    0    0    0 -0.00000000000E+00 -0.00000000000E+00 -0.45593999997E+02  0.45594000000E+02  0.51100000000E-03 0.  1.
    9900012    2    1    2    0    0  0.10568532626E+01 -0.42377911808E+00  0.31033287326E+00  0.90007816094E+02  0.90000078466E+02 0.  0.
        -12    1    1    2    0    0 -0.10568532626E+01  0.42377911808E+00 -0.31033287326E+00  0.11801839059E+01  0.00000000000E+00 0.  1.
         11    1    3    3    0    0  0.60201525100E+01  0.22593643289E+00  0.86092691140E+01  0.10507749448E+02  0.51100000000E-03 0. -1.
        -11    1    3    3    0    0 -0.36691698686E+02 -0.18699946794E+02 -0.11772358206E+02  0.42831731001E+02  0.51100000000E-03 0.  1.
         12    1    3    3    0    0  0.31728399438E+02  0.18050231243E+02  0.34734219655E+01  0.36668335645E+02  0.00000000000E+00 0. -1.
</event>
<event>
 7    1  0.2405891E-015  0.9000763E+02  0.7816164E-02  0.1186339E+00
        -11   -1    0    0    0    0  0.00000000000E+00  0.00000000000E+00  0.45593999997E+02  0.45594000000E+02  0.51100000000E-03 0.  1.
         11   -1    0    0    0    0 -0.00000000000E+00 -0.00000000000E+00 -0.45593999997E+02  0.45594000000E+02  0.51100000000E-03 0. -1.
    9900012    2    1    2    0    0  0.48051770177E+00 -0.10658073624E+01 -0.16259382854E+00  0.90007627454E+02  0.89999887336E+02 0.  0.
        -12    1    1    2    0    0 -0.48051770177E+00  0.10658073624E+01  0.16259382854E+00  0.11803725465E+01  0.00000000000E+00 0.  1.
         11    1    3    3    0    0 -0.55754395971E+01 -0.15844890175E+02 -0.19425799233E+02  0.25680882919E+02  0.51100000000E-03 0. -1.
        -11    1    3    3    0    0 -0.13957433640E+02  0.45111002219E+01 -0.16500267699E+02  0.22077563575E+02  0.51100000000E-03 0.  1.
        -12    1    3    3    0    0  0.20013390939E+02  0.10267982591E+02  0.35763473103E+02  0.42249180960E+02  0.00000000000E+00 0.  1.
</event>
<event>
 7    1  0.2405891E-015  0.9000772E+02  0.7816164E-02  0.1186339E+00
        -11   -1    0    0    0    0  0.00000000000E+00  0.00000000000E+00  0.45593999997E+02  0.45594000000E+02  0.51100000000E-03 0.  1.
         11   -1    0    0    0    0 -0.00000000000E+00 -0.00000000000E+00 -0.45593999997E+02  0.45594000000E+02  0.51100000000E-03 0. -1.
    9900012    2    1    2    0    0 -0.11267003839E+01  0.30324159553E+00  0.17788755804E+00  0.90007723251E+02  0.89999984398E+02 0.  0.
        -12    1    1    2    0    0  0.11267003839E+01 -0.30324159553E+00 -0.17788755804E+00  0.11802767488E+01  0.00000000000E+00 0.  1.
         11    1    3    3    0    0 -0.97251979063E+01  0.25467196123E+02 -0.26313632058E+02  0.37888847766E+02  0.51100000000E-03 0. -1.
        -11    1    3    3    0    0  0.41677731348E+01  0.75893373442E+01 -0.15237230599E+01  0.87914791959E+01  0.51100000000E-03 0.  1.
        -12    1    3    3    0    0  0.44307243876E+01 -0.32753291872E+02  0.28015242676E+02  0.43327396289E+02  0.00000000000E+00 0.  1.
</event>
<event>
 7    1  0.2405891E-015  0.9000775E+02  0.7816164E-02  0.1186339E+00
        -11   -1    0    0    0    0  0.00000000000E+00  0.00000000000E+00  0.45593999997E+02  0.45594000000E+02  0.51100000000E-03 0.  1.
         11   -1    0    0    0    0 -0.00000000000E+00 -0.00000000000E+00 -0.45593999997E+02  0.45594000000E+02  0.51100000000E-03 0. -1.
    9900012    2    1    2    0    0  0.33359998532E+00  0.73908826786E+00 -0.85758608332E+00  0.90007748201E+02  0.90000009678E+02 0.  0.
        -12    1    1    2    0    0 -0.33359998532E+00 -0.73908826786E+00  0.85758608332E+00  0.11802517986E+01  0.00000000000E+00 0.  1.
         11    1    3    3    0    0  0.21496686845E+00  0.79595037420E+01  0.46531856942E+01  0.92223667211E+01  0.51100000000E-03 0. -1.
        -11    1    3    3    0    0 -0.17253272759E+02  0.32297873467E+02  0.31661520574E+01  0.36753946325E+02  0.51100000000E-03 0.  1.
         12    1    3    3    0    0  0.17371905876E+02 -0.39518288941E+02 -0.86769238349E+01  0.44031435155E+02  0.00000000000E+00 0. -1.
</event>
<event>
 7    1  0.2405891E-015  0.9000764E+02  0.7816164E-02  0.1186339E+00
        -11   -1    0    0    0    0  0.00000000000E+00  0.00000000000E+00  0.45593999997E+02  0.45594000000E+02  0.51100000000E-03 0.  1.
         11   -1    0    0    0    0 -0.00000000000E+00 -0.00000000000E+00 -0.45593999997E+02  0.45594000000E+02  0.51100000000E-03 0. -1.
    9900012    2    1    2    0    0  0.81425506989E+00 -0.80182583698E+00 -0.29548248582E+00  0.90007641626E+02  0.89999901695E+02 0.  0.
        -12    1    1    2    0    0 -0.81425506989E+00  0.80182583698E+00  0.29548248582E+00  0.11803583740E+01  0.00000000000E+00 0.  1.
         11    1    3    3    0    0 -0.52387615895E+01  0.25530851345E+01  0.75104198367E+01  0.95062754578E+01  0.51100000000E-03 0. -1.
        -11    1    3    3    0    0  0.24652397203E+02  0.25892171711E+02  0.15255690903E+02  0.38870057228E+02  0.51100000000E-03 0.  1.
         12    1    3    3    0    0 -0.18599380543E+02 -0.29247082682E+02 -0.23061593225E+02  0.41631308940E+02  0.00000000000E+00 0. -1.
</event>
<event>
 7    1  0.2405891E-015  0.9000746E+02  0.7816164E-02  0.1186340E+00
        -11   -1    0    0    0    0  0.00000000000E+00  0.00000000000E+00  0.45593999997E+02  0.45594000000E+02  0.51100000000E-03 0. -1.
         11   -1    0    0    0    0 -0.00000000000E+00 -0.00000000000E+00 -0.45593999997E+02  0.45594000000E+02  0.51100000000E-03 0.  1.
    9900012    2    1    2    0    0 -0.91062348806E+00 -0.74456197734E+00  0.10037308254E+00  0.90007456722E+02  0.89999714350E+02 0.  0.
        -12    1    1    2    0    0  0.91062348806E+00  0.74456197734E+00 -0.10037308254E+00  0.11805432778E+01  0.00000000000E+00 0.  1.
         11    1    3    3    0    0  0.91606317784E+01 -0.21570898999E+01 -0.13496474096E+01  0.95074581149E+01  0.51100000000E-03 0. -1.
        -11    1    3    3    0    0  0.19745823944E+01  0.36080927372E+02 -0.16406531227E+02  0.39685092450E+02  0.51100000000E-03 0.  1.
         12    1    3    3    0    0 -0.12045837661E+02 -0.34668399449E+02  0.17856551719E+02  0.40814906157E+02  0.00000000000E+00 0. -1.
</event>
<event>
 7    1  0.3191962E-015  0.9000767E+02  0.7816164E-02  0.1186339E+00
        -11   -1    0    0    0    0  0.00000000000E+00  0.00000000000E+00  0.45593999997E+02  0.45594000000E+02  0.51100000000E-03 0. -1.
         11   -1    0    0    0    0 -0.00000000000E+00 -0.00000000000E+00 -0.45593999997E+02  0.45594000000E+02  0.51100000000E-03 0.  1.
    9900012    2    1    2    0    0 -0.43391982271E+00 -0.86361043044E+00  0.67754404713E+00  0.90007671519E+02  0.89999931983E+02 0.  0.
        -12    1    1    2    0    0  0.43391982271E+00  0.86361043044E+00 -0.67754404713E+00  0.11803284814E+01  0.00000000000E+00 0.  1.
         11    1    3    3    0    0 -0.95643413063E+01 -0.98876935935E+00 -0.41318130908E+01  0.10465475104E+02  0.51100000000E-03 0. -1.
        -11    1    3    3    0    0  0.59849520088E+01  0.10169412086E+02 -0.35746031187E+02  0.37643264186E+02  0.51100000000E-03 0.  1.
         12    1    3    3    0    0  0.31454694748E+01 -0.10044253157E+02  0.40555388325E+02  0.41898932228E+02  0.00000000000E+00 0. -1.
</event>
<event>
 7    1  0.2405891E-015  0.9000770E+02  0.7816164E-02  0.1186339E+00
        -11   -1    0    0    0    0  0.00000000000E+00  0.00000000000E+00  0.45593999997E+02  0.45594000000E+02  0.51100000000E-03 0. -1.
         11   -1    0    0    0    0 -0.00000000000E+00 -0.00000000000E+00 -0.45593999997E+02  0.45594000000E+02  0.51100000000E-03 0.  1.
    9900012    2    1    2    0    0 -0.83662837729E+00 -0.49776502660E+00  0.66736803645E+00  0.90007704630E+02  0.89999965532E+02 0.  0.
        -12    1    1    2    0    0  0.83662837729E+00  0.49776502660E+00 -0.66736803645E+00  0.11802953696E+01  0.00000000000E+00 0.  1.
         11    1    3    3    0    0  0.71043691746E+01  0.76149104046E+00 -0.45193183296E+01  0.84543579531E+01  0.51100000000E-03 0. -1.
        -11    1    3    3    0    0  0.32360229721E+02  0.53546254842E+01 -0.14917206738E+02  0.36033033994E+02  0.51100000000E-03 0.  1.
         12    1    3    3    0    0 -0.40301227273E+02 -0.66138815512E+01  0.20103893104E+02  0.45520312684E+02  0.00000000000E+00 0. -1.
</event>
<event>
 7    1  0.2405891E-015  0.9000709E+02  0.7816164E-02  0.1186340E+00
        -11   -1    0    0    0    0  0.00000000000E+00  0.00000000000E+00  0.45593999997E+02  0.45594000000E+02  0.51100000000E-03 0. -1.
         11   -1    0    0    0    0 -0.00000000000E+00 -0.00000000000E+00 -0.45593999997E+02  0.45594000000E+02  0.51100000000E-03 0.  1.
    9900012    2    1    2    0    0 -0.13882521822E+00 -0.85240361465E+00  0.80541487640E+00  0.90007086165E+02  0.89999338900E+02 0.  0.
        -12    1    1    2    0    0  0.13882521822E+00  0.85240361465E+00 -0.80541487640E+00  0.11809138354E+01  0.00000000000E+00 0.  1.
         11    1    3    3    0    0 -0.11170235002E+01 -0.25819958195E+00 -0.98830489514E+01  0.99493248696E+01  0.51100000000E-03 0. -1.
        -11    1    3    3    0    0 -0.36789593166E+02 -0.13829496918E+02  0.61549656382E+01  0.39782065715E+02  0.51100000000E-03 0.  1.
         12    1    3    3    0    0  0.37767791448E+02  0.13235292885E+02  0.45334981896E+01  0.40275695580E+02  0.00000000000E+00 0. -1.
</event>
<event>
 7    1  0.2405891E-015  0.9000849E+02  0.7816164E-02  0.1186338E+00
        -11   -1    0    0    0    0  0.00000000000E+00  0.00000000000E+00  0.45593999997E+02  0.45594000000E+02  0.51100000000E-03 0.  1.
         11   -1    0    0    0    0 -0.00000000000E+00 -0.00000000000E+00 -0.45593999997E+02  0.45594000000E+02  0.51100000000E-03 0. -1.
    9900012    2    1    2    0    0  0.57084628935E+00  0.82383775926E+00 -0.62183362886E+00  0.90008486879E+02  0.90000758103E+02 0.  0.
        -12    1    1    2    0    0 -0.57084628935E+00 -0.82383775926E+00  0.62183362886E+00  0.11795131206E+01  0.00000000000E+00 0.  1.
         11    1    3    3    0    0 -0.20341209265E+02 -0.14890322098E+02 -0.26087509451E+02  0.36277329507E+02  0.51100000000E-03 0. -1.
        -11    1    3    3    0    0  0.50168347969E+00 -0.25318673279E+01 -0.92019718124E+01  0.95571085574E+01  0.51100000000E-03 0.  1.
        -12    1    3    3    0    0  0.20410372075E+02  0.18246027185E+02  0.34667647634E+02  0.44174048815E+02  0.00000000000E+00 0.  1.
</event>
<event>
 7    1  0.2405891E-015  0.9000784E+02  0.7816164E-02  0.1186339E+00
        -11   -1    0    0    0    0  0.00000000000E+00  0.00000000000E+00  0.45593999997E+02  0.45594000000E+02  0.51100000000E-03 0.  1.
         11   -1    0    0    0    0 -0.00000000000E+00 -0.00000000000E+00 -0.45593999997E+02  0.45594000000E+02  0.51100000000E-03 0. -1.
    9900012    2    1    2    0    0 -0.30952470827E+00  0.83917690302E+00  0.76990819688E+00  0.90007838125E+02  0.90000100788E+02 0.  0.
        -12    1    1    2    0    0  0.30952470827E+00 -0.83917690302E+00 -0.76990819688E+00  0.11801618750E+01  0.00000000000E+00 0.  1.
         11    1    3    3    0    0  0.11176267717E+02 -0.24309272026E+02 -0.30218239265E+02  0.40360768713E+02  0.51100000000E-03 0. -1.
        -11    1    3    3    0    0 -0.49822218004E+00 -0.57028024937E+01  0.70505555673E+01  0.90818784230E+01  0.51100000000E-03 0.  1.
        -12    1    3    3    0    0 -0.10987570245E+02  0.30851251423E+02  0.23937591895E+02  0.40565190989E+02  0.00000000000E+00 0.  1.
</event>
<event>
 7    1  0.2405891E-015  0.9000777E+02  0.7816164E-02  0.1186339E+00
        -11   -1    0    0    0    0  0.00000000000E+00  0.00000000000E+00  0.45593999997E+02  0.45594000000E+02  0.51100000000E-03 0.  1.
         11   -1    0    0    0    0 -0.00000000000E+00 -0.00000000000E+00 -0.45593999997E+02  0.45594000000E+02  0.51100000000E-03 0. -1.
    9900012    2    1    2    0    0 -0.35929894436E+00 -0.10004560510E+01 -0.51276754987E+00  0.90007771801E+02  0.90000033589E+02 0.  0.
        -12    1    1    2    0    0  0.35929894436E+00  0.10004560510E+01  0.51276754987E+00  0.11802281989E+01  0.00000000000E+00 0.  1.
         11    1    3    3    0    0 -0.72144843448E+01 -0.17228425046E+01 -0.67318117893E+01  0.10016699101E+02  0.51100000000E-03 0. -1.
        -11    1    3    3    0    0 -0.32513134569E+02  0.14017982051E+02 -0.75767791117E+01  0.36207945568E+02  0.51100000000E-03 0.  1.
         12    1    3    3    0    0  0.39368319970E+02 -0.13295595597E+02  0.13795823351E+02  0.43783127132E+02  0.00000000000E+00 0. -1.
</event>
<event>
 7    1  0.2405891E-015  0.9000782E+02  0.7816164E-02  0.1186339E+00
        -11   -1    0    0    0    0  0.00000000000E+00  0.00000000000E+00  0.45593999997E+02  0.45594000000E+02  0.51100000000E-03 0. -1.
         11   -1    0    0    0    0 -0.00000000000E+00 -0.00000000000E+00 -0.45593999997E+02  0.45594000000E+02  0.51100000000E-03 0.  1.
    9900012    2    1    2    0    0  0.86649064254E+00 -0.74020780981E+00  0.30675914936E+00  0.90007824246E+02  0.90000086726E+02 0.  0.
        -12    1    1    2    0    0 -0.86649064254E+00  0.74020780981E+00 -0.30675914936E+00  0.11801757543E+01  0.00000000000E+00 0.  1.
         11    1    3    3    0    0  0.59224994995E+01 -0.38216215303E+01 -0.57862533563E+01  0.91192938107E+01  0.51100000000E-03 0. -1.
        -11    1    3    3    0    0  0.24196841369E+02 -0.27577549408E+02  0.10819351939E+02  0.38250055428E+02  0.51100000000E-03 0.  1.
         12    1    3    3    0    0 -0.29252850226E+02  0.30658963129E+02 -0.47263394332E+01  0.42638475007E+02  0.00000000000E+00 0. -1.
</event>
<event>
 7    1  0.2405891E-015  0.9000769E+02  0.7816164E-02  0.1186339E+00
        -11   -1    0    0    0    0  0.00000000000E+00  0.00000000000E+00  0.45593999997E+02  0.45594000000E+02  0.51100000000E-03 0.  1.
         11   -1    0    0    0    0 -0.00000000000E+00 -0.00000000000E+00 -0.45593999997E+02  0.45594000000E+02  0.51100000000E-03 0. -1.
    9900012    2    1    2    0    0 -0.20453214581E-01  0.68144519882E+00 -0.96351039287E+00  0.90007687257E+02  0.89999947929E+02 0.  0.
        -12    1    1    2    0    0  0.20453214581E-01 -0.68144519882E+00  0.96351039287E+00  0.11803127425E+01  0.00000000000E+00 0.  1.
         11    1    3    3    0    0  0.75907865498E+01 -0.21676179755E+01  0.65690493556E+01  0.10269908365E+02  0.51100000000E-03 0. -1.
        -11    1    3    3    0    0 -0.16001473232E+02 -0.19942420238E+01  0.33712341895E+02  0.37370391263E+02  0.51100000000E-03 0.  1.
         12    1    3    3    0    0  0.83902334674E+01  0.48433051981E+01 -0.41244901644E+02  0.42367387629E+02  0.00000000000E+00 0. -1.
</event>
<event>
 7    1  0.2405891E-015  0.9000771E+02  0.7816164E-02  0.1186339E+00
        -11   -1    0    0    0    0  0.00000000000E+00  0.00000000000E+00  0.45593999997E+02  0.45594000000E+02  0.51100000000E-03 0.  1.
         11   -1    0    0    0    0 -0.00000000000E+00 -0.00000000000E+00 -0.45593999997E+02  0.45594000000E+02  0.51100000000E-03 0. -1.
    9900012    2    1    2    0    0 -0.74269352259E-01  0.54265280489E+00 -0.10455100549E+01  0.90007712205E+02  0.89999973206E+02 0.  0.
        -12    1    1    2    0    0  0.74269352259E-01 -0.54265280489E+00  0.10455100549E+01  0.11802877947E+01  0.00000000000E+00 0.  1.
         11    1    3    3    0    0 -0.62148289843E+01  0.36412237029E+02 -0.24002600163E+01  0.37016703704E+02  0.51100000000E-03 0. -1.
        -11    1    3    3    0    0  0.86356126176E+01  0.57202376767E+01  0.43155161647E+01  0.11221345926E+02  0.51100000000E-03 0.  1.
        -12    1    3    3    0    0 -0.24950529856E+01 -0.41589821901E+02 -0.29607662033E+01  0.41769662575E+02  0.00000000000E+00 0.  1.
</event>
<event>
 7    1  0.2405891E-015  0.9000711E+02  0.7816164E-02  0.1186340E+00
        -11   -1    0    0    0    0  0.00000000000E+00  0.00000000000E+00  0.45593999997E+02  0.45594000000E+02  0.51100000000E-03 0. -1.
         11   -1    0    0    0    0 -0.00000000000E+00 -0.00000000000E+00 -0.45593999997E+02  0.45594000000E+02  0.51100000000E-03 0.  1.
    9900012    2    1    2    0    0  0.62745708286E+00 -0.55211337080E+00 -0.83424656224E+00  0.90007110974E+02  0.89999364037E+02 0.  0.
        -12    1    1    2    0    0 -0.62745708286E+00  0.55211337080E+00  0.83424656224E+00  0.11808890260E+01  0.00000000000E+00 0.  1.
         11    1    3    3    0    0  0.27094674467E+01 -0.46019038357E+01 -0.68664466287E+01  0.86986678477E+01  0.51100000000E-03 0. -1.
        -11    1    3    3    0    0 -0.92859611551E+01 -0.28839934893E+02 -0.22044119144E+02  0.37468841833E+02  0.51100000000E-03 0.  1.
         12    1    3    3    0    0  0.72039507912E+01  0.32889725358E+02  0.28076319211E+02  0.43839601293E+02  0.00000000000E+00 0. -1.
</event>
<event>
 7    1  0.2405891E-015  0.9000775E+02  0.7816164E-02  0.1186339E+00
        -11   -1    0    0    0    0  0.00000000000E+00  0.00000000000E+00  0.45593999997E+02  0.45594000000E+02  0.51100000000E-03 0.  1.
         11   -1    0    0    0    0 -0.00000000000E+00 -0.00000000000E+00 -0.45593999997E+02  0.45594000000E+02  0.51100000000E-03 0. -1.
    9900012    2    1    2    0    0  0.83280624171E+00 -0.61581675384E+00 -0.56585775124E+00  0.90007749389E+02  0.90000010881E+02 0.  0.
        -12    1    1    2    0    0 -0.83280624171E+00  0.61581675384E+00  0.56585775124E+00  0.11802506112E+01  0.00000000000E+00 0.  1.
         11    1    3    3    0    0 -0.15235130623E+02  0.34880393077E+02 -0.33122759278E+01  0.38206310976E+02  0.51100000000E-03 0. -1.
        -11    1    3    3    0    0 -0.19435582398E+01  0.18000794607E+01 -0.84841587192E+01  0.88881187059E+01  0.51100000000E-03 0.  1.
        -12    1    3    3    0    0  0.18011495105E+02 -0.37296289292E+02  0.11230576896E+02  0.42913319707E+02  0.00000000000E+00 0.  1.
</event>
<event>
 7    1  0.2405891E-015  0.9000752E+02  0.7816164E-02  0.1186339E+00
        -11   -1    0    0    0    0  0.00000000000E+00  0.00000000000E+00  0.45593999997E+02  0.45594000000E+02  0.51100000000E-03 0.  1.
         11   -1    0    0    0    0 -0.00000000000E+00 -0.00000000000E+00 -0.45593999997E+02  0.45594000000E+02  0.51100000000E-03 0. -1.
    9900012    2    1    2    0    0  0.11216139180E+01 -0.34089406192E+00 -0.13896360997E+00  0.90007518138E+02  0.89999776577E+02 0.  0.
        -12    1    1    2    0    0 -0.11216139180E+01  0.34089406192E+00  0.13896360997E+00  0.11804818624E+01  0.00000000000E+00 0.  1.
         11    1    3    3    0    0  0.18409042489E+01  0.82627501535E+01 -0.82641295130E+00  0.85055821188E+01  0.51100000000E-03 0. -1.
        -11    1    3    3    0    0  0.38375975971E+02 -0.16033785307E+02 -0.17946893753E+01  0.41629541352E+02  0.51100000000E-03 0.  1.
         12    1    3    3    0    0 -0.39095266302E+02  0.74301410918E+01  0.24821387167E+01  0.39872394667E+02  0.00000000000E+00 0. -1.
</event>
<event>
 7    1  0.2405891E-015  0.9000771E+02  0.7816164E-02  0.1186339E+00
        -11   -1    0    0    0    0  0.00000000000E+00  0.00000000000E+00  0.45593999997E+02  0.45594000000E+02  0.51100000000E-03 0.  1.
         11   -1    0    0    0    0 -0.00000000000E+00 -0.00000000000E+00 -0.45593999997E+02  0.45594000000E+02  0.51100000000E-03 0. -1.
    9900012    2    1    2    0    0 -0.10884060257E+01  0.34366093894E+00  0.30060381443E+00  0.90007706320E+02  0.89999967243E+02 0.  0.
        -12    1    1    2    0    0  0.10884060257E+01 -0.34366093894E+00 -0.30060381443E+00  0.11802936799E+01  0.00000000000E+00 0.  1.
         11    1    3    3    0    0  0.17070671688E+02 -0.29207625290E+02  0.17698346474E+02  0.38180160754E+02  0.51100000000E-03 0. -1.
        -11    1    3    3    0    0  0.70468704613E+01 -0.22873064328E+01 -0.63126279983E+01  0.97334180287E+01  0.51100000000E-03 0.  1.
        -12    1    3    3    0    0 -0.25205948175E+02  0.31838592662E+02 -0.11085114661E+02  0.42094127538E+02  0.00000000000E+00 0.  1.
</event>
<event>
 7    1  0.2405891E-015  0.9000803E+02  0.7816164E-02  0.1186338E+00
        -11   -1    0    0    0    0  0.00000000000E+00  0.00000000000E+00  0.45593999997E+02  0.45594000000E+02  0.51100000000E-03 0. -1.
         11   -1    0    0    0    0 -0.00000000000E+00 -0.00000000000E+00 -0.45593999997E+02  0.45594000000E+02  0.51100000000E-03 0.  1.
    9900012    2    1    2    0    0  0.10943360723E+01 -0.41000961631E+00  0.16326626583E+00  0.90008027459E+02  0.90000292621E+02 0.  0.
        -12    1    1    2    0    0 -0.10943360723E+01  0.41000961631E+00 -0.16326626583E+00  0.11799725412E+01  0.00000000000E+00 0.  1.
         11    1    3    3    0    0  0.76240548763E+01  0.69591106306E+00 -0.89670256685E+01  0.11790591782E+02  0.51100000000E-03 0. -1.
        -11    1    3    3    0    0 -0.10014365180E+01  0.89132629896E+01 -0.33188320199E+02  0.34378972208E+02  0.51100000000E-03 0.  1.
         12    1    3    3    0    0 -0.55282822860E+01 -0.10019183669E+02  0.42318612133E+02  0.43838463469E+02  0.00000000000E+00 0. -1.
</event>
<event>
 7    1  0.2405891E-015  0.9000769E+02  0.7816164E-02  0.1186339E+00
        -11   -1    0    0    0    0  0.00000000000E+00  0.00000000000E+00  0.45593999997E+02  0.45594000000E+02  0.51100000000E-03 0.  1.
         11   -1    0    0    0    0 -0.00000000000E+00 -0.00000000000E+00 -0.45593999997E+02  0.45594000000E+02  0.51100000000E-03 0. -1.
    9900012    2    1    2    0    0 -0.18437043685E+00 -0.19440389475E+00 -0.11494975518E+01  0.90007690738E+02  0.89999951456E+02 0.  0.
        -12    1    1    2    0    0  0.18437043685E+00  0.19440389475E+00  0.11494975518E+01  0.11803092620E+01  0.00000000000E+00 0.  1.
         11    1    3    3    0    0 -0.45074673778E+01  0.60361486233E+00 -0.24158753261E+01  0.51495695856E+01  0.51100000000E-03 0. -1.
        -11    1    3    3    0    0  0.13459841092E+02  0.38910419019E+02 -0.10417234519E+02  0.42470069528E+02  0.51100000000E-03 0.  1.
         12    1    3    3    0    0 -0.91367441514E+01 -0.39708437776E+02  0.11683612294E+02  0.42388051624E+02  0.00000000000E+00 0. -1.
</event>
<event>
 7    1  0.2405891E-015  0.9000766E+02  0.7816164E-02  0.1186339E+00
        -11   -1    0    0    0    0  0.00000000000E+00  0.00000000000E+00  0.45593999997E+02  0.45594000000E+02  0.51100000000E-03 0.  1.
         11   -1    0    0    0    0 -0.00000000000E+00 -0.00000000000E+00 -0.45593999997E+02  0.45594000000E+02  0.51100000000E-03 0. -1.
    9900012    2    1    2    0    0 -0.43951031659E+00  0.10079713946E+01  0.42897084566E+00  0.90007664608E+02  0.89999924981E+02 0.  0.
        -12    1    1    2    0    0  0.43951031659E+00 -0.10079713946E+01 -0.42897084566E+00  0.11803353918E+01  0.00000000000E+00 0.  1.
         11    1    3    3    0    0 -0.42026195681E+01 -0.17383961728E+01 -0.27081965965E+01  0.52932373415E+01  0.51100000000E-03 0. -1.
        -11    1    3    3    0    0 -0.30764267858E+02 -0.13518534780E+02  0.23928257931E+02  0.41252302812E+02  0.51100000000E-03 0.  1.
         12    1    3    3    0    0  0.34527377109E+02  0.16264902347E+02 -0.20791090488E+02  0.43462124455E+02  0.00000000000E+00 0. -1.
</event>
<event>
 7    1  0.2405891E-015  0.9000774E+02  0.7816164E-02  0.1186339E+00
        -11   -1    0    0    0    0  0.00000000000E+00  0.00000000000E+00  0.45593999997E+02  0.45594000000E+02  0.51100000000E-03 0. -1.
         11   -1    0    0    0    0 -0.00000000000E+00 -0.00000000000E+00 -0.45593999997E+02  0.45594000000E+02  0.51100000000E-03 0.  1.
    9900012    2    1    2    0    0  0.10140930543E+01  0.24012934491E+00 -0.55404258149E+00  0.90007741551E+02  0.90000002939E+02 0.  0.
        -12    1    1    2    0    0 -0.10140930543E+01 -0.24012934491E+00  0.55404258149E+00  0.11802584493E+01  0.00000000000E+00 0.  1.
         11    1    3    3    0    0  0.22288364960E+02 -0.19769572560E+02 -0.45237976645E+01  0.30134232318E+02  0.51100000000E-03 0. -1.
        -11    1    3    3    0    0  0.10443893031E+02 -0.92505820516E+01 -0.66159566574E+01  0.15440824223E+02  0.51100000000E-03 0.  1.
        -12    1    3    3    0    0 -0.31718164936E+02  0.29260283957E+02  0.10585711740E+02  0.44432685010E+02  0.00000000000E+00 0.  1.
</event>
<event>
 7    1  0.2405891E-015  0.9000745E+02  0.7816164E-02  0.1186340E+00
        -11   -1    0    0    0    0  0.00000000000E+00  0.00000000000E+00  0.45593999997E+02  0.45594000000E+02  0.51100000000E-03 0. -1.
         11   -1    0    0    0    0 -0.00000000000E+00 -0.00000000000E+00 -0.45593999997E+02  0.45594000000E+02  0.51100000000E-03 0.  1.
    9900012    2    1    2    0    0  0.31429704689E+00 -0.30671405984E+00  0.10958285948E+01  0.90007450781E+02  0.89999708331E+02 0.  0.
        -12    1    1    2    0    0 -0.31429704689E+00  0.30671405984E+00 -0.10958285948E+01  0.11805492186E+01  0.00000000000E+00 0.  1.
         11    1    3    3    0    0  0.35412852284E+02  0.11897015479E+02 -0.10919878147E+00  0.37358011307E+02  0.51100000000E-03 0. -1.
        -11    1    3    3    0    0  0.34816061281E+01  0.53207309186E+01 -0.70340993849E+01  0.94821048906E+01  0.51100000000E-03 0.  1.
        -12    1    3    3    0    0 -0.38580161365E+02 -0.17524460457E+02  0.82391267612E+01  0.43167334584E+02  0.00000000000E+00 0.  1.
</event>
<event>
 7    1  0.2405891E-015  0.9000773E+02  0.7816164E-02  0.1186339E+00
        -11   -1    0    0    0    0  0.00000000000E+00  0.00000000000E+00  0.45593999997E+02  0.45594000000E+02  0.51100000000E-03 0. -1.
         11   -1    0    0    0    0 -0.00000000000E+00 -0.00000000000E+00 -0.45593999997E+02  0.45594000000E+02  0.51100000000E-03 0.  1.
    9900012    2    1    2    0    0  0.50591589514E+00  0.54437790538E+00  0.91691870950E+00  0.90007729643E+02  0.89999990874E+02 0.  0.
        -12    1    1    2    0    0 -0.50591589514E+00 -0.54437790538E+00 -0.91691870950E+00  0.11802703574E+01  0.00000000000E+00 0.  1.
         11    1    3    3    0    0  0.15959501835E+00  0.33060343442E+01  0.89062311487E+01  0.95013834356E+01  0.51100000000E-03 0. -1.
        -11    1    3    3    0    0 -0.36917454316E+02  0.68516489977E+01  0.87270466932E+01  0.38548733720E+02  0.51100000000E-03 0.  1.
         12    1    3    3    0    0  0.37263775192E+02 -0.96133054365E+01 -0.16716359132E+02  0.41957612487E+02  0.00000000000E+00 0. -1.
</event>
<event>
 7    1  0.2405891E-015  0.9000779E+02  0.7816164E-02  0.1186339E+00
        -11   -1    0    0    0    0  0.00000000000E+00  0.00000000000E+00  0.45593999997E+02  0.45594000000E+02  0.51100000000E-03 0.  1.
         11   -1    0    0    0    0 -0.00000000000E+00 -0.00000000000E+00 -0.45593999997E+02  0.45594000000E+02  0.51100000000E-03 0. -1.
    9900012    2    1    2    0    0 -0.35513658499E+00 -0.98942863579E+00  0.53648474125E+00  0.90007785233E+02  0.90000047198E+02 0.  0.
        -12    1    1    2    0    0  0.35513658499E+00  0.98942863579E+00 -0.53648474125E+00  0.11802147673E+01  0.00000000000E+00 0.  1.
         11    1    3    3    0    0  0.26010198106E+02 -0.46181828130E+00 -0.97011077621E+01  0.27764278736E+02  0.51100000000E-03 0. -1.
        -11    1    3    3    0    0  0.57973241961E+01 -0.21437091585E+02 -0.11204484422E+01  0.22235405740E+02  0.51100000000E-03 0.  1.
        -12    1    3    3    0    0 -0.32162658887E+02  0.20909481231E+02  0.11358040946E+02  0.40008100757E+02  0.00000000000E+00 0.  1.
</event>
<event>
 7    1  0.2405891E-015  0.9000775E+02  0.7816164E-02  0.1186339E+00
        -11   -1    0    0    0    0  0.00000000000E+00  0.00000000000E+00  0.45593999997E+02  0.45594000000E+02  0.51100000000E-03 0.  1.
         11   -1    0    0    0    0 -0.00000000000E+00 -0.00000000000E+00 -0.45593999997E+02  0.45594000000E+02  0.51100000000E-03 0. -1.
    9900012    2    1    2    0    0 -0.11294328547E+01 -0.30704695741E+00 -0.15195539594E+00  0.90007751361E+02  0.90000012879E+02 0.  0.
        -12    1    1    2    0    0  0.11294328547E+01  0.30704695741E+00  0.15195539594E+00  0.11802486389E+01  0.00000000000E+00 0.  1.
         11    1    3    3    0    0  0.24621720349E+02  0.33031868394E+02  0.91237745768E+01  0.42196880279E+02  0.51100000000E-03 0. -1.
        -11    1    3    3    0    0 -0.59065494442E+01 -0.43631184681E+01 -0.10331271124E+02  0.12675144670E+02  0.51100000000E-03 0.  1.
        -12    1    3    3    0    0 -0.19844603760E+02 -0.28975796883E+02  0.10555411510E+01  0.35135726412E+02  0.00000000000E+00 0.  1.
</event>
<event>
 7    1  0.2405891E-015  0.9000788E+02  0.7816164E-02  0.1186339E+00
        -11   -1    0    0    0    0  0.00000000000E+00  0.00000000000E+00  0.45593999997E+02  0.45594000000E+02  0.51100000000E-03 0. -1.
         11   -1    0    0    0    0 -0.00000000000E+00 -0.00000000000E+00 -0.45593999997E+02  0.45594000000E+02  0.51100000000E-03 0.  1.
    9900012    2    1    2    0    0  0.32868790274E+00  0.10747872334E+01 -0.35983965208E+00  0.90007878011E+02  0.90000141200E+02 0.  0.
        -12    1    1    2    0    0 -0.32868790274E+00 -0.10747872334E+01  0.35983965208E+00  0.11801219893E+01  0.00000000000E+00 0.  1.
         11    1    3    3    0    0  0.44683397425E+01 -0.24158216983E+02 -0.27645649824E+02  0.36984692270E+02  0.51100000000E-03 0. -1.
        -11    1    3    3    0    0 -0.78780355845E+01  0.55515176448E+01 -0.79480661468E+01  0.12492179496E+02  0.51100000000E-03 0.  1.
        -12    1    3    3    0    0  0.37383837448E+01  0.19681486572E+02  0.35233876319E+02  0.40531006244E+02  0.00000000000E+00 0.  1.
</event>
<event>
 7    1  0.2405891E-015  0.9000773E+02  0.7816164E-02  0.1186339E+00
        -11   -1    0    0    0    0  0.00000000000E+00  0.00000000000E+00  0.45593999997E+02  0.45594000000E+02  0.51100000000E-03 0. -1.
         11   -1    0    0    0    0 -0.00000000000E+00 -0.00000000000E+00 -0.45593999997E+02  0.45594000000E+02  0.51100000000E-03 0.  1.
    9900012    2    1    2    0    0  0.84888309956E-01 -0.11600805151E+01 -0.20013393736E+00  0.90007726125E+02  0.89999987310E+02 0.  0.
        -12    1    1    2    0    0 -0.84888309956E-01  0.11600805151E+01  0.20013393736E+00  0.11802738749E+01  0.00000000000E+00 0.  1.
         11    1    3    3    0    0 -0.81666722939E+01 -0.28276977985E+01 -0.47011350245E+01  0.98382458790E+01  0.51100000000E-03 0. -1.
        -11    1    3    3    0    0  0.30836169979E+02 -0.13615487542E+02  0.28270908444E+02  0.43994262631E+02  0.51100000000E-03 0.  1.
         12    1    3    3    0    0 -0.22584609375E+02  0.15283104826E+02 -0.23769907357E+02  0.36175217615E+02  0.00000000000E+00 0. -1.
</event>
<event>
 7    1  0.2405891E-015  0.9000774E+02  0.7816164E-02  0.1186339E+00
        -11   -1    0    0    0    0  0.00000000000E+00  0.00000000000E+00  0.45593999997E+02  0.45594000000E+02  0.51100000000E-03 0.  1.
         11   -1    0    0    0    0 -0.00000000000E+00 -0.00000000000E+00 -0.45593999997E+02  0.45594000000E+02  0.51100000000E-03 0. -1.
    9900012    2    1    2    0    0 -0.28316398265E+00 -0.58865615783E+00 -0.98301309688E+00  0.90007740426E+02  0.90000001800E+02 0.  0.
        -12    1    1    2    0    0  0.28316398265E+00  0.58865615783E+00  0.98301309688E+00  0.11802595739E+01  0.00000000000E+00 0.  1.
         11    1    3    3    0    0  0.47427344456E+01 -0.37453230239E+01  0.97368132866E+01  0.11459777826E+02  0.51100000000E-03 0. -1.
        -11    1    3    3    0    0 -0.60740363941E+01  0.32251634306E+02  0.18186873437E+02  0.37520983452E+02  0.51100000000E-03 0.  1.
         12    1    3    3    0    0  0.10481379659E+01 -0.29094967440E+02 -0.28906699820E+02  0.41026979148E+02  0.00000000000E+00 0. -1.
</event>
<event>
 7    1  0.2405891E-015  0.9000774E+02  0.7816164E-02  0.1186339E+00
        -11   -1    0    0    0    0  0.00000000000E+00  0.00000000000E+00  0.45593999997E+02  0.45594000000E+02  0.51100000000E-03 0.  1.
         11   -1    0    0    0    0 -0.00000000000E+00 -0.00000000000E+00 -0.45593999997E+02  0.45594000000E+02  0.51100000000E-03 0. -1.
    9900012    2    1    2    0    0 -0.94954147707E+00  0.54604025035E+00 -0.43958184526E+00  0.90007736822E+02  0.89999998148E+02 0.  0.
        -12    1    1    2    0    0  0.94954147707E+00 -0.54604025035E+00  0.43958184526E+00  0.11802631784E+01  0.00000000000E+00 0.  1.
         11    1    3    3    0    0 -0.56818643170E+01 -0.41491999977E+02  0.22636118915E+01  0.41940357452E+02  0.51100000000E-03 0. -1.
        -11    1    3    3    0    0 -0.67536858775E+01  0.47481752226E+01  0.26781773613E+01  0.86792900122E+01  0.51100000000E-03 0.  1.
        -12    1    3    3    0    0  0.11486008717E+02  0.37289865004E+02 -0.53813710981E+01  0.39388089357E+02  0.00000000000E+00 0.  1.
</event>
<event>
 7    1  0.2405891E-015  0.9000778E+02  0.7816164E-02  0.1186339E+00
        -11   -1    0    0    0    0  0.00000000000E+00  0.00000000000E+00  0.45593999997E+02  0.45594000000E+02  0.51100000000E-03 0. -1.
         11   -1    0    0    0    0 -0.00000000000E+00 -0.00000000000E+00 -0.45593999997E+02  0.45594000000E+02  0.51100000000E-03 0.  1.
    9900012    2    1    2    0    0  0.36378407854E+00  0.11141202353E+01  0.13894385466E+00  0.90007784702E+02  0.90000046660E+02 0.  0.
        -12    1    1    2    0    0 -0.36378407854E+00 -0.11141202353E+01 -0.13894385466E+00  0.11802152979E+01  0.00000000000E+00 0.  1.
         11    1    3    3    0    0 -0.29995553702E+02  0.45330162256E+01  0.21381626052E+02  0.37114086421E+02  0.51100000000E-03 0. -1.
        -11    1    3    3    0    0 -0.25527777828E+01  0.59462998963E+01  0.62517162184E+01  0.89977282023E+01  0.51100000000E-03 0.  1.
        -12    1    3    3    0    0  0.32912115563E+02 -0.93651958866E+01 -0.27494398416E+02  0.43895970078E+02  0.00000000000E+00 0.  1.
</event>
<event>
 7    1  0.2405891E-015  0.9000775E+02  0.7816164E-02  0.1186339E+00
        -11   -1    0    0    0    0  0.00000000000E+00  0.00000000000E+00  0.45593999997E+02  0.45594000000E+02  0.51100000000E-03 0.  1.
         11   -1    0    0    0    0 -0.00000000000E+00 -0.00000000000E+00 -0.45593999997E+02  0.45594000000E+02  0.51100000000E-03 0. -1.
    9900012    2    1    2    0    0 -0.80032382216E+00 -0.86614427160E+00  0.47570050635E-01  0.90007751285E+02  0.90000012802E+02 0.  0.
        -12    1    1    2    0    0  0.80032382216E+00  0.86614427160E+00 -0.47570050635E-01  0.11802487150E+01  0.00000000000E+00 0.  1.
         11    1    3    3    0    0 -0.85831995604E+01  0.28254087434E+01  0.32236102721E+01  0.95940561135E+01  0.51100000000E-03 0. -1.
        -11    1    3    3    0    0 -0.18045197691E+02  0.30268815323E+02  0.83556755118E+01  0.36216676466E+02  0.51100000000E-03 0.  1.
         12    1    3    3    0    0  0.25828073429E+02 -0.33960368338E+02 -0.11531715733E+02  0.44197018705E+02  0.00000000000E+00 0. -1.
</event>
<event>
 7    1  0.2405891E-015  0.9000775E+02  0.7816164E-02  0.1186339E+00
        -11   -1    0    0    0    0  0.00000000000E+00  0.00000000000E+00  0.45593999997E+02  0.45594000000E+02  0.51100000000E-03 0. -1.
         11   -1    0    0    0    0 -0.00000000000E+00 -0.00000000000E+00 -0.45593999997E+02  0.45594000000E+02  0.51100000000E-03 0.  1.
    9900012    2    1    2    0    0  0.10061516087E+01 -0.50483180161E+00  0.35467040939E+00  0.90007751167E+02  0.90000012683E+02 0.  0.
        -12    1    1    2    0    0 -0.10061516087E+01  0.50483180161E+00 -0.35467040939E+00  0.11802488326E+01  0.00000000000E+00 0.  1.
         11    1    3    3    0    0 -0.36146346098E+02  0.12761512840E+02 -0.15268331335E+02  0.41261804229E+02  0.51100000000E-03 0. -1.
        -11    1    3    3    0    0  0.15642973841E+01  0.16471022677E+01  0.93878490664E+01  0.96587619570E+01  0.51100000000E-03 0.  1.
        -12    1    3    3    0    0  0.35588200322E+02 -0.14913446909E+02  0.62351526779E+01  0.39087184982E+02  0.00000000000E+00 0.  1.
</event>
<event>
 7    1  0.2405891E-015  0.9000767E+02  0.7816164E-02  0.1186339E+00
        -11   -1    0    0    0    0  0.00000000000E+00  0.00000000000E+00  0.45593999997E+02  0.45594000000E+02  0.51100000000E-03 0.  1.
         11   -1    0    0    0    0 -0.00000000000E+00 -0.00000000000E+00 -0.45593999997E+02  0.45594000000E+02  0.51100000000E-03 0. -1.
    9900012    2    1    2    0    0 -0.36239981383E+00 -0.10183449676E+01  0.47413885125E+00  0.90007674728E+02  0.89999935234E+02 0.  0.
        -12    1    1    2    0    0  0.36239981383E+00  0.10183449676E+01 -0.47413885125E+00  0.11803252722E+01  0.00000000000E+00 0.  1.
         11    1    3    3    0    0  0.11985088544E+02 -0.20718702435E+02  0.14126407763E+02  0.27793207345E+02  0.51100000000E-03 0. -1.
        -11    1    3    3    0    0  0.10741055591E+02 -0.15181426307E+02 -0.69339079891E+01  0.19847545445E+02  0.51100000000E-03 0.  1.
        -12    1    3    3    0    0 -0.23088543949E+02  0.34881783774E+02 -0.67183609229E+01  0.42366921937E+02  0.00000000000E+00 0.  1.
</event>
<event>
 7    1  0.2405891E-015  0.9000789E+02  0.7816164E-02  0.1186339E+00
        -11   -1    0    0    0    0  0.00000000000E+00  0.00000000000E+00  0.45593999997E+02  0.45594000000E+02  0.51100000000E-03 0. -1.
         11   -1    0    0    0    0 -0.00000000000E+00 -0.00000000000E+00 -0.45593999997E+02  0.45594000000E+02  0.51100000000E-03 0.  1.
    9900012    2    1    2    0    0 -0.96228892036E+00  0.29515609840E+00  0.61606270144E+00  0.90007893928E+02  0.90000157328E+02 0.  0.
        -12    1    1    2    0    0  0.96228892036E+00 -0.29515609840E+00 -0.61606270144E+00  0.11801060718E+01  0.00000000000E+00 0.  1.
         11    1    3    3    0    0  0.96908373448E+00  0.12796314258E+02  0.10691696066E+02  0.16703207683E+02  0.51100000000E-03 0. -1.
        -11    1    3    3    0    0  0.13698583319E+02  0.26718912116E+02 -0.58597007688E+00  0.30031563576E+02  0.51100000000E-03 0.  1.
        -12    1    3    3    0    0 -0.15629955974E+02 -0.39220070276E+02 -0.94896632878E+01  0.43273122669E+02  0.00000000000E+00 0.  1.
</event>
<event>
 7    1  0.2405891E-015  0.9000776E+02  0.7816164E-02  0.1186339E+00
        -11   -1    0    0    0    0  0.00000000000E+00  0.00000000000E+00  0.45593999997E+02  0.45594000000E+02  0.51100000000E-03 0.  1.
         11   -1    0    0    0    0 -0.00000000000E+00 -0.00000000000E+00 -0.45593999997E+02  0.45594000000E+02  0.51100000000E-03 0. -1.
    9900012    2    1    2    0    0  0.98055222216E+00  0.62821525668E+00 -0.19193531209E+00  0.90007755859E+02  0.90000017436E+02 0.  0.
        -12    1    1    2    0    0 -0.98055222216E+00 -0.62821525668E+00  0.19193531209E+00  0.11802441413E+01  0.00000000000E+00 0.  1.
         11    1    3    3    0    0  0.98695748672E+01  0.77839939695E+01 -0.31706993335E+01  0.12963502794E+02  0.51100000000E-03 0. -1.
        -11    1    3    3    0    0 -0.30146532447E+02  0.23270498447E+02  0.97584550721E+01  0.39313572239E+02  0.51100000000E-03 0.  1.
         12    1    3    3    0    0  0.21257509801E+02 -0.30426277160E+02 -0.67796910507E+01  0.37730680825E+02  0.00000000000E+00 0. -1.
</event>
<event>
 7    1  0.2405891E-015  0.9000774E+02  0.7816164E-02  0.1186339E+00
        -11   -1    0    0    0    0  0.00000000000E+00  0.00000000000E+00  0.45593999997E+02  0.45594000000E+02  0.51100000000E-03 0. -1.
         11   -1    0    0    0    0 -0.00000000000E+00 -0.00000000000E+00 -0.45593999997E+02  0.45594000000E+02  0.51100000000E-03 0.  1.
    9900012    2    1    2    0    0 -0.10488930775E+01 -0.53718508873E+00  0.65290842767E-01  0.90007742654E+02  0.90000004057E+02 0.  0.
        -12    1    1    2    0    0  0.10488930775E+01  0.53718508873E+00 -0.65290842767E-01  0.11802573455E+01  0.00000000000E+00 0.  1.
         11    1    3    3    0    0  0.13679495779E+02 -0.36181740131E+02  0.55107805000E+01  0.39071928871E+02  0.51100000000E-03 0. -1.
        -11    1    3    3    0    0  0.10583183852E+01 -0.27440480759E+01 -0.88137321865E+01  0.92914860471E+01  0.51100000000E-03 0.  1.
        -12    1    3    3    0    0 -0.15786707242E+02  0.38388603118E+02  0.33682425292E+01  0.41644327737E+02  0.00000000000E+00 0.  1.
</event>
<event>
 7    1  0.2405891E-015  0.9000773E+02  0.7816164E-02  0.1186339E+00
        -11   -1    0    0    0    0  0.00000000000E+00  0.00000000000E+00  0.45593999997E+02  0.45594000000E+02  0.51100000000E-03 0. -1.
         11   -1    0    0    0    0 -0.00000000000E+00 -0.00000000000E+00 -0.45593999997E+02  0.45594000000E+02  0.51100000000E-03 0.  1.
    9900012    2    1    2    0    0 -0.92578169005E+00 -0.71618044562E+00  0.15185083162E+00  0.90007726793E+02  0.89999987987E+02 0.  0.
        -12    1    1    2    0    0  0.92578169005E+00  0.71618044562E+00 -0.15185083162E+00  0.11802732071E+01  0.00000000000E+00 0.  1.
         11    1    3    3    0    0 -0.29428016058E+02 -0.32935985563E+02 -0.21414325058E+01  0.44219599812E+02  0.51100000000E-03 0. -1.
        -11    1    3    3    0    0  0.81180560636E+01  0.11597174072E+01 -0.18488216357E+01  0.84063024225E+01  0.51100000000E-03 0.  1.
        -12    1    3    3    0    0  0.20384178304E+02  0.31060087710E+02  0.41421049731E+01  0.37381824558E+02  0.00000000000E+00 0.  1.
</event>
<event>
 7    1  0.2405891E-015  0.9000774E+02  0.7816164E-02  0.1186339E+00
        -11   -1    0    0    0    0  0.00000000000E+00  0.00000000000E+00  0.45593999997E+02  0.45594000000E+02  0.51100000000E-03 0. -1.
         11   -1    0    0    0    0 -0.00000000000E+00 -0.00000000000E+00 -0.45593999997E+02  0.45594000000E+02  0.51100000000E-03 0.  1.
    9900012    2    1    2    0    0  0.68581068490E+00  0.79615635843E+00  0.53742033951E+00  0.90007736528E+02  0.89999997850E+02 0.  0.
        -12    1    1    2    0    0 -0.68581068490E+00 -0.79615635843E+00 -0.53742033951E+00  0.11802634722E+01  0.00000000000E+00 0.  1.
         11    1    3    3    0    0  0.17506453326E+02 -0.41649463617E+01  0.32021350977E+02  0.36731316406E+02  0.51100000000E-03 0. -1.
        -11    1    3    3    0    0  0.71909386058E+01  0.35817533353E+01  0.50846515341E+01  0.95074831828E+01  0.51100000000E-03 0.  1.
        -12    1    3    3    0    0 -0.24011581247E+02  0.13793493849E+01 -0.36568582172E+02  0.43768936939E+02  0.00000000000E+00 0.  1.
</event>
<event>
 7    1  0.2405891E-015  0.9000757E+02  0.7816164E-02  0.1186339E+00
        -11   -1    0    0    0    0  0.00000000000E+00  0.00000000000E+00  0.45593999997E+02  0.45594000000E+02  0.51100000000E-03 0.  1.
         11   -1    0    0    0    0 -0.00000000000E+00 -0.00000000000E+00 -0.45593999997E+02  0.45594000000E+02  0.51100000000E-03 0. -1.
    9900012    2    1    2    0    0  0.81661018558E+00 -0.46374202045E+00 -0.71519627484E+00  0.90007570176E+02  0.89999829303E+02 0.  0.
        -12    1    1    2    0    0 -0.81661018558E+00  0.46374202045E+00  0.71519627484E+00  0.11804298235E+01  0.00000000000E+00 0.  1.
         11    1    3    3    0    0 -0.10604477530E+02  0.33686083001E+02 -0.22029603905E+02  0.41623437870E+02  0.51100000000E-03 0. -1.
        -11    1    3    3    0    0  0.88646448743E+01 -0.12077034120E+01 -0.21246850554E+00  0.89490569004E+01  0.51100000000E-03 0.  1.
        -12    1    3    3    0    0  0.25564428409E+01 -0.32942121610E+02  0.21526876135E+02  0.39435075406E+02  0.00000000000E+00 0.  1.
</event>
<event>
 7    1  0.2405891E-015  0.9000771E+02  0.7816164E-02  0.1186339E+00
        -11   -1    0    0    0    0  0.00000000000E+00  0.00000000000E+00  0.45593999997E+02  0.45594000000E+02  0.51100000000E-03 0.  1.
         11   -1    0    0    0    0 -0.00000000000E+00 -0.00000000000E+00 -0.45593999997E+02  0.45594000000E+02  0.51100000000E-03 0. -1.
    9900012    2    1    2    0    0 -0.67238531715E+00 -0.78155089092E+00 -0.57458873318E+00  0.90007713585E+02  0.89999974604E+02 0.  0.
        -12    1    1    2    0    0  0.67238531715E+00  0.78155089092E+00  0.57458873318E+00  0.11802864153E+01  0.00000000000E+00 0.  1.
         11    1    3    3    0    0  0.31510232310E+01  0.83125861436E+01  0.64681225734E+00  0.89132711254E+01  0.51100000000E-03 0. -1.
        -11    1    3    3    0    0 -0.77916073089E+01  0.35460513350E+02  0.83719264033E+00  0.36316085187E+02  0.51100000000E-03 0.  1.
         12    1    3    3    0    0  0.39681987608E+01 -0.44554650385E+02 -0.20585936308E+01  0.44778357273E+02  0.00000000000E+00 0. -1.
</event>
<event>
 7    1  0.2405891E-015  0.9000773E+02  0.7816164E-02  0.1186339E+00
        -11   -1    0    0    0    0  0.00000000000E+00  0.00000000000E+00  0.45593999997E+02  0.45594000000E+02  0.51100000000E-03 0.  1.
         11   -1    0    0    0    0 -0.00000000000E+00 -0.00000000000E+00 -0.45593999997E+02  0.45594000000E+02  0.51100000000E-03 0. -1.
    9900012    2    1    2    0    0  0.47023799328E+00 -0.82906641623E+00 -0.69611125514E+00  0.90007726399E+02  0.89999987588E+02 0.  0.
        -12    1    1    2    0    0 -0.47023799328E+00  0.82906641623E+00  0.69611125514E+00  0.11802736006E+01  0.00000000000E+00 0.  1.
         11    1    3    3    0    0 -0.23490756597E+02  0.23951654590E+02 -0.15511753411E+02  0.36960950979E+02  0.51100000000E-03 0. -1.
        -11    1    3    3    0    0  0.65706313802E+01  0.62198822487E+01 -0.69129184719E+01  0.11386332771E+02  0.51100000000E-03 0.  1.
        -12    1    3    3    0    0  0.17390363210E+02 -0.31000603255E+02  0.21728560627E+02  0.41660442649E+02  0.00000000000E+00 0.  1.
</event>
<event>
 7    1  0.2405891E-015  0.9000791E+02  0.7816164E-02  0.1186339E+00
        -11   -1    0    0    0    0  0.00000000000E+00  0.00000000000E+00  0.45593999997E+02  0.45594000000E+02  0.51100000000E-03 0.  1.
         11   -1    0    0    0    0 -0.00000000000E+00 -0.00000000000E+00 -0.45593999997E+02  0.45594000000E+02  0.51100000000E-03 0. -1.
    9900012    2    1    2    0    0 -0.21403636162E+00  0.11577252021E+01  0.80475004096E-01  0.90007908718E+02  0.90000172313E+02 0.  0.
        -12    1    1    2    0    0  0.21403636162E+00 -0.11577252021E+01 -0.80475004096E-01  0.11800912820E+01  0.00000000000E+00 0.  1.
         11    1    3    3    0    0  0.35294395926E+01  0.24663762423E+02 -0.37569149781E+02  0.45079919435E+02  0.51100000000E-03 0. -1.
        -11    1    3    3    0    0 -0.14213405899E+01 -0.59666675139E+01  0.55325145733E+01  0.82601481862E+01  0.51100000000E-03 0.  1.
        -12    1    3    3    0    0 -0.23221353643E+01 -0.17539369707E+02  0.32117110212E+02  0.36667841097E+02  0.00000000000E+00 0.  1.
</event>
<event>
 7    1  0.2405891E-015  0.9000745E+02  0.7816164E-02  0.1186340E+00
        -11   -1    0    0    0    0  0.00000000000E+00  0.00000000000E+00  0.45593999997E+02  0.45594000000E+02  0.51100000000E-03 0.  1.
         11   -1    0    0    0    0 -0.00000000000E+00 -0.00000000000E+00 -0.45593999997E+02  0.45594000000E+02  0.51100000000E-03 0. -1.
    9900012    2    1    2    0    0  0.87102544785E+00  0.64884351818E-01  0.79422541758E+00  0.90007453803E+02  0.89999711392E+02 0.  0.
        -12    1    1    2    0    0 -0.87102544785E+00 -0.64884351818E-01 -0.79422541758E+00  0.11805461972E+01  0.00000000000E+00 0.  1.
         11    1    3    3    0    0  0.64086958354E+01 -0.60258277533E+01  0.56828430341E+01  0.10472663827E+02  0.51100000000E-03 0. -1.
        -11    1    3    3    0    0  0.13706720351E+01  0.30361859717E+02  0.25755132269E+02  0.39837772349E+02  0.51100000000E-03 0.  1.
         12    1    3    3    0    0 -0.69083424227E+01 -0.24271147612E+02 -0.30643749885E+02  0.39697017627E+02  0.00000000000E+00 0. -1.
</event>
<event>
 7    1  0.2654960E-015  0.9000772E+02  0.7816164E-02  0.1186339E+00
        -11   -1    0    0    0    0  0.00000000000E+00  0.00000000000E+00  0.45593999997E+02  0.45594000000E+02  0.51100000000E-03 0. -1.
         11   -1    0    0    0    0 -0.00000000000E+00 -0.00000000000E+00 -0.45593999997E+02  0.45594000000E+02  0.51100000000E-03 0.  1.
    9900012    2    1    2    0    0  0.33601087319E+00 -0.53855628051E+00  0.99504269004E+00  0.90007722012E+02  0.89999983142E+02 0.  0.
        -12    1    1    2    0    0 -0.33601087319E+00  0.53855628051E+00 -0.99504269004E+00  0.11802779881E+01  0.00000000000E+00 0.  1.
         11    1    3    3    0    0 -0.13779634025E+01 -0.26337300202E+01 -0.88234410068E+01  0.93106620827E+01  0.51100000000E-03 0. -1.
        -11    1    3    3    0    0  0.30082606400E+02  0.21552982134E+02 -0.13217277654E+02  0.39296191616E+02  0.51100000000E-03 0.  1.
         12    1    3    3    0    0 -0.28368632124E+02 -0.19457808395E+02  0.23035761351E+02  0.41400868313E+02  0.00000000000E+00 0. -1.
</event>
<event>
 7    1  0.2405891E-015  0.9000778E+02  0.7816164E-02  0.1186339E+00
        -11   -1    0    0    0    0  0.00000000000E+00  0.00000000000E+00  0.45593999997E+02  0.45594000000E+02  0.51100000000E-03 0.  1.
         11   -1    0    0    0    0 -0.00000000000E+00 -0.00000000000E+00 -0.45593999997E+02  0.45594000000E+02  0.51100000000E-03 0. -1.
    9900012    2    1    2    0    0  0.65038368097E+00 -0.89344721013E+00 -0.41433986993E+00  0.90007777827E+02  0.90000039694E+02 0.  0.
        -12    1    1    2    0    0 -0.65038368097E+00  0.89344721013E+00  0.41433986993E+00  0.11802221730E+01  0.00000000000E+00 0.  1.
         11    1    3    3    0    0  0.93555442358E+01 -0.16587483757E+01 -0.38256670401E+02  0.39418910241E+02  0.51100000000E-03 0. -1.
        -11    1    3    3    0    0  0.53328218502E+01  0.90899338326E+01  0.13649063970E+01  0.10626798940E+02  0.51100000000E-03 0.  1.
        -12    1    3    3    0    0 -0.14037982405E+02 -0.83246326670E+01  0.36477424134E+02  0.39962068647E+02  0.00000000000E+00 0.  1.
</event>
<event>
 7    1  0.2405891E-015  0.9000765E+02  0.7816164E-02  0.1186339E+00
        -11   -1    0    0    0    0  0.00000000000E+00  0.00000000000E+00  0.45593999997E+02  0.45594000000E+02  0.51100000000E-03 0. -1.
         11   -1    0    0    0    0 -0.00000000000E+00 -0.00000000000E+00 -0.45593999997E+02  0.45594000000E+02  0.51100000000E-03 0.  1.
    9900012    2    1    2    0    0 -0.45017331456E+00 -0.79619966016E+00  0.74608171572E+00  0.90007649273E+02  0.89999909443E+02 0.  0.
        -12    1    1    2    0    0  0.45017331456E+00  0.79619966016E+00 -0.74608171572E+00  0.11803507269E+01  0.00000000000E+00 0.  1.
         11    1    3    3    0    0  0.58738993472E+01 -0.35299855748E+01  0.54362864753E+01  0.87473826144E+01  0.51100000000E-03 0. -1.
        -11    1    3    3    0    0 -0.37591396502E+02 -0.12155470742E+02 -0.18938264213E+02  0.43812400203E+02  0.51100000000E-03 0.  1.
         12    1    3    3    0    0  0.31267323840E+02  0.14889256657E+02  0.14248059453E+02  0.37447866456E+02  0.00000000000E+00 0. -1.
</event>
<event>
 7    1  0.2405891E-015  0.9000770E+02  0.7816164E-02  0.1186339E+00
        -11   -1    0    0    0    0  0.00000000000E+00  0.00000000000E+00  0.45593999997E+02  0.45594000000E+02  0.51100000000E-03 0. -1.
         11   -1    0    0    0    0 -0.00000000000E+00 -0.00000000000E+00 -0.45593999997E+02  0.45594000000E+02  0.51100000000E-03 0.  1.
    9900012    2    1    2    0    0 -0.10199697842E+01  0.21375510298E+00  0.55414233405E+00  0.90007702016E+02  0.89999962883E+02 0.  0.
        -12    1    1    2    0    0  0.10199697842E+01 -0.21375510298E+00 -0.55414233405E+00  0.11802979841E+01  0.00000000000E+00 0.  1.
         11    1    3    3    0    0 -0.19053065565E+02 -0.30565164818E+02  0.11914302431E+01  0.36037038086E+02  0.51100000000E-03 0. -1.
        -11    1    3    3    0    0 -0.15676072215E+01 -0.92060932601E+01 -0.13406529546E+01  0.94343466187E+01  0.51100000000E-03 0.  1.
        -12    1    3    3    0    0  0.19600703002E+02  0.39985013181E+02  0.70336504552E+00  0.44536317311E+02  0.00000000000E+00 0.  1.
</event>
<event>
 7    1  0.2405891E-015  0.9000774E+02  0.7816164E-02  0.1186339E+00
        -11   -1    0    0    0    0  0.00000000000E+00  0.00000000000E+00  0.45593999997E+02  0.45594000000E+02  0.51100000000E-03 0.  1.
         11   -1    0    0    0    0 -0.00000000000E+00 -0.00000000000E+00 -0.45593999997E+02  0.45594000000E+02  0.51100000000E-03 0. -1.
    9900012    2    1    2    0    0 -0.51456796021E+00  0.96066355242E+00 -0.45315487044E+00  0.90007744103E+02  0.90000005525E+02 0.  0.
        -12    1    1    2    0    0  0.51456796021E+00 -0.96066355242E+00  0.45315487044E+00  0.11802558974E+01  0.00000000000E+00 0.  1.
         11    1    3    3    0    0 -0.12154076229E+02 -0.17944102738E+02  0.31174374907E+02  0.37967802718E+02  0.51100000000E-03 0. -1.
        -11    1    3    3    0    0 -0.54410767535E+01 -0.74580912601E+01 -0.34948264051E+01  0.98712842804E+01  0.51100000000E-03 0.  1.
        -12    1    3    3    0    0  0.17080585022E+02  0.26362857551E+02 -0.28132703373E+02  0.42168657105E+02  0.00000000000E+00 0.  1.
</event>
<event>
 7    1  0.2405891E-015  0.9000758E+02  0.7816164E-02  0.1186339E+00
        -11   -1    0    0    0    0  0.00000000000E+00  0.00000000000E+00  0.45593999997E+02  0.45594000000E+02  0.51100000000E-03 0.  1.
         11   -1    0    0    0    0 -0.00000000000E+00 -0.00000000000E+00 -0.45593999997E+02  0.45594000000E+02  0.51100000000E-03 0. -1.
    9900012    2    1    2    0    0 -0.99062952690E+00  0.51953650158E+00  0.37698232546E+00  0.90007584518E+02  0.89999843834E+02 0.  0.
        -12    1    1    2    0    0  0.99062952690E+00 -0.51953650158E+00 -0.37698232546E+00  0.11804154818E+01  0.00000000000E+00 0.  1.
         11    1    3    3    0    0  0.63397173421E+01  0.92455801111E+01 -0.85800919429E+01  0.14117037422E+02  0.51100000000E-03 0. -1.
        -11    1    3    3    0    0  0.32318245735E+02 -0.11339021066E+02  0.11356913631E+02  0.36083540481E+02  0.51100000000E-03 0.  1.
        -12    1    3    3    0    0 -0.39648592604E+02  0.26129774560E+01 -0.23998393627E+01  0.39807006615E+02  0.00000000000E+00 0.  1.
</event>
<event>
 7    1  0.2405891E-015  0.9000728E+02  0.7816164E-02  0.1186340E+00
        -11   -1    0    0    0    0  0.00000000000E+00  0.00000000000E+00  0.45593999997E+02  0.45594000000E+02  0.51100000000E-03 0.  1.
         11   -1    0    0    0    0 -0.00000000000E+00 -0.00000000000E+00 -0.45593999997E+02  0.45594000000E+02  0.51100000000E-03 0. -1.
    9900012    2    1    2    0    0 -0.54402720514E+00  0.10307240587E+01  0.18908378076E+00  0.90007275493E+02  0.89999530728E+02 0.  0.
        -12    1    1    2    0    0  0.54402720514E+00 -0.10307240587E+01 -0.18908378076E+00  0.11807245069E+01  0.00000000000E+00 0.  1.
         11    1    3    3    0    0 -0.15179838375E+02  0.68219950109E+01  0.15327007728E+02  0.22624859672E+02  0.51100000000E-03 0. -1.
        -11    1    3    3    0    0 -0.42042172232E+01  0.18138302637E+02  0.15467187894E+02  0.24205523473E+02  0.51100000000E-03 0.  1.
         12    1    3    3    0    0  0.18840028393E+02 -0.23929573589E+02 -0.30605111842E+02  0.43176892348E+02  0.00000000000E+00 0. -1.
</event>
<event>
 7    1  0.2405891E-015  0.9000790E+02  0.7816164E-02  0.1186339E+00
        -11   -1    0    0    0    0  0.00000000000E+00  0.00000000000E+00  0.45593999997E+02  0.45594000000E+02  0.51100000000E-03 0.  1.
         11   -1    0    0    0    0 -0.00000000000E+00 -0.00000000000E+00 -0.45593999997E+02  0.45594000000E+02  0.51100000000E-03 0. -1.
    9900012    2    1    2    0    0 -0.10976198246E+01  0.38381466620E+00 -0.20135422689E+00  0.90007904028E+02  0.90000167562E+02 0.  0.
        -12    1    1    2    0    0  0.10976198246E+01 -0.38381466620E+00  0.20135422689E+00  0.11800959715E+01  0.00000000000E+00 0.  1.
         11    1    3    3    0    0  0.24036776538E+02  0.19229370026E+02  0.47523206489E+01  0.31146747017E+02  0.51100000000E-03 0. -1.
        -11    1    3    3    0    0 -0.20160147763E+02  0.13699196881E+02  0.40992780466E+01  0.24716464831E+02  0.51100000000E-03 0.  1.
        -12    1    3    3    0    0 -0.49742485995E+01 -0.32544752240E+02 -0.90529529224E+01  0.34144692181E+02  0.00000000000E+00 0.  1.
</event>
<event>
 7    1  0.2405891E-015  0.9000773E+02  0.7816164E-02  0.1186339E+00
        -11   -1    0    0    0    0  0.00000000000E+00  0.00000000000E+00  0.45593999997E+02  0.45594000000E+02  0.51100000000E-03 0. -1.
         11   -1    0    0    0    0 -0.00000000000E+00 -0.00000000000E+00 -0.45593999997E+02  0.45594000000E+02  0.51100000000E-03 0.  1.
    9900012    2    1    2    0    0 -0.48857983058E+00 -0.23160568472E+00  0.10491338197E+01  0.90007731719E+02  0.89999992977E+02 0.  0.
        -12    1    1    2    0    0  0.48857983058E+00  0.23160568472E+00 -0.10491338197E+01  0.11802682812E+01  0.00000000000E+00 0.  1.
         11    1    3    3    0    0 -0.28877655609E+02 -0.95293030518E+01  0.19898779877E+02  0.36341272006E+02  0.51100000000E-03 0. -1.
        -11    1    3    3    0    0 -0.52463890400E+01  0.55233717611E+01  0.75623682977E+01  0.10734134716E+02  0.51100000000E-03 0.  1.
        -12    1    3    3    0    0  0.33635464819E+02  0.37743256060E+01 -0.26412014355E+02  0.42932324997E+02  0.00000000000E+00 0.  1.
</event>
<event>
 7    1  0.2405891E-015  0.9000776E+02  0.7816164E-02  0.1186339E+00
        -11   -1    0    0    0    0  0.00000000000E+00  0.00000000000E+00  0.45593999997E+02  0.45594000000E+02  0.51100000000E-03 0.  1.
         11   -1    0    0    0    0 -0.00000000000E+00 -0.00000000000E+00 -0.45593999997E+02  0.45594000000E+02  0.51100000000E-03 0. -1.
    9900012    2    1    2    0    0  0.67336712946E+00 -0.35848625360E+00 -0.90057216664E+00  0.90007760231E+02  0.90000021866E+02 0.  0.
        -12    1    1    2    0    0 -0.67336712946E+00  0.35848625360E+00  0.90057216664E+00  0.11802397690E+01  0.00000000000E+00 0.  1.
         11    1    3    3    0    0  0.75012838067E+01  0.37823001908E+02  0.11827548383E+02  0.40332860463E+02  0.51100000000E-03 0. -1.
        -11    1    3    3    0    0  0.65847141077E+01 -0.16348930185E+01 -0.79518443434E+01  0.10452902170E+02  0.51100000000E-03 0.  1.
        -12    1    3    3    0    0 -0.13412630785E+02 -0.36546595144E+02 -0.47762762060E+01  0.39221997598E+02  0.00000000000E+00 0.  1.
</event>
<event>
 7    1  0.2405891E-015  0.9000779E+02  0.7816164E-02  0.1186339E+00
        -11   -1    0    0    0    0  0.00000000000E+00  0.00000000000E+00  0.45593999997E+02  0.45594000000E+02  0.51100000000E-03 0.  1.
         11   -1    0    0    0    0 -0.00000000000E+00 -0.00000000000E+00 -0.45593999997E+02  0.45594000000E+02  0.51100000000E-03 0. -1.
    9900012    2    1    2    0    0  0.29052373366E+00 -0.57522147571E+00 -0.98874137665E+00  0.90007790995E+02  0.90000053036E+02 0.  0.
        -12    1    1    2    0    0 -0.29052373366E+00  0.57522147571E+00  0.98874137665E+00  0.11802090051E+01  0.00000000000E+00 0.  1.
         11    1    3    3    0    0  0.33832455247E+02  0.13407290229E+02  0.19933388262E+02  0.41493739614E+02  0.51100000000E-03 0. -1.
        -11    1    3    3    0    0  0.12801528318E+01 -0.76856929982E+01 -0.86796611063E+00  0.78397725455E+01  0.51100000000E-03 0.  1.
        -12    1    3    3    0    0 -0.34822084345E+02 -0.62968187070E+01 -0.20054163528E+02  0.40674278835E+02  0.00000000000E+00 0.  1.
</event>
<event>
 7    1  0.2405891E-015  0.9000819E+02  0.7816164E-02  0.1186338E+00
        -11   -1    0    0    0    0  0.00000000000E+00  0.00000000000E+00  0.45593999997E+02  0.45594000000E+02  0.51100000000E-03 0.  1.
         11   -1    0    0    0    0 -0.00000000000E+00 -0.00000000000E+00 -0.45593999997E+02  0.45594000000E+02  0.51100000000E-03 0. -1.
    9900012    2    1    2    0    0 -0.68613016787E-01  0.35015115897E+00 -0.11245582472E+01  0.90008192884E+02  0.90000460229E+02 0.  0.
        -12    1    1    2    0    0  0.68613016787E-01 -0.35015115897E+00  0.11245582472E+01  0.11798071163E+01  0.00000000000E+00 0.  1.
         11    1    3    3    0    0  0.43703034855E+01  0.49532418814E+01 -0.65931701095E+01  0.93329550543E+01  0.51100000000E-03 0. -1.
        -11    1    3    3    0    0  0.13467123923E+02 -0.29017805867E+02  0.28333912625E+02  0.42734144299E+02  0.51100000000E-03 0.  1.
         12    1    3    3    0    0 -0.17906040425E+02  0.24414715144E+02 -0.22865300763E+02  0.37941093530E+02  0.00000000000E+00 0. -1.
</event>
<event>
 7    1  0.2405891E-015  0.9000780E+02  0.7816164E-02  0.1186339E+00
        -11   -1    0    0    0    0  0.00000000000E+00  0.00000000000E+00  0.45593999997E+02  0.45594000000E+02  0.51100000000E-03 0.  1.
         11   -1    0    0    0    0 -0.00000000000E+00 -0.00000000000E+00 -0.45593999997E+02  0.45594000000E+02  0.51100000000E-03 0. -1.
    9900012    2    1    2    0    0  0.33375888261E-02 -0.60895768044E+00 -0.10109603084E+01  0.90007796059E+02  0.90000058167E+02 0.  0.
        -12    1    1    2    0    0 -0.33375888261E-02  0.60895768044E+00  0.10109603084E+01  0.11802039405E+01  0.00000000000E+00 0.  1.
         11    1    3    3    0    0 -0.21746358561E+02 -0.28993256116E+02 -0.15101460416E+02  0.39262795594E+02  0.51100000000E-03 0. -1.
        -11    1    3    3    0    0 -0.76370094034E+01  0.96781173989E-01  0.44225486906E+01  0.88256567124E+01  0.51100000000E-03 0.  1.
        -12    1    3    3    0    0  0.29386705553E+02  0.28287517262E+02  0.96679514173E+01  0.41919343753E+02  0.00000000000E+00 0.  1.
</event>
<event>
 7    1  0.2405891E-015  0.9000773E+02  0.7816164E-02  0.1186339E+00
        -11   -1    0    0    0    0  0.00000000000E+00  0.00000000000E+00  0.45593999997E+02  0.45594000000E+02  0.51100000000E-03 0.  1.
         11   -1    0    0    0    0 -0.00000000000E+00 -0.00000000000E+00 -0.45593999997E+02  0.45594000000E+02  0.51100000000E-03 0. -1.
    9900012    2    1    2    0    0 -0.41198062063E+00  0.98947917932E+00 -0.49420297432E+00  0.90007731531E+02  0.89999992788E+02 0.  0.
        -12    1    1    2    0    0  0.41198062063E+00 -0.98947917932E+00  0.49420297432E+00  0.11802684686E+01  0.00000000000E+00 0.  1.
         11    1    3    3    0    0 -0.46038346335E+01 -0.65168602671E+01  0.45625008540E+01  0.91913641739E+01  0.51100000000E-03 0. -1.
        -11    1    3    3    0    0 -0.23903201517E+02 -0.27013815652E+02 -0.40422611855E+01  0.36296682418E+02  0.51100000000E-03 0.  1.
         12    1    3    3    0    0  0.28095055530E+02  0.34520155098E+02 -0.10144426428E+01  0.44519684939E+02  0.00000000000E+00 0. -1.
</event>
<event>
 7    1  0.2405891E-015  0.9000766E+02  0.7816164E-02  0.1186339E+00
        -11   -1    0    0    0    0  0.00000000000E+00  0.00000000000E+00  0.45593999997E+02  0.45594000000E+02  0.51100000000E-03 0.  1.
         11   -1    0    0    0    0 -0.00000000000E+00 -0.00000000000E+00 -0.45593999997E+02  0.45594000000E+02  0.51100000000E-03 0. -1.
    9900012    2    1    2    0    0 -0.95773215012E+00  0.64003743294E+00  0.25751619838E+00  0.90007655398E+02  0.89999915649E+02 0.  0.
        -12    1    1    2    0    0  0.95773215012E+00 -0.64003743294E+00 -0.25751619838E+00  0.11803446020E+01  0.00000000000E+00 0.  1.
         11    1    3    3    0    0  0.27844009203E+02 -0.21459883776E+02 -0.71276894264E+01  0.35869477513E+02  0.51100000000E-03 0. -1.
        -11    1    3    3    0    0  0.73584706429E+01  0.26964914680E+01 -0.71443584632E+01  0.10604716618E+02  0.51100000000E-03 0.  1.
        -12    1    3    3    0    0 -0.36160211996E+02  0.19403429741E+02  0.14529564088E+02  0.43533461267E+02  0.00000000000E+00 0.  1.
</event>
<event>
 7    1  0.2405891E-015  0.9000796E+02  0.7816164E-02  0.1186339E+00
        -11   -1    0    0    0    0  0.00000000000E+00  0.00000000000E+00  0.45593999997E+02  0.45594000000E+02  0.51100000000E-03 0. -1.
         11   -1    0    0    0    0 -0.00000000000E+00 -0.00000000000E+00 -0.45593999997E+02  0.45594000000E+02  0.51100000000E-03 0.  1.
    9900012    2    1    2    0    0 -0.56978592953E+00 -0.10043672228E+01 -0.24308486274E+00  0.90007957724E+02  0.90000221965E+02 0.  0.
        -12    1    1    2    0    0  0.56978592953E+00  0.10043672228E+01  0.24308486274E+00  0.11800422764E+01  0.00000000000E+00 0.  1.
         11    1    3    3    0    0  0.64358254766E+01  0.38482730782E+01 -0.12654810718E+02  0.14709632552E+02  0.51100000000E-03 0. -1.
        -11    1    3    3    0    0 -0.37947846993E+02  0.63862024408E+01 -0.36776552267E+01  0.38656795279E+02  0.51100000000E-03 0.  1.
         12    1    3    3    0    0  0.30942235587E+02 -0.11238842742E+02  0.16089381082E+02  0.36641529893E+02  0.00000000000E+00 0. -1.
</event>
<event>
 7    1  0.2405891E-015  0.9000786E+02  0.7816164E-02  0.1186339E+00
        -11   -1    0    0    0    0  0.00000000000E+00  0.00000000000E+00  0.45593999997E+02  0.45594000000E+02  0.51100000000E-03 0.  1.
         11   -1    0    0    0    0 -0.00000000000E+00 -0.00000000000E+00 -0.45593999997E+02  0.45594000000E+02  0.51100000000E-03 0. -1.
    9900012    2    1    2    0    0 -0.43429966857E+00 -0.10336829587E+01 -0.36825961697E+00  0.90007859412E+02  0.90000122356E+02 0.  0.
        -12    1    1    2    0    0  0.43429966857E+00  0.10336829587E+01  0.36825961697E+00  0.11801405877E+01  0.00000000000E+00 0.  1.
         11    1    3    3    0    0 -0.28439118706E+02 -0.59304010025E+00 -0.34201164440E+02  0.44484321043E+02  0.51100000000E-03 0. -1.
        -11    1    3    3    0    0  0.49631071914E+01  0.46448778882E+01  0.63689275266E+01  0.93150717490E+01  0.51100000000E-03 0.  1.
        -12    1    3    3    0    0  0.23041711846E+02 -0.50855207467E+01  0.27463977297E+02  0.36208466620E+02  0.00000000000E+00 0.  1.
</event>
<event>
 7    1  0.2405891E-015  0.9000777E+02  0.7816164E-02  0.1186339E+00
        -11   -1    0    0    0    0  0.00000000000E+00  0.00000000000E+00  0.45593999997E+02  0.45594000000E+02  0.51100000000E-03 0. -1.
         11   -1    0    0    0    0 -0.00000000000E+00 -0.00000000000E+00 -0.45593999997E+02  0.45594000000E+02  0.51100000000E-03 0.  1.
    9900012    2    1    2    0    0 -0.67010297930E+00  0.85935377540E+00  0.45324058605E+00  0.90007765302E+02  0.90000027004E+02 0.  0.
        -12    1    1    2    0    0  0.67010297930E+00 -0.85935377540E+00 -0.45324058605E+00  0.11802346983E+01  0.00000000000E+00 0.  1.
         11    1    3    3    0    0  0.23484848462E+02 -0.28905549175E+01  0.17703220312E+02  0.29551606127E+02  0.51100000000E-03 0. -1.
        -11    1    3    3    0    0 -0.45860606960E+01 -0.22901200989E+02 -0.42992355928E+00  0.23359832919E+02  0.51100000000E-03 0.  1.
        -12    1    3    3    0    0 -0.19568890745E+02  0.26651109682E+02 -0.16820056166E+02  0.37096326256E+02  0.00000000000E+00 0.  1.
</event>
<event>
 7    1  0.2909464E-015  0.9000776E+02  0.7816164E-02  0.1186339E+00
        -11   -1    0    0    0    0  0.00000000000E+00  0.00000000000E+00  0.45593999997E+02  0.45594000000E+02  0.51100000000E-03 0.  1.
         11   -1    0    0    0    0 -0.00000000000E+00 -0.00000000000E+00 -0.45593999997E+02  0.45594000000E+02  0.51100000000E-03 0. -1.
    9900012    2    1    2    0    0  0.95627148634E+00  0.61260454967E+00  0.32129988682E+00  0.90007757183E+02  0.90000018778E+02 0.  0.
        -12    1    1    2    0    0 -0.95627148634E+00 -0.61260454967E+00 -0.32129988682E+00  0.11802428170E+01  0.00000000000E+00 0.  1.
         11    1    3    3    0    0 -0.23515749870E+01  0.41750327493E+01  0.80846028326E+01  0.93979575760E+01  0.51100000000E-03 0. -1.
        -11    1    3    3    0    0 -0.89364871281E+01  0.31957894185E+02  0.15282051545E+02  0.36533668070E+02  0.51100000000E-03 0.  1.
         12    1    3    3    0    0  0.12244333601E+02 -0.35520322385E+02 -0.23045354491E+02  0.44076131537E+02  0.00000000000E+00 0. -1.
</event>
<event>
 7    1  0.2405891E-015  0.9000769E+02  0.7816164E-02  0.1186339E+00
        -11   -1    0    0    0    0  0.00000000000E+00  0.00000000000E+00  0.45593999997E+02  0.45594000000E+02  0.51100000000E-03 0.  1.
         11   -1    0    0    0    0 -0.00000000000E+00 -0.00000000000E+00 -0.45593999997E+02  0.45594000000E+02  0.51100000000E-03 0. -1.
    9900012    2    1    2    0    0  0.50135652615E-01  0.87386049678E+00 -0.79182598515E+00  0.90007688964E+02  0.89999949658E+02 0.  0.
        -12    1    1    2    0    0 -0.50135652615E-01 -0.87386049678E+00  0.79182598515E+00  0.11803110362E+01  0.00000000000E+00 0.  1.
         11    1    3    3    0    0  0.37392314859E+02 -0.11349070358E+02 -0.99039008185E+01  0.40312204854E+02  0.51100000000E-03 0. -1.
        -11    1    3    3    0    0 -0.45112807870E+01 -0.86936793275E+01  0.38830183463E+00  0.98021677789E+01  0.51100000000E-03 0.  1.
        -12    1    3    3    0    0 -0.32830898419E+02  0.20916610183E+02  0.87237729987E+01  0.39893316331E+02  0.00000000000E+00 0.  1.
</event>
<event>
 7    1  0.2405891E-015  0.9000775E+02  0.7816164E-02  0.1186339E+00
        -11   -1    0    0    0    0  0.00000000000E+00  0.00000000000E+00  0.45593999997E+02  0.45594000000E+02  0.51100000000E-03 0. -1.
         11   -1    0    0    0    0 -0.00000000000E+00 -0.00000000000E+00 -0.45593999997E+02  0.45594000000E+02  0.51100000000E-03 0.  1.
    9900012    2    1    2    0    0 -0.32892452518E+00 -0.42483306454E+00  0.10508633654E+01  0.90007750751E+02  0.90000012261E+02 0.  0.
        -12    1    1    2    0    0  0.32892452518E+00  0.42483306454E+00 -0.10508633654E+01  0.11802492486E+01  0.00000000000E+00 0.  1.
         11    1    3    3    0    0 -0.14539835797E+02 -0.25535641934E+02  0.21600512867E+02  0.36469960109E+02  0.51100000000E-03 0. -1.
        -11    1    3    3    0    0 -0.56404363785E+01  0.21794632567E+01  0.92283928472E+01  0.11033033011E+02  0.51100000000E-03 0.  1.
        -12    1    3    3    0    0  0.19851347650E+02  0.22931345613E+02 -0.29778042349E+02  0.42504757631E+02  0.00000000000E+00 0.  1.
</event>
<event>
 7    1  0.2405891E-015  0.9000768E+02  0.7816164E-02  0.1186339E+00
        -11   -1    0    0    0    0  0.00000000000E+00  0.00000000000E+00  0.45593999997E+02  0.45594000000E+02  0.51100000000E-03 0.  1.
         11   -1    0    0    0    0 -0.00000000000E+00 -0.00000000000E+00 -0.45593999997E+02  0.45594000000E+02  0.51100000000E-03 0. -1.
    9900012    2    1    2    0    0 -0.15856300103E+00 -0.54779462678E+00 -0.10334065821E+01  0.90007682101E+02  0.89999942705E+02 0.  0.
        -12    1    1    2    0    0  0.15856300103E+00  0.54779462678E+00  0.10334065821E+01  0.11803178989E+01  0.00000000000E+00 0.  1.
         11    1    3    3    0    0  0.92330362096E+00  0.96197850483E+01  0.60228526711E+01  0.11387164200E+02  0.51100000000E-03 0. -1.
        -11    1    3    3    0    0 -0.29101459488E+02  0.14204118457E+02 -0.21395193858E+02  0.38812449626E+02  0.51100000000E-03 0.  1.
         12    1    3    3    0    0  0.28019592866E+02 -0.24371698132E+02  0.14338934605E+02  0.39808068275E+02  0.00000000000E+00 0. -1.
</event>
<event>
 7    1  0.2405891E-015  0.9000769E+02  0.7816164E-02  0.1186339E+00
        -11   -1    0    0    0    0  0.00000000000E+00  0.00000000000E+00  0.45593999997E+02  0.45594000000E+02  0.51100000000E-03 0.  1.
         11   -1    0    0    0    0 -0.00000000000E+00 -0.00000000000E+00 -0.45593999997E+02  0.45594000000E+02  0.51100000000E-03 0. -1.
    9900012    2    1    2    0    0 -0.90925526793E+00 -0.41624335842E+00 -0.62700572829E+00  0.90007686542E+02  0.89999947204E+02 0.  0.
        -12    1    1    2    0    0  0.90925526793E+00  0.41624335842E+00  0.62700572829E+00  0.11803134579E+01  0.00000000000E+00 0.  1.
         11    1    3    3    0    0  0.21364329202E+02  0.66120592121E+01 -0.29531311798E+02  0.37043923470E+02  0.51100000000E-03 0. -1.
        -11    1    3    3    0    0 -0.84679510511E+00 -0.89277163324E+01 -0.68177220230E+01  0.11265101629E+02  0.51100000000E-03 0.  1.
        -12    1    3    3    0    0 -0.21426789364E+02  0.18994137619E+01  0.35722028093E+02  0.41698661443E+02  0.00000000000E+00 0.  1.
</event>
<event>
 7    1  0.2405891E-015  0.9000775E+02  0.7816164E-02  0.1186339E+00
        -11   -1    0    0    0    0  0.00000000000E+00  0.00000000000E+00  0.45593999997E+02  0.45594000000E+02  0.51100000000E-03 0. -1.
         11   -1    0    0    0    0 -0.00000000000E+00 -0.00000000000E+00 -0.45593999997E+02  0.45594000000E+02  0.51100000000E-03 0.  1.
    9900012    2    1    2    0    0  0.12365954226E+00 -0.11627205158E+01  0.16057567025E+00  0.90007747813E+02  0.90000009284E+02 0.  0.
        -12    1    1    2    0    0 -0.12365954226E+00  0.11627205158E+01 -0.16057567025E+00  0.11802521875E+01  0.00000000000E+00 0.  1.
         11    1    3    3    0    0 -0.34700668281E+01  0.73523612664E+01 -0.18840444774E+01  0.83455499421E+01  0.51100000000E-03 0. -1.
        -11    1    3    3    0    0 -0.10233124155E+02 -0.27733872277E+02 -0.29803561741E+02  0.41977813118E+02  0.51100000000E-03 0.  1.
         12    1    3    3    0    0  0.13826850525E+02  0.19218790495E+02  0.31848181889E+02  0.39684384752E+02  0.00000000000E+00 0. -1.
</event>
<event>
 7    1  0.2405891E-015  0.9000770E+02  0.7816164E-02  0.1186339E+00
        -11   -1    0    0    0    0  0.00000000000E+00  0.00000000000E+00  0.45593999997E+02  0.45594000000E+02  0.51100000000E-03 0. -1.
         11   -1    0    0    0    0 -0.00000000000E+00 -0.00000000000E+00 -0.45593999997E+02  0.45594000000E+02  0.51100000000E-03 0.  1.
    9900012    2    1    2    0    0  0.66194177235E+00 -0.90706539399E+00  0.36357273995E+00  0.90007695092E+02  0.89999955867E+02 0.  0.
        -12    1    1    2    0    0 -0.66194177235E+00  0.90706539399E+00 -0.36357273995E+00  0.11803049081E+01  0.00000000000E+00 0.  1.
         11    1    3    3    0    0 -0.14193581376E+02 -0.34814047806E+02  0.56273184843E+01  0.38015028482E+02  0.51100000000E-03 0. -1.
        -11    1    3    3    0    0 -0.80606765208E+01 -0.18814592244E+01 -0.46448335209E+01  0.94915158687E+01  0.51100000000E-03 0.  1.
        -12    1    3    3    0    0  0.22916199669E+02  0.35788441636E+02 -0.61891222343E+00  0.42501150741E+02  0.00000000000E+00 0.  1.
</event>
<event>
 7    1  0.2405891E-015  0.9000780E+02  0.7816164E-02  0.1186339E+00
        -11   -1    0    0    0    0  0.00000000000E+00  0.00000000000E+00  0.45593999997E+02  0.45594000000E+02  0.51100000000E-03 0.  1.
         11   -1    0    0    0    0 -0.00000000000E+00 -0.00000000000E+00 -0.45593999997E+02  0.45594000000E+02  0.51100000000E-03 0. -1.
    9900012    2    1    2    0    0 -0.10278325594E+01  0.44896240634E+00  0.36724560317E+00  0.90007798176E+02  0.90000060312E+02 0.  0.
        -12    1    1    2    0    0  0.10278325594E+01 -0.44896240634E+00 -0.36724560317E+00  0.11802018240E+01  0.00000000000E+00 0.  1.
         11    1    3    3    0    0 -0.43315747815E+01  0.29917495273E+02 -0.22741031363E+02  0.37828211314E+02  0.51100000000E-03 0. -1.
        -11    1    3    3    0    0  0.19691857360E+01  0.44843311886E+01 -0.57829567174E+01  0.75782258695E+01  0.51100000000E-03 0.  1.
        -12    1    3    3    0    0  0.13345564861E+01 -0.33952864056E+02  0.28891233684E+02  0.44601360992E+02  0.00000000000E+00 0.  1.
</event>
<event>
 7    1  0.2405891E-015  0.9000782E+02  0.7816164E-02  0.1186339E+00
        -11   -1    0    0    0    0  0.00000000000E+00  0.00000000000E+00  0.45593999997E+02  0.45594000000E+02  0.51100000000E-03 0. -1.
         11   -1    0    0    0    0 -0.00000000000E+00 -0.00000000000E+00 -0.45593999997E+02  0.45594000000E+02  0.51100000000E-03 0.  1.
    9900012    2    1    2    0    0  0.13325131322E-01  0.89630107962E+00  0.76765380909E+00  0.90007819694E+02  0.90000082114E+02 0.  0.
        -12    1    1    2    0    0 -0.13325131322E-01 -0.89630107962E+00 -0.76765380909E+00  0.11801803062E+01  0.00000000000E+00 0.  1.
         11    1    3    3    0    0  0.18559094200E+02 -0.34190006367E+01  0.29430949862E+02  0.34961555356E+02  0.51100000000E-03 0. -1.
        -11    1    3    3    0    0 -0.42142070820E+01  0.15274259686E+02  0.52003349852E+01  0.16676511461E+02  0.51100000000E-03 0.  1.
        -12    1    3    3    0    0 -0.14331561987E+02 -0.10958957970E+02 -0.33863631038E+02  0.38369752877E+02  0.00000000000E+00 0.  1.
</event>
<event>
 7    1  0.2405891E-015  0.9000770E+02  0.7816164E-02  0.1186339E+00
        -11   -1    0    0    0    0  0.00000000000E+00  0.00000000000E+00  0.45593999997E+02  0.45594000000E+02  0.51100000000E-03 0.  1.
         11   -1    0    0    0    0 -0.00000000000E+00 -0.00000000000E+00 -0.45593999997E+02  0.45594000000E+02  0.51100000000E-03 0. -1.
    9900012    2    1    2    0    0 -0.46541607939E+00 -0.41746955018E+00 -0.10011084420E+01  0.90007698740E+02  0.89999959563E+02 0.  0.
        -12    1    1    2    0    0  0.46541607939E+00  0.41746955018E+00  0.10011084420E+01  0.11803012602E+01  0.00000000000E+00 0.  1.
         11    1    3    3    0    0 -0.90165885540E+01 -0.20592949042E+02  0.98825068251E+01  0.24556717223E+02  0.51100000000E-03 0. -1.
        -11    1    3    3    0    0  0.17168728966E+02 -0.56787500523E+00  0.20570481728E+02  0.26799859237E+02  0.51100000000E-03 0.  1.
         12    1    3    3    0    0 -0.86175564909E+01  0.20743354497E+02 -0.31454096996E+02  0.38651122279E+02  0.00000000000E+00 0. -1.
</event>
<event>
 7    1  0.2405891E-015  0.9000773E+02  0.7816164E-02  0.1186339E+00
        -11   -1    0    0    0    0  0.00000000000E+00  0.00000000000E+00  0.45593999997E+02  0.45594000000E+02  0.51100000000E-03 0. -1.
         11   -1    0    0    0    0 -0.00000000000E+00 -0.00000000000E+00 -0.45593999997E+02  0.45594000000E+02  0.51100000000E-03 0.  1.
    9900012    2    1    2    0    0  0.62096288008E+00  0.19709974880E+00  0.98417628157E+00  0.90007726234E+02  0.89999987420E+02 0.  0.
        -12    1    1    2    0    0 -0.62096288008E+00 -0.19709974880E+00 -0.98417628157E+00  0.11802737660E+01  0.00000000000E+00 0.  1.
         11    1    3    3    0    0 -0.36018803597E+02 -0.29638960948E+01 -0.15042944429E+02  0.39146252311E+02  0.51100000000E-03 0. -1.
        -11    1    3    3    0    0  0.32124992931E+01  0.63538929065E+00 -0.86410848413E+01  0.92407910243E+01  0.51100000000E-03 0.  1.
        -12    1    3    3    0    0  0.33427267184E+02  0.25256065529E+01  0.24668205552E+02  0.41620682899E+02  0.00000000000E+00 0.  1.
</event>
<event>
 7    1  0.2405891E-015  0.9000773E+02  0.7816164E-02  0.1186339E+00
        -11   -1    0    0    0    0  0.00000000000E+00  0.00000000000E+00  0.45593999997E+02  0.45594000000E+02  0.51100000000E-03 0. -1.
         11   -1    0    0    0    0 -0.00000000000E+00 -0.00000000000E+00 -0.45593999997E+02  0.45594000000E+02  0.51100000000E-03 0.  1.
    9900012    2    1    2    0    0  0.11298146061E+01  0.33932085974E+00  0.37807154471E-01  0.90007725002E+02  0.89999986172E+02 0.  0.
        -12    1    1    2    0    0 -0.11298146061E+01 -0.33932085974E+00 -0.37807154471E-01  0.11802749980E+01  0.00000000000E+00 0.  1.
         11    1    3    3    0    0 -0.24489792662E+02 -0.17363174350E+02  0.27381596749E+02  0.40632272998E+02  0.51100000000E-03 0. -1.
        -11    1    3    3    0    0 -0.51585654392E+01  0.65711358912E+01 -0.48205617729E+01  0.96451252122E+01  0.51100000000E-03 0.  1.
        -12    1    3    3    0    0  0.30778172707E+02  0.11131359319E+02 -0.22523227822E+02  0.39730326792E+02  0.00000000000E+00 0.  1.
</event>
<event>
 7    1  0.2405891E-015  0.9000774E+02  0.7816164E-02  0.1186339E+00
        -11   -1    0    0    0    0  0.00000000000E+00  0.00000000000E+00  0.45593999997E+02  0.45594000000E+02  0.51100000000E-03 0.  1.
         11   -1    0    0    0    0 -0.00000000000E+00 -0.00000000000E+00 -0.45593999997E+02  0.45594000000E+02  0.51100000000E-03 0. -1.
    9900012    2    1    2    0    0  0.12259086259E+00 -0.80463253145E+00 -0.85472170876E+00  0.90007741033E+02  0.90000002414E+02 0.  0.
        -12    1    1    2    0    0 -0.12259086259E+00  0.80463253145E+00  0.85472170876E+00  0.11802589672E+01  0.00000000000E+00 0.  1.
         11    1    3    3    0    0  0.43914658910E+01  0.69831594399E+01 -0.38462076614E+01  0.91018021331E+01  0.51100000000E-03 0. -1.
        -11    1    3    3    0    0 -0.14802859888E+02  0.31374907801E+02 -0.13364993435E+02  0.37177043322E+02  0.51100000000E-03 0.  1.
         12    1    3    3    0    0  0.10533984860E+02 -0.39162699772E+02  0.16356479387E+02  0.43728895578E+02  0.00000000000E+00 0. -1.
</event>
<event>
 7    1  0.2405891E-015  0.9000761E+02  0.7816164E-02  0.1186339E+00
        -11   -1    0    0    0    0  0.00000000000E+00  0.00000000000E+00  0.45593999997E+02  0.45594000000E+02  0.51100000000E-03 0. -1.
         11   -1    0    0    0    0 -0.00000000000E+00 -0.00000000000E+00 -0.45593999997E+02  0.45594000000E+02  0.51100000000E-03 0.  1.
    9900012    2    1    2    0    0  0.51157165164E+00 -0.10570559794E+01 -0.11936251897E+00  0.90007610103E+02  0.89999869756E+02 0.  0.
        -12    1    1    2    0    0 -0.51157165164E+00  0.10570559794E+01  0.11936251897E+00  0.11803898971E+01  0.00000000000E+00 0.  1.
         11    1    3    3    0    0 -0.17633341990E+01 -0.84989399245E+01  0.35245334570E+01  0.93682262829E+01  0.51100000000E-03 0. -1.
        -11    1    3    3    0    0  0.53672977218E+01 -0.12923363339E+02 -0.38048221389E+02  0.40539959989E+02  0.51100000000E-03 0.  1.
         12    1    3    3    0    0 -0.30923918711E+01  0.20365247285E+02  0.34404325413E+02  0.40099423831E+02  0.00000000000E+00 0. -1.
</event>
<event>
 7    1  0.2405891E-015  0.9000818E+02  0.7816164E-02  0.1186338E+00
        -11   -1    0    0    0    0  0.00000000000E+00  0.00000000000E+00  0.45593999997E+02  0.45594000000E+02  0.51100000000E-03 0.  1.
         11   -1    0    0    0    0 -0.00000000000E+00 -0.00000000000E+00 -0.45593999997E+02  0.45594000000E+02  0.51100000000E-03 0. -1.
    9900012    2    1    2    0    0  0.43099649125E+00  0.28782653933E+00 -0.10598916183E+01  0.90008181228E+02  0.90000448419E+02 0.  0.
        -12    1    1    2    0    0 -0.43099649125E+00 -0.28782653933E+00  0.10598916183E+01  0.11798187720E+01  0.00000000000E+00 0.  1.
         11    1    3    3    0    0  0.29536190181E+02 -0.22118641737E+02 -0.39722313814E+01  0.37113332713E+02  0.51100000000E-03 0. -1.
        -11    1    3    3    0    0 -0.43540078980E+01 -0.99675439701E+01  0.52468561475E+01  0.12076374343E+02  0.51100000000E-03 0.  1.
        -12    1    3    3    0    0 -0.24751185791E+02  0.32374012246E+02 -0.23345163844E+01  0.40818474172E+02  0.00000000000E+00 0.  1.
</event>
<event>
 7    1  0.2405891E-015  0.9000773E+02  0.7816164E-02  0.1186339E+00
        -11   -1    0    0    0    0  0.00000000000E+00  0.00000000000E+00  0.45593999997E+02  0.45594000000E+02  0.51100000000E-03 0.  1.
         11   -1    0    0    0    0 -0.00000000000E+00 -0.00000000000E+00 -0.45593999997E+02  0.45594000000E+02  0.51100000000E-03 0. -1.
    9900012    2    1    2    0    0  0.72149124191E+00  0.97213888231E-01 -0.92899536801E+00  0.90007732002E+02  0.89999993265E+02 0.  0.
        -12    1    1    2    0    0 -0.72149124191E+00 -0.97213888231E-01  0.92899536801E+00  0.11802679975E+01  0.00000000000E+00 0.  1.
         11    1    3    3    0    0 -0.42244605141E+01 -0.46427993340E+01 -0.69501117251E+01  0.93651324360E+01  0.51100000000E-03 0. -1.
        -11    1    3    3    0    0  0.21072087905E+02 -0.82060263432E+00  0.38533844413E+02  0.43926796410E+02  0.51100000000E-03 0.  1.
         12    1    3    3    0    0 -0.16126136149E+02  0.55606158566E+01 -0.32512728056E+02  0.36715803156E+02  0.00000000000E+00 0. -1.
</event>
<event>
 7    1  0.2405891E-015  0.9000777E+02  0.7816164E-02  0.1186339E+00
        -11   -1    0    0    0    0  0.00000000000E+00  0.00000000000E+00  0.45593999997E+02  0.45594000000E+02  0.51100000000E-03 0.  1.
         11   -1    0    0    0    0 -0.00000000000E+00 -0.00000000000E+00 -0.45593999997E+02  0.45594000000E+02  0.51100000000E-03 0. -1.
    9900012    2    1    2    0    0  0.37047748049E+00  0.11146806630E+01 -0.11475914515E+00  0.90007772816E+02  0.90000034617E+02 0.  0.
        -12    1    1    2    0    0 -0.37047748049E+00 -0.11146806630E+01  0.11475914515E+00  0.11802271838E+01  0.00000000000E+00 0.  1.
         11    1    3    3    0    0  0.85454288945E+01  0.21361935453E+02 -0.30983002351E+02  0.38591489686E+02  0.51100000000E-03 0. -1.
        -11    1    3    3    0    0 -0.53460619597E+00  0.92313561940E+01  0.20115931244E+01  0.94630992875E+01  0.51100000000E-03 0.  1.
        -12    1    3    3    0    0 -0.76403452181E+01 -0.29478610984E+02  0.28856650081E+02  0.41953183842E+02  0.00000000000E+00 0.  1.
</event>
<event>
 7    1  0.2405891E-015  0.9000752E+02  0.7816164E-02  0.1186339E+00
        -11   -1    0    0    0    0  0.00000000000E+00  0.00000000000E+00  0.45593999997E+02  0.45594000000E+02  0.51100000000E-03 0.  1.
         11   -1    0    0    0    0 -0.00000000000E+00 -0.00000000000E+00 -0.45593999997E+02  0.45594000000E+02  0.51100000000E-03 0. -1.
    9900012    2    1    2    0    0  0.91475878334E+00  0.52527594716E+00  0.52994589127E+00  0.90007516582E+02  0.89999775001E+02 0.  0.
        -12    1    1    2    0    0 -0.91475878334E+00 -0.52527594716E+00 -0.52994589127E+00  0.11804834179E+01  0.00000000000E+00 0.  1.
         11    1    3    3    0    0  0.47592530848E+01  0.37916656890E+01  0.10175845442E+02  0.11856434934E+02  0.51100000000E-03 0. -1.
        -11    1    3    3    0    0  0.64282044007E-03  0.33825149301E+02  0.10947112122E+02  0.35552496252E+02  0.51100000000E-03 0.  1.
         12    1    3    3    0    0 -0.38451371219E+01 -0.37091539043E+02 -0.20593011672E+02  0.42598585397E+02  0.00000000000E+00 0. -1.
</event>
<event>
 7    1  0.2405891E-015  0.9000775E+02  0.7816164E-02  0.1186339E+00
        -11   -1    0    0    0    0  0.00000000000E+00  0.00000000000E+00  0.45593999997E+02  0.45594000000E+02  0.51100000000E-03 0.  1.
         11   -1    0    0    0    0 -0.00000000000E+00 -0.00000000000E+00 -0.45593999997E+02  0.45594000000E+02  0.51100000000E-03 0. -1.
    9900012    2    1    2    0    0  0.18390607677E+00 -0.11641520843E+01 -0.62538021965E-01  0.90007753193E+02  0.90000014735E+02 0.  0.
        -12    1    1    2    0    0 -0.18390607677E+00  0.11641520843E+01  0.62538021965E-01  0.11802468067E+01  0.00000000000E+00 0.  1.
         11    1    3    3    0    0 -0.16959494694E+02 -0.36358254695E+02 -0.11348623107E+02  0.41693385463E+02  0.51100000000E-03 0. -1.
        -11    1    3    3    0    0 -0.13132919728E+01  0.41778068213E+01 -0.66878400403E+01  0.79941234859E+01  0.51100000000E-03 0.  1.
        -12    1    3    3    0    0  0.18456692743E+02  0.31016295789E+02  0.17973925126E+02  0.40320244244E+02  0.00000000000E+00 0.  1.
</event>
<event>
 7    1  0.2405891E-015  0.9000775E+02  0.7816164E-02  0.1186339E+00
        -11   -1    0    0    0    0  0.00000000000E+00  0.00000000000E+00  0.45593999997E+02  0.45594000000E+02  0.51100000000E-03 0.  1.
         11   -1    0    0    0    0 -0.00000000000E+00 -0.00000000000E+00 -0.45593999997E+02  0.45594000000E+02  0.51100000000E-03 0. -1.
    9900012    2    1    2    0    0 -0.59400903113E+00 -0.45017469188E+00 -0.91514462919E+00  0.90007748470E+02  0.90000009950E+02 0.  0.
        -12    1    1    2    0    0  0.59400903113E+00  0.45017469188E+00  0.91514462919E+00  0.11802515302E+01  0.00000000000E+00 0.  1.
         11    1    3    3    0    0  0.33988049653E+02  0.96671887770E+01 -0.14759528685E+02  0.38294722160E+02  0.51100000000E-03 0. -1.
        -11    1    3    3    0    0 -0.21911208291E+01  0.24394967961E+01 -0.93724027188E+01  0.99294555787E+01  0.51100000000E-03 0.  1.
        -12    1    3    3    0    0 -0.32390937855E+02 -0.12556860265E+02  0.23216786775E+02  0.41783570731E+02  0.00000000000E+00 0.  1.
</event>
<event>
 7    1  0.2405891E-015  0.9000757E+02  0.7816164E-02  0.1186339E+00
        -11   -1    0    0    0    0  0.00000000000E+00  0.00000000000E+00  0.45593999997E+02  0.45594000000E+02  0.51100000000E-03 0.  1.
         11   -1    0    0    0    0 -0.00000000000E+00 -0.00000000000E+00 -0.45593999997E+02  0.45594000000E+02  0.51100000000E-03 0. -1.
    9900012    2    1    2    0    0  0.46644802511E-01 -0.11338639303E+01  0.32493418948E+00  0.90007574069E+02  0.89999833247E+02 0.  0.
        -12    1    1    2    0    0 -0.46644802511E-01  0.11338639303E+01 -0.32493418948E+00  0.11804259305E+01  0.00000000000E+00 0.  1.
         11    1    3    3    0    0  0.87755807379E+01 -0.83826583550E+01 -0.35461421968E+02  0.37480557982E+02  0.51100000000E-03 0. -1.
        -11    1    3    3    0    0  0.12444910170E+02  0.19030000854E+01  0.26879069597E+01  0.12873307366E+02  0.51100000000E-03 0.  1.
        -12    1    3    3    0    0 -0.21173846105E+02  0.53457943394E+01  0.33098449198E+02  0.39653708721E+02  0.00000000000E+00 0.  1.
</event>
<event>
 7    1  0.2405891E-015  0.9000775E+02  0.7816164E-02  0.1186339E+00
        -11   -1    0    0    0    0  0.00000000000E+00  0.00000000000E+00  0.45593999997E+02  0.45594000000E+02  0.51100000000E-03 0.  1.
         11   -1    0    0    0    0 -0.00000000000E+00 -0.00000000000E+00 -0.45593999997E+02  0.45594000000E+02  0.51100000000E-03 0. -1.
    9900012    2    1    2    0    0  0.45848393604E+00 -0.23054728037E+00 -0.10628454719E+01  0.90007745762E+02  0.90000007207E+02 0.  0.
        -12    1    1    2    0    0 -0.45848393604E+00  0.23054728037E+00  0.10628454719E+01  0.11802542376E+01  0.00000000000E+00 0.  1.
         11    1    3    3    0    0  0.45951874918E+01  0.93136089387E+01 -0.76059624572E+01  0.12872828932E+02  0.51100000000E-03 0. -1.
        -11    1    3    3    0    0 -0.23053998630E+02  0.26628160618E+02  0.86231478740E+01  0.36261611523E+02  0.51100000000E-03 0.  1.
         12    1    3    3    0    0  0.18917295074E+02 -0.36172316837E+02 -0.20800308888E+01  0.40873305308E+02  0.00000000000E+00 0. -1.
</event>
<event>
 7    1  0.2405891E-015  0.9000790E+02  0.7816164E-02  0.1186339E+00
        -11   -1    0    0    0    0  0.00000000000E+00  0.00000000000E+00  0.45593999997E+02  0.45594000000E+02  0.51100000000E-03 0.  1.
         11   -1    0    0    0    0 -0.00000000000E+00 -0.00000000000E+00 -0.45593999997E+02  0.45594000000E+02  0.51100000000E-03 0. -1.
    9900012    2    1    2    0    0  0.52113530910E+00  0.10362966946E+01  0.21713873603E+00  0.90007897428E+02  0.90000160874E+02 0.  0.
        -12    1    1    2    0    0 -0.52113530910E+00 -0.10362966946E+01 -0.21713873603E+00  0.11801025720E+01  0.00000000000E+00 0.  1.
         11    1    3    3    0    0 -0.28697144591E+01 -0.81875644564E+00  0.20851474166E+01  0.36405306212E+01  0.51100000000E-03 0. -1.
        -11    1    3    3    0    0  0.11589804008E+02 -0.28000561308E+02  0.29500918074E+02  0.42292542582E+02  0.51100000000E-03 0.  1.
         12    1    3    3    0    0 -0.81989542402E+01  0.29855614448E+02 -0.31368926755E+02  0.44074824225E+02  0.00000000000E+00 0. -1.
</event>
<event>
 7    1  0.2405891E-015  0.9000774E+02  0.7816164E-02  0.1186339E+00
        -11   -1    0    0    0    0  0.00000000000E+00  0.00000000000E+00  0.45593999997E+02  0.45594000000E+02  0.51100000000E-03 0. -1.
         11   -1    0    0    0    0 -0.00000000000E+00 -0.00000000000E+00 -0.45593999997E+02  0.45594000000E+02  0.51100000000E-03 0.  1.
    9900012    2    1    2    0    0 -0.23940058501E+00 -0.10407266581E+01 -0.50258189483E+00  0.90007740207E+02  0.90000001578E+02 0.  0.
        -12    1    1    2    0    0  0.23940058501E+00  0.10407266581E+01  0.50258189483E+00  0.11802597926E+01  0.00000000000E+00 0.  1.
         11    1    3    3    0    0 -0.44979299750E+01  0.68032812216E+01 -0.31255462268E+01  0.87341312628E+01  0.51100000000E-03 0. -1.
        -11    1    3    3    0    0 -0.12946509914E+02 -0.38513959514E+01 -0.36191296774E+02  0.38629720840E+02  0.51100000000E-03 0.  1.
         12    1    3    3    0    0  0.17205039304E+02 -0.39926119284E+01  0.38814261106E+02  0.42643888105E+02  0.00000000000E+00 0. -1.
</event>
<event>
 7    1  0.2405891E-015  0.9000773E+02  0.7816164E-02  0.1186339E+00
        -11   -1    0    0    0    0  0.00000000000E+00  0.00000000000E+00  0.45593999997E+02  0.45594000000E+02  0.51100000000E-03 0.  1.
         11   -1    0    0    0    0 -0.00000000000E+00 -0.00000000000E+00 -0.45593999997E+02  0.45594000000E+02  0.51100000000E-03 0. -1.
    9900012    2    1    2    0    0 -0.27804300212E+00 -0.22359608963E+00 -0.11250465724E+01  0.90007731847E+02  0.89999993108E+02 0.  0.
        -12    1    1    2    0    0  0.27804300212E+00  0.22359608963E+00  0.11250465724E+01  0.11802681527E+01  0.00000000000E+00 0.  1.
         11    1    3    3    0    0 -0.28125942736E+01 -0.53624914340E+01 -0.65689640579E+01  0.89341082366E+01  0.51100000000E-03 0. -1.
        -11    1    3    3    0    0 -0.14040235848E+02  0.36109371616E+02 -0.13669153312E+02  0.41083581802E+02  0.51100000000E-03 0.  1.
         12    1    3    3    0    0  0.16574787120E+02 -0.30970476272E+02  0.19113070797E+02  0.39990041809E+02  0.00000000000E+00 0. -1.
</event>
<event>
 7    1  0.2405891E-015  0.9000769E+02  0.7816164E-02  0.1186339E+00
        -11   -1    0    0    0    0  0.00000000000E+00  0.00000000000E+00  0.45593999997E+02  0.45594000000E+02  0.51100000000E-03 0.  1.
         11   -1    0    0    0    0 -0.00000000000E+00 -0.00000000000E+00 -0.45593999997E+02  0.45594000000E+02  0.51100000000E-03 0. -1.
    9900012    2    1    2    0    0 -0.72506115150E+00 -0.82284377954E+00  0.43628364352E+00  0.90007691152E+02  0.89999951875E+02 0.  0.
        -12    1    1    2    0    0  0.72506115150E+00  0.82284377954E+00 -0.43628364352E+00  0.11803088479E+01  0.00000000000E+00 0.  1.
         11    1    3    3    0    0  0.35862607990E+01  0.91241129939E+01  0.70593101523E+01  0.12080751820E+02  0.51100000000E-03 0. -1.
        -11    1    3    3    0    0 -0.37850813213E+02  0.51002065886E+01 -0.13539348894E+02  0.40521724258E+02  0.51100000000E-03 0.  1.
         12    1    3    3    0    0  0.33539491263E+02 -0.15047163362E+02  0.69163223847E+01  0.37405215074E+02  0.00000000000E+00 0. -1.
</event>
<event>
 7    1  0.2405891E-015  0.9000878E+02  0.7816164E-02  0.1186337E+00
        -11   -1    0    0    0    0  0.00000000000E+00  0.00000000000E+00  0.45593999997E+02  0.45594000000E+02  0.51100000000E-03 0. -1.
         11   -1    0    0    0    0 -0.00000000000E+00 -0.00000000000E+00 -0.45593999997E+02  0.45594000000E+02  0.51100000000E-03 0.  1.
    9900012    2    1    2    0    0 -0.52598465542E+00 -0.89517535198E+00  0.55907712091E+00  0.90008777377E+02  0.90001052432E+02 0.  0.
        -12    1    1    2    0    0  0.52598465542E+00  0.89517535198E+00 -0.55907712091E+00  0.11792226234E+01  0.00000000000E+00 0.  1.
         11    1    3    3    0    0 -0.12204402283E+02 -0.28974487227E+02  0.22975872510E+02  0.38940455352E+02  0.51100000000E-03 0. -1.
        -11    1    3    3    0    0  0.65372960145E+01  0.52702104591E+01  0.87359908314E+01  0.12117297287E+02  0.51100000000E-03 0.  1.
        -12    1    3    3    0    0  0.51411216135E+01  0.22809101416E+02 -0.31152786220E+02  0.38951024738E+02  0.00000000000E+00 0.  1.
</event>
<event>
 7    1  0.2405891E-015  0.9000773E+02  0.7816164E-02  0.1186339E+00
        -11   -1    0    0    0    0  0.00000000000E+00  0.00000000000E+00  0.45593999997E+02  0.45594000000E+02  0.51100000000E-03 0.  1.
         11   -1    0    0    0    0 -0.00000000000E+00 -0.00000000000E+00 -0.45593999997E+02  0.45594000000E+02  0.51100000000E-03 0. -1.
    9900012    2    1    2    0    0  0.24699891774E+00  0.37079028271E+00 -0.10929517881E+01  0.90007729899E+02  0.89999991134E+02 0.  0.
        -12    1    1    2    0    0 -0.24699891774E+00 -0.37079028271E+00  0.10929517881E+01  0.11802701005E+01  0.00000000000E+00 0.  1.
         11    1    3    3    0    0  0.13123034929E+01  0.34562686829E+01 -0.42951588858E+02  0.43110403841E+02  0.51100000000E-03 0. -1.
        -11    1    3    3    0    0  0.41938127115E+01 -0.62593231530E+01  0.39745162727E+01  0.85184488762E+01  0.51100000000E-03 0.  1.
        -12    1    3    3    0    0 -0.52591172867E+01  0.31738447528E+01  0.37884120797E+02  0.38378877182E+02  0.00000000000E+00 0.  1.
</event>
<event>
 7    1  0.2405891E-015  0.9000787E+02  0.7816164E-02  0.1186339E+00
        -11   -1    0    0    0    0  0.00000000000E+00  0.00000000000E+00  0.45593999997E+02  0.45594000000E+02  0.51100000000E-03 0.  1.
         11   -1    0    0    0    0 -0.00000000000E+00 -0.00000000000E+00 -0.45593999997E+02  0.45594000000E+02  0.51100000000E-03 0. -1.
    9900012    2    1    2    0    0  0.34911997508E+00 -0.87519974713E+00 -0.71052916434E+00  0.90007868207E+02  0.90000131268E+02 0.  0.
        -12    1    1    2    0    0 -0.34911997508E+00  0.87519974713E+00  0.71052916434E+00  0.11801317925E+01  0.00000000000E+00 0.  1.
         11    1    3    3    0    0  0.22644715334E+02 -0.16170252042E+02 -0.31621331296E+02  0.42120882907E+02  0.51100000000E-03 0. -1.
        -11    1    3    3    0    0 -0.87202835550E+01 -0.17823816632E+01 -0.12883869228E+01  0.89933403581E+01  0.51100000000E-03 0.  1.
        -12    1    3    3    0    0 -0.13575311804E+02  0.17077433958E+02  0.32199189054E+02  0.38893644943E+02  0.00000000000E+00 0.  1.
</event>
<event>
 7    1  0.2405891E-015  0.9000795E+02  0.7816164E-02  0.1186339E+00
        -11   -1    0    0    0    0  0.00000000000E+00  0.00000000000E+00  0.45593999997E+02  0.45594000000E+02  0.51100000000E-03 0.  1.
         11   -1    0    0    0    0 -0.00000000000E+00 -0.00000000000E+00 -0.45593999997E+02  0.45594000000E+02  0.51100000000E-03 0. -1.
    9900012    2    1    2    0    0 -0.12442707735E+00 -0.11600523267E+01 -0.17694062522E+00  0.90007952762E+02  0.90000216939E+02 0.  0.
        -12    1    1    2    0    0  0.12442707735E+00  0.11600523267E+01  0.17694062522E+00  0.11800472376E+01  0.00000000000E+00 0.  1.
         11    1    3    3    0    0 -0.14440426912E+02  0.34489696642E+02 -0.76906239244E+01  0.38173430557E+02  0.51100000000E-03 0. -1.
        -11    1    3    3    0    0 -0.30079238365E+01  0.21001807053E+01  0.95693465785E+01  0.10248451542E+02  0.51100000000E-03 0.  1.
        -12    1    3    3    0    0  0.17323923671E+02 -0.37749929674E+02 -0.20556632794E+01  0.41586070664E+02  0.00000000000E+00 0.  1.
</event>
<event>
 7    1  0.2405891E-015  0.9000769E+02  0.7816164E-02  0.1186339E+00
        -11   -1    0    0    0    0  0.00000000000E+00  0.00000000000E+00  0.45593999997E+02  0.45594000000E+02  0.51100000000E-03 0. -1.
         11   -1    0    0    0    0 -0.00000000000E+00 -0.00000000000E+00 -0.45593999997E+02  0.45594000000E+02  0.51100000000E-03 0.  1.
    9900012    2    1    2    0    0  0.26198299377E+00  0.93826109931E+00  0.66646295187E+00  0.90007685700E+02  0.89999946352E+02 0.  0.
        -12    1    1    2    0    0 -0.26198299377E+00 -0.93826109931E+00 -0.66646295187E+00  0.11803142995E+01  0.00000000000E+00 0.  1.
         11    1    3    3    0    0 -0.18621213878E+02  0.11598983042E+02 -0.17420359685E+01  0.22007287508E+02  0.51100000000E-03 0. -1.
        -11    1    3    3    0    0  0.12330482360E+02 -0.23949817364E+01 -0.30743646386E+02  0.33210668860E+02  0.51100000000E-03 0.  1.
         12    1    3    3    0    0  0.65527145115E+01 -0.82657402066E+01  0.33152145306E+02  0.34789729333E+02  0.00000000000E+00 0. -1.
</event>
<event>
 7    1  0.2405891E-015  0.9000774E+02  0.7816164E-02  0.1186339E+00
        -11   -1    0    0    0    0  0.00000000000E+00  0.00000000000E+00  0.45593999997E+02  0.45594000000E+02  0.51100000000E-03 0. -1.
         11   -1    0    0    0    0 -0.00000000000E+00 -0.00000000000E+00 -0.45593999997E+02  0.45594000000E+02  0.51100000000E-03 0.  1.
    9900012    2    1    2    0    0  0.91065537116E+00  0.37278742857E+00  0.65172229117E+00  0.90007743411E+02  0.90000004824E+02 0.  0.
        -12    1    1    2    0    0 -0.91065537116E+00 -0.37278742857E+00 -0.65172229117E+00  0.11802565894E+01  0.00000000000E+00 0.  1.
         11    1    3    3    0    0  0.61417102315E+01  0.17659429439E+02  0.33530239173E+02  0.38390793062E+02  0.51100000000E-03 0. -1.
        -11    1    3    3    0    0  0.61949955213E+01 -0.42033206253E+01  0.56332476481E+01  0.93690636199E+01  0.51100000000E-03 0.  1.
        -12    1    3    3    0    0 -0.11426050382E+02 -0.13083321385E+02 -0.38511764530E+02  0.42247886728E+02  0.00000000000E+00 0.  1.
</event>
<event>
 7    1  0.2405891E-015  0.9000773E+02  0.7816164E-02  0.1186339E+00
        -11   -1    0    0    0    0  0.00000000000E+00  0.00000000000E+00  0.45593999997E+02  0.45594000000E+02  0.51100000000E-03 0. -1.
         11   -1    0    0    0    0 -0.00000000000E+00 -0.00000000000E+00 -0.45593999997E+02  0.45594000000E+02  0.51100000000E-03 0.  1.
    9900012    2    1    2    0    0  0.11249490259E+00 -0.11743484607E+01  0.36026485390E-01  0.90007725745E+02  0.89999986924E+02 0.  0.
        -12    1    1    2    0    0 -0.11249490259E+00  0.11743484607E+01 -0.36026485390E-01  0.11802742554E+01  0.00000000000E+00 0.  1.
         11    1    3    3    0    0  0.15897973463E+02  0.97351522146E+01  0.31134280279E+02  0.36288595421E+02  0.51100000000E-03 0. -1.
        -11    1    3    3    0    0 -0.26279990743E+01  0.81135229818E+01  0.56980934290E+01  0.10256895402E+02  0.51100000000E-03 0.  1.
        -12    1    3    3    0    0 -0.13157479486E+02 -0.19023023657E+02 -0.36796347222E+02  0.43462234922E+02  0.00000000000E+00 0.  1.
</event>
<event>
 7    1  0.2405891E-015  0.9000788E+02  0.7816164E-02  0.1186339E+00
        -11   -1    0    0    0    0  0.00000000000E+00  0.00000000000E+00  0.45593999997E+02  0.45594000000E+02  0.51100000000E-03 0.  1.
         11   -1    0    0    0    0 -0.00000000000E+00 -0.00000000000E+00 -0.45593999997E+02  0.45594000000E+02  0.51100000000E-03 0. -1.
    9900012    2    1    2    0    0 -0.11753207792E+01 -0.16969412176E-01  0.10500693336E+00  0.90007875705E+02  0.90000138864E+02 0.  0.
        -12    1    1    2    0    0  0.11753207792E+01  0.16969412176E-01 -0.10500693336E+00  0.11801242947E+01  0.00000000000E+00 0.  1.
         11    1    3    3    0    0 -0.32887210889E+02  0.19546756769E+02 -0.76996137381E+01  0.39024715146E+02  0.51100000000E-03 0. -1.
        -11    1    3    3    0    0 -0.21589136899E+01 -0.51582576354E+01 -0.89412973226E+01  0.10545867827E+02  0.51100000000E-03 0.  1.
        -12    1    3    3    0    0  0.33870803800E+02 -0.14405468545E+02  0.16745917994E+02  0.40437292732E+02  0.00000000000E+00 0.  1.
</event>
<event>
 7    1  0.2405891E-015  0.9000773E+02  0.7816164E-02  0.1186339E+00
        -11   -1    0    0    0    0  0.00000000000E+00  0.00000000000E+00  0.45593999997E+02  0.45594000000E+02  0.51100000000E-03 0.  1.
         11   -1    0    0    0    0 -0.00000000000E+00 -0.00000000000E+00 -0.45593999997E+02  0.45594000000E+02  0.51100000000E-03 0. -1.
    9900012    2    1    2    0    0  0.44197269319E+00  0.17227942466E+00  0.10807449715E+01  0.90007733185E+02  0.89999994463E+02 0.  0.
        -12    1    1    2    0    0 -0.44197269319E+00 -0.17227942466E+00 -0.10807449715E+01  0.11802668152E+01  0.00000000000E+00 0.  1.
         11    1    3    3    0    0  0.33604800134E+02 -0.23084335561E+02 -0.15224252428E+02  0.43519501406E+02  0.51100000000E-03 0. -1.
        -11    1    3    3    0    0 -0.25881131375E+01  0.77988034740E+01 -0.68714529309E+00  0.82457161092E+01  0.51100000000E-03 0.  1.
        -12    1    3    3    0    0 -0.30574714304E+02  0.15457811512E+02  0.16992142692E+02  0.38242515670E+02  0.00000000000E+00 0.  1.
</event>
<event>
 7    1  0.2405891E-015  0.9000790E+02  0.7816164E-02  0.1186339E+00
        -11   -1    0    0    0    0  0.00000000000E+00  0.00000000000E+00  0.45593999997E+02  0.45594000000E+02  0.51100000000E-03 0. -1.
         11   -1    0    0    0    0 -0.00000000000E+00 -0.00000000000E+00 -0.45593999997E+02  0.45594000000E+02  0.51100000000E-03 0.  1.
    9900012    2    1    2    0    0  0.59722437376E+00  0.95199583296E+00  0.36008899487E+00  0.90007899537E+02  0.90000163011E+02 0.  0.
        -12    1    1    2    0    0 -0.59722437376E+00 -0.95199583296E+00 -0.36008899487E+00  0.11801004630E+01  0.00000000000E+00 0.  1.
         11    1    3    3    0    0 -0.31515794562E+02 -0.22939888107E+02 -0.66508122090E+01  0.39543862691E+02  0.51100000000E-03 0. -1.
        -11    1    3    3    0    0  0.88766588125E+01 -0.16994824577E+01  0.12540572517E+02  0.15457984073E+02  0.51100000000E-03 0.  1.
        -12    1    3    3    0    0  0.23236360123E+02  0.25591366398E+02 -0.55296713131E+01  0.35006052773E+02  0.00000000000E+00 0.  1.
</event>
<event>
 7    1  0.2405891E-015  0.9000881E+02  0.7816164E-02  0.1186337E+00
        -11   -1    0    0    0    0  0.00000000000E+00  0.00000000000E+00  0.45593999997E+02  0.45594000000E+02  0.51100000000E-03 0.  1.
         11   -1    0    0    0    0 -0.00000000000E+00 -0.00000000000E+00 -0.45593999997E+02  0.45594000000E+02  0.51100000000E-03 0. -1.
    9900012    2    1    2    0    0 -0.41609190608E+00  0.94757664888E+00  0.56520640269E+00  0.90008808643E+02  0.90001084110E+02 0.  0.
        -12    1    1    2    0    0  0.41609190608E+00 -0.94757664888E+00 -0.56520640269E+00  0.11791913574E+01  0.00000000000E+00 0.  1.
         11    1    3    3    0    0 -0.14527943672E+02 -0.15941006644E+02 -0.32634722371E+02  0.39117795754E+02  0.51100000000E-03 0. -1.
        -11    1    3    3    0    0  0.80327156618E+01 -0.37465966712E+01 -0.25011948944E+01  0.92096408009E+01  0.51100000000E-03 0.  1.
        -12    1    3    3    0    0  0.60791361042E+01  0.20635179964E+02  0.35701123668E+02  0.41681372088E+02  0.00000000000E+00 0.  1.
</event>
<event>
 7    1  0.2405891E-015  0.9000771E+02  0.7816164E-02  0.1186339E+00
        -11   -1    0    0    0    0  0.00000000000E+00  0.00000000000E+00  0.45593999997E+02  0.45594000000E+02  0.51100000000E-03 0. -1.
         11   -1    0    0    0    0 -0.00000000000E+00 -0.00000000000E+00 -0.45593999997E+02  0.45594000000E+02  0.51100000000E-03 0.  1.
    9900012    2    1    2    0    0  0.48009134798E+00 -0.89875981680E+00 -0.59567436252E+00  0.90007709842E+02  0.89999970812E+02 0.  0.
        -12    1    1    2    0    0 -0.48009134798E+00  0.89875981680E+00  0.59567436252E+00  0.11802901579E+01  0.00000000000E+00 0.  1.
         11    1    3    3    0    0  0.79047273908E+01 -0.30269121724E+02  0.27272548228E+02  0.41502967751E+02  0.51100000000E-03 0. -1.
        -11    1    3    3    0    0 -0.34851857005E+01  0.99081838994E+01  0.37632652164E+01  0.11157096078E+02  0.51100000000E-03 0.  1.
        -12    1    3    3    0    0 -0.39394503424E+01  0.19462178008E+02 -0.31631487806E+02  0.37347646012E+02  0.00000000000E+00 0.  1.
</event>
<event>
 7    1  0.2405891E-015  0.9000782E+02  0.7816164E-02  0.1186339E+00
        -11   -1    0    0    0    0  0.00000000000E+00  0.00000000000E+00  0.45593999997E+02  0.45594000000E+02  0.51100000000E-03 0.  1.
         11   -1    0    0    0    0 -0.00000000000E+00 -0.00000000000E+00 -0.45593999997E+02  0.45594000000E+02  0.51100000000E-03 0. -1.
    9900012    2    1    2    0    0  0.61110028191E+00  0.99207705865E+00 -0.18754275193E+00  0.90007816655E+02  0.90000079034E+02 0.  0.
        -12    1    1    2    0    0 -0.61110028191E+00 -0.99207705865E+00  0.18754275193E+00  0.11801833453E+01  0.00000000000E+00 0.  1.
         11    1    3    3    0    0  0.23199590491E+01  0.12455039003E+02 -0.40820850822E+02  0.42741690054E+02  0.51100000000E-03 0. -1.
        -11    1    3    3    0    0  0.75264225208E+01 -0.45204534463E+01  0.56898202658E+01  0.10462102573E+02  0.51100000000E-03 0.  1.
        -12    1    3    3    0    0 -0.92352812881E+01 -0.69425084979E+01  0.34943487805E+02  0.36804024028E+02  0.00000000000E+00 0.  1.
</event>
<event>
 7    1  0.2405891E-015  0.9000776E+02  0.7816164E-02  0.1186339E+00
        -11   -1    0    0    0    0  0.00000000000E+00  0.00000000000E+00  0.45593999997E+02  0.45594000000E+02  0.51100000000E-03 0.  1.
         11   -1    0    0    0    0 -0.00000000000E+00 -0.00000000000E+00 -0.45593999997E+02  0.45594000000E+02  0.51100000000E-03 0. -1.
    9900012    2    1    2    0    0 -0.12126832308E+00 -0.11731335384E+01  0.44826666370E-01  0.90007763695E+02  0.90000025376E+02 0.  0.
        -12    1    1    2    0    0  0.12126832308E+00  0.11731335384E+01 -0.44826666370E-01  0.11802363047E+01  0.00000000000E+00 0.  1.
         11    1    3    3    0    0 -0.62705856908E+01  0.53605824407E+01 -0.33627280022E+01  0.89086491057E+01  0.51100000000E-03 0. -1.
        -11    1    3    3    0    0  0.20637744776E+02  0.19045120142E+02 -0.26892229163E+02  0.38882195158E+02  0.51100000000E-03 0.  1.
         12    1    3    3    0    0 -0.14488427408E+02 -0.25578836121E+02  0.30299783832E+02  0.42216919432E+02  0.00000000000E+00 0. -1.
</event>
<event>
 7    1  0.2405891E-015  0.9000790E+02  0.7816164E-02  0.1186339E+00
        -11   -1    0    0    0    0  0.00000000000E+00  0.00000000000E+00  0.45593999997E+02  0.45594000000E+02  0.51100000000E-03 0.  1.
         11   -1    0    0    0    0 -0.00000000000E+00 -0.00000000000E+00 -0.45593999997E+02  0.45594000000E+02  0.51100000000E-03 0. -1.
    9900012    2    1    2    0    0 -0.11083520100E+01  0.63240210183E-02 -0.40515244395E+00  0.90007901413E+02  0.90000164912E+02 0.  0.
        -12    1    1    2    0    0  0.11083520100E+01 -0.63240210183E-02  0.40515244395E+00  0.11800985866E+01  0.00000000000E+00 0.  1.
         11    1    3    3    0    0  0.34176327448E+02  0.13540859889E+02  0.40527470028E+01  0.36983793788E+02  0.51100000000E-03 0. -1.
        -11    1    3    3    0    0  0.63235100186E+01 -0.18527222185E+01 -0.71501371030E+01  0.97233646145E+01  0.51100000000E-03 0.  1.
        -12    1    3    3    0    0 -0.41608189477E+02 -0.11681813650E+02  0.26922376562E+01  0.43300743011E+02  0.00000000000E+00 0.  1.
</event>
<event>
 7    1  0.2405891E-015  0.9000775E+02  0.7816164E-02  0.1186339E+00
        -11   -1    0    0    0    0  0.00000000000E+00  0.00000000000E+00  0.45593999997E+02  0.45594000000E+02  0.51100000000E-03 0. -1.
         11   -1    0    0    0    0 -0.00000000000E+00 -0.00000000000E+00 -0.45593999997E+02  0.45594000000E+02  0.51100000000E-03 0.  1.
    9900012    2    1    2    0    0 -0.78592631775E+00 -0.73415663688E+00  0.48613448005E+00  0.90007748808E+02  0.90000010292E+02 0.  0.
        -12    1    1    2    0    0  0.78592631775E+00  0.73415663688E+00 -0.48613448005E+00  0.11802511924E+01  0.00000000000E+00 0.  1.
         11    1    3    3    0    0 -0.71439715094E+01  0.60622238609E+01  0.40444704973E+01  0.10205127580E+02  0.51100000000E-03 0. -1.
        -11    1    3    3    0    0 -0.39339475530E+01  0.22946258499E+02  0.27194949475E+02  0.35799050262E+02  0.51100000000E-03 0.  1.
         12    1    3    3    0    0  0.10291992745E+02 -0.29742638996E+02 -0.30753285492E+02  0.44003570965E+02  0.00000000000E+00 0. -1.
</event>
<event>
 7    1  0.2405891E-015  0.9000767E+02  0.7816164E-02  0.1186339E+00
        -11   -1    0    0    0    0  0.00000000000E+00  0.00000000000E+00  0.45593999997E+02  0.45594000000E+02  0.51100000000E-03 0.  1.
         11   -1    0    0    0    0 -0.00000000000E+00 -0.00000000000E+00 -0.45593999997E+02  0.45594000000E+02  0.51100000000E-03 0. -1.
    9900012    2    1    2    0    0 -0.86477250324E+00  0.53590222205E+00 -0.59846234320E+00  0.90007669601E+02  0.89999930040E+02 0.  0.
        -12    1    1    2    0    0  0.86477250324E+00 -0.53590222205E+00  0.59846234320E+00  0.11803303987E+01  0.00000000000E+00 0.  1.
         11    1    3    3    0    0  0.29443599320E+02  0.11327034015E+02 -0.20111057127E+02  0.37412322295E+02  0.51100000000E-03 0. -1.
        -11    1    3    3    0    0 -0.22738931957E+01  0.49904584927E+01 -0.83807943962E+01  0.10015636835E+02  0.51100000000E-03 0.  1.
        -12    1    3    3    0    0 -0.28034478628E+02 -0.15781590286E+02  0.27893389180E+02  0.42579710471E+02  0.00000000000E+00 0.  1.
</event>
<event>
 7    1  0.2405891E-015  0.9000774E+02  0.7816164E-02  0.1186339E+00
        -11   -1    0    0    0    0  0.00000000000E+00  0.00000000000E+00  0.45593999997E+02  0.45594000000E+02  0.51100000000E-03 0. -1.
         11   -1    0    0    0    0 -0.00000000000E+00 -0.00000000000E+00 -0.45593999997E+02  0.45594000000E+02  0.51100000000E-03 0.  1.
    9900012    2    1    2    0    0  0.46904401969E+00 -0.70948498769E+00 -0.81831807055E+00  0.90007739137E+02  0.90000000494E+02 0.  0.
        -12    1    1    2    0    0 -0.46904401969E+00  0.70948498769E+00  0.81831807055E+00  0.11802608630E+01  0.00000000000E+00 0.  1.
         11    1    3    3    0    0 -0.24979836696E+02  0.18562401638E+02 -0.21210690509E+02  0.37662293983E+02  0.51100000000E-03 0. -1.
        -11    1    3    3    0    0  0.31373457030E+01 -0.16550017774E+01 -0.10071352297E+02  0.10677738819E+02  0.51100000000E-03 0.  1.
        -12    1    3    3    0    0  0.22311535013E+02 -0.17616884849E+02  0.30463724736E+02  0.41667706334E+02  0.00000000000E+00 0.  1.
</event>
<event>
 7    1  0.2405891E-015  0.9000764E+02  0.7816164E-02  0.1186339E+00
        -11   -1    0    0    0    0  0.00000000000E+00  0.00000000000E+00  0.45593999997E+02  0.45594000000E+02  0.51100000000E-03 0.  1.
         11   -1    0    0    0    0 -0.00000000000E+00 -0.00000000000E+00 -0.45593999997E+02  0.45594000000E+02  0.51100000000E-03 0. -1.
    9900012    2    1    2    0    0  0.23494081969E+00  0.10257626933E+01 -0.53467275033E+00  0.90007635124E+02  0.89999895107E+02 0.  0.
        -12    1    1    2    0    0 -0.23494081969E+00 -0.10257626933E+01  0.53467275033E+00  0.11803648765E+01  0.00000000000E+00 0.  1.
         11    1    3    3    0    0  0.76227324008E+01 -0.62053370222E+01 -0.37220526889E+01  0.10510277508E+02  0.51100000000E-03 0. -1.
        -11    1    3    3    0    0  0.23725785262E+02  0.14702619478E+02 -0.24533541063E+02  0.37161465837E+02  0.51100000000E-03 0.  1.
         12    1    3    3    0    0 -0.31113576843E+02 -0.74715197623E+01  0.27720921002E+02  0.42335891779E+02  0.00000000000E+00 0. -1.
</event>
<event>
 7    1  0.2405891E-015  0.9000775E+02  0.7816164E-02  0.1186339E+00
        -11   -1    0    0    0    0  0.00000000000E+00  0.00000000000E+00  0.45593999997E+02  0.45594000000E+02  0.51100000000E-03 0. -1.
         11   -1    0    0    0    0 -0.00000000000E+00 -0.00000000000E+00 -0.45593999997E+02  0.45594000000E+02  0.51100000000E-03 0.  1.
    9900012    2    1    2    0    0 -0.21529004845E+00 -0.11567040633E+01  0.93089378952E-01  0.90007754378E+02  0.90000015936E+02 0.  0.
        -12    1    1    2    0    0  0.21529004845E+00  0.11567040633E+01 -0.93089378952E-01  0.11802456217E+01  0.00000000000E+00 0.  1.
         11    1    3    3    0    0  0.30215259590E+02 -0.11420945203E+02 -0.22388507284E+02  0.39301973997E+02  0.51100000000E-03 0. -1.
        -11    1    3    3    0    0 -0.14760039326E+01  0.64939023263E+01 -0.66843247133E+01  0.94355472638E+01  0.51100000000E-03 0.  1.
        -12    1    3    3    0    0 -0.28954545706E+02  0.37703388135E+01  0.29165921377E+02  0.41270233117E+02  0.00000000000E+00 0.  1.
</event>
<event>
 7    1  0.2405891E-015  0.9000765E+02  0.7816164E-02  0.1186339E+00
        -11   -1    0    0    0    0  0.00000000000E+00  0.00000000000E+00  0.45593999997E+02  0.45594000000E+02  0.51100000000E-03 0. -1.
         11   -1    0    0    0    0 -0.00000000000E+00 -0.00000000000E+00 -0.45593999997E+02  0.45594000000E+02  0.51100000000E-03 0.  1.
    9900012    2    1    2    0    0 -0.38725071812E+00 -0.85045996387E+00 -0.72110319977E+00  0.90007646200E+02  0.89999906330E+02 0.  0.
        -12    1    1    2    0    0  0.38725071812E+00  0.85045996387E+00  0.72110319977E+00  0.11803538002E+01  0.00000000000E+00 0.  1.
         11    1    3    3    0    0 -0.17037049991E+02  0.33180890900E+02 -0.73560167712E+01  0.38017674525E+02  0.51100000000E-03 0. -1.
        -11    1    3    3    0    0 -0.35644479869E+01  0.76831889098E+00 -0.82982931556E+01  0.90640649229E+01  0.51100000000E-03 0.  1.
        -12    1    3    3    0    0  0.20214247260E+02 -0.34799669755E+02  0.14933206727E+02  0.42925906752E+02  0.00000000000E+00 0.  1.
</event>
<event>
 7    1  0.2405891E-015  0.9000789E+02  0.7816164E-02  0.1186339E+00
        -11   -1    0    0    0    0  0.00000000000E+00  0.00000000000E+00  0.45593999997E+02  0.45594000000E+02  0.51100000000E-03 0.  1.
         11   -1    0    0    0    0 -0.00000000000E+00 -0.00000000000E+00 -0.45593999997E+02  0.45594000000E+02  0.51100000000E-03 0. -1.
    9900012    2    1    2    0    0  0.16212219437E+00  0.11135050351E+01 -0.35563207755E+00  0.90007893546E+02  0.90000156940E+02 0.  0.
        -12    1    1    2    0    0 -0.16212219437E+00 -0.11135050351E+01  0.35563207755E+00  0.11801064544E+01  0.00000000000E+00 0.  1.
         11    1    3    3    0    0  0.34160222809E+02 -0.13015197686E+02  0.19254548558E+01  0.36606332373E+02  0.51100000000E-03 0. -1.
        -11    1    3    3    0    0  0.63999974604E+01 -0.25844901467E+01 -0.64982290218E+01  0.94797962791E+01  0.51100000000E-03 0.  1.
        -12    1    3    3    0    0 -0.40398098075E+02  0.16713192868E+02  0.42171420885E+01  0.43921764893E+02  0.00000000000E+00 0.  1.
</event>
<event>
 7    1  0.2405891E-015  0.9000767E+02  0.7816164E-02  0.1186339E+00
        -11   -1    0    0    0    0  0.00000000000E+00  0.00000000000E+00  0.45593999997E+02  0.45594000000E+02  0.51100000000E-03 0.  1.
         11   -1    0    0    0    0 -0.00000000000E+00 -0.00000000000E+00 -0.45593999997E+02  0.45594000000E+02  0.51100000000E-03 0. -1.
    9900012    2    1    2    0    0 -0.69987587514E+00 -0.93424424325E+00  0.17473242362E+00  0.90007673788E+02  0.89999934282E+02 0.  0.
        -12    1    1    2    0    0  0.69987587514E+00  0.93424424325E+00 -0.17473242362E+00  0.11803262119E+01  0.00000000000E+00 0.  1.
         11    1    3    3    0    0 -0.84288210557E+01 -0.26011118337E+01  0.58701544703E+01  0.10595731260E+02  0.51100000000E-03 0. -1.
        -11    1    3    3    0    0 -0.17605413785E+01 -0.27757456559E+02  0.23856728734E+02  0.36643135875E+02  0.51100000000E-03 0.  1.
         12    1    3    3    0    0  0.94894865590E+01  0.29424324149E+02 -0.29552150781E+02  0.42768806654E+02  0.00000000000E+00 0. -1.
</event>
<event>
 7    1  0.2405891E-015  0.9000777E+02  0.7816164E-02  0.1186339E+00
        -11   -1    0    0    0    0  0.00000000000E+00  0.00000000000E+00  0.45593999997E+02  0.45594000000E+02  0.51100000000E-03 0.  1.
         11   -1    0    0    0    0 -0.00000000000E+00 -0.00000000000E+00 -0.45593999997E+02  0.45594000000E+02  0.51100000000E-03 0. -1.
    9900012    2    1    2    0    0  0.27650366643E+00  0.34453572249E+00 -0.10944280186E+01  0.90007774670E+02  0.90000036496E+02 0.  0.
        -12    1    1    2    0    0 -0.27650366643E+00 -0.34453572249E+00  0.10944280186E+01  0.11802253300E+01  0.00000000000E+00 0.  1.
         11    1    3    3    0    0 -0.22011669886E+02  0.37955411456E+02  0.14910684682E+01  0.43901596274E+02  0.51100000000E-03 0. -1.
        -11    1    3    3    0    0  0.89988043840E+00 -0.98216750235E+01 -0.48008792660E+01  0.10969208133E+02  0.51100000000E-03 0.  1.
        -12    1    3    3    0    0  0.21388293115E+02 -0.27789200710E+02  0.22153827792E+01  0.35136970263E+02  0.00000000000E+00 0.  1.
</event>
<event>
 7    1  0.2405891E-015  0.9000772E+02  0.7816164E-02  0.1186339E+00
        -11   -1    0    0    0    0  0.00000000000E+00  0.00000000000E+00  0.45593999997E+02  0.45594000000E+02  0.51100000000E-03 0. -1.
         11   -1    0    0    0    0 -0.00000000000E+00 -0.00000000000E+00 -0.45593999997E+02  0.45594000000E+02  0.51100000000E-03 0.  1.
    9900012    2    1    2    0    0 -0.61386462183E+00 -0.97562755407E+00 -0.25374184866E+00  0.90007718752E+02  0.89999979840E+02 0.  0.
        -12    1    1    2    0    0  0.61386462183E+00  0.97562755407E+00  0.25374184866E+00  0.11802812478E+01  0.00000000000E+00 0.  1.
         11    1    3    3    0    0 -0.11502296079E-01  0.60889628018E+01  0.79197847422E+01  0.99899244706E+01  0.51100000000E-03 0. -1.
        -11    1    3    3    0    0  0.11021145935E+02  0.19212726436E+02 -0.34532530531E+02  0.41025482081E+02  0.51100000000E-03 0.  1.
         12    1    3    3    0    0 -0.11623508261E+02 -0.26277316792E+02  0.26359003940E+02  0.38992312201E+02  0.00000000000E+00 0. -1.
</event>
<event>
 7    1  0.2405891E-015  0.9000774E+02  0.7816164E-02  0.1186339E+00
        -11   -1    0    0    0    0  0.00000000000E+00  0.00000000000E+00  0.45593999997E+02  0.45594000000E+02  0.51100000000E-03 0. -1.
         11   -1    0    0    0    0 -0.00000000000E+00 -0.00000000000E+00 -0.45593999997E+02  0.45594000000E+02  0.51100000000E-03 0.  1.
    9900012    2    1    2    0    0  0.34565556596E+00  0.32284706768E+00  0.10813451135E+01  0.90007739328E+02  0.90000000687E+02 0.  0.
        -12    1    1    2    0    0 -0.34565556596E+00 -0.32284706768E+00 -0.10813451135E+01  0.11802606720E+01  0.00000000000E+00 0.  1.
         11    1    3    3    0    0 -0.54411645782E+01 -0.85451354789E+01 -0.58062149041E+01  0.11676375469E+02  0.51100000000E-03 0. -1.
        -11    1    3    3    0    0 -0.28542911721E+02 -0.10581105980E+02 -0.14203677607E+02  0.33591696460E+02  0.51100000000E-03 0.  1.
         12    1    3    3    0    0  0.34329731865E+02  0.19449088527E+02  0.21091237624E+02  0.44739667399E+02  0.00000000000E+00 0. -1.
</event>
<event>
 7    1  0.2405891E-015  0.9000774E+02  0.7816164E-02  0.1186339E+00
        -11   -1    0    0    0    0  0.00000000000E+00  0.00000000000E+00  0.45593999997E+02  0.45594000000E+02  0.51100000000E-03 0. -1.
         11   -1    0    0    0    0 -0.00000000000E+00 -0.00000000000E+00 -0.45593999997E+02  0.45594000000E+02  0.51100000000E-03 0.  1.
    9900012    2    1    2    0    0 -0.41505294435E+00  0.10688084226E+01 -0.28000580256E+00  0.90007735775E+02  0.89999997087E+02 0.  0.
        -12    1    1    2    0    0  0.41505294435E+00 -0.10688084226E+01  0.28000580256E+00  0.11802642248E+01  0.00000000000E+00 0.  1.
         11    1    3    3    0    0 -0.44962080055E+00  0.36567262242E+02 -0.61655915111E+01  0.37086134143E+02  0.51100000000E-03 0. -1.
        -11    1    3    3    0    0  0.23294783959E+01  0.77610002303E+01  0.51382865607E+01  0.95948727565E+01  0.51100000000E-03 0.  1.
        -12    1    3    3    0    0 -0.22949105397E+01 -0.43259454050E+02  0.74729914780E+00  0.43326728876E+02  0.00000000000E+00 0.  1.
</event>
<event>
 7    1  0.2405891E-015  0.9000777E+02  0.7816164E-02  0.1186339E+00
        -11   -1    0    0    0    0  0.00000000000E+00  0.00000000000E+00  0.45593999997E+02  0.45594000000E+02  0.51100000000E-03 0.  1.
         11   -1    0    0    0    0 -0.00000000000E+00 -0.00000000000E+00 -0.45593999997E+02  0.45594000000E+02  0.51100000000E-03 0. -1.
    9900012    2    1    2    0    0  0.10549467013E+01 -0.21369228623E+00  0.48411899080E+00  0.90007767763E+02  0.90000029498E+02 0.  0.
        -12    1    1    2    0    0 -0.10549467013E+01  0.21369228623E+00 -0.48411899080E+00  0.11802322369E+01  0.00000000000E+00 0.  1.
         11    1    3    3    0    0 -0.45974363749E+01  0.11186051785E+02 -0.42520265797E+02  0.44206754908E+02  0.51100000000E-03 0. -1.
        -11    1    3    3    0    0  0.43968587310E+01 -0.59600044566E+00  0.80285466683E+01  0.91730662866E+01  0.51100000000E-03 0.  1.
        -12    1    3    3    0    0  0.12555243453E+01 -0.10803743626E+02  0.34975838119E+02  0.36627946569E+02  0.00000000000E+00 0.  1.
</event>
<event>
 7    1  0.3968448E-015  0.9000781E+02  0.7816164E-02  0.1186339E+00
        -11   -1    0    0    0    0  0.00000000000E+00  0.00000000000E+00  0.45593999997E+02  0.45594000000E+02  0.51100000000E-03 0. -1.
         11   -1    0    0    0    0 -0.00000000000E+00 -0.00000000000E+00 -0.45593999997E+02  0.45594000000E+02  0.51100000000E-03 0.  1.
    9900012    2    1    2    0    0  0.69988165611E+00 -0.55364491574E+00  0.77233617097E+00  0.90007805022E+02  0.90000067248E+02 0.  0.
        -12    1    1    2    0    0 -0.69988165611E+00  0.55364491574E+00 -0.77233617097E+00  0.11801949781E+01  0.00000000000E+00 0.  1.
         11    1    3    3    0    0  0.93715388766E+01 -0.23377648655E+01 -0.79622008485E+00  0.96914834864E+01  0.51100000000E-03 0. -1.
        -11    1    3    3    0    0  0.98275507142E+01  0.14870631730E+02 -0.33857571308E+02  0.38262926917E+02  0.51100000000E-03 0.  1.
         12    1    3    3    0    0 -0.18499207935E+02 -0.13086511780E+02  0.35426127564E+02  0.42053394619E+02  0.00000000000E+00 0. -1.
</event>
<event>
 7    1  0.2405891E-015  0.9000787E+02  0.7816164E-02  0.1186339E+00
        -11   -1    0    0    0    0  0.00000000000E+00  0.00000000000E+00  0.45593999997E+02  0.45594000000E+02  0.51100000000E-03 0.  1.
         11   -1    0    0    0    0 -0.00000000000E+00 -0.00000000000E+00 -0.45593999997E+02  0.45594000000E+02  0.51100000000E-03 0. -1.
    9900012    2    1    2    0    0 -0.71313259651E+00 -0.90198913462E+00 -0.26564407133E+00  0.90007868960E+02  0.90000132030E+02 0.  0.
        -12    1    1    2    0    0  0.71313259651E+00  0.90198913462E+00  0.26564407133E+00  0.11801310401E+01  0.00000000000E+00 0.  1.
         11    1    3    3    0    0  0.26433892312E+02 -0.15193400796E+02 -0.19094668981E+02  0.35974942311E+02  0.51100000000E-03 0. -1.
        -11    1    3    3    0    0  0.50904929568E+01 -0.88063629563E+01  0.94108883613E-01  0.10172217251E+02  0.51100000000E-03 0.  1.
        -12    1    3    3    0    0 -0.32237517865E+02  0.23097774618E+02  0.18734916026E+02  0.43860709398E+02  0.00000000000E+00 0.  1.
</event>
<event>
 7    1  0.2405891E-015  0.9000768E+02  0.7816164E-02  0.1186339E+00
        -11   -1    0    0    0    0  0.00000000000E+00  0.00000000000E+00  0.45593999997E+02  0.45594000000E+02  0.51100000000E-03 0. -1.
         11   -1    0    0    0    0 -0.00000000000E+00 -0.00000000000E+00 -0.45593999997E+02  0.45594000000E+02  0.51100000000E-03 0.  1.
    9900012    2    1    2    0    0 -0.85772022848E+00  0.64574076314E+00  0.49038996274E+00  0.90007683331E+02  0.89999943951E+02 0.  0.
        -12    1    1    2    0    0  0.85772022848E+00 -0.64574076314E+00 -0.49038996274E+00  0.11803166690E+01  0.00000000000E+00 0.  1.
         11    1    3    3    0    0  0.28779559212E+01 -0.73072970706E+01 -0.38969230523E+01  0.87672818079E+01  0.51100000000E-03 0. -1.
        -11    1    3    3    0    0  0.13884995630E+02 -0.21737372702E+02 -0.24985557162E+02  0.35910785881E+02  0.51100000000E-03 0.  1.
         12    1    3    3    0    0 -0.17620671780E+02  0.29690410536E+02  0.29372870177E+02  0.45329615642E+02  0.00000000000E+00 0. -1.
</event>
<event>
 7    1  0.2405891E-015  0.9000773E+02  0.7816164E-02  0.1186339E+00
        -11   -1    0    0    0    0  0.00000000000E+00  0.00000000000E+00  0.45593999997E+02  0.45594000000E+02  0.51100000000E-03 0. -1.
         11   -1    0    0    0    0 -0.00000000000E+00 -0.00000000000E+00 -0.45593999997E+02  0.45594000000E+02  0.51100000000E-03 0.  1.
    9900012    2    1    2    0    0  0.87069514808E+00  0.41018067520E+00  0.68313444302E+00  0.90007732702E+02  0.89999993974E+02 0.  0.
        -12    1    1    2    0    0 -0.87069514808E+00 -0.41018067520E+00 -0.68313444302E+00  0.11802672979E+01  0.00000000000E+00 0.  1.
         11    1    3    3    0    0  0.45367650808E+01 -0.59642577129E+01 -0.11684595621E+02  0.13881080021E+02  0.51100000000E-03 0. -1.
        -11    1    3    3    0    0  0.44398374011E+01  0.11813655271E+02 -0.30053995632E+02  0.32596276793E+02  0.51100000000E-03 0.  1.
         12    1    3    3    0    0 -0.81059073338E+01 -0.54392168834E+01  0.42421725696E+02  0.43530375889E+02  0.00000000000E+00 0. -1.
</event>
<event>
 7    1  0.2405891E-015  0.9000775E+02  0.7816164E-02  0.1186339E+00
        -11   -1    0    0    0    0  0.00000000000E+00  0.00000000000E+00  0.45593999997E+02  0.45594000000E+02  0.51100000000E-03 0.  1.
         11   -1    0    0    0    0 -0.00000000000E+00 -0.00000000000E+00 -0.45593999997E+02  0.45594000000E+02  0.51100000000E-03 0. -1.
    9900012    2    1    2    0    0  0.64477397872E+00 -0.98852266969E+00 -0.89542881602E-02  0.90007749717E+02  0.90000011213E+02 0.  0.
        -12    1    1    2    0    0 -0.64477397872E+00  0.98852266969E+00  0.89542881602E-02  0.11802502834E+01  0.00000000000E+00 0.  1.
         11    1    3    3    0    0 -0.70413717784E+00 -0.36136954936E+02  0.38751217849E+01  0.36350954463E+02  0.51100000000E-03 0. -1.
        -11    1    3    3    0    0 -0.13265479377E+02 -0.78613613721E+00 -0.64658033060E+01  0.14778280203E+02  0.51100000000E-03 0.  1.
        -12    1    3    3    0    0  0.14614390533E+02  0.35934568404E+02  0.25817272329E+01  0.38878515051E+02  0.00000000000E+00 0.  1.
</event>
<event>
 7    1  0.2405891E-015  0.9000768E+02  0.7816164E-02  0.1186339E+00
        -11   -1    0    0    0    0  0.00000000000E+00  0.00000000000E+00  0.45593999997E+02  0.45594000000E+02  0.51100000000E-03 0. -1.
         11   -1    0    0    0    0 -0.00000000000E+00 -0.00000000000E+00 -0.45593999997E+02  0.45594000000E+02  0.51100000000E-03 0.  1.
    9900012    2    1    2    0    0 -0.11316260112E+01 -0.33520316049E+00  0.15077053928E-01  0.90007675508E+02  0.89999936025E+02 0.  0.
        -12    1    1    2    0    0  0.11316260112E+01  0.33520316049E+00 -0.15077053928E-01  0.11803244917E+01  0.00000000000E+00 0.  1.
         11    1    3    3    0    0  0.42390834844E-01  0.99815523852E+01  0.48672079370E+01  0.11105084347E+02  0.51100000000E-03 0. -1.
        -11    1    3    3    0    0  0.16263933285E+02 -0.20782235632E+02  0.29125927674E+02  0.39303136095E+02  0.51100000000E-03 0.  1.
         12    1    3    3    0    0 -0.17437950132E+02  0.10465480086E+02 -0.33978058557E+02  0.39599455066E+02  0.00000000000E+00 0. -1.
</event>
<event>
 7    1  0.2405891E-015  0.9000772E+02  0.7816164E-02  0.1186339E+00
        -11   -1    0    0    0    0  0.00000000000E+00  0.00000000000E+00  0.45593999997E+02  0.45594000000E+02  0.51100000000E-03 0. -1.
         11   -1    0    0    0    0 -0.00000000000E+00 -0.00000000000E+00 -0.45593999997E+02  0.45594000000E+02  0.51100000000E-03 0.  1.
    9900012    2    1    2    0    0 -0.79952916877E+00 -0.86799515200E+00 -0.20124278090E-01  0.90007717211E+02  0.89999978278E+02 0.  0.
        -12    1    1    2    0    0  0.79952916877E+00  0.86799515200E+00  0.20124278090E-01  0.11802827891E+01  0.00000000000E+00 0.  1.
         11    1    3    3    0    0  0.18163852138E+02  0.46221016820E+01  0.32292941399E+02  0.37337962088E+02  0.51100000000E-03 0. -1.
        -11    1    3    3    0    0  0.81165966705E+01 -0.60155625750E+01  0.50853409358E+00  0.10115569277E+02  0.51100000000E-03 0.  1.
        -12    1    3    3    0    0 -0.27079977977E+02  0.52546574102E+00 -0.32821599771E+02  0.42554185846E+02  0.00000000000E+00 0.  1.
</event>
<event>
 7    1  0.2405891E-015  0.9000760E+02  0.7816164E-02  0.1186339E+00
        -11   -1    0    0    0    0  0.00000000000E+00  0.00000000000E+00  0.45593999997E+02  0.45594000000E+02  0.51100000000E-03 0.  1.
         11   -1    0    0    0    0 -0.00000000000E+00 -0.00000000000E+00 -0.45593999997E+02  0.45594000000E+02  0.51100000000E-03 0. -1.
    9900012    2    1    2    0    0 -0.11108206673E+00 -0.88795668004E+00 -0.76976735237E+00  0.90007598345E+02  0.89999857843E+02 0.  0.
        -12    1    1    2    0    0  0.11108206673E+00  0.88795668004E+00  0.76976735237E+00  0.11804016554E+01  0.00000000000E+00 0.  1.
         11    1    3    3    0    0 -0.43181403614E+00 -0.65662344868E+01  0.13203423710E+02  0.14752365798E+02  0.51100000000E-03 0. -1.
        -11    1    3    3    0    0  0.13646128173E+02  0.95559056724E+01  0.27149864609E+02  0.31853528782E+02  0.51100000000E-03 0.  1.
         12    1    3    3    0    0 -0.13325396203E+02 -0.38776278656E+01 -0.41123055672E+02  0.43401703764E+02  0.00000000000E+00 0. -1.
</event>
<event>
 7    1  0.2405891E-015  0.9000765E+02  0.7816164E-02  0.1186339E+00
        -11   -1    0    0    0    0  0.00000000000E+00  0.00000000000E+00  0.45593999997E+02  0.45594000000E+02  0.51100000000E-03 0.  1.
         11   -1    0    0    0    0 -0.00000000000E+00 -0.00000000000E+00 -0.45593999997E+02  0.45594000000E+02  0.51100000000E-03 0. -1.
    9900012    2    1    2    0    0  0.85966027318E+00  0.60702017590E+00 -0.53455372123E+00  0.90007645409E+02  0.89999905529E+02 0.  0.
        -12    1    1    2    0    0 -0.85966027318E+00 -0.60702017590E+00  0.53455372123E+00  0.11803545908E+01  0.00000000000E+00 0.  1.
         11    1    3    3    0    0  0.79580358022E+01 -0.75533828764E+01 -0.89115736191E+01  0.14135065311E+02  0.51100000000E-03 0. -1.
        -11    1    3    3    0    0  0.31589351786E+02  0.10186487156E+02  0.15249993597E+02  0.36526893816E+02  0.51100000000E-03 0.  1.
         12    1    3    3    0    0 -0.38687727315E+02 -0.20260841040E+01 -0.68729736996E+01  0.39345686283E+02  0.00000000000E+00 0. -1.
</event>
<event>
 7    1  0.2405891E-015  0.9000780E+02  0.7816164E-02  0.1186339E+00
        -11   -1    0    0    0    0  0.00000000000E+00  0.00000000000E+00  0.45593999997E+02  0.45594000000E+02  0.51100000000E-03 0. -1.
         11   -1    0    0    0    0 -0.00000000000E+00 -0.00000000000E+00 -0.45593999997E+02  0.45594000000E+02  0.51100000000E-03 0.  1.
    9900012    2    1    2    0    0  0.64314336392E+00  0.79884719976E+00  0.58402058480E+00  0.90007800746E+02  0.90000062916E+02 0.  0.
        -12    1    1    2    0    0 -0.64314336392E+00 -0.79884719976E+00 -0.58402058480E+00  0.11801992538E+01  0.00000000000E+00 0.  1.
         11    1    3    3    0    0 -0.27920389519E+02 -0.10622377402E+02  0.27793149654E+02  0.40802478118E+02  0.51100000000E-03 0. -1.
        -11    1    3    3    0    0 -0.27492198479E+01 -0.39243227376E+01 -0.81805581826E+01  0.94805090138E+01  0.51100000000E-03 0.  1.
        -12    1    3    3    0    0  0.31312752731E+02  0.15345547339E+02 -0.19028570887E+02  0.39724813615E+02  0.00000000000E+00 0.  1.
</event>
<event>
 7    1  0.2405891E-015  0.9000774E+02  0.7816164E-02  0.1186339E+00
        -11   -1    0    0    0    0  0.00000000000E+00  0.00000000000E+00  0.45593999997E+02  0.45594000000E+02  0.51100000000E-03 0.  1.
         11   -1    0    0    0    0 -0.00000000000E+00 -0.00000000000E+00 -0.45593999997E+02  0.45594000000E+02  0.51100000000E-03 0. -1.
    9900012    2    1    2    0    0  0.28819320652E+00 -0.40281990430E+00 -0.10712998026E+01  0.90007744745E+02  0.90000006176E+02 0.  0.
        -12    1    1    2    0    0 -0.28819320652E+00  0.40281990430E+00  0.10712998026E+01  0.11802552549E+01  0.00000000000E+00 0.  1.
         11    1    3    3    0    0  0.83452657402E+01 -0.19244632094E+02 -0.34223929704E+02  0.40140711121E+02  0.51100000000E-03 0. -1.
        -11    1    3    3    0    0  0.96320211430E+01  0.16499820446E+01  0.17386033676E+01  0.99257752331E+01  0.51100000000E-03 0.  1.
        -12    1    3    3    0    0 -0.17689093677E+02  0.17191830145E+02  0.31414026533E+02  0.39941258391E+02  0.00000000000E+00 0.  1.
</event>
<event>
 7    1  0.2405891E-015  0.9000775E+02  0.7816164E-02  0.1186339E+00
        -11   -1    0    0    0    0  0.00000000000E+00  0.00000000000E+00  0.45593999997E+02  0.45594000000E+02  0.51100000000E-03 0. -1.
         11   -1    0    0    0    0 -0.00000000000E+00 -0.00000000000E+00 -0.45593999997E+02  0.45594000000E+02  0.51100000000E-03 0.  1.
    9900012    2    1    2    0    0  0.78151468228E-03  0.57059519053E-01  0.11788721917E+01  0.90007747466E+02  0.90000008933E+02 0.  0.
        -12    1    1    2    0    0 -0.78151468228E-03 -0.57059519053E-01 -0.11788721917E+01  0.11802525339E+01  0.00000000000E+00 0.  1.
         11    1    3    3    0    0  0.14822049584E+01  0.15350537986E+01 -0.78075202547E+01  0.80938677091E+01  0.51100000000E-03 0. -1.
        -11    1    3    3    0    0 -0.19939028194E+02  0.48300361500E+01 -0.31144067050E+02  0.37294061286E+02  0.51100000000E-03 0.  1.
         12    1    3    3    0    0  0.18457604750E+02 -0.63080304296E+01  0.40130459496E+02  0.44619818471E+02  0.00000000000E+00 0. -1.
</event>
<event>
 7    1  0.2405891E-015  0.9000779E+02  0.7816164E-02  0.1186339E+00
        -11   -1    0    0    0    0  0.00000000000E+00  0.00000000000E+00  0.45593999997E+02  0.45594000000E+02  0.51100000000E-03 0. -1.
         11   -1    0    0    0    0 -0.00000000000E+00 -0.00000000000E+00 -0.45593999997E+02  0.45594000000E+02  0.51100000000E-03 0.  1.
    9900012    2    1    2    0    0 -0.91444202645E+00  0.24341824959E+00  0.70529908366E+00  0.90007786688E+02  0.90000048672E+02 0.  0.
        -12    1    1    2    0    0  0.91444202645E+00 -0.24341824959E+00 -0.70529908366E+00  0.11802133118E+01  0.00000000000E+00 0.  1.
         11    1    3    3    0    0 -0.82360350196E+01  0.10292092521E+00  0.60167233641E+01  0.10200187541E+02  0.51100000000E-03 0. -1.
        -11    1    3    3    0    0 -0.32463248500E+02  0.16632544482E+02 -0.42939494698E+01  0.36727946328E+02  0.51100000000E-03 0.  1.
         12    1    3    3    0    0  0.39784841493E+02 -0.16492047158E+02 -0.10174748106E+01  0.43079652820E+02  0.00000000000E+00 0. -1.
</event>
<event>
 7    1  0.2405891E-015  0.9000774E+02  0.7816164E-02  0.1186339E+00
        -11   -1    0    0    0    0  0.00000000000E+00  0.00000000000E+00  0.45593999997E+02  0.45594000000E+02  0.51100000000E-03 0.  1.
         11   -1    0    0    0    0 -0.00000000000E+00 -0.00000000000E+00 -0.45593999997E+02  0.45594000000E+02  0.51100000000E-03 0. -1.
    9900012    2    1    2    0    0 -0.98704061180E+00 -0.72844722958E-01  0.64300210542E+00  0.90007742727E+02  0.90000004131E+02 0.  0.
        -12    1    1    2    0    0  0.98704061180E+00  0.72844722958E-01 -0.64300210542E+00  0.11802572730E+01  0.00000000000E+00 0.  1.
         11    1    3    3    0    0 -0.28093726535E+01  0.19987308185E+02 -0.29436487054E+02  0.35691621335E+02  0.51100000000E-03 0. -1.
        -11    1    3    3    0    0 -0.16112745613E+02 -0.68787294136E+01  0.80121224748E+00  0.17537942606E+02  0.51100000000E-03 0.  1.
        -12    1    3    3    0    0  0.17935077655E+02 -0.13181423494E+02  0.29278276912E+02  0.36778178785E+02  0.00000000000E+00 0.  1.
</event>
<event>
 7    1  0.2405891E-015  0.9000769E+02  0.7816164E-02  0.1186339E+00
        -11   -1    0    0    0    0  0.00000000000E+00  0.00000000000E+00  0.45593999997E+02  0.45594000000E+02  0.51100000000E-03 0.  1.
         11   -1    0    0    0    0 -0.00000000000E+00 -0.00000000000E+00 -0.45593999997E+02  0.45594000000E+02  0.51100000000E-03 0. -1.
    9900012    2    1    2    0    0  0.29616354121E+00 -0.73944114291E+00 -0.87100080958E+00  0.90007691372E+02  0.89999952098E+02 0.  0.
        -12    1    1    2    0    0 -0.29616354121E+00  0.73944114291E+00  0.87100080958E+00  0.11803086280E+01  0.00000000000E+00 0.  1.
         11    1    3    3    0    0  0.36346967780E+02 -0.91661279622E+01 -0.16008796054E+01  0.37519098929E+02  0.51100000000E-03 0. -1.
        -11    1    3    3    0    0  0.61166436523E+01 -0.24269203219E+01 -0.54062233738E+01  0.85164853811E+01  0.51100000000E-03 0.  1.
        -12    1    3    3    0    0 -0.42167447891E+02  0.10853607141E+02  0.61361021697E+01  0.43972107062E+02  0.00000000000E+00 0.  1.
</event>
<event>
 7    1  0.2405891E-015  0.9000782E+02  0.7816164E-02  0.1186339E+00
        -11   -1    0    0    0    0  0.00000000000E+00  0.00000000000E+00  0.45593999997E+02  0.45594000000E+02  0.51100000000E-03 0.  1.
         11   -1    0    0    0    0 -0.00000000000E+00 -0.00000000000E+00 -0.45593999997E+02  0.45594000000E+02  0.51100000000E-03 0. -1.
    9900012    2    1    2    0    0  0.44747742498E+00  0.10837991622E+01 -0.13401456156E+00  0.90007823499E+02  0.90000085970E+02 0.  0.
        -12    1    1    2    0    0 -0.44747742498E+00 -0.10837991622E+01  0.13401456156E+00  0.11801765006E+01  0.00000000000E+00 0.  1.
         11    1    3    3    0    0  0.10344226445E+02 -0.18026228146E+01  0.51707402981E+01  0.11704231083E+02  0.51100000000E-03 0. -1.
        -11    1    3    3    0    0  0.96232821719E+01  0.31624059500E+02  0.16847503890E+02  0.37101577953E+02  0.51100000000E-03 0.  1.
         12    1    3    3    0    0 -0.19520031191E+02 -0.28737637524E+02 -0.22152258749E+02  0.41202014463E+02  0.00000000000E+00 0. -1.
</event>
<event>
 7    1  0.2405891E-015  0.9000731E+02  0.7816164E-02  0.1186340E+00
        -11   -1    0    0    0    0  0.00000000000E+00  0.00000000000E+00  0.45593999997E+02  0.45594000000E+02  0.51100000000E-03 0.  1.
         11   -1    0    0    0    0 -0.00000000000E+00 -0.00000000000E+00 -0.45593999997E+02  0.45594000000E+02  0.51100000000E-03 0. -1.
    9900012    2    1    2    0    0  0.85685543579E-01  0.20756643137E+00 -0.11591373606E+01  0.90007311533E+02  0.89999567244E+02 0.  0.
        -12    1    1    2    0    0 -0.85685543579E-01 -0.20756643137E+00  0.11591373606E+01  0.11806884672E+01  0.00000000000E+00 0.  1.
         11    1    3    3    0    0 -0.24846758532E+02  0.66114063784E+01 -0.29714929212E+02  0.39294390467E+02  0.51100000000E-03 0. -1.
        -11    1    3    3    0    0 -0.69828953352E+01  0.37998223256E+01  0.27199683451E+01  0.84022440471E+01  0.51100000000E-03 0.  1.
        -12    1    3    3    0    0  0.31915339411E+02 -0.10203662273E+02  0.25835823507E+02  0.42310677018E+02  0.00000000000E+00 0.  1.
</event>
<event>
 7    1  0.2405891E-015  0.9000767E+02  0.7816164E-02  0.1186339E+00
        -11   -1    0    0    0    0  0.00000000000E+00  0.00000000000E+00  0.45593999997E+02  0.45594000000E+02  0.51100000000E-03 0.  1.
         11   -1    0    0    0    0 -0.00000000000E+00 -0.00000000000E+00 -0.45593999997E+02  0.45594000000E+02  0.51100000000E-03 0. -1.
    9900012    2    1    2    0    0 -0.65996744579E+00 -0.53482192436E+00 -0.81950978572E+00  0.90007666230E+02  0.89999926624E+02 0.  0.
        -12    1    1    2    0    0  0.65996744579E+00  0.53482192436E+00  0.81950978572E+00  0.11803337702E+01  0.00000000000E+00 0.  1.
         11    1    3    3    0    0 -0.62745524775E+01  0.84829300521E+01  0.24366714097E+00  0.10554121707E+02  0.51100000000E-03 0. -1.
        -11    1    3    3    0    0 -0.32323042968E+02 -0.84323412382E+01 -0.17951223371E+02  0.37922683267E+02  0.51100000000E-03 0.  1.
         12    1    3    3    0    0  0.37937627999E+02 -0.58541073826E+00  0.16888046444E+02  0.41530861256E+02  0.00000000000E+00 0. -1.
</event>
<event>
 7    1  0.2405891E-015  0.9000799E+02  0.7816164E-02  0.1186339E+00
        -11   -1    0    0    0    0  0.00000000000E+00  0.00000000000E+00  0.45593999997E+02  0.45594000000E+02  0.51100000000E-03 0.  1.
         11   -1    0    0    0    0 -0.00000000000E+00 -0.00000000000E+00 -0.45593999997E+02  0.45594000000E+02  0.51100000000E-03 0. -1.
    9900012    2    1    2    0    0 -0.10919917321E+01  0.17274909973E+00  0.41246118528E+00  0.90007994736E+02  0.90000259466E+02 0.  0.
        -12    1    1    2    0    0  0.10919917321E+01 -0.17274909973E+00 -0.41246118528E+00  0.11800052643E+01  0.00000000000E+00 0.  1.
         11    1    3    3    0    0  0.66235953202E+01  0.76020165352E+01 -0.29685939245E+01  0.10510719315E+02  0.51100000000E-03 0. -1.
        -11    1    3    3    0    0  0.10879988324E+02  0.32899782410E+02  0.52532506049E+01  0.35048059443E+02  0.51100000000E-03 0.  1.
         12    1    3    3    0    0 -0.18595575376E+02 -0.40329049846E+02 -0.18721954952E+01  0.44449215977E+02  0.00000000000E+00 0. -1.
</event>
<event>
 7    1  0.2405891E-015  0.9000774E+02  0.7816164E-02  0.1186339E+00
        -11   -1    0    0    0    0  0.00000000000E+00  0.00000000000E+00  0.45593999997E+02  0.45594000000E+02  0.51100000000E-03 0. -1.
         11   -1    0    0    0    0 -0.00000000000E+00 -0.00000000000E+00 -0.45593999997E+02  0.45594000000E+02  0.51100000000E-03 0.  1.
    9900012    2    1    2    0    0  0.42379372109E+00 -0.57924180010E+00  0.93696210043E+00  0.90007737250E+02  0.89999998582E+02 0.  0.
        -12    1    1    2    0    0 -0.42379372109E+00  0.57924180010E+00 -0.93696210043E+00  0.11802627498E+01  0.00000000000E+00 0.  1.
         11    1    3    3    0    0 -0.26331245127E+02 -0.22793041026E+02 -0.21269068343E+02  0.40807235358E+02  0.51100000000E-03 0. -1.
        -11    1    3    3    0    0  0.85712554051E+00  0.75692247959E+01 -0.48132714766E+01  0.90108496143E+01  0.51100000000E-03 0.  1.
        -12    1    3    3    0    0  0.25897913308E+02  0.14644574430E+02  0.27019301920E+02  0.40189652277E+02  0.00000000000E+00 0.  1.
</event>
<event>
 7    1  0.2822929E-015  0.9000768E+02  0.7816164E-02  0.1186339E+00
        -11   -1    0    0    0    0  0.00000000000E+00  0.00000000000E+00  0.45593999997E+02  0.45594000000E+02  0.51100000000E-03 0. -1.
         11   -1    0    0    0    0 -0.00000000000E+00 -0.00000000000E+00 -0.45593999997E+02  0.45594000000E+02  0.51100000000E-03 0.  1.
    9900012    2    1    2    0    0  0.24625242716E+00 -0.11525126649E+01  0.65051092931E-01  0.90007679135E+02  0.89999939699E+02 0.  0.
        -12    1    1    2    0    0 -0.24625242716E+00  0.11525126649E+01 -0.65051092931E-01  0.11803208654E+01  0.00000000000E+00 0.  1.
         11    1    3    3    0    0  0.81792325146E+01 -0.54872865902E+01 -0.26808904173E+01  0.10207709456E+02  0.51100000000E-03 0. -1.
        -11    1    3    3    0    0 -0.12887155230E+02  0.19107531217E+02 -0.33318850390E+02  0.40513236241E+02  0.51100000000E-03 0.  1.
         12    1    3    3    0    0  0.49541751427E+01 -0.14772757292E+02  0.36064791901E+02  0.39286733437E+02  0.00000000000E+00 0. -1.
</event>
<event>
 7    1  0.2405891E-015  0.9000779E+02  0.7816164E-02  0.1186339E+00
        -11   -1    0    0    0    0  0.00000000000E+00  0.00000000000E+00  0.45593999997E+02  0.45594000000E+02  0.51100000000E-03 0.  1.
         11   -1    0    0    0    0 -0.00000000000E+00 -0.00000000000E+00 -0.45593999997E+02  0.45594000000E+02  0.51100000000E-03 0. -1.
    9900012    2    1    2    0    0  0.97593817266E+00  0.24679957703E+00 -0.61605618042E+00  0.90007792152E+02  0.90000054208E+02 0.  0.
        -12    1    1    2    0    0 -0.97593817266E+00 -0.24679957703E+00  0.61605618042E+00  0.11802078484E+01  0.00000000000E+00 0.  1.
         11    1    3    3    0    0  0.52609313260E+01 -0.27639047907E+02  0.18165509891E+02  0.33490000261E+02  0.51100000000E-03 0. -1.
        -11    1    3    3    0    0  0.36754466390E+01 -0.93394317924E+01  0.54223522637E+01  0.11407707856E+02  0.51100000000E-03 0.  1.
        -12    1    3    3    0    0 -0.79604397923E+01  0.37225279276E+02 -0.24203918335E+02  0.45110084035E+02  0.00000000000E+00 0.  1.
</event>
<event>
 7    1  0.2939839E-015  0.9000788E+02  0.7816164E-02  0.1186339E+00
        -11   -1    0    0    0    0  0.00000000000E+00  0.00000000000E+00  0.45593999997E+02  0.45594000000E+02  0.51100000000E-03 0. -1.
         11   -1    0    0    0    0 -0.00000000000E+00 -0.00000000000E+00 -0.45593999997E+02  0.45594000000E+02  0.51100000000E-03 0.  1.
    9900012    2    1    2    0    0  0.30978756040E+00 -0.53854305887E+00  0.10033338798E+01  0.90007883127E+02  0.90000146385E+02 0.  0.
        -12    1    1    2    0    0 -0.30978756040E+00  0.53854305887E+00 -0.10033338798E+01  0.11801168726E+01  0.00000000000E+00 0.  1.
         11    1    3    3    0    0 -0.20168060066E+00  0.89439647029E+01 -0.49850950768E+01  0.10241403852E+02  0.51100000000E-03 0. -1.
        -11    1    3    3    0    0 -0.59564019599E+01  0.11494475368E+02 -0.32763815904E+02  0.35228813791E+02  0.51100000000E-03 0.  1.
         12    1    3    3    0    0  0.64678701210E+01 -0.20976983130E+02  0.38752244860E+02  0.44537665485E+02  0.00000000000E+00 0. -1.
</event>
<event>
 7    1  0.2405891E-015  0.9000771E+02  0.7816164E-02  0.1186339E+00
        -11   -1    0    0    0    0  0.00000000000E+00  0.00000000000E+00  0.45593999997E+02  0.45594000000E+02  0.51100000000E-03 0.  1.
         11   -1    0    0    0    0 -0.00000000000E+00 -0.00000000000E+00 -0.45593999997E+02  0.45594000000E+02  0.51100000000E-03 0. -1.
    9900012    2    1    2    0    0 -0.93016950395E+00  0.48656854549E+00 -0.53955421869E+00  0.90007710624E+02  0.89999971605E+02 0.  0.
        -12    1    1    2    0    0  0.93016950395E+00 -0.48656854549E+00  0.53955421869E+00  0.11802893757E+01  0.00000000000E+00 0.  1.
         11    1    3    3    0    0 -0.55587139399E+01  0.73128394965E+01 -0.79265676485E+00  0.92198279363E+01  0.51100000000E-03 0. -1.
        -11    1    3    3    0    0 -0.17555856478E+02  0.24720411258E+02  0.21108261498E+02  0.36944086579E+02  0.51100000000E-03 0.  1.
         12    1    3    3    0    0  0.22184400914E+02 -0.31546682209E+02 -0.20855158952E+02  0.43843796109E+02  0.00000000000E+00 0. -1.
</event>
<event>
 7    1  0.2405891E-015  0.9000774E+02  0.7816164E-02  0.1186339E+00
        -11   -1    0    0    0    0  0.00000000000E+00  0.00000000000E+00  0.45593999997E+02  0.45594000000E+02  0.51100000000E-03 0.  1.
         11   -1    0    0    0    0 -0.00000000000E+00 -0.00000000000E+00 -0.45593999997E+02  0.45594000000E+02  0.51100000000E-03 0. -1.
    9900012    2    1    2    0    0  0.27654382821E+00  0.11041182732E+01 -0.31218232757E+00  0.90007740937E+02  0.90000002317E+02 0.  0.
        -12    1    1    2    0    0 -0.27654382821E+00 -0.11041182732E+01  0.31218232757E+00  0.11802590630E+01  0.00000000000E+00 0.  1.
         11    1    3    3    0    0  0.75097338756E+00  0.47545863840E+01 -0.10983406757E+02  0.11991883795E+02  0.51100000000E-03 0. -1.
        -11    1    3    3    0    0 -0.35544922779E+02  0.13681132768E+02  0.35316476318E+01  0.38250326332E+02  0.51100000000E-03 0.  1.
         12    1    3    3    0    0  0.35070493220E+02 -0.17331600879E+02  0.71395767976E+01  0.39765530810E+02  0.00000000000E+00 0. -1.
</event>
<event>
 7    1  0.2405891E-015  0.9000769E+02  0.7816164E-02  0.1186339E+00
        -11   -1    0    0    0    0  0.00000000000E+00  0.00000000000E+00  0.45593999997E+02  0.45594000000E+02  0.51100000000E-03 0.  1.
         11   -1    0    0    0    0 -0.00000000000E+00 -0.00000000000E+00 -0.45593999997E+02  0.45594000000E+02  0.51100000000E-03 0. -1.
    9900012    2    1    2    0    0  0.75056828424E+00  0.49725972734E+00 -0.76322974090E+00  0.90007686642E+02  0.89999947306E+02 0.  0.
        -12    1    1    2    0    0 -0.75056828424E+00 -0.49725972734E+00  0.76322974090E+00  0.11803133580E+01  0.00000000000E+00 0.  1.
         11    1    3    3    0    0  0.17835225973E+02  0.14416094355E+01 -0.30828644774E+02  0.35645180069E+02  0.51100000000E-03 0. -1.
        -11    1    3    3    0    0 -0.66298816583E+01 -0.42802951523E+01 -0.10047177912E+02  0.12775838197E+02  0.51100000000E-03 0.  1.
        -12    1    3    3    0    0 -0.10454776030E+02  0.33359454442E+01  0.40112592945E+02  0.41586668376E+02  0.00000000000E+00 0.  1.
</event>
<event>
 7    1  0.2405891E-015  0.9000769E+02  0.7816164E-02  0.1186339E+00
        -11   -1    0    0    0    0  0.00000000000E+00  0.00000000000E+00  0.45593999997E+02  0.45594000000E+02  0.51100000000E-03 0.  1.
         11   -1    0    0    0    0 -0.00000000000E+00 -0.00000000000E+00 -0.45593999997E+02  0.45594000000E+02  0.51100000000E-03 0. -1.
    9900012    2    1    2    0    0  0.11342192936E+01 -0.26488861630E+00  0.19108568439E+00  0.90007689395E+02  0.89999950095E+02 0.  0.
        -12    1    1    2    0    0 -0.11342192936E+01  0.26488861630E+00 -0.19108568439E+00  0.11803106048E+01  0.00000000000E+00 0.  1.
         11    1    3    3    0    0 -0.41619305941E+01  0.19192333930E+02  0.62630346462E+01  0.20612931649E+02  0.51100000000E-03 0. -1.
        -11    1    3    3    0    0 -0.19209703324E+02 -0.29251556836E+02  0.12460052147E+02  0.37147263410E+02  0.51100000000E-03 0.  1.
         12    1    3    3    0    0  0.24505853212E+02  0.97943342899E+01 -0.18532001109E+02  0.32247494335E+02  0.00000000000E+00 0. -1.
</event>
<event>
 7    1  0.2405891E-015  0.9000723E+02  0.7816164E-02  0.1186340E+00
        -11   -1    0    0    0    0  0.00000000000E+00  0.00000000000E+00  0.45593999997E+02  0.45594000000E+02  0.51100000000E-03 0.  1.
         11   -1    0    0    0    0 -0.00000000000E+00 -0.00000000000E+00 -0.45593999997E+02  0.45594000000E+02  0.51100000000E-03 0. -1.
    9900012    2    1    2    0    0 -0.90502508178E+00  0.54982181335E+00 -0.52233826935E+00  0.90007232583E+02  0.89999487252E+02 0.  0.
        -12    1    1    2    0    0  0.90502508178E+00 -0.54982181335E+00  0.52233826935E+00  0.11807674169E+01  0.00000000000E+00 0.  1.
         11    1    3    3    0    0 -0.31813295782E+01 -0.73910401853E+00  0.83096428148E+01  0.89284543235E+01  0.51100000000E-03 0. -1.
        -11    1    3    3    0    0  0.21468421107E+02  0.14461411894E+02  0.27603990210E+02  0.37841852684E+02  0.51100000000E-03 0.  1.
         12    1    3    3    0    0 -0.19192116610E+02 -0.13172486062E+02 -0.36435971295E+02  0.43236925575E+02  0.00000000000E+00 0. -1.
</event>
<event>
 7    1  0.2405891E-015  0.9000806E+02  0.7816164E-02  0.1186338E+00
        -11   -1    0    0    0    0  0.00000000000E+00  0.00000000000E+00  0.45593999997E+02  0.45594000000E+02  0.51100000000E-03 0. -1.
         11   -1    0    0    0    0 -0.00000000000E+00 -0.00000000000E+00 -0.45593999997E+02  0.45594000000E+02  0.51100000000E-03 0.  1.
    9900012    2    1    2    0    0  0.10620817756E+01  0.50266571143E+00  0.10759870169E+00  0.90008055935E+02  0.90000321473E+02 0.  0.
        -12    1    1    2    0    0 -0.10620817756E+01 -0.50266571143E+00 -0.10759870169E+00  0.11799440649E+01  0.00000000000E+00 0.  1.
         11    1    3    3    0    0 -0.31338415854E+01  0.19921368131E+02  0.39167557761E+02  0.44054278482E+02  0.51100000000E-03 0. -1.
        -11    1    3    3    0    0  0.12494575291E+00  0.17240258399E+01 -0.78459109309E+01  0.80340646708E+01  0.51100000000E-03 0.  1.
        -12    1    3    3    0    0  0.40709776081E+01 -0.21142728260E+02 -0.31214048128E+02  0.37919712783E+02  0.00000000000E+00 0.  1.
</event>
<event>
 7    1  0.2405891E-015  0.9000772E+02  0.7816164E-02  0.1186339E+00
        -11   -1    0    0    0    0  0.00000000000E+00  0.00000000000E+00  0.45593999997E+02  0.45594000000E+02  0.51100000000E-03 0.  1.
         11   -1    0    0    0    0 -0.00000000000E+00 -0.00000000000E+00 -0.45593999997E+02  0.45594000000E+02  0.51100000000E-03 0. -1.
    9900012    2    1    2    0    0 -0.96700555555E+00 -0.12039285213E+00 -0.66594077424E+00  0.90007715586E+02  0.89999976632E+02 0.  0.
        -12    1    1    2    0    0  0.96700555555E+00  0.12039285213E+00  0.66594077424E+00  0.11802844141E+01  0.00000000000E+00 0.  1.
         11    1    3    3    0    0  0.22256415845E+02 -0.24389179337E+01 -0.32365699950E+02  0.39355239810E+02  0.51100000000E-03 0. -1.
        -11    1    3    3    0    0 -0.61304814757E+01  0.50840715801E+01 -0.54602496677E+01  0.96563405931E+01  0.51100000000E-03 0.  1.
        -12    1    3    3    0    0 -0.17092939925E+02 -0.27655464985E+01  0.37160008843E+02  0.40996135183E+02  0.00000000000E+00 0.  1.
</event>
<event>
 7    1  0.2405891E-015  0.9000756E+02  0.7816164E-02  0.1186339E+00
        -11   -1    0    0    0    0  0.00000000000E+00  0.00000000000E+00  0.45593999997E+02  0.45594000000E+02  0.51100000000E-03 0.  1.
         11   -1    0    0    0    0 -0.00000000000E+00 -0.00000000000E+00 -0.45593999997E+02  0.45594000000E+02  0.51100000000E-03 0. -1.
    9900012    2    1    2    0    0 -0.67783342259E+00  0.54315127283E+00 -0.79934742460E+00  0.90007564589E+02  0.89999823642E+02 0.  0.
        -12    1    1    2    0    0  0.67783342259E+00 -0.54315127283E+00  0.79934742460E+00  0.11804354108E+01  0.00000000000E+00 0.  1.
         11    1    3    3    0    0 -0.21909195121E+01  0.79202362892E+01 -0.65350762822E+01  0.10499404434E+02  0.51100000000E-03 0. -1.
        -11    1    3    3    0    0  0.11826374781E+02  0.34338527880E+02  0.32995373190E+01  0.36467582648E+02  0.51100000000E-03 0.  1.
         12    1    3    3    0    0 -0.10313288691E+02 -0.41715612896E+02  0.24361915386E+01  0.43040577507E+02  0.00000000000E+00 0. -1.
</event>
<event>
 7    1  0.2405891E-015  0.9000757E+02  0.7816164E-02  0.1186339E+00
        -11   -1    0    0    0    0  0.00000000000E+00  0.00000000000E+00  0.45593999997E+02  0.45594000000E+02  0.51100000000E-03 0.  1.
         11   -1    0    0    0    0 -0.00000000000E+00 -0.00000000000E+00 -0.45593999997E+02  0.45594000000E+02  0.51100000000E-03 0. -1.
    9900012    2    1    2    0    0 -0.31416544387E+00  0.10976338792E+01  0.29984900895E+00  0.90007572329E+02  0.89999831483E+02 0.  0.
        -12    1    1    2    0    0  0.31416544387E+00 -0.10976338792E+01 -0.29984900895E+00  0.11804276712E+01  0.00000000000E+00 0.  1.
         11    1    3    3    0    0 -0.11587807443E+02  0.59809372725E+01  0.45810123714E+01  0.13821525480E+02  0.51100000000E-03 0. -1.
        -11    1    3    3    0    0 -0.29870103549E+02 -0.14751740053E+02  0.21772588814E+01  0.33385286836E+02  0.51100000000E-03 0.  1.
         12    1    3    3    0    0  0.41143745548E+02  0.98684366595E+01 -0.64584222439E+01  0.42800760013E+02  0.00000000000E+00 0. -1.
</event>
<event>
 7    1  0.2405891E-015  0.9000799E+02  0.7816164E-02  0.1186339E+00
        -11   -1    0    0    0    0  0.00000000000E+00  0.00000000000E+00  0.45593999997E+02  0.45594000000E+02  0.51100000000E-03 0.  1.
         11   -1    0    0    0    0 -0.00000000000E+00 -0.00000000000E+00 -0.45593999997E+02  0.45594000000E+02  0.51100000000E-03 0. -1.
    9900012    2    1    2    0    0 -0.56967668505E+00  0.80978263464E+00 -0.64198985039E+00  0.90007987115E+02  0.90000251745E+02 0.  0.
        -12    1    1    2    0    0  0.56967668505E+00 -0.80978263464E+00  0.64198985039E+00  0.11800128850E+01  0.00000000000E+00 0.  1.
         11    1    3    3    0    0 -0.29783638536E+02  0.23656779449E+02 -0.32521203068E+01  0.38174397508E+02  0.51100000000E-03 0. -1.
        -11    1    3    3    0    0 -0.73891265604E+01 -0.51100672008E+00 -0.40466060034E+01  0.84401030563E+01  0.51100000000E-03 0.  1.
        -12    1    3    3    0    0  0.36603088411E+02 -0.22335990094E+02  0.66567364598E+01  0.43393486551E+02  0.00000000000E+00 0.  1.
</event>
<event>
 7    1  0.2405891E-015  0.9000779E+02  0.7816164E-02  0.1186339E+00
        -11   -1    0    0    0    0  0.00000000000E+00  0.00000000000E+00  0.45593999997E+02  0.45594000000E+02  0.51100000000E-03 0. -1.
         11   -1    0    0    0    0 -0.00000000000E+00 -0.00000000000E+00 -0.45593999997E+02  0.45594000000E+02  0.51100000000E-03 0.  1.
    9900012    2    1    2    0    0 -0.85433958899E+00  0.44671237250E+00 -0.68076784472E+00  0.90007791148E+02  0.90000053191E+02 0.  0.
        -12    1    1    2    0    0  0.85433958899E+00 -0.44671237250E+00  0.68076784472E+00  0.11802088525E+01  0.00000000000E+00 0.  1.
         11    1    3    3    0    0 -0.86575744740E+01 -0.45136738304E+01  0.36252166257E+00  0.97702747883E+01  0.51100000000E-03 0. -1.
        -11    1    3    3    0    0  0.32214567100E+01 -0.21756024024E+02  0.31163022652E+02  0.38142316995E+02  0.51100000000E-03 0.  1.
         12    1    3    3    0    0  0.45817781751E+01  0.26716410227E+02 -0.32206312159E+02  0.42095199365E+02  0.00000000000E+00 0. -1.
</event>
<event>
 7    1  0.2405891E-015  0.9000765E+02  0.7816164E-02  0.1186339E+00
        -11   -1    0    0    0    0  0.00000000000E+00  0.00000000000E+00  0.45593999997E+02  0.45594000000E+02  0.51100000000E-03 0. -1.
         11   -1    0    0    0    0 -0.00000000000E+00 -0.00000000000E+00 -0.45593999997E+02  0.45594000000E+02  0.51100000000E-03 0.  1.
    9900012    2    1    2    0    0 -0.10898554737E+01 -0.43630716092E+00  0.12280568835E+00  0.90007648303E+02  0.89999908460E+02 0.  0.
        -12    1    1    2    0    0  0.10898554737E+01  0.43630716092E+00 -0.12280568835E+00  0.11803516973E+01  0.00000000000E+00 0.  1.
         11    1    3    3    0    0 -0.16490347561E+02  0.16034367433E+02  0.15298071572E+01  0.23051525153E+02  0.51100000000E-03 0. -1.
        -11    1    3    3    0    0 -0.61261214147E+01  0.21867948322E+02 -0.32912300978E+01  0.22947085288E+02  0.51100000000E-03 0.  1.
        -12    1    3    3    0    0  0.21526613502E+02 -0.38338622916E+02  0.18842286289E+01  0.44009037862E+02  0.00000000000E+00 0.  1.
</event>
<event>
 7    1  0.2426889E-015  0.9000768E+02  0.7816164E-02  0.1186339E+00
        -11   -1    0    0    0    0  0.00000000000E+00  0.00000000000E+00  0.45593999997E+02  0.45594000000E+02  0.51100000000E-03 0. -1.
         11   -1    0    0    0    0 -0.00000000000E+00 -0.00000000000E+00 -0.45593999997E+02  0.45594000000E+02  0.51100000000E-03 0.  1.
    9900012    2    1    2    0    0  0.39954510414E+00  0.10442326417E+01  0.37826973923E+00  0.90007683900E+02  0.89999944528E+02 0.  0.
        -12    1    1    2    0    0 -0.39954510414E+00 -0.10442326417E+01 -0.37826973923E+00  0.11803161000E+01  0.00000000000E+00 0.  1.
         11    1    3    3    0    0  0.26456019256E+01 -0.32812132912E+01 -0.76722556381E+01  0.87538035761E+01  0.51100000000E-03 0. -1.
        -11    1    3    3    0    0 -0.21932550663E+02 -0.98302513673E+01 -0.28568915843E+02  0.37334348437E+02  0.51100000000E-03 0.  1.
         12    1    3    3    0    0  0.19686493841E+02  0.14155697300E+02  0.36619441221E+02  0.43919531887E+02  0.00000000000E+00 0. -1.
</event>
<event>
 7    1  0.2405891E-015  0.9000775E+02  0.7816164E-02  0.1186339E+00
        -11   -1    0    0    0    0  0.00000000000E+00  0.00000000000E+00  0.45593999997E+02  0.45594000000E+02  0.51100000000E-03 0.  1.
         11   -1    0    0    0    0 -0.00000000000E+00 -0.00000000000E+00 -0.45593999997E+02  0.45594000000E+02  0.51100000000E-03 0. -1.
    9900012    2    1    2    0    0 -0.42292385051E-01 -0.81934818444E+00  0.84844665381E+00  0.90007753493E+02  0.90000015039E+02 0.  0.
        -12    1    1    2    0    0  0.42292385051E-01  0.81934818444E+00 -0.84844665381E+00  0.11802465071E+01  0.00000000000E+00 0.  1.
         11    1    3    3    0    0  0.21729304300E+02  0.89474979787E+01  0.27210125363E+02  0.35952904027E+02  0.51100000000E-03 0. -1.
        -11    1    3    3    0    0  0.10209742299E+02 -0.91359498940E+01 -0.19979171570E+01  0.13845435764E+02  0.51100000000E-03 0.  1.
        -12    1    3    3    0    0 -0.31981338984E+02 -0.63089626919E+00 -0.24363761552E+02  0.40209413702E+02  0.00000000000E+00 0.  1.
</event>
<event>
 7    1  0.2405891E-015  0.9000799E+02  0.7816164E-02  0.1186339E+00
        -11   -1    0    0    0    0  0.00000000000E+00  0.00000000000E+00  0.45593999997E+02  0.45594000000E+02  0.51100000000E-03 0. -1.
         11   -1    0    0    0    0 -0.00000000000E+00 -0.00000000000E+00 -0.45593999997E+02  0.45594000000E+02  0.51100000000E-03 0.  1.
    9900012    2    1    2    0    0 -0.28748364773E+00  0.80021461484E+00  0.81819265216E+00  0.90007987503E+02  0.90000252137E+02 0.  0.
        -12    1    1    2    0    0  0.28748364773E+00 -0.80021461484E+00 -0.81819265216E+00  0.11800124972E+01  0.00000000000E+00 0.  1.
         11    1    3    3    0    0 -0.94493099932E+01 -0.47823021032E+01 -0.56329572112E+00  0.10605525686E+02  0.51100000000E-03 0. -1.
        -11    1    3    3    0    0 -0.15333454299E+02 -0.22758981487E+02 -0.22062240659E+02  0.35211198819E+02  0.51100000000E-03 0.  1.
         12    1    3    3    0    0  0.24495280645E+02  0.28341498205E+02  0.23443729033E+02  0.44191262998E+02  0.00000000000E+00 0. -1.
</event>
<event>
 7    1  0.2405891E-015  0.9000730E+02  0.7816164E-02  0.1186340E+00
        -11   -1    0    0    0    0  0.00000000000E+00  0.00000000000E+00  0.45593999997E+02  0.45594000000E+02  0.51100000000E-03 0.  1.
         11   -1    0    0    0    0 -0.00000000000E+00 -0.00000000000E+00 -0.45593999997E+02  0.45594000000E+02  0.51100000000E-03 0. -1.
    9900012    2    1    2    0    0  0.56491037202E+00  0.32829316216E+00 -0.98343885337E+00  0.90007300162E+02  0.89999555723E+02 0.  0.
        -12    1    1    2    0    0 -0.56491037202E+00 -0.32829316216E+00  0.98343885337E+00  0.11806998378E+01  0.00000000000E+00 0.  1.
         11    1    3    3    0    0 -0.32575287552E+00  0.77032937437E+01 -0.27176501615E+01  0.81751129716E+01  0.51100000000E-03 0. -1.
        -11    1    3    3    0    0  0.33215199401E+02  0.15868346199E+01  0.24490016294E+02  0.41298043703E+02  0.51100000000E-03 0.  1.
         12    1    3    3    0    0 -0.32324536154E+02 -0.89618352014E+01 -0.22755804985E+02  0.40534143487E+02  0.00000000000E+00 0. -1.
</event>
<event>
 7    1  0.2405891E-015  0.9000782E+02  0.7816164E-02  0.1186339E+00
        -11   -1    0    0    0    0  0.00000000000E+00  0.00000000000E+00  0.45593999997E+02  0.45594000000E+02  0.51100000000E-03 0.  1.
         11   -1    0    0    0    0 -0.00000000000E+00 -0.00000000000E+00 -0.45593999997E+02  0.45594000000E+02  0.51100000000E-03 0. -1.
    9900012    2    1    2    0    0  0.74754775569E+00 -0.27635115748E+00 -0.87041543041E+00  0.90007821780E+02  0.90000084228E+02 0.  0.
        -12    1    1    2    0    0 -0.74754775569E+00  0.27635115748E+00  0.87041543041E+00  0.11801782199E+01  0.00000000000E+00 0.  1.
         11    1    3    3    0    0  0.11298843758E+02 -0.10027097076E+02 -0.29453454397E+01  0.15390958582E+02  0.51100000000E-03 0. -1.
        -11    1    3    3    0    0 -0.36657560137E+02 -0.31015574827E+01  0.18526070995E+02  0.41189946356E+02  0.51100000000E-03 0.  1.
         12    1    3    3    0    0  0.26106264135E+02  0.12852303402E+02 -0.16451140986E+02  0.33426916842E+02  0.00000000000E+00 0. -1.
</event>
<event>
 7    1  0.2405891E-015  0.9000774E+02  0.7816164E-02  0.1186339E+00
        -11   -1    0    0    0    0  0.00000000000E+00  0.00000000000E+00  0.45593999997E+02  0.45594000000E+02  0.51100000000E-03 0.  1.
         11   -1    0    0    0    0 -0.00000000000E+00 -0.00000000000E+00 -0.45593999997E+02  0.45594000000E+02  0.51100000000E-03 0. -1.
    9900012    2    1    2    0    0  0.55793408817E-01  0.11142735623E+00 -0.11736601535E+01  0.90007742775E+02  0.90000004180E+02 0.  0.
        -12    1    1    2    0    0 -0.55793408817E-01 -0.11142735623E+00  0.11736601535E+01  0.11802572245E+01  0.00000000000E+00 0.  1.
         11    1    3    3    0    0 -0.11419365747E+01  0.83195264129E+01  0.89820850453E+00  0.84454317625E+01  0.51100000000E-03 0. -1.
        -11    1    3    3    0    0 -0.17234824911E+02  0.24361051931E+02 -0.23905237437E+02  0.38235590987E+02  0.51100000000E-03 0.  1.
         12    1    3    3    0    0  0.18432554895E+02 -0.32569150988E+02  0.21833368779E+02  0.43326720027E+02  0.00000000000E+00 0. -1.
</event>
<event>
 7    1  0.2405891E-015  0.9000768E+02  0.7816164E-02  0.1186339E+00
        -11   -1    0    0    0    0  0.00000000000E+00  0.00000000000E+00  0.45593999997E+02  0.45594000000E+02  0.51100000000E-03 0.  1.
         11   -1    0    0    0    0 -0.00000000000E+00 -0.00000000000E+00 -0.45593999997E+02  0.45594000000E+02  0.51100000000E-03 0. -1.
    9900012    2    1    2    0    0  0.11084479500E+01  0.24249699160E-01 -0.40485051836E+00  0.90007682734E+02  0.89999943346E+02 0.  0.
        -12    1    1    2    0    0 -0.11084479500E+01 -0.24249699160E-01  0.40485051836E+00  0.11803172658E+01  0.00000000000E+00 0.  1.
         11    1    3    3    0    0  0.10143668505E+02  0.14381184246E+02 -0.37071489880E+02  0.41036664500E+02  0.51100000000E-03 0. -1.
        -11    1    3    3    0    0  0.17939005528E+01 -0.71743059792E+01 -0.24198645084E+01  0.77810339915E+01  0.51100000000E-03 0.  1.
        -12    1    3    3    0    0 -0.10829121108E+02 -0.71826285680E+01  0.39086503870E+02  0.41189984243E+02  0.00000000000E+00 0.  1.
</event>
<event>
 7    1  0.2405891E-015  0.9000777E+02  0.7816164E-02  0.1186339E+00
        -11   -1    0    0    0    0  0.00000000000E+00  0.00000000000E+00  0.45593999997E+02  0.45594000000E+02  0.51100000000E-03 0. -1.
         11   -1    0    0    0    0 -0.00000000000E+00 -0.00000000000E+00 -0.45593999997E+02  0.45594000000E+02  0.51100000000E-03 0.  1.
    9900012    2    1    2    0    0 -0.97111984500E+00  0.55661659502E+00  0.37423248660E+00  0.90007768776E+02  0.90000030524E+02 0.  0.
        -12    1    1    2    0    0  0.97111984500E+00 -0.55661659502E+00 -0.37423248660E+00  0.11802312236E+01  0.00000000000E+00 0.  1.
         11    1    3    3    0    0 -0.23915438345E+02  0.25724113017E+02  0.13135782470E+02  0.37499692840E+02  0.51100000000E-03 0. -1.
        -11    1    3    3    0    0 -0.19704156945E+01  0.81209294002E+01 -0.62193836167E+01  0.10416946058E+02  0.51100000000E-03 0.  1.
        -12    1    3    3    0    0  0.24914734195E+02 -0.33288425822E+02 -0.65421663668E+01  0.42091129879E+02  0.00000000000E+00 0.  1.
</event>
<event>
 7    1  0.2405891E-015  0.9000772E+02  0.7816164E-02  0.1186339E+00
        -11   -1    0    0    0    0  0.00000000000E+00  0.00000000000E+00  0.45593999997E+02  0.45594000000E+02  0.51100000000E-03 0. -1.
         11   -1    0    0    0    0 -0.00000000000E+00 -0.00000000000E+00 -0.45593999997E+02  0.45594000000E+02  0.51100000000E-03 0.  1.
    9900012    2    1    2    0    0  0.48311096494E+00 -0.61010610514E+00  0.88737226106E+00  0.90007722408E+02  0.89999983544E+02 0.  0.
        -12    1    1    2    0    0 -0.48311096494E+00  0.61010610514E+00 -0.88737226106E+00  0.11802775918E+01  0.00000000000E+00 0.  1.
         11    1    3    3    0    0  0.83590047924E+01  0.76789692567E+01 -0.10983933054E+02  0.15795135820E+02  0.51100000000E-03 0. -1.
        -11    1    3    3    0    0  0.30981838126E+02 -0.13266901619E+02  0.17365685994E+01  0.33747602033E+02  0.51100000000E-03 0.  1.
         12    1    3    3    0    0 -0.38857731953E+02  0.49778262572E+01  0.10134736716E+02  0.40464984555E+02  0.00000000000E+00 0. -1.
</event>
<event>
 7    1  0.2405891E-015  0.9000771E+02  0.7816164E-02  0.1186339E+00
        -11   -1    0    0    0    0  0.00000000000E+00  0.00000000000E+00  0.45593999997E+02  0.45594000000E+02  0.51100000000E-03 0. -1.
         11   -1    0    0    0    0 -0.00000000000E+00 -0.00000000000E+00 -0.45593999997E+02  0.45594000000E+02  0.51100000000E-03 0.  1.
    9900012    2    1    2    0    0  0.87876973031E+00  0.74868579998E-01  0.78437643898E+00  0.90007708535E+02  0.89999969488E+02 0.  0.
        -12    1    1    2    0    0 -0.87876973031E+00 -0.74868579998E-01 -0.78437643898E+00  0.11802914645E+01  0.00000000000E+00 0.  1.
         11    1    3    3    0    0  0.85714805017E+01  0.40274723837E+02  0.13803233763E+02  0.43428710789E+02  0.51100000000E-03 0. -1.
        -11    1    3    3    0    0  0.55680634887E+01 -0.68207765125E+01 -0.26865433926E+01  0.92056416891E+01  0.51100000000E-03 0.  1.
        -12    1    3    3    0    0 -0.13260774260E+02 -0.33379078745E+02 -0.10332313932E+02  0.37373356058E+02  0.00000000000E+00 0.  1.
</event>
<event>
 7    1  0.2405891E-015  0.9000783E+02  0.7816164E-02  0.1186339E+00
        -11   -1    0    0    0    0  0.00000000000E+00  0.00000000000E+00  0.45593999997E+02  0.45594000000E+02  0.51100000000E-03 0. -1.
         11   -1    0    0    0    0 -0.00000000000E+00 -0.00000000000E+00 -0.45593999997E+02  0.45594000000E+02  0.51100000000E-03 0.  1.
    9900012    2    1    2    0    0 -0.90207580839E+00  0.50104318541E-01  0.75931638287E+00  0.90007825193E+02  0.90000087685E+02 0.  0.
        -12    1    1    2    0    0  0.90207580839E+00 -0.50104318541E-01 -0.75931638287E+00  0.11801748074E+01  0.00000000000E+00 0.  1.
         11    1    3    3    0    0 -0.25104060726E+02  0.69481904458E+01  0.24193734092E+02  0.35550358437E+02  0.51100000000E-03 0. -1.
        -11    1    3    3    0    0 -0.56279400309E+01  0.76246923147E+01  0.50424910504E+01  0.10734819893E+02  0.51100000000E-03 0.  1.
        -12    1    3    3    0    0  0.29829924949E+02 -0.14522778442E+02 -0.28476908760E+02  0.43722646862E+02  0.00000000000E+00 0.  1.
</event>
<event>
 7    1  0.2405891E-015  0.9000772E+02  0.7816164E-02  0.1186339E+00
        -11   -1    0    0    0    0  0.00000000000E+00  0.00000000000E+00  0.45593999997E+02  0.45594000000E+02  0.51100000000E-03 0. -1.
         11   -1    0    0    0    0 -0.00000000000E+00 -0.00000000000E+00 -0.45593999997E+02  0.45594000000E+02  0.51100000000E-03 0.  1.
    9900012    2    1    2    0    0  0.37558115658E+00  0.10571972767E+01  0.36652009141E+00  0.90007718566E+02  0.89999979651E+02 0.  0.
        -12    1    1    2    0    0 -0.37558115658E+00 -0.10571972767E+01 -0.36652009141E+00  0.11802814344E+01  0.00000000000E+00 0.  1.
         11    1    3    3    0    0  0.16040111203E+02  0.36207843739E+02  0.22092479815E+01  0.39663256202E+02  0.51100000000E-03 0. -1.
        -11    1    3    3    0    0  0.20971960417E+01 -0.14626228270E+01  0.10110689687E+02  0.10428976123E+02  0.51100000000E-03 0.  1.
        -12    1    3    3    0    0 -0.17761726089E+02 -0.33688023635E+02 -0.11953417577E+02  0.39915486241E+02  0.00000000000E+00 0.  1.
</event>
<event>
 7    1  0.2405891E-015  0.9000766E+02  0.7816164E-02  0.1186339E+00
        -11   -1    0    0    0    0  0.00000000000E+00  0.00000000000E+00  0.45593999997E+02  0.45594000000E+02  0.51100000000E-03 0. -1.
         11   -1    0    0    0    0 -0.00000000000E+00 -0.00000000000E+00 -0.45593999997E+02  0.45594000000E+02  0.51100000000E-03 0.  1.
    9900012    2    1    2    0    0 -0.11295314142E+01  0.67088759373E-02 -0.34250564699E+00  0.90007662615E+02  0.89999922961E+02 0.  0.
        -12    1    1    2    0    0  0.11295314142E+01 -0.67088759373E-02  0.34250564699E+00  0.11803373852E+01  0.00000000000E+00 0.  1.
         11    1    3    3    0    0 -0.75522031560E+01 -0.56016735720E+01  0.64469713002E+00  0.94249750115E+01  0.51100000000E-03 0. -1.
        -11    1    3    3    0    0  0.33049197713E+02 -0.23197377120E+02  0.57381918925E+01  0.40783509182E+02  0.51100000000E-03 0.  1.
         12    1    3    3    0    0 -0.26626525971E+02  0.28805759568E+02 -0.67253946695E+01  0.39799178422E+02  0.00000000000E+00 0. -1.
</event>
<event>
 7    1  0.2405891E-015  0.9000789E+02  0.7816164E-02  0.1186339E+00
        -11   -1    0    0    0    0  0.00000000000E+00  0.00000000000E+00  0.45593999997E+02  0.45594000000E+02  0.51100000000E-03 0.  1.
         11   -1    0    0    0    0 -0.00000000000E+00 -0.00000000000E+00 -0.45593999997E+02  0.45594000000E+02  0.51100000000E-03 0. -1.
    9900012    2    1    2    0    0  0.26557844750E+00 -0.11138087050E+01 -0.28556675957E+00  0.90007894023E+02  0.90000157424E+02 0.  0.
        -12    1    1    2    0    0 -0.26557844750E+00  0.11138087050E+01  0.28556675957E+00  0.11801059771E+01  0.00000000000E+00 0.  1.
         11    1    3    3    0    0  0.36592671492E+01  0.59632871313E+00  0.97615267047E+01  0.10441898672E+02  0.51100000000E-03 0. -1.
        -11    1    3    3    0    0  0.19698151801E+02 -0.33765269980E+02 -0.13547447277E+01  0.39114523834E+02  0.51100000000E-03 0.  1.
         12    1    3    3    0    0 -0.23091840503E+02  0.32055132562E+02 -0.86923487366E+01  0.40451471517E+02  0.00000000000E+00 0. -1.
</event>
<event>
 7    1  0.2405891E-015  0.9000770E+02  0.7816164E-02  0.1186339E+00
        -11   -1    0    0    0    0  0.00000000000E+00  0.00000000000E+00  0.45593999997E+02  0.45594000000E+02  0.51100000000E-03 0. -1.
         11   -1    0    0    0    0 -0.00000000000E+00 -0.00000000000E+00 -0.45593999997E+02  0.45594000000E+02  0.51100000000E-03 0.  1.
    9900012    2    1    2    0    0 -0.53007617676E+00  0.61462539895E+00  0.85694306462E+00  0.90007704889E+02  0.89999965793E+02 0.  0.
        -12    1    1    2    0    0  0.53007617676E+00 -0.61462539895E+00 -0.85694306462E+00  0.11802951115E+01  0.00000000000E+00 0.  1.
         11    1    3    3    0    0 -0.57806560852E+01  0.20715480850E+01 -0.17071760088E+01  0.63735191559E+01  0.51100000000E-03 0. -1.
        -11    1    3    3    0    0 -0.29426916635E+02 -0.12533645420E+02 -0.22788072113E+02  0.39272533927E+02  0.51100000000E-03 0.  1.
         12    1    3    3    0    0  0.34677496543E+02  0.11076722733E+02  0.25352191186E+02  0.44361651806E+02  0.00000000000E+00 0. -1.
</event>
<event>
 7    1  0.2405891E-015  0.9000774E+02  0.7816164E-02  0.1186339E+00
        -11   -1    0    0    0    0  0.00000000000E+00  0.00000000000E+00  0.45593999997E+02  0.45594000000E+02  0.51100000000E-03 0.  1.
         11   -1    0    0    0    0 -0.00000000000E+00 -0.00000000000E+00 -0.45593999997E+02  0.45594000000E+02  0.51100000000E-03 0. -1.
    9900012    2    1    2    0    0  0.49680109266E+00 -0.89937682868E+00 -0.58079171665E+00  0.90007741967E+02  0.90000003361E+02 0.  0.
        -12    1    1    2    0    0 -0.49680109266E+00  0.89937682868E+00  0.58079171665E+00  0.11802580327E+01  0.00000000000E+00 0.  1.
         11    1    3    3    0    0  0.23111569288E+02  0.13820687672E+01 -0.32279252655E+02  0.39724109823E+02  0.51100000000E-03 0. -1.
        -11    1    3    3    0    0 -0.11797322800E+02 -0.36228121612E+01 -0.39881153828E+01  0.12969450944E+02  0.51100000000E-03 0.  1.
        -12    1    3    3    0    0 -0.10817445395E+02  0.13413665652E+01  0.35686576321E+02  0.37314181200E+02  0.00000000000E+00 0.  1.
</event>
<event>
 7    1  0.2405891E-015  0.9000770E+02  0.7816164E-02  0.1186339E+00
        -11   -1    0    0    0    0  0.00000000000E+00  0.00000000000E+00  0.45593999997E+02  0.45594000000E+02  0.51100000000E-03 0.  1.
         11   -1    0    0    0    0 -0.00000000000E+00 -0.00000000000E+00 -0.45593999997E+02  0.45594000000E+02  0.51100000000E-03 0. -1.
    9900012    2    1    2    0    0  0.70514222588E+00 -0.64460021238E+00 -0.69309574950E+00  0.90007696348E+02  0.89999957140E+02 0.  0.
        -12    1    1    2    0    0 -0.70514222588E+00  0.64460021238E+00  0.69309574950E+00  0.11803036518E+01  0.00000000000E+00 0.  1.
         11    1    3    3    0    0  0.46269546915E+01 -0.28509781267E+01  0.74768333557E+01  0.92433664477E+01  0.51100000000E-03 0. -1.
        -11    1    3    3    0    0  0.30874162711E+02  0.22323469497E+02  0.50968309814E+01  0.38438638111E+02  0.51100000000E-03 0.  1.
         12    1    3    3    0    0 -0.34795975177E+02 -0.20117091583E+02 -0.13266760087E+02  0.42325691790E+02  0.00000000000E+00 0. -1.
</event>
<event>
 7    1  0.2405891E-015  0.9000732E+02  0.7816164E-02  0.1186340E+00
        -11   -1    0    0    0    0  0.00000000000E+00  0.00000000000E+00  0.45593999997E+02  0.45594000000E+02  0.51100000000E-03 0.  1.
         11   -1    0    0    0    0 -0.00000000000E+00 -0.00000000000E+00 -0.45593999997E+02  0.45594000000E+02  0.51100000000E-03 0. -1.
    9900012    2    1    2    0    0 -0.11163027386E+01  0.32076036783E+00 -0.21212440506E+00  0.90007315546E+02  0.89999571310E+02 0.  0.
        -12    1    1    2    0    0  0.11163027386E+01 -0.32076036783E+00  0.21212440506E+00  0.11806844544E+01  0.00000000000E+00 0.  1.
         11    1    3    3    0    0  0.23632913906E+02 -0.24038214112E+02 -0.94769517855E+01  0.35016609956E+02  0.51100000000E-03 0. -1.
        -11    1    3    3    0    0  0.67751695297E+01 -0.62696447647E+01  0.57979670886E+01  0.10900816036E+02  0.51100000000E-03 0.  1.
        -12    1    3    3    0    0 -0.31524386175E+02  0.30628619245E+02  0.34668602919E+01  0.44089889553E+02  0.00000000000E+00 0.  1.
</event>
<event>
 7    1  0.2405891E-015  0.9000762E+02  0.7816164E-02  0.1186339E+00
        -11   -1    0    0    0    0  0.00000000000E+00  0.00000000000E+00  0.45593999997E+02  0.45594000000E+02  0.51100000000E-03 0.  1.
         11   -1    0    0    0    0 -0.00000000000E+00 -0.00000000000E+00 -0.45593999997E+02  0.45594000000E+02  0.51100000000E-03 0. -1.
    9900012    2    1    2    0    0 -0.50391592404E+00 -0.38772320776E+00 -0.99449759453E+00  0.90007624632E+02  0.89999884477E+02 0.  0.
        -12    1    1    2    0    0  0.50391592404E+00  0.38772320776E+00  0.99449759453E+00  0.11803753682E+01  0.00000000000E+00 0.  1.
         11    1    3    3    0    0  0.10410141418E+01 -0.58068137137E+01 -0.78221127211E+01  0.97973590131E+01  0.51100000000E-03 0. -1.
        -11    1    3    3    0    0 -0.31019040996E+01 -0.18817029010E+02  0.36911398071E+02  0.41547005880E+02  0.51100000000E-03 0.  1.
         12    1    3    3    0    0  0.15569740338E+01  0.24236119516E+02 -0.30083782944E+02  0.38663259738E+02  0.00000000000E+00 0. -1.
</event>
<event>
 7    1  0.2405891E-015  0.9000779E+02  0.7816164E-02  0.1186339E+00
        -11   -1    0    0    0    0  0.00000000000E+00  0.00000000000E+00  0.45593999997E+02  0.45594000000E+02  0.51100000000E-03 0.  1.
         11   -1    0    0    0    0 -0.00000000000E+00 -0.00000000000E+00 -0.45593999997E+02  0.45594000000E+02  0.51100000000E-03 0. -1.
    9900012    2    1    2    0    0 -0.39965228063E+00 -0.85121731614E+00 -0.71316274880E+00  0.90007790709E+02  0.90000052746E+02 0.  0.
        -12    1    1    2    0    0  0.39965228063E+00  0.85121731614E+00  0.71316274880E+00  0.11802092912E+01  0.00000000000E+00 0.  1.
         11    1    3    3    0    0  0.15634887490E+02 -0.82362121464E+01 -0.36800401139E+02  0.40823454308E+02  0.51100000000E-03 0. -1.
        -11    1    3    3    0    0 -0.85095466582E+01 -0.12784669536E+01 -0.24725839993E+01  0.89532415344E+01  0.51100000000E-03 0.  1.
        -12    1    3    3    0    0 -0.75249931127E+01  0.86634617839E+01  0.38559822390E+02  0.40231094867E+02  0.00000000000E+00 0.  1.
</event>
<event>
 7    1  0.2405891E-015  0.9000815E+02  0.7816164E-02  0.1186338E+00
        -11   -1    0    0    0    0  0.00000000000E+00  0.00000000000E+00  0.45593999997E+02  0.45594000000E+02  0.51100000000E-03 0. -1.
         11   -1    0    0    0    0 -0.00000000000E+00 -0.00000000000E+00 -0.45593999997E+02  0.45594000000E+02  0.51100000000E-03 0.  1.
    9900012    2    1    2    0    0 -0.10890913143E+01 -0.19179506938E-01  0.45339431132E+00  0.90008146557E+02  0.90000413291E+02 0.  0.
        -12    1    1    2    0    0  0.10890913143E+01  0.19179506938E-01 -0.45339431132E+00  0.11798534425E+01  0.00000000000E+00 0.  1.
         11    1    3    3    0    0  0.14860248508E+01  0.11925151343E+02 -0.46194721393E+01  0.12874666112E+02  0.51100000000E-03 0. -1.
        -11    1    3    3    0    0 -0.24744404630E+02  0.24151525505E+02  0.33346781033E+01  0.34737613951E+02  0.51100000000E-03 0.  1.
         12    1    3    3    0    0  0.22169288465E+02 -0.36095856354E+02  0.17381883474E+01  0.42395866494E+02  0.00000000000E+00 0. -1.
</event>
<event>
 7    1  0.2405891E-015  0.9000756E+02  0.7816164E-02  0.1186339E+00
        -11   -1    0    0    0    0  0.00000000000E+00  0.00000000000E+00  0.45593999997E+02  0.45594000000E+02  0.51100000000E-03 0.  1.
         11   -1    0    0    0    0 -0.00000000000E+00 -0.00000000000E+00 -0.45593999997E+02  0.45594000000E+02  0.51100000000E-03 0. -1.
    9900012    2    1    2    0    0 -0.60220538796E+00 -0.10026987733E+01 -0.15930553525E+00  0.90007561771E+02  0.89999820786E+02 0.  0.
        -12    1    1    2    0    0  0.60220538796E+00  0.10026987733E+01  0.15930553525E+00  0.11804382292E+01  0.00000000000E+00 0.  1.
         11    1    3    3    0    0 -0.24769051289E+01 -0.82937520365E+01 -0.47076351655E+01  0.98530812933E+01  0.51100000000E-03 0. -1.
        -11    1    3    3    0    0 -0.28316786458E+02 -0.44411942381E+01  0.28074305872E+02  0.40121456255E+02  0.51100000000E-03 0.  1.
         12    1    3    3    0    0  0.30191486199E+02  0.11732247501E+02 -0.23525976242E+02  0.40033024223E+02  0.00000000000E+00 0. -1.
</event>
<event>
 7    1  0.2405891E-015  0.9000770E+02  0.7816164E-02  0.1186339E+00
        -11   -1    0    0    0    0  0.00000000000E+00  0.00000000000E+00  0.45593999997E+02  0.45594000000E+02  0.51100000000E-03 0.  1.
         11   -1    0    0    0    0 -0.00000000000E+00 -0.00000000000E+00 -0.45593999997E+02  0.45594000000E+02  0.51100000000E-03 0. -1.
    9900012    2    1    2    0    0  0.76308741867E+00 -0.84720612659E+00 -0.30504018515E+00  0.90007699130E+02  0.89999959958E+02 0.  0.
        -12    1    1    2    0    0 -0.76308741867E+00  0.84720612659E+00  0.30504018515E+00  0.11803008701E+01  0.00000000000E+00 0.  1.
         11    1    3    3    0    0 -0.58766875870E+01  0.26829785244E+01  0.48411138375E+01  0.80728070835E+01  0.51100000000E-03 0. -1.
        -11    1    3    3    0    0  0.17121717416E+02  0.14073108587E+02  0.32345714565E+02  0.39210341028E+02  0.51100000000E-03 0.  1.
         12    1    3    3    0    0 -0.10481942411E+02 -0.17603293238E+02 -0.37491868587E+02  0.42724551018E+02  0.00000000000E+00 0. -1.
</event>
<event>
 7    1  0.2405891E-015  0.9000773E+02  0.7816164E-02  0.1186339E+00
        -11   -1    0    0    0    0  0.00000000000E+00  0.00000000000E+00  0.45593999997E+02  0.45594000000E+02  0.51100000000E-03 0. -1.
         11   -1    0    0    0    0 -0.00000000000E+00 -0.00000000000E+00 -0.45593999997E+02  0.45594000000E+02  0.51100000000E-03 0.  1.
    9900012    2    1    2    0    0 -0.21187786865E+00  0.10573738311E+01  0.47970176496E+00  0.90007726543E+02  0.89999987733E+02 0.  0.
        -12    1    1    2    0    0  0.21187786865E+00 -0.10573738311E+01 -0.47970176496E+00  0.11802734570E+01  0.00000000000E+00 0.  1.
         11    1    3    3    0    0  0.27981374885E+01  0.11660790331E+02  0.10171103994E+01  0.12034870933E+02  0.51100000000E-03 0. -1.
        -11    1    3    3    0    0  0.21776357482E+02  0.25331964935E+02 -0.61248927289E+01  0.33962221715E+02  0.51100000000E-03 0.  1.
         12    1    3    3    0    0 -0.24786372839E+02 -0.35935381434E+02  0.55874840944E+01  0.44010633895E+02  0.00000000000E+00 0. -1.
</event>
<event>
 7    1  0.2405891E-015  0.9000773E+02  0.7816164E-02  0.1186339E+00
        -11   -1    0    0    0    0  0.00000000000E+00  0.00000000000E+00  0.45593999997E+02  0.45594000000E+02  0.51100000000E-03 0.  1.
         11   -1    0    0    0    0 -0.00000000000E+00 -0.00000000000E+00 -0.45593999997E+02  0.45594000000E+02  0.51100000000E-03 0. -1.
    9900012    2    1    2    0    0 -0.94042239960E-01  0.66106698032E+00 -0.97323311868E+00  0.90007730455E+02  0.89999991697E+02 0.  0.
        -12    1    1    2    0    0  0.94042239960E-01 -0.66106698032E+00  0.97323311868E+00  0.11802695449E+01  0.00000000000E+00 0.  1.
         11    1    3    3    0    0  0.30681634449E+02  0.26217693830E+02 -0.69305924877E+01  0.40948300023E+02  0.51100000000E-03 0. -1.
        -11    1    3    3    0    0 -0.53852004991E+01  0.54161887036E+01  0.47440549734E+01  0.89911924871E+01  0.51100000000E-03 0.  1.
        -12    1    3    3    0    0 -0.25390476190E+02 -0.30972815554E+02  0.12133043956E+01  0.40068237945E+02  0.00000000000E+00 0.  1.
</event>
<event>
 7    1  0.2405891E-015  0.9000829E+02  0.7816164E-02  0.1186338E+00
        -11   -1    0    0    0    0  0.00000000000E+00  0.00000000000E+00  0.45593999997E+02  0.45594000000E+02  0.51100000000E-03 0. -1.
         11   -1    0    0    0    0 -0.00000000000E+00 -0.00000000000E+00 -0.45593999997E+02  0.45594000000E+02  0.51100000000E-03 0.  1.
    9900012    2    1    2    0    0  0.11207852253E+01  0.24657181791E+00  0.27343202124E+00  0.90008287216E+02  0.90000555805E+02 0.  0.
        -12    1    1    2    0    0 -0.11207852253E+01 -0.24657181791E+00 -0.27343202124E+00  0.11797127841E+01  0.00000000000E+00 0.  1.
         11    1    3    3    0    0 -0.95064691880E+01  0.39580552607E+01 -0.31410685447E+01  0.10765940262E+02  0.51100000000E-03 0. -1.
        -11    1    3    3    0    0 -0.27462805080E+01 -0.88419008936E+01 -0.36070353973E+02  0.37239652308E+02  0.51100000000E-03 0.  1.
         12    1    3    3    0    0  0.13373534921E+02  0.51304174508E+01  0.39484854539E+02  0.42002694645E+02  0.00000000000E+00 0. -1.
</event>
<event>
 7    1  0.2405891E-015  0.9000773E+02  0.7816164E-02  0.1186339E+00
        -11   -1    0    0    0    0  0.00000000000E+00  0.00000000000E+00  0.45593999997E+02  0.45594000000E+02  0.51100000000E-03 0.  1.
         11   -1    0    0    0    0 -0.00000000000E+00 -0.00000000000E+00 -0.45593999997E+02  0.45594000000E+02  0.51100000000E-03 0. -1.
    9900012    2    1    2    0    0 -0.27669061880E+00  0.78703578677E+00 -0.83489745700E+00  0.90007730204E+02  0.89999991442E+02 0.  0.
        -12    1    1    2    0    0  0.27669061880E+00 -0.78703578677E+00  0.83489745700E+00  0.11802697962E+01  0.00000000000E+00 0.  1.
         11    1    3    3    0    0  0.33494432309E+02  0.33381137160E+01  0.14911200933E+02  0.36815267382E+02  0.51100000000E-03 0. -1.
        -11    1    3    3    0    0  0.50244951309E+01 -0.10082558077E+02 -0.28261358616E+01  0.11614240090E+02  0.51100000000E-03 0.  1.
        -12    1    3    3    0    0 -0.38795618059E+02  0.75314801479E+01 -0.12919962528E+02  0.41578222732E+02  0.00000000000E+00 0.  1.
</event>
<event>
 7    1  0.2405891E-015  0.9000778E+02  0.7816164E-02  0.1186339E+00
        -11   -1    0    0    0    0  0.00000000000E+00  0.00000000000E+00  0.45593999997E+02  0.45594000000E+02  0.51100000000E-03 0.  1.
         11   -1    0    0    0    0 -0.00000000000E+00 -0.00000000000E+00 -0.45593999997E+02  0.45594000000E+02  0.51100000000E-03 0. -1.
    9900012    2    1    2    0    0 -0.54184675053E+00  0.10469325341E+01 -0.57127811765E-01  0.90007775776E+02  0.90000037616E+02 0.  0.
        -12    1    1    2    0    0  0.54184675053E+00 -0.10469325341E+01  0.57127811765E-01  0.11802242240E+01  0.00000000000E+00 0.  1.
         11    1    3    3    0    0  0.88281027949E+00 -0.99635216420E+01 -0.14506649897E+01  0.10107202713E+02  0.51100000000E-03 0. -1.
        -11    1    3    3    0    0  0.14035835184E+01  0.33723541339E+02  0.28675325670E+02  0.44289068512E+02  0.51100000000E-03 0.  1.
         12    1    3    3    0    0 -0.28282405484E+01 -0.22713087163E+02 -0.27281788492E+02  0.35611504551E+02  0.00000000000E+00 0. -1.
</event>
<event>
 7    1  0.2405891E-015  0.9000774E+02  0.7816164E-02  0.1186339E+00
        -11   -1    0    0    0    0  0.00000000000E+00  0.00000000000E+00  0.45593999997E+02  0.45594000000E+02  0.51100000000E-03 0. -1.
         11   -1    0    0    0    0 -0.00000000000E+00 -0.00000000000E+00 -0.45593999997E+02  0.45594000000E+02  0.51100000000E-03 0.  1.
    9900012    2    1    2    0    0  0.52057923933E+00 -0.10590347022E+01  0.21386775909E-01  0.90007739588E+02  0.90000000951E+02 0.  0.
        -12    1    1    2    0    0 -0.52057923933E+00  0.10590347022E+01 -0.21386775909E-01  0.11802604115E+01  0.00000000000E+00 0.  1.
         11    1    3    3    0    0 -0.31457872834E+02 -0.51493997042E+01  0.17061688402E+02  0.36155432398E+02  0.51100000000E-03 0. -1.
        -11    1    3    3    0    0 -0.75701095010E+01  0.44724231076E+01  0.32833836783E+01  0.93856131899E+01  0.51100000000E-03 0.  1.
        -12    1    3    3    0    0  0.39548561574E+02 -0.38205810567E+00 -0.20323685304E+02  0.44466694000E+02  0.00000000000E+00 0.  1.
</event>
<event>
 7    1  0.2405891E-015  0.9000767E+02  0.7816164E-02  0.1186339E+00
        -11   -1    0    0    0    0  0.00000000000E+00  0.00000000000E+00  0.45593999997E+02  0.45594000000E+02  0.51100000000E-03 0.  1.
         11   -1    0    0    0    0 -0.00000000000E+00 -0.00000000000E+00 -0.45593999997E+02  0.45594000000E+02  0.51100000000E-03 0. -1.
    9900012    2    1    2    0    0  0.15814204352E+00  0.11526805972E+01 -0.19875906392E+00  0.90007666729E+02  0.89999927130E+02 0.  0.
        -12    1    1    2    0    0 -0.15814204352E+00 -0.11526805972E+01  0.19875906392E+00  0.11803332710E+01  0.00000000000E+00 0.  1.
         11    1    3    3    0    0 -0.45952710277E+01 -0.40382403297E+01  0.60654563146E+01  0.86147351291E+01  0.51100000000E-03 0. -1.
        -11    1    3    3    0    0 -0.50820775371E+01  0.38476717948E+02  0.13932474585E+02  0.41235896795E+02  0.51100000000E-03 0.  1.
         12    1    3    3    0    0  0.98354906083E+01 -0.33285797021E+02 -0.20196689964E+02  0.40157034805E+02  0.00000000000E+00 0. -1.
</event>
<event>
 7    1  0.2405891E-015  0.9000763E+02  0.7816164E-02  0.1186339E+00
        -11   -1    0    0    0    0  0.00000000000E+00  0.00000000000E+00  0.45593999997E+02  0.45594000000E+02  0.51100000000E-03 0. -1.
         11   -1    0    0    0    0 -0.00000000000E+00 -0.00000000000E+00 -0.45593999997E+02  0.45594000000E+02  0.51100000000E-03 0.  1.
    9900012    2    1    2    0    0  0.48134889120E+00 -0.24266535943E+00  0.10500864871E+01  0.90007633590E+02  0.89999893553E+02 0.  0.
        -12    1    1    2    0    0 -0.48134889120E+00  0.24266535943E+00 -0.10500864871E+01  0.11803664101E+01  0.00000000000E+00 0.  1.
         11    1    3    3    0    0  0.55555341765E+01 -0.59384865034E+01 -0.63445641259E+01  0.10314217185E+02  0.51100000000E-03 0. -1.
        -11    1    3    3    0    0  0.29897511758E+02  0.84984179245E+01  0.25508839693E+02  0.40209267828E+02  0.51100000000E-03 0.  1.
         12    1    3    3    0    0 -0.34971697043E+02 -0.28025967805E+01 -0.18114189080E+02  0.39484148577E+02  0.00000000000E+00 0. -1.
</event>
<event>
 7    1  0.2405891E-015  0.9000772E+02  0.7816164E-02  0.1186339E+00
        -11   -1    0    0    0    0  0.00000000000E+00  0.00000000000E+00  0.45593999997E+02  0.45594000000E+02  0.51100000000E-03 0. -1.
         11   -1    0    0    0    0 -0.00000000000E+00 -0.00000000000E+00 -0.45593999997E+02  0.45594000000E+02  0.51100000000E-03 0.  1.
    9900012    2    1    2    0    0 -0.68964464547E-01  0.11275869114E+01  0.34183187524E+00  0.90007721486E+02  0.89999982609E+02 0.  0.
        -12    1    1    2    0    0  0.68964464547E-01 -0.11275869114E+01 -0.34183187524E+00  0.11802785142E+01  0.00000000000E+00 0.  1.
         11    1    3    3    0    0  0.27697840821E+02 -0.30679554983E+02 -0.36118770287E+01  0.41490374017E+02  0.51100000000E-03 0. -1.
        -11    1    3    3    0    0 -0.87645848371E+01 -0.23487955585E+01 -0.95668132818E+00  0.91241452952E+01  0.51100000000E-03 0.  1.
        -12    1    3    3    0    0 -0.19002220449E+02  0.34155937453E+02  0.49103902322E+01  0.39393202174E+02  0.00000000000E+00 0.  1.
</event>
<event>
 7    1  0.2405891E-015  0.9000777E+02  0.7816164E-02  0.1186339E+00
        -11   -1    0    0    0    0  0.00000000000E+00  0.00000000000E+00  0.45593999997E+02  0.45594000000E+02  0.51100000000E-03 0.  1.
         11   -1    0    0    0    0 -0.00000000000E+00 -0.00000000000E+00 -0.45593999997E+02  0.45594000000E+02  0.51100000000E-03 0. -1.
    9900012    2    1    2    0    0 -0.96435095057E+00 -0.20891337313E+00 -0.64756224496E+00  0.90007765102E+02  0.90000026801E+02 0.  0.
        -12    1    1    2    0    0  0.96435095057E+00  0.20891337313E+00  0.64756224496E+00  0.11802348980E+01  0.00000000000E+00 0.  1.
         11    1    3    3    0    0 -0.46426802148E+01  0.59525938842E+01  0.77518029914E+01  0.10820272797E+02  0.51100000000E-03 0. -1.
        -11    1    3    3    0    0  0.16496637328E+02  0.61048532642E+01  0.31187905897E+02  0.35806336744E+02  0.51100000000E-03 0.  1.
         12    1    3    3    0    0 -0.12818308063E+02 -0.12266360522E+02 -0.39587271133E+02  0.43381155561E+02  0.00000000000E+00 0. -1.
</event>
<event>
 7    1  0.2405891E-015  0.9000778E+02  0.7816164E-02  0.1186339E+00
        -11   -1    0    0    0    0  0.00000000000E+00  0.00000000000E+00  0.45593999997E+02  0.45594000000E+02  0.51100000000E-03 0. -1.
         11   -1    0    0    0    0 -0.00000000000E+00 -0.00000000000E+00 -0.45593999997E+02  0.45594000000E+02  0.51100000000E-03 0.  1.
    9900012    2    1    2    0    0 -0.31056863817E+00 -0.10824342572E+01 -0.35326449340E+00  0.90007782816E+02  0.90000044749E+02 0.  0.
        -12    1    1    2    0    0  0.31056863817E+00  0.10824342572E+01  0.35326449340E+00  0.11802171845E+01  0.00000000000E+00 0.  1.
         11    1    3    3    0    0  0.89541140371E+01 -0.30527925884E+02  0.10506923578E+02  0.33504117065E+02  0.51100000000E-03 0. -1.
        -11    1    3    3    0    0  0.11761894227E+02 -0.65577441093E+01 -0.51647867200E+01  0.14422939566E+02  0.51100000000E-03 0.  1.
        -12    1    3    3    0    0 -0.21026576902E+02  0.36003235736E+02 -0.56954013513E+01  0.42080726185E+02  0.00000000000E+00 0.  1.
</event>
<event>
 7    1  0.2405891E-015  0.9000772E+02  0.7816164E-02  0.1186339E+00
        -11   -1    0    0    0    0  0.00000000000E+00  0.00000000000E+00  0.45593999997E+02  0.45594000000E+02  0.51100000000E-03 0. -1.
         11   -1    0    0    0    0 -0.00000000000E+00 -0.00000000000E+00 -0.45593999997E+02  0.45594000000E+02  0.51100000000E-03 0.  1.
    9900012    2    1    2    0    0  0.94389433612E+00 -0.65370811272E+00 -0.27348010470E+00  0.90007719448E+02  0.89999980544E+02 0.  0.
        -12    1    1    2    0    0 -0.94389433612E+00  0.65370811272E+00  0.27348010470E+00  0.11802805523E+01  0.00000000000E+00 0.  1.
         11    1    3    3    0    0  0.22629091092E+01  0.16235721068E+01  0.10284747396E+02  0.10655175892E+02  0.51100000000E-03 0. -1.
        -11    1    3    3    0    0 -0.92367142489E+01  0.32596063246E+02 -0.23598658794E+02  0.41288217767E+02  0.51100000000E-03 0.  1.
         12    1    3    3    0    0  0.79176994758E+01 -0.34873343465E+02  0.13040431293E+02  0.38064325789E+02  0.00000000000E+00 0. -1.
</event>
<event>
 7    1  0.2405891E-015  0.9000806E+02  0.7816164E-02  0.1186338E+00
        -11   -1    0    0    0    0  0.00000000000E+00  0.00000000000E+00  0.45593999997E+02  0.45594000000E+02  0.51100000000E-03 0.  1.
         11   -1    0    0    0    0 -0.00000000000E+00 -0.00000000000E+00 -0.45593999997E+02  0.45594000000E+02  0.51100000000E-03 0. -1.
    9900012    2    1    2    0    0 -0.58839174807E+00  0.21207962251E+00 -0.10005398071E+01  0.90008058255E+02  0.90000323824E+02 0.  0.
        -12    1    1    2    0    0  0.58839174807E+00 -0.21207962251E+00  0.10005398071E+01  0.11799417448E+01  0.00000000000E+00 0.  1.
         11    1    3    3    0    0 -0.19985971555E+01 -0.25827611578E+01 -0.12196333941E+02  0.12625989373E+02  0.51100000000E-03 0. -1.
        -11    1    3    3    0    0 -0.11997064227E+02  0.34148065522E+02 -0.95946740293E+01  0.37444327994E+02  0.51100000000E-03 0.  1.
         12    1    3    3    0    0  0.13407269635E+02 -0.31353224742E+02  0.20790468163E+02  0.39937740888E+02  0.00000000000E+00 0. -1.
</event>
<event>
 7    1  0.2405891E-015  0.9000769E+02  0.7816164E-02  0.1186339E+00
        -11   -1    0    0    0    0  0.00000000000E+00  0.00000000000E+00  0.45593999997E+02  0.45594000000E+02  0.51100000000E-03 0. -1.
         11   -1    0    0    0    0 -0.00000000000E+00 -0.00000000000E+00 -0.45593999997E+02  0.45594000000E+02  0.51100000000E-03 0.  1.
    9900012    2    1    2    0    0 -0.78554528188E+00  0.80895825715E+00  0.34875040461E+00  0.90007694236E+02  0.89999955000E+02 0.  0.
        -12    1    1    2    0    0  0.78554528188E+00 -0.80895825715E+00 -0.34875040461E+00  0.11803057639E+01  0.00000000000E+00 0.  1.
         11    1    3    3    0    0 -0.27653556767E+02  0.30220904548E+02 -0.53128737100E+01  0.41306765800E+02  0.51100000000E-03 0. -1.
        -11    1    3    3    0    0 -0.24024886314E+01 -0.48373564569E+01  0.88302006673E+01  0.10351058555E+02  0.51100000000E-03 0.  1.
        -12    1    3    3    0    0  0.29270500116E+02 -0.24574589834E+02 -0.31685765527E+01  0.38349869881E+02  0.00000000000E+00 0.  1.
</event>
<event>
 7    1  0.2405891E-015  0.9000774E+02  0.7816164E-02  0.1186339E+00
        -11   -1    0    0    0    0  0.00000000000E+00  0.00000000000E+00  0.45593999997E+02  0.45594000000E+02  0.51100000000E-03 0. -1.
         11   -1    0    0    0    0 -0.00000000000E+00 -0.00000000000E+00 -0.45593999997E+02  0.45594000000E+02  0.51100000000E-03 0.  1.
    9900012    2    1    2    0    0  0.35608506652E-01 -0.79921393010E+00  0.86775474728E+00  0.90007741904E+02  0.90000003297E+02 0.  0.
        -12    1    1    2    0    0 -0.35608506652E-01  0.79921393010E+00 -0.86775474728E+00  0.11802580960E+01  0.00000000000E+00 0.  1.
         11    1    3    3    0    0  0.35022373973E+02  0.20805471287E+02  0.15840759373E+02  0.43707710669E+02  0.51100000000E-03 0. -1.
        -11    1    3    3    0    0 -0.13738196825E+01 -0.45138416633E+01  0.17730172644E+01  0.50404104557E+01  0.51100000000E-03 0.  1.
        -12    1    3    3    0    0 -0.33612945784E+02 -0.17090843554E+02 -0.16746021890E+02  0.41259620779E+02  0.00000000000E+00 0.  1.
</event>
<event>
 7    1  0.2405891E-015  0.9000768E+02  0.7816164E-02  0.1186339E+00
        -11   -1    0    0    0    0  0.00000000000E+00  0.00000000000E+00  0.45593999997E+02  0.45594000000E+02  0.51100000000E-03 0.  1.
         11   -1    0    0    0    0 -0.00000000000E+00 -0.00000000000E+00 -0.45593999997E+02  0.45594000000E+02  0.51100000000E-03 0. -1.
    9900012    2    1    2    0    0  0.15127664120E-01 -0.28004044131E+00 -0.11465221376E+01  0.90007676101E+02  0.89999936625E+02 0.  0.
        -12    1    1    2    0    0 -0.15127664120E-01  0.28004044131E+00  0.11465221376E+01  0.11803238992E+01  0.00000000000E+00 0.  1.
         11    1    3    3    0    0 -0.30960699502E+01  0.10306103820E+01  0.88866291089E+01  0.94667831958E+01  0.51100000000E-03 0. -1.
        -11    1    3    3    0    0 -0.23497915036E+02  0.19149788414E+02  0.19323800330E+02  0.35948235935E+02  0.51100000000E-03 0.  1.
         12    1    3    3    0    0  0.26609112651E+02 -0.20460439237E+02 -0.29356951576E+02  0.44592656971E+02  0.00000000000E+00 0. -1.
</event>
<event>
 7    1  0.2405891E-015  0.9000773E+02  0.7816164E-02  0.1186339E+00
        -11   -1    0    0    0    0  0.00000000000E+00  0.00000000000E+00  0.45593999997E+02  0.45594000000E+02  0.51100000000E-03 0.  1.
         11   -1    0    0    0    0 -0.00000000000E+00 -0.00000000000E+00 -0.45593999997E+02  0.45594000000E+02  0.51100000000E-03 0. -1.
    9900012    2    1    2    0    0 -0.47820399274E+00 -0.52768389052E+00 -0.94122745987E+00  0.90007729489E+02  0.89999990719E+02 0.  0.
        -12    1    1    2    0    0  0.47820399274E+00  0.52768389052E+00  0.94122745987E+00  0.11802705106E+01  0.00000000000E+00 0.  1.
         11    1    3    3    0    0  0.62832068615E+01  0.18729305848E+01 -0.54299270801E+01  0.85129704450E+01  0.51100000000E-03 0. -1.
        -11    1    3    3    0    0  0.70532804362E+01 -0.14530199055E+02  0.39099633836E+02  0.42304335663E+02  0.51100000000E-03 0.  1.
         12    1    3    3    0    0 -0.13814691291E+02  0.12129584579E+02 -0.34610934216E+02  0.39190423382E+02  0.00000000000E+00 0. -1.
</event>
<event>
 7    1  0.2405891E-015  0.9000769E+02  0.7816164E-02  0.1186339E+00
        -11   -1    0    0    0    0  0.00000000000E+00  0.00000000000E+00  0.45593999997E+02  0.45594000000E+02  0.51100000000E-03 0.  1.
         11   -1    0    0    0    0 -0.00000000000E+00 -0.00000000000E+00 -0.45593999997E+02  0.45594000000E+02  0.51100000000E-03 0. -1.
    9900012    2    1    2    0    0  0.91307820367E+00  0.45748526858E+00 -0.59170839405E+00  0.90007693514E+02  0.89999954269E+02 0.  0.
        -12    1    1    2    0    0 -0.91307820367E+00 -0.45748526858E+00  0.59170839405E+00  0.11803064859E+01  0.00000000000E+00 0.  1.
         11    1    3    3    0    0  0.59632816725E+01 -0.88276970815E+01  0.20178484143E+01  0.10842540134E+02  0.51100000000E-03 0. -1.
        -11    1    3    3    0    0 -0.15796402465E+02 -0.27782010272E+02  0.16646695232E+02  0.36034412552E+02  0.51100000000E-03 0.  1.
         12    1    3    3    0    0  0.10746198996E+02  0.37067192622E+02 -0.19256252040E+02  0.43130740828E+02  0.00000000000E+00 0. -1.
</event>
<event>
 7    1  0.2405891E-015  0.9000772E+02  0.7816164E-02  0.1186339E+00
        -11   -1    0    0    0    0  0.00000000000E+00  0.00000000000E+00  0.45593999997E+02  0.45594000000E+02  0.51100000000E-03 0.  1.
         11   -1    0    0    0    0 -0.00000000000E+00 -0.00000000000E+00 -0.45593999997E+02  0.45594000000E+02  0.51100000000E-03 0. -1.
    9900012    2    1    2    0    0 -0.56414194374E+00 -0.36484933140E+00 -0.97040231001E+00  0.90007723841E+02  0.89999984996E+02 0.  0.
        -12    1    1    2    0    0  0.56414194374E+00  0.36484933140E+00  0.97040231001E+00  0.11802761586E+01  0.00000000000E+00 0.  1.
         11    1    3    3    0    0  0.28079102517E+02 -0.18112281029E+02  0.23709382544E+02  0.40971032975E+02  0.51100000000E-03 0. -1.
        -11    1    3    3    0    0  0.25799014161E+01  0.69028533744E+01  0.64495454488E+00  0.73973807967E+01  0.51100000000E-03 0.  1.
        -12    1    3    3    0    0 -0.31223145876E+02  0.10844578323E+02 -0.25324739399E+02  0.41639310069E+02  0.00000000000E+00 0.  1.
</event>
<event>
 7    1  0.2405891E-015  0.9000776E+02  0.7816164E-02  0.1186339E+00
        -11   -1    0    0    0    0  0.00000000000E+00  0.00000000000E+00  0.45593999997E+02  0.45594000000E+02  0.51100000000E-03 0.  1.
         11   -1    0    0    0    0 -0.00000000000E+00 -0.00000000000E+00 -0.45593999997E+02  0.45594000000E+02  0.51100000000E-03 0. -1.
    9900012    2    1    2    0    0 -0.71143867499E+00  0.42847860170E+00 -0.83858732065E+00  0.90007759518E+02  0.90000021144E+02 0.  0.
        -12    1    1    2    0    0  0.71143867499E+00 -0.42847860170E+00  0.83858732065E+00  0.11802404817E+01  0.00000000000E+00 0.  1.
         11    1    3    3    0    0 -0.32481291889E+02 -0.21838396146E+02  0.15171349165E+02  0.41977609565E+02  0.51100000000E-03 0. -1.
        -11    1    3    3    0    0  0.84525653722E+00  0.88479507946E+01  0.29357999525E+01  0.93605348939E+01  0.51100000000E-03 0.  1.
        -12    1    3    3    0    0  0.30924596677E+02  0.13418923953E+02 -0.18945736439E+02  0.38669615060E+02  0.00000000000E+00 0.  1.
</event>
<event>
 7    1  0.2405891E-015  0.9000775E+02  0.7816164E-02  0.1186339E+00
        -11   -1    0    0    0    0  0.00000000000E+00  0.00000000000E+00  0.45593999997E+02  0.45594000000E+02  0.51100000000E-03 0. -1.
         11   -1    0    0    0    0 -0.00000000000E+00 -0.00000000000E+00 -0.45593999997E+02  0.45594000000E+02  0.51100000000E-03 0.  1.
    9900012    2    1    2    0    0 -0.99213430015E+00  0.35383359659E+00 -0.53240457672E+00  0.90007752858E+02  0.90000014395E+02 0.  0.
        -12    1    1    2    0    0  0.99213430015E+00 -0.35383359659E+00  0.53240457672E+00  0.11802471423E+01  0.00000000000E+00 0.  1.
         11    1    3    3    0    0  0.28330411107E+01 -0.79622945692E+01 -0.92853741099E+01  0.12555573637E+02  0.51100000000E-03 0. -1.
        -11    1    3    3    0    0 -0.20641266987E+02 -0.27509207416E+02 -0.65692763188E+01  0.35013908481E+02  0.51100000000E-03 0.  1.
         12    1    3    3    0    0  0.16816091576E+02  0.35825335582E+02  0.15322245852E+02  0.42438270740E+02  0.00000000000E+00 0. -1.
</event>
<event>
 7    1  0.2405891E-015  0.9000779E+02  0.7816164E-02  0.1186339E+00
        -11   -1    0    0    0    0  0.00000000000E+00  0.00000000000E+00  0.45593999997E+02  0.45594000000E+02  0.51100000000E-03 0. -1.
         11   -1    0    0    0    0 -0.00000000000E+00 -0.00000000000E+00 -0.45593999997E+02  0.45594000000E+02  0.51100000000E-03 0.  1.
    9900012    2    1    2    0    0 -0.11275556833E+01 -0.10504215081E+00  0.33238600466E+00  0.90007789795E+02  0.90000051820E+02 0.  0.
        -12    1    1    2    0    0  0.11275556833E+01  0.10504215081E+00 -0.33238600466E+00  0.11802102052E+01  0.00000000000E+00 0.  1.
         11    1    3    3    0    0  0.43034871019E+01 -0.47108008582E+01 -0.11028111689E+02  0.12740914161E+02  0.51100000000E-03 0. -1.
        -11    1    3    3    0    0  0.53787525083E+01 -0.70115222721E+01 -0.30892882023E+02  0.32131955793E+02  0.51100000000E-03 0.  1.
         12    1    3    3    0    0 -0.10809795293E+02  0.11617280980E+02  0.42253379716E+02  0.45134919842E+02  0.00000000000E+00 0. -1.
</event>
<event>
 7    1  0.2405891E-015  0.9000775E+02  0.7816164E-02  0.1186339E+00
        -11   -1    0    0    0    0  0.00000000000E+00  0.00000000000E+00  0.45593999997E+02  0.45594000000E+02  0.51100000000E-03 0.  1.
         11   -1    0    0    0    0 -0.00000000000E+00 -0.00000000000E+00 -0.45593999997E+02  0.45594000000E+02  0.51100000000E-03 0. -1.
    9900012    2    1    2    0    0  0.65705055737E+00  0.75350341742E+00  0.62729395127E+00  0.90007754036E+02  0.90000015589E+02 0.  0.
        -12    1    1    2    0    0 -0.65705055737E+00 -0.75350341742E+00 -0.62729395127E+00  0.11802459643E+01  0.00000000000E+00 0.  1.
         11    1    3    3    0    0  0.32288725679E+02 -0.12443262574E+02 -0.13377780435E+02  0.37099347691E+02  0.51100000000E-03 0. -1.
        -11    1    3    3    0    0  0.86656472142E+01  0.29520412379E+00  0.16188228697E+01  0.88204974270E+01  0.51100000000E-03 0.  1.
        -12    1    3    3    0    0 -0.40297322336E+02  0.12901561868E+02  0.12386251516E+02  0.44087908918E+02  0.00000000000E+00 0.  1.
</event>
<event>
 7    1  0.2405891E-015  0.9000782E+02  0.7816164E-02  0.1186339E+00
        -11   -1    0    0    0    0  0.00000000000E+00  0.00000000000E+00  0.45593999997E+02  0.45594000000E+02  0.51100000000E-03 0.  1.
         11   -1    0    0    0    0 -0.00000000000E+00 -0.00000000000E+00 -0.45593999997E+02  0.45594000000E+02  0.51100000000E-03 0. -1.
    9900012    2    1    2    0    0  0.10594087148E+01 -0.48182679894E+00 -0.19575128986E+00  0.90007821007E+02  0.90000083444E+02 0.  0.
        -12    1    1    2    0    0 -0.10594087148E+01  0.48182679894E+00  0.19575128986E+00  0.11801789935E+01  0.00000000000E+00 0.  1.
         11    1    3    3    0    0  0.21249877642E+02 -0.17455902238E+02  0.32867743470E+02  0.42855039188E+02  0.51100000000E-03 0.  1.
        -11    1    3    3    0    0 -0.27426164190E+01  0.10220281763E+02 -0.18221179901E+01  0.10737607665E+02  0.51100000000E-03 0. -1.
        -12    1    3    3    0    0 -0.17447852508E+02  0.67537936753E+01 -0.31241376770E+02  0.36415174153E+02  0.00000000000E+00 0.  1.
</event>
<event>
 7    1  0.2405891E-015  0.9000769E+02  0.7816164E-02  0.1186339E+00
        -11   -1    0    0    0    0  0.00000000000E+00  0.00000000000E+00  0.45593999997E+02  0.45594000000E+02  0.51100000000E-03 0. -1.
         11   -1    0    0    0    0 -0.00000000000E+00 -0.00000000000E+00 -0.45593999997E+02  0.45594000000E+02  0.51100000000E-03 0.  1.
    9900012    2    1    2    0    0 -0.18836429324E+00  0.89642527538E+00  0.74436454909E+00  0.90007687345E+02  0.89999948018E+02 0.  0.
        -12    1    1    2    0    0  0.18836429324E+00 -0.89642527538E+00 -0.74436454909E+00  0.11803126549E+01  0.00000000000E+00 0.  1.
         11    1    3    3    0    0 -0.35415555394E+01  0.58764823998E+01 -0.91630420300E+01  0.11447139404E+02  0.51100000000E-03 0. -1.
        -11    1    3    3    0    0  0.14846267251E+02  0.21882965770E+02 -0.22647594105E+02  0.34816509894E+02  0.51100000000E-03 0.  1.
         12    1    3    3    0    0 -0.11493076005E+02 -0.26863022895E+02  0.32555000684E+02  0.43744038047E+02  0.00000000000E+00 0. -1.
</event>
<event>
 7    1  0.2599136E-015  0.9000791E+02  0.7816164E-02  0.1186339E+00
        -11   -1    0    0    0    0  0.00000000000E+00  0.00000000000E+00  0.45593999997E+02  0.45594000000E+02  0.51100000000E-03 0. -1.
         11   -1    0    0    0    0 -0.00000000000E+00 -0.00000000000E+00 -0.45593999997E+02  0.45594000000E+02  0.51100000000E-03 0.  1.
    9900012    2    1    2    0    0  0.95790721904E+00  0.45382997504E+00  0.51871532816E+00  0.90007909547E+02  0.90000173152E+02 0.  0.
        -12    1    1    2    0    0 -0.95790721904E+00 -0.45382997504E+00 -0.51871532816E+00  0.11800904534E+01  0.00000000000E+00 0.  1.
         11    1    3    3    0    0 -0.52810424395E+01  0.65489475450E+01  0.34479448241E+01  0.90921090494E+01  0.51100000000E-03 0. -1.
        -11    1    3    3    0    0  0.16433703875E+02  0.12450123047E+02 -0.36097975698E+02  0.41570855616E+02  0.51100000000E-03 0.  1.
         12    1    3    3    0    0 -0.10194754217E+02 -0.18545240617E+02  0.33168746202E+02  0.39344944881E+02  0.00000000000E+00 0. -1.
</event>
<event>
 7    1  0.2405891E-015  0.9000796E+02  0.7816164E-02  0.1186339E+00
        -11   -1    0    0    0    0  0.00000000000E+00  0.00000000000E+00  0.45593999997E+02  0.45594000000E+02  0.51100000000E-03 0.  1.
         11   -1    0    0    0    0 -0.00000000000E+00 -0.00000000000E+00 -0.45593999997E+02  0.45594000000E+02  0.51100000000E-03 0. -1.
    9900012    2    1    2    0    0  0.42058660642E+00  0.10495806742E+01 -0.33760779692E+00  0.90007961141E+02  0.90000225427E+02 0.  0.
        -12    1    1    2    0    0 -0.42058660642E+00 -0.10495806742E+01  0.33760779692E+00  0.11800388594E+01  0.00000000000E+00 0.  1.
         11    1    3    3    0    0  0.31790155486E+02 -0.44149011497E+01 -0.21040288717E+02  0.38377064603E+02  0.51100000000E-03 0. -1.
        -11    1    3    3    0    0 -0.24803060603E+00  0.60801746900E+01 -0.74785287223E+01  0.96414955040E+01  0.51100000000E-03 0.  1.
        -12    1    3    3    0    0 -0.31121538274E+02 -0.61569286603E+00  0.28181209642E+02  0.41989401033E+02  0.00000000000E+00 0.  1.
</event>
<event>
 7    1  0.2405891E-015  0.9000778E+02  0.7816164E-02  0.1186339E+00
        -11   -1    0    0    0    0  0.00000000000E+00  0.00000000000E+00  0.45593999997E+02  0.45594000000E+02  0.51100000000E-03 0.  1.
         11   -1    0    0    0    0 -0.00000000000E+00 -0.00000000000E+00 -0.45593999997E+02  0.45594000000E+02  0.51100000000E-03 0. -1.
    9900012    2    1    2    0    0 -0.26572542777E+00  0.11440819680E+01 -0.11573905477E+00  0.90007775834E+02  0.90000037675E+02 0.  0.
        -12    1    1    2    0    0  0.26572542777E+00 -0.11440819680E+01  0.11573905477E+00  0.11802241657E+01  0.00000000000E+00 0.  1.
         11    1    3    3    0    0  0.10135571388E+01  0.36223607605E+02  0.27322440610E+00  0.36238814796E+02  0.51100000000E-03 0. -1.
        -11    1    3    3    0    0  0.11526495243E+02  0.41187882122E+01 -0.24392160198E+01  0.12480956854E+02  0.51100000000E-03 0.  1.
        -12    1    3    3    0    0 -0.12805777810E+02 -0.39198313849E+02  0.20502525590E+01  0.41288004184E+02  0.00000000000E+00 0.  1.
</event>
<event>
 7    1  0.2405891E-015  0.9000766E+02  0.7816164E-02  0.1186339E+00
        -11   -1    0    0    0    0  0.00000000000E+00  0.00000000000E+00  0.45593999997E+02  0.45594000000E+02  0.51100000000E-03 0.  1.
         11   -1    0    0    0    0 -0.00000000000E+00 -0.00000000000E+00 -0.45593999997E+02  0.45594000000E+02  0.51100000000E-03 0. -1.
    9900012    2    1    2    0    0  0.53714241368E+00  0.92094120801E+00 -0.50649999181E+00  0.90007662369E+02  0.89999922712E+02 0.  0.
        -12    1    1    2    0    0 -0.53714241368E+00 -0.92094120801E+00  0.50649999181E+00  0.11803376309E+01  0.00000000000E+00 0.  1.
         11    1    3    3    0    0  0.23115609975E+02 -0.32416399424E+02 -0.18801512603E+02  0.44030117562E+02  0.51100000000E-03 0. -1.
        -11    1    3    3    0    0 -0.57039734718E+01  0.67073606522E+01 -0.12367978298E+01  0.88912130454E+01  0.51100000000E-03 0.  1.
        -12    1    3    3    0    0 -0.16874494089E+02  0.26629979980E+02  0.19531810440E+02  0.37086331762E+02  0.00000000000E+00 0.  1.
</event>
<event>
 7    1  0.2405891E-015  0.9000787E+02  0.7816164E-02  0.1186339E+00
        -11   -1    0    0    0    0  0.00000000000E+00  0.00000000000E+00  0.45593999997E+02  0.45594000000E+02  0.51100000000E-03 0. -1.
         11   -1    0    0    0    0 -0.00000000000E+00 -0.00000000000E+00 -0.45593999997E+02  0.45594000000E+02  0.51100000000E-03 0.  1.
    9900012    2    1    2    0    0  0.65946746186E+00  0.94914360462E+00  0.23859901575E+00  0.90007872716E+02  0.90000135836E+02 0.  0.
        -12    1    1    2    0    0 -0.65946746186E+00 -0.94914360462E+00 -0.23859901575E+00  0.11801272837E+01  0.00000000000E+00 0.  1.
         11    1    3    3    0    0 -0.11579132823E+02 -0.23195032173E+02 -0.27045510189E+01  0.26065310873E+02  0.51100000000E-03 0. -1.
        -11    1    3    3    0    0 -0.10099286582E+02  0.24566305266E+02 -0.18976409929E+02  0.32643576365E+02  0.51100000000E-03 0.  1.
         12    1    3    3    0    0  0.22337886867E+02 -0.42212948842E+00  0.21919559963E+02  0.31298985478E+02  0.00000000000E+00 0. -1.
</event>
<event>
 7    1  0.2405891E-015  0.9000778E+02  0.7816164E-02  0.1186339E+00
        -11   -1    0    0    0    0  0.00000000000E+00  0.00000000000E+00  0.45593999997E+02  0.45594000000E+02  0.51100000000E-03 0.  1.
         11   -1    0    0    0    0 -0.00000000000E+00 -0.00000000000E+00 -0.45593999997E+02  0.45594000000E+02  0.51100000000E-03 0. -1.
    9900012    2    1    2    0    0  0.78544004183E+00  0.79280050561E+00 -0.38402572061E+00  0.90007777794E+02  0.90000039661E+02 0.  0.
        -12    1    1    2    0    0 -0.78544004183E+00 -0.79280050561E+00  0.38402572061E+00  0.11802222058E+01  0.00000000000E+00 0.  1.
         11    1    3    3    0    0 -0.22414428388E+01 -0.10334091159E+02  0.10472780804E+01  0.10626113952E+02  0.51100000000E-03 0. -1.
        -11    1    3    3    0    0 -0.18696585692E+02  0.29501728674E+02  0.23049250456E+02  0.41847129628E+02  0.51100000000E-03 0.  1.
         12    1    3    3    0    0  0.21723468572E+02 -0.18374837009E+02 -0.24480554257E+02  0.37534534214E+02  0.00000000000E+00 0. -1.
</event>
<event>
 7    1  0.2405891E-015  0.9000771E+02  0.7816164E-02  0.1186339E+00
        -11   -1    0    0    0    0  0.00000000000E+00  0.00000000000E+00  0.45593999997E+02  0.45594000000E+02  0.51100000000E-03 0. -1.
         11   -1    0    0    0    0 -0.00000000000E+00 -0.00000000000E+00 -0.45593999997E+02  0.45594000000E+02  0.51100000000E-03 0.  1.
    9900012    2    1    2    0    0 -0.94616521252E+00  0.61759885425E+00  0.34121008382E+00  0.90007711359E+02  0.89999972349E+02 0.  0.
        -12    1    1    2    0    0  0.94616521252E+00 -0.61759885425E+00 -0.34121008382E+00  0.11802886407E+01  0.00000000000E+00 0.  1.
         11    1    3    3    0    0  0.22873359871E+00  0.37838530854E+02 -0.86290228630E+01  0.38810652817E+02  0.51100000000E-03 0. -1.
        -11    1    3    3    0    0  0.38020401198E+01  0.57051039501E+01  0.33139735349E+01  0.76148631639E+01  0.51100000000E-03 0.  1.
        -12    1    3    3    0    0 -0.49769389310E+01 -0.42926035950E+02  0.56562594119E+01  0.43582195379E+02  0.00000000000E+00 0.  1.
</event>
<event>
 7    1  0.2474640E-015  0.9000765E+02  0.7816164E-02  0.1186339E+00
        -11   -1    0    0    0    0  0.00000000000E+00  0.00000000000E+00  0.45593999997E+02  0.45594000000E+02  0.51100000000E-03 0. -1.
         11   -1    0    0    0    0 -0.00000000000E+00 -0.00000000000E+00 -0.45593999997E+02  0.45594000000E+02  0.51100000000E-03 0.  1.
    9900012    2    1    2    0    0 -0.54380983867E+00  0.14382038315E+00  0.10377013903E+01  0.90007645130E+02  0.89999905246E+02 0.  0.
        -12    1    1    2    0    0  0.54380983867E+00 -0.14382038315E+00 -0.10377013903E+01  0.11803548698E+01  0.00000000000E+00 0.  1.
         11    1    3    3    0    0 -0.46611973749E+01 -0.93338337456E+01  0.17286338442E+01  0.10575225226E+02  0.51100000000E-03 0. -1.
        -11    1    3    3    0    0 -0.16271527261E+01 -0.20161356521E+02 -0.30765098705E+02  0.36818734651E+02  0.51100000000E-03 0.  1.
         12    1    3    3    0    0  0.57445402623E+01  0.29639010650E+02  0.30074166251E+02  0.42613685252E+02  0.00000000000E+00 0. -1.
</event>
<event>
 7    1  0.2583909E-015  0.9000775E+02  0.7816164E-02  0.1186339E+00
        -11   -1    0    0    0    0  0.00000000000E+00  0.00000000000E+00  0.45593999997E+02  0.45594000000E+02  0.51100000000E-03 0. -1.
         11   -1    0    0    0    0 -0.00000000000E+00 -0.00000000000E+00 -0.45593999997E+02  0.45594000000E+02  0.51100000000E-03 0.  1.
    9900012    2    1    2    0    0 -0.12699460465E+00 -0.53421457161E+00  0.10447347346E+01  0.90007752779E+02  0.90000014315E+02 0.  0.
        -12    1    1    2    0    0  0.12699460465E+00  0.53421457161E+00 -0.10447347346E+01  0.11802472215E+01  0.00000000000E+00 0.  1.
         11    1    3    3    0    0  0.81982891203E+01  0.23957073014E+01 -0.53830429277E+01  0.10095965006E+02  0.51100000000E-03 0. -1.
        -11    1    3    3    0    0  0.11736100452E+02 -0.35007018194E+02 -0.10613579350E+02  0.38417124353E+02  0.51100000000E-03 0.  1.
         12    1    3    3    0    0 -0.20061384177E+02  0.32077096321E+02  0.17041357013E+02  0.41494663420E+02  0.00000000000E+00 0. -1.
</event>
<event>
 7    1  0.2405891E-015  0.9000775E+02  0.7816164E-02  0.1186339E+00
        -11   -1    0    0    0    0  0.00000000000E+00  0.00000000000E+00  0.45593999997E+02  0.45594000000E+02  0.51100000000E-03 0.  1.
         11   -1    0    0    0    0 -0.00000000000E+00 -0.00000000000E+00 -0.45593999997E+02  0.45594000000E+02  0.51100000000E-03 0. -1.
    9900012    2    1    2    0    0 -0.57003924245E+00  0.22174142172E+00  0.10093993525E+01  0.90007745346E+02  0.90000006784E+02 0.  0.
        -12    1    1    2    0    0  0.57003924245E+00 -0.22174142172E+00 -0.10093993525E+01  0.11802546543E+01  0.00000000000E+00 0.  1.
         11    1    3    3    0    0  0.42670881804E+01  0.67209628217E+01  0.27683876740E+01  0.84287219295E+01  0.51100000000E-03 0. -1.
        -11    1    3    3    0    0  0.24970582059E+02  0.26936848334E+02 -0.19983762828E+01  0.36784742415E+02  0.51100000000E-03 0.  1.
         12    1    3    3    0    0 -0.29807709482E+02 -0.33436069734E+02  0.23938796132E+00  0.44794281001E+02  0.00000000000E+00 0. -1.
</event>
<event>
 7    1  0.2405891E-015  0.9000788E+02  0.7816164E-02  0.1186339E+00
        -11   -1    0    0    0    0  0.00000000000E+00  0.00000000000E+00  0.45593999997E+02  0.45594000000E+02  0.51100000000E-03 0.  1.
         11   -1    0    0    0    0 -0.00000000000E+00 -0.00000000000E+00 -0.45593999997E+02  0.45594000000E+02  0.51100000000E-03 0. -1.
    9900012    2    1    2    0    0 -0.21731006869E+00 -0.96802664428E+00 -0.63904809429E+00  0.90007880635E+02  0.90000143859E+02 0.  0.
        -12    1    1    2    0    0  0.21731006869E+00  0.96802664428E+00  0.63904809429E+00  0.11801193655E+01  0.00000000000E+00 0.  1.
         11    1    3    3    0    0  0.90552989765E+01  0.85761705841E+01 -0.41084233816E+02  0.42935572780E+02  0.51100000000E-03 0. -1.
        -11    1    3    3    0    0  0.54895508311E+01 -0.13155390068E+01  0.40594242634E+01  0.69530379560E+01  0.51100000000E-03 0.  1.
        -12    1    3    3    0    0 -0.14762159876E+02 -0.82286582215E+01  0.36385761458E+02  0.40119269899E+02  0.00000000000E+00 0.  1.
</event>
<event>
 7    1  0.2405891E-015  0.9000773E+02  0.7816164E-02  0.1186339E+00
        -11   -1    0    0    0    0  0.00000000000E+00  0.00000000000E+00  0.45593999997E+02  0.45594000000E+02  0.51100000000E-03 0.  1.
         11   -1    0    0    0    0 -0.00000000000E+00 -0.00000000000E+00 -0.45593999997E+02  0.45594000000E+02  0.51100000000E-03 0. -1.
    9900012    2    1    2    0    0  0.52313540551E+00  0.28910862442E+00 -0.10177345457E+01  0.90007729669E+02  0.89999990900E+02 0.  0.
        -12    1    1    2    0    0 -0.52313540551E+00 -0.28910862442E+00  0.10177345457E+01  0.11802703312E+01  0.00000000000E+00 0.  1.
         11    1    3    3    0    0 -0.33762190168E+02 -0.81191453250E+01 -0.10281546986E+02  0.36214861790E+02  0.51100000000E-03 0. -1.
        -11    1    3    3    0    0 -0.78652939163E+01  0.59937280612E+01  0.57218161234E+01  0.11424832799E+02  0.51100000000E-03 0.  1.
        -12    1    3    3    0    0  0.42150619490E+02  0.24145258882E+01  0.35419963172E+01  0.42368035080E+02  0.00000000000E+00 0.  1.
</event>
<event>
 7    1  0.2919320E-015  0.9000753E+02  0.7816164E-02  0.1186339E+00
        -11   -1    0    0    0    0  0.00000000000E+00  0.00000000000E+00  0.45593999997E+02  0.45594000000E+02  0.51100000000E-03 0. -1.
         11   -1    0    0    0    0 -0.00000000000E+00 -0.00000000000E+00 -0.45593999997E+02  0.45594000000E+02  0.51100000000E-03 0.  1.
    9900012    2    1    2    0    0  0.11747552652E+01 -0.40513330665E-01  0.10868003240E+00  0.90007532884E+02  0.89999791518E+02 0.  0.
        -12    1    1    2    0    0 -0.11747552652E+01  0.40513330665E-01 -0.10868003240E+00  0.11804671162E+01  0.00000000000E+00 0.  1.
         11    1    3    3    0    0  0.71489787092E+01 -0.24800758300E+01  0.58488591254E+01  0.95638813270E+01  0.51100000000E-03 0. -1.
        -11    1    3    3    0    0  0.36645402245E+02  0.22796229187E+01 -0.86604146621E+01  0.37723798440E+02  0.51100000000E-03 0.  1.
         12    1    3    3    0    0 -0.42619625689E+02  0.15993958057E+00  0.29202355691E+01  0.42719853117E+02  0.00000000000E+00 0. -1.
</event>
<event>
 7    1  0.2405891E-015  0.9000770E+02  0.7816164E-02  0.1186339E+00
        -11   -1    0    0    0    0  0.00000000000E+00  0.00000000000E+00  0.45593999997E+02  0.45594000000E+02  0.51100000000E-03 0.  1.
         11   -1    0    0    0    0 -0.00000000000E+00 -0.00000000000E+00 -0.45593999997E+02  0.45594000000E+02  0.51100000000E-03 0. -1.
    9900012    2    1    2    0    0  0.53858323389E+00  0.82908367653E+00 -0.64470787360E+00  0.90007703476E+02  0.89999964362E+02 0.  0.
        -12    1    1    2    0    0 -0.53858323389E+00 -0.82908367653E+00  0.64470787360E+00  0.11802965241E+01  0.00000000000E+00 0.  1.
         11    1    3    3    0    0 -0.28936775333E+01 -0.69541479117E+01 -0.61258945218E+01  0.97087654622E+01  0.51100000000E-03 0. -1.
        -11    1    3    3    0    0  0.26898967871E+02  0.32200037935E+02 -0.98921736074E+01  0.43107447320E+02  0.51100000000E-03 0.  1.
         12    1    3    3    0    0 -0.23466707104E+02 -0.24416806346E+02  0.15373360256E+02  0.37191490694E+02  0.00000000000E+00 0. -1.
</event>
<event>
 7    1  0.2405891E-015  0.9000768E+02  0.7816164E-02  0.1186339E+00
        -11   -1    0    0    0    0  0.00000000000E+00  0.00000000000E+00  0.45593999997E+02  0.45594000000E+02  0.51100000000E-03 0.  1.
         11   -1    0    0    0    0 -0.00000000000E+00 -0.00000000000E+00 -0.45593999997E+02  0.45594000000E+02  0.51100000000E-03 0. -1.
    9900012    2    1    2    0    0  0.46864534690E+00 -0.10208279906E+01 -0.36255084106E+00  0.90007677434E+02  0.89999937976E+02 0.  0.
        -12    1    1    2    0    0 -0.46864534690E+00  0.10208279906E+01  0.36255084106E+00  0.11803225660E+01  0.00000000000E+00 0.  1.
         11    1    3    3    0    0  0.37530200930E+02  0.63107324925E+01 -0.19722320343E+02  0.42863868776E+02  0.51100000000E-03 0. -1.
        -11    1    3    3    0    0 -0.32990256025E+01  0.50691727414E+01  0.66681039973E+01  0.90024270832E+01  0.51100000000E-03 0.  1.
        -12    1    3    3    0    0 -0.33762529980E+02 -0.12400733224E+02  0.12691665505E+02  0.38141381575E+02  0.00000000000E+00 0.  1.
</event>
<event>
 7    1  0.2405891E-015  0.9000759E+02  0.7816164E-02  0.1186339E+00
        -11   -1    0    0    0    0  0.00000000000E+00  0.00000000000E+00  0.45593999997E+02  0.45594000000E+02  0.51100000000E-03 0.  1.
         11   -1    0    0    0    0 -0.00000000000E+00 -0.00000000000E+00 -0.45593999997E+02  0.45594000000E+02  0.51100000000E-03 0. -1.
    9900012    2    1    2    0    0 -0.40514896619E+00  0.45404394752E+00 -0.10114640113E+01  0.90007592851E+02  0.89999852277E+02 0.  0.
        -12    1    1    2    0    0  0.40514896619E+00 -0.45404394752E+00  0.10114640113E+01  0.11804071489E+01  0.00000000000E+00 0.  1.
         11    1    3    3    0    0 -0.17621081866E+02  0.41597479231E+01 -0.34127743340E+01  0.18424251893E+02  0.51100000000E-03 0. -1.
        -11    1    3    3    0    0 -0.22486925340E+02  0.15379796951E+02  0.38124157343E+01  0.27508807308E+02  0.51100000000E-03 0.  1.
         12    1    3    3    0    0  0.39702858240E+02 -0.19085500926E+02 -0.14111054115E+01  0.44074533650E+02  0.00000000000E+00 0. -1.
</event>
<event>
 7    1  0.2405891E-015  0.9000785E+02  0.7816164E-02  0.1186339E+00
        -11   -1    0    0    0    0  0.00000000000E+00  0.00000000000E+00  0.45593999997E+02  0.45594000000E+02  0.51100000000E-03 0. -1.
         11   -1    0    0    0    0 -0.00000000000E+00 -0.00000000000E+00 -0.45593999997E+02  0.45594000000E+02  0.51100000000E-03 0.  1.
    9900012    2    1    2    0    0 -0.12217141551E+00  0.20196872713E-01  0.11736352208E+01  0.90007850264E+02  0.90000113087E+02 0.  0.
        -12    1    1    2    0    0  0.12217141551E+00 -0.20196872713E-01 -0.11736352208E+01  0.11801497362E+01  0.00000000000E+00 0.  1.
         11    1    3    3    0    0  0.33667657406E+01  0.23204786392E+01 -0.79825234494E+01  0.89688579846E+01  0.51100000000E-03 0. -1.
        -11    1    3    3    0    0 -0.26413842706E+02  0.16151705995E+02 -0.22153396305E+02  0.38070220135E+02  0.51100000000E-03 0.  1.
         12    1    3    3    0    0  0.22924905550E+02 -0.18451987762E+02  0.31309554975E+02  0.42968772144E+02  0.00000000000E+00 0. -1.
</event>
<event>
 7    1  0.2405891E-015  0.9000799E+02  0.7816164E-02  0.1186339E+00
        -11   -1    0    0    0    0  0.00000000000E+00  0.00000000000E+00  0.45593999997E+02  0.45594000000E+02  0.51100000000E-03 0.  1.
         11   -1    0    0    0    0 -0.00000000000E+00 -0.00000000000E+00 -0.45593999997E+02  0.45594000000E+02  0.51100000000E-03 0. -1.
    9900012    2    1    2    0    0 -0.72998281510E+00  0.70684353161E+00 -0.59994327925E+00  0.90007985328E+02  0.90000249934E+02 0.  0.
        -12    1    1    2    0    0  0.72998281510E+00 -0.70684353161E+00  0.59994327925E+00  0.11800146723E+01  0.00000000000E+00 0.  1.
         11    1    3    3    0    0  0.80367220658E+01  0.46599572819E+01  0.41253638411E+01  0.10164778921E+02  0.51100000000E-03 0. -1.
        -11    1    3    3    0    0  0.27779413630E+02  0.54289076881E+01  0.20066188515E+02  0.34696120562E+02  0.51100000000E-03 0.  1.
         12    1    3    3    0    0 -0.36546118510E+02 -0.93820214384E+01 -0.24791495635E+02  0.45147085845E+02  0.00000000000E+00 0. -1.
</event>
<event>
 7    1  0.2405891E-015  0.9000772E+02  0.7816164E-02  0.1186339E+00
        -11   -1    0    0    0    0  0.00000000000E+00  0.00000000000E+00  0.45593999997E+02  0.45594000000E+02  0.51100000000E-03 0. -1.
         11   -1    0    0    0    0 -0.00000000000E+00 -0.00000000000E+00 -0.45593999997E+02  0.45594000000E+02  0.51100000000E-03 0.  1.
    9900012    2    1    2    0    0 -0.68197823497E-01  0.46387331091E+00  0.10831564653E+01  0.90007721507E+02  0.89999982631E+02 0.  0.
        -12    1    1    2    0    0  0.68197823497E-01 -0.46387331091E+00 -0.10831564653E+01  0.11802784925E+01  0.00000000000E+00 0.  1.
         11    1    3    3    0    0  0.34995032545E+02  0.64774281654E+01 -0.82419837037E+00  0.35598998324E+02  0.51100000000E-03 0. -1.
        -11    1    3    3    0    0  0.62043374592E+01  0.80142455595E+01  0.36891573176E+01  0.10785722840E+02  0.51100000000E-03 0.  1.
        -12    1    3    3    0    0 -0.41267567828E+02 -0.14027800414E+02 -0.17818024820E+01  0.43623000344E+02  0.00000000000E+00 0.  1.
</event>
<event>
 7    1  0.2405891E-015  0.9000777E+02  0.7816164E-02  0.1186339E+00
        -11   -1    0    0    0    0  0.00000000000E+00  0.00000000000E+00  0.45593999997E+02  0.45594000000E+02  0.51100000000E-03 0.  1.
         11   -1    0    0    0    0 -0.00000000000E+00 -0.00000000000E+00 -0.45593999997E+02  0.45594000000E+02  0.51100000000E-03 0. -1.
    9900012    2    1    2    0    0  0.85439154580E+00  0.81355436977E+00 -0.32826418958E-01  0.90007774089E+02  0.90000035907E+02 0.  0.
        -12    1    1    2    0    0 -0.85439154580E+00 -0.81355436977E+00  0.32826418958E-01  0.11802259105E+01  0.00000000000E+00 0.  1.
         11    1    3    3    0    0  0.13715220409E+02  0.26393019871E+02 -0.27237155914E+02  0.40330651263E+02  0.51100000000E-03 0. -1.
        -11    1    3    3    0    0 -0.60354940424E+01 -0.15034798173E+01  0.23585732075E+02  0.24392097033E+02  0.51100000000E-03 0.  1.
        -12    1    3    3    0    0 -0.68253348211E+01 -0.24075985683E+02  0.36185974202E+01  0.25285025793E+02  0.00000000000E+00 0.  1.
</event>
<event>
 7    1  0.2405891E-015  0.9000827E+02  0.7816164E-02  0.1186338E+00
        -11   -1    0    0    0    0  0.00000000000E+00  0.00000000000E+00  0.45593999997E+02  0.45594000000E+02  0.51100000000E-03 0. -1.
         11   -1    0    0    0    0 -0.00000000000E+00 -0.00000000000E+00 -0.45593999997E+02  0.45594000000E+02  0.51100000000E-03 0.  1.
    9900012    2    1    2    0    0  0.77042024547E+00  0.54862657558E+00 -0.70514827416E+00  0.90008265893E+02  0.90000534201E+02 0.  0.
        -12    1    1    2    0    0 -0.77042024547E+00 -0.54862657558E+00  0.70514827416E+00  0.11797341067E+01  0.00000000000E+00 0.  1.
         11    1    3    3    0    0 -0.15401882115E+02 -0.36261086149E+02 -0.15620663245E+02  0.42380295679E+02  0.51100000000E-03 0. -1.
        -11    1    3    3    0    0  0.44817421581E+01  0.59575971936E+01 -0.51054376296E+01  0.90357329943E+01  0.51100000000E-03 0.  1.
        -12    1    3    3    0    0  0.11690560202E+02  0.30852115531E+02  0.20020952600E+02  0.38592237220E+02  0.00000000000E+00 0.  1.
</event>
<event>
 7    1  0.2405891E-015  0.9000787E+02  0.7816164E-02  0.1186339E+00
        -11   -1    0    0    0    0  0.00000000000E+00  0.00000000000E+00  0.45593999997E+02  0.45594000000E+02  0.51100000000E-03 0.  1.
         11   -1    0    0    0    0 -0.00000000000E+00 -0.00000000000E+00 -0.45593999997E+02  0.45594000000E+02  0.51100000000E-03 0. -1.
    9900012    2    1    2    0    0 -0.63201576850E+00 -0.89428829240E+00  0.43988636516E+00  0.90007874797E+02  0.90000137944E+02 0.  0.
        -12    1    1    2    0    0  0.63201576850E+00  0.89428829240E+00 -0.43988636516E+00  0.11801252034E+01  0.00000000000E+00 0.  1.
         11    1    3    3    0    0 -0.10517848414E+02  0.71611000410E+01  0.35323334802E+01  0.13205448464E+02  0.51100000000E-03 0. -1.
        -11    1    3    3    0    0  0.68406026249E+01  0.31364027293E+02  0.12296987787E+02  0.34376037601E+02  0.51100000000E-03 0.  1.
         12    1    3    3    0    0  0.30452300209E+01 -0.39419415626E+02 -0.15389434902E+02  0.42426388731E+02  0.00000000000E+00 0. -1.
</event>
<event>
 7    1  0.2405891E-015  0.9000777E+02  0.7816164E-02  0.1186339E+00
        -11   -1    0    0    0    0  0.00000000000E+00  0.00000000000E+00  0.45593999997E+02  0.45594000000E+02  0.51100000000E-03 0.  1.
         11   -1    0    0    0    0 -0.00000000000E+00 -0.00000000000E+00 -0.45593999997E+02  0.45594000000E+02  0.51100000000E-03 0. -1.
    9900012    2    1    2    0    0 -0.10753185657E+01 -0.28139863666E+00 -0.39680312944E+00  0.90007767847E+02  0.90000029583E+02 0.  0.
        -12    1    1    2    0    0  0.10753185657E+01  0.28139863666E+00  0.39680312944E+00  0.11802321525E+01  0.00000000000E+00 0.  1.
         11    1    3    3    0    0 -0.37888542561E+01  0.11165241799E+02  0.34037266320E+01  0.12272057539E+02  0.51100000000E-03 0. -1.
        -11    1    3    3    0    0  0.61401532275E+01  0.25958101351E+02  0.19937472065E+02  0.33302061498E+02  0.51100000000E-03 0.  1.
         12    1    3    3    0    0 -0.34266175371E+01 -0.37404741787E+02 -0.23738001826E+02  0.44433648810E+02  0.00000000000E+00 0. -1.
</event>
<event>
 7    1  0.2405891E-015  0.9000770E+02  0.7816164E-02  0.1186339E+00
        -11   -1    0    0    0    0  0.00000000000E+00  0.00000000000E+00  0.45593999997E+02  0.45594000000E+02  0.51100000000E-03 0.  1.
         11   -1    0    0    0    0 -0.00000000000E+00 -0.00000000000E+00 -0.45593999997E+02  0.45594000000E+02  0.51100000000E-03 0. -1.
    9900012    2    1    2    0    0 -0.11370892006E+01 -0.21803343875E+00  0.22933321686E+00  0.90007701667E+02  0.89999962529E+02 0.  0.
        -12    1    1    2    0    0  0.11370892006E+01  0.21803343875E+00 -0.22933321686E+00  0.11802983330E+01  0.00000000000E+00 0.  1.
         11    1    3    3    0    0  0.17668029793E+02 -0.12912385602E+02  0.15178344024E+02  0.26632144230E+02  0.51100000000E-03 0. -1.
        -11    1    3    3    0    0 -0.11303960921E+00  0.31170058746E+02  0.33511956006E+01  0.31349893978E+02  0.51100000000E-03 0.  1.
         12    1    3    3    0    0 -0.18692079384E+02 -0.18475706583E+02 -0.18300206408E+02  0.32025663459E+02  0.00000000000E+00 0. -1.
</event>
<event>
 7    1  0.2405891E-015  0.9000774E+02  0.7816164E-02  0.1186339E+00
        -11   -1    0    0    0    0  0.00000000000E+00  0.00000000000E+00  0.45593999997E+02  0.45594000000E+02  0.51100000000E-03 0. -1.
         11   -1    0    0    0    0 -0.00000000000E+00 -0.00000000000E+00 -0.45593999997E+02  0.45594000000E+02  0.51100000000E-03 0.  1.
    9900012    2    1    2    0    0 -0.83726145470E+00 -0.53797033091E+00 -0.63449867021E+00  0.90007742662E+02  0.90000004066E+02 0.  0.
        -12    1    1    2    0    0  0.83726145470E+00  0.53797033091E+00  0.63449867021E+00  0.11802573376E+01  0.00000000000E+00 0.  1.
         11    1    3    3    0    0 -0.67667009675E+01 -0.31298977839E+01  0.69348836240E+01  0.10182195896E+02  0.51100000000E-03 0. -1.
        -11    1    3    3    0    0  0.10180569247E+02 -0.35566478285E+02 -0.16338924687E+02  0.40442290093E+02  0.51100000000E-03 0.  1.
         12    1    3    3    0    0 -0.42511297343E+01  0.38158405738E+02  0.87695423931E+01  0.39383256674E+02  0.00000000000E+00 0. -1.
</event>
<event>
 7    1  0.2405891E-015  0.9000776E+02  0.7816164E-02  0.1186339E+00
        -11   -1    0    0    0    0  0.00000000000E+00  0.00000000000E+00  0.45593999997E+02  0.45594000000E+02  0.51100000000E-03 0.  1.
         11   -1    0    0    0    0 -0.00000000000E+00 -0.00000000000E+00 -0.45593999997E+02  0.45594000000E+02  0.51100000000E-03 0. -1.
    9900012    2    1    2    0    0 -0.38464692215E+00  0.11072494888E+01 -0.13784347092E+00  0.90007764639E+02  0.90000026332E+02 0.  0.
        -12    1    1    2    0    0  0.38464692215E+00 -0.11072494888E+01  0.13784347092E+00  0.11802353612E+01  0.00000000000E+00 0.  1.
         11    1    3    3    0    0 -0.11092200285E+02 -0.32015938609E+01 -0.37618463384E+02  0.39350170242E+02  0.51100000000E-03 0. -1.
        -11    1    3    3    0    0 -0.30111994852E+00 -0.88861257211E+01 -0.56702090760E+00  0.89092882165E+01  0.51100000000E-03 0.  1.
        -12    1    3    3    0    0  0.11008673312E+02  0.13194969071E+02  0.38047640821E+02  0.41748306180E+02  0.00000000000E+00 0.  1.
</event>
<event>
 7    1  0.2405891E-015  0.9000771E+02  0.7816164E-02  0.1186339E+00
        -11   -1    0    0    0    0  0.00000000000E+00  0.00000000000E+00  0.45593999997E+02  0.45594000000E+02  0.51100000000E-03 0.  1.
         11   -1    0    0    0    0 -0.00000000000E+00 -0.00000000000E+00 -0.45593999997E+02  0.45594000000E+02  0.51100000000E-03 0. -1.
    9900012    2    1    2    0    0  0.93781783666E+00 -0.63857108923E+00 -0.32526745976E+00  0.90007714335E+02  0.89999975364E+02 0.  0.
        -12    1    1    2    0    0 -0.93781783666E+00  0.63857108923E+00  0.32526745976E+00  0.11802856651E+01  0.00000000000E+00 0.  1.
         11    1    3    3    0    0 -0.21207076413E+02  0.71981281505E+01 -0.31412348994E+02  0.38578346367E+02  0.51100000000E-03 0. -1.
        -11    1    3    3    0    0  0.68803448993E+00 -0.13016475964E+01 -0.70408565727E+01  0.71931453108E+01  0.51100000000E-03 0.  1.
        -12    1    3    3    0    0  0.21456859759E+02 -0.65350516433E+01  0.38127938107E+02  0.44236222657E+02  0.00000000000E+00 0.  1.
</event>
<event>
 7    1  0.2405891E-015  0.9000738E+02  0.7816164E-02  0.1186340E+00
        -11   -1    0    0    0    0  0.00000000000E+00  0.00000000000E+00  0.45593999997E+02  0.45594000000E+02  0.51100000000E-03 0.  1.
         11   -1    0    0    0    0 -0.00000000000E+00 -0.00000000000E+00 -0.45593999997E+02  0.45594000000E+02  0.51100000000E-03 0. -1.
    9900012    2    1    2    0    0 -0.70874456832E+00 -0.78941328385E+00 -0.51805298513E+00  0.90007376821E+02  0.89999633394E+02 0.  0.
        -12    1    1    2    0    0  0.70874456832E+00  0.78941328385E+00  0.51805298513E+00  0.11806231792E+01  0.00000000000E+00 0.  1.
         11    1    3    3    0    0  0.36042492194E+01 -0.27432749987E+01 -0.83980964813E+01  0.95417081765E+01  0.51100000000E-03 0. -1.
        -11    1    3    3    0    0  0.12224395990E+01 -0.37440746579E+02  0.14438808646E+02  0.40147018051E+02  0.51100000000E-03 0.  1.
         12    1    3    3    0    0 -0.55354333868E+01  0.39394608294E+02 -0.65587651497E+01  0.40318650594E+02  0.00000000000E+00 0. -1.
</event>
<event>
 7    1  0.2405891E-015  0.9000771E+02  0.7816164E-02  0.1186339E+00
        -11   -1    0    0    0    0  0.00000000000E+00  0.00000000000E+00  0.45593999997E+02  0.45594000000E+02  0.51100000000E-03 0.  1.
         11   -1    0    0    0    0 -0.00000000000E+00 -0.00000000000E+00 -0.45593999997E+02  0.45594000000E+02  0.51100000000E-03 0. -1.
    9900012    2    1    2    0    0  0.34778502694E-01  0.24114455780E+00 -0.11548691546E+01  0.90007710626E+02  0.89999971606E+02 0.  0.
        -12    1    1    2    0    0 -0.34778502694E-01 -0.24114455780E+00  0.11548691546E+01  0.11802893740E+01  0.00000000000E+00 0.  1.
         11    1    3    3    0    0  0.15366251097E+02  0.21976960495E+02 -0.33392793319E+02  0.42827410747E+02  0.51100000000E-03 0. -1.
        -11    1    3    3    0    0 -0.52460513362E+01 -0.37139015460E+01 -0.23933329113E+01  0.68587288911E+01  0.51100000000E-03 0.  1.
        -12    1    3    3    0    0 -0.10085421258E+02 -0.18021914391E+02  0.34631257076E+02  0.40321570988E+02  0.00000000000E+00 0.  1.
</event>
<event>
 7    1  0.2405891E-015  0.9000752E+02  0.7816164E-02  0.1186339E+00
        -11   -1    0    0    0    0  0.00000000000E+00  0.00000000000E+00  0.45593999997E+02  0.45594000000E+02  0.51100000000E-03 0.  1.
         11   -1    0    0    0    0 -0.00000000000E+00 -0.00000000000E+00 -0.45593999997E+02  0.45594000000E+02  0.51100000000E-03 0. -1.
    9900012    2    1    2    0    0 -0.10927774789E+01  0.16308586297E-01 -0.44621760941E+00  0.90007517580E+02  0.89999776012E+02 0.  0.
        -12    1    1    2    0    0  0.10927774789E+01 -0.16308586297E-01  0.44621760941E+00  0.11804824197E+01  0.00000000000E+00 0.  1.
         11    1    3    3    0    0 -0.12674922175E+02  0.27794155876E+01  0.50682248588E+01  0.13930746808E+02  0.51100000000E-03 0. -1.
        -11    1    3    3    0    0 -0.28603711781E+02  0.12337338293E+02 -0.10467629420E+02  0.32862646116E+02  0.51100000000E-03 0.  1.
         12    1    3    3    0    0  0.40185856477E+02 -0.15100445295E+02  0.49531869517E+01  0.43214124657E+02  0.00000000000E+00 0. -1.
</event>
<event>
 7    1  0.2405891E-015  0.9000770E+02  0.7816164E-02  0.1186339E+00
        -11   -1    0    0    0    0  0.00000000000E+00  0.00000000000E+00  0.45593999997E+02  0.45594000000E+02  0.51100000000E-03 0.  1.
         11   -1    0    0    0    0 -0.00000000000E+00 -0.00000000000E+00 -0.45593999997E+02  0.45594000000E+02  0.51100000000E-03 0. -1.
    9900012    2    1    2    0    0  0.13365123591E+00  0.11351510764E+01 -0.29442999402E+00  0.90007695107E+02  0.89999955882E+02 0.  0.
        -12    1    1    2    0    0 -0.13365123591E+00 -0.11351510764E+01  0.29442999402E+00  0.11803048930E+01  0.00000000000E+00 0.  1.
         11    1    3    3    0    0  0.81960536597E+01 -0.52775885967E+01  0.11361091958E+02  0.14970058374E+02  0.51100000000E-03 0. -1.
        -11    1    3    3    0    0  0.42146062834E+01 -0.28926476655E+02  0.11078385247E+02  0.31260751394E+02  0.51100000000E-03 0.  1.
         12    1    3    3    0    0 -0.12277008707E+02  0.35339216328E+02 -0.22733907199E+02  0.43776885339E+02  0.00000000000E+00 0. -1.
</event>
<event>
 7    1  0.2405891E-015  0.9000814E+02  0.7816164E-02  0.1186338E+00
        -11   -1    0    0    0    0  0.00000000000E+00  0.00000000000E+00  0.45593999997E+02  0.45594000000E+02  0.51100000000E-03 0.  1.
         11   -1    0    0    0    0 -0.00000000000E+00 -0.00000000000E+00 -0.45593999997E+02  0.45594000000E+02  0.51100000000E-03 0. -1.
    9900012    2    1    2    0    0 -0.11490500921E+01  0.18189123827E+00  0.19662080480E+00  0.90008143959E+02  0.90000410658E+02 0.  0.
        -12    1    1    2    0    0  0.11490500921E+01 -0.18189123827E+00 -0.19662080480E+00  0.11798560411E+01  0.00000000000E+00 0.  1.
         11    1    3    3    0    0 -0.14964787144E+01 -0.74009322787E+01  0.45131125725E+01  0.87966716712E+01  0.51100000000E-03 0. -1.
        -11    1    3    3    0    0 -0.19859791170E+02 -0.25132479190E+02  0.18008963006E+02  0.36747456570E+02  0.51100000000E-03 0.  1.
         12    1    3    3    0    0  0.20207219792E+02  0.32715302707E+02 -0.22325454774E+02  0.44464015718E+02  0.00000000000E+00 0. -1.
</event>
<event>
 7    1  0.2405891E-015  0.9000775E+02  0.7816164E-02  0.1186339E+00
        -11   -1    0    0    0    0  0.00000000000E+00  0.00000000000E+00  0.45593999997E+02  0.45594000000E+02  0.51100000000E-03 0.  1.
         11   -1    0    0    0    0 -0.00000000000E+00 -0.00000000000E+00 -0.45593999997E+02  0.45594000000E+02  0.51100000000E-03 0. -1.
    9900012    2    1    2    0    0 -0.84232041742E+00  0.77171567555E+00 -0.29655601205E+00  0.90007748231E+02  0.90000009708E+02 0.  0.
        -12    1    1    2    0    0  0.84232041742E+00 -0.77171567555E+00  0.29655601205E+00  0.11802517688E+01  0.00000000000E+00 0.  1.
         11    1    3    3    0    0  0.27622511654E+02 -0.14356943346E+02  0.21783544815E+02  0.37995365471E+02  0.51100000000E-03 0. -1.
        -11    1    3    3    0    0 -0.47828399472E-01 -0.59447816830E+01  0.47512964768E+01  0.76103571064E+01  0.51100000000E-03 0.  1.
        -12    1    3    3    0    0 -0.28417003672E+02  0.21073440705E+02 -0.26831397304E+02  0.44402025653E+02  0.00000000000E+00 0.  1.
</event>
<event>
 7    1  0.2405891E-015  0.9000773E+02  0.7816164E-02  0.1186339E+00
        -11   -1    0    0    0    0  0.00000000000E+00  0.00000000000E+00  0.45593999997E+02  0.45594000000E+02  0.51100000000E-03 0.  1.
         11   -1    0    0    0    0 -0.00000000000E+00 -0.00000000000E+00 -0.45593999997E+02  0.45594000000E+02  0.51100000000E-03 0. -1.
    9900012    2    1    2    0    0 -0.84494760054E+00  0.17123066805E+00 -0.80609448743E+00  0.90007726849E+02  0.89999988043E+02 0.  0.
        -12    1    1    2    0    0  0.84494760054E+00 -0.17123066805E+00  0.80609448743E+00  0.11802731514E+01  0.00000000000E+00 0.  1.
         11    1    3    3    0    0  0.77900453980E+00  0.44229394364E+01  0.11599313952E+02  0.12438381154E+02  0.51100000000E-03 0. -1.
        -11    1    3    3    0    0 -0.28440267829E+02 -0.13222512504E+02  0.17906723944E+02  0.36115570517E+02  0.51100000000E-03 0.  1.
         12    1    3    3    0    0  0.26816315689E+02  0.89708037358E+01 -0.30312132383E+02  0.41453775177E+02  0.00000000000E+00 0. -1.
</event>
<event>
 7    1  0.2405891E-015  0.9000770E+02  0.7816164E-02  0.1186339E+00
        -11   -1    0    0    0    0  0.00000000000E+00  0.00000000000E+00  0.45593999997E+02  0.45594000000E+02  0.51100000000E-03 0.  1.
         11   -1    0    0    0    0 -0.00000000000E+00 -0.00000000000E+00 -0.45593999997E+02  0.45594000000E+02  0.51100000000E-03 0. -1.
    9900012    2    1    2    0    0  0.11717850644E+01 -0.44506425369E-01  0.13438174346E+00  0.90007695161E+02  0.89999955937E+02 0.  0.
        -12    1    1    2    0    0 -0.11717850644E+01  0.44506425369E-01 -0.13438174346E+00  0.11803048386E+01  0.00000000000E+00 0.  1.
         11    1    3    3    0    0  0.57160318025E+01 -0.12165999625E+02 -0.34166710365E+02  0.36715782218E+02  0.51100000000E-03 0. -1.
        -11    1    3    3    0    0  0.77631273003E+01 -0.59346123783E+00 -0.56349089391E+01  0.96109594076E+01  0.51100000000E-03 0.  1.
        -12    1    3    3    0    0 -0.12307374038E+02  0.12714954437E+02  0.39936001048E+02  0.43680953536E+02  0.00000000000E+00 0.  1.
</event>
<event>
 7    1  0.2405891E-015  0.9000775E+02  0.7816164E-02  0.1186339E+00
        -11   -1    0    0    0    0  0.00000000000E+00  0.00000000000E+00  0.45593999997E+02  0.45594000000E+02  0.51100000000E-03 0.  1.
         11   -1    0    0    0    0 -0.00000000000E+00 -0.00000000000E+00 -0.45593999997E+02  0.45594000000E+02  0.51100000000E-03 0. -1.
    9900012    2    1    2    0    0  0.41812344281E+00  0.60992169774E+00 -0.91986996076E+00  0.90007748995E+02  0.90000010481E+02 0.  0.
        -12    1    1    2    0    0 -0.41812344281E+00 -0.60992169774E+00  0.91986996076E+00  0.11802510053E+01  0.00000000000E+00 0.  1.
         11    1    3    3    0    0 -0.40206292379E+01  0.40997837449E+02 -0.30132029382E+01  0.41304570294E+02  0.51100000000E-03 0. -1.
        -11    1    3    3    0    0  0.63170719950E+01 -0.34201497506E+01  0.85090543301E+01  0.11135835342E+02  0.51100000000E-03 0.  1.
        -12    1    3    3    0    0 -0.18783193144E+01 -0.36967766001E+02 -0.64157213526E+01  0.37567343359E+02  0.00000000000E+00 0.  1.
</event>
<event>
 7    1  0.2405891E-015  0.9000778E+02  0.7816164E-02  0.1186339E+00
        -11   -1    0    0    0    0  0.00000000000E+00  0.00000000000E+00  0.45593999997E+02  0.45594000000E+02  0.51100000000E-03 0. -1.
         11   -1    0    0    0    0 -0.00000000000E+00 -0.00000000000E+00 -0.45593999997E+02  0.45594000000E+02  0.51100000000E-03 0.  1.
    9900012    2    1    2    0    0 -0.92260034109E+00  0.21818414835E+00  0.70293437024E+00  0.90007782884E+02  0.90000044818E+02 0.  0.
        -12    1    1    2    0    0  0.92260034109E+00 -0.21818414835E+00 -0.70293437024E+00  0.11802171160E+01  0.00000000000E+00 0.  1.
         11    1    3    3    0    0  0.18247906619E+02 -0.74419185557E+01  0.38555532338E+01  0.20080675755E+02  0.51100000000E-03 0. -1.
        -11    1    3    3    0    0 -0.26093157275E+02 -0.25114019576E+02  0.59825669287E+00  0.36220501752E+02  0.51100000000E-03 0.  1.
         12    1    3    3    0    0  0.69226503150E+01  0.32774122280E+02 -0.37508755564E+01  0.33706605377E+02  0.00000000000E+00 0. -1.
</event>
<event>
 7    1  0.2405891E-015  0.9000772E+02  0.7816164E-02  0.1186339E+00
        -11   -1    0    0    0    0  0.00000000000E+00  0.00000000000E+00  0.45593999997E+02  0.45594000000E+02  0.51100000000E-03 0. -1.
         11   -1    0    0    0    0 -0.00000000000E+00 -0.00000000000E+00 -0.45593999997E+02  0.45594000000E+02  0.51100000000E-03 0.  1.
    9900012    2    1    2    0    0 -0.23233416942E+00  0.79844495977E+00  0.83759609489E+00  0.90007720059E+02  0.89999981164E+02 0.  0.
        -12    1    1    2    0    0  0.23233416942E+00 -0.79844495977E+00 -0.83759609489E+00  0.11802799406E+01  0.00000000000E+00 0.  1.
         11    1    3    3    0    0 -0.12520093921E+01 -0.12717950657E+02  0.35538167588E+02  0.37766058203E+02  0.51100000000E-03 0. -1.
        -11    1    3    3    0    0 -0.36560686899E+01  0.57923754990E+01  0.68703231095E+01  0.97015355525E+01  0.51100000000E-03 0.  1.
        -12    1    3    3    0    0  0.46757439126E+01  0.77240201176E+01 -0.41570894602E+02  0.42540126304E+02  0.00000000000E+00 0.  1.
</event>
<event>
 7    1  0.2405891E-015  0.9000775E+02  0.7816164E-02  0.1186339E+00
        -11   -1    0    0    0    0  0.00000000000E+00  0.00000000000E+00  0.45593999997E+02  0.45594000000E+02  0.51100000000E-03 0.  1.
         11   -1    0    0    0    0 -0.00000000000E+00 -0.00000000000E+00 -0.45593999997E+02  0.45594000000E+02  0.51100000000E-03 0. -1.
    9900012    2    1    2    0    0  0.87485049771E+00 -0.79186393201E+00 -0.24269192895E-01  0.90007745420E+02  0.90000006859E+02 0.  0.
        -12    1    1    2    0    0 -0.87485049771E+00  0.79186393201E+00  0.24269192895E-01  0.11802545801E+01  0.00000000000E+00 0.  1.
         11    1    3    3    0    0  0.47750504900E+01  0.67296670062E+01 -0.10855472765E+02  0.13635644994E+02  0.51100000000E-03 0. -1.
        -11    1    3    3    0    0 -0.26089114290E+02 -0.20331139537E+02 -0.18118497427E+02  0.37713088823E+02  0.51100000000E-03 0.  1.
         12    1    3    3    0    0  0.22188914297E+02  0.12809608599E+02  0.28949700999E+02  0.38659011603E+02  0.00000000000E+00 0. -1.
</event>
<event>
 7    1  0.2405891E-015  0.9000779E+02  0.7816164E-02  0.1186339E+00
        -11   -1    0    0    0    0  0.00000000000E+00  0.00000000000E+00  0.45593999997E+02  0.45594000000E+02  0.51100000000E-03 0.  1.
         11   -1    0    0    0    0 -0.00000000000E+00 -0.00000000000E+00 -0.45593999997E+02  0.45594000000E+02  0.51100000000E-03 0. -1.
    9900012    2    1    2    0    0 -0.74571954303E+00 -0.70012286067E+00 -0.58875205499E+00  0.90007788731E+02  0.90000050742E+02 0.  0.
        -12    1    1    2    0    0  0.74571954303E+00  0.70012286067E+00  0.58875205499E+00  0.11802112689E+01  0.00000000000E+00 0.  1.
         11    1    3    3    0    0  0.53222867974E+01  0.53086691717E+01 -0.35854285489E+01  0.83285054643E+01  0.51100000000E-03 0. -1.
        -11    1    3    3    0    0 -0.25376918569E+02  0.27645018663E+02  0.15948647592E+02  0.40774923828E+02  0.51100000000E-03 0.  1.
         12    1    3    3    0    0  0.19308912229E+02 -0.33653810695E+02 -0.12951971098E+02  0.40904359439E+02  0.00000000000E+00 0. -1.
</event>
<event>
 7    1  0.2405891E-015  0.9000770E+02  0.7816164E-02  0.1186339E+00
        -11   -1    0    0    0    0  0.00000000000E+00  0.00000000000E+00  0.45593999997E+02  0.45594000000E+02  0.51100000000E-03 0. -1.
         11   -1    0    0    0    0 -0.00000000000E+00 -0.00000000000E+00 -0.45593999997E+02  0.45594000000E+02  0.51100000000E-03 0.  1.
    9900012    2    1    2    0    0 -0.64463203584E+00  0.97916990250E+00  0.13706842877E+00  0.90007698380E+02  0.89999959199E+02 0.  0.
        -12    1    1    2    0    0  0.64463203584E+00 -0.97916990250E+00 -0.13706842877E+00  0.11803016198E+01  0.00000000000E+00 0.  1.
         11    1    3    3    0    0 -0.14538864433E+02 -0.63525423584E+01  0.37275118691E+02  0.40511329861E+02  0.51100000000E-03 0. -1.
        -11    1    3    3    0    0 -0.62989990545E+01 -0.51022616100E+01 -0.48878511363E+01  0.94658096124E+01  0.51100000000E-03 0.  1.
        -12    1    3    3    0    0  0.20193231452E+02  0.12433973871E+02 -0.32250199126E+02  0.40030558906E+02  0.00000000000E+00 0.  1.
</event>
<event>
 7    1  0.2405891E-015  0.9000774E+02  0.7816164E-02  0.1186339E+00
        -11   -1    0    0    0    0  0.00000000000E+00  0.00000000000E+00  0.45593999997E+02  0.45594000000E+02  0.51100000000E-03 0.  1.
         11   -1    0    0    0    0 -0.00000000000E+00 -0.00000000000E+00 -0.45593999997E+02  0.45594000000E+02  0.51100000000E-03 0. -1.
    9900012    2    1    2    0    0 -0.11681183826E+01  0.15722935408E+00  0.61635276461E-01  0.90007737092E+02  0.89999998421E+02 0.  0.
        -12    1    1    2    0    0  0.11681183826E+01 -0.15722935408E+00 -0.61635276461E-01  0.11802629084E+01  0.00000000000E+00 0.  1.
         11    1    3    3    0    0 -0.11347104777E+01 -0.32991360780E+01 -0.90733230290E+01  0.97209597149E+01  0.51100000000E-03 0. -1.
        -11    1    3    3    0    0 -0.17002840620E+02  0.37264532472E+02  0.11004213195E+02  0.42412671194E+02  0.51100000000E-03 0.  1.
         12    1    3    3    0    0  0.16969432715E+02 -0.33808167040E+02 -0.18692548897E+01  0.37874106183E+02  0.00000000000E+00 0. -1.
</event>
<event>
 7    1  0.2405891E-015  0.9000774E+02  0.7816164E-02  0.1186339E+00
        -11   -1    0    0    0    0  0.00000000000E+00  0.00000000000E+00  0.45593999997E+02  0.45594000000E+02  0.51100000000E-03 0. -1.
         11   -1    0    0    0    0 -0.00000000000E+00 -0.00000000000E+00 -0.45593999997E+02  0.45594000000E+02  0.51100000000E-03 0.  1.
    9900012    2    1    2    0    0  0.63511773290E+00  0.38810918170E+00  0.91597193114E+00  0.90007742464E+02  0.90000003865E+02 0.  0.
        -12    1    1    2    0    0 -0.63511773290E+00 -0.38810918170E+00 -0.91597193114E+00  0.11802575355E+01  0.00000000000E+00 0.  1.
         11    1    3    3    0    0  0.15461367370E+02  0.22236152704E+02 -0.15503888671E+02  0.31206905201E+02  0.51100000000E-03 0. -1.
        -11    1    3    3    0    0 -0.18449614299E+02  0.91747092160E+01 -0.46522413741E+01  0.21123610180E+02  0.51100000000E-03 0.  1.
        -12    1    3    3    0    0  0.36233646623E+01 -0.31022752739E+02  0.21072101977E+02  0.37677227083E+02  0.00000000000E+00 0.  1.
</event>
<event>
 7    1  0.2405891E-015  0.9000779E+02  0.7816164E-02  0.1186339E+00
        -11   -1    0    0    0    0  0.00000000000E+00  0.00000000000E+00  0.45593999997E+02  0.45594000000E+02  0.51100000000E-03 0.  1.
         11   -1    0    0    0    0 -0.00000000000E+00 -0.00000000000E+00 -0.45593999997E+02  0.45594000000E+02  0.51100000000E-03 0. -1.
    9900012    2    1    2    0    0  0.11615850872E+01  0.15680045445E+00  0.13792901569E+00  0.90007792090E+02  0.90000054146E+02 0.  0.
        -12    1    1    2    0    0 -0.11615850872E+01 -0.15680045445E+00 -0.13792901569E+00  0.11802079100E+01  0.00000000000E+00 0.  1.
         11    1    3    3    0    0  0.61515963684E+01  0.14660592104E+01 -0.34446047734E+01  0.72011644749E+01  0.51100000000E-03 0. -1.
        -11    1    3    3    0    0  0.23187618204E+02  0.31521893313E+02 -0.20004044013E+01  0.39182866333E+02  0.51100000000E-03 0.  1.
         12    1    3    3    0    0 -0.28177629485E+02 -0.32831152069E+02  0.55829381904E+01  0.43623761282E+02  0.00000000000E+00 0. -1.
</event>
<event>
 7    1  0.2405891E-015  0.9000772E+02  0.7816164E-02  0.1186339E+00
        -11   -1    0    0    0    0  0.00000000000E+00  0.00000000000E+00  0.45593999997E+02  0.45594000000E+02  0.51100000000E-03 0. -1.
         11   -1    0    0    0    0 -0.00000000000E+00 -0.00000000000E+00 -0.45593999997E+02  0.45594000000E+02  0.51100000000E-03 0.  1.
    9900012    2    1    2    0    0 -0.29947268455E+00 -0.20303283248E+00  0.11234561223E+01  0.90007720424E+02  0.89999981533E+02 0.  0.
        -12    1    1    2    0    0  0.29947268455E+00  0.20303283248E+00 -0.11234561223E+01  0.11802795764E+01  0.00000000000E+00 0.  1.
         11    1    3    3    0    0 -0.25469058546E+02  0.94865215494E+01 -0.10541173497E+02  0.29151044120E+02  0.51100000000E-03 0. -1.
        -11    1    3    3    0    0 -0.13740917000E+02 -0.12778480633E+01  0.15629814331E+02  0.20850342730E+02  0.51100000000E-03 0.  1.
        -12    1    3    3    0    0  0.38910502862E+02 -0.84117063185E+01 -0.39651847111E+01  0.40006333573E+02  0.00000000000E+00 0.  1.
</event>
<event>
 7    1  0.2405891E-015  0.9000830E+02  0.7816164E-02  0.1186338E+00
        -11   -1    0    0    0    0  0.00000000000E+00  0.00000000000E+00  0.45593999997E+02  0.45594000000E+02  0.51100000000E-03 0. -1.
         11   -1    0    0    0    0 -0.00000000000E+00 -0.00000000000E+00 -0.45593999997E+02  0.45594000000E+02  0.51100000000E-03 0.  1.
    9900012    2    1    2    0    0 -0.55903478337E+00  0.64749257503E+00  0.81236230144E+00  0.90008297058E+02  0.90000565777E+02 0.  0.
        -12    1    1    2    0    0  0.55903478337E+00 -0.64749257503E+00 -0.81236230144E+00  0.11797029425E+01  0.00000000000E+00 0.  1.
         11    1    3    3    0    0 -0.17767290455E+02  0.27488477725E+02  0.30227502813E+02  0.44553282083E+02  0.51100000000E-03 0. -1.
        -11    1    3    3    0    0  0.47267998654E+00 -0.86169494421E+01 -0.27005102793E+01  0.90425660123E+01  0.51100000000E-03 0.  1.
        -12    1    3    3    0    0  0.16735575685E+02 -0.18224035708E+02 -0.26714630232E+02  0.36412448963E+02  0.00000000000E+00 0.  1.
</event>
<event>
 7    1  0.2405891E-015  0.9000772E+02  0.7816164E-02  0.1186339E+00
        -11   -1    0    0    0    0  0.00000000000E+00  0.00000000000E+00  0.45593999997E+02  0.45594000000E+02  0.51100000000E-03 0.  1.
         11   -1    0    0    0    0 -0.00000000000E+00 -0.00000000000E+00 -0.45593999997E+02  0.45594000000E+02  0.51100000000E-03 0. -1.
    9900012    2    1    2    0    0 -0.13484456056E+00  0.11648908336E+01 -0.13377586383E+00  0.90007724739E+02  0.89999985906E+02 0.  0.
        -12    1    1    2    0    0  0.13484456056E+00 -0.11648908336E+01  0.13377586383E+00  0.11802752609E+01  0.00000000000E+00 0.  1.
         11    1    3    3    0    0 -0.12757066808E+02 -0.22157208384E+02 -0.26672989028E+02  0.36947706030E+02  0.51100000000E-03 0. -1.
        -11    1    3    3    0    0 -0.12728606094E+02  0.96189600573E+01  0.15370947040E+02  0.22154182874E+02  0.51100000000E-03 0.  1.
        -12    1    3    3    0    0  0.25350828341E+02  0.13703139160E+02  0.11168266124E+02  0.30905835835E+02  0.00000000000E+00 0.  1.
</event>
<event>
 7    1  0.2405891E-015  0.9000768E+02  0.7816164E-02  0.1186339E+00
        -11   -1    0    0    0    0  0.00000000000E+00  0.00000000000E+00  0.45593999997E+02  0.45594000000E+02  0.51100000000E-03 0.  1.
         11   -1    0    0    0    0 -0.00000000000E+00 -0.00000000000E+00 -0.45593999997E+02  0.45594000000E+02  0.51100000000E-03 0. -1.
    9900012    2    1    2    0    0  0.35328308015E+00  0.11160107465E+01  0.15124597617E+00  0.90007676203E+02  0.89999936729E+02 0.  0.
        -12    1    1    2    0    0 -0.35328308015E+00 -0.11160107465E+01 -0.15124597617E+00  0.11803237973E+01  0.00000000000E+00 0.  1.
         11    1    3    3    0    0 -0.95217660151E+01 -0.49949241806E+01 -0.37746781696E+02  0.39248348045E+02  0.51100000000E-03 0. -1.
        -11    1    3    3    0    0 -0.87357696155E+01  0.22811786795E+01  0.78205872339E+00  0.90625086511E+01  0.51100000000E-03 0.  1.
        -12    1    3    3    0    0  0.18610818711E+02  0.38297562475E+01  0.37115968948E+02  0.41696819507E+02  0.00000000000E+00 0.  1.
</event>
<event>
 7    1  0.2405891E-015  0.9000769E+02  0.7816164E-02  0.1186339E+00
        -11   -1    0    0    0    0  0.00000000000E+00  0.00000000000E+00  0.45593999997E+02  0.45594000000E+02  0.51100000000E-03 0.  1.
         11   -1    0    0    0    0 -0.00000000000E+00 -0.00000000000E+00 -0.45593999997E+02  0.45594000000E+02  0.51100000000E-03 0. -1.
    9900012    2    1    2    0    0 -0.94058027556E+00 -0.17949576963E+00 -0.69008550443E+00  0.90007691570E+02  0.89999952299E+02 0.  0.
        -12    1    1    2    0    0  0.94058027556E+00  0.17949576963E+00  0.69008550443E+00  0.11803084298E+01  0.00000000000E+00 0.  1.
         11    1    3    3    0    0  0.29486120769E+01  0.40729224306E+01 -0.19865259149E+02  0.20491743011E+02  0.51100000000E-03 0. -1.
        -11    1    3    3    0    0  0.15786716752E+02 -0.15876787343E+02 -0.16035116015E+02  0.27539385396E+02  0.51100000000E-03 0.  1.
        -12    1    3    3    0    0 -0.19675909105E+02  0.11624369143E+02  0.35210289659E+02  0.41976563163E+02  0.00000000000E+00 0.  1.
</event>
<event>
 7    1  0.2405891E-015  0.9000776E+02  0.7816164E-02  0.1186339E+00
        -11   -1    0    0    0    0  0.00000000000E+00  0.00000000000E+00  0.45593999997E+02  0.45594000000E+02  0.51100000000E-03 0.  1.
         11   -1    0    0    0    0 -0.00000000000E+00 -0.00000000000E+00 -0.45593999997E+02  0.45594000000E+02  0.51100000000E-03 0. -1.
    9900012    2    1    2    0    0 -0.11697998886E+01 -0.15621773172E+00 -0.11885293149E-01  0.90007755526E+02  0.90000017099E+02 0.  0.
        -12    1    1    2    0    0  0.11697998886E+01  0.15621773172E+00  0.11885293149E-01  0.11802444744E+01  0.00000000000E+00 0.  1.
         11    1    3    3    0    0  0.21799930568E+02 -0.15684466097E+02 -0.32064393363E+02  0.41825408205E+02  0.51100000000E-03 0. -1.
        -11    1    3    3    0    0 -0.11874375156E+01 -0.51309551196E+01  0.86086528368E+01  0.10091858710E+02  0.51100000000E-03 0.  1.
        -12    1    3    3    0    0 -0.21782292941E+02  0.20659203485E+02  0.23443855233E+02  0.38090488611E+02  0.00000000000E+00 0.  1.
</event>
<event>
 7    1  0.2405891E-015  0.9000776E+02  0.7816164E-02  0.1186339E+00
        -11   -1    0    0    0    0  0.00000000000E+00  0.00000000000E+00  0.45593999997E+02  0.45594000000E+02  0.51100000000E-03 0.  1.
         11   -1    0    0    0    0 -0.00000000000E+00 -0.00000000000E+00 -0.45593999997E+02  0.45594000000E+02  0.51100000000E-03 0. -1.
    9900012    2    1    2    0    0  0.10387365981E+01  0.55457686926E+00  0.80198152639E-01  0.90007762326E+02  0.90000023988E+02 0.  0.
        -12    1    1    2    0    0 -0.10387365981E+01 -0.55457686926E+00 -0.80198152639E-01  0.11802376743E+01  0.00000000000E+00 0.  1.
         11    1    3    3    0    0  0.90442086085E+01  0.36176480667E+02 -0.10979203301E+02  0.38872591478E+02  0.51100000000E-03 0. -1.
        -11    1    3    3    0    0  0.83432410422E+01  0.14447046615E+01  0.58454541733E+01  0.10289129089E+02  0.51100000000E-03 0.  1.
        -12    1    3    3    0    0 -0.16348713053E+02 -0.37066608459E+02  0.52139472809E+01  0.40846041759E+02  0.00000000000E+00 0.  1.
</event>
<event>
 7    1  0.2405891E-015  0.9000785E+02  0.7816164E-02  0.1186339E+00
        -11   -1    0    0    0    0  0.00000000000E+00  0.00000000000E+00  0.45593999997E+02  0.45594000000E+02  0.51100000000E-03 0.  1.
         11   -1    0    0    0    0 -0.00000000000E+00 -0.00000000000E+00 -0.45593999997E+02  0.45594000000E+02  0.51100000000E-03 0. -1.
    9900012    2    1    2    0    0  0.10121430427E+01  0.22443315647E+00 -0.56386102974E+00  0.90007854652E+02  0.90000117534E+02 0.  0.
        -12    1    1    2    0    0 -0.10121430427E+01 -0.22443315647E+00  0.56386102974E+00  0.11801453476E+01  0.00000000000E+00 0.  1.
         11    1    3    3    0    0  0.32837902590E+01 -0.21176558071E+01  0.68459740615E+01  0.78825824255E+01  0.51100000000E-03 0. -1.
        -11    1    3    3    0    0  0.34688248482E+02 -0.95341170832E+01  0.13017999518E+02  0.38257578112E+02  0.51100000000E-03 0.  1.
         12    1    3    3    0    0 -0.36959895699E+02  0.11876206047E+02 -0.20427834609E+02  0.43867694115E+02  0.00000000000E+00 0. -1.
</event>
<event>
 7    1  0.2405891E-015  0.9000764E+02  0.7816164E-02  0.1186339E+00
        -11   -1    0    0    0    0  0.00000000000E+00  0.00000000000E+00  0.45593999997E+02  0.45594000000E+02  0.51100000000E-03 0.  1.
         11   -1    0    0    0    0 -0.00000000000E+00 -0.00000000000E+00 -0.45593999997E+02  0.45594000000E+02  0.51100000000E-03 0. -1.
    9900012    2    1    2    0    0  0.25552590432E+00  0.99822392661E+00 -0.57576923978E+00  0.90007637889E+02  0.89999897909E+02 0.  0.
        -12    1    1    2    0    0 -0.25552590432E+00 -0.99822392661E+00  0.57576923978E+00  0.11803621109E+01  0.00000000000E+00 0.  1.
         11    1    3    3    0    0  0.49827785469E+01 -0.70509362546E+01  0.21265585564E+01  0.88919084379E+01  0.51100000000E-03 0. -1.
        -11    1    3    3    0    0 -0.98790560841E+01 -0.32537538917E+02  0.14199105759E+02  0.36849719029E+02  0.51100000000E-03 0.  1.
         12    1    3    3    0    0  0.51518034415E+01  0.40586699099E+02 -0.16901433555E+02  0.44266010422E+02  0.00000000000E+00 0. -1.
</event>
<event>
 7    1  0.2405891E-015  0.9000775E+02  0.7816164E-02  0.1186339E+00
        -11   -1    0    0    0    0  0.00000000000E+00  0.00000000000E+00  0.45593999997E+02  0.45594000000E+02  0.51100000000E-03 0. -1.
         11   -1    0    0    0    0 -0.00000000000E+00 -0.00000000000E+00 -0.45593999997E+02  0.45594000000E+02  0.51100000000E-03 0.  1.
    9900012    2    1    2    0    0 -0.70200329696E+00  0.60934746145E+00  0.72723545425E+00  0.90007752414E+02  0.90000013946E+02 0.  0.
        -12    1    1    2    0    0  0.70200329696E+00 -0.60934746145E+00 -0.72723545425E+00  0.11802475857E+01  0.00000000000E+00 0.  1.
         11    1    3    3    0    0 -0.17846555254E+02 -0.12854124441E+02  0.31438465629E+02  0.38368022766E+02  0.51100000000E-03 0. -1.
        -11    1    3    3    0    0 -0.66859082720E+01 -0.60482724302E+01 -0.14030601328E+01  0.91242285596E+01  0.51100000000E-03 0.  1.
        -12    1    3    3    0    0  0.23830460229E+02  0.19511744333E+02 -0.29308170042E+02  0.42515501089E+02  0.00000000000E+00 0.  1.
</event>
<event>
 7    1  0.2405891E-015  0.9000746E+02  0.7816164E-02  0.1186340E+00
        -11   -1    0    0    0    0  0.00000000000E+00  0.00000000000E+00  0.45593999997E+02  0.45594000000E+02  0.51100000000E-03 0.  1.
         11   -1    0    0    0    0 -0.00000000000E+00 -0.00000000000E+00 -0.45593999997E+02  0.45594000000E+02  0.51100000000E-03 0. -1.
    9900012    2    1    2    0    0 -0.65966991339E-01  0.96850836781E+00 -0.67180432200E+00  0.90007457265E+02  0.89999714900E+02 0.  0.
        -12    1    1    2    0    0  0.65966991339E-01 -0.96850836781E+00  0.67180432200E+00  0.11805427352E+01  0.00000000000E+00 0.  1.
         11    1    3    3    0    0  0.17501978176E+01 -0.84471704704E+01 -0.34532701361E+01  0.92920910591E+01  0.51100000000E-03 0. -1.
        -11    1    3    3    0    0 -0.83376511622E+01 -0.33657374230E+02  0.11010834441E+02  0.36380953016E+02  0.51100000000E-03 0.  1.
         12    1    3    3    0    0  0.65214863533E+01  0.43073053068E+02 -0.82293686272E+01  0.44334413190E+02  0.00000000000E+00 0. -1.
</event>
<event>
 7    1  0.2405891E-015  0.9000775E+02  0.7816164E-02  0.1186339E+00
        -11   -1    0    0    0    0  0.00000000000E+00  0.00000000000E+00  0.45593999997E+02  0.45594000000E+02  0.51100000000E-03 0.  1.
         11   -1    0    0    0    0 -0.00000000000E+00 -0.00000000000E+00 -0.45593999997E+02  0.45594000000E+02  0.51100000000E-03 0. -1.
    9900012    2    1    2    0    0  0.91771821667E+00  0.32983641510E+00 -0.66482402067E+00  0.90007750126E+02  0.90000011628E+02 0.  0.
        -12    1    1    2    0    0 -0.91771821667E+00 -0.32983641510E+00  0.66482402067E+00  0.11802498737E+01  0.00000000000E+00 0.  1.
         11    1    3    3    0    0  0.18956012108E+02 -0.30023063349E+02 -0.14966866125E+01  0.35538075342E+02  0.51100000000E-03 0. -1.
        -11    1    3    3    0    0  0.36524155084E+01 -0.76431390695E+01  0.60479482161E+01  0.10408428881E+02  0.51100000000E-03 0.  1.
        -12    1    3    3    0    0 -0.21690709400E+02  0.37996038834E+02 -0.52160856242E+01  0.44061245904E+02  0.00000000000E+00 0.  1.
</event>
<event>
 7    1  0.2405891E-015  0.9000774E+02  0.7816164E-02  0.1186339E+00
        -11   -1    0    0    0    0  0.00000000000E+00  0.00000000000E+00  0.45593999997E+02  0.45594000000E+02  0.51100000000E-03 0. -1.
         11   -1    0    0    0    0 -0.00000000000E+00 -0.00000000000E+00 -0.45593999997E+02  0.45594000000E+02  0.51100000000E-03 0.  1.
    9900012    2    1    2    0    0  0.60867967143E+00  0.31179634905E+00  0.96193091275E+00  0.90007737747E+02  0.89999999085E+02 0.  0.
        -12    1    1    2    0    0 -0.60867967143E+00 -0.31179634905E+00 -0.96193091275E+00  0.11802622533E+01  0.00000000000E+00 0.  1.
         11    1    3    3    0    0  0.32526804793E+02  0.12726461258E+02 -0.50367736834E+01  0.35289161730E+02  0.51100000000E-03 0. -1.
        -11    1    3    3    0    0  0.74069553411E+01  0.26025032764E+01 -0.71491385665E+01  0.10618201036E+02  0.51100000000E-03 0.  1.
        -12    1    3    3    0    0 -0.39325080462E+02 -0.15017168185E+02  0.13147843163E+02  0.44100374982E+02  0.00000000000E+00 0.  1.
</event>
<event>
 7    1  0.2405891E-015  0.9000767E+02  0.7816164E-02  0.1186339E+00
        -11   -1    0    0    0    0  0.00000000000E+00  0.00000000000E+00  0.45593999997E+02  0.45594000000E+02  0.51100000000E-03 0.  1.
         11   -1    0    0    0    0 -0.00000000000E+00 -0.00000000000E+00 -0.45593999997E+02  0.45594000000E+02  0.51100000000E-03 0. -1.
    9900012    2    1    2    0    0 -0.41209465366E+00 -0.10020764474E+00 -0.11015075943E+01  0.90007668455E+02  0.89999928879E+02 0.  0.
        -12    1    1    2    0    0  0.41209465366E+00  0.10020764474E+00  0.11015075943E+01  0.11803315449E+01  0.00000000000E+00 0.  1.
         11    1    3    3    0    0 -0.25450904417E+02  0.21241682434E+02 -0.11133825616E+02  0.34970268535E+02  0.51100000000E-03 0. -1.
        -11    1    3    3    0    0 -0.77935838313E+01  0.71422602857E+01  0.79995805546E+00  0.10601498200E+02  0.51100000000E-03 0.  1.
        -12    1    3    3    0    0  0.32832393595E+02 -0.28484150365E+02  0.92323599666E+01  0.44435901721E+02  0.00000000000E+00 0.  1.
</event>
<event>
 7    1  0.2405891E-015  0.9000774E+02  0.7816164E-02  0.1186339E+00
        -11   -1    0    0    0    0  0.00000000000E+00  0.00000000000E+00  0.45593999997E+02  0.45594000000E+02  0.51100000000E-03 0. -1.
         11   -1    0    0    0    0 -0.00000000000E+00 -0.00000000000E+00 -0.45593999997E+02  0.45594000000E+02  0.51100000000E-03 0.  1.
    9900012    2    1    2    0    0 -0.30555229968E+00 -0.38432643740E+00  0.10732829895E+01  0.90007743505E+02  0.90000004919E+02 0.  0.
        -12    1    1    2    0    0  0.30555229968E+00  0.38432643740E+00 -0.10732829895E+01  0.11802564950E+01  0.00000000000E+00 0.  1.
         11    1    3    3    0    0  0.75528200514E+01  0.64686436768E+01  0.31912280359E+01  0.10443772230E+02  0.51100000000E-03 0. -1.
        -11    1    3    3    0    0  0.33442915730E+02  0.40762106348E+01 -0.11909410215E+02  0.35733431932E+02  0.51100000000E-03 0.  1.
         12    1    3    3    0    0 -0.41301288081E+02 -0.10929180749E+02  0.97914651681E+01  0.43830539344E+02  0.00000000000E+00 0. -1.
</event>
<event>
 7    1  0.2405891E-015  0.9000788E+02  0.7816164E-02  0.1186339E+00
        -11   -1    0    0    0    0  0.00000000000E+00  0.00000000000E+00  0.45593999997E+02  0.45594000000E+02  0.51100000000E-03 0.  1.
         11   -1    0    0    0    0 -0.00000000000E+00 -0.00000000000E+00 -0.45593999997E+02  0.45594000000E+02  0.51100000000E-03 0. -1.
    9900012    2    1    2    0    0 -0.96898378124E+00  0.60700704203E+00 -0.29206794782E+00  0.90007876785E+02  0.90000139958E+02 0.  0.
        -12    1    1    2    0    0  0.96898378124E+00 -0.60700704203E+00  0.29206794782E+00  0.11801232154E+01  0.00000000000E+00 0.  1.
         11    1    3    3    0    0 -0.14419236241E+01  0.35378244400E+02 -0.16810029683E+01  0.35447497680E+02  0.51100000000E-03 0. -1.
        -11    1    3    3    0    0 -0.39793982799E+01  0.81355105538E+01  0.64624839493E+01  0.11125908579E+02  0.51100000000E-03 0.  1.
        -12    1    3    3    0    0  0.44523381228E+01 -0.42906747912E+02 -0.50735489288E+01  0.43434470526E+02  0.00000000000E+00 0.  1.
</event>
<event>
 7    1  0.2405891E-015  0.9000780E+02  0.7816164E-02  0.1186339E+00
        -11   -1    0    0    0    0  0.00000000000E+00  0.00000000000E+00  0.45593999997E+02  0.45594000000E+02  0.51100000000E-03 0.  1.
         11   -1    0    0    0    0 -0.00000000000E+00 -0.00000000000E+00 -0.45593999997E+02  0.45594000000E+02  0.51100000000E-03 0. -1.
    9900012    2    1    2    0    0 -0.57515667530E+00  0.43329609014E+00  0.93505146331E+00  0.90007800042E+02  0.90000062202E+02 0.  0.
        -12    1    1    2    0    0  0.57515667530E+00 -0.43329609014E+00 -0.93505146331E+00  0.11801999584E+01  0.00000000000E+00 0.  1.
         11    1    3    3    0    0 -0.94202536088E+01 -0.19884498266E+01 -0.33351686744E+01  0.10189134464E+02  0.51100000000E-03 0. -1.
        -11    1    3    3    0    0 -0.34322220095E+02  0.19758507153E+01  0.11068787679E+02  0.36116988236E+02  0.51100000000E-03 0.  1.
         12    1    3    3    0    0  0.43167317028E+02  0.44589520142E+00 -0.67985675413E+01  0.43701677342E+02  0.00000000000E+00 0. -1.
</event>
<event>
 7    1  0.2405891E-015  0.9000765E+02  0.7816164E-02  0.1186339E+00
        -11   -1    0    0    0    0  0.00000000000E+00  0.00000000000E+00  0.45593999997E+02  0.45594000000E+02  0.51100000000E-03 0.  1.
         11   -1    0    0    0    0 -0.00000000000E+00 -0.00000000000E+00 -0.45593999997E+02  0.45594000000E+02  0.51100000000E-03 0. -1.
    9900012    2    1    2    0    0  0.26492098384E+00 -0.31682866309E+00 -0.11057386912E+01  0.90007651923E+02  0.89999912128E+02 0.  0.
        -12    1    1    2    0    0 -0.26492098384E+00  0.31682866309E+00  0.11057386912E+01  0.11803480769E+01  0.00000000000E+00 0.  1.
         11    1    3    3    0    0 -0.32049795491E+01 -0.14997294852E+02 -0.70029844666E+00  0.15351910792E+02  0.51100000000E-03 0. -1.
        -11    1    3    3    0    0 -0.29848907034E+02  0.18864287351E+02  0.14171367402E+02  0.38047946629E+02  0.51100000000E-03 0.  1.
         12    1    3    3    0    0  0.33318807567E+02 -0.41838211624E+01 -0.14576807647E+02  0.36607794503E+02  0.00000000000E+00 0. -1.
</event>
<event>
 7    1  0.2405891E-015  0.9000777E+02  0.7816164E-02  0.1186339E+00
        -11   -1    0    0    0    0  0.00000000000E+00  0.00000000000E+00  0.45593999997E+02  0.45594000000E+02  0.51100000000E-03 0.  1.
         11   -1    0    0    0    0 -0.00000000000E+00 -0.00000000000E+00 -0.45593999997E+02  0.45594000000E+02  0.51100000000E-03 0. -1.
    9900012    2    1    2    0    0  0.95050957371E+00  0.61074595368E+00 -0.34127544929E+00  0.90007767819E+02  0.90000029554E+02 0.  0.
        -12    1    1    2    0    0 -0.95050957371E+00 -0.61074595368E+00  0.34127544929E+00  0.11802321814E+01  0.00000000000E+00 0.  1.
         11    1    3    3    0    0 -0.13305508732E+00 -0.61322890811E+01  0.82837338352E+01  0.10307420606E+02  0.51100000000E-03 0. -1.
        -11    1    3    3    0    0 -0.21323598880E+02  0.20235669410E+02  0.23954193595E+02  0.37920727533E+02  0.51100000000E-03 0.  1.
         12    1    3    3    0    0  0.22407163541E+02 -0.13492634375E+02 -0.32579202879E+02  0.41779619679E+02  0.00000000000E+00 0. -1.
</event>
<event>
 7    1  0.2405891E-015  0.9000773E+02  0.7816164E-02  0.1186339E+00
        -11   -1    0    0    0    0  0.00000000000E+00  0.00000000000E+00  0.45593999997E+02  0.45594000000E+02  0.51100000000E-03 0. -1.
         11   -1    0    0    0    0 -0.00000000000E+00 -0.00000000000E+00 -0.45593999997E+02  0.45594000000E+02  0.51100000000E-03 0.  1.
    9900012    2    1    2    0    0 -0.76190980758E+00  0.29922077998E+00  0.85028834618E+00  0.90007733123E+02  0.89999994400E+02 0.  0.
        -12    1    1    2    0    0  0.76190980758E+00 -0.29922077998E+00 -0.85028834618E+00  0.11802668773E+01  0.00000000000E+00 0.  1.
         11    1    3    3    0    0 -0.12151184493E+02 -0.13018385508E+02  0.30205760582E+02  0.35064478014E+02  0.51100000000E-03 0. -1.
        -11    1    3    3    0    0  0.62152282589E+01  0.70555977836E+01  0.10600624088E+02  0.14169818408E+02  0.51100000000E-03 0.  1.
        -12    1    3    3    0    0  0.51740464266E+01  0.62620085047E+01 -0.39956096324E+02  0.40773436700E+02  0.00000000000E+00 0.  1.
</event>
<event>
 7    1  0.2405891E-015  0.9000770E+02  0.7816164E-02  0.1186339E+00
        -11   -1    0    0    0    0  0.00000000000E+00  0.00000000000E+00  0.45593999997E+02  0.45594000000E+02  0.51100000000E-03 0.  1.
         11   -1    0    0    0    0 -0.00000000000E+00 -0.00000000000E+00 -0.45593999997E+02  0.45594000000E+02  0.51100000000E-03 0. -1.
    9900012    2    1    2    0    0 -0.43946459755E+00  0.57060579839E+00 -0.93508354855E+00  0.90007702854E+02  0.89999963732E+02 0.  0.
        -12    1    1    2    0    0  0.43946459755E+00 -0.57060579839E+00  0.93508354855E+00  0.11802971458E+01  0.00000000000E+00 0.  1.
         11    1    3    3    0    0  0.19751802771E+02  0.15381934717E+02 -0.33833614263E+02  0.42088609893E+02  0.51100000000E-03 0. -1.
        -11    1    3    3    0    0  0.12466396200E+01 -0.99985082834E+01  0.24474305007E+01  0.10368905176E+02  0.51100000000E-03 0.  1.
        -12    1    3    3    0    0 -0.21437906988E+02 -0.48128206357E+01  0.30451100214E+02  0.37550187785E+02  0.00000000000E+00 0.  1.
</event>
<event>
 7    1  0.2405891E-015  0.9000803E+02  0.7816164E-02  0.1186338E+00
        -11   -1    0    0    0    0  0.00000000000E+00  0.00000000000E+00  0.45593999997E+02  0.45594000000E+02  0.51100000000E-03 0.  1.
         11   -1    0    0    0    0 -0.00000000000E+00 -0.00000000000E+00 -0.45593999997E+02  0.45594000000E+02  0.51100000000E-03 0. -1.
    9900012    2    1    2    0    0 -0.19279697750E+00  0.88254022004E+00 -0.75913716990E+00  0.90008026629E+02  0.90000291780E+02 0.  0.
        -12    1    1    2    0    0  0.19279697750E+00 -0.88254022004E+00  0.75913716990E+00  0.11799733714E+01  0.00000000000E+00 0.  1.
         11    1    3    3    0    0  0.89658380003E+01 -0.14234970461E+01  0.65841361342E+01  0.11214430159E+02  0.51100000000E-03 0. -1.
        -11    1    3    3    0    0 -0.49457600122E+01 -0.29786175726E+02  0.20171100251E+02  0.36311845066E+02  0.51100000000E-03 0.  1.
         12    1    3    3    0    0 -0.42128749656E+01  0.32092212992E+02 -0.27514373555E+02  0.42481751404E+02  0.00000000000E+00 0. -1.
</event>
<event>
 7    1  0.2405891E-015  0.9000746E+02  0.7816164E-02  0.1186340E+00
        -11   -1    0    0    0    0  0.00000000000E+00  0.00000000000E+00  0.45593999997E+02  0.45594000000E+02  0.51100000000E-03 0.  1.
         11   -1    0    0    0    0 -0.00000000000E+00 -0.00000000000E+00 -0.45593999997E+02  0.45594000000E+02  0.51100000000E-03 0. -1.
    9900012    2    1    2    0    0  0.16668809594E+00 -0.56039736747E+00 -0.10255975605E+01  0.90007457546E+02  0.89999715185E+02 0.  0.
        -12    1    1    2    0    0 -0.16668809594E+00  0.56039736747E+00  0.10255975605E+01  0.11805424545E+01  0.00000000000E+00 0.  1.
         11    1    3    3    0    0 -0.24966886907E+02  0.26441572915E+02 -0.66693264366E+00  0.36372338658E+02  0.51100000000E-03 0. -1.
        -11    1    3    3    0    0 -0.55494435439E+01  0.46873732782E+01 -0.56588468735E+01  0.92081670323E+01  0.51100000000E-03 0.  1.
        -12    1    3    3    0    0  0.30683018547E+02 -0.31689343560E+02  0.53001819566E+01  0.44426951856E+02  0.00000000000E+00 0.  1.
</event>
<event>
 7    1  0.2405891E-015  0.9000775E+02  0.7816164E-02  0.1186339E+00
        -11   -1    0    0    0    0  0.00000000000E+00  0.00000000000E+00  0.45593999997E+02  0.45594000000E+02  0.51100000000E-03 0.  1.
         11   -1    0    0    0    0 -0.00000000000E+00 -0.00000000000E+00 -0.45593999997E+02  0.45594000000E+02  0.51100000000E-03 0. -1.
    9900012    2    1    2    0    0 -0.88637834762E+00  0.41135151473E+00 -0.66190097645E+00  0.90007750219E+02  0.90000011722E+02 0.  0.
        -12    1    1    2    0    0  0.88637834762E+00 -0.41135151473E+00  0.66190097645E+00  0.11802497814E+01  0.00000000000E+00 0.  1.
         11    1    3    3    0    0  0.85119056042E+01  0.10958661994E+01 -0.59142281782E+00  0.86025136415E+01  0.51100000000E-03 0. -1.
        -11    1    3    3    0    0  0.92974837047E+01 -0.21571175067E+02  0.31430226864E+02  0.39237965773E+02  0.51100000000E-03 0.  1.
         12    1    3    3    0    0 -0.18695767657E+02  0.20886660382E+02 -0.31500705023E+02  0.42167270804E+02  0.00000000000E+00 0. -1.
</event>
<event>
 7    1  0.2405891E-015  0.9000778E+02  0.7816164E-02  0.1186339E+00
        -11   -1    0    0    0    0  0.00000000000E+00  0.00000000000E+00  0.45593999997E+02  0.45594000000E+02  0.51100000000E-03 0.  1.
         11   -1    0    0    0    0 -0.00000000000E+00 -0.00000000000E+00 -0.45593999997E+02  0.45594000000E+02  0.51100000000E-03 0. -1.
    9900012    2    1    2    0    0  0.10424748451E+01 -0.28394808560E+00 -0.47490037227E+00  0.90007783629E+02  0.90000045573E+02 0.  0.
        -12    1    1    2    0    0 -0.10424748451E+01  0.28394808560E+00  0.47490037227E+00  0.11802163707E+01  0.00000000000E+00 0.  1.
         11    1    3    3    0    0 -0.32764157075E+01 -0.35969247362E+01  0.10973305707E+02  0.12003591373E+02  0.51100000000E-03 0. -1.
        -11    1    3    3    0    0 -0.30846680748E+02  0.13840344252E+02  0.10292794142E+02  0.35341398582E+02  0.51100000000E-03 0.  1.
         12    1    3    3    0    0  0.35165571301E+02 -0.10527367602E+02 -0.21741000221E+02  0.42662793675E+02  0.00000000000E+00 0. -1.
</event>
<event>
 7    1  0.2405891E-015  0.9000803E+02  0.7816164E-02  0.1186338E+00
        -11   -1    0    0    0    0  0.00000000000E+00  0.00000000000E+00  0.45593999997E+02  0.45594000000E+02  0.51100000000E-03 0. -1.
         11   -1    0    0    0    0 -0.00000000000E+00 -0.00000000000E+00 -0.45593999997E+02  0.45594000000E+02  0.51100000000E-03 0.  1.
    9900012    2    1    2    0    0 -0.39638169166E+00  0.10165506311E+01 -0.44925257708E+00  0.90008033259E+02  0.90000298498E+02 0.  0.
        -12    1    1    2    0    0  0.39638169166E+00 -0.10165506311E+01  0.44925257708E+00  0.11799667407E+01  0.00000000000E+00 0.  1.
         11    1    3    3    0    0 -0.33168824039E+02 -0.27961356235E+01  0.22372122111E+02  0.40106123106E+02  0.51100000000E-03 0. -1.
        -11    1    3    3    0    0 -0.49219754802E+01  0.26978353750E+00 -0.76801319562E+01  0.91259549040E+01  0.51100000000E-03 0.  1.
        -12    1    3    3    0    0  0.37694417828E+02  0.35429027171E+01 -0.15141242732E+02  0.40775955249E+02  0.00000000000E+00 0.  1.
</event>
<event>
 7    1  0.2405891E-015  0.9000778E+02  0.7816164E-02  0.1186339E+00
        -11   -1    0    0    0    0  0.00000000000E+00  0.00000000000E+00  0.45593999997E+02  0.45594000000E+02  0.51100000000E-03 0.  1.
         11   -1    0    0    0    0 -0.00000000000E+00 -0.00000000000E+00 -0.45593999997E+02  0.45594000000E+02  0.51100000000E-03 0. -1.
    9900012    2    1    2    0    0 -0.72750230308E+00 -0.84367854326E+00 -0.38971431923E+00  0.90007775303E+02  0.90000037137E+02 0.  0.
        -12    1    1    2    0    0  0.72750230308E+00  0.84367854326E+00  0.38971431923E+00  0.11802246972E+01  0.00000000000E+00 0.  1.
         11    1    3    3    0    0 -0.38758655261E+02 -0.70510189317E+01  0.12534801238E+02  0.41340917600E+02  0.51100000000E-03 0. -1.
        -11    1    3    3    0    0  0.47458663726E+01 -0.87298386355E+01  0.75165261447E-01  0.99367489807E+01  0.51100000000E-03 0.  1.
        -12    1    3    3    0    0  0.33285286585E+02  0.14937179024E+02 -0.12999680819E+02  0.38730108723E+02  0.00000000000E+00 0.  1.
</event>
<event>
 7    1  0.2405891E-015  0.9000774E+02  0.7816164E-02  0.1186339E+00
        -11   -1    0    0    0    0  0.00000000000E+00  0.00000000000E+00  0.45593999997E+02  0.45594000000E+02  0.51100000000E-03 0.  1.
         11   -1    0    0    0    0 -0.00000000000E+00 -0.00000000000E+00 -0.45593999997E+02  0.45594000000E+02  0.51100000000E-03 0. -1.
    9900012    2    1    2    0    0  0.71252665611E+00  0.14933487131E+00 -0.92898211804E+00  0.90007744555E+02  0.90000005983E+02 0.  0.
        -12    1    1    2    0    0 -0.71252665611E+00 -0.14933487131E+00  0.92898211804E+00  0.11802554448E+01  0.00000000000E+00 0.  1.
         11    1    3    3    0    0 -0.54108142833E+01 -0.61333552212E+01 -0.14041382802E+01  0.82985879551E+01  0.51100000000E-03 0. -1.
        -11    1    3    3    0    0 -0.93117851774E+01  0.87637236836E+01  0.38514972082E+02  0.40582203867E+02  0.51100000000E-03 0.  1.
         12    1    3    3    0    0  0.15435126117E+02 -0.24810335911E+01 -0.38039815919E+02  0.41126952733E+02  0.00000000000E+00 0. -1.
</event>
<event>
 7    1  0.2632562E-015  0.9000781E+02  0.7816164E-02  0.1186339E+00
        -11   -1    0    0    0    0  0.00000000000E+00  0.00000000000E+00  0.45593999997E+02  0.45594000000E+02  0.51100000000E-03 0. -1.
         11   -1    0    0    0    0 -0.00000000000E+00 -0.00000000000E+00 -0.45593999997E+02  0.45594000000E+02  0.51100000000E-03 0.  1.
    9900012    2    1    2    0    0  0.39091750707E+00  0.40927464061E-01  0.11128137811E+01  0.90007811004E+02  0.90000073309E+02 0.  0.
        -12    1    1    2    0    0 -0.39091750707E+00 -0.40927464061E-01 -0.11128137811E+01  0.11801889959E+01  0.00000000000E+00 0.  1.
         11    1    3    3    0    0  0.84088191758E+00 -0.92426181997E+01  0.27725443776E+01  0.96860764075E+01  0.51100000000E-03 0. -1.
        -11    1    3    3    0    0 -0.32211410596E+02  0.25160213916E+02 -0.13253773880E+02  0.42968288996E+02  0.51100000000E-03 0.  1.
         12    1    3    3    0    0  0.31761446186E+02 -0.15876668252E+02  0.11594043284E+02  0.37353445601E+02  0.00000000000E+00 0. -1.
</event>
<event>
 7    1  0.2405891E-015  0.9000779E+02  0.7816164E-02  0.1186339E+00
        -11   -1    0    0    0    0  0.00000000000E+00  0.00000000000E+00  0.45593999997E+02  0.45594000000E+02  0.51100000000E-03 0. -1.
         11   -1    0    0    0    0 -0.00000000000E+00 -0.00000000000E+00 -0.45593999997E+02  0.45594000000E+02  0.51100000000E-03 0.  1.
    9900012    2    1    2    0    0 -0.76429125151E+00 -0.19244791564E+00  0.87847986201E+00  0.90007786381E+02  0.90000048362E+02 0.  0.
        -12    1    1    2    0    0  0.76429125151E+00  0.19244791564E+00 -0.87847986201E+00  0.11802136185E+01  0.00000000000E+00 0.  1.
         11    1    3    3    0    0  0.33983905187E+02  0.14080200564E+02 -0.25200216495E+01  0.36871511618E+02  0.51100000000E-03 0. -1.
        -11    1    3    3    0    0  0.44687022253E+00  0.98767746059E+01 -0.20777380895E+01  0.10102839474E+02  0.51100000000E-03 0.  1.
        -12    1    3    3    0    0 -0.35195066661E+02 -0.24149423085E+02  0.54762396010E+01  0.43033435289E+02  0.00000000000E+00 0.  1.
</event>
<event>
 7    1  0.2405891E-015  0.9000877E+02  0.7816164E-02  0.1186337E+00
        -11   -1    0    0    0    0  0.00000000000E+00  0.00000000000E+00  0.45593999997E+02  0.45594000000E+02  0.51100000000E-03 0. -1.
         11   -1    0    0    0    0 -0.00000000000E+00 -0.00000000000E+00 -0.45593999997E+02  0.45594000000E+02  0.51100000000E-03 0.  1.
    9900012    2    1    2    0    0  0.28344889451E+00  0.13536177541E+00  0.11366237718E+01  0.90008771572E+02  0.90001046551E+02 0.  0.
        -12    1    1    2    0    0 -0.28344889451E+00 -0.13536177541E+00 -0.11366237718E+01  0.11792284277E+01  0.00000000000E+00 0.  1.
         11    1    3    3    0    0 -0.20725843188E+02 -0.15545845627E+02  0.27612102879E+02  0.37863730901E+02  0.51100000000E-03 0. -1.
        -11    1    3    3    0    0 -0.83185308475E+01 -0.40725383911E+01 -0.31429164952E+01  0.97806670920E+01  0.51100000000E-03 0.  1.
        -12    1    3    3    0    0  0.29327822930E+02  0.19753745793E+02 -0.23332562612E+02  0.42364373579E+02  0.00000000000E+00 0.  1.
</event>
<event>
 7    1  0.2405891E-015  0.9000747E+02  0.7816164E-02  0.1186340E+00
        -11   -1    0    0    0    0  0.00000000000E+00  0.00000000000E+00  0.45593999997E+02  0.45594000000E+02  0.51100000000E-03 0. -1.
         11   -1    0    0    0    0 -0.00000000000E+00 -0.00000000000E+00 -0.45593999997E+02  0.45594000000E+02  0.51100000000E-03 0.  1.
    9900012    2    1    2    0    0 -0.60516027406E+00 -0.89458276637E+00  0.47661378602E+00  0.90007467076E+02  0.89999724841E+02 0.  0.
        -12    1    1    2    0    0  0.60516027406E+00  0.89458276637E+00 -0.47661378602E+00  0.11805329238E+01  0.00000000000E+00 0.  1.
         11    1    3    3    0    0  0.35352816629E+02 -0.15950306643E+02  0.70564002127E+01  0.39421145466E+02  0.51100000000E-03 0. -1.
        -11    1    3    3    0    0  0.27443173611E+01  0.63680105629E+01 -0.83838956425E+01  0.10879914646E+02  0.51100000000E-03 0.  1.
        -12    1    3    3    0    0 -0.38702294264E+02  0.86877133133E+01  0.18041092158E+01  0.39706406964E+02  0.00000000000E+00 0.  1.
</event>
<event>
 7    1  0.2405891E-015  0.9000769E+02  0.7816164E-02  0.1186339E+00
        -11   -1    0    0    0    0  0.00000000000E+00  0.00000000000E+00  0.45593999997E+02  0.45594000000E+02  0.51100000000E-03 0.  1.
         11   -1    0    0    0    0 -0.00000000000E+00 -0.00000000000E+00 -0.45593999997E+02  0.45594000000E+02  0.51100000000E-03 0. -1.
    9900012    2    1    2    0    0  0.66796610209E-01 -0.73011042150E+00 -0.92498827509E+00  0.90007692276E+02  0.89999953014E+02 0.  0.
        -12    1    1    2    0    0 -0.66796610209E-01  0.73011042150E+00  0.92498827509E+00  0.11803077242E+01  0.00000000000E+00 0.  1.
         11    1    3    3    0    0  0.81055149046E+01  0.84481607239E+01 -0.67312234435E+01  0.13504819910E+02  0.51100000000E-03 0. -1.
        -11    1    3    3    0    0 -0.15942495509E+02  0.28956985954E+02  0.15287826303E+02  0.36419607795E+02  0.51100000000E-03 0.  1.
         12    1    3    3    0    0  0.79037772145E+01 -0.38135257099E+02 -0.94815911348E+01  0.40083264572E+02  0.00000000000E+00 0. -1.
</event>
<event>
 7    1  0.2405891E-015  0.9000760E+02  0.7816164E-02  0.1186339E+00
        -11   -1    0    0    0    0  0.00000000000E+00  0.00000000000E+00  0.45593999997E+02  0.45594000000E+02  0.51100000000E-03 0. -1.
         11   -1    0    0    0    0 -0.00000000000E+00 -0.00000000000E+00 -0.45593999997E+02  0.45594000000E+02  0.51100000000E-03 0.  1.
    9900012    2    1    2    0    0 -0.86960804581E+00  0.13772899595E-01  0.79808642951E+00  0.90007597613E+02  0.89999857101E+02 0.  0.
        -12    1    1    2    0    0  0.86960804581E+00 -0.13772899595E-01 -0.79808642951E+00  0.11804023869E+01  0.00000000000E+00 0.  1.
         11    1    3    3    0    0  0.15419555654E+02  0.30991546736E+02  0.14943192194E+02  0.37703284457E+02  0.51100000000E-03 0. -1.
        -11    1    3    3    0    0 -0.26027388936E+01  0.73224765769E+00  0.98728855047E+01  0.10236420509E+02  0.51100000000E-03 0.  1.
        -12    1    3    3    0    0 -0.13686424807E+02 -0.31710021494E+02 -0.24017991269E+02  0.42067892647E+02  0.00000000000E+00 0.  1.
</event>
<event>
 7    1  0.2511739E-015  0.9000776E+02  0.7816164E-02  0.1186339E+00
        -11   -1    0    0    0    0  0.00000000000E+00  0.00000000000E+00  0.45593999997E+02  0.45594000000E+02  0.51100000000E-03 0.  1.
         11   -1    0    0    0    0 -0.00000000000E+00 -0.00000000000E+00 -0.45593999997E+02  0.45594000000E+02  0.51100000000E-03 0. -1.
    9900012    2    1    2    0    0 -0.16066649641E+00 -0.71341587341E+00 -0.92638323067E+00  0.90007761964E+02  0.90000023622E+02 0.  0.
        -12    1    1    2    0    0  0.16066649641E+00  0.71341587341E+00  0.92638323067E+00  0.11802380360E+01  0.00000000000E+00 0.  1.
         11    1    3    3    0    0 -0.81765292292E+01 -0.19658043641E+01 -0.50975082332E+01  0.98338500844E+01  0.51100000000E-03 0. -1.
        -11    1    3    3    0    0  0.17871351202E+00 -0.25802877196E+02  0.31641452585E+02  0.40828934986E+02  0.51100000000E-03 0.  1.
         12    1    3    3    0    0  0.78371492208E+01  0.27055265687E+02 -0.27470327583E+02  0.39344976894E+02  0.00000000000E+00 0. -1.
</event>
<event>
 7    1  0.2405891E-015  0.9000779E+02  0.7816164E-02  0.1186339E+00
        -11   -1    0    0    0    0  0.00000000000E+00  0.00000000000E+00  0.45593999997E+02  0.45594000000E+02  0.51100000000E-03 0. -1.
         11   -1    0    0    0    0 -0.00000000000E+00 -0.00000000000E+00 -0.45593999997E+02  0.45594000000E+02  0.51100000000E-03 0.  1.
    9900012    2    1    2    0    0 -0.37973875260E-01  0.11401378059E+01  0.30256227808E+00  0.90007788085E+02  0.90000050088E+02 0.  0.
        -12    1    1    2    0    0  0.37973875260E-01 -0.11401378059E+01 -0.30256227808E+00  0.11802119148E+01  0.00000000000E+00 0.  1.
         11    1    3    3    0    0  0.18559558694E+01  0.39617716437E+00  0.34883241243E+02  0.34934825724E+02  0.51100000000E-03 0. -1.
        -11    1    3    3    0    0  0.12629366929E+02 -0.34136882231E+01  0.39670179130E+01  0.13670823227E+02  0.51100000000E-03 0.  1.
        -12    1    3    3    0    0 -0.14523296674E+02  0.41576488646E+01 -0.38547696877E+02  0.41402139134E+02  0.00000000000E+00 0.  1.
</event>
<event>
 7    1  0.2405891E-015  0.9000778E+02  0.7816164E-02  0.1186339E+00
        -11   -1    0    0    0    0  0.00000000000E+00  0.00000000000E+00  0.45593999997E+02  0.45594000000E+02  0.51100000000E-03 0. -1.
         11   -1    0    0    0    0 -0.00000000000E+00 -0.00000000000E+00 -0.45593999997E+02  0.45594000000E+02  0.51100000000E-03 0.  1.
    9900012    2    1    2    0    0 -0.73918155754E+00  0.72794301502E+00  0.56270552656E+00  0.90007776327E+02  0.90000038175E+02 0.  0.
        -12    1    1    2    0    0  0.73918155754E+00 -0.72794301502E+00 -0.56270552656E+00  0.11802236728E+01  0.00000000000E+00 0.  1.
         11    1    3    3    0    0 -0.38152337184E+02 -0.19276246634E+01  0.18804785170E+02  0.42578592215E+02  0.51100000000E-03 0. -1.
        -11    1    3    3    0    0  0.61933244821E+01  0.87671307730E+01  0.47155822480E-01  0.10734154557E+02  0.51100000000E-03 0.  1.
        -12    1    3    3    0    0  0.31219831144E+02 -0.61115630945E+01 -0.18289235466E+02  0.36695029555E+02  0.00000000000E+00 0.  1.
</event>
<event>
 7    1  0.2405891E-015  0.9000767E+02  0.7816164E-02  0.1186339E+00
        -11   -1    0    0    0    0  0.00000000000E+00  0.00000000000E+00  0.45593999997E+02  0.45594000000E+02  0.51100000000E-03 0. -1.
         11   -1    0    0    0    0 -0.00000000000E+00 -0.00000000000E+00 -0.45593999997E+02  0.45594000000E+02  0.51100000000E-03 0.  1.
    9900012    2    1    2    0    0  0.64299127194E+00 -0.46517010999E+00  0.87369791343E+00  0.90007674176E+02  0.89999934675E+02 0.  0.
        -12    1    1    2    0    0 -0.64299127194E+00  0.46517010999E+00 -0.87369791343E+00  0.11803258241E+01  0.00000000000E+00 0.  1.
         11    1    3    3    0    0  0.19350298600E+01  0.20430317055E+02  0.36126967361E+02  0.41548766125E+02  0.51100000000E-03 0. -1.
        -11    1    3    3    0    0  0.18135159050E+01 -0.43585639564E+01  0.37188501524E+01  0.60096394582E+01  0.51100000000E-03 0.  1.
        -12    1    3    3    0    0 -0.31055544931E+01 -0.16536923208E+02 -0.38972119600E+02  0.42449268593E+02  0.00000000000E+00 0.  1.
</event>
<event>
 7    1  0.2405891E-015  0.9000699E+02  0.7816164E-02  0.1186341E+00
        -11   -1    0    0    0    0  0.00000000000E+00  0.00000000000E+00  0.45593999997E+02  0.45594000000E+02  0.51100000000E-03 0.  1.
         11   -1    0    0    0    0 -0.00000000000E+00 -0.00000000000E+00 -0.45593999997E+02  0.45594000000E+02  0.51100000000E-03 0. -1.
    9900012    2    1    2    0    0 -0.33767136510E+00 -0.21922562643E-01 -0.11314964922E+01  0.90006989051E+02  0.89999240503E+02 0.  0.
        -12    1    1    2    0    0  0.33767136510E+00  0.21922562643E-01  0.11314964922E+01  0.11810109489E+01  0.00000000000E+00 0.  1.
         11    1    3    3    0    0 -0.73122236081E+01  0.47153791623E+01  0.10162684554E+01  0.87599210370E+01  0.51100000000E-03 0. -1.
        -11    1    3    3    0    0 -0.15867429627E+02  0.10016990764E+02 -0.34324476227E+02  0.39118858565E+02  0.51100000000E-03 0.  1.
         12    1    3    3    0    0  0.22841981870E+02 -0.14754292489E+02  0.32176711279E+02  0.42128209449E+02  0.00000000000E+00 0. -1.
</event>
<event>
 7    1  0.2405891E-015  0.9000774E+02  0.7816164E-02  0.1186339E+00
        -11   -1    0    0    0    0  0.00000000000E+00  0.00000000000E+00  0.45593999997E+02  0.45594000000E+02  0.51100000000E-03 0. -1.
         11   -1    0    0    0    0 -0.00000000000E+00 -0.00000000000E+00 -0.45593999997E+02  0.45594000000E+02  0.51100000000E-03 0.  1.
    9900012    2    1    2    0    0 -0.19874824872E+00  0.45292882301E+00  0.10716200793E+01  0.90007739444E+02  0.90000000805E+02 0.  0.
        -12    1    1    2    0    0  0.19874824872E+00 -0.45292882301E+00 -0.10716200793E+01  0.11802605557E+01  0.00000000000E+00 0.  1.
         11    1    3    3    0    0  0.82943650562E+01  0.25563397985E+02  0.30716010289E+02  0.40813687613E+02  0.51100000000E-03 0. -1.
        -11    1    3    3    0    0  0.25242394927E+01  0.57762742277E+01 -0.65117700259E+01  0.90631273908E+01  0.51100000000E-03 0.  1.
        -12    1    3    3    0    0 -0.11017352798E+02 -0.30886743390E+02 -0.23132620184E+02  0.40130924441E+02  0.00000000000E+00 0.  1.
</event>
<event>
 7    1  0.2405891E-015  0.9000784E+02  0.7816164E-02  0.1186339E+00
        -11   -1    0    0    0    0  0.00000000000E+00  0.00000000000E+00  0.45593999997E+02  0.45594000000E+02  0.51100000000E-03 0.  1.
         11   -1    0    0    0    0 -0.00000000000E+00 -0.00000000000E+00 -0.45593999997E+02  0.45594000000E+02  0.51100000000E-03 0. -1.
    9900012    2    1    2    0    0 -0.45150724325E-01 -0.10525508607E+01 -0.53187110309E+00  0.90007835277E+02  0.90000097903E+02 0.  0.
        -12    1    1    2    0    0  0.45150724325E-01  0.10525508607E+01  0.53187110309E+00  0.11801647227E+01  0.00000000000E+00 0.  1.
         11    1    3    3    0    0 -0.29110384075E+02 -0.29579559609E+02  0.35698961875E+01  0.41654639198E+02  0.51100000000E-03 0. -1.
        -11    1    3    3    0    0 -0.39642147067E+01  0.85717624580E+01  0.67986293994E+00  0.94684911023E+01  0.51100000000E-03 0.  1.
        -12    1    3    3    0    0  0.33029448058E+02  0.19955246290E+02 -0.47816302305E+01  0.38884704977E+02  0.00000000000E+00 0.  1.
</event>
<event>
 7    1  0.2458699E-015  0.9000809E+02  0.7816164E-02  0.1186338E+00
        -11   -1    0    0    0    0  0.00000000000E+00  0.00000000000E+00  0.45593999997E+02  0.45594000000E+02  0.51100000000E-03 0.  1.
         11   -1    0    0    0    0 -0.00000000000E+00 -0.00000000000E+00 -0.45593999997E+02  0.45594000000E+02  0.51100000000E-03 0. -1.
    9900012    2    1    2    0    0  0.98652982274E+00  0.63335883710E+00  0.13347164573E+00  0.90008085093E+02  0.90000351015E+02 0.  0.
        -12    1    1    2    0    0 -0.98652982274E+00 -0.63335883710E+00 -0.13347164573E+00  0.11799149071E+01  0.00000000000E+00 0.  1.
         11    1    3    3    0    0 -0.65712601599E+01 -0.33566714054E+01  0.55295434656E+01  0.92208760003E+01  0.51100000000E-03 0. -1.
        -11    1    3    3    0    0 -0.10646908373E+02  0.27026826042E+02  0.25146198881E+02  0.38420532300E+02  0.51100000000E-03 0.  1.
         12    1    3    3    0    0  0.18204698355E+02 -0.23036795799E+02 -0.30542270701E+02  0.42366676793E+02  0.00000000000E+00 0. -1.
</event>
<event>
 7    1  0.2405891E-015  0.9000781E+02  0.7816164E-02  0.1186339E+00
        -11   -1    0    0    0    0  0.00000000000E+00  0.00000000000E+00  0.45593999997E+02  0.45594000000E+02  0.51100000000E-03 0. -1.
         11   -1    0    0    0    0 -0.00000000000E+00 -0.00000000000E+00 -0.45593999997E+02  0.45594000000E+02  0.51100000000E-03 0.  1.
    9900012    2    1    2    0    0  0.17237173747E+00  0.11571334470E+01  0.15545927991E+00  0.90007814668E+02  0.90000077022E+02 0.  0.
        -12    1    1    2    0    0 -0.17237173747E+00 -0.11571334470E+01 -0.15545927991E+00  0.11801853320E+01  0.00000000000E+00 0.  1.
         11    1    3    3    0    0  0.29876330256E+00 -0.14316863655E+02  0.13764516055E+01  0.14385981499E+02  0.51100000000E-03 0. -1.
        -11    1    3    3    0    0 -0.35871653020E+02  0.15248003611E+02  0.51365664374E+01  0.39314900732E+02  0.51100000000E-03 0.  1.
         12    1    3    3    0    0  0.35745261455E+02  0.22599349108E+00 -0.63575587630E+01  0.36306932437E+02  0.00000000000E+00 0. -1.
</event>
<event>
 7    1  0.2405891E-015  0.9000778E+02  0.7816164E-02  0.1186339E+00
        -11   -1    0    0    0    0  0.00000000000E+00  0.00000000000E+00  0.45593999997E+02  0.45594000000E+02  0.51100000000E-03 0. -1.
         11   -1    0    0    0    0 -0.00000000000E+00 -0.00000000000E+00 -0.45593999997E+02  0.45594000000E+02  0.51100000000E-03 0.  1.
    9900012    2    1    2    0    0 -0.73320554903E+00  0.80307508170E+00 -0.45868073379E+00  0.90007784774E+02  0.90000046733E+02 0.  0.
        -12    1    1    2    0    0  0.73320554903E+00 -0.80307508170E+00  0.45868073379E+00  0.11802152259E+01  0.00000000000E+00 0.  1.
         11    1    3    3    0    0  0.95140949318E+01  0.20603648903E+01  0.48004828600E+01  0.10853927483E+02  0.51100000000E-03 0. -1.
        -11    1    3    3    0    0  0.14124485320E+02 -0.15829798013E+02  0.28187268581E+02  0.35278969671E+02  0.51100000000E-03 0.  1.
         12    1    3    3    0    0 -0.24371785801E+02  0.14572508204E+02 -0.33446432175E+02  0.43874887621E+02  0.00000000000E+00 0. -1.
</event>
<event>
 7    1  0.2405891E-015  0.9000773E+02  0.7816164E-02  0.1186339E+00
        -11   -1    0    0    0    0  0.00000000000E+00  0.00000000000E+00  0.45593999997E+02  0.45594000000E+02  0.51100000000E-03 0.  1.
         11   -1    0    0    0    0 -0.00000000000E+00 -0.00000000000E+00 -0.45593999997E+02  0.45594000000E+02  0.51100000000E-03 0. -1.
    9900012    2    1    2    0    0 -0.30080918696E+00 -0.40616728439E+00 -0.10665750560E+01  0.90007728684E+02  0.89999989902E+02 0.  0.
        -12    1    1    2    0    0  0.30080918696E+00  0.40616728439E+00  0.10665750560E+01  0.11802713163E+01  0.00000000000E+00 0.  1.
         11    1    3    3    0    0 -0.38211130543E+02  0.10418229673E+02 -0.41200278879E+01  0.39819651391E+02  0.51100000000E-03 0. -1.
        -11    1    3    3    0    0  0.83689254005E+01  0.73727329496E+01 -0.80539562926E+01  0.13757264108E+02  0.51100000000E-03 0.  1.
        -12    1    3    3    0    0  0.29541395955E+02 -0.18197129907E+02  0.11107409125E+02  0.36430813185E+02  0.00000000000E+00 0.  1.
</event>
<event>
 7    1  0.2405891E-015  0.9000768E+02  0.7816164E-02  0.1186339E+00
        -11   -1    0    0    0    0  0.00000000000E+00  0.00000000000E+00  0.45593999997E+02  0.45594000000E+02  0.51100000000E-03 0.  1.
         11   -1    0    0    0    0 -0.00000000000E+00 -0.00000000000E+00 -0.45593999997E+02  0.45594000000E+02  0.51100000000E-03 0. -1.
    9900012    2    1    2    0    0  0.91962026106E+00  0.17346024281E+00 -0.71927602093E+00  0.90007683146E+02  0.89999943764E+02 0.  0.
        -12    1    1    2    0    0 -0.91962026106E+00 -0.17346024281E+00  0.71927602093E+00  0.11803168535E+01  0.00000000000E+00 0.  1.
         11    1    3    3    0    0 -0.10036112710E+02 -0.12927932221E+02 -0.25382722456E+02  0.30201615675E+02  0.51100000000E-03 0. -1.
        -11    1    3    3    0    0 -0.66821837448E+01 -0.14170510063E+02 -0.43457493302E+01  0.16258550752E+02  0.51100000000E-03 0.  1.
        -12    1    3    3    0    0  0.17637916716E+02  0.27271902527E+02  0.29009195765E+02  0.43547516720E+02  0.00000000000E+00 0.  1.
</event>
<event>
 7    1  0.2405891E-015  0.9000772E+02  0.7816164E-02  0.1186339E+00
        -11   -1    0    0    0    0  0.00000000000E+00  0.00000000000E+00  0.45593999997E+02  0.45594000000E+02  0.51100000000E-03 0.  1.
         11   -1    0    0    0    0 -0.00000000000E+00 -0.00000000000E+00 -0.45593999997E+02  0.45594000000E+02  0.51100000000E-03 0. -1.
    9900012    2    1    2    0    0  0.68694838855E+00  0.58442228452E+00 -0.76132200721E+00  0.90007720925E+02  0.89999982042E+02 0.  0.
        -12    1    1    2    0    0 -0.68694838855E+00 -0.58442228452E+00  0.76132200721E+00  0.11802790746E+01  0.00000000000E+00 0.  1.
         11    1    3    3    0    0 -0.20220815115E+02  0.40770845071E+01  0.10127229881E+02  0.22979659861E+02  0.51100000000E-03 0. -1.
        -11    1    3    3    0    0  0.29519545402E+02 -0.26924510334E+02 -0.41641043536E+00  0.39956303826E+02  0.51100000000E-03 0.  1.
         12    1    3    3    0    0 -0.86117818988E+01  0.23431848112E+02 -0.10472141452E+02  0.27071757239E+02  0.00000000000E+00 0. -1.
</event>
<event>
 7    1  0.2405891E-015  0.9000785E+02  0.7816164E-02  0.1186339E+00
        -11   -1    0    0    0    0  0.00000000000E+00  0.00000000000E+00  0.45593999997E+02  0.45594000000E+02  0.51100000000E-03 0.  1.
         11   -1    0    0    0    0 -0.00000000000E+00 -0.00000000000E+00 -0.45593999997E+02  0.45594000000E+02  0.51100000000E-03 0. -1.
    9900012    2    1    2    0    0  0.96521113496E+00  0.17795618651E+00 -0.65533496062E+00  0.90007845413E+02  0.90000108172E+02 0.  0.
        -12    1    1    2    0    0 -0.96521113496E+00 -0.17795618651E+00  0.65533496062E+00  0.11801545873E+01  0.00000000000E+00 0.  1.
         11    1    3    3    0    0 -0.40951555208E+01  0.74193586934E+01  0.34811938500E+01  0.91616534012E+01  0.51100000000E-03 0. -1.
        -11    1    3    3    0    0  0.10092939937E+02  0.28964395382E+02 -0.24271147480E+02  0.39113836895E+02  0.51100000000E-03 0.  1.
         12    1    3    3    0    0 -0.50325732816E+01 -0.36205797889E+02  0.20134618669E+02  0.41732355116E+02  0.00000000000E+00 0. -1.
</event>
<event>
 7    1  0.2405891E-015  0.9000776E+02  0.7816164E-02  0.1186339E+00
        -11   -1    0    0    0    0  0.00000000000E+00  0.00000000000E+00  0.45593999997E+02  0.45594000000E+02  0.51100000000E-03 0.  1.
         11   -1    0    0    0    0 -0.00000000000E+00 -0.00000000000E+00 -0.45593999997E+02  0.45594000000E+02  0.51100000000E-03 0. -1.
    9900012    2    1    2    0    0 -0.93702544606E+00 -0.32425305868E-01 -0.71686639497E+00  0.90007760399E+02  0.90000022036E+02 0.  0.
        -12    1    1    2    0    0  0.93702544606E+00  0.32425305868E-01  0.71686639497E+00  0.11802396008E+01  0.00000000000E+00 0.  1.
         11    1    3    3    0    0  0.30411813828E+02 -0.22802448766E+02  0.81968677034E+00  0.38019757714E+02  0.51100000000E-03 0. -1.
        -11    1    3    3    0    0  0.64070617315E+01 -0.13563019408E+01  0.24785081154E+01  0.70023565837E+01  0.51100000000E-03 0.  1.
        -12    1    3    3    0    0 -0.37755901005E+02  0.24126325401E+02 -0.40150612808E+01  0.44985646101E+02  0.00000000000E+00 0.  1.
</event>
<event>
 7    1  0.2405891E-015  0.9000773E+02  0.7816164E-02  0.1186339E+00
        -11   -1    0    0    0    0  0.00000000000E+00  0.00000000000E+00  0.45593999997E+02  0.45594000000E+02  0.51100000000E-03 0.  1.
         11   -1    0    0    0    0 -0.00000000000E+00 -0.00000000000E+00 -0.45593999997E+02  0.45594000000E+02  0.51100000000E-03 0. -1.
    9900012    2    1    2    0    0 -0.75143458444E+00  0.90675111823E+00 -0.78707133490E-01  0.90007726160E+02  0.89999987345E+02 0.  0.
        -12    1    1    2    0    0  0.75143458444E+00 -0.90675111823E+00  0.78707133490E-01  0.11802738402E+01  0.00000000000E+00 0.  1.
         11    1    3    3    0    0 -0.22436181226E+02  0.53606419370E+01  0.34852742238E+02  0.41795123540E+02  0.51100000000E-03 0. -1.
        -11    1    3    3    0    0  0.50546943151E+01 -0.83372546604E+01 -0.48103043992E+00  0.97617181088E+01  0.51100000000E-03 0.  1.
        -12    1    3    3    0    0  0.16630052326E+02  0.38833638416E+01 -0.34450418932E+02  0.38450884511E+02  0.00000000000E+00 0.  1.
</event>
<event>
 7    1  0.2405891E-015  0.9000873E+02  0.7816164E-02  0.1186337E+00
        -11   -1    0    0    0    0  0.00000000000E+00  0.00000000000E+00  0.45593999997E+02  0.45594000000E+02  0.51100000000E-03 0.  1.
         11   -1    0    0    0    0 -0.00000000000E+00 -0.00000000000E+00 -0.45593999997E+02  0.45594000000E+02  0.51100000000E-03 0. -1.
    9900012    2    1    2    0    0  0.16384812989E+00 -0.58345256551E+00 -0.10116342882E+01  0.90008734534E+02  0.90001009024E+02 0.  0.
        -12    1    1    2    0    0 -0.16384812989E+00  0.58345256551E+00  0.10116342882E+01  0.11792654658E+01  0.00000000000E+00 0.  1.
         11    1    3    3    0    0 -0.51404164503E+01 -0.92936266273E+01 -0.19699277428E+01  0.10801666202E+02  0.51100000000E-03 0. -1.
        -11    1    3    3    0    0 -0.15259460079E+01 -0.30411584444E+02  0.18675530052E+02  0.35720699917E+02  0.51100000000E-03 0.  1.
         12    1    3    3    0    0  0.68302105880E+01  0.39121758506E+02 -0.17717236597E+02  0.43486368415E+02  0.00000000000E+00 0. -1.
</event>
<event>
 7    1  0.2405891E-015  0.9000774E+02  0.7816164E-02  0.1186339E+00
        -11   -1    0    0    0    0  0.00000000000E+00  0.00000000000E+00  0.45593999997E+02  0.45594000000E+02  0.51100000000E-03 0. -1.
         11   -1    0    0    0    0 -0.00000000000E+00 -0.00000000000E+00 -0.45593999997E+02  0.45594000000E+02  0.51100000000E-03 0.  1.
    9900012    2    1    2    0    0 -0.61399175352E-01  0.67140787624E+00  0.96874208496E+00  0.90007737477E+02  0.89999998812E+02 0.  0.
        -12    1    1    2    0    0  0.61399175352E-01 -0.67140787624E+00 -0.96874208496E+00  0.11802625226E+01  0.00000000000E+00 0.  1.
         11    1    3    3    0    0  0.32400033677E+02 -0.16026178926E+02 -0.11669863187E+02  0.37984026910E+02  0.51100000000E-03 0. -1.
        -11    1    3    3    0    0  0.55127854326E+01  0.76695169237E+01 -0.30949490245E+01  0.99393663175E+01  0.51100000000E-03 0.  1.
        -12    1    3    3    0    0 -0.37974218285E+02  0.90280698787E+01  0.15733554297E+02  0.42084344250E+02  0.00000000000E+00 0.  1.
</event>
<event>
 7    1  0.2405891E-015  0.9000771E+02  0.7816164E-02  0.1186339E+00
        -11   -1    0    0    0    0  0.00000000000E+00  0.00000000000E+00  0.45593999997E+02  0.45594000000E+02  0.51100000000E-03 0. -1.
         11   -1    0    0    0    0 -0.00000000000E+00 -0.00000000000E+00 -0.45593999997E+02  0.45594000000E+02  0.51100000000E-03 0.  1.
    9900012    2    1    2    0    0 -0.51537726062E+00  0.99460091170E+00 -0.37179383814E+00  0.90007713868E+02  0.89999974891E+02 0.  0.
        -12    1    1    2    0    0  0.51537726062E+00 -0.99460091170E+00  0.37179383814E+00  0.11802861316E+01  0.00000000000E+00 0.  1.
         11    1    3    3    0    0 -0.86109434177E+01  0.25743489081E+01  0.11968946920E+01  0.90668724491E+01  0.51100000000E-03 0. -1.
        -11    1    3    3    0    0 -0.25154739893E+02 -0.19143736017E+02 -0.21646695966E+02  0.38312178407E+02  0.51100000000E-03 0.  1.
         12    1    3    3    0    0  0.33250306050E+02  0.17563988020E+02  0.20078007436E+02  0.42628663012E+02  0.00000000000E+00 0. -1.
</event>
<event>
 7    1  0.2405891E-015  0.9000783E+02  0.7816164E-02  0.1186339E+00
        -11   -1    0    0    0    0  0.00000000000E+00  0.00000000000E+00  0.45593999997E+02  0.45594000000E+02  0.51100000000E-03 0.  1.
         11   -1    0    0    0    0 -0.00000000000E+00 -0.00000000000E+00 -0.45593999997E+02  0.45594000000E+02  0.51100000000E-03 0. -1.
    9900012    2    1    2    0    0 -0.10806319495E-01  0.11662247586E+01  0.18057858044E+00  0.90007828153E+02  0.90000090685E+02 0.  0.
        -12    1    1    2    0    0  0.10806319495E-01 -0.11662247586E+01 -0.18057858044E+00  0.11801718467E+01  0.00000000000E+00 0.  1.
         11    1    3    3    0    0 -0.31662296503E+02 -0.74363432671E+01 -0.26864371731E+02  0.42184057294E+02  0.51100000000E-03 0. -1.
        -11    1    3    3    0    0  0.10252488506E+02 -0.34494351919E+00 -0.22061042033E+01  0.10492826245E+02  0.51100000000E-03 0.  1.
        -12    1    3    3    0    0  0.21399001677E+02  0.89475115448E+01  0.29251054514E+02  0.37330944615E+02  0.00000000000E+00 0.  1.
</event>
<event>
 7    1  0.2405891E-015  0.9000774E+02  0.7816164E-02  0.1186339E+00
        -11   -1    0    0    0    0  0.00000000000E+00  0.00000000000E+00  0.45593999997E+02  0.45594000000E+02  0.51100000000E-03 0.  1.
         11   -1    0    0    0    0 -0.00000000000E+00 -0.00000000000E+00 -0.45593999997E+02  0.45594000000E+02  0.51100000000E-03 0. -1.
    9900012    2    1    2    0    0  0.19555400284E+00 -0.94216692011E+00 -0.68344055118E+00  0.90007741189E+02  0.90000002573E+02 0.  0.
        -12    1    1    2    0    0 -0.19555400284E+00  0.94216692011E+00  0.68344055118E+00  0.11802588108E+01  0.00000000000E+00 0.  1.
         11    1    3    3    0    0 -0.11340157460E+02  0.10564117657E+02  0.20747470617E+01  0.15636634187E+02  0.51100000000E-03 0. -1.
        -11    1    3    3    0    0  0.19023217371E+02 -0.18691578579E+02  0.29922362307E+02  0.40082485891E+02  0.51100000000E-03 0.  1.
         12    1    3    3    0    0 -0.74875059087E+01  0.71852940021E+01 -0.32680549920E+02  0.34288621111E+02  0.00000000000E+00 0. -1.
</event>
<event>
 7    1  0.2405891E-015  0.9000784E+02  0.7816164E-02  0.1186339E+00
        -11   -1    0    0    0    0  0.00000000000E+00  0.00000000000E+00  0.45593999997E+02  0.45594000000E+02  0.51100000000E-03 0. -1.
         11   -1    0    0    0    0 -0.00000000000E+00 -0.00000000000E+00 -0.45593999997E+02  0.45594000000E+02  0.51100000000E-03 0.  1.
    9900012    2    1    2    0    0  0.35185842135E+00 -0.71357607486E+00  0.87165004210E+00  0.90007843672E+02  0.90000106408E+02 0.  0.
        -12    1    1    2    0    0 -0.35185842135E+00  0.71357607486E+00 -0.87165004210E+00  0.11801563283E+01  0.00000000000E+00 0.  1.
         11    1    3    3    0    0 -0.16893466077E+02  0.25918552470E+02  0.10828105918E+02  0.32778170118E+02  0.51100000000E-03 0. -1.
        -11    1    3    3    0    0 -0.12181568388E+02  0.43930793752E+01  0.12923218225E+01  0.13013833054E+02  0.51100000000E-03 0.  1.
        -12    1    3    3    0    0  0.29426892886E+02 -0.31025207920E+02 -0.11248777699E+02  0.44215840500E+02  0.00000000000E+00 0.  1.
</event>
<event>
 7    1  0.3987385E-015  0.9000784E+02  0.7816164E-02  0.1186339E+00
        -11   -1    0    0    0    0  0.00000000000E+00  0.00000000000E+00  0.45593999997E+02  0.45594000000E+02  0.51100000000E-03 0. -1.
         11   -1    0    0    0    0 -0.00000000000E+00 -0.00000000000E+00 -0.45593999997E+02  0.45594000000E+02  0.51100000000E-03 0.  1.
    9900012    2    1    2    0    0  0.50485093309E+00  0.63763287952E-01  0.10648152496E+01  0.90007842495E+02  0.90000105216E+02 0.  0.
        -12    1    1    2    0    0 -0.50485093309E+00 -0.63763287952E-01 -0.10648152496E+01  0.11801575053E+01  0.00000000000E+00 0.  1.
         11    1    3    3    0    0 -0.66899460814E+01 -0.68017214996E+01  0.12062029059E+01  0.96163256830E+01  0.51100000000E-03 0. -1.
        -11    1    3    3    0    0  0.81491437821E+01 -0.76033240827E+01 -0.38132157847E+02  0.39727579133E+02  0.51100000000E-03 0.  1.
         12    1    3    3    0    0 -0.95434676755E+00  0.14468808870E+02  0.37990770190E+02  0.40663937679E+02  0.00000000000E+00 0. -1.
</event>
<event>
 7    1  0.2405891E-015  0.9000773E+02  0.7816164E-02  0.1186339E+00
        -11   -1    0    0    0    0  0.00000000000E+00  0.00000000000E+00  0.45593999997E+02  0.45594000000E+02  0.51100000000E-03 0.  1.
         11   -1    0    0    0    0 -0.00000000000E+00 -0.00000000000E+00 -0.45593999997E+02  0.45594000000E+02  0.51100000000E-03 0. -1.
    9900012    2    1    2    0    0  0.46680209084E+00  0.65135401345E+00 -0.86652411326E+00  0.90007732962E+02  0.89999994237E+02 0.  0.
        -12    1    1    2    0    0 -0.46680209084E+00 -0.65135401345E+00  0.86652411326E+00  0.11802670383E+01  0.00000000000E+00 0.  1.
         11    1    3    3    0    0  0.36696026560E+02 -0.13041178864E+02  0.12001340610E+02  0.40751722518E+02  0.51100000000E-03 0. -1.
        -11    1    3    3    0    0 -0.45576316521E+01 -0.79486538502E+01 -0.18719068593E+01  0.93518522153E+01  0.51100000000E-03 0.  1.
        -12    1    3    3    0    0 -0.31671592817E+02  0.21641186728E+02 -0.10995957864E+02  0.39904158228E+02  0.00000000000E+00 0.  1.
</event>
<event>
 7    1  0.2405891E-015  0.9000776E+02  0.7816164E-02  0.1186339E+00
        -11   -1    0    0    0    0  0.00000000000E+00  0.00000000000E+00  0.45593999997E+02  0.45594000000E+02  0.51100000000E-03 0.  1.
         11   -1    0    0    0    0 -0.00000000000E+00 -0.00000000000E+00 -0.45593999997E+02  0.45594000000E+02  0.51100000000E-03 0. -1.
    9900012    2    1    2    0    0 -0.54670074936E-01  0.76361443469E+00 -0.89826531692E+00  0.90007755787E+02  0.90000017364E+02 0.  0.
        -12    1    1    2    0    0  0.54670074936E-01 -0.76361443469E+00  0.89826531692E+00  0.11802442127E+01  0.00000000000E+00 0.  1.
         11    1    3    3    0    0  0.15054771152E+02  0.73221453784E+01 -0.30874263963E+02  0.35120935678E+02  0.51100000000E-03 0. -1.
        -11    1    3    3    0    0  0.24520900807E+01  0.26285784642E+01 -0.98043751247E+01  0.10442602279E+02  0.51100000000E-03 0.  1.
        -12    1    3    3    0    0 -0.17561531308E+02 -0.91871094079E+01  0.39780373771E+02  0.44444217830E+02  0.00000000000E+00 0.  1.
</event>
<event>
 7    1  0.2405891E-015  0.9000771E+02  0.7816164E-02  0.1186339E+00
        -11   -1    0    0    0    0  0.00000000000E+00  0.00000000000E+00  0.45593999997E+02  0.45594000000E+02  0.51100000000E-03 0.  1.
         11   -1    0    0    0    0 -0.00000000000E+00 -0.00000000000E+00 -0.45593999997E+02  0.45594000000E+02  0.51100000000E-03 0. -1.
    9900012    2    1    2    0    0 -0.89813860238E+00 -0.40527437671E-01  0.76471894574E+00  0.90007707456E+02  0.89999968395E+02 0.  0.
        -12    1    1    2    0    0  0.89813860238E+00  0.40527437671E-01 -0.76471894574E+00  0.11802925435E+01  0.00000000000E+00 0.  1.
         11    1    3    3    0    0 -0.29284667441E+01 -0.24521789009E+02 -0.24906706309E+02  0.35074749793E+02  0.51100000000E-03 0. -1.
        -11    1    3    3    0    0  0.50401099334E+01 -0.59698769137E+01 -0.67694332519E+01  0.10337667305E+02  0.51100000000E-03 0.  1.
        -12    1    3    3    0    0 -0.30097817918E+01  0.30451138485E+02  0.32440858506E+02  0.44595290358E+02  0.00000000000E+00 0.  1.
</event>
<event>
 7    1  0.2405891E-015  0.9000816E+02  0.7816164E-02  0.1186338E+00
        -11   -1    0    0    0    0  0.00000000000E+00  0.00000000000E+00  0.45593999997E+02  0.45594000000E+02  0.51100000000E-03 0. -1.
         11   -1    0    0    0    0 -0.00000000000E+00 -0.00000000000E+00 -0.45593999997E+02  0.45594000000E+02  0.51100000000E-03 0.  1.
    9900012    2    1    2    0    0  0.73497879207E+00 -0.20823694072E-01  0.92270578332E+00  0.90008163819E+02  0.90000430781E+02 0.  0.
        -12    1    1    2    0    0 -0.73497879207E+00  0.20823694072E-01 -0.92270578332E+00  0.11798361808E+01  0.00000000000E+00 0.  1.
         11    1    3    3    0    0  0.30841743337E+01  0.10454907664E+02  0.34394418033E+02  0.36080371640E+02  0.51100000000E-03 0. -1.
        -11    1    3    3    0    0 -0.13721262573E+02  0.27800117771E+01  0.22360859384E+01  0.14177503048E+02  0.51100000000E-03 0.  1.
        -12    1    3    3    0    0  0.11372067031E+02 -0.13255743135E+02 -0.35707798188E+02  0.39750289132E+02  0.00000000000E+00 0.  1.
</event>
<event>
 7    1  0.2405891E-015  0.9000773E+02  0.7816164E-02  0.1186339E+00
        -11   -1    0    0    0    0  0.00000000000E+00  0.00000000000E+00  0.45593999997E+02  0.45594000000E+02  0.51100000000E-03 0. -1.
         11   -1    0    0    0    0 -0.00000000000E+00 -0.00000000000E+00 -0.45593999997E+02  0.45594000000E+02  0.51100000000E-03 0.  1.
    9900012    2    1    2    0    0  0.98301952647E+00 -0.40087937523E+00  0.51575383812E+00  0.90007731520E+02  0.89999992776E+02 0.  0.
        -12    1    1    2    0    0 -0.98301952647E+00  0.40087937523E+00 -0.51575383812E+00  0.11802684798E+01  0.00000000000E+00 0.  1.
         11    1    3    3    0    0  0.54587216448E+01 -0.26983970798E+01 -0.52514866564E+01  0.80409639446E+01  0.51100000000E-03 0. -1.
        -11    1    3    3    0    0  0.11438457070E+01  0.33998850788E+02 -0.21102540288E+02  0.40031830395E+02  0.51100000000E-03 0.  1.
         12    1    3    3    0    0 -0.56195478253E+01 -0.31701333084E+02  0.26869780782E+02  0.41934937180E+02  0.00000000000E+00 0. -1.
</event>
<event>
 7    1  0.2405891E-015  0.9000771E+02  0.7816164E-02  0.1186339E+00
        -11   -1    0    0    0    0  0.00000000000E+00  0.00000000000E+00  0.45593999997E+02  0.45594000000E+02  0.51100000000E-03 0.  1.
         11   -1    0    0    0    0 -0.00000000000E+00 -0.00000000000E+00 -0.45593999997E+02  0.45594000000E+02  0.51100000000E-03 0. -1.
    9900012    2    1    2    0    0 -0.74503720219E+00 -0.79342780991E+00 -0.45658107076E+00  0.90007714273E+02  0.89999975302E+02 0.  0.
        -12    1    1    2    0    0  0.74503720219E+00  0.79342780991E+00  0.45658107076E+00  0.11802857266E+01  0.00000000000E+00 0.  1.
         11    1    3    3    0    0 -0.23382906285E+02 -0.13911741527E+02 -0.22227107191E+02  0.35133191614E+02  0.51100000000E-03 0. -1.
        -11    1    3    3    0    0 -0.19919867774E+01 -0.68557016936E+01 -0.84551240558E+01  0.11066064345E+02  0.51100000000E-03 0.  1.
        -12    1    3    3    0    0  0.24629855860E+02  0.19974015411E+02  0.30225650176E+02  0.43808458314E+02  0.00000000000E+00 0.  1.
</event>
<event>
 7    1  0.2405891E-015  0.9000774E+02  0.7816164E-02  0.1186339E+00
        -11   -1    0    0    0    0  0.00000000000E+00  0.00000000000E+00  0.45593999997E+02  0.45594000000E+02  0.51100000000E-03 0.  1.
         11   -1    0    0    0    0 -0.00000000000E+00 -0.00000000000E+00 -0.45593999997E+02  0.45594000000E+02  0.51100000000E-03 0. -1.
    9900012    2    1    2    0    0  0.44155278791E+00 -0.10360347537E+01 -0.35309728646E+00  0.90007739618E+02  0.90000000981E+02 0.  0.
        -12    1    1    2    0    0 -0.44155278791E+00  0.10360347537E+01  0.35309728646E+00  0.11802603819E+01  0.00000000000E+00 0.  1.
         11    1    3    3    0    0 -0.24462233054E+02 -0.28757653758E+02 -0.11006619840E+01  0.37770556691E+02  0.51100000000E-03 0. -1.
        -11    1    3    3    0    0  0.25374741704E+01 -0.41164253748E+01 -0.10647268037E+02  0.11693932185E+02  0.51100000000E-03 0.  1.
        -12    1    3    3    0    0  0.22366311671E+02  0.31838044380E+02  0.11394832735E+02  0.40543250742E+02  0.00000000000E+00 0.  1.
</event>
<event>
 7    1  0.2405891E-015  0.9000765E+02  0.7816164E-02  0.1186339E+00
        -11   -1    0    0    0    0  0.00000000000E+00  0.00000000000E+00  0.45593999997E+02  0.45594000000E+02  0.51100000000E-03 0. -1.
         11   -1    0    0    0    0 -0.00000000000E+00 -0.00000000000E+00 -0.45593999997E+02  0.45594000000E+02  0.51100000000E-03 0.  1.
    9900012    2    1    2    0    0  0.47255862250E+00 -0.74415421832E-01 -0.10790663689E+01  0.90007646860E+02  0.89999906998E+02 0.  0.
        -12    1    1    2    0    0 -0.47255862250E+00  0.74415421832E-01  0.10790663689E+01  0.11803531401E+01  0.00000000000E+00 0.  1.
         11    1    3    3    0    0  0.23259185634E+01  0.82769290268E+01  0.98251338727E+00  0.86534839282E+01  0.51100000000E-03 0. -1.
        -11    1    3    3    0    0  0.37333226438E+02  0.12584661012E+01  0.11007719245E+02  0.38942565612E+02  0.51100000000E-03 0.  1.
         12    1    3    3    0    0 -0.39186586379E+02 -0.96098105499E+01 -0.13069299001E+02  0.42411597320E+02  0.00000000000E+00 0. -1.
</event>
<event>
 7    1  0.2405891E-015  0.9000781E+02  0.7816164E-02  0.1186339E+00
        -11   -1    0    0    0    0  0.00000000000E+00  0.00000000000E+00  0.45593999997E+02  0.45594000000E+02  0.51100000000E-03 0. -1.
         11   -1    0    0    0    0 -0.00000000000E+00 -0.00000000000E+00 -0.45593999997E+02  0.45594000000E+02  0.51100000000E-03 0.  1.
    9900012    2    1    2    0    0 -0.82003400408E+00  0.59544026090E+00  0.60484069041E+00  0.90007814789E+02  0.90000077144E+02 0.  0.
        -12    1    1    2    0    0  0.82003400408E+00 -0.59544026090E+00 -0.60484069041E+00  0.11801852113E+01  0.00000000000E+00 0.  1.
         11    1    3    3    0    0 -0.94026484836E+01 -0.14060099054E+01 -0.68825727864E+01  0.11736970256E+02  0.51100000000E-03 0. -1.
        -11    1    3    3    0    0 -0.17523023596E+02  0.10624901751E+02 -0.27170721652E+02  0.34032234845E+02  0.51100000000E-03 0.  1.
         12    1    3    3    0    0  0.26105638075E+02 -0.86234515852E+01  0.34658135129E+02  0.44238609688E+02  0.00000000000E+00 0. -1.
</event>
<event>
 7    1  0.2405891E-015  0.9000765E+02  0.7816164E-02  0.1186339E+00
        -11   -1    0    0    0    0  0.00000000000E+00  0.00000000000E+00  0.45593999997E+02  0.45594000000E+02  0.51100000000E-03 0. -1.
         11   -1    0    0    0    0 -0.00000000000E+00 -0.00000000000E+00 -0.45593999997E+02  0.45594000000E+02  0.51100000000E-03 0.  1.
    9900012    2    1    2    0    0 -0.31823056770E+00  0.17389828009E+00  0.11232562190E+01  0.90007654356E+02  0.89999914593E+02 0.  0.
        -12    1    1    2    0    0  0.31823056770E+00 -0.17389828009E+00 -0.11232562190E+01  0.11803456441E+01  0.00000000000E+00 0.  1.
         11    1    3    3    0    0 -0.54226934129E+01  0.71618325921E+01 -0.31063469440E+01  0.95050955558E+01  0.51100000000E-03 0. -1.
        -11    1    3    3    0    0 -0.28946233279E+02  0.21028888975E+02 -0.26385161163E+01  0.35875623480E+02  0.51100000000E-03 0.  1.
         12    1    3    3    0    0  0.34050696124E+02 -0.28016823287E+02  0.68681192793E+01  0.44626935320E+02  0.00000000000E+00 0. -1.
</event>
<event>
 7    1  0.2405891E-015  0.9000733E+02  0.7816164E-02  0.1186340E+00
        -11   -1    0    0    0    0  0.00000000000E+00  0.00000000000E+00  0.45593999997E+02  0.45594000000E+02  0.51100000000E-03 0.  1.
         11   -1    0    0    0    0 -0.00000000000E+00 -0.00000000000E+00 -0.45593999997E+02  0.45594000000E+02  0.51100000000E-03 0. -1.
    9900012    2    1    2    0    0 -0.44741129706E+00 -0.10421432919E+01  0.32823736713E+00  0.90007331004E+02  0.89999586972E+02 0.  0.
        -12    1    1    2    0    0  0.44741129706E+00  0.10421432919E+01 -0.32823736713E+00  0.11806689963E+01  0.00000000000E+00 0.  1.
         11    1    3    3    0    0 -0.24731892616E+02 -0.20497584100E+02 -0.25749264250E+02  0.41168459723E+02  0.51100000000E-03 0. -1.
        -11    1    3    3    0    0 -0.49225998110E+01  0.75426709945E+01  0.21841476348E+01  0.92679218696E+01  0.51100000000E-03 0.  1.
        -12    1    3    3    0    0  0.29207081130E+02  0.11912769814E+02  0.23893353982E+02  0.39570949411E+02  0.00000000000E+00 0.  1.
</event>
<event>
 7    1  0.2405891E-015  0.9000769E+02  0.7816164E-02  0.1186339E+00
        -11   -1    0    0    0    0  0.00000000000E+00  0.00000000000E+00  0.45593999997E+02  0.45594000000E+02  0.51100000000E-03 0. -1.
         11   -1    0    0    0    0 -0.00000000000E+00 -0.00000000000E+00 -0.45593999997E+02  0.45594000000E+02  0.51100000000E-03 0.  1.
    9900012    2    1    2    0    0  0.93227301635E+00 -0.31523939712E+00 -0.65163522721E+00  0.90007687616E+02  0.89999948293E+02 0.  0.
        -12    1    1    2    0    0 -0.93227301635E+00  0.31523939712E+00  0.65163522721E+00  0.11803123840E+01  0.00000000000E+00 0.  1.
         11    1    3    3    0    0  0.25761958427E+02  0.10962779408E+02  0.23802047183E+02  0.36747768431E+02  0.51100000000E-03 0. -1.
        -11    1    3    3    0    0  0.90718435690E+01 -0.71747421706E+01 -0.55579313739E+00  0.11579472234E+02  0.51100000000E-03 0.  1.
        -12    1    3    3    0    0 -0.33901528979E+02 -0.41032766348E+01 -0.23897889273E+02  0.41680446950E+02  0.00000000000E+00 0.  1.
</event>
<event>
 7    1  0.2405891E-015  0.9000776E+02  0.7816164E-02  0.1186339E+00
        -11   -1    0    0    0    0  0.00000000000E+00  0.00000000000E+00  0.45593999997E+02  0.45594000000E+02  0.51100000000E-03 0. -1.
         11   -1    0    0    0    0 -0.00000000000E+00 -0.00000000000E+00 -0.45593999997E+02  0.45594000000E+02  0.51100000000E-03 0.  1.
    9900012    2    1    2    0    0  0.60435291371E+00 -0.99793698509E+00  0.17845716013E+00  0.90007759504E+02  0.90000021129E+02 0.  0.
        -12    1    1    2    0    0 -0.60435291371E+00  0.99793698509E+00 -0.17845716013E+00  0.11802404961E+01  0.00000000000E+00 0.  1.
         11    1    3    3    0    0  0.10429432680E+02  0.22315443150E+02 -0.32675813227E+02  0.40920176433E+02  0.51100000000E-03 0. -1.
        -11    1    3    3    0    0  0.74306832738E+01 -0.48234045672E+00  0.40204018337E+01  0.84623482200E+01  0.51100000000E-03 0.  1.
        -12    1    3    3    0    0 -0.17255763040E+02 -0.22831039679E+02  0.28833868554E+02  0.40625234851E+02  0.00000000000E+00 0.  1.
</event>
<event>
 7    1  0.2405891E-015  0.9000770E+02  0.7816164E-02  0.1186339E+00
        -11   -1    0    0    0    0  0.00000000000E+00  0.00000000000E+00  0.45593999997E+02  0.45594000000E+02  0.51100000000E-03 0.  1.
         11   -1    0    0    0    0 -0.00000000000E+00 -0.00000000000E+00 -0.45593999997E+02  0.45594000000E+02  0.51100000000E-03 0. -1.
    9900012    2    1    2    0    0  0.67528177132E+00  0.18227110288E+00 -0.95072236990E+00  0.90007702897E+02  0.89999963776E+02 0.  0.
        -12    1    1    2    0    0 -0.67528177132E+00 -0.18227110288E+00  0.95072236990E+00  0.11802971025E+01  0.00000000000E+00 0.  1.
         11    1    3    3    0    0  0.86265968381E+01  0.16103001484E+02 -0.34585431343E+02  0.39113640731E+02  0.51100000000E-03 0. -1.
        -11    1    3    3    0    0 -0.46198109417E+01 -0.36882894095E+01 -0.65108786541E+01  0.87941840449E+01  0.51100000000E-03 0.  1.
        -12    1    3    3    0    0 -0.33315041251E+01 -0.12232440971E+02  0.40145587628E+02  0.42099878121E+02  0.00000000000E+00 0.  1.
</event>
<event>
 7    1  0.2405891E-015  0.9000777E+02  0.7816164E-02  0.1186339E+00
        -11   -1    0    0    0    0  0.00000000000E+00  0.00000000000E+00  0.45593999997E+02  0.45594000000E+02  0.51100000000E-03 0. -1.
         11   -1    0    0    0    0 -0.00000000000E+00 -0.00000000000E+00 -0.45593999997E+02  0.45594000000E+02  0.51100000000E-03 0.  1.
    9900012    2    1    2    0    0 -0.50377188945E+00 -0.88860917862E+00  0.59121113530E+00  0.90007769940E+02  0.90000031703E+02 0.  0.
        -12    1    1    2    0    0  0.50377188945E+00  0.88860917862E+00 -0.59121113530E+00  0.11802300604E+01  0.00000000000E+00 0.  1.
         11    1    3    3    0    0  0.28618198007E+02  0.48234627217E+01  0.29385117839E+02  0.41300753025E+02  0.51100000000E-03 0. -1.
        -11    1    3    3    0    0  0.45272645442E+00 -0.90218551555E+01 -0.36320452016E+01  0.97360456191E+01  0.51100000000E-03 0.  1.
        -12    1    3    3    0    0 -0.29574696351E+02  0.33097832552E+01 -0.25161861502E+02  0.38970971295E+02  0.00000000000E+00 0.  1.
</event>
<event>
 7    1  0.2405891E-015  0.9000753E+02  0.7816164E-02  0.1186339E+00
        -11   -1    0    0    0    0  0.00000000000E+00  0.00000000000E+00  0.45593999997E+02  0.45594000000E+02  0.51100000000E-03 0.  1.
         11   -1    0    0    0    0 -0.00000000000E+00 -0.00000000000E+00 -0.45593999997E+02  0.45594000000E+02  0.51100000000E-03 0. -1.
    9900012    2    1    2    0    0 -0.55191200320E+00  0.65127683806E+00 -0.81531410470E+00  0.90007531674E+02  0.89999790292E+02 0.  0.
        -12    1    1    2    0    0  0.55191200320E+00 -0.65127683806E+00  0.81531410470E+00  0.11804683259E+01  0.00000000000E+00 0.  1.
         11    1    3    3    0    0 -0.38941335814E+02  0.45647500465E+01 -0.17681996111E+02  0.43010668033E+02  0.51100000000E-03 0. -1.
        -11    1    3    3    0    0  0.21078546441E+01 -0.49247811580E+01  0.80100522075E+01  0.96362574313E+01  0.51100000000E-03 0.  1.
        -12    1    3    3    0    0  0.36281569167E+02  0.10113079495E+01  0.88566297986E+01  0.37360606210E+02  0.00000000000E+00 0.  1.
</event>
<event>
 7    1  0.2405891E-015  0.9000768E+02  0.7816164E-02  0.1186339E+00
        -11   -1    0    0    0    0  0.00000000000E+00  0.00000000000E+00  0.45593999997E+02  0.45594000000E+02  0.51100000000E-03 0.  1.
         11   -1    0    0    0    0 -0.00000000000E+00 -0.00000000000E+00 -0.45593999997E+02  0.45594000000E+02  0.51100000000E-03 0. -1.
    9900012    2    1    2    0    0 -0.85522502629E+00  0.80555173213E+00  0.11329906529E+00  0.90007677960E+02  0.89999938510E+02 0.  0.
        -12    1    1    2    0    0  0.85522502629E+00 -0.80555173213E+00 -0.11329906529E+00  0.11803220395E+01  0.00000000000E+00 0.  1.
         11    1    3    3    0    0 -0.44197539994E+01 -0.61138154068E+01  0.13269956884E+01  0.76598878622E+01  0.51100000000E-03 0. -1.
        -11    1    3    3    0    0 -0.15063222355E+02 -0.25320502447E+02 -0.24596674681E+02  0.38380006742E+02  0.51100000000E-03 0.  1.
         12    1    3    3    0    0  0.18627751328E+02  0.32239869586E+02  0.23382978058E+02  0.43967783357E+02  0.00000000000E+00 0. -1.
</event>
<event>
 7    1  0.2405891E-015  0.9000743E+02  0.7816164E-02  0.1186340E+00
        -11   -1    0    0    0    0  0.00000000000E+00  0.00000000000E+00  0.45593999997E+02  0.45594000000E+02  0.51100000000E-03 0.  1.
         11   -1    0    0    0    0 -0.00000000000E+00 -0.00000000000E+00 -0.45593999997E+02  0.45594000000E+02  0.51100000000E-03 0. -1.
    9900012    2    1    2    0    0  0.69912417500E+00  0.83140101653E+00 -0.46231656530E+00  0.90007432819E+02  0.89999690132E+02 0.  0.
        -12    1    1    2    0    0 -0.69912417500E+00 -0.83140101653E+00  0.46231656530E+00  0.11805671810E+01  0.00000000000E+00 0.  1.
         11    1    3    3    0    0  0.47093467308E-01 -0.62915978278E+01 -0.61000403448E+01  0.87633848193E+01  0.51100000000E-03 0. -1.
        -11    1    3    3    0    0  0.31560463441E+02 -0.20946934184E+02  0.10239861816E+02  0.39238905115E+02  0.51100000000E-03 0.  1.
         12    1    3    3    0    0 -0.30908432733E+02  0.28069933029E+02 -0.46021380362E+01  0.42005142885E+02  0.00000000000E+00 0. -1.
</event>
<event>
 7    1  0.2405891E-015  0.9000776E+02  0.7816164E-02  0.1186339E+00
        -11   -1    0    0    0    0  0.00000000000E+00  0.00000000000E+00  0.45593999997E+02  0.45594000000E+02  0.51100000000E-03 0.  1.
         11   -1    0    0    0    0 -0.00000000000E+00 -0.00000000000E+00 -0.45593999997E+02  0.45594000000E+02  0.51100000000E-03 0. -1.
    9900012    2    1    2    0    0 -0.92843125616E+00  0.26904799586E+00 -0.67719202706E+00  0.90007762540E+02  0.90000024205E+02 0.  0.
        -12    1    1    2    0    0  0.92843125616E+00 -0.26904799586E+00  0.67719202706E+00  0.11802374604E+01  0.00000000000E+00 0.  1.
         11    1    3    3    0    0  0.77352442439E+01  0.56712331770E+01  0.35753510971E+01  0.10236211457E+02  0.51100000000E-03 0. -1.
        -11    1    3    3    0    0  0.29648894595E+01 -0.20499696621E+02  0.32403420666E+02  0.38457896487E+02  0.51100000000E-03 0.  1.
         12    1    3    3    0    0 -0.11628564960E+02  0.15097511440E+02 -0.36655963790E+02  0.41313654596E+02  0.00000000000E+00 0. -1.
</event>
<event>
 7    1  0.2405891E-015  0.9000773E+02  0.7816164E-02  0.1186339E+00
        -11   -1    0    0    0    0  0.00000000000E+00  0.00000000000E+00  0.45593999997E+02  0.45594000000E+02  0.51100000000E-03 0. -1.
         11   -1    0    0    0    0 -0.00000000000E+00 -0.00000000000E+00 -0.45593999997E+02  0.45594000000E+02  0.51100000000E-03 0.  1.
    9900012    2    1    2    0    0  0.77975705934E+00  0.87910205020E+00  0.11044606519E+00  0.90007728921E+02  0.89999990143E+02 0.  0.
        -12    1    1    2    0    0 -0.77975705934E+00 -0.87910205020E+00 -0.11044606519E+00  0.11802710789E+01  0.00000000000E+00 0.  1.
         11    1    3    3    0    0 -0.25702884238E+01 -0.71066458367E+01  0.64751629042E+01  0.99518105150E+01  0.51100000000E-03 0. -1.
        -11    1    3    3    0    0 -0.12608609143E+02  0.17834798326E+02 -0.37681224642E+02  0.43553779935E+02  0.51100000000E-03 0.  1.
         12    1    3    3    0    0  0.15958654626E+02 -0.98490504394E+01  0.31316507803E+02  0.36502138471E+02  0.00000000000E+00 0. -1.
</event>
<event>
 7    1  0.2405891E-015  0.9000774E+02  0.7816164E-02  0.1186339E+00
        -11   -1    0    0    0    0  0.00000000000E+00  0.00000000000E+00  0.45593999997E+02  0.45594000000E+02  0.51100000000E-03 0.  1.
         11   -1    0    0    0    0 -0.00000000000E+00 -0.00000000000E+00 -0.45593999997E+02  0.45594000000E+02  0.51100000000E-03 0. -1.
    9900012    2    1    2    0    0 -0.43533485072E+00  0.29692749327E+00 -0.10560928585E+01  0.90007739650E+02  0.90000001013E+02 0.  0.
        -12    1    1    2    0    0  0.43533485072E+00 -0.29692749327E+00  0.10560928585E+01  0.11802603502E+01  0.00000000000E+00 0.  1.
         11    1    3    3    0    0 -0.32860563055E+02 -0.29269920853E+01 -0.14927993464E+02  0.36210894439E+02  0.51100000000E-03 0. -1.
        -11    1    3    3    0    0 -0.76115901022E+00  0.91630888518E+01 -0.91507478302E+01  0.12972191274E+02  0.51100000000E-03 0.  1.
        -12    1    3    3    0    0  0.33186387214E+02 -0.59391692732E+01  0.23022648436E+02  0.40824653936E+02  0.00000000000E+00 0.  1.
</event>
<event>
 7    1  0.3672949E-015  0.9000773E+02  0.7816164E-02  0.1186339E+00
        -11   -1    0    0    0    0  0.00000000000E+00  0.00000000000E+00  0.45593999997E+02  0.45594000000E+02  0.51100000000E-03 0. -1.
         11   -1    0    0    0    0 -0.00000000000E+00 -0.00000000000E+00 -0.45593999997E+02  0.45594000000E+02  0.51100000000E-03 0.  1.
    9900012    2    1    2    0    0 -0.87297646555E+00 -0.32979622252E+00  0.72261475454E+00  0.90007734970E+02  0.89999996272E+02 0.  0.
        -12    1    1    2    0    0  0.87297646555E+00  0.32979622252E+00 -0.72261475454E+00  0.11802650301E+01  0.00000000000E+00 0.  1.
         11    1    3    3    0    0 -0.75399367258E+01 -0.42917269490E+00 -0.63220699190E+01  0.98490305794E+01  0.51100000000E-03 0. -1.
        -11    1    3    3    0    0 -0.12988624219E+02 -0.15415558118E+02 -0.29577736479E+02  0.35793662661E+02  0.51100000000E-03 0.  1.
         12    1    3    3    0    0  0.19655584479E+02  0.15514934591E+02  0.36622421152E+02  0.44365041729E+02  0.00000000000E+00 0. -1.
</event>
<event>
 7    1  0.2405891E-015  0.9000767E+02  0.7816164E-02  0.1186339E+00
        -11   -1    0    0    0    0  0.00000000000E+00  0.00000000000E+00  0.45593999997E+02  0.45594000000E+02  0.51100000000E-03 0. -1.
         11   -1    0    0    0    0 -0.00000000000E+00 -0.00000000000E+00 -0.45593999997E+02  0.45594000000E+02  0.51100000000E-03 0.  1.
    9900012    2    1    2    0    0 -0.10234393373E+00  0.11264229054E+01 -0.33746116806E+00  0.90007668317E+02  0.89999928739E+02 0.  0.
        -12    1    1    2    0    0  0.10234393373E+00 -0.11264229054E+01  0.33746116806E+00  0.11803316832E+01  0.00000000000E+00 0.  1.
         11    1    3    3    0    0 -0.26958759091E+02 -0.39720359575E+01  0.31901721378E+02  0.41955590670E+02  0.51100000000E-03 0. -1.
        -11    1    3    3    0    0 -0.23492660792E+01 -0.36700192139E+01 -0.79550205931E+01  0.90703056750E+01  0.51100000000E-03 0.  1.
        -12    1    3    3    0    0  0.29205681236E+02  0.87684780768E+01 -0.24284161953E+02  0.38981771971E+02  0.00000000000E+00 0.  1.
</event>
<event>
 7    1  0.2405891E-015  0.9000764E+02  0.7816164E-02  0.1186339E+00
        -11   -1    0    0    0    0  0.00000000000E+00  0.00000000000E+00  0.45593999997E+02  0.45594000000E+02  0.51100000000E-03 0.  1.
         11   -1    0    0    0    0 -0.00000000000E+00 -0.00000000000E+00 -0.45593999997E+02  0.45594000000E+02  0.51100000000E-03 0. -1.
    9900012    2    1    2    0    0  0.89806908977E+00  0.61882012555E+00  0.45142281980E+00  0.90007640309E+02  0.89999900361E+02 0.  0.
        -12    1    1    2    0    0 -0.89806908977E+00 -0.61882012555E+00 -0.45142281980E+00  0.11803596909E+01  0.00000000000E+00 0.  1.
         11    1    3    3    0    0  0.68275562111E+01 -0.72857034285E+01  0.28517962941E+01  0.10384110007E+02  0.51100000000E-03 0. -1.
        -11    1    3    3    0    0 -0.24726788936E+02 -0.14369300699E+01  0.31303771266E+02  0.39917476810E+02  0.51100000000E-03 0.  1.
         12    1    3    3    0    0  0.18797301815E+02  0.93414536239E+01 -0.33704144740E+02  0.39706053493E+02  0.00000000000E+00 0. -1.
</event>
<event>
 7    1  0.2405891E-015  0.9000753E+02  0.7816164E-02  0.1186339E+00
        -11   -1    0    0    0    0  0.00000000000E+00  0.00000000000E+00  0.45593999997E+02  0.45594000000E+02  0.51100000000E-03 0.  1.
         11   -1    0    0    0    0 -0.00000000000E+00 -0.00000000000E+00 -0.45593999997E+02  0.45594000000E+02  0.51100000000E-03 0. -1.
    9900012    2    1    2    0    0 -0.79265871931E+00 -0.83057548148E+00 -0.27447568336E+00  0.90007533831E+02  0.89999792477E+02 0.  0.
        -12    1    1    2    0    0  0.79265871931E+00  0.83057548148E+00  0.27447568336E+00  0.11804661691E+01  0.00000000000E+00 0.  1.
         11    1    3    3    0    0 -0.79082088041E+01  0.11824141314E+02  0.13536511476E+02  0.19636375111E+02  0.51100000000E-03 0. -1.
        -11    1    3    3    0    0  0.33739976918E+02  0.80400639885E+01 -0.11616953033E+02  0.36578439953E+02  0.51100000000E-03 0.  1.
         12    1    3    3    0    0 -0.26624426833E+02 -0.20694780784E+02 -0.21940341262E+01  0.33792718767E+02  0.00000000000E+00 0. -1.
</event>
<event>
 7    1  0.2405891E-015  0.9000768E+02  0.7816164E-02  0.1186339E+00
        -11   -1    0    0    0    0  0.00000000000E+00  0.00000000000E+00  0.45593999997E+02  0.45594000000E+02  0.51100000000E-03 0. -1.
         11   -1    0    0    0    0 -0.00000000000E+00 -0.00000000000E+00 -0.45593999997E+02  0.45594000000E+02  0.51100000000E-03 0.  1.
    9900012    2    1    2    0    0 -0.54850511039E+00  0.61959709749E+00  0.84166663665E+00  0.90007677524E+02  0.89999938068E+02 0.  0.
        -12    1    1    2    0    0  0.54850511039E+00 -0.61959709749E+00 -0.84166663665E+00  0.11803224757E+01  0.00000000000E+00 0.  1.
         11    1    3    3    0    0 -0.22406105979E+01 -0.19708776408E+01  0.17304764592E+02  0.17560170056E+02  0.51100000000E-03 0. -1.
        -11    1    3    3    0    0 -0.31034134960E+02  0.11239678849E+02  0.34306422291E+01  0.33184593108E+02  0.51100000000E-03 0.  1.
        -12    1    3    3    0    0  0.32726240448E+02 -0.86492041103E+01 -0.19893740185E+02  0.39262914361E+02  0.00000000000E+00 0.  1.
</event>
<event>
 7    1  0.2405891E-015  0.9000775E+02  0.7816164E-02  0.1186339E+00
        -11   -1    0    0    0    0  0.00000000000E+00  0.00000000000E+00  0.45593999997E+02  0.45594000000E+02  0.51100000000E-03 0.  1.
         11   -1    0    0    0    0 -0.00000000000E+00 -0.00000000000E+00 -0.45593999997E+02  0.45594000000E+02  0.51100000000E-03 0. -1.
    9900012    2    1    2    0    0  0.21507309569E-02 -0.61813727129E+00  0.10054366462E+01  0.90007745298E+02  0.90000006736E+02 0.  0.
        -12    1    1    2    0    0 -0.21507309569E-02  0.61813727129E+00 -0.10054366462E+01  0.11802547019E+01  0.00000000000E+00 0.  1.
         11    1    3    3    0    0  0.28315814402E+02 -0.12311423168E+01 -0.10067315530E+02  0.30077431720E+02  0.51100000000E-03 0. -1.
        -11    1    3    3    0    0 -0.18068587829E+02 -0.24918294965E+02  0.15506725012E+01  0.30818823397E+02  0.51100000000E-03 0.  1.
        -12    1    3    3    0    0 -0.10245075842E+02  0.25531300011E+02  0.95220796751E+01  0.29111490181E+02  0.00000000000E+00 0.  1.
</event>
<event>
 7    1  0.2405891E-015  0.9000757E+02  0.7816164E-02  0.1186339E+00
        -11   -1    0    0    0    0  0.00000000000E+00  0.00000000000E+00  0.45593999997E+02  0.45594000000E+02  0.51100000000E-03 0. -1.
         11   -1    0    0    0    0 -0.00000000000E+00 -0.00000000000E+00 -0.45593999997E+02  0.45594000000E+02  0.51100000000E-03 0.  1.
    9900012    2    1    2    0    0 -0.42749011142E+00 -0.11002840972E+01 -0.68969906021E-02  0.90007567682E+02  0.89999826775E+02 0.  0.
        -12    1    1    2    0    0  0.42749011142E+00  0.11002840972E+01  0.68969906021E-02  0.11804323184E+01  0.00000000000E+00 0.  1.
         11    1    3    3    0    0 -0.35015611139E+01  0.80649323671E+01  0.77392081041E+01  0.11713215044E+02  0.51100000000E-03 0. -1.
        -11    1    3    3    0    0  0.15649842413E+02 -0.23137456412E+01 -0.39994175276E+02  0.43009359943E+02  0.51100000000E-03 0.  1.
         12    1    3    3    0    0 -0.12575771410E+02 -0.68514708232E+01  0.32248070182E+02  0.35284992694E+02  0.00000000000E+00 0. -1.
</event>
<event>
 7    1  0.2405891E-015  0.9000770E+02  0.7816164E-02  0.1186339E+00
        -11   -1    0    0    0    0  0.00000000000E+00  0.00000000000E+00  0.45593999997E+02  0.45594000000E+02  0.51100000000E-03 0.  1.
         11   -1    0    0    0    0 -0.00000000000E+00 -0.00000000000E+00 -0.45593999997E+02  0.45594000000E+02  0.51100000000E-03 0. -1.
    9900012    2    1    2    0    0  0.63627826886E+00  0.97305372540E+00 -0.20350313307E+00  0.90007704650E+02  0.89999965551E+02 0.  0.
        -12    1    1    2    0    0 -0.63627826886E+00 -0.97305372540E+00  0.20350313307E+00  0.11802953499E+01  0.00000000000E+00 0.  1.
         11    1    3    3    0    0  0.82411384604E+00 -0.26818736357E+02 -0.23473873879E+02  0.35650337145E+02  0.51100000000E-03 0. -1.
        -11    1    3    3    0    0  0.89385691390E+01  0.29609823822E+01 -0.87280624647E+01  0.12839178695E+02  0.51100000000E-03 0.  1.
        -12    1    3    3    0    0 -0.91264047162E+01  0.24830807700E+02  0.31998433211E+02  0.41518188810E+02  0.00000000000E+00 0.  1.
</event>
<event>
 7    1  0.2405891E-015  0.9000730E+02  0.7816164E-02  0.1186340E+00
        -11   -1    0    0    0    0  0.00000000000E+00  0.00000000000E+00  0.45593999997E+02  0.45594000000E+02  0.51100000000E-03 0. -1.
         11   -1    0    0    0    0 -0.00000000000E+00 -0.00000000000E+00 -0.45593999997E+02  0.45594000000E+02  0.51100000000E-03 0.  1.
    9900012    2    1    2    0    0  0.11707194676E+01 -0.12083119398E+00 -0.94130234381E-01  0.90007303278E+02  0.89999558880E+02 0.  0.
        -12    1    1    2    0    0 -0.11707194676E+01  0.12083119398E+00  0.94130234381E-01  0.11806967224E+01  0.00000000000E+00 0.  1.
         11    1    3    3    0    0  0.83020420368E+01 -0.30816386949E+02 -0.94131741436E+01  0.33274336271E+02  0.51100000000E-03 0. -1.
        -11    1    3    3    0    0 -0.16265962830E+01 -0.10839895832E+02  0.99874941501E+01  0.14828998509E+02  0.51100000000E-03 0.  1.
        -12    1    3    3    0    0 -0.55047262862E+01  0.41535451588E+02 -0.66845024090E+00  0.41903968497E+02  0.00000000000E+00 0.  1.
</event>
<event>
 7    1  0.2405891E-015  0.9000763E+02  0.7816164E-02  0.1186339E+00
        -11   -1    0    0    0    0  0.00000000000E+00  0.00000000000E+00  0.45593999997E+02  0.45594000000E+02  0.51100000000E-03 0.  1.
         11   -1    0    0    0    0 -0.00000000000E+00 -0.00000000000E+00 -0.45593999997E+02  0.45594000000E+02  0.51100000000E-03 0. -1.
    9900012    2    1    2    0    0 -0.59600688078E+00  0.76983506670E-01 -0.10159362848E+01  0.90007628365E+02  0.89999888259E+02 0.  0.
        -12    1    1    2    0    0  0.59600688078E+00 -0.76983506670E-01  0.10159362848E+01  0.11803716351E+01  0.00000000000E+00 0.  1.
         11    1    3    3    0    0  0.72153867332E+01  0.53798140048E+01  0.33287760201E+01  0.95960905836E+01  0.51100000000E-03 0. -1.
        -11    1    3    3    0    0  0.24922320136E+02  0.17009771458E+02  0.17794433752E+02  0.35029933468E+02  0.51100000000E-03 0.  1.
         12    1    3    3    0    0 -0.32733713750E+02 -0.22312601956E+02 -0.22139146057E+02  0.45381604313E+02  0.00000000000E+00 0. -1.
</event>
<event>
 7    1  0.2405891E-015  0.9000766E+02  0.7816164E-02  0.1186339E+00
        -11   -1    0    0    0    0  0.00000000000E+00  0.00000000000E+00  0.45593999997E+02  0.45594000000E+02  0.51100000000E-03 0. -1.
         11   -1    0    0    0    0 -0.00000000000E+00 -0.00000000000E+00 -0.45593999997E+02  0.45594000000E+02  0.51100000000E-03 0.  1.
    9900012    2    1    2    0    0 -0.98882620785E-01 -0.65945043238E+00  0.97393368821E+00  0.90007661288E+02  0.89999921617E+02 0.  0.
        -12    1    1    2    0    0  0.98882620785E-01  0.65945043238E+00 -0.97393368821E+00  0.11803387118E+01  0.00000000000E+00 0.  1.
         11    1    3    3    0    0  0.36882205795E+00 -0.30092899065E+01  0.82793821280E+01  0.88170303467E+01  0.51100000000E-03 0. -1.
        -11    1    3    3    0    0 -0.24587537182E+02  0.21219745863E+02  0.21659918556E+02  0.39038143799E+02  0.51100000000E-03 0.  1.
         12    1    3    3    0    0  0.24119832503E+02 -0.18869906389E+02 -0.28965366995E+02  0.42152487142E+02  0.00000000000E+00 0. -1.
</event>
<event>
 7    1  0.2405891E-015  0.9000771E+02  0.7816164E-02  0.1186339E+00
        -11   -1    0    0    0    0  0.00000000000E+00  0.00000000000E+00  0.45593999997E+02  0.45594000000E+02  0.51100000000E-03 0.  1.
         11   -1    0    0    0    0 -0.00000000000E+00 -0.00000000000E+00 -0.45593999997E+02  0.45594000000E+02  0.51100000000E-03 0. -1.
    9900012    2    1    2    0    0  0.40033311582E+00 -0.11102669258E+01 -0.10773888357E-01  0.90007713879E+02  0.89999974903E+02 0.  0.
        -12    1    1    2    0    0 -0.40033311582E+00  0.11102669258E+01  0.10773888357E-01  0.11802861207E+01  0.00000000000E+00 0.  1.
         11    1    3    3    0    0  0.26214723048E+01  0.26798634969E+01 -0.86300750122E+01  0.94091434458E+01  0.51100000000E-03 0. -1.
        -11    1    3    3    0    0  0.37935985331E+02 -0.89655391306E-01  0.12842144089E+02  0.40050813802E+02  0.51100000000E-03 0.  1.
         12    1    3    3    0    0 -0.40157124520E+02 -0.37004750314E+01 -0.42228429654E+01  0.40547756632E+02  0.00000000000E+00 0. -1.
</event>
<event>
 7    1  0.2405891E-015  0.9000772E+02  0.7816164E-02  0.1186339E+00
        -11   -1    0    0    0    0  0.00000000000E+00  0.00000000000E+00  0.45593999997E+02  0.45594000000E+02  0.51100000000E-03 0. -1.
         11   -1    0    0    0    0 -0.00000000000E+00 -0.00000000000E+00 -0.45593999997E+02  0.45594000000E+02  0.51100000000E-03 0.  1.
    9900012    2    1    2    0    0 -0.11394100239E+01 -0.30789641645E+00 -0.16009267850E-02  0.90007721233E+02  0.89999982353E+02 0.  0.
        -12    1    1    2    0    0  0.11394100239E+01  0.30789641645E+00  0.16009267850E-02  0.11802787674E+01  0.00000000000E+00 0.  1.
         11    1    3    3    0    0  0.33534535258E+01 -0.27980419104E+01  0.85101887293E+01  0.95654587737E+01  0.51100000000E-03 0. -1.
        -11    1    3    3    0    0  0.21703756164E+02  0.27405204759E+02  0.14216482803E+02  0.37738662709E+02  0.51100000000E-03 0.  1.
         12    1    3    3    0    0 -0.26196619714E+02 -0.24915059265E+02 -0.22728272459E+02  0.42703599750E+02  0.00000000000E+00 0. -1.
</event>
<event>
 7    1  0.2405891E-015  0.9000770E+02  0.7816164E-02  0.1186339E+00
        -11   -1    0    0    0    0  0.00000000000E+00  0.00000000000E+00  0.45593999997E+02  0.45594000000E+02  0.51100000000E-03 0.  1.
         11   -1    0    0    0    0 -0.00000000000E+00 -0.00000000000E+00 -0.45593999997E+02  0.45594000000E+02  0.51100000000E-03 0. -1.
    9900012    2    1    2    0    0 -0.62723596656E+00  0.25835820930E+00 -0.96588320411E+00  0.90007701611E+02  0.89999962473E+02 0.  0.
        -12    1    1    2    0    0  0.62723596656E+00 -0.25835820930E+00  0.96588320411E+00  0.11802983886E+01  0.00000000000E+00 0.  1.
         11    1    3    3    0    0  0.12754500681E+02  0.19189117404E+02 -0.32385731564E+02  0.39745881844E+02  0.51100000000E-03 0. -1.
        -11    1    3    3    0    0 -0.36663189572E+01 -0.86158060969E+01 -0.54003350090E+01  0.10809145566E+02  0.51100000000E-03 0.  1.
        -12    1    3    3    0    0 -0.97154176907E+01 -0.10314953098E+02  0.36820183369E+02  0.39452674201E+02  0.00000000000E+00 0.  1.
</event>
<event>
 7    1  0.2405891E-015  0.9000776E+02  0.7816164E-02  0.1186339E+00
        -11   -1    0    0    0    0  0.00000000000E+00  0.00000000000E+00  0.45593999997E+02  0.45594000000E+02  0.51100000000E-03 0.  1.
         11   -1    0    0    0    0 -0.00000000000E+00 -0.00000000000E+00 -0.45593999997E+02  0.45594000000E+02  0.51100000000E-03 0. -1.
    9900012    2    1    2    0    0 -0.12690664943E+00 -0.11733117727E+01 -0.14573896484E-01  0.90007755020E+02  0.90000016587E+02 0.  0.
        -12    1    1    2    0    0  0.12690664943E+00  0.11733117727E+01  0.14573896484E-01  0.11802449797E+01  0.00000000000E+00 0.  1.
         11    1    3    3    0    0 -0.11467789478E+02 -0.23730249070E+02 -0.25028555006E+02  0.36346436997E+02  0.51100000000E-03 0. -1.
        -11    1    3    3    0    0 -0.25399993883E+01  0.77347587630E+00 -0.98893908278E+01  0.10239624653E+02  0.51100000000E-03 0.  1.
        -12    1    3    3    0    0  0.13880882217E+02  0.21783461420E+02  0.34903371937E+02  0.43421693371E+02  0.00000000000E+00 0.  1.
</event>
<event>
 7    1  0.2405891E-015  0.9000732E+02  0.7816164E-02  0.1186340E+00
        -11   -1    0    0    0    0  0.00000000000E+00  0.00000000000E+00  0.45593999997E+02  0.45594000000E+02  0.51100000000E-03 0. -1.
         11   -1    0    0    0    0 -0.00000000000E+00 -0.00000000000E+00 -0.45593999997E+02  0.45594000000E+02  0.51100000000E-03 0.  1.
    9900012    2    1    2    0    0  0.62231698921E+00  0.99268200938E+00  0.14600659321E+00  0.90007316329E+02  0.89999572103E+02 0.  0.
        -12    1    1    2    0    0 -0.62231698921E+00 -0.99268200938E+00 -0.14600659321E+00  0.11806836715E+01  0.00000000000E+00 0.  1.
         11    1    3    3    0    0  0.31818847270E+01 -0.74923306040E+01  0.47639656945E+01  0.94315840501E+01  0.51100000000E-03 0. -1.
        -11    1    3    3    0    0  0.38292040234E+02 -0.11019748444E+01  0.44085262434E+00  0.38310429979E+02  0.51100000000E-03 0.  1.
         12    1    3    3    0    0 -0.40851607972E+02  0.95869874578E+01 -0.50588117257E+01  0.42265302300E+02  0.00000000000E+00 0. -1.
</event>
<event>
 7    1  0.2405891E-015  0.9000780E+02  0.7816164E-02  0.1186339E+00
        -11   -1    0    0    0    0  0.00000000000E+00  0.00000000000E+00  0.45593999997E+02  0.45594000000E+02  0.51100000000E-03 0.  1.
         11   -1    0    0    0    0 -0.00000000000E+00 -0.00000000000E+00 -0.45593999997E+02  0.45594000000E+02  0.51100000000E-03 0. -1.
    9900012    2    1    2    0    0  0.59526070745E+00  0.69190226456E+00 -0.74820920757E+00  0.90007796174E+02  0.90000058283E+02 0.  0.
        -12    1    1    2    0    0 -0.59526070745E+00 -0.69190226456E+00  0.74820920757E+00  0.11802038264E+01  0.00000000000E+00 0.  1.
         11    1    3    3    0    0 -0.18717808637E+01  0.48580422473E+00  0.74852804225E+01  0.77310408491E+01  0.51100000000E-03 0. -1.
        -11    1    3    3    0    0 -0.37056748191E+02  0.14110904239E+02 -0.75962004642E+01  0.40373536712E+02  0.51100000000E-03 0.  1.
         12    1    3    3    0    0  0.39523789762E+02 -0.13904806199E+02 -0.63728916590E+00  0.41903218612E+02  0.00000000000E+00 0. -1.
</event>
<event>
 7    1  0.2405891E-015  0.9000778E+02  0.7816164E-02  0.1186339E+00
        -11   -1    0    0    0    0  0.00000000000E+00  0.00000000000E+00  0.45593999997E+02  0.45594000000E+02  0.51100000000E-03 0.  1.
         11   -1    0    0    0    0 -0.00000000000E+00 -0.00000000000E+00 -0.45593999997E+02  0.45594000000E+02  0.51100000000E-03 0. -1.
    9900012    2    1    2    0    0 -0.74987987518E+00  0.85375684097E+00 -0.31889069358E+00  0.90007783136E+02  0.90000045074E+02 0.  0.
        -12    1    1    2    0    0  0.74987987518E+00 -0.85375684097E+00  0.31889069358E+00  0.11802168636E+01  0.00000000000E+00 0.  1.
         11    1    3    3    0    0 -0.27117766176E+02 -0.17026996810E+02 -0.72916719860E+01  0.32839919966E+02  0.51100000000E-03 0. -1.
        -11    1    3    3    0    0 -0.34159365407E+00 -0.12921251716E+02  0.99174551593E+01  0.16292063995E+02  0.51100000000E-03 0.  1.
        -12    1    3    3    0    0  0.26709479955E+02  0.30802005367E+02 -0.29446738668E+01  0.40875799176E+02  0.00000000000E+00 0.  1.
</event>
<event>
 7    1  0.2405891E-015  0.9000770E+02  0.7816164E-02  0.1186339E+00
        -11   -1    0    0    0    0  0.00000000000E+00  0.00000000000E+00  0.45593999997E+02  0.45594000000E+02  0.51100000000E-03 0. -1.
         11   -1    0    0    0    0 -0.00000000000E+00 -0.00000000000E+00 -0.45593999997E+02  0.45594000000E+02  0.51100000000E-03 0.  1.
    9900012    2    1    2    0    0  0.11436838359E+01 -0.24769234377E+00  0.15411168668E+00  0.90007697231E+02  0.89999958035E+02 0.  0.
        -12    1    1    2    0    0 -0.11436838359E+01  0.24769234377E+00 -0.15411168668E+00  0.11803027686E+01  0.00000000000E+00 0.  1.
         11    1    3    3    0    0  0.22468684861E+02 -0.28556851844E+02  0.38914019852E+01  0.36544200584E+02  0.51100000000E-03 0. -1.
        -11    1    3    3    0    0  0.10966546230E+02  0.49549770350E+01  0.43562348027E+01  0.12798191886E+02  0.51100000000E-03 0.  1.
        -12    1    3    3    0    0 -0.32291547256E+02  0.23354182465E+02 -0.80935251013E+01  0.40665304761E+02  0.00000000000E+00 0.  1.
</event>
<event>
 7    1  0.2405891E-015  0.9000775E+02  0.7816164E-02  0.1186339E+00
        -11   -1    0    0    0    0  0.00000000000E+00  0.00000000000E+00  0.45593999997E+02  0.45594000000E+02  0.51100000000E-03 0.  1.
         11   -1    0    0    0    0 -0.00000000000E+00 -0.00000000000E+00 -0.45593999997E+02  0.45594000000E+02  0.51100000000E-03 0. -1.
    9900012    2    1    2    0    0  0.34091986480E-01  0.10181935101E+01 -0.59590532239E+00  0.90007752805E+02  0.90000014342E+02 0.  0.
        -12    1    1    2    0    0 -0.34091986480E-01 -0.10181935101E+01  0.59590532239E+00  0.11802471948E+01  0.00000000000E+00 0.  1.
         11    1    3    3    0    0  0.54547547388E+01 -0.60091632171E+01 -0.26498067214E+01  0.85373220481E+01  0.51100000000E-03 0. -1.
        -11    1    3    3    0    0  0.32656307107E+02 -0.16097548390E+02  0.53515022580E+01  0.36799511338E+02  0.51100000000E-03 0.  1.
         12    1    3    3    0    0 -0.38076969859E+02  0.23124905117E+02 -0.32976008590E+01  0.44670919419E+02  0.00000000000E+00 0. -1.
</event>
<event>
 7    1  0.2405891E-015  0.9000772E+02  0.7816164E-02  0.1186339E+00
        -11   -1    0    0    0    0  0.00000000000E+00  0.00000000000E+00  0.45593999997E+02  0.45594000000E+02  0.51100000000E-03 0. -1.
         11   -1    0    0    0    0 -0.00000000000E+00 -0.00000000000E+00 -0.45593999997E+02  0.45594000000E+02  0.51100000000E-03 0.  1.
    9900012    2    1    2    0    0 -0.31883198035E+00 -0.11290129345E+01  0.12935333200E+00  0.90007721930E+02  0.89999983060E+02 0.  0.
        -12    1    1    2    0    0  0.31883198035E+00  0.11290129345E+01 -0.12935333200E+00  0.11802780700E+01  0.00000000000E+00 0.  1.
         11    1    3    3    0    0  0.10370350656E+01 -0.86087004170E+01 -0.89687167166E+01  0.12474896569E+02  0.51100000000E-03 0. -1.
        -11    1    3    3    0    0  0.89594988139E+01  0.99802059144E+01 -0.32205875295E+02  0.34886896292E+02  0.51100000000E-03 0.  1.
         12    1    3    3    0    0 -0.10315365860E+02 -0.25005184319E+01  0.41303945344E+02  0.42645929070E+02  0.00000000000E+00 0. -1.
</event>
<event>
 7    1  0.2405891E-015  0.9000784E+02  0.7816164E-02  0.1186339E+00
        -11   -1    0    0    0    0  0.00000000000E+00  0.00000000000E+00  0.45593999997E+02  0.45594000000E+02  0.51100000000E-03 0.  1.
         11   -1    0    0    0    0 -0.00000000000E+00 -0.00000000000E+00 -0.45593999997E+02  0.45594000000E+02  0.51100000000E-03 0. -1.
    9900012    2    1    2    0    0  0.34306423964E+00 -0.92420027777E+00 -0.64879552027E+00  0.90007841175E+02  0.90000103878E+02 0.  0.
        -12    1    1    2    0    0 -0.34306423964E+00  0.92420027777E+00  0.64879552027E+00  0.11801588254E+01  0.00000000000E+00 0.  1.
         11    1    3    3    0    0  0.26896768930E+01 -0.77385533090E+01  0.61716646116E+01  0.10257144507E+02  0.51100000000E-03 0. -1.
        -11    1    3    3    0    0  0.13005671564E+02 -0.33626030438E+02 -0.55288928029E+01  0.36475006124E+02  0.51100000000E-03 0.  1.
         12    1    3    3    0    0 -0.15352284217E+02  0.40440383470E+02 -0.12915673290E+01  0.43275690543E+02  0.00000000000E+00 0. -1.
</event>
<event>
 7    1  0.2405891E-015  0.9000783E+02  0.7816164E-02  0.1186339E+00
        -11   -1    0    0    0    0  0.00000000000E+00  0.00000000000E+00  0.45593999997E+02  0.45594000000E+02  0.51100000000E-03 0. -1.
         11   -1    0    0    0    0 -0.00000000000E+00 -0.00000000000E+00 -0.45593999997E+02  0.45594000000E+02  0.51100000000E-03 0.  1.
    9900012    2    1    2    0    0 -0.44024437415E+00 -0.75671074360E+00  0.79144465255E+00  0.90007825904E+02  0.90000088406E+02 0.  0.
        -12    1    1    2    0    0  0.44024437415E+00  0.75671074360E+00 -0.79144465255E+00  0.11801740958E+01  0.00000000000E+00 0.  1.
         11    1    3    3    0    0  0.94820535497E+01  0.44425744188E+01  0.22332041273E+00  0.10473570511E+02  0.51100000000E-03 0. -1.
        -11    1    3    3    0    0 -0.79571492167E+01  0.36052275194E+02  0.74564507829E+01  0.37665387677E+02  0.51100000000E-03 0.  1.
         12    1    3    3    0    0 -0.19651487072E+01 -0.41251560356E+02 -0.68883265431E+01  0.41868867716E+02  0.00000000000E+00 0. -1.
</event>
<event>
 7    1  0.2405891E-015  0.9000769E+02  0.7816164E-02  0.1186339E+00
        -11   -1    0    0    0    0  0.00000000000E+00  0.00000000000E+00  0.45593999997E+02  0.45594000000E+02  0.51100000000E-03 0. -1.
         11   -1    0    0    0    0 -0.00000000000E+00 -0.00000000000E+00 -0.45593999997E+02  0.45594000000E+02  0.51100000000E-03 0.  1.
    9900012    2    1    2    0    0  0.15826563602E-01 -0.84797877500E-01  0.11771491966E+01  0.90007694365E+02  0.89999955131E+02 0.  0.
        -12    1    1    2    0    0 -0.15826563602E-01  0.84797877500E-01 -0.11771491966E+01  0.11803056347E+01  0.00000000000E+00 0.  1.
         11    1    3    3    0    0 -0.30905619530E+01 -0.16272725677E+02  0.31400181968E+02  0.35501050717E+02  0.51100000000E-03 0. -1.
        -11    1    3    3    0    0  0.45737332345E+01  0.85774645364E+00  0.10220619705E+02  0.11230130547E+02  0.51100000000E-03 0.  1.
        -12    1    3    3    0    0 -0.14673447180E+01  0.15330181346E+02 -0.40443652476E+02  0.43276513102E+02  0.00000000000E+00 0.  1.
</event>
<event>
 7    1  0.2405891E-015  0.9000778E+02  0.7816164E-02  0.1186339E+00
        -11   -1    0    0    0    0  0.00000000000E+00  0.00000000000E+00  0.45593999997E+02  0.45594000000E+02  0.51100000000E-03 0. -1.
         11   -1    0    0    0    0 -0.00000000000E+00 -0.00000000000E+00 -0.45593999997E+02  0.45594000000E+02  0.51100000000E-03 0.  1.
    9900012    2    1    2    0    0  0.24971322544E-01  0.49714601963E+00  0.10701171334E+01  0.90007776118E+02  0.90000037963E+02 0.  0.
        -12    1    1    2    0    0 -0.24971322544E-01 -0.49714601963E+00 -0.10701171334E+01  0.11802238817E+01  0.00000000000E+00 0.  1.
         11    1    3    3    0    0  0.94272466141E+00 -0.10788460345E+02  0.33474851611E+02  0.35183025694E+02  0.51100000000E-03 0. -1.
        -11    1    3    3    0    0 -0.23330203989E+00 -0.66559286897E+01  0.81192812907E+01  0.10501359222E+02  0.51100000000E-03 0.  1.
        -12    1    3    3    0    0 -0.68445129897E+00  0.17941535054E+02 -0.40524015768E+02  0.44323391202E+02  0.00000000000E+00 0.  1.
</event>
<event>
 7    1  0.2405891E-015  0.9000788E+02  0.7816164E-02  0.1186339E+00
        -11   -1    0    0    0    0  0.00000000000E+00  0.00000000000E+00  0.45593999997E+02  0.45594000000E+02  0.51100000000E-03 0.  1.
         11   -1    0    0    0    0 -0.00000000000E+00 -0.00000000000E+00 -0.45593999997E+02  0.45594000000E+02  0.51100000000E-03 0. -1.
    9900012    2    1    2    0    0  0.88676083030E+00  0.53116817349E+00  0.56938977443E+00  0.90007877500E+02  0.90000140683E+02 0.  0.
        -12    1    1    2    0    0 -0.88676083030E+00 -0.53116817349E+00 -0.56938977443E+00  0.11801224995E+01  0.00000000000E+00 0.  1.
         11    1    3    3    0    0 -0.51147105895E+00 -0.13633097323E+02  0.48564528218E+01  0.14481301031E+02  0.51100000000E-03 0. -1.
        -11    1    3    3    0    0 -0.56761603145E+01 -0.33714650204E+01  0.33034757679E+02  0.33687991740E+02  0.51100000000E-03 0.  1.
         12    1    3    3    0    0  0.70743922037E+01  0.17535730517E+02 -0.37321820727E+02  0.41838584730E+02  0.00000000000E+00 0. -1.
</event>
<event>
 7    1  0.2405891E-015  0.9000733E+02  0.7816164E-02  0.1186340E+00
        -11   -1    0    0    0    0  0.00000000000E+00  0.00000000000E+00  0.45593999997E+02  0.45594000000E+02  0.51100000000E-03 0. -1.
         11   -1    0    0    0    0 -0.00000000000E+00 -0.00000000000E+00 -0.45593999997E+02  0.45594000000E+02  0.51100000000E-03 0.  1.
    9900012    2    1    2    0    0  0.50017430908E+00 -0.97720402691E-01  0.10650113914E+01  0.90007333713E+02  0.89999589717E+02 0.  0.
        -12    1    1    2    0    0 -0.50017430908E+00  0.97720402691E-01 -0.10650113914E+01  0.11806662866E+01  0.00000000000E+00 0.  1.
         11    1    3    3    0    0 -0.74124988003E+01  0.10801881980E+02  0.38780316604E+02  0.40933345196E+02  0.51100000000E-03 0. -1.
        -11    1    3    3    0    0 -0.78538708469E+01 -0.48100009587E+01 -0.18049640669E+01  0.93849502954E+01  0.51100000000E-03 0.  1.
        -12    1    3    3    0    0  0.15766543956E+02 -0.60896014236E+01 -0.35910341145E+02  0.39689038222E+02  0.00000000000E+00 0.  1.
</event>
<event>
 7    1  0.2405891E-015  0.9000781E+02  0.7816164E-02  0.1186339E+00
        -11   -1    0    0    0    0  0.00000000000E+00  0.00000000000E+00  0.45593999997E+02  0.45594000000E+02  0.51100000000E-03 0.  1.
         11   -1    0    0    0    0 -0.00000000000E+00 -0.00000000000E+00 -0.45593999997E+02  0.45594000000E+02  0.51100000000E-03 0. -1.
    9900012    2    1    2    0    0 -0.36316470318E+00  0.23569474514E+00 -0.10979117753E+01  0.90007808964E+02  0.90000071243E+02 0.  0.
        -12    1    1    2    0    0  0.36316470318E+00 -0.23569474514E+00  0.10979117753E+01  0.11801910357E+01  0.00000000000E+00 0.  1.
         11    1    3    3    0    0 -0.25736473878E+02  0.28829423602E+02  0.74319741321E+01  0.39353983186E+02  0.51100000000E-03 0. -1.
        -11    1    3    3    0    0 -0.11319005145E+01 -0.53760035659E+01  0.95744785019E+01  0.11038716047E+02  0.51100000000E-03 0.  1.
        -12    1    3    3    0    0  0.26505209689E+02 -0.23217725291E+02 -0.18104364409E+02  0.39615109731E+02  0.00000000000E+00 0.  1.
</event>
<event>
 7    1  0.2405891E-015  0.9000777E+02  0.7816164E-02  0.1186339E+00
        -11   -1    0    0    0    0  0.00000000000E+00  0.00000000000E+00  0.45593999997E+02  0.45594000000E+02  0.51100000000E-03 0. -1.
         11   -1    0    0    0    0 -0.00000000000E+00 -0.00000000000E+00 -0.45593999997E+02  0.45594000000E+02  0.51100000000E-03 0.  1.
    9900012    2    1    2    0    0 -0.56947255562E+00  0.50121508171E+00  0.90411092055E+00  0.90007774553E+02  0.90000036377E+02 0.  0.
        -12    1    1    2    0    0  0.56947255562E+00 -0.50121508171E+00 -0.90411092055E+00  0.11802254473E+01  0.00000000000E+00 0.  1.
         11    1    3    3    0    0  0.35574061572E+01  0.27056659638E+02  0.26458608576E+02  0.38010208331E+02  0.51100000000E-03 0. -1.
        -11    1    3    3    0    0 -0.78758855772E+01  0.68771766745E+01 -0.13274018780E+01  0.10539787884E+02  0.51100000000E-03 0.  1.
        -12    1    3    3    0    0  0.37490068644E+01 -0.33432621231E+02 -0.24227095778E+02  0.41457778337E+02  0.00000000000E+00 0.  1.
</event>
<event>
 7    1  0.2405891E-015  0.9000799E+02  0.7816164E-02  0.1186339E+00
        -11   -1    0    0    0    0  0.00000000000E+00  0.00000000000E+00  0.45593999997E+02  0.45594000000E+02  0.51100000000E-03 0.  1.
         11   -1    0    0    0    0 -0.00000000000E+00 -0.00000000000E+00 -0.45593999997E+02  0.45594000000E+02  0.51100000000E-03 0. -1.
    9900012    2    1    2    0    0  0.16985845438E+00 -0.98984603927E+00 -0.61949691850E+00  0.90007990039E+02  0.90000254707E+02 0.  0.
        -12    1    1    2    0    0 -0.16985845438E+00  0.98984603927E+00  0.61949691850E+00  0.11800099610E+01  0.00000000000E+00 0.  1.
         11    1    3    3    0    0 -0.20279030787E+01  0.16354280390E+01  0.99769280034E+01  0.10311455204E+02  0.51100000000E-03 0. -1.
        -11    1    3    3    0    0 -0.33159052210E+02 -0.41561782977E+01  0.14379540171E+02  0.36380870485E+02  0.51100000000E-03 0.  1.
         12    1    3    3    0    0  0.35356813743E+02  0.15309042195E+01 -0.24975965092E+02  0.43315664350E+02  0.00000000000E+00 0. -1.
</event>
<event>
 7    1  0.2405891E-015  0.9000729E+02  0.7816164E-02  0.1186340E+00
        -11   -1    0    0    0    0  0.00000000000E+00  0.00000000000E+00  0.45593999997E+02  0.45594000000E+02  0.51100000000E-03 0.  1.
         11   -1    0    0    0    0 -0.00000000000E+00 -0.00000000000E+00 -0.45593999997E+02  0.45594000000E+02  0.51100000000E-03 0. -1.
    9900012    2    1    2    0    0 -0.65802057395E+00  0.89001284243E+00 -0.41104552759E+00  0.90007291585E+02  0.89999547033E+02 0.  0.
        -12    1    1    2    0    0  0.65802057395E+00 -0.89001284243E+00  0.41104552759E+00  0.11807084150E+01  0.00000000000E+00 0.  1.
         11    1    3    3    0    0  0.55205349608E+01  0.22406985605E+01  0.56858531644E+01  0.82356519329E+01  0.51100000000E-03 0. -1.
        -11    1    3    3    0    0 -0.19674181734E+02 -0.32271509046E+02  0.16421663258E+02  0.41209158538E+02  0.51100000000E-03 0.  1.
         12    1    3    3    0    0  0.13495626199E+02  0.30920823328E+02 -0.22518561950E+02  0.40562481114E+02  0.00000000000E+00 0. -1.
</event>
<event>
 7    1  0.2405891E-015  0.9000773E+02  0.7816164E-02  0.1186339E+00
        -11   -1    0    0    0    0  0.00000000000E+00  0.00000000000E+00  0.45593999997E+02  0.45594000000E+02  0.51100000000E-03 0. -1.
         11   -1    0    0    0    0 -0.00000000000E+00 -0.00000000000E+00 -0.45593999997E+02  0.45594000000E+02  0.51100000000E-03 0.  1.
    9900012    2    1    2    0    0  0.87320248906E+00  0.52286294356E+00  0.59764467763E+00  0.90007725708E+02  0.89999986887E+02 0.  0.
        -12    1    1    2    0    0 -0.87320248906E+00 -0.52286294356E+00 -0.59764467763E+00  0.11802742924E+01  0.00000000000E+00 0.  1.
         11    1    3    3    0    0 -0.41662288771E+01  0.10578957651E+01 -0.54721575851E+01  0.69585282498E+01  0.51100000000E-03 0. -1.
        -11    1    3    3    0    0 -0.71050735269E+01 -0.16782453124E+02 -0.33752419179E+02  0.38358292498E+02  0.51100000000E-03 0.  1.
         12    1    3    3    0    0  0.12144504893E+02  0.16247420302E+02  0.39822221442E+02  0.44690904960E+02  0.00000000000E+00 0. -1.
</event>
<event>
 7    1  0.2405891E-015  0.9000776E+02  0.7816164E-02  0.1186339E+00
        -11   -1    0    0    0    0  0.00000000000E+00  0.00000000000E+00  0.45593999997E+02  0.45594000000E+02  0.51100000000E-03 0. -1.
         11   -1    0    0    0    0 -0.00000000000E+00 -0.00000000000E+00 -0.45593999997E+02  0.45594000000E+02  0.51100000000E-03 0.  1.
    9900012    2    1    2    0    0  0.10649199410E+01 -0.50860088863E+00  0.15743746779E-01  0.90007755445E+02  0.90000017017E+02 0.  0.
        -12    1    1    2    0    0 -0.10649199410E+01  0.50860088863E+00 -0.15743746779E-01  0.11802445553E+01  0.00000000000E+00 0.  1.
         11    1    3    3    0    0  0.57147270093E+00  0.98502545329E+01 -0.51364086765E+00  0.98801782683E+01  0.51100000000E-03 0. -1.
        -11    1    3    3    0    0  0.19034203791E+02  0.26719753665E+02 -0.14718354022E+02  0.35956586257E+02  0.51100000000E-03 0.  1.
         12    1    3    3    0    0 -0.18540756551E+02 -0.37078609087E+02  0.15247738636E+02  0.44170990919E+02  0.00000000000E+00 0. -1.
</event>
<event>
 7    1  0.2405891E-015  0.9000772E+02  0.7816164E-02  0.1186339E+00
        -11   -1    0    0    0    0  0.00000000000E+00  0.00000000000E+00  0.45593999997E+02  0.45594000000E+02  0.51100000000E-03 0.  1.
         11   -1    0    0    0    0 -0.00000000000E+00 -0.00000000000E+00 -0.45593999997E+02  0.45594000000E+02  0.51100000000E-03 0. -1.
    9900012    2    1    2    0    0  0.11042309863E+01 -0.33251679599E+00 -0.25133469775E+00  0.90007719262E+02  0.89999980356E+02 0.  0.
        -12    1    1    2    0    0 -0.11042309863E+01  0.33251679599E+00  0.25133469775E+00  0.11802807382E+01  0.00000000000E+00 0.  1.
         11    1    3    3    0    0  0.11778405328E+02 -0.35189713672E+02  0.71319457566E+01  0.37787715344E+02  0.51100000000E-03 0. -1.
        -11    1    3    3    0    0  0.63354438569E+01 -0.38438570977E+01 -0.66236246482E+01  0.99390889921E+01  0.51100000000E-03 0.  1.
        -12    1    3    3    0    0 -0.17009618199E+02  0.38701053974E+02 -0.75965580611E+00  0.42280914925E+02  0.00000000000E+00 0.  1.
</event>
<event>
 7    1  0.2405891E-015  0.9000748E+02  0.7816164E-02  0.1186340E+00
        -11   -1    0    0    0    0  0.00000000000E+00  0.00000000000E+00  0.45593999997E+02  0.45594000000E+02  0.51100000000E-03 0. -1.
         11   -1    0    0    0    0 -0.00000000000E+00 -0.00000000000E+00 -0.45593999997E+02  0.45594000000E+02  0.51100000000E-03 0.  1.
    9900012    2    1    2    0    0 -0.96156483919E+00 -0.24364876555E+00  0.64005077892E+00  0.90007476108E+02  0.89999733992E+02 0.  0.
        -12    1    1    2    0    0  0.96156483919E+00  0.24364876555E+00 -0.64005077892E+00  0.11805238924E+01  0.00000000000E+00 0.  1.
         11    1    3    3    0    0 -0.32612729078E+02 -0.58029263472E+01  0.25031938066E+02  0.41519416852E+02  0.51100000000E-03 0. -1.
        -11    1    3    3    0    0  0.29567090692E+01 -0.15981755252E+01  0.54957351917E+01  0.64420027234E+01  0.51100000000E-03 0.  1.
        -12    1    3    3    0    0  0.28694455170E+02  0.71574531068E+01 -0.29887622479E+02  0.42046056532E+02  0.00000000000E+00 0.  1.
</event>
<event>
 7    1  0.2405891E-015  0.9000773E+02  0.7816164E-02  0.1186339E+00
        -11   -1    0    0    0    0  0.00000000000E+00  0.00000000000E+00  0.45593999997E+02  0.45594000000E+02  0.51100000000E-03 0.  1.
         11   -1    0    0    0    0 -0.00000000000E+00 -0.00000000000E+00 -0.45593999997E+02  0.45594000000E+02  0.51100000000E-03 0. -1.
    9900012    2    1    2    0    0  0.91763590534E+00  0.57556007107E+00  0.46873294869E+00  0.90007730697E+02  0.89999991942E+02 0.  0.
        -12    1    1    2    0    0 -0.91763590534E+00 -0.57556007107E+00 -0.46873294869E+00  0.11802693029E+01  0.00000000000E+00 0.  1.
         11    1    3    3    0    0  0.99745750332E+00 -0.27548424289E+02 -0.23894140847E+02  0.36480687622E+02  0.51100000000E-03 0. -1.
        -11    1    3    3    0    0  0.13346795638E+02 -0.30707587194E+01  0.73245472520E+01  0.15531114114E+02  0.51100000000E-03 0.  1.
        -12    1    3    3    0    0 -0.13426617236E+02  0.31194743080E+02  0.17038326544E+02  0.37995928961E+02  0.00000000000E+00 0.  1.
</event>
<event>
 7    1  0.2405891E-015  0.9000768E+02  0.7816164E-02  0.1186339E+00
        -11   -1    0    0    0    0  0.00000000000E+00  0.00000000000E+00  0.45593999997E+02  0.45594000000E+02  0.51100000000E-03 0.  1.
         11   -1    0    0    0    0 -0.00000000000E+00 -0.00000000000E+00 -0.45593999997E+02  0.45594000000E+02  0.51100000000E-03 0. -1.
    9900012    2    1    2    0    0 -0.72336074232E+00  0.46303549819E+00 -0.80962694939E+00  0.90007682910E+02  0.89999943524E+02 0.  0.
        -12    1    1    2    0    0  0.72336074232E+00 -0.46303549819E+00  0.80962694939E+00  0.11803170902E+01  0.00000000000E+00 0.  1.
         11    1    3    3    0    0  0.37093840362E+02  0.89701319539E+00  0.82798699453E+01  0.38017283859E+02  0.51100000000E-03 0. -1.
        -11    1    3    3    0    0  0.39206754264E+01 -0.85043540610E+00  0.63292670568E+01  0.74936344931E+01  0.51100000000E-03 0.  1.
        -12    1    3    3    0    0 -0.41737876531E+02  0.41645770890E+00 -0.15418763951E+02  0.44496764558E+02  0.00000000000E+00 0.  1.
</event>
<event>
 7    1  0.2405891E-015  0.9000765E+02  0.7816164E-02  0.1186339E+00
        -11   -1    0    0    0    0  0.00000000000E+00  0.00000000000E+00  0.45593999997E+02  0.45594000000E+02  0.51100000000E-03 0.  1.
         11   -1    0    0    0    0 -0.00000000000E+00 -0.00000000000E+00 -0.45593999997E+02  0.45594000000E+02  0.51100000000E-03 0. -1.
    9900012    2    1    2    0    0  0.74333755341E+00  0.88347805012E+00  0.24521604678E+00  0.90007654672E+02  0.89999914914E+02 0.  0.
        -12    1    1    2    0    0 -0.74333755341E+00 -0.88347805012E+00 -0.24521604678E+00  0.11803453278E+01  0.00000000000E+00 0.  1.
         11    1    3    3    0    0 -0.18321747275E+02  0.31312840011E+02  0.50112030281E+01  0.36623660779E+02  0.51100000000E-03 0. -1.
        -11    1    3    3    0    0  0.43313478630E+00  0.66303890367E+01  0.76049142958E+01  0.10098731912E+02  0.51100000000E-03 0.  1.
        -12    1    3    3    0    0  0.18631950042E+02 -0.37059750998E+02 -0.12370901277E+02  0.43285261982E+02  0.00000000000E+00 0.  1.
</event>
<event>
 7    1  0.2405891E-015  0.9000785E+02  0.7816164E-02  0.1186339E+00
        -11   -1    0    0    0    0  0.00000000000E+00  0.00000000000E+00  0.45593999997E+02  0.45594000000E+02  0.51100000000E-03 0.  1.
         11   -1    0    0    0    0 -0.00000000000E+00 -0.00000000000E+00 -0.45593999997E+02  0.45594000000E+02  0.51100000000E-03 0. -1.
    9900012    2    1    2    0    0 -0.73549817780E+00 -0.52677646150E+00 -0.75782227884E+00  0.90007853562E+02  0.90000116428E+02 0.  0.
        -12    1    1    2    0    0  0.73549817780E+00  0.52677646150E+00  0.75782227884E+00  0.11801464385E+01  0.00000000000E+00 0.  1.
         11    1    3    3    0    0  0.28447827536E+02 -0.17052797172E+02 -0.16396711002E+02  0.36999039377E+02  0.51100000000E-03 0. -1.
        -11    1    3    3    0    0  0.77747835945E+01 -0.35399627566E+01  0.17461492741E+01  0.87193826506E+01  0.51100000000E-03 0.  1.
        -12    1    3    3    0    0 -0.36958109309E+02  0.20065983467E+02  0.13892739449E+02  0.44289431533E+02  0.00000000000E+00 0.  1.
</event>
<event>
 7    1  0.2405891E-015  0.9000766E+02  0.7816164E-02  0.1186339E+00
        -11   -1    0    0    0    0  0.00000000000E+00  0.00000000000E+00  0.45593999997E+02  0.45594000000E+02  0.51100000000E-03 0. -1.
         11   -1    0    0    0    0 -0.00000000000E+00 -0.00000000000E+00 -0.45593999997E+02  0.45594000000E+02  0.51100000000E-03 0.  1.
    9900012    2    1    2    0    0  0.35193051950E+00  0.10598508740E+01 -0.38219273043E+00  0.90007656724E+02  0.89999916993E+02 0.  0.
        -12    1    1    2    0    0 -0.35193051950E+00 -0.10598508740E+01  0.38219273043E+00  0.11803432759E+01  0.00000000000E+00 0.  1.
         11    1    3    3    0    0 -0.24377791207E+02  0.29063093056E+02  0.41340882060E+01  0.38157971221E+02  0.51100000000E-03 0. -1.
        -11    1    3    3    0    0  0.19645589934E+00  0.48348295050E+01  0.76852842107E+01  0.90817269791E+01  0.51100000000E-03 0.  1.
        -12    1    3    3    0    0  0.24533265828E+02 -0.32838071687E+02 -0.12201565147E+02  0.42767958524E+02  0.00000000000E+00 0.  1.
</event>
<event>
 7    1  0.2405891E-015  0.9000775E+02  0.7816164E-02  0.1186339E+00
        -11   -1    0    0    0    0  0.00000000000E+00  0.00000000000E+00  0.45593999997E+02  0.45594000000E+02  0.51100000000E-03 0.  1.
         11   -1    0    0    0    0 -0.00000000000E+00 -0.00000000000E+00 -0.45593999997E+02  0.45594000000E+02  0.51100000000E-03 0. -1.
    9900012    2    1    2    0    0  0.30295175747E+00  0.10980236048E+01 -0.30910457079E+00  0.90007753738E+02  0.90000015287E+02 0.  0.
        -12    1    1    2    0    0 -0.30295175747E+00 -0.10980236048E+01  0.30910457079E+00  0.11802462623E+01  0.00000000000E+00 0.  1.
         11    1    3    3    0    0  0.89313723493E+01 -0.70436075881E+01  0.92356939673E+01  0.14651957658E+02  0.51100000000E-03 0. -1.
        -11    1    3    3    0    0  0.27252665867E+02  0.15408915426E+02  0.11232327204E+02  0.33261203318E+02  0.51100000000E-03 0.  1.
         12    1    3    3    0    0 -0.35881086459E+02 -0.72672842335E+01 -0.20777125742E+02  0.42094592761E+02  0.00000000000E+00 0. -1.
</event>
<event>
 7    1  0.2405891E-015  0.9000781E+02  0.7816164E-02  0.1186339E+00
        -11   -1    0    0    0    0  0.00000000000E+00  0.00000000000E+00  0.45593999997E+02  0.45594000000E+02  0.51100000000E-03 0. -1.
         11   -1    0    0    0    0 -0.00000000000E+00 -0.00000000000E+00 -0.45593999997E+02  0.45594000000E+02  0.51100000000E-03 0.  1.
    9900012    2    1    2    0    0 -0.36478163683E+00  0.10741682592E+01  0.32548567550E+00  0.90007811872E+02  0.90000074189E+02 0.  0.
        -12    1    1    2    0    0  0.36478163683E+00 -0.10741682592E+01 -0.32548567550E+00  0.11801881277E+01  0.00000000000E+00 0.  1.
         11    1    3    3    0    0  0.32495046181E+02  0.27709982753E+01 -0.22191058689E+02  0.39446793834E+02  0.51100000000E-03 0. -1.
        -11    1    3    3    0    0 -0.11302394754E+02  0.10105554914E+02 -0.26426678535E+01  0.15389933753E+02  0.51100000000E-03 0.  1.
        -12    1    3    3    0    0 -0.21557433064E+02 -0.11802384930E+02  0.25159212218E+02  0.35171084285E+02  0.00000000000E+00 0.  1.
</event>
<event>
 7    1  0.2405891E-015  0.9000770E+02  0.7816164E-02  0.1186339E+00
        -11   -1    0    0    0    0  0.00000000000E+00  0.00000000000E+00  0.45593999997E+02  0.45594000000E+02  0.51100000000E-03 0. -1.
         11   -1    0    0    0    0 -0.00000000000E+00 -0.00000000000E+00 -0.45593999997E+02  0.45594000000E+02  0.51100000000E-03 0.  1.
    9900012    2    1    2    0    0 -0.75004098181E+00  0.44880384022E+00  0.79317373818E+00  0.90007698793E+02  0.89999959617E+02 0.  0.
        -12    1    1    2    0    0  0.75004098181E+00 -0.44880384022E+00 -0.79317373818E+00  0.11803012075E+01  0.00000000000E+00 0.  1.
         11    1    3    3    0    0 -0.10878851435E+02  0.57435553057E+01 -0.25864411468E+01  0.12570899497E+02  0.51100000000E-03 0. -1.
        -11    1    3    3    0    0  0.42284306458E+01  0.19934064609E+02 -0.29326706273E+02  0.35711374360E+02  0.51100000000E-03 0.  1.
         12    1    3    3    0    0  0.59003798074E+01 -0.25228816075E+02  0.32706321158E+02  0.41725424936E+02  0.00000000000E+00 0. -1.
</event>
<event>
 7    1  0.2405891E-015  0.9000776E+02  0.7816164E-02  0.1186339E+00
        -11   -1    0    0    0    0  0.00000000000E+00  0.00000000000E+00  0.45593999997E+02  0.45594000000E+02  0.51100000000E-03 0.  1.
         11   -1    0    0    0    0 -0.00000000000E+00 -0.00000000000E+00 -0.45593999997E+02  0.45594000000E+02  0.51100000000E-03 0. -1.
    9900012    2    1    2    0    0 -0.63952729047E+00 -0.67707731156E+00  0.72494493892E+00  0.90007756802E+02  0.90000018392E+02 0.  0.
        -12    1    1    2    0    0  0.63952729047E+00  0.67707731156E+00 -0.72494493892E+00  0.11802431976E+01  0.00000000000E+00 0.  1.
         11    1    3    3    0    0 -0.87303996239E+01  0.60851030937E+01 -0.21791994957E+01  0.10862654738E+02  0.51100000000E-03 0. -1.
        -11    1    3    3    0    0 -0.25002074706E+02 -0.16087349088E+01  0.27792595083E+02  0.37418178862E+02  0.51100000000E-03 0.  1.
         12    1    3    3    0    0  0.33092947040E+02 -0.51534454965E+01 -0.24888450648E+02  0.41726923202E+02  0.00000000000E+00 0. -1.
</event>
<event>
 7    1  0.2405891E-015  0.9000798E+02  0.7816164E-02  0.1186339E+00
        -11   -1    0    0    0    0  0.00000000000E+00  0.00000000000E+00  0.45593999997E+02  0.45594000000E+02  0.51100000000E-03 0. -1.
         11   -1    0    0    0    0 -0.00000000000E+00 -0.00000000000E+00 -0.45593999997E+02  0.45594000000E+02  0.51100000000E-03 0.  1.
    9900012    2    1    2    0    0 -0.17175211234E+00 -0.94366998988E+00  0.68734062413E+00  0.90007979250E+02  0.90000243775E+02 0.  0.
        -12    1    1    2    0    0  0.17175211234E+00  0.94366998988E+00 -0.68734062413E+00  0.11800207504E+01  0.00000000000E+00 0.  1.
         11    1    3    3    0    0 -0.44289225524E+01  0.35028270518E+02  0.16668955832E+02  0.39044195206E+02  0.51100000000E-03 0. -1.
        -11    1    3    3    0    0  0.22343405965E+01 -0.35816766285E+01  0.90448823888E+01  0.99815120628E+01  0.51100000000E-03 0.  1.
        -12    1    3    3    0    0  0.20228298435E+01 -0.32390263880E+02 -0.25026497596E+02  0.40982271981E+02  0.00000000000E+00 0.  1.
</event>
<event>
 7    1  0.2405891E-015  0.9000783E+02  0.7816164E-02  0.1186339E+00
        -11   -1    0    0    0    0  0.00000000000E+00  0.00000000000E+00  0.45593999997E+02  0.45594000000E+02  0.51100000000E-03 0. -1.
         11   -1    0    0    0    0 -0.00000000000E+00 -0.00000000000E+00 -0.45593999997E+02  0.45594000000E+02  0.51100000000E-03 0.  1.
    9900012    2    1    2    0    0 -0.55165825502E+00 -0.41607234435E+00  0.95674247426E+00  0.90007830865E+02  0.90000093432E+02 0.  0.
        -12    1    1    2    0    0  0.55165825502E+00  0.41607234435E+00 -0.95674247426E+00  0.11801691354E+01  0.00000000000E+00 0.  1.
         11    1    3    3    0    0  0.27419426274E+02  0.16483150246E+02  0.18948839607E+02  0.37183029758E+02  0.51100000000E-03 0. -1.
        -11    1    3    3    0    0  0.28370324647E+01 -0.29790652174E+01  0.87833372626E+01  0.96989997683E+01  0.51100000000E-03 0.  1.
        -12    1    3    3    0    0 -0.30808116994E+02 -0.13920157373E+02 -0.26775434396E+02  0.43125801338E+02  0.00000000000E+00 0.  1.
</event>
<event>
 7    1  0.2405891E-015  0.9000662E+02  0.7816164E-02  0.1186341E+00
        -11   -1    0    0    0    0  0.00000000000E+00  0.00000000000E+00  0.45593999997E+02  0.45594000000E+02  0.51100000000E-03 0.  1.
         11   -1    0    0    0    0 -0.00000000000E+00 -0.00000000000E+00 -0.45593999997E+02  0.45594000000E+02  0.51100000000E-03 0. -1.
    9900012    2    1    2    0    0  0.12810413105E+00  0.55697387778E+00 -0.10339377860E+01  0.90006620334E+02  0.89998866916E+02 0.  0.
        -12    1    1    2    0    0 -0.12810413105E+00 -0.55697387778E+00  0.10339377860E+01  0.11813796656E+01  0.00000000000E+00 0.  1.
         11    1    3    3    0    0  0.25741460143E+02 -0.13686569278E+02  0.21961396787E+02  0.36499971206E+02  0.51100000000E-03 0. -1.
        -11    1    3    3    0    0  0.52284968999E+01  0.67897869596E+01  0.60501767882E+01  0.10490139476E+02  0.51100000000E-03 0.  1.
        -12    1    3    3    0    0 -0.30841852912E+02  0.74537561960E+01 -0.29045511362E+02  0.43016509653E+02  0.00000000000E+00 0.  1.
</event>
<event>
 7    1  0.2405891E-015  0.9000773E+02  0.7816164E-02  0.1186339E+00
        -11   -1    0    0    0    0  0.00000000000E+00  0.00000000000E+00  0.45593999997E+02  0.45594000000E+02  0.51100000000E-03 0. -1.
         11   -1    0    0    0    0 -0.00000000000E+00 -0.00000000000E+00 -0.45593999997E+02  0.45594000000E+02  0.51100000000E-03 0.  1.
    9900012    2    1    2    0    0  0.10139243264E+01 -0.55045224122E+00  0.24899610942E+00  0.90007729153E+02  0.89999990378E+02 0.  0.
        -12    1    1    2    0    0 -0.10139243264E+01  0.55045224122E+00 -0.24899610942E+00  0.11802708469E+01  0.00000000000E+00 0.  1.
         11    1    3    3    0    0 -0.51018348342E+01  0.33396063187E+02  0.21768817756E+02  0.40189640230E+02  0.51100000000E-03 0. -1.
        -11    1    3    3    0    0 -0.50748846208E+01  0.22303308288E+01 -0.77408494328E+01  0.95210072851E+01  0.51100000000E-03 0.  1.
        -12    1    3    3    0    0  0.11190643781E+02 -0.36176846257E+02 -0.13778972214E+02  0.40297081638E+02  0.00000000000E+00 0.  1.
</event>
<event>
 7    1  0.2405891E-015  0.9000761E+02  0.7816164E-02  0.1186339E+00
        -11   -1    0    0    0    0  0.00000000000E+00  0.00000000000E+00  0.45593999997E+02  0.45594000000E+02  0.51100000000E-03 0.  1.
         11   -1    0    0    0    0 -0.00000000000E+00 -0.00000000000E+00 -0.45593999997E+02  0.45594000000E+02  0.51100000000E-03 0. -1.
    9900012    2    1    2    0    0 -0.34132283126E+00  0.11153346538E+01 -0.18127045862E+00  0.90007605302E+02  0.89999864891E+02 0.  0.
        -12    1    1    2    0    0  0.34132283126E+00 -0.11153346538E+01  0.18127045862E+00  0.11803946985E+01  0.00000000000E+00 0.  1.
         11    1    3    3    0    0  0.14779455822E+01  0.12414832645E+02 -0.11568398111E+02  0.17033503100E+02  0.51100000000E-03 0. -1.
        -11    1    3    3    0    0 -0.25580617740E+02  0.10134905342E+02  0.25944484697E+02  0.37817993029E+02  0.51100000000E-03 0.  1.
         12    1    3    3    0    0  0.23761349327E+02 -0.21434403333E+02 -0.14557357045E+02  0.35156109173E+02  0.00000000000E+00 0. -1.
</event>
<event>
 7    1  0.2405891E-015  0.9000771E+02  0.7816164E-02  0.1186339E+00
        -11   -1    0    0    0    0  0.00000000000E+00  0.00000000000E+00  0.45593999997E+02  0.45594000000E+02  0.51100000000E-03 0.  1.
         11   -1    0    0    0    0 -0.00000000000E+00 -0.00000000000E+00 -0.45593999997E+02  0.45594000000E+02  0.51100000000E-03 0. -1.
    9900012    2    1    2    0    0 -0.91427699754E+00  0.61587190342E+00 -0.42176029810E+00  0.90007710892E+02  0.89999971876E+02 0.  0.
        -12    1    1    2    0    0  0.91427699754E+00 -0.61587190342E+00  0.42176029810E+00  0.11802891081E+01  0.00000000000E+00 0.  1.
         11    1    3    3    0    0  0.12881235978E+01 -0.11579449970E+02  0.10508939238E+02  0.15690147488E+02  0.51100000000E-03 0. -1.
        -11    1    3    3    0    0 -0.36450059117E+02 -0.14631990946E+01 -0.29930050188E+01  0.36601992303E+02  0.51100000000E-03 0.  1.
         12    1    3    3    0    0  0.34247658522E+02  0.13658520968E+02 -0.79376945176E+01  0.37715571101E+02  0.00000000000E+00 0. -1.
</event>
<event>
 7    1  0.2405891E-015  0.9000779E+02  0.7816164E-02  0.1186339E+00
        -11   -1    0    0    0    0  0.00000000000E+00  0.00000000000E+00  0.45593999997E+02  0.45594000000E+02  0.51100000000E-03 0. -1.
         11   -1    0    0    0    0 -0.00000000000E+00 -0.00000000000E+00 -0.45593999997E+02  0.45594000000E+02  0.51100000000E-03 0.  1.
    9900012    2    1    2    0    0 -0.81288515504E+00  0.67335672324E+00  0.52791372441E+00  0.90007794741E+02  0.90000056832E+02 0.  0.
        -12    1    1    2    0    0  0.81288515504E+00 -0.67335672324E+00 -0.52791372441E+00  0.11802052586E+01  0.00000000000E+00 0.  1.
         11    1    3    3    0    0 -0.20308402127E+02  0.35085835873E+02 -0.24657919436E+00  0.40540200757E+02  0.51100000000E-03 0. -1.
        -11    1    3    3    0    0  0.67498643773E+01 -0.24716816738E+00 -0.94317858352E+01  0.11600876929E+02  0.51100000000E-03 0.  1.
        -12    1    3    3    0    0  0.12745652595E+02 -0.34165310982E+02  0.10206278754E+02  0.37866717056E+02  0.00000000000E+00 0.  1.
</event>
<event>
 7    1  0.2405891E-015  0.9000782E+02  0.7816164E-02  0.1186339E+00
        -11   -1    0    0    0    0  0.00000000000E+00  0.00000000000E+00  0.45593999997E+02  0.45594000000E+02  0.51100000000E-03 0.  1.
         11   -1    0    0    0    0 -0.00000000000E+00 -0.00000000000E+00 -0.45593999997E+02  0.45594000000E+02  0.51100000000E-03 0. -1.
    9900012    2    1    2    0    0 -0.11761499428E+01  0.16441083034E-01  0.96042340152E-01  0.90007820722E+02  0.90000083156E+02 0.  0.
        -12    1    1    2    0    0  0.11761499428E+01 -0.16441083034E-01 -0.96042340152E-01  0.11801792780E+01  0.00000000000E+00 0.  1.
         11    1    3    3    0    0 -0.63607330448E+01 -0.56856676419E+01  0.63485544799E+01  0.10634372838E+02  0.51100000000E-03 0. -1.
        -11    1    3    3    0    0  0.24086233747E+02 -0.20059640823E+02  0.20706833622E+02  0.37567390180E+02  0.51100000000E-03 0.  1.
         12    1    3    3    0    0 -0.18901650645E+02  0.25761749547E+02 -0.26959345762E+02  0.41806057704E+02  0.00000000000E+00 0. -1.
</event>
<event>
 7    1  0.2405891E-015  0.9000778E+02  0.7816164E-02  0.1186339E+00
        -11   -1    0    0    0    0  0.00000000000E+00  0.00000000000E+00  0.45593999997E+02  0.45594000000E+02  0.51100000000E-03 0. -1.
         11   -1    0    0    0    0 -0.00000000000E+00 -0.00000000000E+00 -0.45593999997E+02  0.45594000000E+02  0.51100000000E-03 0.  1.
    9900012    2    1    2    0    0  0.18983336841E+00 -0.11635742494E+01 -0.54647339590E-01  0.90007776261E+02  0.90000038108E+02 0.  0.
        -12    1    1    2    0    0 -0.18983336841E+00  0.11635742494E+01  0.54647339590E-01  0.11802237387E+01  0.00000000000E+00 0.  1.
         11    1    3    3    0    0  0.49780930466E+01  0.74244830466E+01 -0.42065380015E+01  0.98792368687E+01  0.51100000000E-03 0. -1.
        -11    1    3    3    0    0 -0.94176864191E+00 -0.21972637106E+02 -0.33449033779E+02  0.40031507223E+02  0.51100000000E-03 0.  1.
         12    1    3    3    0    0 -0.38464910363E+01  0.13384579810E+02  0.37600924441E+02  0.40097032169E+02  0.00000000000E+00 0. -1.
</event>
<event>
 7    1  0.2405891E-015  0.9000779E+02  0.7816164E-02  0.1186339E+00
        -11   -1    0    0    0    0  0.00000000000E+00  0.00000000000E+00  0.45593999997E+02  0.45594000000E+02  0.51100000000E-03 0. -1.
         11   -1    0    0    0    0 -0.00000000000E+00 -0.00000000000E+00 -0.45593999997E+02  0.45594000000E+02  0.51100000000E-03 0.  1.
    9900012    2    1    2    0    0 -0.48782298837E+00  0.89447424130E+00  0.59569419144E+00  0.90007785186E+02  0.90000047151E+02 0.  0.
        -12    1    1    2    0    0  0.48782298837E+00 -0.89447424130E+00 -0.59569419144E+00  0.11802148135E+01  0.00000000000E+00 0.  1.
         11    1    3    3    0    0  0.74135902547E+01  0.21047591714E+01  0.85725879019E+01  0.11527384579E+02  0.51100000000E-03 0. -1.
        -11    1    3    3    0    0  0.18428914224E+02  0.30480984099E+02  0.32754163380E+01  0.35769311197E+02  0.51100000000E-03 0.  1.
         12    1    3    3    0    0 -0.26330327467E+02 -0.31691269029E+02 -0.11252310048E+02  0.42711089410E+02  0.00000000000E+00 0. -1.
</event>
<event>
 7    1  0.2405891E-015  0.9000783E+02  0.7816164E-02  0.1186339E+00
        -11   -1    0    0    0    0  0.00000000000E+00  0.00000000000E+00  0.45593999997E+02  0.45594000000E+02  0.51100000000E-03 0.  1.
         11   -1    0    0    0    0 -0.00000000000E+00 -0.00000000000E+00 -0.45593999997E+02  0.45594000000E+02  0.51100000000E-03 0. -1.
    9900012    2    1    2    0    0  0.43212566132E+00  0.10079730191E+01 -0.43596996755E+00  0.90007825434E+02  0.90000087929E+02 0.  0.
        -12    1    1    2    0    0 -0.43212566132E+00 -0.10079730191E+01  0.43596996755E+00  0.11801745663E+01  0.00000000000E+00 0.  1.
         11    1    3    3    0    0  0.32962908265E+02  0.11092155581E+01 -0.21653973113E+02  0.39454761846E+02  0.51100000000E-03 0. -1.
        -11    1    3    3    0    0 -0.35266663349E+01 -0.82630069873E+00 -0.83660977361E+01  0.91165640388E+01  0.51100000000E-03 0.  1.
        -12    1    3    3    0    0 -0.29004116269E+02  0.72505815970E+00  0.29584100882E+02  0.41436499549E+02  0.00000000000E+00 0.  1.
</event>
<event>
 7    1  0.2405891E-015  0.9000774E+02  0.7816164E-02  0.1186339E+00
        -11   -1    0    0    0    0  0.00000000000E+00  0.00000000000E+00  0.45593999997E+02  0.45594000000E+02  0.51100000000E-03 0.  1.
         11   -1    0    0    0    0 -0.00000000000E+00 -0.00000000000E+00 -0.45593999997E+02  0.45594000000E+02  0.51100000000E-03 0. -1.
    9900012    2    1    2    0    0 -0.73806386280E+00 -0.59702477762E+00  0.70130397952E+00  0.90007744044E+02  0.90000005465E+02 0.  0.
        -12    1    1    2    0    0  0.73806386280E+00  0.59702477762E+00 -0.70130397952E+00  0.11802559563E+01  0.00000000000E+00 0.  1.
         11    1    3    3    0    0 -0.52128207840E+01  0.71750657527E+01  0.53484112984E+01  0.10356668034E+02  0.51100000000E-03 0. -1.
        -11    1    3    3    0    0  0.49077538207E+01  0.28635563438E+02 -0.24656066537E+02  0.38105159209E+02  0.51100000000E-03 0.  1.
         12    1    3    3    0    0 -0.43299689952E+00 -0.36407653969E+02  0.20008959218E+02  0.41545916801E+02  0.00000000000E+00 0. -1.
</event>
<event>
 7    1  0.2405891E-015  0.9000757E+02  0.7816164E-02  0.1186339E+00
        -11   -1    0    0    0    0  0.00000000000E+00  0.00000000000E+00  0.45593999997E+02  0.45594000000E+02  0.51100000000E-03 0. -1.
         11   -1    0    0    0    0 -0.00000000000E+00 -0.00000000000E+00 -0.45593999997E+02  0.45594000000E+02  0.51100000000E-03 0.  1.
    9900012    2    1    2    0    0  0.21677471549E+00  0.27093586126E-01  0.11600436348E+01  0.90007565091E+02  0.89999824150E+02 0.  0.
        -12    1    1    2    0    0 -0.21677471549E+00 -0.27093586126E-01 -0.11600436348E+01  0.11804349090E+01  0.00000000000E+00 0.  1.
         11    1    3    3    0    0 -0.14712641021E+02  0.16658780703E+01  0.16319365120E+02  0.22035395021E+02  0.51100000000E-03 0. -1.
        -11    1    3    3    0    0 -0.25500618201E+02  0.18507790865E+01 -0.39402291016E+01  0.25869524880E+02  0.51100000000E-03 0.  1.
         12    1    3    3    0    0  0.40430033937E+02 -0.34895635707E+01 -0.11219092384E+02  0.42102645190E+02  0.00000000000E+00 0. -1.
</event>
<event>
 7    1  0.2405891E-015  0.9000771E+02  0.7816164E-02  0.1186339E+00
        -11   -1    0    0    0    0  0.00000000000E+00  0.00000000000E+00  0.45593999997E+02  0.45594000000E+02  0.51100000000E-03 0. -1.
         11   -1    0    0    0    0 -0.00000000000E+00 -0.00000000000E+00 -0.45593999997E+02  0.45594000000E+02  0.51100000000E-03 0.  1.
    9900012    2    1    2    0    0 -0.93362632588E+00  0.71712509121E+00  0.84607464060E-01  0.90007709809E+02  0.89999970778E+02 0.  0.
        -12    1    1    2    0    0  0.93362632588E+00 -0.71712509121E+00 -0.84607464060E-01  0.11802901914E+01  0.00000000000E+00 0.  1.
         11    1    3    3    0    0  0.20534868728E+01 -0.40234555863E+02  0.60752188412E+01  0.40742417430E+02  0.51100000000E-03 0. -1.
        -11    1    3    3    0    0  0.78324811863E+01  0.36580312717E+01 -0.58421412012E+01  0.10433578887E+02  0.51100000000E-03 0.  1.
        -12    1    3    3    0    0 -0.10819594385E+02  0.37293649682E+02 -0.14847017596E+00  0.38831713491E+02  0.00000000000E+00 0.  1.
</event>
<event>
 7    1  0.2405891E-015  0.9000782E+02  0.7816164E-02  0.1186339E+00
        -11   -1    0    0    0    0  0.00000000000E+00  0.00000000000E+00  0.45593999997E+02  0.45594000000E+02  0.51100000000E-03 0.  1.
         11   -1    0    0    0    0 -0.00000000000E+00 -0.00000000000E+00 -0.45593999997E+02  0.45594000000E+02  0.51100000000E-03 0. -1.
    9900012    2    1    2    0    0  0.11032210668E+01 -0.41654992647E+00  0.46985623664E-01  0.90007822805E+02  0.90000085266E+02 0.  0.
        -12    1    1    2    0    0 -0.11032210668E+01  0.41654992647E+00 -0.46985623664E-01  0.11801771953E+01  0.00000000000E+00 0.  1.
         11    1    3    3    0    0 -0.51234794236E+01 -0.15225439751E+01  0.13084541140E+01  0.55027478581E+01  0.51100000000E-03 0. -1.
        -11    1    3    3    0    0 -0.34177913524E+02  0.18839983103E+02  0.68990041550E+01  0.39631691798E+02  0.51100000000E-03 0.  1.
         12    1    3    3    0    0  0.40404614015E+02 -0.17733989054E+02 -0.81604726453E+01  0.44873383149E+02  0.00000000000E+00 0. -1.
</event>
<event>
 7    1  0.2405891E-015  0.9000775E+02  0.7816164E-02  0.1186339E+00
        -11   -1    0    0    0    0  0.00000000000E+00  0.00000000000E+00  0.45593999997E+02  0.45594000000E+02  0.51100000000E-03 0.  1.
         11   -1    0    0    0    0 -0.00000000000E+00 -0.00000000000E+00 -0.45593999997E+02  0.45594000000E+02  0.51100000000E-03 0. -1.
    9900012    2    1    2    0    0  0.37267621679E+00 -0.27622634451E+00 -0.10852612268E+01  0.90007754057E+02  0.90000015610E+02 0.  0.
        -12    1    1    2    0    0 -0.37267621679E+00  0.27622634451E+00  0.10852612268E+01  0.11802459432E+01  0.00000000000E+00 0.  1.
         11    1    3    3    0    0  0.72740578718E-01  0.55049797934E+01 -0.26513919516E+01  0.61106442590E+01  0.51100000000E-03 0. -1.
        -11    1    3    3    0    0 -0.33242397619E+02  0.20669893985E+02 -0.83933734452E+01  0.40034363175E+02  0.51100000000E-03 0.  1.
         12    1    3    3    0    0  0.33542333257E+02 -0.26451100123E+02  0.99595041700E+01  0.43862746623E+02  0.00000000000E+00 0. -1.
</event>
<event>
 7    1  0.2405891E-015  0.9000773E+02  0.7816164E-02  0.1186339E+00
        -11   -1    0    0    0    0  0.00000000000E+00  0.00000000000E+00  0.45593999997E+02  0.45594000000E+02  0.51100000000E-03 0.  1.
         11   -1    0    0    0    0 -0.00000000000E+00 -0.00000000000E+00 -0.45593999997E+02  0.45594000000E+02  0.51100000000E-03 0. -1.
    9900012    2    1    2    0    0 -0.47520947974E+00  0.33498550534E+00 -0.10271276813E+01  0.90007732822E+02  0.89999994095E+02 0.  0.
        -12    1    1    2    0    0  0.47520947974E+00 -0.33498550534E+00  0.10271276813E+01  0.11802671783E+01  0.00000000000E+00 0.  1.
         11    1    3    3    0    0 -0.85252949839E+00 -0.57716324181E+01 -0.77349395131E+01  0.96885415232E+01  0.51100000000E-03 0. -1.
        -11    1    3    3    0    0  0.39433286998E+02 -0.36712245584E+00 -0.30270372479E+01  0.39551003238E+02  0.51100000000E-03 0.  1.
         12    1    3    3    0    0 -0.39055966979E+02  0.64737403793E+01  0.97348490796E+01  0.40768188061E+02  0.00000000000E+00 0. -1.
</event>
<event>
 7    1  0.2405891E-015  0.9000777E+02  0.7816164E-02  0.1186339E+00
        -11   -1    0    0    0    0  0.00000000000E+00  0.00000000000E+00  0.45593999997E+02  0.45594000000E+02  0.51100000000E-03 0.  1.
         11   -1    0    0    0    0 -0.00000000000E+00 -0.00000000000E+00 -0.45593999997E+02  0.45594000000E+02  0.51100000000E-03 0. -1.
    9900012    2    1    2    0    0 -0.54246016332E+00 -0.54214264761E+00 -0.89708995136E+00  0.90007766099E+02  0.90000027812E+02 0.  0.
        -12    1    1    2    0    0  0.54246016332E+00  0.54214264761E+00  0.89708995136E+00  0.11802339005E+01  0.00000000000E+00 0.  1.
         11    1    3    3    0    0 -0.50357509556E+01  0.58875491240E+01 -0.44497348059E+01  0.89343249593E+01  0.51100000000E-03 0. -1.
        -11    1    3    3    0    0  0.93492551486E+01  0.20808606689E+02 -0.29933785131E+02  0.37635597201E+02  0.51100000000E-03 0.  1.
         12    1    3    3    0    0 -0.48559643563E+01 -0.27238298460E+02  0.33486429986E+02  0.43437843939E+02  0.00000000000E+00 0. -1.
</event>
<event>
 7    1  0.2405891E-015  0.9000777E+02  0.7816164E-02  0.1186339E+00
        -11   -1    0    0    0    0  0.00000000000E+00  0.00000000000E+00  0.45593999997E+02  0.45594000000E+02  0.51100000000E-03 0. -1.
         11   -1    0    0    0    0 -0.00000000000E+00 -0.00000000000E+00 -0.45593999997E+02  0.45594000000E+02  0.51100000000E-03 0.  1.
    9900012    2    1    2    0    0 -0.10495293209E+01  0.37713861480E+00 -0.38624741082E+00  0.90007774431E+02  0.90000036254E+02 0.  0.
        -12    1    1    2    0    0  0.10495293209E+01 -0.37713861480E+00  0.38624741082E+00  0.11802255685E+01  0.00000000000E+00 0.  1.
         11    1    3    3    0    0  0.92336963052E+01 -0.53470810591E+00 -0.13464000155E+01  0.93466493182E+01  0.51100000000E-03 0. -1.
        -11    1    3    3    0    0  0.34433888811E+02 -0.28641111856E+01 -0.65290344676E+01  0.35164244949E+02  0.51100000000E-03 0.  1.
         12    1    3    3    0    0 -0.44717114437E+02  0.37759579063E+01  0.74891870722E+01  0.45496880164E+02  0.00000000000E+00 0. -1.
</event>
<event>
 7    1  0.2405891E-015  0.9000778E+02  0.7816164E-02  0.1186339E+00
        -11   -1    0    0    0    0  0.00000000000E+00  0.00000000000E+00  0.45593999997E+02  0.45594000000E+02  0.51100000000E-03 0.  1.
         11   -1    0    0    0    0 -0.00000000000E+00 -0.00000000000E+00 -0.45593999997E+02  0.45594000000E+02  0.51100000000E-03 0. -1.
    9900012    2    1    2    0    0 -0.44881037423E+00 -0.10198878337E+01 -0.38898691712E+00  0.90007782746E+02  0.90000044678E+02 0.  0.
        -12    1    1    2    0    0  0.44881037423E+00  0.10198878337E+01  0.38898691712E+00  0.11802172541E+01  0.00000000000E+00 0.  1.
         11    1    3    3    0    0 -0.21377008378E+02  0.78287934100E+01 -0.97888790217E+01  0.24780812057E+02  0.51100000000E-03 0. -1.
        -11    1    3    3    0    0  0.18469941482E+02  0.13083063102E+02  0.28253035031E+02  0.36201371068E+02  0.51100000000E-03 0.  1.
         12    1    3    3    0    0  0.24582565211E+01 -0.21931744345E+02 -0.18853142926E+02  0.29025599621E+02  0.00000000000E+00 0. -1.
</event>
<event>
 7    1  0.2405891E-015  0.9000787E+02  0.7816164E-02  0.1186339E+00
        -11   -1    0    0    0    0  0.00000000000E+00  0.00000000000E+00  0.45593999997E+02  0.45594000000E+02  0.51100000000E-03 0.  1.
         11   -1    0    0    0    0 -0.00000000000E+00 -0.00000000000E+00 -0.45593999997E+02  0.45594000000E+02  0.51100000000E-03 0. -1.
    9900012    2    1    2    0    0  0.26256905049E+00 -0.10787537218E+01 -0.40007416192E+00  0.90007868044E+02  0.90000131102E+02 0.  0.
        -12    1    1    2    0    0 -0.26256905049E+00  0.10787537218E+01  0.40007416192E+00  0.11801319560E+01  0.00000000000E+00 0.  1.
         11    1    3    3    0    0  0.23663062299E+00 -0.60698130938E+01 -0.18668202196E+01  0.63548125888E+01  0.51100000000E-03 0. -1.
        -11    1    3    3    0    0  0.37332792325E+01 -0.33066889893E+02  0.22348175727E+02  0.40084879189E+02  0.51100000000E-03 0.  1.
         12    1    3    3    0    0 -0.37073408050E+01  0.38057949265E+02 -0.20881429669E+02  0.43568176266E+02  0.00000000000E+00 0. -1.
</event>
<event>
 7    1  0.2405891E-015  0.9000772E+02  0.7816164E-02  0.1186339E+00
        -11   -1    0    0    0    0  0.00000000000E+00  0.00000000000E+00  0.45593999997E+02  0.45594000000E+02  0.51100000000E-03 0.  1.
         11   -1    0    0    0    0 -0.00000000000E+00 -0.00000000000E+00 -0.45593999997E+02  0.45594000000E+02  0.51100000000E-03 0. -1.
    9900012    2    1    2    0    0  0.41699506236E+00  0.10380662436E+00 -0.10992682049E+01  0.90007724065E+02  0.89999985222E+02 0.  0.
        -12    1    1    2    0    0 -0.41699506236E+00 -0.10380662436E+00  0.10992682049E+01  0.11802759353E+01  0.00000000000E+00 0.  1.
         11    1    3    3    0    0 -0.36899667667E+01 -0.17916174457E+01 -0.13228377112E+02  0.13849754838E+02  0.51100000000E-03 0. -1.
        -11    1    3    3    0    0  0.11869341408E+02 -0.26515168976E+02 -0.17879029387E+02  0.34111510424E+02  0.51100000000E-03 0.  1.
         12    1    3    3    0    0 -0.77623795788E+01  0.28410593046E+02  0.30008138294E+02  0.42046458803E+02  0.00000000000E+00 0. -1.
</event>
<event>
 7    1  0.2551087E-015  0.9000769E+02  0.7816164E-02  0.1186339E+00
        -11   -1    0    0    0    0  0.00000000000E+00  0.00000000000E+00  0.45593999997E+02  0.45594000000E+02  0.51100000000E-03 0. -1.
         11   -1    0    0    0    0 -0.00000000000E+00 -0.00000000000E+00 -0.45593999997E+02  0.45594000000E+02  0.51100000000E-03 0.  1.
    9900012    2    1    2    0    0 -0.68611593083E-01  0.69207261848E+00  0.95365837957E+00  0.90007688022E+02  0.89999948704E+02 0.  0.
        -12    1    1    2    0    0  0.68611593083E-01 -0.69207261848E+00 -0.95365837957E+00  0.11803119778E+01  0.00000000000E+00 0.  1.
         11    1    3    3    0    0  0.91237101501E+01 -0.30800516016E+01  0.32801533907E+01  0.10172915575E+02  0.51100000000E-03 0. -1.
        -11    1    3    3    0    0  0.24735903807E+02 -0.24538926737E+02 -0.65197207370E+01  0.35447575676E+02  0.51100000000E-03 0.  1.
         12    1    3    3    0    0 -0.33928225550E+02  0.28311050957E+02  0.41932257258E+01  0.44387196771E+02  0.00000000000E+00 0. -1.
</event>
<event>
 7    1  0.2405891E-015  0.9000767E+02  0.7816164E-02  0.1186339E+00
        -11   -1    0    0    0    0  0.00000000000E+00  0.00000000000E+00  0.45593999997E+02  0.45594000000E+02  0.51100000000E-03 0.  1.
         11   -1    0    0    0    0 -0.00000000000E+00 -0.00000000000E+00 -0.45593999997E+02  0.45594000000E+02  0.51100000000E-03 0. -1.
    9900012    2    1    2    0    0  0.46370998721E+00 -0.92664493114E-03 -0.10854253617E+01  0.90007671221E+02  0.89999931681E+02 0.  0.
        -12    1    1    2    0    0 -0.46370998721E+00  0.92664493115E-03  0.10854253617E+01  0.11803287791E+01  0.00000000000E+00 0.  1.
         11    1    3    3    0    0 -0.22510059084E+02 -0.20959300485E+02 -0.27914565698E+02  0.41535743826E+02  0.51100000000E-03 0. -1.
        -11    1    3    3    0    0  0.84214641232E+01 -0.41387533621E+01  0.66783933849E+00  0.94072497051E+01  0.51100000000E-03 0.  1.
        -12    1    3    3    0    0  0.14552304948E+02  0.25097127202E+02  0.26161300998E+02  0.39064677690E+02  0.00000000000E+00 0.  1.
</event>
<event>
 7    1  0.2405891E-015  0.9000768E+02  0.7816164E-02  0.1186339E+00
        -11   -1    0    0    0    0  0.00000000000E+00  0.00000000000E+00  0.45593999997E+02  0.45594000000E+02  0.51100000000E-03 0.  1.
         11   -1    0    0    0    0 -0.00000000000E+00 -0.00000000000E+00 -0.45593999997E+02  0.45594000000E+02  0.51100000000E-03 0. -1.
    9900012    2    1    2    0    0 -0.59229367802E+00 -0.10165875446E+01 -0.94270503166E-01  0.90007682685E+02  0.89999943296E+02 0.  0.
        -12    1    1    2    0    0  0.59229367802E+00  0.10165875446E+01  0.94270503166E-01  0.11803173152E+01  0.00000000000E+00 0.  1.
         11    1    3    3    0    0 -0.67128825839E+01  0.10089346914E+02 -0.62496516447E+01  0.13635096614E+02  0.51100000000E-03 0. -1.
        -11    1    3    3    0    0  0.35193261473E+02 -0.33913065658E+01  0.22727114331E+02  0.42030802270E+02  0.51100000000E-03 0.  1.
         12    1    3    3    0    0 -0.29072672567E+02 -0.77146278928E+01 -0.16571733190E+02  0.34341783801E+02  0.00000000000E+00 0. -1.
</event>
<event>
 7    1  0.2405891E-015  0.9000773E+02  0.7816164E-02  0.1186339E+00
        -11   -1    0    0    0    0  0.00000000000E+00  0.00000000000E+00  0.45593999997E+02  0.45594000000E+02  0.51100000000E-03 0. -1.
         11   -1    0    0    0    0 -0.00000000000E+00 -0.00000000000E+00 -0.45593999997E+02  0.45594000000E+02  0.51100000000E-03 0.  1.
    9900012    2    1    2    0    0 -0.11734775779E+01 -0.55886089142E-01 -0.11337438825E+00  0.90007734508E+02  0.89999995803E+02 0.  0.
        -12    1    1    2    0    0  0.11734775779E+01  0.55886089142E-01  0.11337438825E+00  0.11802654924E+01  0.00000000000E+00 0.  1.
         11    1    3    3    0    0 -0.53577403358E+01  0.23619004060E+01  0.91782118277E+01  0.10886851136E+02  0.51100000000E-03 0. -1.
        -11    1    3    3    0    0  0.37471274563E+02 -0.31025013767E+01  0.12157157891E+02  0.39516052693E+02  0.51100000000E-03 0.  1.
         12    1    3    3    0    0 -0.33287011805E+02  0.68471488153E+00 -0.21448744107E+02  0.39604830679E+02  0.00000000000E+00 0. -1.
</event>
<event>
 7    1  0.2405891E-015  0.9000769E+02  0.7816164E-02  0.1186339E+00
        -11   -1    0    0    0    0  0.00000000000E+00  0.00000000000E+00  0.45593999997E+02  0.45594000000E+02  0.51100000000E-03 0.  1.
         11   -1    0    0    0    0 -0.00000000000E+00 -0.00000000000E+00 -0.45593999997E+02  0.45594000000E+02  0.51100000000E-03 0. -1.
    9900012    2    1    2    0    0 -0.19647220775E+00 -0.86604634021E+00 -0.77749523910E+00  0.90007687991E+02  0.89999948672E+02 0.  0.
        -12    1    1    2    0    0  0.19647220775E+00  0.86604634021E+00  0.77749523910E+00  0.11803120090E+01  0.00000000000E+00 0.  1.
         11    1    3    3    0    0 -0.54289455212E+01 -0.24572987067E+01 -0.86428074611E+01  0.10498089706E+02  0.51100000000E-03 0. -1.
        -11    1    3    3    0    0  0.37329427373E+02 -0.13242374399E+02 -0.85581056854E+01  0.40522682548E+02  0.51100000000E-03 0.  1.
         12    1    3    3    0    0 -0.32096954059E+02  0.14833626766E+02  0.16423417907E+02  0.38986915737E+02  0.00000000000E+00 0. -1.
</event>
<event>
 7    1  0.2405891E-015  0.9000775E+02  0.7816164E-02  0.1186339E+00
        -11   -1    0    0    0    0  0.00000000000E+00  0.00000000000E+00  0.45593999997E+02  0.45594000000E+02  0.51100000000E-03 0. -1.
         11   -1    0    0    0    0 -0.00000000000E+00 -0.00000000000E+00 -0.45593999997E+02  0.45594000000E+02  0.51100000000E-03 0.  1.
    9900012    2    1    2    0    0 -0.10647921757E+01  0.35273582384E+00 -0.36713505184E+00  0.90007748720E+02  0.90000010203E+02 0.  0.
        -12    1    1    2    0    0  0.10647921757E+01 -0.35273582384E+00  0.36713505184E+00  0.11802512805E+01  0.00000000000E+00 0.  1.
         11    1    3    3    0    0  0.13408415239E+01 -0.12372597098E+02  0.34683732365E+02  0.36848884732E+02  0.51100000000E-03 0. -1.
        -11    1    3    3    0    0  0.69283658098E+01  0.27506125659E+01  0.62056995309E+01  0.96994241690E+01  0.51100000000E-03 0.  1.
        -12    1    3    3    0    0 -0.93339995094E+01  0.99747203563E+01 -0.41256566948E+02  0.43459439819E+02  0.00000000000E+00 0.  1.
</event>
<event>
 7    1  0.2405891E-015  0.9000782E+02  0.7816164E-02  0.1186339E+00
        -11   -1    0    0    0    0  0.00000000000E+00  0.00000000000E+00  0.45593999997E+02  0.45594000000E+02  0.51100000000E-03 0. -1.
         11   -1    0    0    0    0 -0.00000000000E+00 -0.00000000000E+00 -0.45593999997E+02  0.45594000000E+02  0.51100000000E-03 0.  1.
    9900012    2    1    2    0    0  0.94868191822E+00 -0.94841051678E-01  0.69558792056E+00  0.90007815793E+02  0.90000078162E+02 0.  0.
        -12    1    1    2    0    0 -0.94868191822E+00  0.94841051678E-01 -0.69558792056E+00  0.11801842069E+01  0.00000000000E+00 0.  1.
         11    1    3    3    0    0  0.51234346610E+01  0.45758134676E+01 -0.48013034857E+01  0.83809407013E+01  0.51100000000E-03 0. -1.
        -11    1    3    3    0    0  0.37446031912E+02  0.52867535129E+01  0.83793392245E+01  0.38734589126E+02  0.51100000000E-03 0.  1.
         12    1    3    3    0    0 -0.41620784654E+02 -0.99574080322E+01 -0.28824478182E+01  0.42892285966E+02  0.00000000000E+00 0. -1.
</event>
<event>
 7    1  0.2405891E-015  0.9000776E+02  0.7816164E-02  0.1186339E+00
        -11   -1    0    0    0    0  0.00000000000E+00  0.00000000000E+00  0.45593999997E+02  0.45594000000E+02  0.51100000000E-03 0. -1.
         11   -1    0    0    0    0 -0.00000000000E+00 -0.00000000000E+00 -0.45593999997E+02  0.45594000000E+02  0.51100000000E-03 0.  1.
    9900012    2    1    2    0    0 -0.90227301916E+00 -0.72206674321E+00 -0.23975259218E+00  0.90007763461E+02  0.90000025139E+02 0.  0.
        -12    1    1    2    0    0  0.90227301916E+00  0.72206674321E+00  0.23975259218E+00  0.11802365391E+01  0.00000000000E+00 0.  1.
         11    1    3    3    0    0  0.80091186534E+01  0.24690155305E+02  0.31066529526E+02  0.40483070630E+02  0.51100000000E-03 0. -1.
        -11    1    3    3    0    0  0.81516098983E+01 -0.33873154576E+01 -0.14533908537E+02  0.17004621359E+02  0.51100000000E-03 0.  1.
        -12    1    3    3    0    0 -0.17063001571E+02 -0.22024906591E+02 -0.16772373581E+02  0.32520071471E+02  0.00000000000E+00 0.  1.
</event>
<event>
 7    1  0.2405891E-015  0.9000770E+02  0.7816164E-02  0.1186339E+00
        -11   -1    0    0    0    0  0.00000000000E+00  0.00000000000E+00  0.45593999997E+02  0.45594000000E+02  0.51100000000E-03 0.  1.
         11   -1    0    0    0    0 -0.00000000000E+00 -0.00000000000E+00 -0.45593999997E+02  0.45594000000E+02  0.51100000000E-03 0. -1.
    9900012    2    1    2    0    0 -0.49728874071E+00 -0.52148848435E+00 -0.93480913697E+00  0.90007697304E+02  0.89999958109E+02 0.  0.
        -12    1    1    2    0    0  0.49728874071E+00  0.52148848435E+00  0.93480913697E+00  0.11803026957E+01  0.00000000000E+00 0.  1.
         11    1    3    3    0    0  0.12129734236E+02 -0.12725252805E+02 -0.34534026004E+02  0.38751276932E+02  0.51100000000E-03 0. -1.
        -11    1    3    3    0    0 -0.65109144896E+01 -0.69856202869E+01 -0.25422257292E+01  0.98819942422E+01  0.51100000000E-03 0.  1.
        -12    1    3    3    0    0 -0.61161084871E+01  0.19189384607E+02  0.36141442596E+02  0.41374426130E+02  0.00000000000E+00 0.  1.
</event>
<event>
 7    1  0.2405891E-015  0.9000783E+02  0.7816164E-02  0.1186339E+00
        -11   -1    0    0    0    0  0.00000000000E+00  0.00000000000E+00  0.45593999997E+02  0.45594000000E+02  0.51100000000E-03 0. -1.
         11   -1    0    0    0    0 -0.00000000000E+00 -0.00000000000E+00 -0.45593999997E+02  0.45594000000E+02  0.51100000000E-03 0.  1.
    9900012    2    1    2    0    0 -0.93523723271E+00  0.41706653591E+00  0.58667085106E+00  0.90007832273E+02  0.90000094859E+02 0.  0.
        -12    1    1    2    0    0  0.93523723271E+00 -0.41706653591E+00 -0.58667085106E+00  0.11801677272E+01  0.00000000000E+00 0.  1.
         11    1    3    3    0    0  0.45339094440E+01  0.47701850300E+01  0.23295630227E+01  0.69812509054E+01  0.51100000000E-03 0. -1.
        -11    1    3    3    0    0  0.11995294154E+02  0.23044713561E+02 -0.30199066784E+02  0.39836284212E+02  0.51100000000E-03 0.  1.
         12    1    3    3    0    0 -0.17464440830E+02 -0.27397832055E+02  0.28456174612E+02  0.43190297156E+02  0.00000000000E+00 0. -1.
</event>
<event>
 7    1  0.2405891E-015  0.9000762E+02  0.7816164E-02  0.1186339E+00
        -11   -1    0    0    0    0  0.00000000000E+00  0.00000000000E+00  0.45593999997E+02  0.45594000000E+02  0.51100000000E-03 0. -1.
         11   -1    0    0    0    0 -0.00000000000E+00 -0.00000000000E+00 -0.45593999997E+02  0.45594000000E+02  0.51100000000E-03 0.  1.
    9900012    2    1    2    0    0  0.17190814137E+00  0.11113878413E+01  0.35855265530E+00  0.90007620676E+02  0.89999880468E+02 0.  0.
        -12    1    1    2    0    0 -0.17190814137E+00 -0.11113878413E+01 -0.35855265530E+00  0.11803793244E+01  0.00000000000E+00 0.  1.
         11    1    3    3    0    0  0.63292454159E+01  0.70311612424E+01 -0.27354320185E+01  0.98477999848E+01  0.51100000000E-03 0. -1.
        -11    1    3    3    0    0 -0.42526984246E+02 -0.93845591056E+01  0.89351140494E+00  0.43559300976E+02  0.51100000000E-03 0.  1.
         12    1    3    3    0    0  0.36369646971E+02  0.34647857046E+01  0.22004732689E+01  0.36600519715E+02  0.00000000000E+00 0. -1.
</event>
<event>
 7    1  0.2405891E-015  0.9000789E+02  0.7816164E-02  0.1186339E+00
        -11   -1    0    0    0    0  0.00000000000E+00  0.00000000000E+00  0.45593999997E+02  0.45594000000E+02  0.51100000000E-03 0.  1.
         11   -1    0    0    0    0 -0.00000000000E+00 -0.00000000000E+00 -0.45593999997E+02  0.45594000000E+02  0.51100000000E-03 0. -1.
    9900012    2    1    2    0    0  0.31847569561E+00  0.38542509522E+00 -0.10689657174E+01  0.90007886879E+02  0.90000150186E+02 0.  0.
        -12    1    1    2    0    0 -0.31847569561E+00 -0.38542509522E+00  0.10689657174E+01  0.11801131207E+01  0.00000000000E+00 0.  1.
         11    1    3    3    0    0  0.16845506400E+02  0.18705479033E+02  0.16140002470E+02  0.29902603762E+02  0.51100000000E-03 0. -1.
        -11    1    3    3    0    0  0.13798852640E+02 -0.42130517503E+01  0.95242659610E+01  0.17287850693E+02  0.51100000000E-03 0.  1.
         12    1    3    3    0    0 -0.30325883344E+02 -0.14107002188E+02 -0.26733234149E+02  0.42817432424E+02  0.00000000000E+00 0. -1.
</event>
<event>
 7    1  0.2405891E-015  0.9000775E+02  0.7816164E-02  0.1186339E+00
        -11   -1    0    0    0    0  0.00000000000E+00  0.00000000000E+00  0.45593999997E+02  0.45594000000E+02  0.51100000000E-03 0.  1.
         11   -1    0    0    0    0 -0.00000000000E+00 -0.00000000000E+00 -0.45593999997E+02  0.45594000000E+02  0.51100000000E-03 0. -1.
    9900012    2    1    2    0    0 -0.45130751767E+00 -0.99117386080E+00  0.45485327287E+00  0.90007747655E+02  0.90000009124E+02 0.  0.
        -12    1    1    2    0    0  0.45130751767E+00  0.99117386080E+00 -0.45485327287E+00  0.11802523449E+01  0.00000000000E+00 0.  1.
         11    1    3    3    0    0 -0.12833976500E+02 -0.10996740145E+01  0.14339893216E+01  0.12960577201E+02  0.51100000000E-03 0. -1.
        -11    1    3    3    0    0 -0.29279100404E+02  0.13480240207E+02 -0.66923929518E+01  0.32920673143E+02  0.51100000000E-03 0.  1.
         12    1    3    3    0    0  0.41661769387E+02 -0.13371740054E+02  0.57132569030E+01  0.44126497311E+02  0.00000000000E+00 0. -1.
</event>
<event>
 7    1  0.2405891E-015  0.9000794E+02  0.7816164E-02  0.1186339E+00
        -11   -1    0    0    0    0  0.00000000000E+00  0.00000000000E+00  0.45593999997E+02  0.45594000000E+02  0.51100000000E-03 0. -1.
         11   -1    0    0    0    0 -0.00000000000E+00 -0.00000000000E+00 -0.45593999997E+02  0.45594000000E+02  0.51100000000E-03 0.  1.
    9900012    2    1    2    0    0 -0.11334550538E+01  0.17339531906E+00  0.27884382658E+00  0.90007940605E+02  0.90000204621E+02 0.  0.
        -12    1    1    2    0    0  0.11334550538E+01 -0.17339531906E+00 -0.27884382658E+00  0.11800593949E+01  0.00000000000E+00 0.  1.
         11    1    3    3    0    0 -0.11844677118E+02 -0.94338542455E+01 -0.78738453186E+01  0.17067261711E+02  0.51100000000E-03 0. -1.
        -11    1    3    3    0    0 -0.25367977588E+02  0.21563068858E+02 -0.27270509100E+01  0.33405643721E+02  0.51100000000E-03 0.  1.
         12    1    3    3    0    0  0.36079199652E+02 -0.11955819293E+02  0.10879740055E+02  0.39535035173E+02  0.00000000000E+00 0. -1.
</event>
<event>
 7    1  0.2405891E-015  0.9000875E+02  0.7816164E-02  0.1186337E+00
        -11   -1    0    0    0    0  0.00000000000E+00  0.00000000000E+00  0.45593999997E+02  0.45594000000E+02  0.51100000000E-03 0.  1.
         11   -1    0    0    0    0 -0.00000000000E+00 -0.00000000000E+00 -0.45593999997E+02  0.45594000000E+02  0.51100000000E-03 0. -1.
    9900012    2    1    2    0    0  0.21971053345E+00  0.11518303010E+01  0.12505069998E+00  0.90008753021E+02  0.90001027755E+02 0.  0.
        -12    1    1    2    0    0 -0.21971053345E+00 -0.11518303010E+01 -0.12505069998E+00  0.11792469794E+01  0.00000000000E+00 0.  1.
         11    1    3    3    0    0  0.54979434152E+01  0.29102603061E+02  0.25108903240E+02  0.38828416255E+02  0.51100000000E-03 0. -1.
        -11    1    3    3    0    0 -0.67770921770E+01 -0.26130052702E+01  0.71762677167E+01  0.10210562841E+02  0.51100000000E-03 0.  1.
        -12    1    3    3    0    0  0.14988592953E+01 -0.25337767490E+02 -0.32160120256E+02  0.40969773925E+02  0.00000000000E+00 0.  1.
</event>
<event>
 7    1  0.2405891E-015  0.9000767E+02  0.7816164E-02  0.1186339E+00
        -11   -1    0    0    0    0  0.00000000000E+00  0.00000000000E+00  0.45593999997E+02  0.45594000000E+02  0.51100000000E-03 0.  1.
         11   -1    0    0    0    0 -0.00000000000E+00 -0.00000000000E+00 -0.45593999997E+02  0.45594000000E+02  0.51100000000E-03 0. -1.
    9900012    2    1    2    0    0 -0.33743377519E+00 -0.66117643839E+00 -0.91769962194E+00  0.90007665966E+02  0.89999926357E+02 0.  0.
        -12    1    1    2    0    0  0.33743377519E+00  0.66117643839E+00  0.91769962194E+00  0.11803340338E+01  0.00000000000E+00 0.  1.
         11    1    3    3    0    0  0.38495374357E+01 -0.46532614277E+01  0.92122627255E+01  0.11015333185E+02  0.51100000000E-03 0. -1.
        -11    1    3    3    0    0 -0.35780772924E+02 -0.13217941511E+02  0.75838965499E+01  0.38890785232E+02  0.51100000000E-03 0.  1.
         12    1    3    3    0    0  0.31593801713E+02  0.17210026500E+02 -0.17713858897E+02  0.40101547549E+02  0.00000000000E+00 0. -1.
</event>
<event>
 7    1  0.2405891E-015  0.9000771E+02  0.7816164E-02  0.1186339E+00
        -11   -1    0    0    0    0  0.00000000000E+00  0.00000000000E+00  0.45593999997E+02  0.45594000000E+02  0.51100000000E-03 0.  1.
         11   -1    0    0    0    0 -0.00000000000E+00 -0.00000000000E+00 -0.45593999997E+02  0.45594000000E+02  0.51100000000E-03 0. -1.
    9900012    2    1    2    0    0 -0.31652164606E+00  0.11369919736E+01 -0.11743599922E-01  0.90007714182E+02  0.89999975209E+02 0.  0.
        -12    1    1    2    0    0  0.31652164606E+00 -0.11369919736E+01  0.11743599922E-01  0.11802858182E+01  0.00000000000E+00 0.  1.
         11    1    3    3    0    0 -0.15384565906E+02 -0.18238108700E+01 -0.34399918858E+02  0.37727517437E+02  0.51100000000E-03 0. -1.
        -11    1    3    3    0    0 -0.38893540122E+01 -0.55677844024E+01 -0.45261293019E+01  0.81616876014E+01  0.51100000000E-03 0.  1.
        -12    1    3    3    0    0  0.18957398272E+02  0.85285872460E+01  0.38914304560E+02  0.44118509144E+02  0.00000000000E+00 0.  1.
</event>
<event>
 7    1  0.2405891E-015  0.9000771E+02  0.7816164E-02  0.1186339E+00
        -11   -1    0    0    0    0  0.00000000000E+00  0.00000000000E+00  0.45593999997E+02  0.45594000000E+02  0.51100000000E-03 0.  1.
         11   -1    0    0    0    0 -0.00000000000E+00 -0.00000000000E+00 -0.45593999997E+02  0.45594000000E+02  0.51100000000E-03 0. -1.
    9900012    2    1    2    0    0 -0.69591336646E+00 -0.78455134844E+00  0.54155045097E+00  0.90007706340E+02  0.89999967264E+02 0.  0.
        -12    1    1    2    0    0  0.69591336646E+00  0.78455134844E+00 -0.54155045097E+00  0.11802936596E+01  0.00000000000E+00 0.  1.
         11    1    3    3    0    0 -0.30323931006E+02 -0.29188693302E+02 -0.64809146876E+01  0.42585477146E+02  0.51100000000E-03 0. -1.
        -11    1    3    3    0    0  0.64238474712E+01  0.72921861941E+00 -0.62045619249E+01  0.89607011484E+01  0.51100000000E-03 0.  1.
        -12    1    3    3    0    0  0.23204170168E+02  0.27674923334E+02  0.13227027063E+02  0.38461528046E+02  0.00000000000E+00 0.  1.
</event>
<event>
 7    1  0.2405891E-015  0.9000788E+02  0.7816164E-02  0.1186339E+00
        -11   -1    0    0    0    0  0.00000000000E+00  0.00000000000E+00  0.45593999997E+02  0.45594000000E+02  0.51100000000E-03 0. -1.
         11   -1    0    0    0    0 -0.00000000000E+00 -0.00000000000E+00 -0.45593999997E+02  0.45594000000E+02  0.51100000000E-03 0.  1.
    9900012    2    1    2    0    0 -0.69827751101E+00 -0.29531646211E+00  0.90436980996E+00  0.90007877952E+02  0.90000141141E+02 0.  0.
        -12    1    1    2    0    0  0.69827751101E+00  0.29531646211E+00 -0.90436980996E+00  0.11801220481E+01  0.00000000000E+00 0.  1.
         11    1    3    3    0    0 -0.11192742382E+02 -0.39758031620E+01  0.34954205121E+02  0.36917217510E+02  0.51100000000E-03 0. -1.
        -11    1    3    3    0    0 -0.83520761543E+01  0.20649309289E+01  0.48206257428E+01  0.98620255852E+01  0.51100000000E-03 0.  1.
        -12    1    3    3    0    0  0.18846541025E+02  0.16155557709E+01 -0.38870461053E+02  0.43228634857E+02  0.00000000000E+00 0.  1.
</event>
<event>
 7    1  0.2405891E-015  0.9000767E+02  0.7816164E-02  0.1186339E+00
        -11   -1    0    0    0    0  0.00000000000E+00  0.00000000000E+00  0.45593999997E+02  0.45594000000E+02  0.51100000000E-03 0.  1.
         11   -1    0    0    0    0 -0.00000000000E+00 -0.00000000000E+00 -0.45593999997E+02  0.45594000000E+02  0.51100000000E-03 0. -1.
    9900012    2    1    2    0    0 -0.11244961153E+01  0.18534753368E+00 -0.30712790550E+00  0.90007672600E+02  0.89999933078E+02 0.  0.
        -12    1    1    2    0    0  0.11244961153E+01 -0.18534753368E+00  0.30712790550E+00  0.11803274003E+01  0.00000000000E+00 0.  1.
         11    1    3    3    0    0  0.89711478116E+01 -0.56703533575E+00  0.72713384640E+00  0.90184115021E+01  0.51100000000E-03 0. -1.
        -11    1    3    3    0    0 -0.79869038818E+01  0.19366486229E+02  0.34762674447E+02  0.40586881593E+02  0.51100000000E-03 0.  1.
         12    1    3    3    0    0 -0.21087400452E+01 -0.18614103359E+02 -0.35796936199E+02  0.40402379505E+02  0.00000000000E+00 0. -1.
</event>
<event>
 7    1  0.2405891E-015  0.9000769E+02  0.7816164E-02  0.1186339E+00
        -11   -1    0    0    0    0  0.00000000000E+00  0.00000000000E+00  0.45593999997E+02  0.45594000000E+02  0.51100000000E-03 0. -1.
         11   -1    0    0    0    0 -0.00000000000E+00 -0.00000000000E+00 -0.45593999997E+02  0.45594000000E+02  0.51100000000E-03 0.  1.
    9900012    2    1    2    0    0  0.53687146410E+00 -0.34573470149E+00  0.99265335430E+00  0.90007693203E+02  0.89999953953E+02 0.  0.
        -12    1    1    2    0    0 -0.53687146410E+00  0.34573470149E+00 -0.99265335430E+00  0.11803067968E+01  0.00000000000E+00 0.  1.
         11    1    3    3    0    0 -0.82506310574E+01 -0.11252713775E+01  0.29867636480E+01  0.88464629016E+01  0.51100000000E-03 0. -1.
        -11    1    3    3    0    0 -0.14558005263E+02 -0.35044255413E+02  0.32250581743E+01  0.38084594722E+02  0.51100000000E-03 0.  1.
         12    1    3    3    0    0  0.23345507785E+02  0.35823792089E+02 -0.52191684680E+01  0.43076635579E+02  0.00000000000E+00 0. -1.
</event>
<event>
 7    1  0.2405891E-015  0.9000844E+02  0.7816164E-02  0.1186338E+00
        -11   -1    0    0    0    0  0.00000000000E+00  0.00000000000E+00  0.45593999997E+02  0.45594000000E+02  0.51100000000E-03 0.  1.
         11   -1    0    0    0    0 -0.00000000000E+00 -0.00000000000E+00 -0.45593999997E+02  0.45594000000E+02  0.51100000000E-03 0. -1.
    9900012    2    1    2    0    0 -0.93787782274E+00  0.31904228241E-03 -0.71536870381E+00  0.90008437668E+02  0.90000708243E+02 0.  0.
        -12    1    1    2    0    0  0.93787782274E+00 -0.31904228241E-03  0.71536870381E+00  0.11795623318E+01  0.00000000000E+00 0.  1.
         11    1    3    3    0    0 -0.39726646807E+00  0.77494651385E+01 -0.63014241780E+01  0.99959980748E+01  0.51100000000E-03 0. -1.
        -11    1    3    3    0    0 -0.89202011973E+01  0.20707941779E+02  0.32768738367E+02  0.39776614443E+02  0.51100000000E-03 0.  1.
         12    1    3    3    0    0  0.83795898427E+01 -0.28457087875E+02 -0.27182682893E+02  0.40235825150E+02  0.00000000000E+00 0. -1.
</event>
<event>
 7    1  0.2405891E-015  0.9000775E+02  0.7816164E-02  0.1186339E+00
        -11   -1    0    0    0    0  0.00000000000E+00  0.00000000000E+00  0.45593999997E+02  0.45594000000E+02  0.51100000000E-03 0.  1.
         11   -1    0    0    0    0 -0.00000000000E+00 -0.00000000000E+00 -0.45593999997E+02  0.45594000000E+02  0.51100000000E-03 0. -1.
    9900012    2    1    2    0    0 -0.60293109426E+00  0.90731476119E+00 -0.45413030074E+00  0.90007754131E+02  0.90000015686E+02 0.  0.
        -12    1    1    2    0    0  0.60293109426E+00 -0.90731476119E+00  0.45413030074E+00  0.11802458686E+01  0.00000000000E+00 0.  1.
         11    1    3    3    0    0  0.96591757564E+01 -0.27021004293E+02  0.21098309316E+02  0.35617032520E+02  0.51100000000E-03 0. -1.
        -11    1    3    3    0    0  0.47549741553E+01 -0.24048697164E+01  0.78962974175E+01  0.95260007735E+01  0.51100000000E-03 0.  1.
        -12    1    3    3    0    0 -0.15017081006E+02  0.30333188770E+02 -0.29448737035E+02  0.44864720838E+02  0.00000000000E+00 0.  1.
</event>
<event>
 7    1  0.2405891E-015  0.9000785E+02  0.7816164E-02  0.1186339E+00
        -11   -1    0    0    0    0  0.00000000000E+00  0.00000000000E+00  0.45593999997E+02  0.45594000000E+02  0.51100000000E-03 0.  1.
         11   -1    0    0    0    0 -0.00000000000E+00 -0.00000000000E+00 -0.45593999997E+02  0.45594000000E+02  0.51100000000E-03 0. -1.
    9900012    2    1    2    0    0  0.54458363381E+00 -0.89871909071E+00  0.53710197542E+00  0.90007853454E+02  0.90000116319E+02 0.  0.
        -12    1    1    2    0    0 -0.54458363381E+00  0.89871909071E+00 -0.53710197542E+00  0.11801465461E+01  0.00000000000E+00 0.  1.
         11    1    3    3    0    0 -0.79392862224E+01 -0.51211962147E+01 -0.13972093821E+01  0.95504508118E+01  0.51100000000E-03 0. -1.
        -11    1    3    3    0    0  0.22803817693E+02  0.16873211622E+02 -0.31225021457E+02  0.42186743618E+02  0.51100000000E-03 0.  1.
         12    1    3    3    0    0 -0.14319947837E+02 -0.12650734498E+02  0.33159332815E+02  0.38270659024E+02  0.00000000000E+00 0. -1.
</event>
<event>
 7    1  0.2405891E-015  0.9000772E+02  0.7816164E-02  0.1186339E+00
        -11   -1    0    0    0    0  0.00000000000E+00  0.00000000000E+00  0.45593999997E+02  0.45594000000E+02  0.51100000000E-03 0.  1.
         11   -1    0    0    0    0 -0.00000000000E+00 -0.00000000000E+00 -0.45593999997E+02  0.45594000000E+02  0.51100000000E-03 0. -1.
    9900012    2    1    2    0    0  0.86777936786E+00 -0.69736062991E+00 -0.39206482560E+00  0.90007717107E+02  0.89999978173E+02 0.  0.
        -12    1    1    2    0    0 -0.86777936786E+00  0.69736062991E+00  0.39206482560E+00  0.11802828927E+01  0.00000000000E+00 0.  1.
         11    1    3    3    0    0 -0.87459024151E+01  0.48828539953E+01  0.83961185668E+00  0.10051767035E+02  0.51100000000E-03 0. -1.
        -11    1    3    3    0    0 -0.15741917526E+02  0.28206987111E+02  0.13788243543E+02  0.35122040795E+02  0.51100000000E-03 0.  1.
         12    1    3    3    0    0  0.25355599309E+02 -0.33787201737E+02 -0.15019920226E+02  0.44833909278E+02  0.00000000000E+00 0. -1.
</event>
<event>
 7    1  0.2405891E-015  0.9000773E+02  0.7816164E-02  0.1186339E+00
        -11   -1    0    0    0    0  0.00000000000E+00  0.00000000000E+00  0.45593999997E+02  0.45594000000E+02  0.51100000000E-03 0. -1.
         11   -1    0    0    0    0 -0.00000000000E+00 -0.00000000000E+00 -0.45593999997E+02  0.45594000000E+02  0.51100000000E-03 0.  1.
    9900012    2    1    2    0    0 -0.19665560708E+00 -0.49291362451E+00  0.10542338176E+01  0.90007726213E+02  0.89999987399E+02 0.  0.
        -12    1    1    2    0    0  0.19665560708E+00  0.49291362451E+00 -0.10542338176E+01  0.11802737866E+01  0.00000000000E+00 0.  1.
         11    1    3    3    0    0  0.78984283613E+01  0.34998437934E+02  0.21854298640E+02  0.42010548648E+02  0.51100000000E-03 0. -1.
        -11    1    3    3    0    0 -0.88587955193E+01 -0.14965648357E+01 -0.65994134184E+01  0.11147655452E+02  0.51100000000E-03 0.  1.
        -12    1    3    3    0    0  0.76371155087E+00 -0.33994786723E+02 -0.14200651404E+02  0.36849522113E+02  0.00000000000E+00 0.  1.
</event>
<event>
 7    1  0.2405891E-015  0.9000698E+02  0.7816164E-02  0.1186341E+00
        -11   -1    0    0    0    0  0.00000000000E+00  0.00000000000E+00  0.45593999997E+02  0.45594000000E+02  0.51100000000E-03 0. -1.
         11   -1    0    0    0    0 -0.00000000000E+00 -0.00000000000E+00 -0.45593999997E+02  0.45594000000E+02  0.51100000000E-03 0.  1.
    9900012    2    1    2    0    0 -0.11053420250E+01 -0.21587873929E+00 -0.35557178009E+00  0.90006976752E+02  0.89999228041E+02 0.  0.
        -12    1    1    2    0    0  0.11053420250E+01  0.21587873929E+00  0.35557178009E+00  0.11810232483E+01  0.00000000000E+00 0.  1.
         11    1    3    3    0    0 -0.34140927970E+02 -0.19877212412E+02 -0.16743991102E+02  0.42907665681E+02  0.51100000000E-03 0. -1.
        -11    1    3    3    0    0  0.47515092125E+01  0.59241502716E+01 -0.49805797438E+01  0.90817713626E+01  0.51100000000E-03 0.  1.
        -12    1    3    3    0    0  0.28284076732E+02  0.13737183401E+02  0.21368999066E+02  0.38017539708E+02  0.00000000000E+00 0.  1.
</event>
<event>
 7    1  0.2405891E-015  0.9000761E+02  0.7816164E-02  0.1186339E+00
        -11   -1    0    0    0    0  0.00000000000E+00  0.00000000000E+00  0.45593999997E+02  0.45594000000E+02  0.51100000000E-03 0. -1.
         11   -1    0    0    0    0 -0.00000000000E+00 -0.00000000000E+00 -0.45593999997E+02  0.45594000000E+02  0.51100000000E-03 0.  1.
    9900012    2    1    2    0    0  0.22103920108E+00 -0.11575842618E+01 -0.66745287694E-01  0.90007612528E+02  0.89999872213E+02 0.  0.
        -12    1    1    2    0    0 -0.22103920108E+00  0.11575842618E+01  0.66745287694E-01  0.11803874724E+01  0.00000000000E+00 0.  1.
         11    1    3    3    0    0 -0.16161227145E+02  0.78906965916E+01  0.35643657650E+02  0.39923911212E+02  0.51100000000E-03 0. -1.
        -11    1    3    3    0    0  0.77670857599E+01  0.60673568595E+01  0.54369913233E+00  0.98709700369E+01  0.51100000000E-03 0.  1.
        -12    1    3    3    0    0  0.86151805858E+01 -0.15115637713E+02 -0.36254102070E+02  0.40212731279E+02  0.00000000000E+00 0.  1.
</event>
<event>
 7    1  0.2405891E-015  0.9000772E+02  0.7816164E-02  0.1186339E+00
        -11   -1    0    0    0    0  0.00000000000E+00  0.00000000000E+00  0.45593999997E+02  0.45594000000E+02  0.51100000000E-03 0.  1.
         11   -1    0    0    0    0 -0.00000000000E+00 -0.00000000000E+00 -0.45593999997E+02  0.45594000000E+02  0.51100000000E-03 0. -1.
    9900012    2    1    2    0    0  0.91949406306E+00 -0.39148270560E+00 -0.62795051737E+00  0.90007724654E+02  0.89999985819E+02 0.  0.
        -12    1    1    2    0    0 -0.91949406306E+00  0.39148270560E+00  0.62795051737E+00  0.11802753463E+01  0.00000000000E+00 0.  1.
         11    1    3    3    0    0  0.28687386247E+00 -0.36306367377E+00  0.10913178371E+02  0.10922983762E+02  0.51100000000E-03 0. -1.
        -11    1    3    3    0    0 -0.34816097709E+02 -0.12825078667E+02  0.58785212799E+01  0.37565946217E+02  0.51100000000E-03 0.  1.
         12    1    3    3    0    0  0.35448717910E+02  0.12796659635E+02 -0.17419650168E+02  0.41518794675E+02  0.00000000000E+00 0. -1.
</event>
<event>
 7    1  0.2405891E-015  0.9000773E+02  0.7816164E-02  0.1186339E+00
        -11   -1    0    0    0    0  0.00000000000E+00  0.00000000000E+00  0.45593999997E+02  0.45594000000E+02  0.51100000000E-03 0.  1.
         11   -1    0    0    0    0 -0.00000000000E+00 -0.00000000000E+00 -0.45593999997E+02  0.45594000000E+02  0.51100000000E-03 0. -1.
    9900012    2    1    2    0    0 -0.11314463548E+01 -0.21249851854E+00 -0.26020935617E+00  0.90007730801E+02  0.89999992047E+02 0.  0.
        -12    1    1    2    0    0  0.11314463548E+01  0.21249851854E+00  0.26020935617E+00  0.11802691994E+01  0.00000000000E+00 0.  1.
         11    1    3    3    0    0  0.33251634621E+01 -0.50585548342E+01 -0.96413680417E+01  0.11384272794E+02  0.51100000000E-03 0. -1.
        -11    1    3    3    0    0 -0.65324655808E+01 -0.35047164175E+02  0.14224422073E+02  0.38383733623E+02  0.51100000000E-03 0.  1.
        -12    1    3    3    0    0  0.20758557639E+01  0.39893220491E+02 -0.48432633874E+01  0.40239724384E+02  0.00000000000E+00 0.  1.
</event>
<event>
 7    1  0.2405891E-015  0.9000771E+02  0.7816164E-02  0.1186339E+00
        -11   -1    0    0    0    0  0.00000000000E+00  0.00000000000E+00  0.45593999997E+02  0.45594000000E+02  0.51100000000E-03 0.  1.
         11   -1    0    0    0    0 -0.00000000000E+00 -0.00000000000E+00 -0.45593999997E+02  0.45594000000E+02  0.51100000000E-03 0. -1.
    9900012    2    1    2    0    0 -0.72474698839E+00  0.77917182250E+00 -0.51060451097E+00  0.90007710250E+02  0.89999971226E+02 0.  0.
        -12    1    1    2    0    0  0.72474698839E+00 -0.77917182250E+00  0.51060451097E+00  0.11802897495E+01  0.00000000000E+00 0.  1.
         11    1    3    3    0    0 -0.31291696206E+02  0.15498445846E+02  0.18678345232E+02  0.39601169881E+02  0.51100000000E-03 0. -1.
        -11    1    3    3    0    0 -0.26448556052E+01 -0.93129291129E+01  0.29583173429E+01  0.10123119657E+02  0.51100000000E-03 0.  1.
        -12    1    3    3    0    0  0.33211804823E+02 -0.54063449101E+01 -0.22147267086E+02  0.40283420712E+02  0.00000000000E+00 0.  1.
</event>
<event>
 7    1  0.2405891E-015  0.9000741E+02  0.7816164E-02  0.1186340E+00
        -11   -1    0    0    0    0  0.00000000000E+00  0.00000000000E+00  0.45593999997E+02  0.45594000000E+02  0.51100000000E-03 0.  1.
         11   -1    0    0    0    0 -0.00000000000E+00 -0.00000000000E+00 -0.45593999997E+02  0.45594000000E+02  0.51100000000E-03 0. -1.
    9900012    2    1    2    0    0 -0.54903536771E+00 -0.90530721042E+00 -0.52226696039E+00  0.90007413807E+02  0.89999670869E+02 0.  0.
        -12    1    1    2    0    0  0.54903536771E+00  0.90530721042E+00  0.52226696039E+00  0.11805861926E+01  0.00000000000E+00 0.  1.
         11    1    3    3    0    0  0.19978484680E+02  0.34753306820E+02 -0.13393517514E+01  0.40108927290E+02  0.51100000000E-03 0. -1.
        -11    1    3    3    0    0  0.55878682942E+01 -0.58242208152E+01  0.57967866753E+01  0.99372308114E+01  0.51100000000E-03 0.  1.
        -12    1    3    3    0    0 -0.26115388342E+02 -0.29834393215E+02 -0.49797018843E+01  0.39961255706E+02  0.00000000000E+00 0.  1.
</event>
<event>
 7    1  0.2405891E-015  0.9000774E+02  0.7816164E-02  0.1186339E+00
        -11   -1    0    0    0    0  0.00000000000E+00  0.00000000000E+00  0.45593999997E+02  0.45594000000E+02  0.51100000000E-03 0.  1.
         11   -1    0    0    0    0 -0.00000000000E+00 -0.00000000000E+00 -0.45593999997E+02  0.45594000000E+02  0.51100000000E-03 0. -1.
    9900012    2    1    2    0    0 -0.59641786692E-01  0.11750363819E+01  0.93536553576E-01  0.90007738703E+02  0.90000000054E+02 0.  0.
        -12    1    1    2    0    0  0.59641786692E-01 -0.11750363819E+01 -0.93536553576E-01  0.11802612966E+01  0.00000000000E+00 0.  1.
         11    1    3    3    0    0 -0.92015313335E+01 -0.24080244754E+02  0.20927829287E+02  0.33203921534E+02  0.51100000000E-03 0. -1.
        -11    1    3    3    0    0 -0.27884465798E+01 -0.10105008108E+02  0.47997149679E+01  0.11529262215E+02  0.51100000000E-03 0.  1.
        -12    1    3    3    0    0  0.11930336127E+02  0.35360289244E+02 -0.25634007702E+02  0.45274554955E+02  0.00000000000E+00 0.  1.
</event>
<event>
 7    1  0.2405891E-015  0.9000776E+02  0.7816164E-02  0.1186339E+00
        -11   -1    0    0    0    0  0.00000000000E+00  0.00000000000E+00  0.45593999997E+02  0.45594000000E+02  0.51100000000E-03 0. -1.
         11   -1    0    0    0    0 -0.00000000000E+00 -0.00000000000E+00 -0.45593999997E+02  0.45594000000E+02  0.51100000000E-03 0.  1.
    9900012    2    1    2    0    0 -0.71311932749E+00 -0.54028810266E+00  0.76975454433E+00  0.90007757454E+02  0.90000019052E+02 0.  0.
        -12    1    1    2    0    0  0.71311932749E+00  0.54028810266E+00 -0.76975454433E+00  0.11802425461E+01  0.00000000000E+00 0.  1.
         11    1    3    3    0    0  0.43972787568E+01  0.40319811830E+01 -0.97995627449E+01  0.11472766143E+02  0.51100000000E-03 0. -1.
        -11    1    3    3    0    0  0.25026438751E+02  0.17163022957E+02 -0.14579939607E+02  0.33666996195E+02  0.51100000000E-03 0.  1.
         12    1    3    3    0    0 -0.30136836835E+02 -0.21735292242E+02  0.25149256897E+02  0.44867995116E+02  0.00000000000E+00 0. -1.
</event>
<event>
 7    1  0.2405891E-015  0.9000776E+02  0.7816164E-02  0.1186339E+00
        -11   -1    0    0    0    0  0.00000000000E+00  0.00000000000E+00  0.45593999997E+02  0.45594000000E+02  0.51100000000E-03 0.  1.
         11   -1    0    0    0    0 -0.00000000000E+00 -0.00000000000E+00 -0.45593999997E+02  0.45594000000E+02  0.51100000000E-03 0. -1.
    9900012    2    1    2    0    0  0.83393041277E+00  0.79376339297E+00  0.25974238418E+00  0.90007760040E+02  0.90000021672E+02 0.  0.
        -12    1    1    2    0    0 -0.83393041277E+00 -0.79376339297E+00 -0.25974238418E+00  0.11802399601E+01  0.00000000000E+00 0.  1.
         11    1    3    3    0    0 -0.34395324980E+02 -0.20073606335E+02 -0.56349241516E+01  0.40221143970E+02  0.51100000000E-03 0. -1.
        -11    1    3    3    0    0  0.63730366084E+01 -0.63847517200E+01  0.44759003556E+01  0.10070468430E+02  0.51100000000E-03 0.  1.
        -12    1    3    3    0    0  0.28856218784E+02  0.27252121448E+02  0.14187661802E+01  0.39716147641E+02  0.00000000000E+00 0.  1.
</event>
<event>
 7    1  0.2405891E-015  0.9000768E+02  0.7816164E-02  0.1186339E+00
        -11   -1    0    0    0    0  0.00000000000E+00  0.00000000000E+00  0.45593999997E+02  0.45594000000E+02  0.51100000000E-03 0.  1.
         11   -1    0    0    0    0 -0.00000000000E+00 -0.00000000000E+00 -0.45593999997E+02  0.45594000000E+02  0.51100000000E-03 0. -1.
    9900012    2    1    2    0    0  0.56331418097E+00  0.99893544206E+00 -0.27921217287E+00  0.90007680416E+02  0.89999940997E+02 0.  0.
        -12    1    1    2    0    0 -0.56331418097E+00 -0.99893544206E+00  0.27921217287E+00  0.11803195844E+01  0.00000000000E+00 0.  1.
         11    1    3    3    0    0  0.19210700024E+01 -0.58624918624E+01 -0.77825246252E+01  0.99311132606E+01  0.51100000000E-03 0. -1.
        -11    1    3    3    0    0  0.33745956314E+02 -0.22155688135E+01 -0.15432123200E+02  0.37173226110E+02  0.51100000000E-03 0.  1.
         12    1    3    3    0    0 -0.35103712136E+02  0.90769961180E+01  0.22935435652E+02  0.42903341045E+02  0.00000000000E+00 0. -1.
</event>
<event>
 7    1  0.2405891E-015  0.9000774E+02  0.7816164E-02  0.1186339E+00
        -11   -1    0    0    0    0  0.00000000000E+00  0.00000000000E+00  0.45593999997E+02  0.45594000000E+02  0.51100000000E-03 0. -1.
         11   -1    0    0    0    0 -0.00000000000E+00 -0.00000000000E+00 -0.45593999997E+02  0.45594000000E+02  0.51100000000E-03 0.  1.
    9900012    2    1    2    0    0 -0.99292959372E+00  0.30325484033E+00  0.56137219667E+00  0.90007740952E+02  0.90000002333E+02 0.  0.
        -12    1    1    2    0    0  0.99292959372E+00 -0.30325484033E+00 -0.56137219667E+00  0.11802590476E+01  0.00000000000E+00 0.  1.
         11    1    3    3    0    0 -0.24680563431E+02 -0.23661685029E+02 -0.18953988144E+02  0.39092956099E+02  0.51100000000E-03 0. -1.
        -11    1    3    3    0    0  0.11754911640E+00 -0.29147290115E+00 -0.75747302615E+01  0.75812474595E+01  0.51100000000E-03 0.  1.
        -12    1    3    3    0    0  0.23570084720E+02  0.24256412771E+02  0.27090090603E+02  0.43333537394E+02  0.00000000000E+00 0.  1.
</event>
<event>
 7    1  0.2405891E-015  0.9000781E+02  0.7816164E-02  0.1186339E+00
        -11   -1    0    0    0    0  0.00000000000E+00  0.00000000000E+00  0.45593999997E+02  0.45594000000E+02  0.51100000000E-03 0.  1.
         11   -1    0    0    0    0 -0.00000000000E+00 -0.00000000000E+00 -0.45593999997E+02  0.45594000000E+02  0.51100000000E-03 0. -1.
    9900012    2    1    2    0    0  0.87215309581E+00  0.66664594262E-01 -0.79230980911E+00  0.90007809327E+02  0.90000071610E+02 0.  0.
        -12    1    1    2    0    0 -0.87215309581E+00 -0.66664594262E-01  0.79230980911E+00  0.11801906728E+01  0.00000000000E+00 0.  1.
         11    1    3    3    0    0 -0.18541091773E+02  0.11770238013E+01 -0.33334081347E+02  0.38161740640E+02  0.51100000000E-03 0. -1.
        -11    1    3    3    0    0 -0.26626734398E+00  0.98033405509E+01 -0.25735588678E+01  0.10139013254E+02  0.51100000000E-03 0.  1.
        -12    1    3    3    0    0  0.19679512213E+02 -0.10913699758E+02  0.35115330406E+02  0.41707055433E+02  0.00000000000E+00 0.  1.
</event>
<event>
 7    1  0.2405891E-015  0.9000758E+02  0.7816164E-02  0.1186339E+00
        -11   -1    0    0    0    0  0.00000000000E+00  0.00000000000E+00  0.45593999997E+02  0.45594000000E+02  0.51100000000E-03 0. -1.
         11   -1    0    0    0    0 -0.00000000000E+00 -0.00000000000E+00 -0.45593999997E+02  0.45594000000E+02  0.51100000000E-03 0.  1.
    9900012    2    1    2    0    0 -0.32788061940E+00  0.10025535035E+01  0.52986829443E+00  0.90007584972E+02  0.89999844294E+02 0.  0.
        -12    1    1    2    0    0  0.32788061940E+00 -0.10025535035E+01 -0.52986829443E+00  0.11804150276E+01  0.00000000000E+00 0.  1.
         11    1    3    3    0    0  0.12281681522E+02 -0.30571002548E+02  0.11451252350E+02  0.34879178294E+02  0.51100000000E-03 0. -1.
        -11    1    3    3    0    0 -0.10509217173E+02 -0.73349469047E+01 -0.98237619937E+01  0.16147798353E+02  0.51100000000E-03 0.  1.
        -12    1    3    3    0    0 -0.21003449689E+01  0.38908502956E+02 -0.10976220621E+01  0.38980608326E+02  0.00000000000E+00 0.  1.
</event>
<event>
 7    1  0.2405891E-015  0.9000776E+02  0.7816164E-02  0.1186339E+00
        -11   -1    0    0    0    0  0.00000000000E+00  0.00000000000E+00  0.45593999997E+02  0.45594000000E+02  0.51100000000E-03 0.  1.
         11   -1    0    0    0    0 -0.00000000000E+00 -0.00000000000E+00 -0.45593999997E+02  0.45594000000E+02  0.51100000000E-03 0. -1.
    9900012    2    1    2    0    0 -0.66361531742E+00  0.51963693852E+00 -0.82617038944E+00  0.90007760469E+02  0.90000022108E+02 0.  0.
        -12    1    1    2    0    0  0.66361531742E+00 -0.51963693852E+00  0.82617038944E+00  0.11802395307E+01  0.00000000000E+00 0.  1.
         11    1    3    3    0    0  0.13706544791E+02 -0.19923978140E+02 -0.27548835206E+02  0.36657503959E+02  0.51100000000E-03 0. -1.
        -11    1    3    3    0    0  0.82738165061E+01  0.16752986962E+01 -0.52236128840E+01  0.99271746797E+01  0.51100000000E-03 0.  1.
        -12    1    3    3    0    0 -0.22643976615E+02  0.18768316382E+02  0.31946277701E+02  0.43423081831E+02  0.00000000000E+00 0.  1.
</event>
<event>
 7    1  0.2405891E-015  0.9000776E+02  0.7816164E-02  0.1186339E+00
        -11   -1    0    0    0    0  0.00000000000E+00  0.00000000000E+00  0.45593999997E+02  0.45594000000E+02  0.51100000000E-03 0. -1.
         11   -1    0    0    0    0 -0.00000000000E+00 -0.00000000000E+00 -0.45593999997E+02  0.45594000000E+02  0.51100000000E-03 0.  1.
    9900012    2    1    2    0    0 -0.11649143343E+01  0.79452289124E-01 -0.17212695600E+00  0.90007760295E+02  0.90000021931E+02 0.  0.
        -12    1    1    2    0    0  0.11649143343E+01 -0.79452289124E-01  0.17212695600E+00  0.11802397051E+01  0.00000000000E+00 0.  1.
         11    1    3    3    0    0 -0.48989614562E+01 -0.20658773808E+02  0.78597378855E+01  0.22639793252E+02  0.51100000000E-03 0. -1.
        -11    1    3    3    0    0 -0.29616765446E+02  0.56083377305E+01 -0.56524030048E+01  0.30668483946E+02  0.51100000000E-03 0.  1.
        -12    1    3    3    0    0  0.33350812568E+02  0.15129888367E+02 -0.23794618367E+01  0.36699483097E+02  0.00000000000E+00 0.  1.
</event>
<event>
 7    1  0.2673633E-015  0.9000787E+02  0.7816164E-02  0.1186339E+00
        -11   -1    0    0    0    0  0.00000000000E+00  0.00000000000E+00  0.45593999997E+02  0.45594000000E+02  0.51100000000E-03 0. -1.
         11   -1    0    0    0    0 -0.00000000000E+00 -0.00000000000E+00 -0.45593999997E+02  0.45594000000E+02  0.51100000000E-03 0.  1.
    9900012    2    1    2    0    0  0.10740889934E+01 -0.48712856725E+00 -0.41698508887E-01  0.90007872815E+02  0.90000135936E+02 0.  0.
        -12    1    1    2    0    0 -0.10740889934E+01  0.48712856725E+00  0.41698508887E-01  0.11801271849E+01  0.00000000000E+00 0.  1.
         11    1    3    3    0    0 -0.14968402374E+01  0.80420860811E+01  0.50782852170E+01  0.96283259312E+01  0.51100000000E-03 0. -1.
        -11    1    3    3    0    0  0.30721497938E+02  0.22350026351E+02 -0.66391683288E+01  0.38566989379E+02  0.51100000000E-03 0.  1.
         12    1    3    3    0    0 -0.28150568707E+02 -0.30879240999E+02  0.15191846029E+01  0.41812557505E+02  0.00000000000E+00 0. -1.
</event>
<event>
 7    1  0.2559651E-015  0.9000783E+02  0.7816164E-02  0.1186339E+00
        -11   -1    0    0    0    0  0.00000000000E+00  0.00000000000E+00  0.45593999997E+02  0.45594000000E+02  0.51100000000E-03 0.  1.
         11   -1    0    0    0    0 -0.00000000000E+00 -0.00000000000E+00 -0.45593999997E+02  0.45594000000E+02  0.51100000000E-03 0. -1.
    9900012    2    1    2    0    0  0.29571306442E+00 -0.94291460382E+00 -0.64518943682E+00  0.90007829006E+02  0.90000091548E+02 0.  0.
        -12    1    1    2    0    0 -0.29571306442E+00  0.94291460382E+00  0.64518943682E+00  0.11801709944E+01  0.00000000000E+00 0.  1.
         11    1    3    3    0    0 -0.27066708046E+01  0.51275548173E+01  0.70661723151E+01  0.91404965235E+01  0.51100000000E-03 0. -1.
        -11    1    3    3    0    0 -0.22917877269E+02  0.27226788032E+02  0.68251921674E+01  0.36236864288E+02  0.51100000000E-03 0.  1.
         12    1    3    3    0    0  0.25920261138E+02 -0.33297257453E+02 -0.14536553919E+02  0.44630468194E+02  0.00000000000E+00 0. -1.
</event>
<event>
 7    1  0.2405891E-015  0.9000780E+02  0.7816164E-02  0.1186339E+00
        -11   -1    0    0    0    0  0.00000000000E+00  0.00000000000E+00  0.45593999997E+02  0.45594000000E+02  0.51100000000E-03 0. -1.
         11   -1    0    0    0    0 -0.00000000000E+00 -0.00000000000E+00 -0.45593999997E+02  0.45594000000E+02  0.51100000000E-03 0.  1.
    9900012    2    1    2    0    0 -0.57223213830E+00 -0.21118398231E+00  0.10103603182E+01  0.90007798209E+02  0.90000060346E+02 0.  0.
        -12    1    1    2    0    0  0.57223213830E+00  0.21118398231E+00 -0.10103603182E+01  0.11802017908E+01  0.00000000000E+00 0.  1.
         11    1    3    3    0    0  0.16967474726E+02 -0.23622961162E+02 -0.28724421227E+02  0.40878256662E+02  0.51100000000E-03 0. -1.
        -11    1    3    3    0    0 -0.24950701529E+01 -0.56237447226E+01  0.68986961434E+01  0.92435863448E+01  0.51100000000E-03 0.  1.
        -12    1    3    3    0    0 -0.15044636711E+02  0.29035521902E+02  0.22836085402E+02  0.39885955202E+02  0.00000000000E+00 0.  1.
</event>
<event>
 7    1  0.2405891E-015  0.9000786E+02  0.7816164E-02  0.1186339E+00
        -11   -1    0    0    0    0  0.00000000000E+00  0.00000000000E+00  0.45593999997E+02  0.45594000000E+02  0.51100000000E-03 0.  1.
         11   -1    0    0    0    0 -0.00000000000E+00 -0.00000000000E+00 -0.45593999997E+02  0.45594000000E+02  0.51100000000E-03 0. -1.
    9900012    2    1    2    0    0  0.49168734961E-01  0.93506161265E+00 -0.71831895461E+00  0.90007855981E+02  0.90000118880E+02 0.  0.
        -12    1    1    2    0    0 -0.49168734961E-01 -0.93506161265E+00  0.71831895461E+00  0.11801440185E+01  0.00000000000E+00 0.  1.
         11    1    3    3    0    0 -0.65805199235E+01  0.27350458342E+02 -0.26371030658E+02  0.38558813159E+02  0.51100000000E-03 0. -1.
        -11    1    3    3    0    0  0.44410790233E+01  0.16855030493E+01 -0.69078733909E+01  0.83834848641E+01  0.51100000000E-03 0.  1.
        -12    1    3    3    0    0  0.21886096351E+01 -0.28100899779E+02  0.32560585095E+02  0.43065557958E+02  0.00000000000E+00 0.  1.
</event>
<event>
 7    1  0.2405891E-015  0.9000768E+02  0.7816164E-02  0.1186339E+00
        -11   -1    0    0    0    0  0.00000000000E+00  0.00000000000E+00  0.45593999997E+02  0.45594000000E+02  0.51100000000E-03 0. -1.
         11   -1    0    0    0    0 -0.00000000000E+00 -0.00000000000E+00 -0.45593999997E+02  0.45594000000E+02  0.51100000000E-03 0.  1.
    9900012    2    1    2    0    0 -0.98809015783E+00 -0.34548484476E+00 -0.54540254344E+00  0.90007683995E+02  0.89999944623E+02 0.  0.
        -12    1    1    2    0    0  0.98809015783E+00  0.34548484476E+00  0.54540254344E+00  0.11803160053E+01  0.00000000000E+00 0.  1.
         11    1    3    3    0    0 -0.32670344215E+02  0.93277179173E+01 -0.20771113126E+02  0.39822064907E+02  0.51100000000E-03 0. -1.
        -11    1    3    3    0    0  0.54469797884E+01  0.11101039178E+01 -0.82792852744E+01  0.99723860956E+01  0.51100000000E-03 0.  1.
        -12    1    3    3    0    0  0.26235274269E+02 -0.10783306680E+02  0.28504995857E+02  0.40213232993E+02  0.00000000000E+00 0.  1.
</event>
<event>
 7    1  0.2405891E-015  0.9000767E+02  0.7816164E-02  0.1186339E+00
        -11   -1    0    0    0    0  0.00000000000E+00  0.00000000000E+00  0.45593999997E+02  0.45594000000E+02  0.51100000000E-03 0. -1.
         11   -1    0    0    0    0 -0.00000000000E+00 -0.00000000000E+00 -0.45593999997E+02  0.45594000000E+02  0.51100000000E-03 0.  1.
    9900012    2    1    2    0    0 -0.14549418815E+00  0.64461977081E+00  0.97799089448E+00  0.90007674029E+02  0.89999934526E+02 0.  0.
        -12    1    1    2    0    0  0.14549418815E+00 -0.64461977081E+00 -0.97799089448E+00  0.11803259708E+01  0.00000000000E+00 0.  1.
         11    1    3    3    0    0 -0.12732524819E+02 -0.44521197640E+01  0.32093146358E+02  0.34812477678E+02  0.51100000000E-03 0. -1.
        -11    1    3    3    0    0 -0.91555053821E+01 -0.20806511713E+00  0.66354682841E+01  0.11309111791E+02  0.51100000000E-03 0.  1.
        -12    1    3    3    0    0  0.21742536013E+02  0.53048046520E+01 -0.37750623748E+02  0.43886084560E+02  0.00000000000E+00 0.  1.
</event>
<event>
 7    1  0.2405891E-015  0.9000778E+02  0.7816164E-02  0.1186339E+00
        -11   -1    0    0    0    0  0.00000000000E+00  0.00000000000E+00  0.45593999997E+02  0.45594000000E+02  0.51100000000E-03 0. -1.
         11   -1    0    0    0    0 -0.00000000000E+00 -0.00000000000E+00 -0.45593999997E+02  0.45594000000E+02  0.51100000000E-03 0.  1.
    9900012    2    1    2    0    0 -0.54362011774E+00 -0.67763210509E+00  0.79887616194E+00  0.90007783399E+02  0.90000045340E+02 0.  0.
        -12    1    1    2    0    0  0.54362011774E+00  0.67763210509E+00 -0.79887616194E+00  0.11802166006E+01  0.00000000000E+00 0.  1.
         11    1    3    3    0    0  0.44669382457E+01  0.68136844167E+01  0.12580295211E+01  0.82439354169E+01  0.51100000000E-03 0. -1.
        -11    1    3    3    0    0 -0.68807745735E+01 -0.79697674663E+01 -0.40413658018E+02  0.41762734667E+02  0.51100000000E-03 0.  1.
         12    1    3    3    0    0  0.18702162100E+01  0.47845094449E+00  0.39954504659E+02  0.40001113316E+02  0.00000000000E+00 0. -1.
</event>
<event>
 7    1  0.2405891E-015  0.9000777E+02  0.7816164E-02  0.1186339E+00
        -11   -1    0    0    0    0  0.00000000000E+00  0.00000000000E+00  0.45593999997E+02  0.45594000000E+02  0.51100000000E-03 0.  1.
         11   -1    0    0    0    0 -0.00000000000E+00 -0.00000000000E+00 -0.45593999997E+02  0.45594000000E+02  0.51100000000E-03 0. -1.
    9900012    2    1    2    0    0  0.11108150270E+01  0.37063664788E+00  0.14717056348E+00  0.90007770902E+02  0.90000032678E+02 0.  0.
        -12    1    1    2    0    0 -0.11108150270E+01 -0.37063664788E+00 -0.14717056348E+00  0.11802290980E+01  0.00000000000E+00 0.  1.
         11    1    3    3    0    0  0.17426371551E+02 -0.20082457922E+02  0.25731843933E+02  0.37001504484E+02  0.51100000000E-03 0. -1.
        -11    1    3    3    0    0 -0.30364252189E+01 -0.36546073943E+01  0.81710528244E+01  0.94520970073E+01  0.51100000000E-03 0.  1.
        -12    1    3    3    0    0 -0.13279131305E+02  0.24107701964E+02 -0.33755726194E+02  0.43554169411E+02  0.00000000000E+00 0.  1.
</event>
<event>
 7    1  0.2405891E-015  0.9000786E+02  0.7816164E-02  0.1186339E+00
        -11   -1    0    0    0    0  0.00000000000E+00  0.00000000000E+00  0.45593999997E+02  0.45594000000E+02  0.51100000000E-03 0.  1.
         11   -1    0    0    0    0 -0.00000000000E+00 -0.00000000000E+00 -0.45593999997E+02  0.45594000000E+02  0.51100000000E-03 0. -1.
    9900012    2    1    2    0    0 -0.11029864084E+01  0.31698098543E+00 -0.27507643378E+00  0.90007863141E+02  0.90000126134E+02 0.  0.
        -12    1    1    2    0    0  0.11029864084E+01 -0.31698098543E+00  0.27507643378E+00  0.11801368593E+01  0.00000000000E+00 0.  1.
         11    1    3    3    0    0  0.34895645051E+01 -0.67679617659E+01 -0.61838742141E+01  0.98093153409E+01  0.51100000000E-03 0. -1.
        -11    1    3    3    0    0 -0.14744131820E+01 -0.92173304615E+01  0.40643673816E+02  0.41701814068E+02  0.51100000000E-03 0.  1.
         12    1    3    3    0    0 -0.31181377315E+01  0.16302273213E+02 -0.34734876035E+02  0.38496733732E+02  0.00000000000E+00 0. -1.
</event>
<event>
 7    1  0.2405891E-015  0.9000777E+02  0.7816164E-02  0.1186339E+00
        -11   -1    0    0    0    0  0.00000000000E+00  0.00000000000E+00  0.45593999997E+02  0.45594000000E+02  0.51100000000E-03 0. -1.
         11   -1    0    0    0    0 -0.00000000000E+00 -0.00000000000E+00 -0.45593999997E+02  0.45594000000E+02  0.51100000000E-03 0.  1.
    9900012    2    1    2    0    0 -0.59423688824E-01 -0.99557505099E+00 -0.63106492197E+00  0.90007769602E+02  0.90000031361E+02 0.  0.
        -12    1    1    2    0    0  0.59423688824E-01  0.99557505099E+00  0.63106492197E+00  0.11802303981E+01  0.00000000000E+00 0.  1.
         11    1    3    3    0    0 -0.23837142905E+02  0.25352274723E+02  0.11793208084E+02  0.36742713192E+02  0.51100000000E-03 0. -1.
        -11    1    3    3    0    0  0.36664912705E+01  0.95813901303E+01 -0.84552157848E-02  0.10258960319E+02  0.51100000000E-03 0.  1.
        -12    1    3    3    0    0  0.20111227946E+02 -0.35929239904E+02 -0.12415817790E+02  0.43006096091E+02  0.00000000000E+00 0.  1.
</event>
<event>
 7    1  0.2405891E-015  0.9000774E+02  0.7816164E-02  0.1186339E+00
        -11   -1    0    0    0    0  0.00000000000E+00  0.00000000000E+00  0.45593999997E+02  0.45594000000E+02  0.51100000000E-03 0.  1.
         11   -1    0    0    0    0 -0.00000000000E+00 -0.00000000000E+00 -0.45593999997E+02  0.45594000000E+02  0.51100000000E-03 0. -1.
    9900012    2    1    2    0    0 -0.73020829228E+00 -0.25103201344E+00 -0.89263585699E+00  0.90007737319E+02  0.89999998652E+02 0.  0.
        -12    1    1    2    0    0  0.73020829228E+00  0.25103201344E+00  0.89263585699E+00  0.11802626805E+01  0.00000000000E+00 0.  1.
         11    1    3    3    0    0 -0.90622537080E+01 -0.36008988123E+01 -0.27969565087E+01  0.10144647874E+02  0.51100000000E-03 0. -1.
        -11    1    3    3    0    0 -0.34618212781E+02  0.17174677623E+01 -0.83995017607E+01  0.35664015222E+02  0.51100000000E-03 0.  1.
         12    1    3    3    0    0  0.42950258197E+02  0.16323990366E+01  0.10303822412E+02  0.44199074223E+02  0.00000000000E+00 0. -1.
</event>
<event>
 7    1  0.2405891E-015  0.9000766E+02  0.7816164E-02  0.1186339E+00
        -11   -1    0    0    0    0  0.00000000000E+00  0.00000000000E+00  0.45593999997E+02  0.45594000000E+02  0.51100000000E-03 0.  1.
         11   -1    0    0    0    0 -0.00000000000E+00 -0.00000000000E+00 -0.45593999997E+02  0.45594000000E+02  0.51100000000E-03 0. -1.
    9900012    2    1    2    0    0  0.10845423870E+01  0.44122131560E+00 -0.14934233083E+00  0.90007656164E+02  0.89999916426E+02 0.  0.
        -12    1    1    2    0    0 -0.10845423870E+01 -0.44122131560E+00  0.14934233083E+00  0.11803438357E+01  0.00000000000E+00 0.  1.
         11    1    3    3    0    0 -0.25335021067E+01 -0.14012811549E+00 -0.86839963512E+01  0.90471023926E+01  0.51100000000E-03 0. -1.
        -11    1    3    3    0    0  0.39285861458E+02 -0.14233039019E+02  0.64779215169E+01  0.42283824066E+02  0.51100000000E-03 0.  1.
         12    1    3    3    0    0 -0.35667816964E+02  0.14814388450E+02  0.20567325035E+01  0.38676729706E+02  0.00000000000E+00 0. -1.
</event>
<event>
 7    1  0.2405891E-015  0.9000765E+02  0.7816164E-02  0.1186339E+00
        -11   -1    0    0    0    0  0.00000000000E+00  0.00000000000E+00  0.45593999997E+02  0.45594000000E+02  0.51100000000E-03 0. -1.
         11   -1    0    0    0    0 -0.00000000000E+00 -0.00000000000E+00 -0.45593999997E+02  0.45594000000E+02  0.51100000000E-03 0.  1.
    9900012    2    1    2    0    0  0.19331931507E+00 -0.10535310844E+01  0.49589827143E+00  0.90007654627E+02  0.89999914868E+02 0.  0.
        -12    1    1    2    0    0 -0.19331931507E+00  0.10535310844E+01 -0.49589827143E+00  0.11803453728E+01  0.00000000000E+00 0.  1.
         11    1    3    3    0    0  0.11265583517E+02 -0.17744450863E+00 -0.24158635936E+01  0.11523074924E+02  0.51100000000E-03 0. -1.
        -11    1    3    3    0    0  0.23439450394E+02  0.20865900399E+02 -0.13956409805E+02  0.34344941537E+02  0.51100000000E-03 0.  1.
         12    1    3    3    0    0 -0.34511714596E+02 -0.21741986975E+02  0.16868171670E+02  0.44139638167E+02  0.00000000000E+00 0. -1.
</event>
<event>
 7    1  0.2405891E-015  0.9000775E+02  0.7816164E-02  0.1186339E+00
        -11   -1    0    0    0    0  0.00000000000E+00  0.00000000000E+00  0.45593999997E+02  0.45594000000E+02  0.51100000000E-03 0.  1.
         11   -1    0    0    0    0 -0.00000000000E+00 -0.00000000000E+00 -0.45593999997E+02  0.45594000000E+02  0.51100000000E-03 0. -1.
    9900012    2    1    2    0    0  0.87410297901E+00  0.11032552888E+00 -0.78533982476E+00  0.90007751560E+02  0.90000013080E+02 0.  0.
        -12    1    1    2    0    0 -0.87410297901E+00 -0.11032552888E+00  0.78533982476E+00  0.11802484402E+01  0.00000000000E+00 0.  1.
         11    1    3    3    0    0 -0.24445304105E+02 -0.12150811320E+00 -0.25215856338E+02  0.35120180354E+02  0.51100000000E-03 0. -1.
        -11    1    3    3    0    0  0.12406652529E+02  0.21132106166E+02  0.10650742586E+02  0.26719454633E+02  0.51100000000E-03 0.  1.
        -12    1    3    3    0    0  0.12912754555E+02 -0.20900272524E+02  0.13779773927E+02  0.28168116573E+02  0.00000000000E+00 0.  1.
</event>
<event>
 7    1  0.2405891E-015  0.9000785E+02  0.7816164E-02  0.1186339E+00
        -11   -1    0    0    0    0  0.00000000000E+00  0.00000000000E+00  0.45593999997E+02  0.45594000000E+02  0.51100000000E-03 0.  1.
         11   -1    0    0    0    0 -0.00000000000E+00 -0.00000000000E+00 -0.45593999997E+02  0.45594000000E+02  0.51100000000E-03 0. -1.
    9900012    2    1    2    0    0  0.84613739452E+00 -0.70334246965E+00 -0.42675766203E+00  0.90007846950E+02  0.90000109729E+02 0.  0.
        -12    1    1    2    0    0 -0.84613739452E+00  0.70334246965E+00  0.42675766203E+00  0.11801530503E+01  0.00000000000E+00 0.  1.
         11    1    3    3    0    0  0.25734579996E+01 -0.66448233059E+01 -0.44723789862E+01  0.84129980922E+01  0.51100000000E-03 0. -1.
        -11    1    3    3    0    0 -0.38177224934E+02 -0.76363327476E+01  0.14119746240E+02  0.41414747562E+02  0.51100000000E-03 0.  1.
         12    1    3    3    0    0  0.36449904329E+02  0.13577813584E+02 -0.10074124916E+02  0.40180101295E+02  0.00000000000E+00 0. -1.
</event>
<event>
 7    1  0.2405891E-015  0.9000778E+02  0.7816164E-02  0.1186339E+00
        -11   -1    0    0    0    0  0.00000000000E+00  0.00000000000E+00  0.45593999997E+02  0.45594000000E+02  0.51100000000E-03 0. -1.
         11   -1    0    0    0    0 -0.00000000000E+00 -0.00000000000E+00 -0.45593999997E+02  0.45594000000E+02  0.51100000000E-03 0.  1.
    9900012    2    1    2    0    0  0.88874446557E+00 -0.77593000941E+00 -0.31257474700E-01  0.90007783438E+02  0.90000045379E+02 0.  0.
        -12    1    1    2    0    0 -0.88874446557E+00  0.77593000941E+00  0.31257474700E-01  0.11802165625E+01  0.00000000000E+00 0.  1.
         11    1    3    3    0    0 -0.81458339767E+01  0.61244547108E+01  0.31633004158E+01  0.10670989948E+02  0.51100000000E-03 0. -1.
        -11    1    3    3    0    0 -0.30317253351E+02 -0.15028431244E+02  0.12675507376E+02  0.36133891071E+02  0.51100000000E-03 0.  1.
         12    1    3    3    0    0  0.39351831794E+02  0.81280465240E+01 -0.15870065267E+02  0.43202902419E+02  0.00000000000E+00 0. -1.
</event>
<event>
 7    1  0.2405891E-015  0.9000774E+02  0.7816164E-02  0.1186339E+00
        -11   -1    0    0    0    0  0.00000000000E+00  0.00000000000E+00  0.45593999997E+02  0.45594000000E+02  0.51100000000E-03 0.  1.
         11   -1    0    0    0    0 -0.00000000000E+00 -0.00000000000E+00 -0.45593999997E+02  0.45594000000E+02  0.51100000000E-03 0. -1.
    9900012    2    1    2    0    0 -0.32414035916E+00  0.70400881269E+00 -0.89011635675E+00  0.90007744727E+02  0.90000006157E+02 0.  0.
        -12    1    1    2    0    0  0.32414035916E+00 -0.70400881269E+00  0.89011635675E+00  0.11802552730E+01  0.00000000000E+00 0.  1.
         11    1    3    3    0    0  0.35076966164E+02 -0.14146375275E+02 -0.21318329810E+02  0.43416410202E+02  0.51100000000E-03 0. -1.
        -11    1    3    3    0    0 -0.98148608777E+01  0.30902363677E+00 -0.14420740540E+01  0.99250474808E+01  0.51100000000E-03 0.  1.
        -12    1    3    3    0    0 -0.25586245645E+02  0.14541360451E+02  0.21870287507E+02  0.36666287044E+02  0.00000000000E+00 0.  1.
</event>
<event>
 7    1  0.2405891E-015  0.9000782E+02  0.7816164E-02  0.1186339E+00
        -11   -1    0    0    0    0  0.00000000000E+00  0.00000000000E+00  0.45593999997E+02  0.45594000000E+02  0.51100000000E-03 0.  1.
         11   -1    0    0    0    0 -0.00000000000E+00 -0.00000000000E+00 -0.45593999997E+02  0.45594000000E+02  0.51100000000E-03 0. -1.
    9900012    2    1    2    0    0 -0.11739257259E+01 -0.59470063719E-01 -0.10577026064E+00  0.90007819655E+02  0.90000082074E+02 0.  0.
        -12    1    1    2    0    0  0.11739257259E+01  0.59470063719E-01  0.10577026064E+00  0.11801803449E+01  0.00000000000E+00 0.  1.
         11    1    3    3    0    0 -0.36574228888E+02  0.68204641133E+01 -0.18356494473E+02  0.41486791139E+02  0.51100000000E-03 0. -1.
        -11    1    3    3    0    0 -0.18610179737E+01  0.49271867105E+00  0.92997322196E+01  0.94969036641E+01  0.51100000000E-03 0.  1.
        -12    1    3    3    0    0  0.37261321136E+02 -0.73726528480E+01  0.89509919923E+01  0.39024124852E+02  0.00000000000E+00 0.  1.
</event>
<event>
 7    1  0.2405891E-015  0.9000786E+02  0.7816164E-02  0.1186339E+00
        -11   -1    0    0    0    0  0.00000000000E+00  0.00000000000E+00  0.45593999997E+02  0.45594000000E+02  0.51100000000E-03 0. -1.
         11   -1    0    0    0    0 -0.00000000000E+00 -0.00000000000E+00 -0.45593999997E+02  0.45594000000E+02  0.51100000000E-03 0.  1.
    9900012    2    1    2    0    0  0.93580469460E+00  0.21487119014E+00  0.68616994388E+00  0.90007860497E+02  0.90000123455E+02 0.  0.
        -12    1    1    2    0    0 -0.93580469460E+00 -0.21487119014E+00 -0.68616994388E+00  0.11801395031E+01  0.00000000000E+00 0.  1.
         11    1    3    3    0    0 -0.37019984504E+02  0.15027689943E+02 -0.10448806650E+02  0.41297557777E+02  0.51100000000E-03 0. -1.
        -11    1    3    3    0    0  0.91792846290E+01  0.43566505090E+01  0.97863954369E+01  0.14107204041E+02  0.51100000000E-03 0.  1.
        -12    1    3    3    0    0  0.28776504569E+02 -0.19169469262E+02  0.13485811572E+01  0.34603098678E+02  0.00000000000E+00 0.  1.
</event>
<event>
 7    1  0.2405891E-015  0.9000785E+02  0.7816164E-02  0.1186339E+00
        -11   -1    0    0    0    0  0.00000000000E+00  0.00000000000E+00  0.45593999997E+02  0.45594000000E+02  0.51100000000E-03 0.  1.
         11   -1    0    0    0    0 -0.00000000000E+00 -0.00000000000E+00 -0.45593999997E+02  0.45594000000E+02  0.51100000000E-03 0. -1.
    9900012    2    1    2    0    0  0.80725707713E+00  0.42777775925E+00 -0.74705329985E+00  0.90007853216E+02  0.90000116078E+02 0.  0.
        -12    1    1    2    0    0 -0.80725707713E+00 -0.42777775925E+00  0.74705329985E+00  0.11801467844E+01  0.00000000000E+00 0.  1.
         11    1    3    3    0    0  0.78029999436E+01 -0.63097786068E+00  0.46695381579E+01  0.91153457449E+01  0.51100000000E-03 0. -1.
        -11    1    3    3    0    0 -0.30150080179E+02 -0.15481686988E+02 -0.28475581746E+02  0.44267016195E+02  0.51100000000E-03 0.  1.
         12    1    3    3    0    0  0.23154337313E+02  0.16540442608E+02  0.23058990288E+02  0.36625491275E+02  0.00000000000E+00 0. -1.
</event>
<event>
 7    1  0.2405891E-015  0.9000783E+02  0.7816164E-02  0.1186339E+00
        -11   -1    0    0    0    0  0.00000000000E+00  0.00000000000E+00  0.45593999997E+02  0.45594000000E+02  0.51100000000E-03 0. -1.
         11   -1    0    0    0    0 -0.00000000000E+00 -0.00000000000E+00 -0.45593999997E+02  0.45594000000E+02  0.51100000000E-03 0.  1.
    9900012    2    1    2    0    0 -0.16156583638E-02 -0.97111706313E+00 -0.67061246511E+00  0.90007833893E+02  0.90000096501E+02 0.  0.
        -12    1    1    2    0    0  0.16156583638E-02  0.97111706313E+00  0.67061246511E+00  0.11801661065E+01  0.00000000000E+00 0.  1.
         11    1    3    3    0    0 -0.19523643076E+02  0.14254883905E+02  0.30449808209E+02  0.38878852533E+02  0.51100000000E-03 0. -1.
        -11    1    3    3    0    0 -0.49956095152E+01  0.61881564940E+01 -0.50204225545E+01  0.94050006969E+01  0.51100000000E-03 0.  1.
        -12    1    3    3    0    0  0.24517636933E+02 -0.21414157462E+02 -0.26099998119E+02  0.41723980663E+02  0.00000000000E+00 0.  1.
</event>
<event>
 7    1  0.2405891E-015  0.9000773E+02  0.7816164E-02  0.1186339E+00
        -11   -1    0    0    0    0  0.00000000000E+00  0.00000000000E+00  0.45593999997E+02  0.45594000000E+02  0.51100000000E-03 0. -1.
         11   -1    0    0    0    0 -0.00000000000E+00 -0.00000000000E+00 -0.45593999997E+02  0.45594000000E+02  0.51100000000E-03 0.  1.
    9900012    2    1    2    0    0 -0.41026357966E-01  0.75472442520E+00  0.90649881910E+00  0.90007732137E+02  0.89999993401E+02 0.  0.
        -12    1    1    2    0    0  0.41026357966E-01 -0.75472442520E+00 -0.90649881910E+00  0.11802678633E+01  0.00000000000E+00 0.  1.
         11    1    3    3    0    0  0.23639962545E+01 -0.37747966868E+02 -0.43382284012E+01  0.38069905528E+02  0.51100000000E-03 0. -1.
        -11    1    3    3    0    0  0.10749729987E+01  0.75087865336E+00 -0.10721293781E+02  0.10801181709E+02  0.51100000000E-03 0.  1.
        -12    1    3    3    0    0 -0.34799956112E+01  0.37751812640E+02  0.15966021001E+02  0.41136644900E+02  0.00000000000E+00 0.  1.
</event>
<event>
 7    1  0.2405891E-015  0.9000771E+02  0.7816164E-02  0.1186339E+00
        -11   -1    0    0    0    0  0.00000000000E+00  0.00000000000E+00  0.45593999997E+02  0.45594000000E+02  0.51100000000E-03 0.  1.
         11   -1    0    0    0    0 -0.00000000000E+00 -0.00000000000E+00 -0.45593999997E+02  0.45594000000E+02  0.51100000000E-03 0. -1.
    9900012    2    1    2    0    0  0.16124403559E+00  0.11388687752E+01 -0.26471285592E+00  0.90007705705E+02  0.89999966621E+02 0.  0.
        -12    1    1    2    0    0 -0.16124403559E+00 -0.11388687752E+01  0.26471285592E+00  0.11802942948E+01  0.00000000000E+00 0.  1.
         11    1    3    3    0    0  0.16378736085E+02 -0.31601904178E+02 -0.17218803961E+02  0.39540239675E+02  0.51100000000E-03 0. -1.
        -11    1    3    3    0    0 -0.20807337336E+01  0.37059840027E+01 -0.83974880578E+01  0.94117785907E+01  0.51100000000E-03 0.  1.
        -12    1    3    3    0    0 -0.14136758316E+02  0.29034788951E+02  0.25351579163E+02  0.41055687440E+02  0.00000000000E+00 0.  1.
</event>
<event>
 7    1  0.2405891E-015  0.9000756E+02  0.7816164E-02  0.1186339E+00
        -11   -1    0    0    0    0  0.00000000000E+00  0.00000000000E+00  0.45593999997E+02  0.45594000000E+02  0.51100000000E-03 0.  1.
         11   -1    0    0    0    0 -0.00000000000E+00 -0.00000000000E+00 -0.45593999997E+02  0.45594000000E+02  0.51100000000E-03 0. -1.
    9900012    2    1    2    0    0  0.24207267214E+00 -0.46895475046E+00 -0.10559005399E+01  0.90007557843E+02  0.89999816806E+02 0.  0.
        -12    1    1    2    0    0 -0.24207267214E+00  0.46895475046E+00  0.10559005399E+01  0.11804421573E+01  0.00000000000E+00 0.  1.
         11    1    3    3    0    0 -0.81574856885E+01  0.15899087358E+01 -0.24748534093E+01  0.86716366509E+01  0.51100000000E-03 0. -1.
        -11    1    3    3    0    0  0.14089699657E+02  0.23464387807E+02 -0.29900026482E+02  0.40535277420E+02  0.51100000000E-03 0.  1.
         12    1    3    3    0    0 -0.56901412968E+01 -0.25523251294E+02  0.31318979351E+02  0.40800643772E+02  0.00000000000E+00 0. -1.
</event>
<event>
 7    1  0.2405891E-015  0.9000773E+02  0.7816164E-02  0.1186339E+00
        -11   -1    0    0    0    0  0.00000000000E+00  0.00000000000E+00  0.45593999997E+02  0.45594000000E+02  0.51100000000E-03 0.  1.
         11   -1    0    0    0    0 -0.00000000000E+00 -0.00000000000E+00 -0.45593999997E+02  0.45594000000E+02  0.51100000000E-03 0. -1.
    9900012    2    1    2    0    0  0.93960911890E+00  0.71426511208E+00  0.19723870004E-02  0.90007727219E+02  0.89999988419E+02 0.  0.
        -12    1    1    2    0    0 -0.93960911890E+00 -0.71426511208E+00 -0.19723870005E-02  0.11802727807E+01  0.00000000000E+00 0.  1.
         11    1    3    3    0    0  0.21271958190E+02 -0.31508375728E+02 -0.65988612158E+01  0.38585216286E+02  0.51100000000E-03 0. -1.
        -11    1    3    3    0    0 -0.63444983984E+01 -0.59979493446E+01  0.62217914117E+01  0.10720948881E+02  0.51100000000E-03 0.  1.
        -12    1    3    3    0    0 -0.13987850673E+02  0.38220590185E+02  0.37904219114E+00  0.40701562052E+02  0.00000000000E+00 0.  1.
</event>
<event>
 7    1  0.2405891E-015  0.9000775E+02  0.7816164E-02  0.1186339E+00
        -11   -1    0    0    0    0  0.00000000000E+00  0.00000000000E+00  0.45593999997E+02  0.45594000000E+02  0.51100000000E-03 0.  1.
         11   -1    0    0    0    0 -0.00000000000E+00 -0.00000000000E+00 -0.45593999997E+02  0.45594000000E+02  0.51100000000E-03 0. -1.
    9900012    2    1    2    0    0  0.40716046346E+00 -0.73736762765E+00 -0.82674666183E+00  0.90007745492E+02  0.90000006932E+02 0.  0.
        -12    1    1    2    0    0 -0.40716046346E+00  0.73736762765E+00  0.82674666183E+00  0.11802545082E+01  0.00000000000E+00 0.  1.
         11    1    3    3    0    0 -0.32485873845E+01 -0.64979223566E+01  0.57443576318E+01  0.92614232065E+01  0.51100000000E-03 0. -1.
        -11    1    3    3    0    0  0.81399482543E+01 -0.35905506176E+02  0.52868526556E+01  0.37194286424E+02  0.51100000000E-03 0.  1.
         12    1    3    3    0    0 -0.44842004064E+01  0.41666060905E+02 -0.11857956949E+02  0.43552035861E+02  0.00000000000E+00 0. -1.
</event>
<event>
 7    1  0.2405891E-015  0.9000766E+02  0.7816164E-02  0.1186339E+00
        -11   -1    0    0    0    0  0.00000000000E+00  0.00000000000E+00  0.45593999997E+02  0.45594000000E+02  0.51100000000E-03 0. -1.
         11   -1    0    0    0    0 -0.00000000000E+00 -0.00000000000E+00 -0.45593999997E+02  0.45594000000E+02  0.51100000000E-03 0.  1.
    9900012    2    1    2    0    0  0.64246216753E-01 -0.10984226232E+01 -0.42723976798E+00  0.90007663753E+02  0.89999924115E+02 0.  0.
        -12    1    1    2    0    0 -0.64246216753E-01  0.10984226232E+01  0.42723976798E+00  0.11803362465E+01  0.00000000000E+00 0.  1.
         11    1    3    3    0    0 -0.21823117310E+02  0.14741286722E+02  0.29011838371E+02  0.39182148350E+02  0.51100000000E-03 0. -1.
        -11    1    3    3    0    0 -0.76101602250E+01 -0.15405923820E+01 -0.18542243790E+01  0.79828636369E+01  0.51100000000E-03 0.  1.
        -12    1    3    3    0    0  0.29497523752E+02 -0.14299116963E+02 -0.27584853760E+02  0.42842651767E+02  0.00000000000E+00 0.  1.
</event>
<event>
 7    1  0.2405891E-015  0.9000780E+02  0.7816164E-02  0.1186339E+00
        -11   -1    0    0    0    0  0.00000000000E+00  0.00000000000E+00  0.45593999997E+02  0.45594000000E+02  0.51100000000E-03 0. -1.
         11   -1    0    0    0    0 -0.00000000000E+00 -0.00000000000E+00 -0.45593999997E+02  0.45594000000E+02  0.51100000000E-03 0.  1.
    9900012    2    1    2    0    0  0.42884634284E+00  0.10276341288E+01  0.39105637241E+00  0.90007802485E+02  0.90000064678E+02 0.  0.
        -12    1    1    2    0    0 -0.42884634284E+00 -0.10276341288E+01 -0.39105637241E+00  0.11801975152E+01  0.00000000000E+00 0.  1.
         11    1    3    3    0    0 -0.80316132214E+01  0.18526457913E+02  0.34106297441E+02  0.39635539344E+02  0.51100000000E-03 0. -1.
        -11    1    3    3    0    0  0.31638243815E+01 -0.62304364520E+01  0.57122864636E+01  0.90254274138E+01  0.51100000000E-03 0.  1.
        -12    1    3    3    0    0  0.52966351827E+01 -0.11268387332E+02 -0.39427527532E+02  0.41346835727E+02  0.00000000000E+00 0.  1.
</event>
<event>
 7    1  0.2405891E-015  0.9000765E+02  0.7816164E-02  0.1186339E+00
        -11   -1    0    0    0    0  0.00000000000E+00  0.00000000000E+00  0.45593999997E+02  0.45594000000E+02  0.51100000000E-03 0. -1.
         11   -1    0    0    0    0 -0.00000000000E+00 -0.00000000000E+00 -0.45593999997E+02  0.45594000000E+02  0.51100000000E-03 0.  1.
    9900012    2    1    2    0    0 -0.63091615067E+00  0.46386754027E+00  0.88317773993E+00  0.90007647847E+02  0.89999907999E+02 0.  0.
        -12    1    1    2    0    0  0.63091615067E+00 -0.46386754027E+00 -0.88317773993E+00  0.11803521527E+01  0.00000000000E+00 0.  1.
         11    1    3    3    0    0 -0.22021964545E+02  0.19137743166E+02  0.22366489545E+02  0.36762480748E+02  0.51100000000E-03 0. -1.
        -11    1    3    3    0    0 -0.85769728109E+01 -0.17947112731E+01  0.47691357054E+01  0.99764776745E+01  0.51100000000E-03 0.  1.
        -12    1    3    3    0    0  0.29968021205E+02 -0.16879164353E+02 -0.26252447511E+02  0.43268689425E+02  0.00000000000E+00 0.  1.
</event>
<event>
 7    1  0.2444609E-015  0.9000784E+02  0.7816164E-02  0.1186339E+00
        -11   -1    0    0    0    0  0.00000000000E+00  0.00000000000E+00  0.45593999997E+02  0.45594000000E+02  0.51100000000E-03 0. -1.
         11   -1    0    0    0    0 -0.00000000000E+00 -0.00000000000E+00 -0.45593999997E+02  0.45594000000E+02  0.51100000000E-03 0.  1.
    9900012    2    1    2    0    0 -0.31180985720E+00  0.10795155490E+01  0.36084315593E+00  0.90007836032E+02  0.90000098668E+02 0.  0.
        -12    1    1    2    0    0  0.31180985720E+00 -0.10795155490E+01 -0.36084315593E+00  0.11801639678E+01  0.00000000000E+00 0.  1.
         11    1    3    3    0    0 -0.24021473980E+01  0.32653247530E+01 -0.93072753529E+01  0.10151750224E+02  0.51100000000E-03 0. -1.
        -11    1    3    3    0    0 -0.89296376885E+01 -0.21272962960E+02 -0.27959189010E+02  0.36249050094E+02  0.51100000000E-03 0.  1.
         12    1    3    3    0    0  0.11019975229E+02  0.19087153756E+02  0.37627307519E+02  0.43607035713E+02  0.00000000000E+00 0. -1.
</event>
<event>
 7    1  0.2405891E-015  0.9000774E+02  0.7816164E-02  0.1186339E+00
        -11   -1    0    0    0    0  0.00000000000E+00  0.00000000000E+00  0.45593999997E+02  0.45594000000E+02  0.51100000000E-03 0.  1.
         11   -1    0    0    0    0 -0.00000000000E+00 -0.00000000000E+00 -0.45593999997E+02  0.45594000000E+02  0.51100000000E-03 0. -1.
    9900012    2    1    2    0    0 -0.39875182860E+00 -0.85684976828E+00 -0.70698208482E+00  0.90007738074E+02  0.89999999416E+02 0.  0.
        -12    1    1    2    0    0  0.39875182860E+00  0.85684976828E+00  0.70698208482E+00  0.11802619262E+01  0.00000000000E+00 0.  1.
         11    1    3    3    0    0 -0.40775452202E+01 -0.81619391006E+01  0.13678762848E+01  0.92257634208E+01  0.51100000000E-03 0. -1.
        -11    1    3    3    0    0 -0.85262813902E+01 -0.25002715494E+01  0.37334213283E+02  0.38376976351E+02  0.51100000000E-03 0.  1.
         12    1    3    3    0    0  0.12205074782E+02  0.98053608817E+01 -0.39409071652E+02  0.42404998302E+02  0.00000000000E+00 0. -1.
</event>
<event>
 7    1  0.2405891E-015  0.9000773E+02  0.7816164E-02  0.1186339E+00
        -11   -1    0    0    0    0  0.00000000000E+00  0.00000000000E+00  0.45593999997E+02  0.45594000000E+02  0.51100000000E-03 0.  1.
         11   -1    0    0    0    0 -0.00000000000E+00 -0.00000000000E+00 -0.45593999997E+02  0.45594000000E+02  0.51100000000E-03 0. -1.
    9900012    2    1    2    0    0 -0.11598365708E+01  0.14366610015E+00 -0.16486187064E+00  0.90007728736E+02  0.89999989956E+02 0.  0.
        -12    1    1    2    0    0  0.11598365708E+01 -0.14366610015E+00  0.16486187064E+00  0.11802712636E+01  0.00000000000E+00 0.  1.
         11    1    3    3    0    0  0.87290011981E+01  0.98088079150E+01 -0.30822023958E+02  0.33502318364E+02  0.51100000000E-03 0. -1.
        -11    1    3    3    0    0  0.15423212562E+02  0.66347681680E+01  0.68906359268E+01  0.18148732686E+02  0.51100000000E-03 0.  1.
        -12    1    3    3    0    0 -0.25312050331E+02 -0.16299909983E+02  0.23766526160E+02  0.38356677686E+02  0.00000000000E+00 0.  1.
</event>
<event>
 7    1  0.2405891E-015  0.9000798E+02  0.7816164E-02  0.1186339E+00
        -11   -1    0    0    0    0  0.00000000000E+00  0.00000000000E+00  0.45593999997E+02  0.45594000000E+02  0.51100000000E-03 0.  1.
         11   -1    0    0    0    0 -0.00000000000E+00 -0.00000000000E+00 -0.45593999997E+02  0.45594000000E+02  0.51100000000E-03 0. -1.
    9900012    2    1    2    0    0  0.33719824346E+00 -0.97787848763E+00 -0.56788863983E+00  0.90007980297E+02  0.90000244837E+02 0.  0.
        -12    1    1    2    0    0 -0.33719824346E+00  0.97787848763E+00  0.56788863983E+00  0.11800197029E+01  0.00000000000E+00 0.  1.
         11    1    3    3    0    0 -0.83703581645E+01  0.13818237432E+01  0.55045419113E+01  0.10112977533E+02  0.51100000000E-03 0. -1.
        -11    1    3    3    0    0 -0.75189293620E+01  0.32858643969E+02  0.13679035615E+02  0.36377751413E+02  0.51100000000E-03 0.  1.
         12    1    3    3    0    0  0.16226485770E+02 -0.35218346200E+02 -0.19751466166E+02  0.43517251352E+02  0.00000000000E+00 0. -1.
</event>
<event>
 7    1  0.2405891E-015  0.9000779E+02  0.7816164E-02  0.1186339E+00
        -11   -1    0    0    0    0  0.00000000000E+00  0.00000000000E+00  0.45593999997E+02  0.45594000000E+02  0.51100000000E-03 0. -1.
         11   -1    0    0    0    0 -0.00000000000E+00 -0.00000000000E+00 -0.45593999997E+02  0.45594000000E+02  0.51100000000E-03 0.  1.
    9900012    2    1    2    0    0  0.10035106628E+00  0.11054429232E+01  0.40102443900E+00  0.90007790276E+02  0.90000052307E+02 0.  0.
        -12    1    1    2    0    0 -0.10035106628E+00 -0.11054429232E+01 -0.40102443900E+00  0.11802097244E+01  0.00000000000E+00 0.  1.
         11    1    3    3    0    0 -0.30404828298E+01 -0.26166136799E+01  0.16385028242E+02  0.16868916792E+02  0.51100000000E-03 0. -1.
        -11    1    3    3    0    0 -0.19071488893E+02 -0.27022029861E+02 -0.11150812442E+02  0.34903472676E+02  0.51100000000E-03 0.  1.
         12    1    3    3    0    0  0.22212322789E+02  0.30744086465E+02 -0.48331913605E+01  0.38235400808E+02  0.00000000000E+00 0. -1.
</event>
<event>
 7    1  0.2405891E-015  0.9000774E+02  0.7816164E-02  0.1186339E+00
        -11   -1    0    0    0    0  0.00000000000E+00  0.00000000000E+00  0.45593999997E+02  0.45594000000E+02  0.51100000000E-03 0.  1.
         11   -1    0    0    0    0 -0.00000000000E+00 -0.00000000000E+00 -0.45593999997E+02  0.45594000000E+02  0.51100000000E-03 0. -1.
    9900012    2    1    2    0    0 -0.39333490907E-01 -0.51992343896E+00 -0.10588413776E+01  0.90007740465E+02  0.90000001840E+02 0.  0.
        -12    1    1    2    0    0  0.39333490907E-01  0.51992343896E+00  0.10588413776E+01  0.11802595345E+01  0.00000000000E+00 0.  1.
         11    1    3    3    0    0 -0.56532904631E+01 -0.38347225417E+02  0.90401547969E+01  0.39801931979E+02  0.51100000000E-03 0. -1.
        -11    1    3    3    0    0 -0.10593393746E+02  0.36161598961E+01 -0.38516325794E+01  0.11837722638E+02  0.51100000000E-03 0.  1.
        -12    1    3    3    0    0  0.16207350718E+02  0.34211142082E+02 -0.62473635951E+01  0.38368085849E+02  0.00000000000E+00 0.  1.
</event>
<event>
 7    1  0.2832269E-015  0.9000763E+02  0.7816164E-02  0.1186339E+00
        -11   -1    0    0    0    0  0.00000000000E+00  0.00000000000E+00  0.45593999997E+02  0.45594000000E+02  0.51100000000E-03 0.  1.
         11   -1    0    0    0    0 -0.00000000000E+00 -0.00000000000E+00 -0.45593999997E+02  0.45594000000E+02  0.51100000000E-03 0. -1.
    9900012    2    1    2    0    0  0.60704971929E+00  0.57746246593E+00 -0.83144870731E+00  0.90007627510E+02  0.89999887393E+02 0.  0.
        -12    1    1    2    0    0 -0.60704971929E+00 -0.57746246593E+00  0.83144870731E+00  0.11803724896E+01  0.00000000000E+00 0.  1.
         11    1    3    3    0    0 -0.63368648244E+01 -0.67954982275E+01 -0.13006595011E+01  0.93822367995E+01  0.51100000000E-03 0. -1.
        -11    1    3    3    0    0 -0.36478625575E+02  0.72457693189E+01  0.85008926966E+00  0.37200993923E+02  0.51100000000E-03 0.  1.
         12    1    3    3    0    0  0.43422540118E+02  0.12719137452E+00 -0.38087847586E+00  0.43424396788E+02  0.00000000000E+00 0. -1.
</event>
<event>
 7    1  0.2405891E-015  0.9000769E+02  0.7816164E-02  0.1186339E+00
        -11   -1    0    0    0    0  0.00000000000E+00  0.00000000000E+00  0.45593999997E+02  0.45594000000E+02  0.51100000000E-03 0.  1.
         11   -1    0    0    0    0 -0.00000000000E+00 -0.00000000000E+00 -0.45593999997E+02  0.45594000000E+02  0.51100000000E-03 0. -1.
    9900012    2    1    2    0    0  0.34598506277E+00  0.40917161073E+00 -0.10516719419E+01  0.90007686082E+02  0.89999946739E+02 0.  0.
        -12    1    1    2    0    0 -0.34598506277E+00 -0.40917161073E+00  0.10516719419E+01  0.11803139176E+01  0.00000000000E+00 0.  1.
         11    1    3    3    0    0 -0.28850180261E+02  0.35722134461E+01 -0.24645204140E+02  0.38111411642E+02  0.51100000000E-03 0. -1.
        -11    1    3    3    0    0 -0.55461723368E+01  0.66027148314E+01 -0.27680806165E+00  0.86274268295E+01  0.51100000000E-03 0.  1.
        -12    1    3    3    0    0  0.34742337661E+02 -0.97657566668E+01  0.23870340260E+02  0.43268847610E+02  0.00000000000E+00 0.  1.
</event>
<event>
 7    1  0.2405891E-015  0.9000776E+02  0.7816164E-02  0.1186339E+00
        -11   -1    0    0    0    0  0.00000000000E+00  0.00000000000E+00  0.45593999997E+02  0.45594000000E+02  0.51100000000E-03 0. -1.
         11   -1    0    0    0    0 -0.00000000000E+00 -0.00000000000E+00 -0.45593999997E+02  0.45594000000E+02  0.51100000000E-03 0.  1.
    9900012    2    1    2    0    0  0.57179331862E+00  0.58284714317E+00  0.85223730228E+00  0.90007759850E+02  0.90000021480E+02 0.  0.
        -12    1    1    2    0    0 -0.57179331862E+00 -0.58284714317E+00 -0.85223730228E+00  0.11802401497E+01  0.00000000000E+00 0.  1.
         11    1    3    3    0    0  0.21147279072E+02 -0.26537911123E+02  0.23034636498E+02  0.41012956706E+02  0.51100000000E-03 0. -1.
        -11    1    3    3    0    0 -0.26382364184E+01 -0.40882503392E+01 -0.97767432650E+01  0.10920567356E+02  0.51100000000E-03 0.  1.
        -12    1    3    3    0    0 -0.17937249335E+02  0.31209008606E+02 -0.12405655930E+02  0.38074235789E+02  0.00000000000E+00 0.  1.
</event>
<event>
 7    1  0.2405891E-015  0.9000787E+02  0.7816164E-02  0.1186339E+00
        -11   -1    0    0    0    0  0.00000000000E+00  0.00000000000E+00  0.45593999997E+02  0.45594000000E+02  0.51100000000E-03 0. -1.
         11   -1    0    0    0    0 -0.00000000000E+00 -0.00000000000E+00 -0.45593999997E+02  0.45594000000E+02  0.51100000000E-03 0.  1.
    9900012    2    1    2    0    0 -0.65669707658E+00 -0.93320593179E+00  0.30098006268E+00  0.90007867228E+02  0.90000130275E+02 0.  0.
        -12    1    1    2    0    0  0.65669707658E+00  0.93320593179E+00 -0.30098006268E+00  0.11801327720E+01  0.00000000000E+00 0.  1.
         11    1    3    3    0    0  0.23992815699E+02 -0.18072718583E+02 -0.21626409814E+02  0.37013240386E+02  0.51100000000E-03 0. -1.
        -11    1    3    3    0    0 -0.80781903458E+00  0.21011118683E+01 -0.10089254356E+02  0.10337325399E+02  0.51100000000E-03 0.  1.
        -12    1    3    3    0    0 -0.23841693741E+02  0.15038400783E+02  0.32016644232E+02  0.42657301444E+02  0.00000000000E+00 0.  1.
</event>
<event>
 7    1  0.2405891E-015  0.9000774E+02  0.7816164E-02  0.1186339E+00
        -11   -1    0    0    0    0  0.00000000000E+00  0.00000000000E+00  0.45593999997E+02  0.45594000000E+02  0.51100000000E-03 0.  1.
         11   -1    0    0    0    0 -0.00000000000E+00 -0.00000000000E+00 -0.45593999997E+02  0.45594000000E+02  0.51100000000E-03 0. -1.
    9900012    2    1    2    0    0 -0.44098284228E+00  0.75391003540E+00 -0.79382431146E+00  0.90007744415E+02  0.90000005841E+02 0.  0.
        -12    1    1    2    0    0  0.44098284228E+00 -0.75391003540E+00  0.79382431146E+00  0.11802555851E+01  0.00000000000E+00 0.  1.
         11    1    3    3    0    0 -0.56485403092E+00  0.71541210707E+01  0.54387515150E+01  0.90044725928E+01  0.51100000000E-03 0. -1.
        -11    1    3    3    0    0  0.38210878153E+02 -0.59975301372E+01 -0.15718644871E+02  0.41750657166E+02  0.51100000000E-03 0.  1.
         12    1    3    3    0    0 -0.38087006964E+02 -0.40268089818E+00  0.94860690442E+01  0.39252614656E+02  0.00000000000E+00 0. -1.
</event>
<event>
 7    1  0.2405891E-015  0.9000781E+02  0.7816164E-02  0.1186339E+00
        -11   -1    0    0    0    0  0.00000000000E+00  0.00000000000E+00  0.45593999997E+02  0.45594000000E+02  0.51100000000E-03 0.  1.
         11   -1    0    0    0    0 -0.00000000000E+00 -0.00000000000E+00 -0.45593999997E+02  0.45594000000E+02  0.51100000000E-03 0. -1.
    9900012    2    1    2    0    0  0.96848926192E+00 -0.67062531995E+00 -0.71677537446E-01  0.90007810422E+02  0.90000072720E+02 0.  0.
        -12    1    1    2    0    0 -0.96848926192E+00  0.67062531995E+00  0.71677537446E-01  0.11801895778E+01  0.00000000000E+00 0.  1.
         11    1    3    3    0    0 -0.53180442728E+01  0.98431619433E-01  0.84205122965E+01  0.99597344978E+01  0.51100000000E-03 0. -1.
        -11    1    3    3    0    0 -0.70379177128E+01  0.29779534994E+02  0.19702099016E+02  0.36394033798E+02  0.51100000000E-03 0.  1.
         12    1    3    3    0    0  0.13324451247E+02 -0.30548591934E+02 -0.28194288850E+02  0.43654042126E+02  0.00000000000E+00 0. -1.
</event>
<event>
 7    1  0.2405891E-015  0.9000779E+02  0.7816164E-02  0.1186339E+00
        -11   -1    0    0    0    0  0.00000000000E+00  0.00000000000E+00  0.45593999997E+02  0.45594000000E+02  0.51100000000E-03 0.  1.
         11   -1    0    0    0    0 -0.00000000000E+00 -0.00000000000E+00 -0.45593999997E+02  0.45594000000E+02  0.51100000000E-03 0. -1.
    9900012    2    1    2    0    0  0.30714025001E+00 -0.11237698504E+01 -0.18893274852E+00  0.90007792648E+02  0.90000054711E+02 0.  0.
        -12    1    1    2    0    0 -0.30714025001E+00  0.11237698504E+01  0.18893274852E+00  0.11802073518E+01  0.00000000000E+00 0.  1.
         11    1    3    3    0    0 -0.37586341631E+02  0.33544804924E+01  0.11305863303E+02  0.39392996355E+02  0.51100000000E-03 0. -1.
        -11    1    3    3    0    0 -0.36717923900E+01 -0.30220775256E+01  0.40174632508E+01  0.62253532557E+01  0.51100000000E-03 0.  1.
        -12    1    3    3    0    0  0.41565274271E+02 -0.14561728172E+01 -0.15512259302E+02  0.44389443037E+02  0.00000000000E+00 0.  1.
</event>
<event>
 7    1  0.3353501E-015  0.9000769E+02  0.7816164E-02  0.1186339E+00
        -11   -1    0    0    0    0  0.00000000000E+00  0.00000000000E+00  0.45593999997E+02  0.45594000000E+02  0.51100000000E-03 0. -1.
         11   -1    0    0    0    0 -0.00000000000E+00 -0.00000000000E+00 -0.45593999997E+02  0.45594000000E+02  0.51100000000E-03 0.  1.
    9900012    2    1    2    0    0 -0.89366035260E+00  0.22556260505E+00  0.73731175758E+00  0.90007688201E+02  0.89999948885E+02 0.  0.
        -12    1    1    2    0    0  0.89366035260E+00 -0.22556260505E+00 -0.73731175758E+00  0.11803117988E+01  0.00000000000E+00 0.  1.
         11    1    3    3    0    0 -0.30884943892E+01  0.84075994323E+01  0.38883290348E+01  0.97645086282E+01  0.51100000000E-03 0. -1.
        -11    1    3    3    0    0  0.10512039741E+02 -0.74911194186E+00 -0.40196357366E+02  0.41554919010E+02  0.51100000000E-03 0.  1.
         12    1    3    3    0    0 -0.83172057046E+01 -0.74329248854E+01  0.37045340089E+02  0.38688260563E+02  0.00000000000E+00 0. -1.
</event>
<event>
 7    1  0.2405891E-015  0.9000776E+02  0.7816164E-02  0.1186339E+00
        -11   -1    0    0    0    0  0.00000000000E+00  0.00000000000E+00  0.45593999997E+02  0.45594000000E+02  0.51100000000E-03 0. -1.
         11   -1    0    0    0    0 -0.00000000000E+00 -0.00000000000E+00 -0.45593999997E+02  0.45594000000E+02  0.51100000000E-03 0.  1.
    9900012    2    1    2    0    0 -0.31332024493E+00 -0.52083867138E+00  0.10116970649E+01  0.90007757038E+02  0.90000018631E+02 0.  0.
        -12    1    1    2    0    0  0.31332024493E+00  0.52083867138E+00 -0.10116970649E+01  0.11802429617E+01  0.00000000000E+00 0.  1.
         11    1    3    3    0    0  0.60785598582E+01 -0.29691647978E+00 -0.50831989138E+01  0.79294363484E+01  0.51100000000E-03 0. -1.
        -11    1    3    3    0    0 -0.51025942343E+01  0.42605493858E+01 -0.37575690898E+02  0.38159157429E+02  0.51100000000E-03 0.  1.
         12    1    3    3    0    0 -0.12892858689E+01 -0.44844715774E+01  0.43670586877E+02  0.43919163261E+02  0.00000000000E+00 0. -1.
</event>
<event>
 7    1  0.2405891E-015  0.9000776E+02  0.7816164E-02  0.1186339E+00
        -11   -1    0    0    0    0  0.00000000000E+00  0.00000000000E+00  0.45593999997E+02  0.45594000000E+02  0.51100000000E-03 0.  1.
         11   -1    0    0    0    0 -0.00000000000E+00 -0.00000000000E+00 -0.45593999997E+02  0.45594000000E+02  0.51100000000E-03 0. -1.
    9900012    2    1    2    0    0 -0.62325880427E+00  0.92642025907E+00 -0.38245150444E+00  0.90007756302E+02  0.90000017885E+02 0.  0.
        -12    1    1    2    0    0  0.62325880427E+00 -0.92642025907E+00  0.38245150444E+00  0.11802436980E+01  0.00000000000E+00 0.  1.
         11    1    3    3    0    0 -0.41875340654E+01  0.74819811707E+01 -0.10590539310E+01  0.86392753908E+01  0.51100000000E-03 0. -1.
        -11    1    3    3    0    0  0.38464037160E+02  0.78329253256E+01 -0.12796633995E+02  0.41286689328E+02  0.51100000000E-03 0.  1.
         12    1    3    3    0    0 -0.34899761899E+02 -0.14388486237E+02  0.13473236422E+02  0.40081791583E+02  0.00000000000E+00 0. -1.
</event>
<event>
 7    1  0.2405891E-015  0.9000788E+02  0.7816164E-02  0.1186339E+00
        -11   -1    0    0    0    0  0.00000000000E+00  0.00000000000E+00  0.45593999997E+02  0.45594000000E+02  0.51100000000E-03 0. -1.
         11   -1    0    0    0    0 -0.00000000000E+00 -0.00000000000E+00 -0.45593999997E+02  0.45594000000E+02  0.51100000000E-03 0.  1.
    9900012    2    1    2    0    0  0.21000802389E+00  0.35252080781E+00 -0.11064869798E+01  0.90007878088E+02  0.90000141279E+02 0.  0.
        -12    1    1    2    0    0 -0.21000802389E+00 -0.35252080781E+00  0.11064869798E+01  0.11801219117E+01  0.00000000000E+00 0.  1.
         11    1    3    3    0    0 -0.17292276115E+02 -0.20164097323E+02 -0.27308976260E+02  0.38097162870E+02  0.51100000000E-03 0. -1.
        -11    1    3    3    0    0  0.29217152431E+01 -0.56507741792E+00 -0.83638254631E+01  0.88774607343E+01  0.51100000000E-03 0.  1.
        -12    1    3    3    0    0  0.14580568896E+02  0.21081695549E+02  0.34566314743E+02  0.43033254484E+02  0.00000000000E+00 0.  1.
</event>
<event>
 7    1  0.2405891E-015  0.9000800E+02  0.7816164E-02  0.1186339E+00
        -11   -1    0    0    0    0  0.00000000000E+00  0.00000000000E+00  0.45593999997E+02  0.45594000000E+02  0.51100000000E-03 0.  1.
         11   -1    0    0    0    0 -0.00000000000E+00 -0.00000000000E+00 -0.45593999997E+02  0.45594000000E+02  0.51100000000E-03 0. -1.
    9900012    2    1    2    0    0  0.21325662216E+00 -0.40009411259E+00 -0.10894230277E+01  0.90008001602E+02  0.90000266423E+02 0.  0.
        -12    1    1    2    0    0 -0.21325662216E+00  0.40009411259E+00  0.10894230277E+01  0.11799983980E+01  0.00000000000E+00 0.  1.
         11    1    3    3    0    0 -0.14045998587E+02 -0.59974696874E+01  0.10650595747E+02  0.18619745138E+02  0.51100000000E-03 0. -1.
        -11    1    3    3    0    0  0.35671182880E+02 -0.17414407291E+00  0.13181053343E+02  0.38028986072E+02  0.51100000000E-03 0.  1.
         12    1    3    3    0    0 -0.21411927670E+02  0.57715196477E+01 -0.24921072118E+02  0.33359270392E+02  0.00000000000E+00 0. -1.
</event>
<event>
 7    1  0.2405891E-015  0.9000789E+02  0.7816164E-02  0.1186339E+00
        -11   -1    0    0    0    0  0.00000000000E+00  0.00000000000E+00  0.45593999997E+02  0.45594000000E+02  0.51100000000E-03 0. -1.
         11   -1    0    0    0    0 -0.00000000000E+00 -0.00000000000E+00 -0.45593999997E+02  0.45594000000E+02  0.51100000000E-03 0.  1.
    9900012    2    1    2    0    0 -0.11252745343E+01 -0.21197273173E+00  0.28544384426E+00  0.90007892630E+02  0.90000156013E+02 0.  0.
        -12    1    1    2    0    0  0.11252745343E+01  0.21197273173E+00 -0.28544384426E+00  0.11801073700E+01  0.00000000000E+00 0.  1.
         11    1    3    3    0    0 -0.29790099105E+01  0.45525588537E+00 -0.10329896104E+02  0.10760507039E+02  0.51100000000E-03 0. -1.
        -11    1    3    3    0    0 -0.23706662918E+01 -0.33682781288E+02 -0.15292984698E+02  0.37067845840E+02  0.51100000000E-03 0.  1.
         12    1    3    3    0    0  0.42244016680E+01  0.33015552671E+02  0.25908324646E+02  0.42179539751E+02  0.00000000000E+00 0. -1.
</event>
<event>
 7    1  0.2405891E-015  0.9000765E+02  0.7816164E-02  0.1186339E+00
        -11   -1    0    0    0    0  0.00000000000E+00  0.00000000000E+00  0.45593999997E+02  0.45594000000E+02  0.51100000000E-03 0.  1.
         11   -1    0    0    0    0 -0.00000000000E+00 -0.00000000000E+00 -0.45593999997E+02  0.45594000000E+02  0.51100000000E-03 0. -1.
    9900012    2    1    2    0    0  0.10990751252E+01 -0.42328788799E+00 -0.78018154919E-01  0.90007650222E+02  0.89999910404E+02 0.  0.
        -12    1    1    2    0    0 -0.10990751252E+01  0.42328788799E+00  0.78018154919E-01  0.11803497784E+01  0.00000000000E+00 0.  1.
         11    1    3    3    0    0 -0.20728047684E+02 -0.33525946295E+02 -0.11151014469E+02  0.40963229362E+02  0.51100000000E-03 0. -1.
        -11    1    3    3    0    0  0.31098009320E+01  0.21653053532E+01 -0.74937620827E+01  0.83973733705E+01  0.51100000000E-03 0.  1.
        -12    1    3    3    0    0  0.18717321878E+02  0.30937353054E+02  0.18566758397E+02  0.40647047490E+02  0.00000000000E+00 0.  1.
</event>
<event>
 7    1  0.2405891E-015  0.9000768E+02  0.7816164E-02  0.1186339E+00
        -11   -1    0    0    0    0  0.00000000000E+00  0.00000000000E+00  0.45593999997E+02  0.45594000000E+02  0.51100000000E-03 0.  1.
         11   -1    0    0    0    0 -0.00000000000E+00 -0.00000000000E+00 -0.45593999997E+02  0.45594000000E+02  0.51100000000E-03 0. -1.
    9900012    2    1    2    0    0  0.78546579612E-01  0.23154975598E+00 -0.11547179751E+01  0.90007678664E+02  0.89999939222E+02 0.  0.
        -12    1    1    2    0    0 -0.78546579612E-01 -0.23154975598E+00  0.11547179751E+01  0.11803213362E+01  0.00000000000E+00 0.  1.
         11    1    3    3    0    0  0.16881694348E+01 -0.89869523857E+01 -0.61111687033E+01  0.10998254971E+02  0.51100000000E-03 0. -1.
        -11    1    3    3    0    0 -0.24159159562E+02  0.25093079150E+02  0.26702317253E+02  0.43890105479E+02  0.51100000000E-03 0.  1.
         12    1    3    3    0    0  0.22549536707E+02 -0.15874577008E+02 -0.21745866525E+02  0.35119318214E+02  0.00000000000E+00 0. -1.
</event>
<event>
 7    1  0.2405891E-015  0.9000805E+02  0.7816164E-02  0.1186338E+00
        -11   -1    0    0    0    0  0.00000000000E+00  0.00000000000E+00  0.45593999997E+02  0.45594000000E+02  0.51100000000E-03 0.  1.
         11   -1    0    0    0    0 -0.00000000000E+00 -0.00000000000E+00 -0.45593999997E+02  0.45594000000E+02  0.51100000000E-03 0. -1.
    9900012    2    1    2    0    0 -0.19368985466E+00 -0.98249642067E+00 -0.62407504371E+00  0.90008048884E+02  0.90000314329E+02 0.  0.
        -12    1    1    2    0    0  0.19368985466E+00  0.98249642067E+00  0.62407504371E+00  0.11799511162E+01  0.00000000000E+00 0.  1.
         11    1    3    3    0    0  0.25080638541E+02  0.17337701696E+02 -0.29047016853E+02  0.42111322920E+02  0.51100000000E-03 0. -1.
        -11    1    3    3    0    0 -0.55531127954E+01 -0.64568873872E+01 -0.29276606980E+01  0.90055346245E+01  0.51100000000E-03 0.  1.
        -12    1    3    3    0    0 -0.19721215601E+02 -0.11863310730E+02  0.31350602507E+02  0.38891191339E+02  0.00000000000E+00 0.  1.
</event>
<event>
 7    1  0.2405891E-015  0.9000773E+02  0.7816164E-02  0.1186339E+00
        -11   -1    0    0    0    0  0.00000000000E+00  0.00000000000E+00  0.45593999997E+02  0.45594000000E+02  0.51100000000E-03 0. -1.
         11   -1    0    0    0    0 -0.00000000000E+00 -0.00000000000E+00 -0.45593999997E+02  0.45594000000E+02  0.51100000000E-03 0.  1.
    9900012    2    1    2    0    0 -0.59801784214E+00  0.69195148641E+00  0.74606361077E+00  0.90007731763E+02  0.89999993023E+02 0.  0.
        -12    1    1    2    0    0  0.59801784214E+00 -0.69195148641E+00 -0.74606361077E+00  0.11802682366E+01  0.00000000000E+00 0.  1.
         11    1    3    3    0    0  0.18836258493E+02  0.26105281840E+02  0.14873355646E+02  0.35461346313E+02  0.51100000000E-03 0. -1.
        -11    1    3    3    0    0  0.79602729084E+01  0.36171243180E-01  0.78453628601E+01  0.11176626137E+02  0.51100000000E-03 0.  1.
        -12    1    3    3    0    0 -0.27394549243E+02 -0.25449501596E+02 -0.21972654895E+02  0.43369759313E+02  0.00000000000E+00 0.  1.
</event>
<event>
 7    1  0.2405891E-015  0.9000775E+02  0.7816164E-02  0.1186339E+00
        -11   -1    0    0    0    0  0.00000000000E+00  0.00000000000E+00  0.45593999997E+02  0.45594000000E+02  0.51100000000E-03 0. -1.
         11   -1    0    0    0    0 -0.00000000000E+00 -0.00000000000E+00 -0.45593999997E+02  0.45594000000E+02  0.51100000000E-03 0.  1.
    9900012    2    1    2    0    0  0.75589903644E+00 -0.48472749029E+00  0.76593175774E+00  0.90007747675E+02  0.90000009144E+02 0.  0.
        -12    1    1    2    0    0 -0.75589903644E+00  0.48472749029E+00 -0.76593175774E+00  0.11802523250E+01  0.00000000000E+00 0.  1.
         11    1    3    3    0    0 -0.48139736030E+01  0.13648692935E+02  0.99547302045E+01  0.17565813798E+02  0.51100000000E-03 0. -1.
        -11    1    3    3    0    0  0.14546297245E+02  0.25060206880E+02 -0.13568835865E+02  0.31995656571E+02  0.51100000000E-03 0.  1.
         12    1    3    3    0    0 -0.89764246058E+01 -0.39193627306E+02  0.43800374178E+01  0.40446277306E+02  0.00000000000E+00 0. -1.
</event>
<event>
 7    1  0.2405891E-015  0.9000779E+02  0.7816164E-02  0.1186339E+00
        -11   -1    0    0    0    0  0.00000000000E+00  0.00000000000E+00  0.45593999997E+02  0.45594000000E+02  0.51100000000E-03 0. -1.
         11   -1    0    0    0    0 -0.00000000000E+00 -0.00000000000E+00 -0.45593999997E+02  0.45594000000E+02  0.51100000000E-03 0.  1.
    9900012    2    1    2    0    0  0.16379173932E+00 -0.67134867075E+00  0.95674431815E+00  0.90007789654E+02  0.90000051677E+02 0.  0.
        -12    1    1    2    0    0 -0.16379173932E+00  0.67134867075E+00 -0.95674431815E+00  0.11802103465E+01  0.00000000000E+00 0.  1.
         11    1    3    3    0    0  0.17669261311E+01 -0.10414202055E+02  0.25924269774E+01  0.10876502668E+02  0.51100000000E-03 0. -1.
        -11    1    3    3    0    0 -0.37900361735E+02  0.66090496624E+01 -0.13568085782E+02  0.40794728939E+02  0.51100000000E-03 0.  1.
         12    1    3    3    0    0  0.36297227344E+02  0.31338037218E+01  0.11932403123E+02  0.38336558047E+02  0.00000000000E+00 0. -1.
</event>
<event>
 7    1  0.2405891E-015  0.9000771E+02  0.7816164E-02  0.1186339E+00
        -11   -1    0    0    0    0  0.00000000000E+00  0.00000000000E+00  0.45593999997E+02  0.45594000000E+02  0.51100000000E-03 0.  1.
         11   -1    0    0    0    0 -0.00000000000E+00 -0.00000000000E+00 -0.45593999997E+02  0.45594000000E+02  0.51100000000E-03 0. -1.
    9900012    2    1    2    0    0  0.42795873068E+00 -0.79297569114E+00 -0.76231417911E+00  0.90007711040E+02  0.89999972026E+02 0.  0.
        -12    1    1    2    0    0 -0.42795873068E+00  0.79297569114E+00  0.76231417911E+00  0.11802889602E+01  0.00000000000E+00 0.  1.
         11    1    3    3    0    0  0.29549292893E+02  0.29724164771E+02  0.84988322408E+00  0.41921462088E+02  0.51100000000E-03 0. -1.
        -11    1    3    3    0    0 -0.52959957463E+01 -0.10643409937E+01  0.73848057288E+01  0.91496310641E+01  0.51100000000E-03 0.  1.
        -12    1    3    3    0    0 -0.23825338416E+02 -0.29452799469E+02 -0.89970031320E+01  0.38936617888E+02  0.00000000000E+00 0.  1.
</event>
<event>
 7    1  0.2405891E-015  0.9000775E+02  0.7816164E-02  0.1186339E+00
        -11   -1    0    0    0    0  0.00000000000E+00  0.00000000000E+00  0.45593999997E+02  0.45594000000E+02  0.51100000000E-03 0. -1.
         11   -1    0    0    0    0 -0.00000000000E+00 -0.00000000000E+00 -0.45593999997E+02  0.45594000000E+02  0.51100000000E-03 0.  1.
    9900012    2    1    2    0    0 -0.33742145124E+00  0.48506277550E-01  0.11299483709E+01  0.90007750274E+02  0.90000011778E+02 0.  0.
        -12    1    1    2    0    0  0.33742145124E+00 -0.48506277550E-01 -0.11299483709E+01  0.11802497260E+01  0.00000000000E+00 0.  1.
         11    1    3    3    0    0  0.12545434762E+02 -0.35240868397E+02  0.38476477110E+01  0.37604669018E+02  0.51100000000E-03 0. -1.
        -11    1    3    3    0    0  0.89879236786E+01 -0.61944087182E+00 -0.49862011562E+01  0.10297022933E+02  0.51100000000E-03 0.  1.
        -12    1    3    3    0    0 -0.21870779892E+02  0.35908815547E+02  0.22685018162E+01  0.42106058323E+02  0.00000000000E+00 0.  1.
</event>
<event>
 7    1  0.2405891E-015  0.9000774E+02  0.7816164E-02  0.1186339E+00
        -11   -1    0    0    0    0  0.00000000000E+00  0.00000000000E+00  0.45593999997E+02  0.45594000000E+02  0.51100000000E-03 0. -1.
         11   -1    0    0    0    0 -0.00000000000E+00 -0.00000000000E+00 -0.45593999997E+02  0.45594000000E+02  0.51100000000E-03 0.  1.
    9900012    2    1    2    0    0 -0.94423072806E+00 -0.13406243039E+00  0.69532785428E+00  0.90007735103E+02  0.89999996406E+02 0.  0.
        -12    1    1    2    0    0  0.94423072806E+00  0.13406243039E+00 -0.69532785428E+00  0.11802648974E+01  0.00000000000E+00 0.  1.
         11    1    3    3    0    0 -0.26175615408E+01 -0.61466657135E+01  0.37766509167E+01  0.76743872864E+01  0.51100000000E-03 0. -1.
        -11    1    3    3    0    0  0.36935143114E+02 -0.16265397485E+02  0.14088916737E+01  0.40382581990E+02  0.51100000000E-03 0.  1.
         12    1    3    3    0    0 -0.35261812301E+02  0.22278000768E+02 -0.44902147361E+01  0.41950765826E+02  0.00000000000E+00 0. -1.
</event>
<event>
 7    1  0.2405891E-015  0.9000767E+02  0.7816164E-02  0.1186339E+00
        -11   -1    0    0    0    0  0.00000000000E+00  0.00000000000E+00  0.45593999997E+02  0.45594000000E+02  0.51100000000E-03 0. -1.
         11   -1    0    0    0    0 -0.00000000000E+00 -0.00000000000E+00 -0.45593999997E+02  0.45594000000E+02  0.51100000000E-03 0.  1.
    9900012    2    1    2    0    0 -0.57548349743E+00 -0.86218716920E+00  0.56447236903E+00  0.90007670798E+02  0.89999931252E+02 0.  0.
        -12    1    1    2    0    0  0.57548349743E+00  0.86218716920E+00 -0.56447236903E+00  0.11803292024E+01  0.00000000000E+00 0.  1.
         11    1    3    3    0    0 -0.37871233923E+02 -0.17732021047E+02  0.94668996619E+01  0.42875134037E+02  0.51100000000E-03 0. -1.
        -11    1    3    3    0    0  0.73800769599E+01  0.14746153480E+01  0.66723335646E+01  0.10057835842E+02  0.51100000000E-03 0.  1.
        -12    1    3    3    0    0  0.29915673465E+02  0.15395218530E+02 -0.15574760857E+02  0.37074700919E+02  0.00000000000E+00 0.  1.
</event>
<event>
 7    1  0.2405891E-015  0.9000882E+02  0.7816164E-02  0.1186337E+00
        -11   -1    0    0    0    0  0.00000000000E+00  0.00000000000E+00  0.45593999997E+02  0.45594000000E+02  0.51100000000E-03 0. -1.
         11   -1    0    0    0    0 -0.00000000000E+00 -0.00000000000E+00 -0.45593999997E+02  0.45594000000E+02  0.51100000000E-03 0.  1.
    9900012    2    1    2    0    0  0.79039354060E+00 -0.85644899684E+00  0.17956898723E+00  0.90008817294E+02  0.90001092876E+02 0.  0.
        -12    1    1    2    0    0 -0.79039354060E+00  0.85644899684E+00 -0.17956898723E+00  0.11791827061E+01  0.00000000000E+00 0.  1.
         11    1    3    3    0    0  0.27670724864E+01 -0.80078716181E+01  0.55172007723E+01  0.10110499623E+02  0.51100000000E-03 0. -1.
        -11    1    3    3    0    0  0.36626918201E+02  0.12073358676E+02  0.67423754329E+01  0.39150437461E+02  0.51100000000E-03 0.  1.
         12    1    3    3    0    0 -0.38603597147E+02 -0.49219360546E+01 -0.12080007218E+02  0.40747880210E+02  0.00000000000E+00 0. -1.
</event>
<event>
 7    1  0.2975339E-015  0.9000777E+02  0.7816164E-02  0.1186339E+00
        -11   -1    0    0    0    0  0.00000000000E+00  0.00000000000E+00  0.45593999997E+02  0.45594000000E+02  0.51100000000E-03 0.  1.
         11   -1    0    0    0    0 -0.00000000000E+00 -0.00000000000E+00 -0.45593999997E+02  0.45594000000E+02  0.51100000000E-03 0. -1.
    9900012    2    1    2    0    0 -0.75495470619E+00  0.79548119359E+00  0.43610204568E+00  0.90007774627E+02  0.90000036452E+02 0.  0.
        -12    1    1    2    0    0  0.75495470619E+00 -0.79548119359E+00 -0.43610204568E+00  0.11802253734E+01  0.00000000000E+00 0.  1.
         11    1    3    3    0    0  0.82882351632E+01 -0.25534946333E+01  0.41489241623E+01  0.96139871504E+01  0.51100000000E-03 0. -1.
        -11    1    3    3    0    0  0.17824736236E+02  0.33837759722E+02 -0.93361788252E+01  0.39368508229E+02  0.51100000000E-03 0.  1.
         12    1    3    3    0    0 -0.26867926105E+02 -0.30488783895E+02  0.56233567085E+01  0.41025279247E+02  0.00000000000E+00 0. -1.
</event>
<event>
 7    1  0.2405891E-015  0.9000780E+02  0.7816164E-02  0.1186339E+00
        -11   -1    0    0    0    0  0.00000000000E+00  0.00000000000E+00  0.45593999997E+02  0.45594000000E+02  0.51100000000E-03 0. -1.
         11   -1    0    0    0    0 -0.00000000000E+00 -0.00000000000E+00 -0.45593999997E+02  0.45594000000E+02  0.51100000000E-03 0.  1.
    9900012    2    1    2    0    0  0.32670845311E+00  0.85258008331E+00  0.74782474638E+00  0.90007799567E+02  0.90000061721E+02 0.  0.
        -12    1    1    2    0    0 -0.32670845311E+00 -0.85258008331E+00 -0.74782474638E+00  0.11802004334E+01  0.00000000000E+00 0.  1.
         11    1    3    3    0    0 -0.71707783682E+01  0.39567333303E+02  0.61306946365E+01  0.40676520796E+02  0.51100000000E-03 0. -1.
        -11    1    3    3    0    0 -0.55876626985E+01 -0.49528794851E+00 -0.69158173332E+01  0.89048197192E+01  0.51100000000E-03 0.  1.
        -12    1    3    3    0    0  0.13085149520E+02 -0.38219465271E+02  0.15329474431E+01  0.40426459051E+02  0.00000000000E+00 0.  1.
</event>
<event>
 7    1  0.2405891E-015  0.9000781E+02  0.7816164E-02  0.1186339E+00
        -11   -1    0    0    0    0  0.00000000000E+00  0.00000000000E+00  0.45593999997E+02  0.45594000000E+02  0.51100000000E-03 0.  1.
         11   -1    0    0    0    0 -0.00000000000E+00 -0.00000000000E+00 -0.45593999997E+02  0.45594000000E+02  0.51100000000E-03 0. -1.
    9900012    2    1    2    0    0 -0.69053543983E+00  0.68782136613E+00  0.66551511419E+00  0.90007810273E+02  0.90000072568E+02 0.  0.
        -12    1    1    2    0    0  0.69053543983E+00 -0.68782136613E+00 -0.66551511419E+00  0.11801897274E+01  0.00000000000E+00 0.  1.
         11    1    3    3    0    0 -0.65993614847E+00  0.89243595615E+01  0.52072665005E+01  0.10353517951E+02  0.51100000000E-03 0. -1.
        -11    1    3    3    0    0 -0.28590069122E+02  0.49112099206E+01  0.23648192325E+02  0.37426581941E+02  0.51100000000E-03 0.  1.
         12    1    3    3    0    0  0.28559469831E+02 -0.13147748116E+02 -0.28189943711E+02  0.42227710380E+02  0.00000000000E+00 0. -1.
</event>
<event>
 7    1  0.2405891E-015  0.9000779E+02  0.7816164E-02  0.1186339E+00
        -11   -1    0    0    0    0  0.00000000000E+00  0.00000000000E+00  0.45593999997E+02  0.45594000000E+02  0.51100000000E-03 0.  1.
         11   -1    0    0    0    0 -0.00000000000E+00 -0.00000000000E+00 -0.45593999997E+02  0.45594000000E+02  0.51100000000E-03 0. -1.
    9900012    2    1    2    0    0  0.47174305763E+00 -0.78330575083E+00 -0.74617753728E+00  0.90007792252E+02  0.90000054310E+02 0.  0.
        -12    1    1    2    0    0 -0.47174305763E+00  0.78330575083E+00  0.74617753728E+00  0.11802077482E+01  0.00000000000E+00 0.  1.
         11    1    3    3    0    0  0.59032084980E+01  0.21045513538E+02 -0.29383633757E+02  0.36621843805E+02  0.51100000000E-03 0. -1.
        -11    1    3    3    0    0  0.12251614436E+02 -0.13582575762E+02 -0.52388691022E+00  0.18299258957E+02  0.51100000000E-03 0.  1.
        -12    1    3    3    0    0 -0.17683079876E+02 -0.82462435269E+01  0.29161343130E+02  0.35086689490E+02  0.00000000000E+00 0.  1.
</event>
<event>
 7    1  0.2405891E-015  0.9000777E+02  0.7816164E-02  0.1186339E+00
        -11   -1    0    0    0    0  0.00000000000E+00  0.00000000000E+00  0.45593999997E+02  0.45594000000E+02  0.51100000000E-03 0.  1.
         11   -1    0    0    0    0 -0.00000000000E+00 -0.00000000000E+00 -0.45593999997E+02  0.45594000000E+02  0.51100000000E-03 0. -1.
    9900012    2    1    2    0    0  0.52861172120E+00 -0.99260982243E+00  0.35811637753E+00  0.90007766146E+02  0.90000027859E+02 0.  0.
        -12    1    1    2    0    0 -0.52861172120E+00  0.99260982243E+00 -0.35811637753E+00  0.11802338545E+01  0.00000000000E+00 0.  1.
         11    1    3    3    0    0 -0.25627699758E+01  0.58466790964E+01 -0.13865846439E+01  0.65325388358E+01  0.51100000000E-03 0. -1.
        -11    1    3    3    0    0  0.27822739508E+02 -0.30184925045E+02 -0.17240926103E+02  0.44525094799E+02  0.51100000000E-03 0.  1.
         12    1    3    3    0    0 -0.24731357811E+02  0.23345636126E+02  0.18985627125E+02  0.38950132511E+02  0.00000000000E+00 0. -1.
</event>
<event>
 7    1  0.2405891E-015  0.9000783E+02  0.7816164E-02  0.1186339E+00
        -11   -1    0    0    0    0  0.00000000000E+00  0.00000000000E+00  0.45593999997E+02  0.45594000000E+02  0.51100000000E-03 0. -1.
         11   -1    0    0    0    0 -0.00000000000E+00 -0.00000000000E+00 -0.45593999997E+02  0.45594000000E+02  0.51100000000E-03 0.  1.
    9900012    2    1    2    0    0  0.75051232473E+00 -0.62349494925E+00 -0.66391104302E+00  0.90007833667E+02  0.90000096271E+02 0.  0.
        -12    1    1    2    0    0 -0.75051232473E+00  0.62349494925E+00  0.66391104302E+00  0.11801663333E+01  0.00000000000E+00 0.  1.
         11    1    3    3    0    0  0.14980862381E+01  0.12454285177E+02  0.32453538574E+02  0.34793471340E+02  0.51100000000E-03 0. -1.
        -11    1    3    3    0    0 -0.56170599483E+01  0.85880426233E+01  0.47563467844E+01  0.11310555846E+02  0.51100000000E-03 0.  1.
        -12    1    3    3    0    0  0.48694860349E+01 -0.21665822749E+02 -0.37873796401E+02  0.43903806481E+02  0.00000000000E+00 0.  1.
</event>
<event>
 7    1  0.2405891E-015  0.9000881E+02  0.7816164E-02  0.1186337E+00
        -11   -1    0    0    0    0  0.00000000000E+00  0.00000000000E+00  0.45593999997E+02  0.45594000000E+02  0.51100000000E-03 0.  1.
         11   -1    0    0    0    0 -0.00000000000E+00 -0.00000000000E+00 -0.45593999997E+02  0.45594000000E+02  0.51100000000E-03 0. -1.
    9900012    2    1    2    0    0 -0.10191778045E+01  0.26300548605E+00 -0.53160511370E+00  0.90008805665E+02  0.90001081093E+02 0.  0.
        -12    1    1    2    0    0  0.10191778045E+01 -0.26300548605E+00  0.53160511370E+00  0.11791943350E+01  0.00000000000E+00 0.  1.
         11    1    3    3    0    0 -0.42639586972E+01 -0.50301514758E+01 -0.75388392523E+01  0.10015880649E+02  0.51100000000E-03 0. -1.
        -11    1    3    3    0    0 -0.19930518172E+02  0.23238441827E+02  0.29906245681E+02  0.42797596476E+02  0.51100000000E-03 0.  1.
         12    1    3    3    0    0  0.23175299065E+02 -0.17945284865E+02 -0.22899011542E+02  0.37195328540E+02  0.00000000000E+00 0. -1.
</event>
<event>
 7    1  0.2405891E-015  0.9000775E+02  0.7816164E-02  0.1186339E+00
        -11   -1    0    0    0    0  0.00000000000E+00  0.00000000000E+00  0.45593999997E+02  0.45594000000E+02  0.51100000000E-03 0. -1.
         11   -1    0    0    0    0 -0.00000000000E+00 -0.00000000000E+00 -0.45593999997E+02  0.45594000000E+02  0.51100000000E-03 0.  1.
    9900012    2    1    2    0    0  0.16793444312E+00 -0.53508451911E+00  0.10384945498E+01  0.90007750726E+02  0.90000012235E+02 0.  0.
        -12    1    1    2    0    0 -0.16793444312E+00  0.53508451911E+00 -0.10384945498E+01  0.11802492744E+01  0.00000000000E+00 0.  1.
         11    1    3    3    0    0 -0.98789764631E+01  0.38758131587E+01 -0.23380685996E+01  0.10866584957E+02  0.51100000000E-03 0. -1.
        -11    1    3    3    0    0 -0.34287378556E+02 -0.26456166181E+01 -0.19987142272E+01  0.34447328987E+02  0.51100000000E-03 0.  1.
         12    1    3    3    0    0  0.44334289462E+02 -0.17652810596E+01  0.53752773765E+01  0.44693836781E+02  0.00000000000E+00 0. -1.
</event>
<event>
 7    1  0.2405891E-015  0.9000770E+02  0.7816164E-02  0.1186339E+00
        -11   -1    0    0    0    0  0.00000000000E+00  0.00000000000E+00  0.45593999997E+02  0.45594000000E+02  0.51100000000E-03 0. -1.
         11   -1    0    0    0    0 -0.00000000000E+00 -0.00000000000E+00 -0.45593999997E+02  0.45594000000E+02  0.51100000000E-03 0.  1.
    9900012    2    1    2    0    0  0.58193936214E+00 -0.10092154332E+01 -0.18957748367E+00  0.90007699685E+02  0.89999960521E+02 0.  0.
        -12    1    1    2    0    0 -0.58193936214E+00  0.10092154332E+01  0.18957748367E+00  0.11803003152E+01  0.00000000000E+00 0.  1.
         11    1    3    3    0    0  0.10238083264E+02  0.30553492294E+02 -0.19201796584E+02  0.37510574943E+02  0.51100000000E-03 0. -1.
        -11    1    3    3    0    0  0.10001929116E+02  0.17555219158E+01  0.52914840108E+01  0.11450774932E+02  0.51100000000E-03 0.  1.
        -12    1    3    3    0    0 -0.19658073019E+02 -0.33318229643E+02  0.13720735089E+02  0.41046349810E+02  0.00000000000E+00 0.  1.
</event>
<event>
 7    1  0.2405891E-015  0.9000853E+02  0.7816164E-02  0.1186337E+00
        -11   -1    0    0    0    0  0.00000000000E+00  0.00000000000E+00  0.45593999997E+02  0.45594000000E+02  0.51100000000E-03 0.  1.
         11   -1    0    0    0    0 -0.00000000000E+00 -0.00000000000E+00 -0.45593999997E+02  0.45594000000E+02  0.51100000000E-03 0. -1.
    9900012    2    1    2    0    0 -0.57231469695E-01  0.16960357792E+00 -0.11658090848E+01  0.90008529086E+02  0.90000800866E+02 0.  0.
        -12    1    1    2    0    0  0.57231469695E-01 -0.16960357792E+00  0.11658090848E+01  0.11794709140E+01  0.00000000000E+00 0.  1.
         11    1    3    3    0    0  0.79668910093E+00  0.26599214670E+02 -0.25420232158E+02  0.36801374130E+02  0.51100000000E-03 0. -1.
        -11    1    3    3    0    0  0.20512401533E+01  0.18239984837E+01 -0.90378594629E+01  0.94454994874E+01  0.51100000000E-03 0.  1.
        -12    1    3    3    0    0 -0.29051607240E+01 -0.28253609576E+02  0.33292282536E+02  0.43761655469E+02  0.00000000000E+00 0.  1.
</event>
<event>
 7    1  0.2405891E-015  0.9000776E+02  0.7816164E-02  0.1186339E+00
        -11   -1    0    0    0    0  0.00000000000E+00  0.00000000000E+00  0.45593999997E+02  0.45594000000E+02  0.51100000000E-03 0. -1.
         11   -1    0    0    0    0 -0.00000000000E+00 -0.00000000000E+00 -0.45593999997E+02  0.45594000000E+02  0.51100000000E-03 0.  1.
    9900012    2    1    2    0    0  0.84946208344E+00 -0.19310253114E+00  0.79630375522E+00  0.90007756767E+02  0.90000018356E+02 0.  0.
        -12    1    1    2    0    0 -0.84946208344E+00  0.19310253114E+00 -0.79630375522E+00  0.11802432331E+01  0.00000000000E+00 0.  1.
         11    1    3    3    0    0  0.10495693072E+02 -0.78628859574E+01  0.43732762534E+01  0.13824257451E+02  0.51100000000E-03 0. -1.
        -11    1    3    3    0    0  0.51443912361E+01 -0.15854781207E+02 -0.32219975412E+02  0.36276241042E+02  0.51100000000E-03 0.  1.
         12    1    3    3    0    0 -0.14790622224E+02  0.23524564633E+02  0.28643002914E+02  0.39907258273E+02  0.00000000000E+00 0. -1.
</event>
<event>
 7    1  0.2405891E-015  0.9000763E+02  0.7816164E-02  0.1186339E+00
        -11   -1    0    0    0    0  0.00000000000E+00  0.00000000000E+00  0.45593999997E+02  0.45594000000E+02  0.51100000000E-03 0.  1.
         11   -1    0    0    0    0 -0.00000000000E+00 -0.00000000000E+00 -0.45593999997E+02  0.45594000000E+02  0.51100000000E-03 0. -1.
    9900012    2    1    2    0    0 -0.87341297330E+00 -0.79120088666E+00  0.66596026355E-01  0.90007625443E+02  0.89999885298E+02 0.  0.
        -12    1    1    2    0    0  0.87341297330E+00  0.79120088666E+00 -0.66596026355E-01  0.11803745574E+01  0.00000000000E+00 0.  1.
         11    1    3    3    0    0 -0.11254554881E+01  0.78088435506E+01 -0.21305863616E+01  0.81721530920E+01  0.51100000000E-03 0. -1.
        -11    1    3    3    0    0 -0.27584720419E+02 -0.34226894039E+02  0.18240905747E+01  0.43996867875E+02  0.51100000000E-03 0.  1.
         12    1    3    3    0    0  0.27836762934E+02  0.25626849601E+02  0.37309181334E+00  0.37838604475E+02  0.00000000000E+00 0. -1.
</event>
<event>
 7    1  0.2405891E-015  0.9000762E+02  0.7816164E-02  0.1186339E+00
        -11   -1    0    0    0    0  0.00000000000E+00  0.00000000000E+00  0.45593999997E+02  0.45594000000E+02  0.51100000000E-03 0.  1.
         11   -1    0    0    0    0 -0.00000000000E+00 -0.00000000000E+00 -0.45593999997E+02  0.45594000000E+02  0.51100000000E-03 0. -1.
    9900012    2    1    2    0    0  0.49926263385E+00  0.70905060248E+00 -0.80079506933E+00  0.90007623502E+02  0.89999883332E+02 0.  0.
        -12    1    1    2    0    0 -0.49926263385E+00 -0.70905060248E+00  0.80079506933E+00  0.11803764982E+01  0.00000000000E+00 0.  1.
         11    1    3    3    0    0 -0.19829466361E+02  0.16508588241E+02 -0.24241088550E+02  0.35402988521E+02  0.51100000000E-03 0. -1.
        -11    1    3    3    0    0 -0.66655827217E+01  0.68333803577E+01 -0.35936297851E+01  0.10199963501E+02  0.51100000000E-03 0.  1.
        -12    1    3    3    0    0  0.26994311716E+02 -0.22632917996E+02  0.27033923266E+02  0.44404671480E+02  0.00000000000E+00 0.  1.
</event>
<event>
 7    1  0.2405891E-015  0.9000771E+02  0.7816164E-02  0.1186339E+00
        -11   -1    0    0    0    0  0.00000000000E+00  0.00000000000E+00  0.45593999997E+02  0.45594000000E+02  0.51100000000E-03 0.  1.
         11   -1    0    0    0    0 -0.00000000000E+00 -0.00000000000E+00 -0.45593999997E+02  0.45594000000E+02  0.51100000000E-03 0. -1.
    9900012    2    1    2    0    0  0.14770431645E+00  0.93880269770E+00 -0.69994252518E+00  0.90007709100E+02  0.89999970060E+02 0.  0.
        -12    1    1    2    0    0 -0.14770431645E+00 -0.93880269770E+00  0.69994252518E+00  0.11802909001E+01  0.00000000000E+00 0.  1.
         11    1    3    3    0    0 -0.14537947235E+01 -0.78191707744E+01  0.62737122849E+01  0.10129778714E+02  0.51100000000E-03 0. -1.
        -11    1    3    3    0    0 -0.31891988283E+02  0.14813606910E+02  0.16184464803E+02  0.38710189454E+02  0.51100000000E-03 0.  1.
         12    1    3    3    0    0  0.33493487323E+02 -0.60556334381E+01 -0.23158119613E+02  0.41167740932E+02  0.00000000000E+00 0. -1.
</event>
<event>
 7    1  0.2405891E-015  0.9000840E+02  0.7816164E-02  0.1186338E+00
        -11   -1    0    0    0    0  0.00000000000E+00  0.00000000000E+00  0.45593999997E+02  0.45594000000E+02  0.51100000000E-03 0. -1.
         11   -1    0    0    0    0 -0.00000000000E+00 -0.00000000000E+00 -0.45593999997E+02  0.45594000000E+02  0.51100000000E-03 0.  1.
    9900012    2    1    2    0    0  0.38038207417E-01 -0.44128830898E+00  0.10932880620E+01  0.90008397922E+02  0.90000667972E+02 0.  0.
        -12    1    1    2    0    0 -0.38038207417E-01  0.44128830898E+00 -0.10932880620E+01  0.11796020784E+01  0.00000000000E+00 0.  1.
         11    1    3    3    0    0  0.37038781079E+02 -0.42376255061E+01  0.16448106834E+02  0.40747625605E+02  0.51100000000E-03 0. -1.
        -11    1    3    3    0    0 -0.15811132771E+01 -0.89477728046E+01 -0.18780200530E+01  0.92784436700E+01  0.51100000000E-03 0.  1.
        -12    1    3    3    0    0 -0.35419629594E+02  0.12744110002E+02 -0.13476798719E+02  0.39982328647E+02  0.00000000000E+00 0.  1.
</event>
<event>
 7    1  0.2405891E-015  0.9000787E+02  0.7816164E-02  0.1186339E+00
        -11   -1    0    0    0    0  0.00000000000E+00  0.00000000000E+00  0.45593999997E+02  0.45594000000E+02  0.51100000000E-03 0. -1.
         11   -1    0    0    0    0 -0.00000000000E+00 -0.00000000000E+00 -0.45593999997E+02  0.45594000000E+02  0.51100000000E-03 0.  1.
    9900012    2    1    2    0    0 -0.52191097116E+00 -0.10246863355E+01 -0.26521196197E+00  0.90007868426E+02  0.90000131489E+02 0.  0.
        -12    1    1    2    0    0  0.52191097116E+00  0.10246863355E+01  0.26521196197E+00  0.11801315743E+01  0.00000000000E+00 0.  1.
         11    1    3    3    0    0  0.30189429753E+02  0.91969356601E+01  0.24784525952E+02  0.40128020401E+02  0.51100000000E-03 0. -1.
        -11    1    3    3    0    0  0.33698822320E+01  0.23884200388E+01 -0.94892067050E+01  0.10349188407E+02  0.51100000000E-03 0.  1.
        -12    1    3    3    0    0 -0.34081222956E+02 -0.12610042034E+02 -0.15560531209E+02  0.39530659618E+02  0.00000000000E+00 0.  1.
</event>
<event>
 7    1  0.2405891E-015  0.9000785E+02  0.7816164E-02  0.1186339E+00
        -11   -1    0    0    0    0  0.00000000000E+00  0.00000000000E+00  0.45593999997E+02  0.45594000000E+02  0.51100000000E-03 0. -1.
         11   -1    0    0    0    0 -0.00000000000E+00 -0.00000000000E+00 -0.45593999997E+02  0.45594000000E+02  0.51100000000E-03 0.  1.
    9900012    2    1    2    0    0 -0.68013239440E+00 -0.43922712512E+00  0.85863540804E+00  0.90007849457E+02  0.90000112269E+02 0.  0.
        -12    1    1    2    0    0  0.68013239440E+00  0.43922712512E+00 -0.85863540804E+00  0.11801505435E+01  0.00000000000E+00 0.  1.
         11    1    3    3    0    0 -0.12273304164E+01 -0.22748852276E+02  0.24128843341E+02  0.33184600360E+02  0.51100000000E-03 0. -1.
        -11    1    3    3    0    0 -0.30059171846E+01  0.14628845612E+01  0.13770718117E+02  0.14170682661E+02  0.51100000000E-03 0.  1.
        -12    1    3    3    0    0  0.35531152066E+01  0.20846740590E+02 -0.37040926050E+02  0.42652566435E+02  0.00000000000E+00 0.  1.
</event>
<event>
 7    1  0.2405891E-015  0.9000777E+02  0.7816164E-02  0.1186339E+00
        -11   -1    0    0    0    0  0.00000000000E+00  0.00000000000E+00  0.45593999997E+02  0.45594000000E+02  0.51100000000E-03 0.  1.
         11   -1    0    0    0    0 -0.00000000000E+00 -0.00000000000E+00 -0.45593999997E+02  0.45594000000E+02  0.51100000000E-03 0. -1.
    9900012    2    1    2    0    0  0.11887994200E+00 -0.10089622805E+01 -0.60067265555E+00  0.90007769106E+02  0.90000030858E+02 0.  0.
        -12    1    1    2    0    0 -0.11887994200E+00  0.10089622805E+01  0.60067265555E+00  0.11802308941E+01  0.00000000000E+00 0.  1.
         11    1    3    3    0    0 -0.92267485840E+01 -0.33432427287E+02 -0.14296152980E+02  0.37513198664E+02  0.51100000000E-03 0. -1.
        -11    1    3    3    0    0 -0.83193607019E+01 -0.47066470581E+01  0.25934989893E+01  0.99040661492E+01  0.51100000000E-03 0.  1.
        -12    1    3    3    0    0  0.17664989228E+02  0.37130112065E+02  0.11101981335E+02  0.42590504293E+02  0.00000000000E+00 0.  1.
</event>
<event>
 7    1  0.2405891E-015  0.9000774E+02  0.7816164E-02  0.1186339E+00
        -11   -1    0    0    0    0  0.00000000000E+00  0.00000000000E+00  0.45593999997E+02  0.45594000000E+02  0.51100000000E-03 0.  1.
         11   -1    0    0    0    0 -0.00000000000E+00 -0.00000000000E+00 -0.45593999997E+02  0.45594000000E+02  0.51100000000E-03 0. -1.
    9900012    2    1    2    0    0 -0.10345552166E+01  0.43939199941E+00 -0.36005987599E+00  0.90007740308E+02  0.90000001680E+02 0.  0.
        -12    1    1    2    0    0  0.10345552166E+01 -0.43939199941E+00  0.36005987599E+00  0.11802596916E+01  0.00000000000E+00 0.  1.
         11    1    3    3    0    0  0.22260211012E+02  0.19107488068E+02 -0.24674650275E+02  0.38333424854E+02  0.51100000000E-03 0. -1.
        -11    1    3    3    0    0  0.56249570634E+01  0.53938534830E+01  0.24899636664E+01  0.81813028719E+01  0.51100000000E-03 0.  1.
        -12    1    3    3    0    0 -0.28919723292E+02 -0.24061949551E+02  0.21824626733E+02  0.43493012583E+02  0.00000000000E+00 0.  1.
</event>
<event>
 7    1  0.2405891E-015  0.9000778E+02  0.7816164E-02  0.1186339E+00
        -11   -1    0    0    0    0  0.00000000000E+00  0.00000000000E+00  0.45593999997E+02  0.45594000000E+02  0.51100000000E-03 0. -1.
         11   -1    0    0    0    0 -0.00000000000E+00 -0.00000000000E+00 -0.45593999997E+02  0.45594000000E+02  0.51100000000E-03 0.  1.
    9900012    2    1    2    0    0 -0.30727371995E+00  0.52893449218E+00  0.10093165410E+01  0.90007784462E+02  0.90000046417E+02 0.  0.
        -12    1    1    2    0    0  0.30727371995E+00 -0.52893449218E+00 -0.10093165410E+01  0.11802155379E+01  0.00000000000E+00 0.  1.
         11    1    3    3    0    0 -0.42269853993E+02 -0.90280762071E+00  0.27276161382E+01  0.42367387320E+02  0.51100000000E-03 0. -1.
        -11    1    3    3    0    0  0.47994251403E+01 -0.37904813269E+01  0.68123173299E+01  0.91547746029E+01  0.51100000000E-03 0.  1.
        -12    1    3    3    0    0  0.37163155133E+02  0.52222234398E+01 -0.85306169271E+01  0.38485622540E+02  0.00000000000E+00 0.  1.
</event>
<event>
 7    1  0.2405891E-015  0.9000779E+02  0.7816164E-02  0.1186339E+00
        -11   -1    0    0    0    0  0.00000000000E+00  0.00000000000E+00  0.45593999997E+02  0.45594000000E+02  0.51100000000E-03 0.  1.
         11   -1    0    0    0    0 -0.00000000000E+00 -0.00000000000E+00 -0.45593999997E+02  0.45594000000E+02  0.51100000000E-03 0. -1.
    9900012    2    1    2    0    0  0.42422137781E+00 -0.10775977778E+01  0.22738538133E+00  0.90007794569E+02  0.90000056657E+02 0.  0.
        -12    1    1    2    0    0 -0.42422137781E+00  0.10775977778E+01 -0.22738538133E+00  0.11802054311E+01  0.00000000000E+00 0.  1.
         11    1    3    3    0    0 -0.31204966343E+02 -0.11045644764E+02  0.21273991665E+02  0.39348937907E+02  0.51100000000E-03 0. -1.
        -11    1    3    3    0    0 -0.35747527456E+01 -0.62678240072E+01 -0.21367567785E+01  0.75253042974E+01  0.51100000000E-03 0.  1.
        -12    1    3    3    0    0  0.35203940467E+02  0.16235870993E+02 -0.18909849505E+02  0.43133552365E+02  0.00000000000E+00 0.  1.
</event>
<event>
 7    1  0.2405891E-015  0.9000772E+02  0.7816164E-02  0.1186339E+00
        -11   -1    0    0    0    0  0.00000000000E+00  0.00000000000E+00  0.45593999997E+02  0.45594000000E+02  0.51100000000E-03 0.  1.
         11   -1    0    0    0    0 -0.00000000000E+00 -0.00000000000E+00 -0.45593999997E+02  0.45594000000E+02  0.51100000000E-03 0. -1.
    9900012    2    1    2    0    0  0.84148064320E+00 -0.81182812116E+00 -0.16093521630E+00  0.90007722611E+02  0.89999983749E+02 0.  0.
        -12    1    1    2    0    0 -0.84148064320E+00  0.81182812116E+00  0.16093521630E+00  0.11802773890E+01  0.00000000000E+00 0.  1.
         11    1    3    3    0    0  0.96496323125E-02 -0.74238938149E+01  0.67157306047E+01  0.10010760726E+02  0.51100000000E-03 0. -1.
        -11    1    3    3    0    0  0.72940666119E+01 -0.35187803803E+02  0.44496068964E+01  0.36210274039E+02  0.51100000000E-03 0.  1.
         12    1    3    3    0    0 -0.64622356011E+01  0.41799869496E+02 -0.11326272717E+02  0.43786687846E+02  0.00000000000E+00 0. -1.
</event>
<event>
 7    1  0.2405891E-015  0.9000775E+02  0.7816164E-02  0.1186339E+00
        -11   -1    0    0    0    0  0.00000000000E+00  0.00000000000E+00  0.45593999997E+02  0.45594000000E+02  0.51100000000E-03 0.  1.
         11   -1    0    0    0    0 -0.00000000000E+00 -0.00000000000E+00 -0.45593999997E+02  0.45594000000E+02  0.51100000000E-03 0. -1.
    9900012    2    1    2    0    0  0.65702257216E-01  0.10421164301E+01  0.55014645208E+00  0.90007752331E+02  0.90000013862E+02 0.  0.
        -12    1    1    2    0    0 -0.65702257216E-01 -0.10421164301E+01 -0.55014645208E+00  0.11802476686E+01  0.00000000000E+00 0.  1.
         11    1    3    3    0    0 -0.16662312925E+02  0.31862920505E+02 -0.17638883509E+02  0.40050075990E+02  0.51100000000E-03 0. -1.
        -11    1    3    3    0    0  0.66804726902E+01  0.22896134439E+01 -0.46889784137E+01  0.84768840921E+01  0.51100000000E-03 0.  1.
        -12    1    3    3    0    0  0.10047542493E+02 -0.33110417518E+02  0.22878008375E+02  0.41480792249E+02  0.00000000000E+00 0.  1.
</event>
<event>
 7    1  0.2405891E-015  0.9000784E+02  0.7816164E-02  0.1186339E+00
        -11   -1    0    0    0    0  0.00000000000E+00  0.00000000000E+00  0.45593999997E+02  0.45594000000E+02  0.51100000000E-03 0.  1.
         11   -1    0    0    0    0 -0.00000000000E+00 -0.00000000000E+00 -0.45593999997E+02  0.45594000000E+02  0.51100000000E-03 0. -1.
    9900012    2    1    2    0    0  0.66836515762E-01 -0.62388193099E+00 -0.99954147428E+00  0.90007839442E+02  0.90000102123E+02 0.  0.
        -12    1    1    2    0    0 -0.66836515762E-01  0.62388193099E+00  0.99954147428E+00  0.11801605579E+01  0.00000000000E+00 0.  1.
         11    1    3    3    0    0  0.77190112213E+01 -0.87838830944E+01  0.11008488319E+02  0.16060091899E+02  0.51100000000E-03 0. -1.
        -11    1    3    3    0    0  0.20690826236E+01 -0.23867477840E+02  0.17226677684E+02  0.29507558788E+02  0.51100000000E-03 0.  1.
         12    1    3    3    0    0 -0.97212573292E+01  0.32027479003E+02 -0.29234707477E+02  0.44440188756E+02  0.00000000000E+00 0. -1.
</event>
<event>
 7    1  0.2405891E-015  0.9000772E+02  0.7816164E-02  0.1186339E+00
        -11   -1    0    0    0    0  0.00000000000E+00  0.00000000000E+00  0.45593999997E+02  0.45594000000E+02  0.51100000000E-03 0.  1.
         11   -1    0    0    0    0 -0.00000000000E+00 -0.00000000000E+00 -0.45593999997E+02  0.45594000000E+02  0.51100000000E-03 0. -1.
    9900012    2    1    2    0    0  0.11598852245E+01 -0.21356193758E+00 -0.45951965800E-01  0.90007722906E+02  0.89999984049E+02 0.  0.
        -12    1    1    2    0    0 -0.11598852245E+01  0.21356193758E+00  0.45951965800E-01  0.11802770938E+01  0.00000000000E+00 0.  1.
         11    1    3    3    0    0 -0.36692792386E+01 -0.82254831296E+01 -0.30633677272E+01  0.95134854254E+01  0.51100000000E-03 0. -1.
        -11    1    3    3    0    0  0.38192604244E+02  0.19266428008E+01  0.19343730375E+02  0.42855184943E+02  0.51100000000E-03 0.  1.
         12    1    3    3    0    0 -0.33363439781E+02  0.60852783913E+01 -0.16326314613E+02  0.37639052538E+02  0.00000000000E+00 0. -1.
</event>
<event>
 7    1  0.2405891E-015  0.9000862E+02  0.7816164E-02  0.1186337E+00
        -11   -1    0    0    0    0  0.00000000000E+00  0.00000000000E+00  0.45593999997E+02  0.45594000000E+02  0.51100000000E-03 0. -1.
         11   -1    0    0    0    0 -0.00000000000E+00 -0.00000000000E+00 -0.45593999997E+02  0.45594000000E+02  0.51100000000E-03 0.  1.
    9900012    2    1    2    0    0  0.32189079269E+00  0.10867445331E+01  0.32604856428E+00  0.90008620914E+02  0.90000893905E+02 0.  0.
        -12    1    1    2    0    0 -0.32189079269E+00 -0.10867445331E+01 -0.32604856428E+00  0.11793790862E+01  0.00000000000E+00 0.  1.
         11    1    3    3    0    0  0.79702497130E+01  0.34409657843E+01 -0.22362033774E+01  0.89646936268E+01  0.51100000000E-03 0. -1.
        -11    1    3    3    0    0  0.94442962022E+01  0.10013247156E+02 -0.35195679295E+02  0.37791476429E+02  0.51100000000E-03 0.  1.
         12    1    3    3    0    0 -0.17092655122E+02 -0.12367468407E+02  0.37757931237E+02  0.43252450858E+02  0.00000000000E+00 0. -1.
</event>
<event>
 7    1  0.2405891E-015  0.9000875E+02  0.7816164E-02  0.1186337E+00
        -11   -1    0    0    0    0  0.00000000000E+00  0.00000000000E+00  0.45593999997E+02  0.45594000000E+02  0.51100000000E-03 0. -1.
         11   -1    0    0    0    0 -0.00000000000E+00 -0.00000000000E+00 -0.45593999997E+02  0.45594000000E+02  0.51100000000E-03 0.  1.
    9900012    2    1    2    0    0  0.11654428559E+01 -0.13029570134E+00  0.12406544011E+00  0.90008751827E+02  0.90001026545E+02 0.  0.
        -12    1    1    2    0    0 -0.11654428559E+01  0.13029570134E+00 -0.12406544011E+00  0.11792481730E+01  0.00000000000E+00 0.  1.
         11    1    3    3    0    0 -0.33030819769E+02  0.19855939664E+02  0.78440054246E+01  0.39329655680E+02  0.51100000000E-03 0. -1.
        -11    1    3    3    0    0  0.70385797749E+01  0.82471810247E+01 -0.57171796013E+00  0.10857461112E+02  0.51100000000E-03 0.  1.
        -12    1    3    3    0    0  0.27157682850E+02 -0.28233416390E+02 -0.71482220244E+01  0.39821635036E+02  0.00000000000E+00 0.  1.
</event>
<event>
 7    1  0.2405891E-015  0.9000767E+02  0.7816164E-02  0.1186339E+00
        -11   -1    0    0    0    0  0.00000000000E+00  0.00000000000E+00  0.45593999997E+02  0.45594000000E+02  0.51100000000E-03 0.  1.
         11   -1    0    0    0    0 -0.00000000000E+00 -0.00000000000E+00 -0.45593999997E+02  0.45594000000E+02  0.51100000000E-03 0. -1.
    9900012    2    1    2    0    0 -0.95308518850E+00 -0.65782845824E+00  0.22819881968E+00  0.90007667692E+02  0.89999928105E+02 0.  0.
        -12    1    1    2    0    0  0.95308518850E+00  0.65782845824E+00 -0.22819881968E+00  0.11803323084E+01  0.00000000000E+00 0.  1.
         11    1    3    3    0    0 -0.47311039691E+01 -0.56557384149E+01  0.39692531667E+01  0.83741084747E+01  0.51100000000E-03 0. -1.
        -11    1    3    3    0    0  0.22514015259E+02 -0.30963892569E+02  0.86187400233E+01  0.39241893506E+02  0.51100000000E-03 0.  1.
         12    1    3    3    0    0 -0.18735996478E+02  0.35961802525E+02 -0.12359794370E+02  0.42391665711E+02  0.00000000000E+00 0. -1.
</event>
<event>
 7    1  0.2405891E-015  0.9000767E+02  0.7816164E-02  0.1186339E+00
        -11   -1    0    0    0    0  0.00000000000E+00  0.00000000000E+00  0.45593999997E+02  0.45594000000E+02  0.51100000000E-03 0. -1.
         11   -1    0    0    0    0 -0.00000000000E+00 -0.00000000000E+00 -0.45593999997E+02  0.45594000000E+02  0.51100000000E-03 0.  1.
    9900012    2    1    2    0    0  0.10992074340E+01 -0.38642179149E+00  0.18865217381E+00  0.90007674440E+02  0.89999934943E+02 0.  0.
        -12    1    1    2    0    0 -0.10992074340E+01  0.38642179149E+00 -0.18865217381E+00  0.11803255596E+01  0.00000000000E+00 0.  1.
         11    1    3    3    0    0 -0.13858391163E+00 -0.36996415451E+02 -0.17658796308E+02  0.40994963703E+02  0.51100000000E-03 0. -1.
        -11    1    3    3    0    0  0.32595637455E+01 -0.26305964157E+01 -0.23817515497E+01  0.48184576390E+01  0.51100000000E-03 0.  1.
        -12    1    3    3    0    0 -0.20217723998E+01  0.39240590075E+02  0.20229200031E+02  0.44194253099E+02  0.00000000000E+00 0.  1.
</event>
<event>
 7    1  0.2405891E-015  0.9000776E+02  0.7816164E-02  0.1186339E+00
        -11   -1    0    0    0    0  0.00000000000E+00  0.00000000000E+00  0.45593999997E+02  0.45594000000E+02  0.51100000000E-03 0. -1.
         11   -1    0    0    0    0 -0.00000000000E+00 -0.00000000000E+00 -0.45593999997E+02  0.45594000000E+02  0.51100000000E-03 0.  1.
    9900012    2    1    2    0    0  0.68487616486E+00 -0.96078688029E+00  0.28475283474E-01  0.90007755266E+02  0.90000016835E+02 0.  0.
        -12    1    1    2    0    0 -0.68487616486E+00  0.96078688029E+00 -0.28475283474E-01  0.11802447341E+01  0.00000000000E+00 0.  1.
         11    1    3    3    0    0 -0.13310767611E+02 -0.12204625653E+02  0.89285815675E+01  0.20145694101E+02  0.51100000000E-03 0. -1.
        -11    1    3    3    0    0  0.42894849819E+01 -0.10163685285E+02 -0.33839077982E+02  0.35591900468E+02  0.51100000000E-03 0.  1.
         12    1    3    3    0    0  0.97061587941E+01  0.21407524058E+02  0.24938971698E+02  0.34270160697E+02  0.00000000000E+00 0. -1.
</event>
<event>
 7    1  0.2405891E-015  0.9000775E+02  0.7816164E-02  0.1186339E+00
        -11   -1    0    0    0    0  0.00000000000E+00  0.00000000000E+00  0.45593999997E+02  0.45594000000E+02  0.51100000000E-03 0.  1.
         11   -1    0    0    0    0 -0.00000000000E+00 -0.00000000000E+00 -0.45593999997E+02  0.45594000000E+02  0.51100000000E-03 0. -1.
    9900012    2    1    2    0    0 -0.23964639301E+00 -0.11401720729E+01 -0.18861026843E+00  0.90007747238E+02  0.90000008701E+02 0.  0.
        -12    1    1    2    0    0  0.23964639301E+00  0.11401720729E+01  0.18861026843E+00  0.11802527623E+01  0.00000000000E+00 0.  1.
         11    1    3    3    0    0 -0.90645627470E+01 -0.16620390399E+01 -0.56202197216E+01  0.10794236497E+02  0.51100000000E-03 0. -1.
        -11    1    3    3    0    0  0.14032665625E+02 -0.19184793322E+01  0.40899486789E+02  0.43282378485E+02  0.51100000000E-03 0.  1.
         12    1    3    3    0    0 -0.52077492709E+01  0.24403462992E+01 -0.35467877335E+02  0.35931132256E+02  0.00000000000E+00 0. -1.
</event>
<event>
 7    1  0.2405891E-015  0.9000769E+02  0.7816164E-02  0.1186339E+00
        -11   -1    0    0    0    0  0.00000000000E+00  0.00000000000E+00  0.45593999997E+02  0.45594000000E+02  0.51100000000E-03 0. -1.
         11   -1    0    0    0    0 -0.00000000000E+00 -0.00000000000E+00 -0.45593999997E+02  0.45594000000E+02  0.51100000000E-03 0.  1.
    9900012    2    1    2    0    0  0.11276450559E+01 -0.34801815202E+00  0.20552720133E-01  0.90007693929E+02  0.89999954689E+02 0.  0.
        -12    1    1    2    0    0 -0.11276450559E+01  0.34801815202E+00 -0.20552720133E-01  0.11803060707E+01  0.00000000000E+00 0.  1.
         11    1    3    3    0    0  0.30781739104E+02 -0.12163207852E+02  0.16297766516E+02  0.36892767329E+02  0.51100000000E-03 0. -1.
        -11    1    3    3    0    0  0.87895181899E+01 -0.82741763810E-01  0.18427328073E+01  0.89809877336E+01  0.51100000000E-03 0.  1.
        -12    1    3    3    0    0 -0.38443612238E+02  0.11897931463E+02 -0.18119946603E+02  0.44133938867E+02  0.00000000000E+00 0.  1.
</event>
<event>
 7    1  0.2405891E-015  0.9000781E+02  0.7816164E-02  0.1186339E+00
        -11   -1    0    0    0    0  0.00000000000E+00  0.00000000000E+00  0.45593999997E+02  0.45594000000E+02  0.51100000000E-03 0.  1.
         11   -1    0    0    0    0 -0.00000000000E+00 -0.00000000000E+00 -0.45593999997E+02  0.45594000000E+02  0.51100000000E-03 0. -1.
    9900012    2    1    2    0    0 -0.30495732718E+00  0.37154957718E+00 -0.10778645385E+01  0.90007813564E+02  0.90000075903E+02 0.  0.
        -12    1    1    2    0    0  0.30495732718E+00 -0.37154957718E+00  0.10778645385E+01  0.11801864357E+01  0.00000000000E+00 0.  1.
         11    1    3    3    0    0 -0.23374501121E+02 -0.23136650570E+02 -0.16458369472E+02  0.36777028540E+02  0.51100000000E-03 0. -1.
        -11    1    3    3    0    0 -0.90174453727E+01 -0.22958504854E+01  0.83201152420E-01  0.93054915611E+01  0.51100000000E-03 0.  1.
        -12    1    3    3    0    0  0.32086989167E+02  0.25804050633E+02  0.15297303781E+02  0.43925293463E+02  0.00000000000E+00 0.  1.
</event>
<event>
 7    1  0.2405891E-015  0.9000775E+02  0.7816164E-02  0.1186339E+00
        -11   -1    0    0    0    0  0.00000000000E+00  0.00000000000E+00  0.45593999997E+02  0.45594000000E+02  0.51100000000E-03 0.  1.
         11   -1    0    0    0    0 -0.00000000000E+00 -0.00000000000E+00 -0.45593999997E+02  0.45594000000E+02  0.51100000000E-03 0. -1.
    9900012    2    1    2    0    0 -0.12363621677E+00  0.11497559171E+01 -0.23613711843E+00  0.90007752008E+02  0.90000013535E+02 0.  0.
        -12    1    1    2    0    0  0.12363621677E+00 -0.11497559171E+01  0.23613711843E+00  0.11802479916E+01  0.00000000000E+00 0.  1.
         11    1    3    3    0    0 -0.10642636400E+02  0.94476874212E+01 -0.35746849093E+01  0.14673202773E+02  0.51100000000E-03 0. -1.
        -11    1    3    3    0    0 -0.16446987276E+02  0.23654475371E+02  0.14223807827E+02  0.32130270850E+02  0.51100000000E-03 0.  1.
         12    1    3    3    0    0  0.26965987459E+02 -0.31952406875E+02 -0.10885260036E+02  0.43204278386E+02  0.00000000000E+00 0. -1.
</event>
<event>
 7    1  0.2405891E-015  0.9000778E+02  0.7816164E-02  0.1186339E+00
        -11   -1    0    0    0    0  0.00000000000E+00  0.00000000000E+00  0.45593999997E+02  0.45594000000E+02  0.51100000000E-03 0.  1.
         11   -1    0    0    0    0 -0.00000000000E+00 -0.00000000000E+00 -0.45593999997E+02  0.45594000000E+02  0.51100000000E-03 0. -1.
    9900012    2    1    2    0    0 -0.66983556539E+00  0.69356935478E+00 -0.68059470946E+00  0.90007776592E+02  0.90000038443E+02 0.  0.
        -12    1    1    2    0    0  0.66983556539E+00 -0.69356935478E+00  0.68059470946E+00  0.11802234081E+01  0.00000000000E+00 0.  1.
         11    1    3    3    0    0  0.88058453496E+01 -0.37077559464E+02 -0.16144701031E+02  0.41387675699E+02  0.51100000000E-03 0. -1.
        -11    1    3    3    0    0 -0.97372203604E+01  0.23410823582E+01  0.13604774030E+00  0.10015619612E+02  0.51100000000E-03 0.  1.
        -12    1    3    3    0    0  0.26153944544E+00  0.35430046461E+02  0.15328058581E+02  0.38604481281E+02  0.00000000000E+00 0.  1.
</event>
<event>
 7    1  0.2405891E-015  0.9000780E+02  0.7816164E-02  0.1186339E+00
        -11   -1    0    0    0    0  0.00000000000E+00  0.00000000000E+00  0.45593999997E+02  0.45594000000E+02  0.51100000000E-03 0.  1.
         11   -1    0    0    0    0 -0.00000000000E+00 -0.00000000000E+00 -0.45593999997E+02  0.45594000000E+02  0.51100000000E-03 0. -1.
    9900012    2    1    2    0    0 -0.28213467303E+00  0.83921887357E+00  0.78037654393E+00  0.90007798389E+02  0.90000060528E+02 0.  0.
        -12    1    1    2    0    0  0.28213467303E+00 -0.83921887357E+00 -0.78037654393E+00  0.11802016107E+01  0.00000000000E+00 0.  1.
         11    1    3    3    0    0  0.34510500624E+01 -0.12264412888E+02  0.62379629499E+01  0.14185829269E+02  0.51100000000E-03 0. -1.
        -11    1    3    3    0    0 -0.22379047029E+02 -0.25779536243E+01  0.27047416653E+02  0.35199862765E+02  0.51100000000E-03 0.  1.
         12    1    3    3    0    0  0.18645862294E+02  0.15681585386E+02 -0.32505003059E+02  0.40622106355E+02  0.00000000000E+00 0. -1.
</event>
<event>
 7    1  0.2405891E-015  0.9000759E+02  0.7816164E-02  0.1186339E+00
        -11   -1    0    0    0    0  0.00000000000E+00  0.00000000000E+00  0.45593999997E+02  0.45594000000E+02  0.51100000000E-03 0. -1.
         11   -1    0    0    0    0 -0.00000000000E+00 -0.00000000000E+00 -0.45593999997E+02  0.45594000000E+02  0.51100000000E-03 0.  1.
    9900012    2    1    2    0    0  0.59486469255E+00  0.34462207146E+00  0.95954656238E+00  0.90007594146E+02  0.89999853589E+02 0.  0.
        -12    1    1    2    0    0 -0.59486469255E+00 -0.34462207146E+00 -0.95954656238E+00  0.11804058539E+01  0.00000000000E+00 0.  1.
         11    1    3    3    0    0  0.20908049031E+02  0.25443104216E+02  0.24379878815E+02  0.40974096179E+02  0.51100000000E-03 0. -1.
        -11    1    3    3    0    0  0.63136356221E+00  0.40164350040E+01 -0.99028435700E+01  0.10704983938E+02  0.51100000000E-03 0.  1.
        -12    1    3    3    0    0 -0.20944547900E+02 -0.29114917149E+02 -0.13517488683E+02  0.38328514028E+02  0.00000000000E+00 0.  1.
</event>
<event>
 7    1  0.2405891E-015  0.9000775E+02  0.7816164E-02  0.1186339E+00
        -11   -1    0    0    0    0  0.00000000000E+00  0.00000000000E+00  0.45593999997E+02  0.45594000000E+02  0.51100000000E-03 0.  1.
         11   -1    0    0    0    0 -0.00000000000E+00 -0.00000000000E+00 -0.45593999997E+02  0.45594000000E+02  0.51100000000E-03 0. -1.
    9900012    2    1    2    0    0 -0.75115702748E+00 -0.15985046520E+00 -0.89621232190E+00  0.90007751900E+02  0.90000013425E+02 0.  0.
        -12    1    1    2    0    0  0.75115702748E+00  0.15985046520E+00  0.89621232190E+00  0.11802480998E+01  0.00000000000E+00 0.  1.
         11    1    3    3    0    0  0.22625446412E+01  0.32506404298E+02 -0.20808648473E+02  0.38662453106E+02  0.51100000000E-03 0. -1.
        -11    1    3    3    0    0 -0.99850348332E+00  0.67107411845E+01  0.72593287799E+01  0.99362423002E+01  0.51100000000E-03 0.  1.
        -12    1    3    3    0    0 -0.20151981854E+01 -0.39376995947E+02  0.12653107371E+02  0.41409056494E+02  0.00000000000E+00 0.  1.
</event>
<event>
 7    1  0.4084878E-015  0.9000780E+02  0.7816164E-02  0.1186339E+00
        -11   -1    0    0    0    0  0.00000000000E+00  0.00000000000E+00  0.45593999997E+02  0.45594000000E+02  0.51100000000E-03 0. -1.
         11   -1    0    0    0    0 -0.00000000000E+00 -0.00000000000E+00 -0.45593999997E+02  0.45594000000E+02  0.51100000000E-03 0.  1.
    9900012    2    1    2    0    0 -0.30041290027E+00 -0.49846867637E-01  0.11402388635E+01  0.90007797777E+02  0.90000059908E+02 0.  0.
        -12    1    1    2    0    0  0.30041290027E+00  0.49846867637E-01 -0.11402388635E+01  0.11802022228E+01  0.00000000000E+00 0.  1.
         11    1    3    3    0    0 -0.46018777924E+00  0.91446283091E+01 -0.16622425383E+01  0.93058610682E+01  0.51100000000E-03 0. -1.
        -11    1    3    3    0    0  0.13959689435E+02 -0.17908077160E+02 -0.33746639157E+02  0.40674412243E+02  0.51100000000E-03 0.  1.
         12    1    3    3    0    0 -0.13799914556E+02  0.87136019830E+01  0.36549120559E+02  0.40027524466E+02  0.00000000000E+00 0. -1.
</event>
<event>
 7    1  0.2405891E-015  0.9000763E+02  0.7816164E-02  0.1186339E+00
        -11   -1    0    0    0    0  0.00000000000E+00  0.00000000000E+00  0.45593999997E+02  0.45594000000E+02  0.51100000000E-03 0.  1.
         11   -1    0    0    0    0 -0.00000000000E+00 -0.00000000000E+00 -0.45593999997E+02  0.45594000000E+02  0.51100000000E-03 0. -1.
    9900012    2    1    2    0    0  0.10277506556E+01 -0.51604635387E+00 -0.26590878774E+00  0.90007626020E+02  0.89999885883E+02 0.  0.
        -12    1    1    2    0    0 -0.10277506556E+01  0.51604635387E+00  0.26590878774E+00  0.11803739800E+01  0.00000000000E+00 0.  1.
         11    1    3    3    0    0 -0.40841391345E+02 -0.16092980020E+01 -0.10242848859E+02  0.42136979484E+02  0.51100000000E-03 0. -1.
        -11    1    3    3    0    0  0.38577078638E+01  0.16302461218E+01  0.89045972808E+01  0.98402980328E+01  0.51100000000E-03 0.  1.
        -12    1    3    3    0    0  0.38011434137E+02 -0.53699447369E+00  0.10723427907E+01  0.38030348503E+02  0.00000000000E+00 0.  1.
</event>
<event>
 7    1  0.2405891E-015  0.9000781E+02  0.7816164E-02  0.1186339E+00
        -11   -1    0    0    0    0  0.00000000000E+00  0.00000000000E+00  0.45593999997E+02  0.45594000000E+02  0.51100000000E-03 0.  1.
         11   -1    0    0    0    0 -0.00000000000E+00 -0.00000000000E+00 -0.45593999997E+02  0.45594000000E+02  0.51100000000E-03 0. -1.
    9900012    2    1    2    0    0  0.18854427147E+00  0.11381766871E+01 -0.24869150879E+00  0.90007812481E+02  0.90000074806E+02 0.  0.
        -12    1    1    2    0    0 -0.18854427147E+00 -0.11381766871E+01  0.24869150879E+00  0.11801875190E+01  0.00000000000E+00 0.  1.
         11    1    3    3    0    0  0.13125924696E+02 -0.32456752400E+01  0.61030135092E+01  0.14834792922E+02  0.51100000000E-03 0. -1.
        -11    1    3    3    0    0 -0.18436771594E+02 -0.14880558527E+02  0.27214402445E+02  0.36082811276E+02  0.51100000000E-03 0.  1.
         12    1    3    3    0    0  0.54993911701E+01  0.19264410455E+02 -0.33566107463E+02  0.39090208283E+02  0.00000000000E+00 0. -1.
</event>
<event>
 7    1  0.2405891E-015  0.9000753E+02  0.7816164E-02  0.1186339E+00
        -11   -1    0    0    0    0  0.00000000000E+00  0.00000000000E+00  0.45593999997E+02  0.45594000000E+02  0.51100000000E-03 0.  1.
         11   -1    0    0    0    0 -0.00000000000E+00 -0.00000000000E+00 -0.45593999997E+02  0.45594000000E+02  0.51100000000E-03 0. -1.
    9900012    2    1    2    0    0  0.19100262493E+00 -0.11045514793E+00 -0.11596668093E+01  0.90007529987E+02  0.89999788583E+02 0.  0.
        -12    1    1    2    0    0 -0.19100262493E+00  0.11045514793E+00  0.11596668093E+01  0.11804700128E+01  0.00000000000E+00 0.  1.
         11    1    3    3    0    0  0.28653424388E+01 -0.30831338943E+01  0.82135199757E+01  0.92291826591E+01  0.51100000000E-03 0. -1.
        -11    1    3    3    0    0 -0.99246748419E+01 -0.34394143515E+01  0.34389630348E+02  0.35957967372E+02  0.51100000000E-03 0.  1.
         12    1    3    3    0    0  0.72503350280E+01  0.64120930979E+01 -0.43762817133E+02  0.44820379956E+02  0.00000000000E+00 0. -1.
</event>
<event>
 7    1  0.2405891E-015  0.9000778E+02  0.7816164E-02  0.1186339E+00
        -11   -1    0    0    0    0  0.00000000000E+00  0.00000000000E+00  0.45593999997E+02  0.45594000000E+02  0.51100000000E-03 0.  1.
         11   -1    0    0    0    0 -0.00000000000E+00 -0.00000000000E+00 -0.45593999997E+02  0.45594000000E+02  0.51100000000E-03 0. -1.
    9900012    2    1    2    0    0  0.70596260505E+00 -0.90694588143E+00 -0.26830965261E+00  0.90007777944E+02  0.90000039813E+02 0.  0.
        -12    1    1    2    0    0 -0.70596260505E+00  0.90694588143E+00  0.26830965261E+00  0.11802220559E+01  0.00000000000E+00 0.  1.
         11    1    3    3    0    0  0.69347817664E+01 -0.73746332461E+01  0.14092325582E+01  0.10220682479E+02  0.51100000000E-03 0. -1.
        -11    1    3    3    0    0  0.19831691754E+02  0.49515655626E+01  0.31512424206E+02  0.37561241712E+02  0.51100000000E-03 0.  1.
         12    1    3    3    0    0 -0.26060510915E+02  0.15161218020E+01 -0.33189966417E+02  0.42225853754E+02  0.00000000000E+00 0. -1.
</event>
<event>
 7    1  0.2405891E-015  0.9000701E+02  0.7816164E-02  0.1186341E+00
        -11   -1    0    0    0    0  0.00000000000E+00  0.00000000000E+00  0.45593999997E+02  0.45594000000E+02  0.51100000000E-03 0.  1.
         11   -1    0    0    0    0 -0.00000000000E+00 -0.00000000000E+00 -0.45593999997E+02  0.45594000000E+02  0.51100000000E-03 0. -1.
    9900012    2    1    2    0    0 -0.10059781674E+01  0.24239166189E+00  0.56920812561E+00  0.90007007332E+02  0.89999259026E+02 0.  0.
        -12    1    1    2    0    0  0.10059781674E+01 -0.24239166189E+00 -0.56920812561E+00  0.11809926677E+01  0.00000000000E+00 0.  1.
         11    1    3    3    0    0 -0.71641381337E+01 -0.15221491530E+01  0.63532014991E+01  0.96956166793E+01  0.51100000000E-03 0. -1.
        -11    1    3    3    0    0  0.37056712441E+02  0.23891380337E+00  0.18087295962E+02  0.41235995104E+02  0.51100000000E-03 0.  1.
         12    1    3    3    0    0 -0.30898552475E+02  0.15256270115E+01 -0.23871289335E+02  0.39075395549E+02  0.00000000000E+00 0. -1.
</event>
<event>
 7    1  0.2405891E-015  0.9000769E+02  0.7816164E-02  0.1186339E+00
        -11   -1    0    0    0    0  0.00000000000E+00  0.00000000000E+00  0.45593999997E+02  0.45594000000E+02  0.51100000000E-03 0. -1.
         11   -1    0    0    0    0 -0.00000000000E+00 -0.00000000000E+00 -0.45593999997E+02  0.45594000000E+02  0.51100000000E-03 0.  1.
    9900012    2    1    2    0    0  0.61900396336E+00  0.56813333156E+00  0.82897159835E+00  0.90007688473E+02  0.89999949161E+02 0.  0.
        -12    1    1    2    0    0 -0.61900396336E+00 -0.56813333156E+00 -0.82897159835E+00  0.11803115267E+01  0.00000000000E+00 0.  1.
         11    1    3    3    0    0 -0.23474836486E+02 -0.89069582096E+01  0.27217745982E+02  0.37029819730E+02  0.51100000000E-03 0. -1.
        -11    1    3    3    0    0 -0.43407298742E+01 -0.74763359368E+01  0.25445931966E+01  0.90117972502E+01  0.51100000000E-03 0.  1.
        -12    1    3    3    0    0  0.28434570324E+02  0.16951427478E+02 -0.28933367580E+02  0.43966071494E+02  0.00000000000E+00 0.  1.
</event>
<event>
 7    1  0.2405891E-015  0.9000774E+02  0.7816164E-02  0.1186339E+00
        -11   -1    0    0    0    0  0.00000000000E+00  0.00000000000E+00  0.45593999997E+02  0.45594000000E+02  0.51100000000E-03 0. -1.
         11   -1    0    0    0    0 -0.00000000000E+00 -0.00000000000E+00 -0.45593999997E+02  0.45594000000E+02  0.51100000000E-03 0.  1.
    9900012    2    1    2    0    0 -0.17216007320E+00  0.10570228014E+01  0.49605702672E+00  0.90007742034E+02  0.90000003428E+02 0.  0.
        -12    1    1    2    0    0  0.17216007320E+00 -0.10570228014E+01 -0.49605702672E+00  0.11802579664E+01  0.00000000000E+00 0.  1.
         11    1    3    3    0    0  0.13476353533E+02 -0.38964127670E+02 -0.59502672312E+01  0.41655984324E+02  0.51100000000E-03 0. -1.
        -11    1    3    3    0    0 -0.74026660612E+01  0.23604406809E+01 -0.40470804104E+01  0.87607080268E+01  0.51100000000E-03 0.  1.
        -12    1    3    3    0    0 -0.62458475447E+01  0.37660709790E+02  0.10493404668E+02  0.39591049683E+02  0.00000000000E+00 0.  1.
</event>
<event>
 7    1  0.2405891E-015  0.9000767E+02  0.7816164E-02  0.1186339E+00
        -11   -1    0    0    0    0  0.00000000000E+00  0.00000000000E+00  0.45593999997E+02  0.45594000000E+02  0.51100000000E-03 0.  1.
         11   -1    0    0    0    0 -0.00000000000E+00 -0.00000000000E+00 -0.45593999997E+02  0.45594000000E+02  0.51100000000E-03 0. -1.
    9900012    2    1    2    0    0  0.65904723980E-02  0.74476806092E+00  0.91566612865E+00  0.90007674893E+02  0.89999935402E+02 0.  0.
        -12    1    1    2    0    0 -0.65904723980E-02 -0.74476806092E+00 -0.91566612865E+00  0.11803251069E+01  0.00000000000E+00 0.  1.
         11    1    3    3    0    0 -0.32214075785E+02  0.17234115144E+02 -0.72078985228E+01  0.37238625174E+02  0.51100000000E-03 0. -1.
        -11    1    3    3    0    0 -0.29121640506E+01  0.28132461398E+01 -0.84669200320E+01  0.93852963933E+01  0.51100000000E-03 0.  1.
        -12    1    3    3    0    0  0.35132830308E+02 -0.19302593223E+02  0.16590484683E+02  0.43383753326E+02  0.00000000000E+00 0.  1.
</event>
<event>
 7    1  0.2405891E-015  0.9000775E+02  0.7816164E-02  0.1186339E+00
        -11   -1    0    0    0    0  0.00000000000E+00  0.00000000000E+00  0.45593999997E+02  0.45594000000E+02  0.51100000000E-03 0.  1.
         11   -1    0    0    0    0 -0.00000000000E+00 -0.00000000000E+00 -0.45593999997E+02  0.45594000000E+02  0.51100000000E-03 0. -1.
    9900012    2    1    2    0    0 -0.39974842522E+00  0.10531942939E+01 -0.35209875313E+00  0.90007749791E+02  0.90000011288E+02 0.  0.
        -12    1    1    2    0    0  0.39974842522E+00 -0.10531942939E+01  0.35209875313E+00  0.11802502091E+01  0.00000000000E+00 0.  1.
         11    1    3    3    0    0  0.11929375911E+02 -0.32128352337E+02 -0.29906749408E+01  0.34401819288E+02  0.51100000000E-03 0. -1.
        -11    1    3    3    0    0  0.44351363541E+01 -0.26800259162E+01 -0.12258803556E+02  0.13309066018E+02  0.51100000000E-03 0.  1.
        -12    1    3    3    0    0 -0.16764260690E+02  0.35861572547E+02  0.14897379743E+02  0.42296864485E+02  0.00000000000E+00 0.  1.
</event>
<event>
 7    1  0.2405891E-015  0.9000773E+02  0.7816164E-02  0.1186339E+00
        -11   -1    0    0    0    0  0.00000000000E+00  0.00000000000E+00  0.45593999997E+02  0.45594000000E+02  0.51100000000E-03 0. -1.
         11   -1    0    0    0    0 -0.00000000000E+00 -0.00000000000E+00 -0.45593999997E+02  0.45594000000E+02  0.51100000000E-03 0.  1.
    9900012    2    1    2    0    0 -0.44479744971E+00  0.82056794476E+00  0.72240301640E+00  0.90007727726E+02  0.89999988932E+02 0.  0.
        -12    1    1    2    0    0  0.44479744971E+00 -0.82056794476E+00 -0.72240301640E+00  0.11802722742E+01  0.00000000000E+00 0.  1.
         11    1    3    3    0    0 -0.27840073990E+02  0.24899578418E+02  0.14544295600E+02  0.40082355968E+02  0.51100000000E-03 0. -1.
        -11    1    3    3    0    0  0.50225594498E+01  0.75363914301E+01 -0.92500595917E+00  0.91037868769E+01  0.51100000000E-03 0.  1.
        -12    1    3    3    0    0  0.22372717091E+02 -0.31615401904E+02 -0.12896886625E+02  0.40821584881E+02  0.00000000000E+00 0.  1.
</event>
<event>
 7    1  0.2405891E-015  0.9000757E+02  0.7816164E-02  0.1186339E+00
        -11   -1    0    0    0    0  0.00000000000E+00  0.00000000000E+00  0.45593999997E+02  0.45594000000E+02  0.51100000000E-03 0.  1.
         11   -1    0    0    0    0 -0.00000000000E+00 -0.00000000000E+00 -0.45593999997E+02  0.45594000000E+02  0.51100000000E-03 0. -1.
    9900012    2    1    2    0    0  0.10294267303E+01  0.11040738825E+00 -0.56701207001E+00  0.90007571319E+02  0.89999830460E+02 0.  0.
        -12    1    1    2    0    0 -0.10294267303E+01 -0.11040738825E+00  0.56701207001E+00  0.11804286815E+01  0.00000000000E+00 0.  1.
         11    1    3    3    0    0 -0.14638421942E+02  0.32061170926E+02 -0.19994386419E+02  0.40521322370E+02  0.51100000000E-03 0. -1.
        -11    1    3    3    0    0 -0.72623937423E+01 -0.69146299440E+01 -0.64143983630E+00  0.10048179709E+02  0.51100000000E-03 0.  1.
        -12    1    3    3    0    0  0.22930242415E+02 -0.25036133594E+02  0.20068814186E+02  0.39438069240E+02  0.00000000000E+00 0.  1.
</event>
<event>
 7    1  0.2405891E-015  0.9000787E+02  0.7816164E-02  0.1186339E+00
        -11   -1    0    0    0    0  0.00000000000E+00  0.00000000000E+00  0.45593999997E+02  0.45594000000E+02  0.51100000000E-03 0.  1.
         11   -1    0    0    0    0 -0.00000000000E+00 -0.00000000000E+00 -0.45593999997E+02  0.45594000000E+02  0.51100000000E-03 0. -1.
    9900012    2    1    2    0    0  0.36225344900E+00  0.50666207652E+00 -0.10023819739E+01  0.90007871345E+02  0.90000134447E+02 0.  0.
        -12    1    1    2    0    0 -0.36225344900E+00 -0.50666207652E+00  0.10023819739E+01  0.11801286551E+01  0.00000000000E+00 0.  1.
         11    1    3    3    0    0  0.33204776036E+02  0.81015284215E+01  0.65462396339E+01  0.34800074253E+02  0.51100000000E-03 0. -1.
        -11    1    3    3    0    0  0.10424343184E+02 -0.36498930605E+01 -0.34373456174E+01  0.11567367692E+02  0.51100000000E-03 0.  1.
        -12    1    3    3    0    0 -0.43266865772E+02 -0.39449732845E+01 -0.41112759904E+01  0.43640429400E+02  0.00000000000E+00 0.  1.
</event>
<event>
 7    1  0.2405891E-015  0.9000778E+02  0.7816164E-02  0.1186339E+00
        -11   -1    0    0    0    0  0.00000000000E+00  0.00000000000E+00  0.45593999997E+02  0.45594000000E+02  0.51100000000E-03 0. -1.
         11   -1    0    0    0    0 -0.00000000000E+00 -0.00000000000E+00 -0.45593999997E+02  0.45594000000E+02  0.51100000000E-03 0.  1.
    9900012    2    1    2    0    0 -0.11683047244E+01 -0.16729895417E+00  0.23302989753E-02  0.90007775318E+02  0.90000037152E+02 0.  0.
        -12    1    1    2    0    0  0.11683047244E+01  0.16729895417E+00 -0.23302989753E-02  0.11802246818E+01  0.00000000000E+00 0.  1.
         11    1    3    3    0    0  0.36542393970E+00 -0.16932351394E+01  0.90212093281E+01  0.91860109893E+01  0.51100000000E-03 0. -1.
        -11    1    3    3    0    0 -0.35089332193E+02 -0.16111753428E+02  0.77303907700E+01  0.39377770049E+02  0.51100000000E-03 0.  1.
         12    1    3    3    0    0  0.33555603529E+02  0.17637689613E+02 -0.16749269799E+02  0.41443994280E+02  0.00000000000E+00 0. -1.
</event>
<event>
 7    1  0.2405891E-015  0.9000779E+02  0.7816164E-02  0.1186339E+00
        -11   -1    0    0    0    0  0.00000000000E+00  0.00000000000E+00  0.45593999997E+02  0.45594000000E+02  0.51100000000E-03 0. -1.
         11   -1    0    0    0    0 -0.00000000000E+00 -0.00000000000E+00 -0.45593999997E+02  0.45594000000E+02  0.51100000000E-03 0.  1.
    9900012    2    1    2    0    0  0.27814025182E+00 -0.22003984518E+00  0.11256617456E+01  0.90007790739E+02  0.90000052777E+02 0.  0.
        -12    1    1    2    0    0 -0.27814025182E+00  0.22003984518E+00 -0.11256617456E+01  0.11802092605E+01  0.00000000000E+00 0.  1.
         11    1    3    3    0    0 -0.21466226058E+02  0.31524948549E+02  0.91919625533E+01  0.39231536014E+02  0.51100000000E-03 0. -1.
        -11    1    3    3    0    0 -0.16669712040E+01  0.35151376669E+01 -0.74988064494E+01  0.84479041329E+01  0.51100000000E-03 0.  1.
        -12    1    3    3    0    0  0.23411337514E+02 -0.35260126061E+02 -0.56749435823E+00  0.42328350592E+02  0.00000000000E+00 0.  1.
</event>
<event>
 7    1  0.2405891E-015  0.9000771E+02  0.7816164E-02  0.1186339E+00
        -11   -1    0    0    0    0  0.00000000000E+00  0.00000000000E+00  0.45593999997E+02  0.45594000000E+02  0.51100000000E-03 0. -1.
         11   -1    0    0    0    0 -0.00000000000E+00 -0.00000000000E+00 -0.45593999997E+02  0.45594000000E+02  0.51100000000E-03 0.  1.
    9900012    2    1    2    0    0  0.10046286237E+01  0.44782065650E+00  0.42809078947E+00  0.90007710317E+02  0.89999971293E+02 0.  0.
        -12    1    1    2    0    0 -0.10046286237E+01 -0.44782065650E+00 -0.42809078947E+00  0.11802896831E+01  0.00000000000E+00 0.  1.
         11    1    3    3    0    0  0.41368367855E+02  0.12064038916E+02 -0.96881912585E+01  0.44167227036E+02  0.51100000000E-03 0. -1.
        -11    1    3    3    0    0 -0.36403265221E+01 -0.20797574853E+01 -0.35694658503E+01  0.55062196744E+01  0.51100000000E-03 0.  1.
        -12    1    3    3    0    0 -0.36723412709E+02 -0.95364607742E+01  0.13685747898E+02  0.40334263606E+02  0.00000000000E+00 0.  1.
</event>
<event>
 7    1  0.2405891E-015  0.9000772E+02  0.7816164E-02  0.1186339E+00
        -11   -1    0    0    0    0  0.00000000000E+00  0.00000000000E+00  0.45593999997E+02  0.45594000000E+02  0.51100000000E-03 0.  1.
         11   -1    0    0    0    0 -0.00000000000E+00 -0.00000000000E+00 -0.45593999997E+02  0.45594000000E+02  0.51100000000E-03 0. -1.
    9900012    2    1    2    0    0 -0.10075449232E+01 -0.89656085423E-01  0.60817804566E+00  0.90007718033E+02  0.89999979111E+02 0.  0.
        -12    1    1    2    0    0  0.10075449232E+01  0.89656085423E-01 -0.60817804566E+00  0.11802819668E+01  0.00000000000E+00 0.  1.
         11    1    3    3    0    0 -0.46781668570E+00  0.94332834181E+01 -0.15203609882E+01  0.95664615346E+01  0.51100000000E-03 0. -1.
        -11    1    3    3    0    0  0.28317864948E+02 -0.28058724215E+01  0.28864211139E+02  0.40532913542E+02  0.51100000000E-03 0.  1.
         12    1    3    3    0    0 -0.28857593185E+02 -0.67170670820E+01 -0.26735672105E+02  0.39908342957E+02  0.00000000000E+00 0. -1.
</event>
<event>
 7    1  0.2405891E-015  0.9000774E+02  0.7816164E-02  0.1186339E+00
        -11   -1    0    0    0    0  0.00000000000E+00  0.00000000000E+00  0.45593999997E+02  0.45594000000E+02  0.51100000000E-03 0. -1.
         11   -1    0    0    0    0 -0.00000000000E+00 -0.00000000000E+00 -0.45593999997E+02  0.45594000000E+02  0.51100000000E-03 0.  1.
    9900012    2    1    2    0    0 -0.10099250433E+01  0.43993962344E+00  0.42370594764E+00  0.90007736387E+02  0.89999997708E+02 0.  0.
        -12    1    1    2    0    0  0.10099250433E+01 -0.43993962344E+00 -0.42370594764E+00  0.11802636127E+01  0.00000000000E+00 0.  1.
         11    1    3    3    0    0 -0.16466868562E+01  0.77666502598E+01 -0.44314521019E+01  0.90923155386E+01  0.51100000000E-03 0. -1.
        -11    1    3    3    0    0  0.60688495903E+01  0.32295725385E+02  0.19633205810E+02  0.38279336255E+02  0.51100000000E-03 0.  1.
         12    1    3    3    0    0 -0.54320877774E+01 -0.39622436021E+02 -0.14778047761E+02  0.42636084594E+02  0.00000000000E+00 0. -1.
</event>
<event>
 7    1  0.2405891E-015  0.9000775E+02  0.7816164E-02  0.1186339E+00
        -11   -1    0    0    0    0  0.00000000000E+00  0.00000000000E+00  0.45593999997E+02  0.45594000000E+02  0.51100000000E-03 0. -1.
         11   -1    0    0    0    0 -0.00000000000E+00 -0.00000000000E+00 -0.45593999997E+02  0.45594000000E+02  0.51100000000E-03 0.  1.
    9900012    2    1    2    0    0 -0.16156671682E+00  0.35747568301E+00  0.11131512054E+01  0.90007746521E+02  0.90000007975E+02 0.  0.
        -12    1    1    2    0    0  0.16156671682E+00 -0.35747568301E+00 -0.11131512054E+01  0.11802534787E+01  0.00000000000E+00 0.  1.
         11    1    3    3    0    0 -0.27912199685E+01 -0.11444181086E+02 -0.53705395621E+01  0.12946153293E+02  0.51100000000E-03 0. -1.
        -11    1    3    3    0    0  0.46701017090E+01 -0.30306775558E+02  0.14866824345E+02  0.34078335656E+02  0.51100000000E-03 0.  1.
         12    1    3    3    0    0 -0.20404484573E+01  0.42108432327E+02 -0.83831335773E+01  0.42983257572E+02  0.00000000000E+00 0. -1.
</event>
<event>
 7    1  0.2405891E-015  0.9000777E+02  0.7816164E-02  0.1186339E+00
        -11   -1    0    0    0    0  0.00000000000E+00  0.00000000000E+00  0.45593999997E+02  0.45594000000E+02  0.51100000000E-03 0.  1.
         11   -1    0    0    0    0 -0.00000000000E+00 -0.00000000000E+00 -0.45593999997E+02  0.45594000000E+02  0.51100000000E-03 0. -1.
    9900012    2    1    2    0    0 -0.79081897912E+00  0.87447649061E+00 -0.53202966429E-01  0.90007773604E+02  0.90000035415E+02 0.  0.
        -12    1    1    2    0    0  0.79081897912E+00 -0.87447649061E+00  0.53202966429E-01  0.11802263961E+01  0.00000000000E+00 0.  1.
         11    1    3    3    0    0 -0.31324665014E+02 -0.20084811596E+02  0.20461144613E+02  0.42465194386E+02  0.51100000000E-03 0. -1.
        -11    1    3    3    0    0  0.79633870423E+00  0.18922828731E+01 -0.10677853022E+02  0.10873427942E+02  0.51100000000E-03 0.  1.
        -12    1    3    3    0    0  0.29737507331E+02  0.19067005214E+02 -0.98364945577E+01  0.36669151275E+02  0.00000000000E+00 0.  1.
</event>
<event>
 7    1  0.2405891E-015  0.9000787E+02  0.7816164E-02  0.1186339E+00
        -11   -1    0    0    0    0  0.00000000000E+00  0.00000000000E+00  0.45593999997E+02  0.45594000000E+02  0.51100000000E-03 0. -1.
         11   -1    0    0    0    0 -0.00000000000E+00 -0.00000000000E+00 -0.45593999997E+02  0.45594000000E+02  0.51100000000E-03 0.  1.
    9900012    2    1    2    0    0 -0.95444489616E+00  0.61652658403E+00  0.31882201233E+00  0.90007865447E+02  0.90000128470E+02 0.  0.
        -12    1    1    2    0    0  0.95444489616E+00 -0.61652658403E+00 -0.31882201233E+00  0.11801345534E+01  0.00000000000E+00 0.  1.
         11    1    3    3    0    0 -0.34756402240E+02 -0.10773940972E+02 -0.55819836190E+01  0.36813636633E+02  0.51100000000E-03 0. -1.
        -11    1    3    3    0    0 -0.69543381422E+01  0.94480229649E+00  0.85209631029E+01  0.11039125094E+02  0.51100000000E-03 0.  1.
        -12    1    3    3    0    0  0.40756295486E+02  0.10445665260E+02 -0.26201574715E+01  0.42155103720E+02  0.00000000000E+00 0.  1.
</event>
<event>
 7    1  0.2405891E-015  0.9000769E+02  0.7816164E-02  0.1186339E+00
        -11   -1    0    0    0    0  0.00000000000E+00  0.00000000000E+00  0.45593999997E+02  0.45594000000E+02  0.51100000000E-03 0. -1.
         11   -1    0    0    0    0 -0.00000000000E+00 -0.00000000000E+00 -0.45593999997E+02  0.45594000000E+02  0.51100000000E-03 0.  1.
    9900012    2    1    2    0    0  0.98992919209E+00  0.30336581333E+00 -0.56669383527E+00  0.90007689649E+02  0.89999950352E+02 0.  0.
        -12    1    1    2    0    0 -0.98992919209E+00 -0.30336581333E+00  0.56669383527E+00  0.11803103511E+01  0.00000000000E+00 0.  1.
         11    1    3    3    0    0  0.27562721450E+02  0.15023394180E+02  0.29741458927E+02  0.43243038350E+02  0.51100000000E-03 0. -1.
        -11    1    3    3    0    0 -0.16106961010E+01  0.38025141056E+01 -0.60999301570E+01  0.73663154721E+01  0.51100000000E-03 0.  1.
        -12    1    3    3    0    0 -0.24962096157E+02 -0.18522542472E+02 -0.24208222605E+02  0.39398335826E+02  0.00000000000E+00 0.  1.
</event>
<event>
 7    1  0.2405891E-015  0.9000775E+02  0.7816164E-02  0.1186339E+00
        -11   -1    0    0    0    0  0.00000000000E+00  0.00000000000E+00  0.45593999997E+02  0.45594000000E+02  0.51100000000E-03 0. -1.
         11   -1    0    0    0    0 -0.00000000000E+00 -0.00000000000E+00 -0.45593999997E+02  0.45594000000E+02  0.51100000000E-03 0.  1.
    9900012    2    1    2    0    0  0.96531697857E+00  0.27161234524E+00 -0.62239798569E+00  0.90007750286E+02  0.90000011790E+02 0.  0.
        -12    1    1    2    0    0 -0.96531697857E+00 -0.27161234524E+00  0.62239798569E+00  0.11802497142E+01  0.00000000000E+00 0.  1.
         11    1    3    3    0    0  0.22135839982E+02  0.10263316352E+02  0.28083656313E+02  0.37202457263E+02  0.51100000000E-03 0. -1.
        -11    1    3    3    0    0 -0.36409395295E+01 -0.92025285382E+00  0.92724464271E+01  0.10004077617E+02  0.51100000000E-03 0.  1.
        -12    1    3    3    0    0 -0.17529583474E+02 -0.90714511533E+01 -0.37978500726E+02  0.42801215405E+02  0.00000000000E+00 0.  1.
</event>
<event>
 7    1  0.2405891E-015  0.9000779E+02  0.7816164E-02  0.1186339E+00
        -11   -1    0    0    0    0  0.00000000000E+00  0.00000000000E+00  0.45593999997E+02  0.45594000000E+02  0.51100000000E-03 0. -1.
         11   -1    0    0    0    0 -0.00000000000E+00 -0.00000000000E+00 -0.45593999997E+02  0.45594000000E+02  0.51100000000E-03 0.  1.
    9900012    2    1    2    0    0 -0.87700847469E+00  0.68786187232E+00  0.38807822261E+00  0.90007787084E+02  0.90000049074E+02 0.  0.
        -12    1    1    2    0    0  0.87700847469E+00 -0.68786187232E+00 -0.38807822261E+00  0.11802129159E+01  0.00000000000E+00 0.  1.
         11    1    3    3    0    0  0.95185979729E+01  0.21979641928E+01 -0.41929006825E+00  0.97780651657E+01  0.51100000000E-03 0. -1.
        -11    1    3    3    0    0  0.25789521524E+02 -0.65724450513E+01 -0.24185815714E+02  0.35961787169E+02  0.51100000000E-03 0.  1.
         12    1    3    3    0    0 -0.36185127972E+02  0.50623427308E+01  0.24993184005E+02  0.44267934749E+02  0.00000000000E+00 0. -1.
</event>
<event>
 7    1  0.2405891E-015  0.9000807E+02  0.7816164E-02  0.1186338E+00
        -11   -1    0    0    0    0  0.00000000000E+00  0.00000000000E+00  0.45593999997E+02  0.45594000000E+02  0.51100000000E-03 0.  1.
         11   -1    0    0    0    0 -0.00000000000E+00 -0.00000000000E+00 -0.45593999997E+02  0.45594000000E+02  0.51100000000E-03 0. -1.
    9900012    2    1    2    0    0  0.52995213101E+00  0.88833296927E+00 -0.56766618286E+00  0.90008072197E+02  0.90000337949E+02 0.  0.
        -12    1    1    2    0    0 -0.52995213101E+00 -0.88833296927E+00  0.56766618286E+00  0.11799278031E+01  0.00000000000E+00 0.  1.
         11    1    3    3    0    0  0.25002025710E+02 -0.26294745831E+02 -0.11841747363E+02  0.38167288727E+02  0.51100000000E-03 0. -1.
        -11    1    3    3    0    0 -0.39849433945E+00 -0.65238434582E+01 -0.40351118300E+01  0.76812407166E+01  0.51100000000E-03 0.  1.
        -12    1    3    3    0    0 -0.24073579240E+02  0.33706922258E+02  0.15309193010E+02  0.44159542753E+02  0.00000000000E+00 0.  1.
</event>
<event>
 7    1  0.2405891E-015  0.9000774E+02  0.7816164E-02  0.1186339E+00
        -11   -1    0    0    0    0  0.00000000000E+00  0.00000000000E+00  0.45593999997E+02  0.45594000000E+02  0.51100000000E-03 0. -1.
         11   -1    0    0    0    0 -0.00000000000E+00 -0.00000000000E+00 -0.45593999997E+02  0.45594000000E+02  0.51100000000E-03 0.  1.
    9900012    2    1    2    0    0 -0.96234615486E+00  0.65584785224E+00  0.19172867067E+00  0.90007743074E+02  0.90000004483E+02 0.  0.
        -12    1    1    2    0    0  0.96234615486E+00 -0.65584785224E+00 -0.19172867067E+00  0.11802569255E+01  0.00000000000E+00 0.  1.
         11    1    3    3    0    0  0.33116728993E+01 -0.23692990442E+02  0.27793707650E+02  0.36671721513E+02  0.51100000000E-03 0. -1.
        -11    1    3    3    0    0  0.61971727140E+01 -0.43340147424E+01  0.46860716854E+01  0.88965106382E+01  0.51100000000E-03 0.  1.
        -12    1    3    3    0    0 -0.10471191768E+02  0.28682853037E+02 -0.32288050665E+02  0.44439510924E+02  0.00000000000E+00 0.  1.
</event>
<event>
 7    1  0.2405891E-015  0.9000777E+02  0.7816164E-02  0.1186339E+00
        -11   -1    0    0    0    0  0.00000000000E+00  0.00000000000E+00  0.45593999997E+02  0.45594000000E+02  0.51100000000E-03 0. -1.
         11   -1    0    0    0    0 -0.00000000000E+00 -0.00000000000E+00 -0.45593999997E+02  0.45594000000E+02  0.51100000000E-03 0.  1.
    9900012    2    1    2    0    0  0.60728789948E+00  0.58911513397E+00  0.82285016284E+00  0.90007772215E+02  0.90000034008E+02 0.  0.
        -12    1    1    2    0    0 -0.60728789948E+00 -0.58911513397E+00 -0.82285016284E+00  0.11802277850E+01  0.00000000000E+00 0.  1.
         11    1    3    3    0    0  0.45010773537E+01  0.89672192086E+01  0.20192783967E+01  0.10234656965E+02  0.51100000000E-03 0. -1.
        -11    1    3    3    0    0  0.34495131731E+02 -0.11660390505E+02 -0.14237211186E+02  0.39097020379E+02  0.51100000000E-03 0.  1.
         12    1    3    3    0    0 -0.38388921185E+02  0.32822864306E+01  0.13040782952E+02  0.40676094871E+02  0.00000000000E+00 0. -1.
</event>
<event>
 7    1  0.2405891E-015  0.9000768E+02  0.7816164E-02  0.1186339E+00
        -11   -1    0    0    0    0  0.00000000000E+00  0.00000000000E+00  0.45593999997E+02  0.45594000000E+02  0.51100000000E-03 0.  1.
         11   -1    0    0    0    0 -0.00000000000E+00 -0.00000000000E+00 -0.45593999997E+02  0.45594000000E+02  0.51100000000E-03 0. -1.
    9900012    2    1    2    0    0  0.13711217832E+00  0.11644807822E+01 -0.13546721695E+00  0.90007675211E+02  0.89999935723E+02 0.  0.
        -12    1    1    2    0    0 -0.13711217832E+00 -0.11644807822E+01  0.13546721695E+00  0.11803247894E+01  0.00000000000E+00 0.  1.
         11    1    3    3    0    0  0.14080564092E+02 -0.15111224662E+02 -0.29962777019E+02  0.36392023891E+02  0.51100000000E-03 0. -1.
        -11    1    3    3    0    0  0.73281715658E+01 -0.34925403939E+00 -0.54886851074E+01  0.91624091456E+01  0.51100000000E-03 0.  1.
        -12    1    3    3    0    0 -0.21271623479E+02  0.16624959484E+02  0.35315994910E+02  0.44453242174E+02  0.00000000000E+00 0.  1.
</event>
<event>
 7    1  0.2405891E-015  0.9000761E+02  0.7816164E-02  0.1186339E+00
        -11   -1    0    0    0    0  0.00000000000E+00  0.00000000000E+00  0.45593999997E+02  0.45594000000E+02  0.51100000000E-03 0.  1.
         11   -1    0    0    0    0 -0.00000000000E+00 -0.00000000000E+00 -0.45593999997E+02  0.45594000000E+02  0.51100000000E-03 0. -1.
    9900012    2    1    2    0    0  0.44606534794E+00 -0.96178422987E+00 -0.51896296696E+00  0.90007607794E+02  0.89999867417E+02 0.  0.
        -12    1    1    2    0    0 -0.44606534794E+00  0.96178422987E+00  0.51896296696E+00  0.11803922062E+01  0.00000000000E+00 0.  1.
         11    1    3    3    0    0  0.16511169000E+02  0.22494539431E+02 -0.27285236103E+02  0.39027004951E+02  0.51100000000E-03 0. -1.
        -11    1    3    3    0    0 -0.35977994379E+01  0.41170997794E+01 -0.47831730121E+01  0.72645313486E+01  0.51100000000E-03 0.  1.
        -12    1    3    3    0    0 -0.12467304214E+02 -0.27573423441E+02  0.31549446149E+02  0.43716071494E+02  0.00000000000E+00 0.  1.
</event>
<event>
 7    1  0.2405891E-015  0.9000786E+02  0.7816164E-02  0.1186339E+00
        -11   -1    0    0    0    0  0.00000000000E+00  0.00000000000E+00  0.45593999997E+02  0.45594000000E+02  0.51100000000E-03 0.  1.
         11   -1    0    0    0    0 -0.00000000000E+00 -0.00000000000E+00 -0.45593999997E+02  0.45594000000E+02  0.51100000000E-03 0. -1.
    9900012    2    1    2    0    0 -0.93713347321E+00 -0.34380876043E-01  0.71647736579E+00  0.90007855514E+02  0.90000118407E+02 0.  0.
        -12    1    1    2    0    0  0.93713347321E+00  0.34380876043E-01 -0.71647736579E+00  0.11801444856E+01  0.00000000000E+00 0.  1.
         11    1    3    3    0    0 -0.30925726523E+01  0.27138004196E+01  0.86530994924E+01  0.95814847186E+01  0.51100000000E-03 0. -1.
        -11    1    3    3    0    0  0.18856339184E+02 -0.28342097310E+02  0.19607367826E+02  0.39284664701E+02  0.51100000000E-03 0.  1.
         12    1    3    3    0    0 -0.16700900005E+02  0.25593916014E+02 -0.27543989952E+02  0.41141706095E+02  0.00000000000E+00 0. -1.
</event>
<event>
 7    1  0.2405891E-015  0.9000764E+02  0.7816164E-02  0.1186339E+00
        -11   -1    0    0    0    0  0.00000000000E+00  0.00000000000E+00  0.45593999997E+02  0.45594000000E+02  0.51100000000E-03 0.  1.
         11   -1    0    0    0    0 -0.00000000000E+00 -0.00000000000E+00 -0.45593999997E+02  0.45594000000E+02  0.51100000000E-03 0. -1.
    9900012    2    1    2    0    0 -0.76013328506E+00 -0.21561969030E+00 -0.87690114478E+00  0.90007639852E+02  0.89999899898E+02 0.  0.
        -12    1    1    2    0    0  0.76013328506E+00  0.21561969030E+00  0.87690114478E+00  0.11803601483E+01  0.00000000000E+00 0.  1.
         11    1    3    3    0    0  0.33642208711E+02 -0.16919072354E+02  0.44342585052E+00  0.37659658032E+02  0.51100000000E-03 0. -1.
        -11    1    3    3    0    0 -0.18970796034E+01 -0.10051227047E+02 -0.46897854444E+00  0.10239434423E+02  0.51100000000E-03 0.  1.
        -12    1    3    3    0    0 -0.32505262393E+02  0.26754679711E+02 -0.85134845086E+00  0.42108547397E+02  0.00000000000E+00 0.  1.
</event>
<event>
 7    1  0.2405891E-015  0.9000778E+02  0.7816164E-02  0.1186339E+00
        -11   -1    0    0    0    0  0.00000000000E+00  0.00000000000E+00  0.45593999997E+02  0.45594000000E+02  0.51100000000E-03 0. -1.
         11   -1    0    0    0    0 -0.00000000000E+00 -0.00000000000E+00 -0.45593999997E+02  0.45594000000E+02  0.51100000000E-03 0.  1.
    9900012    2    1    2    0    0 -0.77771141169E+00 -0.85301628519E+00 -0.24587099131E+00  0.90007777831E+02  0.90000039699E+02 0.  0.
        -12    1    1    2    0    0  0.77771141169E+00  0.85301628519E+00  0.24587099131E+00  0.11802221685E+01  0.00000000000E+00 0.  1.
         11    1    3    3    0    0 -0.26412214778E+01  0.56651651601E+01 -0.94895978871E+01  0.11363213256E+02  0.51100000000E-03 0. -1.
        -11    1    3    3    0    0 -0.74549170591E+01 -0.19551284342E+02 -0.29816585007E+02  0.36426051797E+02  0.51100000000E-03 0.  1.
         12    1    3    3    0    0  0.93184271252E+01  0.13033102897E+02  0.39060311903E+02  0.42218512778E+02  0.00000000000E+00 0. -1.
</event>
<event>
 7    1  0.2405891E-015  0.9000769E+02  0.7816164E-02  0.1186339E+00
        -11   -1    0    0    0    0  0.00000000000E+00  0.00000000000E+00  0.45593999997E+02  0.45594000000E+02  0.51100000000E-03 0.  1.
         11   -1    0    0    0    0 -0.00000000000E+00 -0.00000000000E+00 -0.45593999997E+02  0.45594000000E+02  0.51100000000E-03 0. -1.
    9900012    2    1    2    0    0 -0.10214932900E+00 -0.10895641948E+01 -0.44219402218E+00  0.90007694881E+02  0.89999955654E+02 0.  0.
        -12    1    1    2    0    0  0.10214932900E+00  0.10895641948E+01  0.44219402218E+00  0.11803051187E+01  0.00000000000E+00 0.  1.
         11    1    3    3    0    0 -0.14612938611E+01 -0.13511803022E+01 -0.42387912505E+02  0.42434610812E+02  0.51100000000E-03 0. -1.
        -11    1    3    3    0    0 -0.30273398897E+01  0.77612344447E+01  0.52141402435E+01  0.98279604015E+01  0.51100000000E-03 0.  1.
        -12    1    3    3    0    0  0.43864844218E+01 -0.74996183372E+01  0.36731578239E+02  0.37745123668E+02  0.00000000000E+00 0.  1.
</event>
<event>
 7    1  0.2405891E-015  0.9000771E+02  0.7816164E-02  0.1186339E+00
        -11   -1    0    0    0    0  0.00000000000E+00  0.00000000000E+00  0.45593999997E+02  0.45594000000E+02  0.51100000000E-03 0. -1.
         11   -1    0    0    0    0 -0.00000000000E+00 -0.00000000000E+00 -0.45593999997E+02  0.45594000000E+02  0.51100000000E-03 0.  1.
    9900012    2    1    2    0    0 -0.85274260073E+00  0.80214620910E+00  0.14989817357E+00  0.90007712770E+02  0.89999973778E+02 0.  0.
        -12    1    1    2    0    0  0.85274260073E+00 -0.80214620910E+00 -0.14989817357E+00  0.11802872304E+01  0.00000000000E+00 0.  1.
         11    1    3    3    0    0 -0.32863241964E+01  0.53934706379E+01  0.61436190800E+01  0.88109879075E+01  0.51100000000E-03 0. -1.
        -11    1    3    3    0    0 -0.10590593539E+02 -0.22280861630E+02 -0.36224846904E+02  0.43827354471E+02  0.51100000000E-03 0.  1.
         12    1    3    3    0    0  0.13024175135E+02  0.17689537202E+02  0.30231125997E+02  0.37369370391E+02  0.00000000000E+00 0. -1.
</event>
<event>
 7    1  0.2405891E-015  0.9000775E+02  0.7816164E-02  0.1186339E+00
        -11   -1    0    0    0    0  0.00000000000E+00  0.00000000000E+00  0.45593999997E+02  0.45594000000E+02  0.51100000000E-03 0. -1.
         11   -1    0    0    0    0 -0.00000000000E+00 -0.00000000000E+00 -0.45593999997E+02  0.45594000000E+02  0.51100000000E-03 0.  1.
    9900012    2    1    2    0    0 -0.64440933955E+00 -0.88107584525E+00 -0.44881776252E+00  0.90007747728E+02  0.90000009198E+02 0.  0.
        -12    1    1    2    0    0  0.64440933955E+00  0.88107584525E+00  0.44881776252E+00  0.11802522722E+01  0.00000000000E+00 0.  1.
         11    1    3    3    0    0 -0.23068725830E+02  0.24259411412E+02 -0.25616939912E-01  0.33476645740E+02  0.51100000000E-03 0. -1.
        -11    1    3    3    0    0 -0.99180049195E+01 -0.59346164820E+01  0.12246785232E+02  0.16839544030E+02  0.51100000000E-03 0.  1.
        -12    1    3    3    0    0  0.32342321410E+02 -0.19205870776E+02 -0.12669986055E+02  0.39691557957E+02  0.00000000000E+00 0.  1.
</event>
<event>
 7    1  0.2405891E-015  0.9000772E+02  0.7816164E-02  0.1186339E+00
        -11   -1    0    0    0    0  0.00000000000E+00  0.00000000000E+00  0.45593999997E+02  0.45594000000E+02  0.51100000000E-03 0.  1.
         11   -1    0    0    0    0 -0.00000000000E+00 -0.00000000000E+00 -0.45593999997E+02  0.45594000000E+02  0.51100000000E-03 0. -1.
    9900012    2    1    2    0    0  0.99913460898E+00  0.42415574560E+00  0.46355202028E+00  0.90007720991E+02  0.89999982108E+02 0.  0.
        -12    1    1    2    0    0 -0.99913460898E+00 -0.42415574560E+00 -0.46355202028E+00  0.11802790089E+01  0.00000000000E+00 0.  1.
         11    1    3    3    0    0 -0.86030079912E+01  0.39556591571E+02  0.12399188973E+02  0.42337637754E+02  0.51100000000E-03 0. -1.
        -11    1    3    3    0    0 -0.62689562055E+01 -0.84251688700E+01  0.14526436866E+01  0.10601578012E+02  0.51100000000E-03 0.  1.
        -12    1    3    3    0    0  0.15871098806E+02 -0.30707266955E+02 -0.13388280639E+02  0.37068505225E+02  0.00000000000E+00 0.  1.
</event>
<event>
 7    1  0.2405891E-015  0.9000812E+02  0.7816164E-02  0.1186338E+00
        -11   -1    0    0    0    0  0.00000000000E+00  0.00000000000E+00  0.45593999997E+02  0.45594000000E+02  0.51100000000E-03 0.  1.
         11   -1    0    0    0    0 -0.00000000000E+00 -0.00000000000E+00 -0.45593999997E+02  0.45594000000E+02  0.51100000000E-03 0. -1.
    9900012    2    1    2    0    0  0.83833944079E-01 -0.11729044802E+01  0.96922132597E-01  0.90008115705E+02  0.90000382032E+02 0.  0.
        -12    1    1    2    0    0 -0.83833944079E-01  0.11729044802E+01 -0.96922132597E-01  0.11798842950E+01  0.00000000000E+00 0.  1.
         11    1    3    3    0    0 -0.17703156546E+02  0.12581941844E+02 -0.62886578538E+01  0.22610931651E+02  0.51100000000E-03 0. -1.
        -11    1    3    3    0    0  0.16449469015E+01  0.22740335084E+02  0.14023283894E+02  0.26767166108E+02  0.51100000000E-03 0.  1.
        -12    1    3    3    0    0  0.16142043589E+02 -0.36495181409E+02 -0.76377039073E+01  0.40630017945E+02  0.00000000000E+00 0.  1.
</event>
<event>
 7    1  0.2405891E-015  0.9000769E+02  0.7816164E-02  0.1186339E+00
        -11   -1    0    0    0    0  0.00000000000E+00  0.00000000000E+00  0.45593999997E+02  0.45594000000E+02  0.51100000000E-03 0.  1.
         11   -1    0    0    0    0 -0.00000000000E+00 -0.00000000000E+00 -0.45593999997E+02  0.45594000000E+02  0.51100000000E-03 0. -1.
    9900012    2    1    2    0    0  0.68430468018E-01 -0.91275635345E+00 -0.74520002224E+00  0.90007690734E+02  0.89999951452E+02 0.  0.
        -12    1    1    2    0    0 -0.68430468018E-01  0.91275635345E+00  0.74520002224E+00  0.11803092658E+01  0.00000000000E+00 0.  1.
         11    1    3    3    0    0 -0.10394748336E+02  0.69429219878E+00 -0.20180495848E+00  0.10419863729E+02  0.51100000000E-03 0. -1.
        -11    1    3    3    0    0  0.41501008721E+01  0.24073774109E+02  0.30324793517E+02  0.38940506407E+02  0.51100000000E-03 0.  1.
         12    1    3    3    0    0  0.63130779320E+01 -0.25680822662E+02 -0.30868188581E+02  0.40647320598E+02  0.00000000000E+00 0. -1.
</event>
<event>
 7    1  0.2405891E-015  0.9000757E+02  0.7816164E-02  0.1186339E+00
        -11   -1    0    0    0    0  0.00000000000E+00  0.00000000000E+00  0.45593999997E+02  0.45594000000E+02  0.51100000000E-03 0. -1.
         11   -1    0    0    0    0 -0.00000000000E+00 -0.00000000000E+00 -0.45593999997E+02  0.45594000000E+02  0.51100000000E-03 0.  1.
    9900012    2    1    2    0    0  0.10552860674E+01  0.52891455654E+00  0.66226025467E-02  0.90007566541E+02  0.89999825619E+02 0.  0.
        -12    1    1    2    0    0 -0.10552860674E+01 -0.52891455654E+00 -0.66226025467E-02  0.11804334589E+01  0.00000000000E+00 0.  1.
         11    1    3    3    0    0 -0.38492164388E+00  0.40387650249E+02  0.35075510527E+01  0.40541501847E+02  0.51100000000E-03 0. -1.
        -11    1    3    3    0    0 -0.81112407646E+01 -0.43462566188E+00  0.24103916956E+01  0.84729637433E+01  0.51100000000E-03 0.  1.
        -12    1    3    3    0    0  0.95514484759E+01 -0.39424110031E+02 -0.59113201458E+01  0.40993100951E+02  0.00000000000E+00 0.  1.
</event>
<event>
 7    1  0.2405891E-015  0.9000771E+02  0.7816164E-02  0.1186339E+00
        -11   -1    0    0    0    0  0.00000000000E+00  0.00000000000E+00  0.45593999997E+02  0.45594000000E+02  0.51100000000E-03 0. -1.
         11   -1    0    0    0    0 -0.00000000000E+00 -0.00000000000E+00 -0.45593999997E+02  0.45594000000E+02  0.51100000000E-03 0.  1.
    9900012    2    1    2    0    0 -0.81272437707E+00  0.57172056152E+00  0.63694044403E+00  0.90007712559E+02  0.89999973565E+02 0.  0.
        -12    1    1    2    0    0  0.81272437707E+00 -0.57172056152E+00 -0.63694044403E+00  0.11802874407E+01  0.00000000000E+00 0.  1.
         11    1    3    3    0    0  0.66696344495E+00 -0.35445057193E+02  0.11786966851E+02  0.37359463426E+02  0.51100000000E-03 0. -1.
        -11    1    3    3    0    0  0.25832100157E+01 -0.70131866276E+01 -0.49986770661E+01  0.89913588145E+01  0.51100000000E-03 0.  1.
        -12    1    3    3    0    0 -0.40628978377E+01  0.43029964382E+02 -0.61513493409E+01  0.43656890319E+02  0.00000000000E+00 0.  1.
</event>
<event>
 7    1  0.2405891E-015  0.9000773E+02  0.7816164E-02  0.1186339E+00
        -11   -1    0    0    0    0  0.00000000000E+00  0.00000000000E+00  0.45593999997E+02  0.45594000000E+02  0.51100000000E-03 0. -1.
         11   -1    0    0    0    0 -0.00000000000E+00 -0.00000000000E+00 -0.45593999997E+02  0.45594000000E+02  0.51100000000E-03 0.  1.
    9900012    2    1    2    0    0  0.12369187873E+00 -0.11149205537E+01 -0.36698551791E+00  0.90007734821E+02  0.89999996121E+02 0.  0.
        -12    1    1    2    0    0 -0.12369187873E+00  0.11149205537E+01  0.36698551791E+00  0.11802651788E+01  0.00000000000E+00 0.  1.
         11    1    3    3    0    0  0.19972598036E+01 -0.67690460715E+01  0.56814309709E+01  0.90602256914E+01  0.51100000000E-03 0. -1.
        -11    1    3    3    0    0 -0.50152128287E+01 -0.29135299820E+02 -0.27148791546E+02  0.40138197991E+02  0.51100000000E-03 0.  1.
         12    1    3    3    0    0  0.31416449039E+01  0.34789425338E+02  0.21100375057E+02  0.40809311138E+02  0.00000000000E+00 0. -1.
</event>
<event>
 7    1  0.2405891E-015  0.9000773E+02  0.7816164E-02  0.1186339E+00
        -11   -1    0    0    0    0  0.00000000000E+00  0.00000000000E+00  0.45593999997E+02  0.45594000000E+02  0.51100000000E-03 0.  1.
         11   -1    0    0    0    0 -0.00000000000E+00 -0.00000000000E+00 -0.45593999997E+02  0.45594000000E+02  0.51100000000E-03 0. -1.
    9900012    2    1    2    0    0 -0.61611369482E+00 -0.65911037998E+00  0.76093063380E+00  0.90007729689E+02  0.89999990921E+02 0.  0.
        -12    1    1    2    0    0  0.61611369482E+00  0.65911037998E+00 -0.76093063380E+00  0.11802703111E+01  0.00000000000E+00 0.  1.
         11    1    3    3    0    0 -0.21662507170E+01  0.53646445528E+01  0.87912079273E+01  0.10524133714E+02  0.51100000000E-03 0. -1.
        -11    1    3    3    0    0  0.10838001502E+02  0.33069530915E+02  0.88381633337E+01  0.35905003591E+02  0.51100000000E-03 0.  1.
         12    1    3    3    0    0 -0.92878644794E+01 -0.39093285848E+02 -0.16868440627E+02  0.43578592384E+02  0.00000000000E+00 0. -1.
</event>
<event>
 7    1  0.2405891E-015  0.9000692E+02  0.7816164E-02  0.1186341E+00
        -11   -1    0    0    0    0  0.00000000000E+00  0.00000000000E+00  0.45593999997E+02  0.45594000000E+02  0.51100000000E-03 0.  1.
         11   -1    0    0    0    0 -0.00000000000E+00 -0.00000000000E+00 -0.45593999997E+02  0.45594000000E+02  0.51100000000E-03 0. -1.
    9900012    2    1    2    0    0  0.11295262174E+01 -0.15515700577E+00 -0.30829230377E+00  0.90006921122E+02  0.89999171677E+02 0.  0.
        -12    1    1    2    0    0 -0.11295262174E+01  0.15515700577E+00  0.30829230377E+00  0.11810788783E+01  0.00000000000E+00 0.  1.
         11    1    3    3    0    0  0.33037624441E+02  0.24432473247E+02 -0.94735186391E+00  0.41101433716E+02  0.51100000000E-03 0. -1.
        -11    1    3    3    0    0  0.82309859937E+00 -0.50487442057E+01 -0.83019744962E+01  0.97514147771E+01  0.51100000000E-03 0.  1.
        -12    1    3    3    0    0 -0.32731196823E+02 -0.19538886047E+02  0.89410340563E+01  0.39154072629E+02  0.00000000000E+00 0.  1.
</event>
<event>
 7    1  0.2405891E-015  0.9000772E+02  0.7816164E-02  0.1186339E+00
        -11   -1    0    0    0    0  0.00000000000E+00  0.00000000000E+00  0.45593999997E+02  0.45594000000E+02  0.51100000000E-03 0.  1.
         11   -1    0    0    0    0 -0.00000000000E+00 -0.00000000000E+00 -0.45593999997E+02  0.45594000000E+02  0.51100000000E-03 0. -1.
    9900012    2    1    2    0    0  0.79667257158E-01  0.40657806037E+00 -0.11051750956E+01  0.90007718431E+02  0.89999979514E+02 0.  0.
        -12    1    1    2    0    0 -0.79667257158E-01 -0.40657806037E+00  0.11051750956E+01  0.11802815694E+01  0.00000000000E+00 0.  1.
         11    1    3    3    0    0 -0.75904997412E+01 -0.29720990126E+01  0.13210879197E+01  0.82579859781E+01  0.51100000000E-03 0. -1.
        -11    1    3    3    0    0 -0.22148474170E+02  0.84040301307E+01 -0.31759178064E+02  0.39621055287E+02  0.51100000000E-03 0.  1.
         12    1    3    3    0    0  0.29818641169E+02 -0.50253530577E+01  0.29332915048E+02  0.42128677166E+02  0.00000000000E+00 0. -1.
</event>
<event>
 7    1  0.2405891E-015  0.9000776E+02  0.7816164E-02  0.1186339E+00
        -11   -1    0    0    0    0  0.00000000000E+00  0.00000000000E+00  0.45593999997E+02  0.45594000000E+02  0.51100000000E-03 0. -1.
         11   -1    0    0    0    0 -0.00000000000E+00 -0.00000000000E+00 -0.45593999997E+02  0.45594000000E+02  0.51100000000E-03 0.  1.
    9900012    2    1    2    0    0 -0.10670989548E+01  0.43250728329E+00 -0.25924241400E+00  0.90007758771E+02  0.90000020387E+02 0.  0.
        -12    1    1    2    0    0  0.10670989548E+01 -0.43250728329E+00  0.25924241400E+00  0.11802412291E+01  0.00000000000E+00 0.  1.
         11    1    3    3    0    0  0.51025239667E+01  0.92730008003E+01  0.16721309049E+01  0.10715424243E+02  0.51100000000E-03 0. -1.
        -11    1    3    3    0    0  0.32343082309E+02  0.12957666128E+02 -0.34504211393E+01  0.35012590464E+02  0.51100000000E-03 0.  1.
         12    1    3    3    0    0 -0.38512705231E+02 -0.21798159645E+02  0.15190478203E+01  0.44279744064E+02  0.00000000000E+00 0. -1.
</event>
<event>
 7    1  0.2405891E-015  0.9000776E+02  0.7816164E-02  0.1186339E+00
        -11   -1    0    0    0    0  0.00000000000E+00  0.00000000000E+00  0.45593999997E+02  0.45594000000E+02  0.51100000000E-03 0. -1.
         11   -1    0    0    0    0 -0.00000000000E+00 -0.00000000000E+00 -0.45593999997E+02  0.45594000000E+02  0.51100000000E-03 0.  1.
    9900012    2    1    2    0    0 -0.63986558920E+00 -0.42843786019E+00  0.89442068095E+00  0.90007756243E+02  0.90000017825E+02 0.  0.
        -12    1    1    2    0    0  0.63986558920E+00  0.42843786019E+00 -0.89442068095E+00  0.11802437574E+01  0.00000000000E+00 0.  1.
         11    1    3    3    0    0 -0.56518929499E+01 -0.32203605907E+02  0.25780100188E+02  0.41636879005E+02  0.51100000000E-03 0. -1.
        -11    1    3    3    0    0  0.92797915638E+01  0.21034482898E+01 -0.16675213008E+00  0.95166607962E+01  0.51100000000E-03 0.  1.
        -12    1    3    3    0    0 -0.42677642031E+01  0.29671719757E+02 -0.24718927376E+02  0.38854216441E+02  0.00000000000E+00 0.  1.
</event>
<event>
 7    1  0.2405891E-015  0.9000763E+02  0.7816164E-02  0.1186339E+00
        -11   -1    0    0    0    0  0.00000000000E+00  0.00000000000E+00  0.45593999997E+02  0.45594000000E+02  0.51100000000E-03 0. -1.
         11   -1    0    0    0    0 -0.00000000000E+00 -0.00000000000E+00 -0.45593999997E+02  0.45594000000E+02  0.51100000000E-03 0.  1.
    9900012    2    1    2    0    0  0.24292835797E+00  0.87412878691E+00 -0.75509297838E+00  0.90007626869E+02  0.89999886743E+02 0.  0.
        -12    1    1    2    0    0 -0.24292835797E+00 -0.87412878691E+00  0.75509297838E+00  0.11803731313E+01  0.00000000000E+00 0.  1.
         11    1    3    3    0    0  0.25242781179E+00 -0.95041748618E+01 -0.42500845018E+01  0.10414234400E+02  0.51100000000E-03 0. -1.
        -11    1    3    3    0    0  0.24263741931E+02 -0.22955699593E+02  0.15245285748E+02  0.36716645463E+02  0.51100000000E-03 0.  1.
         12    1    3    3    0    0 -0.24273241385E+02  0.33334003241E+02 -0.11750294224E+02  0.42876747006E+02  0.00000000000E+00 0. -1.
</event>
<event>
 7    1  0.2405891E-015  0.9000774E+02  0.7816164E-02  0.1186339E+00
        -11   -1    0    0    0    0  0.00000000000E+00  0.00000000000E+00  0.45593999997E+02  0.45594000000E+02  0.51100000000E-03 0.  1.
         11   -1    0    0    0    0 -0.00000000000E+00 -0.00000000000E+00 -0.45593999997E+02  0.45594000000E+02  0.51100000000E-03 0. -1.
    9900012    2    1    2    0    0  0.28149679731E+00  0.48984247694E+00 -0.10362560884E+01  0.90007740376E+02  0.90000001749E+02 0.  0.
        -12    1    1    2    0    0 -0.28149679731E+00 -0.48984247694E+00  0.10362560884E+01  0.11802596239E+01  0.00000000000E+00 0.  1.
         11    1    3    3    0    0  0.35320950118E+02  0.62749519292E+01 -0.35089265034E+01  0.36045209174E+02  0.51100000000E-03 0. -1.
        -11    1    3    3    0    0  0.78043409387E+01  0.30825802585E+01  0.56174033250E+01  0.10097784852E+02  0.51100000000E-03 0.  1.
        -12    1    3    3    0    0 -0.42843794259E+02 -0.88676897108E+01 -0.31447329100E+01  0.43864746350E+02  0.00000000000E+00 0.  1.
</event>
<event>
 7    1  0.2405891E-015  0.9000774E+02  0.7816164E-02  0.1186339E+00
        -11   -1    0    0    0    0  0.00000000000E+00  0.00000000000E+00  0.45593999997E+02  0.45594000000E+02  0.51100000000E-03 0.  1.
         11   -1    0    0    0    0 -0.00000000000E+00 -0.00000000000E+00 -0.45593999997E+02  0.45594000000E+02  0.51100000000E-03 0. -1.
    9900012    2    1    2    0    0  0.36050549790E+00 -0.96512537964E+00  0.57582659824E+00  0.90007742620E+02  0.90000004022E+02 0.  0.
        -12    1    1    2    0    0 -0.36050549790E+00  0.96512537964E+00 -0.57582659824E+00  0.11802573803E+01  0.00000000000E+00 0.  1.
         11    1    3    3    0    0  0.99572298674E+01  0.88444982061E+00  0.41326484925E+01  0.10816998749E+02  0.51100000000E-03 0. -1.
        -11    1    3    3    0    0  0.14774731500E+02 -0.28061932621E+02  0.18917900286E+02  0.36927655013E+02  0.51100000000E-03 0.  1.
         12    1    3    3    0    0 -0.24371455869E+02  0.26212357420E+02 -0.22474722180E+02  0.42263088857E+02  0.00000000000E+00 0. -1.
</event>
<event>
 7    1  0.2405891E-015  0.9000766E+02  0.7816164E-02  0.1186339E+00
        -11   -1    0    0    0    0  0.00000000000E+00  0.00000000000E+00  0.45593999997E+02  0.45594000000E+02  0.51100000000E-03 0.  1.
         11   -1    0    0    0    0 -0.00000000000E+00 -0.00000000000E+00 -0.45593999997E+02  0.45594000000E+02  0.51100000000E-03 0. -1.
    9900012    2    1    2    0    0  0.72391983476E+00 -0.93087431543E+00 -0.51035720291E-01  0.90007664640E+02  0.89999925013E+02 0.  0.
        -12    1    1    2    0    0 -0.72391983476E+00  0.93087431543E+00  0.51035720291E-01  0.11803353604E+01  0.00000000000E+00 0.  1.
         11    1    3    3    0    0 -0.10485872318E+02 -0.50854723444E+00  0.45122440738E+00  0.10507889526E+02  0.51100000000E-03 0. -1.
        -11    1    3    3    0    0  0.54507826797E+01 -0.19771878999E+02  0.33894199587E+02  0.39616347597E+02  0.51100000000E-03 0.  1.
         12    1    3    3    0    0  0.57590094731E+01  0.19349551918E+02 -0.34396459715E+02  0.39883427517E+02  0.00000000000E+00 0. -1.
</event>
<event>
 7    1  0.2405891E-015  0.9000772E+02  0.7816164E-02  0.1186339E+00
        -11   -1    0    0    0    0  0.00000000000E+00  0.00000000000E+00  0.45593999997E+02  0.45594000000E+02  0.51100000000E-03 0.  1.
         11   -1    0    0    0    0 -0.00000000000E+00 -0.00000000000E+00 -0.45593999997E+02  0.45594000000E+02  0.51100000000E-03 0. -1.
    9900012    2    1    2    0    0  0.11104849193E+01  0.12875361563E+00  0.37855176232E+00  0.90007722200E+02  0.89999983333E+02 0.  0.
        -12    1    1    2    0    0 -0.11104849193E+01 -0.12875361563E+00 -0.37855176232E+00  0.11802778005E+01  0.00000000000E+00 0.  1.
         11    1    3    3    0    0 -0.33941465681E+02  0.18284904223E+02  0.21901126992E+02  0.44339826102E+02  0.51100000000E-03 0. -1.
        -11    1    3    3    0    0  0.44728152422E+01 -0.52806766979E+01 -0.54055191126E+01  0.87813017097E+01  0.51100000000E-03 0.  1.
        -12    1    3    3    0    0  0.30579135358E+02 -0.12875473910E+02 -0.16117056117E+02  0.36886594387E+02  0.00000000000E+00 0.  1.
</event>
<event>
 7    1  0.2405891E-015  0.9000787E+02  0.7816164E-02  0.1186339E+00
        -11   -1    0    0    0    0  0.00000000000E+00  0.00000000000E+00  0.45593999997E+02  0.45594000000E+02  0.51100000000E-03 0.  1.
         11   -1    0    0    0    0 -0.00000000000E+00 -0.00000000000E+00 -0.45593999997E+02  0.45594000000E+02  0.51100000000E-03 0. -1.
    9900012    2    1    2    0    0  0.37727319595E+00 -0.72494798666E+00  0.85136031324E+00  0.90007873299E+02  0.90000136426E+02 0.  0.
        -12    1    1    2    0    0 -0.37727319595E+00  0.72494798666E+00 -0.85136031324E+00  0.11801267011E+01  0.00000000000E+00 0.  1.
         11    1    3    3    0    0  0.62099113806E+01 -0.18663793825E+01  0.76699329341E+01  0.10043617019E+02  0.51100000000E-03 0. -1.
        -11    1    3    3    0    0 -0.16455467472E+02 -0.22215339767E+02  0.26240089150E+02  0.38116217146E+02  0.51100000000E-03 0.  1.
         12    1    3    3    0    0  0.10622829287E+02  0.23356771162E+02 -0.33058661771E+02  0.41848039133E+02  0.00000000000E+00 0. -1.
</event>
<event>
 7    1  0.2405891E-015  0.9000772E+02  0.7816164E-02  0.1186339E+00
        -11   -1    0    0    0    0  0.00000000000E+00  0.00000000000E+00  0.45593999997E+02  0.45594000000E+02  0.51100000000E-03 0.  1.
         11   -1    0    0    0    0 -0.00000000000E+00 -0.00000000000E+00 -0.45593999997E+02  0.45594000000E+02  0.51100000000E-03 0. -1.
    9900012    2    1    2    0    0 -0.10935306067E+01  0.14928094207E+00 -0.41827641995E+00  0.90007724968E+02  0.89999986138E+02 0.  0.
        -12    1    1    2    0    0  0.10935306067E+01 -0.14928094207E+00  0.41827641995E+00  0.11802750319E+01  0.00000000000E+00 0.  1.
         11    1    3    3    0    0  0.29735130070E+02  0.11616011426E+02  0.12152094684E+02  0.34158206732E+02  0.51100000000E-03 0. -1.
        -11    1    3    3    0    0  0.90841802742E+01  0.58298582147E+01 -0.40160979762E+01  0.11516884183E+02  0.51100000000E-03 0.  1.
        -12    1    3    3    0    0 -0.39912840951E+02 -0.17296588698E+02 -0.85542731278E+01  0.44332634053E+02  0.00000000000E+00 0.  1.
</event>
<event>
 7    1  0.2405891E-015  0.9000771E+02  0.7816164E-02  0.1186339E+00
        -11   -1    0    0    0    0  0.00000000000E+00  0.00000000000E+00  0.45593999997E+02  0.45594000000E+02  0.51100000000E-03 0.  1.
         11   -1    0    0    0    0 -0.00000000000E+00 -0.00000000000E+00 -0.45593999997E+02  0.45594000000E+02  0.51100000000E-03 0. -1.
    9900012    2    1    2    0    0  0.10953038572E+01 -0.11901023351E+00  0.42335455455E+00  0.90007710606E+02  0.89999971586E+02 0.  0.
        -12    1    1    2    0    0 -0.10953038572E+01  0.11901023351E+00 -0.42335455455E+00  0.11802893942E+01  0.00000000000E+00 0.  1.
         11    1    3    3    0    0  0.14267811163E+01  0.41225144643E+01 -0.82307661944E+01  0.93153820249E+01  0.51100000000E-03 0. -1.
        -11    1    3    3    0    0  0.35956454185E+02 -0.69883780257E-02  0.21584403280E+02  0.41937490526E+02  0.51100000000E-03 0.  1.
         12    1    3    3    0    0 -0.36287931444E+02 -0.42345363198E+01 -0.12930282532E+02  0.38754838055E+02  0.00000000000E+00 0. -1.
</event>
<event>
 7    1  0.2405891E-015  0.9000774E+02  0.7816164E-02  0.1186339E+00
        -11   -1    0    0    0    0  0.00000000000E+00  0.00000000000E+00  0.45593999997E+02  0.45594000000E+02  0.51100000000E-03 0.  1.
         11   -1    0    0    0    0 -0.00000000000E+00 -0.00000000000E+00 -0.45593999997E+02  0.45594000000E+02  0.51100000000E-03 0. -1.
    9900012    2    1    2    0    0 -0.74295777396E+00 -0.81016184917E+00 -0.42971953461E+00  0.90007742675E+02  0.90000004078E+02 0.  0.
        -12    1    1    2    0    0  0.74295777396E+00  0.81016184917E+00  0.42971953461E+00  0.11802573254E+01  0.00000000000E+00 0.  1.
         11    1    3    3    0    0 -0.11307376331E+02 -0.29730541812E+00 -0.91886611964E+00  0.11348544630E+02  0.51100000000E-03 0. -1.
        -11    1    3    3    0    0 -0.30813329346E+01 -0.17216667525E+01  0.38290120396E+02  0.38452465061E+02  0.51100000000E-03 0.  1.
         12    1    3    3    0    0  0.13645751492E+02  0.12088103214E+01 -0.37800973811E+02  0.40206732984E+02  0.00000000000E+00 0. -1.
</event>
<event>
 7    1  0.2405891E-015  0.9000800E+02  0.7816164E-02  0.1186339E+00
        -11   -1    0    0    0    0  0.00000000000E+00  0.00000000000E+00  0.45593999997E+02  0.45594000000E+02  0.51100000000E-03 0.  1.
         11   -1    0    0    0    0 -0.00000000000E+00 -0.00000000000E+00 -0.45593999997E+02  0.45594000000E+02  0.51100000000E-03 0. -1.
    9900012    2    1    2    0    0  0.43411659233E+00 -0.63745376536E+00 -0.89308823318E+00  0.90007995292E+02  0.90000260029E+02 0.  0.
        -12    1    1    2    0    0 -0.43411659233E+00  0.63745376536E+00  0.89308823318E+00  0.11800047080E+01  0.00000000000E+00 0.  1.
         11    1    3    3    0    0  0.23808923409E+02  0.41234183581E+00 -0.25490249769E+02  0.34882484047E+02  0.51100000000E-03 0. -1.
        -11    1    3    3    0    0 -0.96123478657E-01 -0.14976612752E+01 -0.11812749803E+02  0.11907698652E+02  0.51100000000E-03 0.  1.
        -12    1    3    3    0    0 -0.23278683338E+02  0.44786567402E+00  0.36409911339E+02  0.43217812593E+02  0.00000000000E+00 0.  1.
</event>
<event>
 7    1  0.2405891E-015  0.9000783E+02  0.7816164E-02  0.1186339E+00
        -11   -1    0    0    0    0  0.00000000000E+00  0.00000000000E+00  0.45593999997E+02  0.45594000000E+02  0.51100000000E-03 0.  1.
         11   -1    0    0    0    0 -0.00000000000E+00 -0.00000000000E+00 -0.45593999997E+02  0.45594000000E+02  0.51100000000E-03 0. -1.
    9900012    2    1    2    0    0  0.34605468179E+00  0.69501993417E+00 -0.88881032170E+00  0.90007834613E+02  0.90000097230E+02 0.  0.
        -12    1    1    2    0    0 -0.34605468179E+00 -0.69501993417E+00  0.88881032170E+00  0.11801653866E+01  0.00000000000E+00 0.  1.
         11    1    3    3    0    0  0.30574294009E+02 -0.88129855585E+01 -0.20225957902E+02  0.37703388998E+02  0.51100000000E-03 0. -1.
        -11    1    3    3    0    0  0.81951012307E+01 -0.20979118790E+01  0.32159253514E+01  0.90500328486E+01  0.51100000000E-03 0.  1.
        -12    1    3    3    0    0 -0.38423340558E+02  0.11605917372E+02  0.16121222229E+02  0.43254412767E+02  0.00000000000E+00 0.  1.
</event>
<event>
 7    1  0.2405891E-015  0.9000773E+02  0.7816164E-02  0.1186339E+00
        -11   -1    0    0    0    0  0.00000000000E+00  0.00000000000E+00  0.45593999997E+02  0.45594000000E+02  0.51100000000E-03 0. -1.
         11   -1    0    0    0    0 -0.00000000000E+00 -0.00000000000E+00 -0.45593999997E+02  0.45594000000E+02  0.51100000000E-03 0.  1.
    9900012    2    1    2    0    0 -0.27202872008E+00 -0.56433275416E+00  0.10002780202E+01  0.90007734267E+02  0.89999995560E+02 0.  0.
        -12    1    1    2    0    0  0.27202872008E+00  0.56433275416E+00 -0.10002780202E+01  0.11802657327E+01  0.00000000000E+00 0.  1.
         11    1    3    3    0    0 -0.18603729502E+02  0.10187691203E+02  0.26663188002E+02  0.34070711735E+02  0.51100000000E-03 0. -1.
        -11    1    3    3    0    0 -0.64801382240E+01  0.49565700698E+01  0.78889097658E+01  0.11348774199E+02  0.51100000000E-03 0.  1.
        -12    1    3    3    0    0  0.24811839006E+02 -0.15708594027E+02 -0.33551819747E+02  0.44588248334E+02  0.00000000000E+00 0.  1.
</event>
<event>
 7    1  0.2556419E-015  0.9000777E+02  0.7816164E-02  0.1186339E+00
        -11   -1    0    0    0    0  0.00000000000E+00  0.00000000000E+00  0.45593999997E+02  0.45594000000E+02  0.51100000000E-03 0.  1.
         11   -1    0    0    0    0 -0.00000000000E+00 -0.00000000000E+00 -0.45593999997E+02  0.45594000000E+02  0.51100000000E-03 0. -1.
    9900012    2    1    2    0    0  0.68970673492E+00  0.30907106993E+00 -0.90648975504E+00  0.90007769521E+02  0.90000031279E+02 0.  0.
        -12    1    1    2    0    0 -0.68970673492E+00 -0.30907106993E+00  0.90648975504E+00  0.11802304785E+01  0.00000000000E+00 0.  1.
         11    1    3    3    0    0  0.55160718625E+01  0.76609067951E+01  0.28770495560E+00  0.94445389574E+01  0.51100000000E-03 0. -1.
        -11    1    3    3    0    0 -0.18742838313E+02  0.27453942836E+02  0.18685163207E+02  0.38133296338E+02  0.51100000000E-03 0.  1.
         12    1    3    3    0    0  0.13916473185E+02 -0.34805778561E+02 -0.19879357918E+02  0.42429934226E+02  0.00000000000E+00 0. -1.
</event>
<event>
 7    1  0.2405891E-015  0.9000773E+02  0.7816164E-02  0.1186339E+00
        -11   -1    0    0    0    0  0.00000000000E+00  0.00000000000E+00  0.45593999997E+02  0.45594000000E+02  0.51100000000E-03 0.  1.
         11   -1    0    0    0    0 -0.00000000000E+00 -0.00000000000E+00 -0.45593999997E+02  0.45594000000E+02  0.51100000000E-03 0. -1.
    9900012    2    1    2    0    0  0.36296890986E+00  0.89731794277E+00 -0.67535163534E+00  0.90007734881E+02  0.89999996181E+02 0.  0.
        -12    1    1    2    0    0 -0.36296890986E+00 -0.89731794277E+00  0.67535163534E+00  0.11802651191E+01  0.00000000000E+00 0.  1.
         11    1    3    3    0    0 -0.10268757209E+02 -0.31238254587E+02 -0.17172128549E+02  0.37096602586E+02  0.51100000000E-03 0. -1.
        -11    1    3    3    0    0 -0.15884621031E+00 -0.83605914380E+01  0.29393917870E+01  0.88636756286E+01  0.51100000000E-03 0.  1.
        -12    1    3    3    0    0  0.10790572330E+02  0.40496163968E+02  0.13557385127E+02  0.44047456666E+02  0.00000000000E+00 0.  1.
</event>
<event>
 7    1  0.2405891E-015  0.9000781E+02  0.7816164E-02  0.1186339E+00
        -11   -1    0    0    0    0  0.00000000000E+00  0.00000000000E+00  0.45593999997E+02  0.45594000000E+02  0.51100000000E-03 0. -1.
         11   -1    0    0    0    0 -0.00000000000E+00 -0.00000000000E+00 -0.45593999997E+02  0.45594000000E+02  0.51100000000E-03 0.  1.
    9900012    2    1    2    0    0  0.10815332437E+01 -0.47122684745E+00 -0.32984982515E-01  0.90007806411E+02  0.90000068655E+02 0.  0.
        -12    1    1    2    0    0 -0.10815332437E+01  0.47122684745E+00  0.32984982515E-01  0.11801935892E+01  0.00000000000E+00 0.  1.
         11    1    3    3    0    0 -0.82926190499E+01  0.22423747310E+01  0.36010237320E+01  0.93146737635E+01  0.51100000000E-03 0. -1.
        -11    1    3    3    0    0 -0.29994688544E+02 -0.23743486031E+01  0.18702976140E+02  0.35427675466E+02  0.51100000000E-03 0.  1.
         12    1    3    3    0    0  0.39368840838E+02 -0.33925297530E+00 -0.22336984854E+02  0.45265457182E+02  0.00000000000E+00 0. -1.
</event>
<event>
 7    1  0.2405891E-015  0.9000776E+02  0.7816164E-02  0.1186339E+00
        -11   -1    0    0    0    0  0.00000000000E+00  0.00000000000E+00  0.45593999997E+02  0.45594000000E+02  0.51100000000E-03 0.  1.
         11   -1    0    0    0    0 -0.00000000000E+00 -0.00000000000E+00 -0.45593999997E+02  0.45594000000E+02  0.51100000000E-03 0. -1.
    9900012    2    1    2    0    0  0.79856561817E+00  0.86190366585E+00  0.11123601537E+00  0.90007763402E+02  0.90000025079E+02 0.  0.
        -12    1    1    2    0    0 -0.79856561817E+00 -0.86190366585E+00 -0.11123601537E+00  0.11802365978E+01  0.00000000000E+00 0.  1.
         11    1    3    3    0    0 -0.36366469967E+01  0.63628970471E+01  0.50971126981E+01  0.89270498110E+01  0.51100000000E-03 0. -1.
        -11    1    3    3    0    0 -0.10822861275E+02  0.25201928919E+01  0.35435559351E+02  0.37137104965E+02  0.51100000000E-03 0.  1.
         12    1    3    3    0    0  0.15258073890E+02 -0.80211862731E+01 -0.40421436034E+02  0.43943608626E+02  0.00000000000E+00 0. -1.
</event>
<event>
 7    1  0.2405891E-015  0.9000777E+02  0.7816164E-02  0.1186339E+00
        -11   -1    0    0    0    0  0.00000000000E+00  0.00000000000E+00  0.45593999997E+02  0.45594000000E+02  0.51100000000E-03 0. -1.
         11   -1    0    0    0    0 -0.00000000000E+00 -0.00000000000E+00 -0.45593999997E+02  0.45594000000E+02  0.51100000000E-03 0.  1.
    9900012    2    1    2    0    0  0.18021941471E+00  0.66493746319E+00  0.95829619832E+00  0.90007765925E+02  0.90000027635E+02 0.  0.
        -12    1    1    2    0    0 -0.18021941471E+00 -0.66493746319E+00 -0.95829619832E+00  0.11802340747E+01  0.00000000000E+00 0.  1.
         11    1    3    3    0    0  0.87836480800E+01  0.73924485899E+01  0.12729411618E+02  0.17141723664E+02  0.51100000000E-03 0. -1.
        -11    1    3    3    0    0 -0.30065853940E+02 -0.28398463674E+02 -0.54121614868E+01  0.41709948506E+02  0.51100000000E-03 0.  1.
         12    1    3    3    0    0  0.21462425275E+02  0.21670952547E+02 -0.63589539334E+01  0.31156093755E+02  0.00000000000E+00 0. -1.
</event>
<event>
 7    1  0.2405891E-015  0.9000774E+02  0.7816164E-02  0.1186339E+00
        -11   -1    0    0    0    0  0.00000000000E+00  0.00000000000E+00  0.45593999997E+02  0.45594000000E+02  0.51100000000E-03 0. -1.
         11   -1    0    0    0    0 -0.00000000000E+00 -0.00000000000E+00 -0.45593999997E+02  0.45594000000E+02  0.51100000000E-03 0.  1.
    9900012    2    1    2    0    0 -0.12303035522E+00  0.58144827413E+00  0.10197045855E+01  0.90007739010E+02  0.90000000365E+02 0.  0.
        -12    1    1    2    0    0  0.12303035522E+00 -0.58144827413E+00 -0.10197045855E+01  0.11802609904E+01  0.00000000000E+00 0.  1.
         11    1    3    3    0    0 -0.79387206776E+01  0.35629491343E+02  0.72129008330E+01  0.37209002648E+02  0.51100000000E-03 0. -1.
        -11    1    3    3    0    0  0.95902751672E+01  0.59776936881E+01 -0.22304197824E+00  0.11302917659E+02  0.51100000000E-03 0.  1.
        -12    1    3    3    0    0 -0.17745848449E+01 -0.41025736757E+02 -0.59701542693E+01  0.41495818703E+02  0.00000000000E+00 0.  1.
</event>
<event>
 7    1  0.2405891E-015  0.9000768E+02  0.7816164E-02  0.1186339E+00
        -11   -1    0    0    0    0  0.00000000000E+00  0.00000000000E+00  0.45593999997E+02  0.45594000000E+02  0.51100000000E-03 0.  1.
         11   -1    0    0    0    0 -0.00000000000E+00 -0.00000000000E+00 -0.45593999997E+02  0.45594000000E+02  0.51100000000E-03 0. -1.
    9900012    2    1    2    0    0 -0.35184407470E+00  0.69302239744E+00 -0.88830850697E+00  0.90007675341E+02  0.89999935856E+02 0.  0.
        -12    1    1    2    0    0  0.35184407470E+00 -0.69302239744E+00  0.88830850697E+00  0.11803246586E+01  0.00000000000E+00 0.  1.
         11    1    3    3    0    0  0.21896055300E+02 -0.10037230036E+02 -0.27611798773E+02  0.36641433600E+02  0.51100000000E-03 0. -1.
        -11    1    3    3    0    0  0.40857247743E+01 -0.53603138388E+01 -0.55365519407E+01  0.87223574242E+01  0.51100000000E-03 0.  1.
        -12    1    3    3    0    0 -0.26333624149E+02  0.16090566272E+02  0.32260042206E+02  0.44643884318E+02  0.00000000000E+00 0.  1.
</event>
<event>
 7    1  0.2405891E-015  0.9000779E+02  0.7816164E-02  0.1186339E+00
        -11   -1    0    0    0    0  0.00000000000E+00  0.00000000000E+00  0.45593999997E+02  0.45594000000E+02  0.51100000000E-03 0.  1.
         11   -1    0    0    0    0 -0.00000000000E+00 -0.00000000000E+00 -0.45593999997E+02  0.45594000000E+02  0.51100000000E-03 0. -1.
    9900012    2    1    2    0    0  0.80155534203E-02 -0.34160637836E+00 -0.11296596007E+01  0.90007792400E+02  0.90000054459E+02 0.  0.
        -12    1    1    2    0    0 -0.80155534203E-02  0.34160637836E+00  0.11296596007E+01  0.11802076005E+01  0.00000000000E+00 0.  1.
         11    1    3    3    0    0  0.92236398551E+01  0.35661346965E+01  0.37142739866E+01  0.10563554343E+02  0.51100000000E-03 0. -1.
        -11    1    3    3    0    0 -0.23420114976E+02  0.24076315906E+02  0.20286863722E+02  0.39239363056E+02  0.51100000000E-03 0.  1.
         12    1    3    3    0    0  0.14204490674E+02 -0.27984056981E+02 -0.25130797309E+02  0.40204875001E+02  0.00000000000E+00 0. -1.
</event>
<event>
 7    1  0.2405891E-015  0.9000726E+02  0.7816164E-02  0.1186340E+00
        -11   -1    0    0    0    0  0.00000000000E+00  0.00000000000E+00  0.45593999997E+02  0.45594000000E+02  0.51100000000E-03 0. -1.
         11   -1    0    0    0    0 -0.00000000000E+00 -0.00000000000E+00 -0.45593999997E+02  0.45594000000E+02  0.51100000000E-03 0.  1.
    9900012    2    1    2    0    0 -0.80739869694E+00  0.66602254003E+00  0.54650790423E+00  0.90007258890E+02  0.89999513906E+02 0.  0.
        -12    1    1    2    0    0  0.80739869694E+00 -0.66602254003E+00 -0.54650790423E+00  0.11807411101E+01  0.00000000000E+00 0.  1.
         11    1    3    3    0    0  0.89430919138E+01  0.28576010774E+02  0.20252809332E+02  0.36148908294E+02  0.51100000000E-03 0. -1.
        -11    1    3    3    0    0 -0.12842839282E+02  0.63916286233E+01 -0.34718998270E+00  0.14349633390E+02  0.51100000000E-03 0.  1.
        -12    1    3    3    0    0  0.30923486709E+01 -0.34301616858E+02 -0.19359111445E+02  0.39508717206E+02  0.00000000000E+00 0.  1.
</event>
<event>
 7    1  0.2405891E-015  0.9000782E+02  0.7816164E-02  0.1186339E+00
        -11   -1    0    0    0    0  0.00000000000E+00  0.00000000000E+00  0.45593999997E+02  0.45594000000E+02  0.51100000000E-03 0. -1.
         11   -1    0    0    0    0 -0.00000000000E+00 -0.00000000000E+00 -0.45593999997E+02  0.45594000000E+02  0.51100000000E-03 0.  1.
    9900012    2    1    2    0    0  0.74010200535E+00 -0.87859007939E+00 -0.27046175491E+00  0.90007821595E+02  0.90000084040E+02 0.  0.
        -12    1    1    2    0    0 -0.74010200535E+00  0.87859007939E+00  0.27046175491E+00  0.11801784046E+01  0.00000000000E+00 0.  1.
         11    1    3    3    0    0 -0.15024750243E+01  0.84249469936E+01 -0.13608902612E+02  0.16076050311E+02  0.51100000000E-03 0. -1.
        -11    1    3    3    0    0  0.33546811169E+01 -0.76294485342E+00 -0.29771644997E+02  0.29969765037E+02  0.51100000000E-03 0.  1.
         12    1    3    3    0    0 -0.11121040873E+01 -0.85405922196E+01  0.43110085854E+02  0.43962006248E+02  0.00000000000E+00 0. -1.
</event>
<event>
 7    1  0.2405891E-015  0.9000769E+02  0.7816164E-02  0.1186339E+00
        -11   -1    0    0    0    0  0.00000000000E+00  0.00000000000E+00  0.45593999997E+02  0.45594000000E+02  0.51100000000E-03 0. -1.
         11   -1    0    0    0    0 -0.00000000000E+00 -0.00000000000E+00 -0.45593999997E+02  0.45594000000E+02  0.51100000000E-03 0.  1.
    9900012    2    1    2    0    0 -0.81644176987E+00  0.83378082214E+00 -0.17710588349E+00  0.90007688974E+02  0.89999949669E+02 0.  0.
        -12    1    1    2    0    0  0.81644176987E+00 -0.83378082214E+00  0.17710588349E+00  0.11803110255E+01  0.00000000000E+00 0.  1.
         11    1    3    3    0    0 -0.55721261655E+01  0.30074774522E+01 -0.76170156291E+01  0.99051722845E+01  0.51100000000E-03 0. -1.
        -11    1    3    3    0    0 -0.17036584021E+02  0.33029742883E+02  0.10405196804E+02  0.38593746007E+02  0.51100000000E-03 0.  1.
         12    1    3    3    0    0  0.21792268417E+02 -0.35203439513E+02 -0.29652870581E+01  0.41508770683E+02  0.00000000000E+00 0. -1.
</event>
<event>
 7    1  0.2405891E-015  0.9000775E+02  0.7816164E-02  0.1186339E+00
        -11   -1    0    0    0    0  0.00000000000E+00  0.00000000000E+00  0.45593999997E+02  0.45594000000E+02  0.51100000000E-03 0. -1.
         11   -1    0    0    0    0 -0.00000000000E+00 -0.00000000000E+00 -0.45593999997E+02  0.45594000000E+02  0.51100000000E-03 0.  1.
    9900012    2    1    2    0    0  0.82950466538E+00  0.66543365756E+00  0.51195867864E+00  0.90007753572E+02  0.90000015119E+02 0.  0.
        -12    1    1    2    0    0 -0.82950466538E+00 -0.66543365756E+00 -0.51195867864E+00  0.11802464281E+01  0.00000000000E+00 0.  1.
         11    1    3    3    0    0  0.67235293203E+01  0.14327303612E+02 -0.10155752894E+02  0.18804701338E+02  0.51100000000E-03 0. -1.
        -11    1    3    3    0    0 -0.98560281231E+01  0.96884217201E+01 -0.24895912803E+02  0.28474783236E+02  0.51100000000E-03 0.  1.
         12    1    3    3    0    0  0.39620034681E+01 -0.23350291674E+02  0.35563624376E+02  0.42728268997E+02  0.00000000000E+00 0. -1.
</event>
<event>
 7    1  0.2405891E-015  0.9000750E+02  0.7816164E-02  0.1186340E+00
        -11   -1    0    0    0    0  0.00000000000E+00  0.00000000000E+00  0.45593999997E+02  0.45594000000E+02  0.51100000000E-03 0. -1.
         11   -1    0    0    0    0 -0.00000000000E+00 -0.00000000000E+00 -0.45593999997E+02  0.45594000000E+02  0.51100000000E-03 0.  1.
    9900012    2    1    2    0    0 -0.85224684529E+00 -0.54474959735E+00 -0.60869516718E+00  0.90007497304E+02  0.89999755468E+02 0.  0.
        -12    1    1    2    0    0  0.85224684529E+00  0.54474959735E+00  0.60869516718E+00  0.11805026962E+01  0.00000000000E+00 0.  1.
         11    1    3    3    0    0  0.95395494272E+01  0.11652027470E+02  0.11942967876E+02  0.19219969547E+02  0.51100000000E-03 0. -1.
        -11    1    3    3    0    0 -0.35004874787E+02 -0.16366226221E+02 -0.21558241895E+02  0.44248756066E+02  0.51100000000E-03 0.  1.
         12    1    3    3    0    0  0.24613078515E+02  0.41694491528E+01  0.90065788516E+01  0.26538771690E+02  0.00000000000E+00 0. -1.
</event>
<event>
 7    1  0.2405891E-015  0.9000768E+02  0.7816164E-02  0.1186339E+00
        -11   -1    0    0    0    0  0.00000000000E+00  0.00000000000E+00  0.45593999997E+02  0.45594000000E+02  0.51100000000E-03 0. -1.
         11   -1    0    0    0    0 -0.00000000000E+00 -0.00000000000E+00 -0.45593999997E+02  0.45594000000E+02  0.51100000000E-03 0.  1.
    9900012    2    1    2    0    0  0.59109564202E+00  0.21869857416E+00  0.99796737701E+00  0.90007677159E+02  0.89999937697E+02 0.  0.
        -12    1    1    2    0    0 -0.59109564202E+00 -0.21869857416E+00 -0.99796737701E+00  0.11803228414E+01  0.00000000000E+00 0.  1.
         11    1    3    3    0    0 -0.23585898599E+02 -0.67446174768E+01 -0.97248784399E+01  0.26388591068E+02  0.51100000000E-03 0. -1.
        -11    1    3    3    0    0  0.59025385718E+01 -0.18982901076E+02 -0.13212001609E+02  0.23869383771E+02  0.51100000000E-03 0.  1.
         12    1    3    3    0    0  0.18274455669E+02  0.25946217127E+02  0.23934847426E+02  0.39749702319E+02  0.00000000000E+00 0. -1.
</event>
<event>
 7    1  0.2405891E-015  0.9000770E+02  0.7816164E-02  0.1186339E+00
        -11   -1    0    0    0    0  0.00000000000E+00  0.00000000000E+00  0.45593999997E+02  0.45594000000E+02  0.51100000000E-03 0.  1.
         11   -1    0    0    0    0 -0.00000000000E+00 -0.00000000000E+00 -0.45593999997E+02  0.45594000000E+02  0.51100000000E-03 0. -1.
    9900012    2    1    2    0    0 -0.11595521306E+01  0.19653235603E+00 -0.99651915297E-01  0.90007696389E+02  0.89999957181E+02 0.  0.
        -12    1    1    2    0    0  0.11595521306E+01 -0.19653235603E+00  0.99651915297E-01  0.11803036113E+01  0.00000000000E+00 0.  1.
         11    1    3    3    0    0 -0.24809149624E+02 -0.46902674379E+01 -0.33397562722E+02  0.41867525717E+02  0.51100000000E-03 0. -1.
        -11    1    3    3    0    0  0.83317996597E+01 -0.49487262237E+01 -0.55156450719E+00  0.97063381598E+01  0.51100000000E-03 0.  1.
        -12    1    3    3    0    0  0.15317797834E+02  0.98355260176E+01  0.33849475313E+02  0.38433832511E+02  0.00000000000E+00 0.  1.
</event>
<event>
 7    1  0.2405891E-015  0.9000778E+02  0.7816164E-02  0.1186339E+00
        -11   -1    0    0    0    0  0.00000000000E+00  0.00000000000E+00  0.45593999997E+02  0.45594000000E+02  0.51100000000E-03 0. -1.
         11   -1    0    0    0    0 -0.00000000000E+00 -0.00000000000E+00 -0.45593999997E+02  0.45594000000E+02  0.51100000000E-03 0.  1.
    9900012    2    1    2    0    0 -0.10042619600E+00  0.66555764715E-01  0.11740570299E+01  0.90007777563E+02  0.90000039427E+02 0.  0.
        -12    1    1    2    0    0  0.10042619600E+00 -0.66555764715E-01 -0.11740570299E+01  0.11802224367E+01  0.00000000000E+00 0.  1.
         11    1    3    3    0    0  0.41090060192E+01 -0.27153712295E+02  0.17098688416E+01  0.27516025759E+02  0.51100000000E-03 0. -1.
        -11    1    3    3    0    0 -0.14938018975E+02 -0.83653031292E+01  0.14462764316E+02  0.22411922257E+02  0.51100000000E-03 0.  1.
        -12    1    3    3    0    0  0.10728586760E+02  0.35585571188E+02 -0.14998576128E+02  0.40079829547E+02  0.00000000000E+00 0.  1.
</event>
<event>
 7    1  0.2405891E-015  0.9000737E+02  0.7816164E-02  0.1186340E+00
        -11   -1    0    0    0    0  0.00000000000E+00  0.00000000000E+00  0.45593999997E+02  0.45594000000E+02  0.51100000000E-03 0. -1.
         11   -1    0    0    0    0 -0.00000000000E+00 -0.00000000000E+00 -0.45593999997E+02  0.45594000000E+02  0.51100000000E-03 0.  1.
    9900012    2    1    2    0    0 -0.48507845002E+00 -0.95169360454E+00  0.50285922108E+00  0.90007369145E+02  0.89999625617E+02 0.  0.
        -12    1    1    2    0    0  0.48507845002E+00  0.95169360454E+00 -0.50285922108E+00  0.11806308550E+01  0.00000000000E+00 0.  1.
         11    1    3    3    0    0 -0.15996290506E+01 -0.43762718515E+01  0.11885524985E+02  0.12766216074E+02  0.51100000000E-03 0. -1.
        -11    1    3    3    0    0  0.61754887981E+01 -0.35616516663E+02 -0.11301102094E+02  0.37873312898E+02  0.51100000000E-03 0.  1.
         12    1    3    3    0    0 -0.50609381975E+01  0.39041094910E+02 -0.81563669895E-01  0.39367840172E+02  0.00000000000E+00 0. -1.
</event>
<event>
 7    1  0.2405891E-015  0.9000773E+02  0.7816164E-02  0.1186339E+00
        -11   -1    0    0    0    0  0.00000000000E+00  0.00000000000E+00  0.45593999997E+02  0.45594000000E+02  0.51100000000E-03 0. -1.
         11   -1    0    0    0    0 -0.00000000000E+00 -0.00000000000E+00 -0.45593999997E+02  0.45594000000E+02  0.51100000000E-03 0.  1.
    9900012    2    1    2    0    0 -0.25746118144E+00 -0.93259926958E+00 -0.67603026182E+00  0.90007726908E+02  0.89999988103E+02 0.  0.
        -12    1    1    2    0    0  0.25746118144E+00  0.93259926958E+00  0.67603026182E+00  0.11802730923E+01  0.00000000000E+00 0.  1.
         11    1    3    3    0    0  0.13016212269E+02  0.11655390225E+02  0.33556492172E+02  0.37832632346E+02  0.51100000000E-03 0. -1.
        -11    1    3    3    0    0  0.11071718622E+02 -0.31813369605E+01 -0.39056069629E+01  0.12163783298E+02  0.51100000000E-03 0.  1.
        -12    1    3    3    0    0 -0.24345392073E+02 -0.94066525343E+01 -0.30326915470E+02  0.40011311263E+02  0.00000000000E+00 0.  1.
</event>
<event>
 7    1  0.2405891E-015  0.9000814E+02  0.7816164E-02  0.1186338E+00
        -11   -1    0    0    0    0  0.00000000000E+00  0.00000000000E+00  0.45593999997E+02  0.45594000000E+02  0.51100000000E-03 0. -1.
         11   -1    0    0    0    0 -0.00000000000E+00 -0.00000000000E+00 -0.45593999997E+02  0.45594000000E+02  0.51100000000E-03 0.  1.
    9900012    2    1    2    0    0 -0.62126104084E+00 -0.28154430005E+00  0.96272207749E+00  0.90008141419E+02  0.90000408084E+02 0.  0.
        -12    1    1    2    0    0  0.62126104084E+00  0.28154430005E+00 -0.96272207749E+00  0.11798585815E+01  0.00000000000E+00 0.  1.
         11    1    3    3    0    0 -0.42204799153E+01 -0.93388264567E+01  0.18396244690E+01  0.10412029041E+02  0.51100000000E-03 0. -1.
        -11    1    3    3    0    0 -0.16450866403E+02 -0.15746168921E+02 -0.29139126343E+02  0.36981908082E+02  0.51100000000E-03 0.  1.
         12    1    3    3    0    0  0.20050085277E+02  0.24803451078E+02  0.28262223952E+02  0.42614204295E+02  0.00000000000E+00 0. -1.
</event>
<event>
 7    1  0.2405891E-015  0.9000779E+02  0.7816164E-02  0.1186339E+00
        -11   -1    0    0    0    0  0.00000000000E+00  0.00000000000E+00  0.45593999997E+02  0.45594000000E+02  0.51100000000E-03 0.  1.
         11   -1    0    0    0    0 -0.00000000000E+00 -0.00000000000E+00 -0.45593999997E+02  0.45594000000E+02  0.51100000000E-03 0. -1.
    9900012    2    1    2    0    0 -0.70594287560E+00 -0.91917475133E+00  0.22285850326E+00  0.90007786680E+02  0.90000048665E+02 0.  0.
        -12    1    1    2    0    0  0.70594287560E+00  0.91917475133E+00 -0.22285850326E+00  0.11802133195E+01  0.00000000000E+00 0.  1.
         11    1    3    3    0    0 -0.15850359388E+02 -0.59418509996E+01 -0.40444979655E+02  0.43844450795E+02  0.51100000000E-03 0. -1.
        -11    1    3    3    0    0  0.17950901860E+01  0.69693836413E+01  0.76875634342E+01  0.10530588252E+02  0.51100000000E-03 0.  1.
        -12    1    3    3    0    0  0.13349326326E+02 -0.19467073931E+01  0.32980274724E+02  0.35632747633E+02  0.00000000000E+00 0.  1.
</event>
<event>
 7    1  0.2405891E-015  0.9000774E+02  0.7816164E-02  0.1186339E+00
        -11   -1    0    0    0    0  0.00000000000E+00  0.00000000000E+00  0.45593999997E+02  0.45594000000E+02  0.51100000000E-03 0. -1.
         11   -1    0    0    0    0 -0.00000000000E+00 -0.00000000000E+00 -0.45593999997E+02  0.45594000000E+02  0.51100000000E-03 0.  1.
    9900012    2    1    2    0    0  0.59683545692E+00  0.56094235249E+00  0.84978688232E+00  0.90007742981E+02  0.90000004388E+02 0.  0.
        -12    1    1    2    0    0 -0.59683545692E+00 -0.56094235249E+00 -0.84978688232E+00  0.11802570190E+01  0.00000000000E+00 0.  1.
         11    1    3    3    0    0  0.13861939487E+02 -0.31478504681E+02 -0.35727409709E+01  0.34580545131E+02  0.51100000000E-03 0. -1.
        -11    1    3    3    0    0  0.73283909964E+00 -0.90827773870E+01 -0.57995158264E+01  0.10801309286E+02  0.51100000000E-03 0.  1.
        -12    1    3    3    0    0 -0.13997943130E+02  0.41122224420E+02  0.10222043680E+02  0.44625888564E+02  0.00000000000E+00 0.  1.
</event>
<event>
 7    1  0.2405891E-015  0.9000774E+02  0.7816164E-02  0.1186339E+00
        -11   -1    0    0    0    0  0.00000000000E+00  0.00000000000E+00  0.45593999997E+02  0.45594000000E+02  0.51100000000E-03 0. -1.
         11   -1    0    0    0    0 -0.00000000000E+00 -0.00000000000E+00 -0.45593999997E+02  0.45594000000E+02  0.51100000000E-03 0.  1.
    9900012    2    1    2    0    0  0.99783738755E+00  0.85101715421E-01  0.62457850923E+00  0.90007737289E+02  0.89999998621E+02 0.  0.
        -12    1    1    2    0    0 -0.99783738755E+00 -0.85101715421E-01 -0.62457850923E+00  0.11802627115E+01  0.00000000000E+00 0.  1.
         11    1    3    3    0    0 -0.54231128662E+01 -0.44235141635E+01  0.58131804851E+01  0.90978403112E+01  0.51100000000E-03 0. -1.
        -11    1    3    3    0    0 -0.13513216053E+02 -0.18351447141E+02  0.27898930740E+02  0.36024060806E+02  0.51100000000E-03 0.  1.
         12    1    3    3    0    0  0.19934166307E+02  0.22860063019E+02 -0.33087532716E+02  0.44885836172E+02  0.00000000000E+00 0. -1.
</event>
<event>
 7    1  0.2405891E-015  0.9000782E+02  0.7816164E-02  0.1186339E+00
        -11   -1    0    0    0    0  0.00000000000E+00  0.00000000000E+00  0.45593999997E+02  0.45594000000E+02  0.51100000000E-03 0. -1.
         11   -1    0    0    0    0 -0.00000000000E+00 -0.00000000000E+00 -0.45593999997E+02  0.45594000000E+02  0.51100000000E-03 0.  1.
    9900012    2    1    2    0    0  0.11356753057E+01  0.17452723725E-01 -0.32055996447E+00  0.90007821332E+02  0.90000083774E+02 0.  0.
        -12    1    1    2    0    0 -0.11356753057E+01 -0.17452723725E-01  0.32055996447E+00  0.11801786680E+01  0.00000000000E+00 0.  1.
         11    1    3    3    0    0 -0.37648428453E+02 -0.47095422057E+01 -0.87648014035E+01  0.38941054129E+02  0.51100000000E-03 0. -1.
        -11    1    3    3    0    0 -0.36484173273E+01  0.42532707525E+00  0.75628549296E+01  0.84076528867E+01  0.51100000000E-03 0.  1.
        -12    1    3    3    0    0  0.42432521086E+02  0.43016678542E+01  0.88138650937E+00  0.42659114316E+02  0.00000000000E+00 0.  1.
</event>
<event>
 7    1  0.2405891E-015  0.9000770E+02  0.7816164E-02  0.1186339E+00
        -11   -1    0    0    0    0  0.00000000000E+00  0.00000000000E+00  0.45593999997E+02  0.45594000000E+02  0.51100000000E-03 0.  1.
         11   -1    0    0    0    0 -0.00000000000E+00 -0.00000000000E+00 -0.45593999997E+02  0.45594000000E+02  0.51100000000E-03 0. -1.
    9900012    2    1    2    0    0  0.76227669964E+00  0.88938197121E+00  0.14503570244E+00  0.90007702829E+02  0.89999963706E+02 0.  0.
        -12    1    1    2    0    0 -0.76227669964E+00 -0.88938197121E+00 -0.14503570244E+00  0.11802971713E+01  0.00000000000E+00 0.  1.
         11    1    3    3    0    0 -0.24065730270E+01 -0.25503901991E+02 -0.25356635649E+02  0.36044411248E+02  0.51100000000E-03 0. -1.
        -11    1    3    3    0    0 -0.25359301859E+01 -0.17846194488E+01 -0.87276867124E+01  0.92621986642E+01  0.51100000000E-03 0.  1.
        -12    1    3    3    0    0  0.57047799125E+01  0.28177903411E+02  0.34229358063E+02  0.44701092917E+02  0.00000000000E+00 0.  1.
</event>
<event>
 7    1  0.2405891E-015  0.9000774E+02  0.7816164E-02  0.1186339E+00
        -11   -1    0    0    0    0  0.00000000000E+00  0.00000000000E+00  0.45593999997E+02  0.45594000000E+02  0.51100000000E-03 0. -1.
         11   -1    0    0    0    0 -0.00000000000E+00 -0.00000000000E+00 -0.45593999997E+02  0.45594000000E+02  0.51100000000E-03 0.  1.
    9900012    2    1    2    0    0 -0.79725377665E+00 -0.81779928745E+00 -0.29768293214E+00  0.90007735459E+02  0.89999996767E+02 0.  0.
        -12    1    1    2    0    0  0.79725377665E+00  0.81779928745E+00  0.29768293214E+00  0.11802645411E+01  0.00000000000E+00 0.  1.
         11    1    3    3    0    0 -0.21654654437E+02  0.19225869350E+02 -0.23844098174E+02  0.37511320012E+02  0.51100000000E-03 0. -1.
        -11    1    3    3    0    0  0.10372337690E+02  0.82703795982E+01 -0.13881469993E+01  0.13338347732E+02  0.51100000000E-03 0.  1.
        -12    1    3    3    0    0  0.10485062970E+02 -0.28314048236E+02  0.24934562241E+02  0.39158067715E+02  0.00000000000E+00 0.  1.
</event>
<event>
 7    1  0.2405891E-015  0.9000771E+02  0.7816164E-02  0.1186339E+00
        -11   -1    0    0    0    0  0.00000000000E+00  0.00000000000E+00  0.45593999997E+02  0.45594000000E+02  0.51100000000E-03 0.  1.
         11   -1    0    0    0    0 -0.00000000000E+00 -0.00000000000E+00 -0.45593999997E+02  0.45594000000E+02  0.51100000000E-03 0. -1.
    9900012    2    1    2    0    0 -0.73155417019E+00 -0.72525484212E+00  0.57613089711E+00  0.90007706435E+02  0.89999967360E+02 0.  0.
        -12    1    1    2    0    0  0.73155417019E+00  0.72525484212E+00 -0.57613089711E+00  0.11802935654E+01  0.00000000000E+00 0.  1.
         11    1    3    3    0    0 -0.48902465970E+01 -0.12666218567E+02 -0.58627518197E+01  0.14789167107E+02  0.51100000000E-03 0. -1.
        -11    1    3    3    0    0 -0.13804619423E+02  0.39583306767E+02  0.21777846030E+01  0.41977951809E+02  0.51100000000E-03 0.  1.
         12    1    3    3    0    0  0.17963311850E+02 -0.27642343042E+02  0.42610981138E+01  0.33240587519E+02  0.00000000000E+00 0. -1.
</event>
<event>
 7    1  0.2405891E-015  0.9000775E+02  0.7816164E-02  0.1186339E+00
        -11   -1    0    0    0    0  0.00000000000E+00  0.00000000000E+00  0.45593999997E+02  0.45594000000E+02  0.51100000000E-03 0.  1.
         11   -1    0    0    0    0 -0.00000000000E+00 -0.00000000000E+00 -0.45593999997E+02  0.45594000000E+02  0.51100000000E-03 0. -1.
    9900012    2    1    2    0    0  0.59579627275E+00  0.32960921555E+00 -0.96404366923E+00  0.90007747641E+02  0.90000009110E+02 0.  0.
        -12    1    1    2    0    0 -0.59579627275E+00 -0.32960921555E+00  0.96404366923E+00  0.11802523585E+01  0.00000000000E+00 0.  1.
         11    1    3    3    0    0 -0.22176571090E+02  0.29673053955E+02  0.11320649910E+01  0.37061732390E+02  0.51100000000E-03 0. -1.
        -11    1    3    3    0    0  0.56909663137E+00  0.87683281172E+01  0.34584763956E-01  0.87868450148E+01  0.51100000000E-03 0.  1.
        -12    1    3    3    0    0  0.22203270732E+02 -0.38111772857E+02 -0.21306934242E+01  0.44159170236E+02  0.00000000000E+00 0.  1.
</event>
<event>
 7    1  0.2405891E-015  0.9000770E+02  0.7816164E-02  0.1186339E+00
        -11   -1    0    0    0    0  0.00000000000E+00  0.00000000000E+00  0.45593999997E+02  0.45594000000E+02  0.51100000000E-03 0. -1.
         11   -1    0    0    0    0 -0.00000000000E+00 -0.00000000000E+00 -0.45593999997E+02  0.45594000000E+02  0.51100000000E-03 0.  1.
    9900012    2    1    2    0    0 -0.15579703069E+00 -0.93156820925E+00  0.70781943227E+00  0.90007703261E+02  0.89999964144E+02 0.  0.
        -12    1    1    2    0    0  0.15579703069E+00  0.93156820925E+00 -0.70781943227E+00  0.11802967389E+01  0.00000000000E+00 0.  1.
         11    1    3    3    0    0 -0.14446318981E+02 -0.13420636737E+02  0.31397406351E+02  0.37075689453E+02  0.51100000000E-03 0. -1.
        -11    1    3    3    0    0  0.32557479456E+01 -0.45135185773E+01  0.77113555109E+01  0.95098238001E+01  0.51100000000E-03 0.  1.
        -12    1    3    3    0    0  0.11034774004E+02  0.17002587106E+02 -0.38400942430E+02  0.43422190008E+02  0.00000000000E+00 0.  1.
</event>
<event>
 7    1  0.2405891E-015  0.9000771E+02  0.7816164E-02  0.1186339E+00
        -11   -1    0    0    0    0  0.00000000000E+00  0.00000000000E+00  0.45593999997E+02  0.45594000000E+02  0.51100000000E-03 0. -1.
         11   -1    0    0    0    0 -0.00000000000E+00 -0.00000000000E+00 -0.45593999997E+02  0.45594000000E+02  0.51100000000E-03 0.  1.
    9900012    2    1    2    0    0  0.95063353394E+00  0.52488037016E+00  0.46247869535E+00  0.90007707637E+02  0.89999968578E+02 0.  0.
        -12    1    1    2    0    0 -0.95063353394E+00 -0.52488037016E+00 -0.46247869535E+00  0.11802923631E+01  0.00000000000E+00 0.  1.
         11    1    3    3    0    0 -0.26850276826E+02  0.13304420430E+02  0.14417703114E+02  0.33253798760E+02  0.51100000000E-03 0. -1.
        -11    1    3    3    0    0 -0.10849777915E+02 -0.72022636922E+01 -0.11912821669E+02  0.17649521338E+02  0.51100000000E-03 0.  1.
        -12    1    3    3    0    0  0.38650688275E+02 -0.55772763682E+01 -0.20424027489E+01  0.39104387539E+02  0.00000000000E+00 0.  1.
</event>
<event>
 7    1  0.2405891E-015  0.9000773E+02  0.7816164E-02  0.1186339E+00
        -11   -1    0    0    0    0  0.00000000000E+00  0.00000000000E+00  0.45593999997E+02  0.45594000000E+02  0.51100000000E-03 0. -1.
         11   -1    0    0    0    0 -0.00000000000E+00 -0.00000000000E+00 -0.45593999997E+02  0.45594000000E+02  0.51100000000E-03 0.  1.
    9900012    2    1    2    0    0  0.38947969298E+00  0.10720630675E+01  0.30334870553E+00  0.90007731349E+02  0.89999992603E+02 0.  0.
        -12    1    1    2    0    0 -0.38947969298E+00 -0.10720630675E+01 -0.30334870553E+00  0.11802686512E+01  0.00000000000E+00 0.  1.
         11    1    3    3    0    0  0.14486859079E+01  0.70233185123E+01 -0.82321783204E+01  0.10917621259E+02  0.51100000000E-03 0. -1.
        -11    1    3    3    0    0 -0.40901719463E+01  0.27061514331E+02 -0.21151019722E+02  0.34589314824E+02  0.51100000000E-03 0.  1.
         12    1    3    3    0    0  0.30309657313E+01 -0.33012769776E+02  0.29686546748E+02  0.44500795266E+02  0.00000000000E+00 0. -1.
</event>
<event>
 7    1  0.2405891E-015  0.9000749E+02  0.7816164E-02  0.1186340E+00
        -11   -1    0    0    0    0  0.00000000000E+00  0.00000000000E+00  0.45593999997E+02  0.45594000000E+02  0.51100000000E-03 0. -1.
         11   -1    0    0    0    0 -0.00000000000E+00 -0.00000000000E+00 -0.45593999997E+02  0.45594000000E+02  0.51100000000E-03 0.  1.
    9900012    2    1    2    0    0  0.57513246913E+00  0.83948721122E+00 -0.59840602362E+00  0.90007489134E+02  0.89999747191E+02 0.  0.
        -12    1    1    2    0    0 -0.57513246913E+00 -0.83948721122E+00  0.59840602362E+00  0.11805108657E+01  0.00000000000E+00 0.  1.
         11    1    3    3    0    0  0.44882406779E+01 -0.81148020812E+01 -0.61639252509E+00  0.92937751860E+01  0.51100000000E-03 0. -1.
        -11    1    3    3    0    0  0.21838982533E+01 -0.31083565756E+02 -0.18438694616E+02  0.36206945895E+02  0.51100000000E-03 0.  1.
         12    1    3    3    0    0 -0.60970064621E+01  0.40037855048E+02  0.18456681117E+02  0.44506768053E+02  0.00000000000E+00 0. -1.
</event>
<event>
 7    1  0.2405891E-015  0.9000831E+02  0.7816164E-02  0.1186338E+00
        -11   -1    0    0    0    0  0.00000000000E+00  0.00000000000E+00  0.45593999997E+02  0.45594000000E+02  0.51100000000E-03 0.  1.
         11   -1    0    0    0    0 -0.00000000000E+00 -0.00000000000E+00 -0.45593999997E+02  0.45594000000E+02  0.51100000000E-03 0. -1.
    9900012    2    1    2    0    0 -0.68012903093E+00  0.91109562393E+00  0.31463841768E+00  0.90008310181E+02  0.90000579074E+02 0.  0.
        -12    1    1    2    0    0  0.68012903093E+00 -0.91109562393E+00 -0.31463841768E+00  0.11796898188E+01  0.00000000000E+00 0.  1.
         11    1    3    3    0    0 -0.43838303859E+01  0.28602590915E+01 -0.81058086799E+01  0.96489991989E+01  0.51100000000E-03 0. -1.
        -11    1    3    3    0    0 -0.17092282318E+02  0.27955164149E+02  0.24128850409E+02  0.40691998473E+02  0.51100000000E-03 0.  1.
         12    1    3    3    0    0  0.20795983673E+02 -0.29904327616E+02 -0.15708403312E+02  0.39667312509E+02  0.00000000000E+00 0. -1.
</event>
<event>
 7    1  0.2405891E-015  0.9000780E+02  0.7816164E-02  0.1186339E+00
        -11   -1    0    0    0    0  0.00000000000E+00  0.00000000000E+00  0.45593999997E+02  0.45594000000E+02  0.51100000000E-03 0.  1.
         11   -1    0    0    0    0 -0.00000000000E+00 -0.00000000000E+00 -0.45593999997E+02  0.45594000000E+02  0.51100000000E-03 0. -1.
    9900012    2    1    2    0    0 -0.96606672499E+00 -0.21520752840E-01 -0.67758309794E+00  0.90007802171E+02  0.90000064360E+02 0.  0.
        -12    1    1    2    0    0  0.96606672499E+00  0.21520752840E-01  0.67758309794E+00  0.11801978286E+01  0.00000000000E+00 0.  1.
         11    1    3    3    0    0  0.42185138945E+01  0.36828576630E+02 -0.19328453884E+02  0.41805849421E+02  0.51100000000E-03 0. -1.
        -11    1    3    3    0    0 -0.82113555140E+01 -0.67942988622E+01 -0.29582936651E+01  0.11060757572E+02  0.51100000000E-03 0.  1.
        -12    1    3    3    0    0  0.30267748946E+01 -0.30055798520E+02  0.21609164451E+02  0.37141195178E+02  0.00000000000E+00 0.  1.
</event>
<event>
 7    1  0.2405891E-015  0.9000773E+02  0.7816164E-02  0.1186339E+00
        -11   -1    0    0    0    0  0.00000000000E+00  0.00000000000E+00  0.45593999997E+02  0.45594000000E+02  0.51100000000E-03 0.  1.
         11   -1    0    0    0    0 -0.00000000000E+00 -0.00000000000E+00 -0.45593999997E+02  0.45594000000E+02  0.51100000000E-03 0. -1.
    9900012    2    1    2    0    0  0.87602195135E+00 -0.16755308674E+00 -0.77301443638E+00  0.90007728923E+02  0.89999990145E+02 0.  0.
        -12    1    1    2    0    0 -0.87602195135E+00  0.16755308674E+00  0.77301443638E+00  0.11802710769E+01  0.00000000000E+00 0.  1.
         11    1    3    3    0    0 -0.29224223676E+02 -0.22757066253E+02 -0.12122297441E+02  0.38972931753E+02  0.51100000000E-03 0. -1.
        -11    1    3    3    0    0 -0.68983286299E+01  0.47099258976E+01  0.41117237945E+01  0.93100275332E+01  0.51100000000E-03 0.  1.
        -12    1    3    3    0    0  0.36998574257E+02  0.17879587269E+02  0.72375592097E+01  0.41724769637E+02  0.00000000000E+00 0.  1.
</event>
<event>
 7    1  0.2405891E-015  0.9000770E+02  0.7816164E-02  0.1186339E+00
        -11   -1    0    0    0    0  0.00000000000E+00  0.00000000000E+00  0.45593999997E+02  0.45594000000E+02  0.51100000000E-03 0.  1.
         11   -1    0    0    0    0 -0.00000000000E+00 -0.00000000000E+00 -0.45593999997E+02  0.45594000000E+02  0.51100000000E-03 0. -1.
    9900012    2    1    2    0    0  0.14113855403E+00  0.62309172870E+00  0.99244660084E+00  0.90007697645E+02  0.89999958454E+02 0.  0.
        -12    1    1    2    0    0 -0.14113855403E+00 -0.62309172870E+00 -0.99244660084E+00  0.11803023550E+01  0.00000000000E+00 0.  1.
         11    1    3    3    0    0 -0.71225807855E+01 -0.11556250428E+02 -0.25379373666E+01  0.13810112503E+02  0.51100000000E-03 0. -1.
        -11    1    3    3    0    0  0.32412208079E+01  0.12475888306E+02  0.38703709063E+02  0.40793754385E+02  0.51100000000E-03 0.  1.
         12    1    3    3    0    0  0.40224985316E+01 -0.29654614888E+00 -0.35173325095E+02  0.35403830757E+02  0.00000000000E+00 0. -1.
</event>
<event>
 7    1  0.2405891E-015  0.9000770E+02  0.7816164E-02  0.1186339E+00
        -11   -1    0    0    0    0  0.00000000000E+00  0.00000000000E+00  0.45593999997E+02  0.45594000000E+02  0.51100000000E-03 0.  1.
         11   -1    0    0    0    0 -0.00000000000E+00 -0.00000000000E+00 -0.45593999997E+02  0.45594000000E+02  0.51100000000E-03 0. -1.
    9900012    2    1    2    0    0 -0.30258125274E+00  0.36548644041E+00 -0.10807281657E+01  0.90007699563E+02  0.89999960398E+02 0.  0.
        -12    1    1    2    0    0  0.30258125274E+00 -0.36548644041E+00  0.10807281657E+01  0.11803004366E+01  0.00000000000E+00 0.  1.
         11    1    3    3    0    0  0.85954101734E+01 -0.16657632017E+01  0.29039656921E+01  0.92243623138E+01  0.51100000000E-03 0. -1.
        -11    1    3    3    0    0 -0.43171703036E+02  0.62003333740E+01  0.77890210752E+01  0.44304728038E+02  0.51100000000E-03 0.  1.
         12    1    3    3    0    0  0.34273711610E+02 -0.41690837319E+01 -0.11773714933E+02  0.36478609211E+02  0.00000000000E+00 0. -1.
</event>
<event>
 7    1  0.2405891E-015  0.9000744E+02  0.7816164E-02  0.1186340E+00
        -11   -1    0    0    0    0  0.00000000000E+00  0.00000000000E+00  0.45593999997E+02  0.45594000000E+02  0.51100000000E-03 0.  1.
         11   -1    0    0    0    0 -0.00000000000E+00 -0.00000000000E+00 -0.45593999997E+02  0.45594000000E+02  0.51100000000E-03 0. -1.
    9900012    2    1    2    0    0 -0.96846587555E-02 -0.56165890387E+00  0.10383526329E+01  0.90007436276E+02  0.89999693634E+02 0.  0.
        -12    1    1    2    0    0  0.96846587555E-02  0.56165890387E+00 -0.10383526329E+01  0.11805637243E+01  0.00000000000E+00 0.  1.
         11    1    3    3    0    0  0.67189030884E+01 -0.45873741220E+00  0.10708901100E+02  0.12650480693E+02  0.51100000000E-03 0. -1.
        -11    1    3    3    0    0 -0.17448395533E+01  0.23443434439E+02  0.25536481069E+02  0.34709522454E+02  0.51100000000E-03 0.  1.
         12    1    3    3    0    0 -0.49837481938E+01 -0.23546355931E+02 -0.35207029536E+02  0.42647433128E+02  0.00000000000E+00 0. -1.
</event>
<event>
 7    1  0.2405891E-015  0.9000774E+02  0.7816164E-02  0.1186339E+00
        -11   -1    0    0    0    0  0.00000000000E+00  0.00000000000E+00  0.45593999997E+02  0.45594000000E+02  0.51100000000E-03 0.  1.
         11   -1    0    0    0    0 -0.00000000000E+00 -0.00000000000E+00 -0.45593999997E+02  0.45594000000E+02  0.51100000000E-03 0. -1.
    9900012    2    1    2    0    0 -0.90159663282E+00 -0.32549821413E+00 -0.68861345099E+00  0.90007739834E+02  0.90000001199E+02 0.  0.
        -12    1    1    2    0    0  0.90159663282E+00  0.32549821413E+00  0.68861345099E+00  0.11802601665E+01  0.00000000000E+00 0.  1.
         11    1    3    3    0    0  0.16187488851E+02 -0.26465168979E+02  0.29991462090E+02  0.43150060984E+02  0.51100000000E-03 0. -1.
        -11    1    3    3    0    0 -0.40484877295E+01  0.68242822297E+01  0.47656219681E+00  0.79491001148E+01  0.51100000000E-03 0.  1.
        -12    1    3    3    0    0 -0.13040597754E+02  0.19315388535E+02 -0.31156637738E+02  0.38908578735E+02  0.00000000000E+00 0.  1.
</event>
<event>
 7    1  0.2405891E-015  0.9000718E+02  0.7816164E-02  0.1186340E+00
        -11   -1    0    0    0    0  0.00000000000E+00  0.00000000000E+00  0.45593999997E+02  0.45594000000E+02  0.51100000000E-03 0.  1.
         11   -1    0    0    0    0 -0.00000000000E+00 -0.00000000000E+00 -0.45593999997E+02  0.45594000000E+02  0.51100000000E-03 0. -1.
    9900012    2    1    2    0    0 -0.80114555888E+00 -0.83583780465E+00  0.23212672995E+00  0.90007177464E+02  0.89999431405E+02 0.  0.
        -12    1    1    2    0    0  0.80114555888E+00  0.83583780465E+00 -0.23212672995E+00  0.11808225358E+01  0.00000000000E+00 0.  1.
         11    1    3    3    0    0  0.28230273190E+01  0.97956772694E+01 -0.67486508044E+01  0.12225754142E+02  0.51100000000E-03 0. -1.
        -11    1    3    3    0    0  0.20691858413E+02  0.76685930262E+01  0.31665371088E+02  0.38596062623E+02  0.51100000000E-03 0.  1.
         12    1    3    3    0    0 -0.24316031291E+02 -0.18300108100E+02 -0.24684593553E+02  0.39185360699E+02  0.00000000000E+00 0. -1.
</event>
<event>
 7    1  0.2405891E-015  0.9000779E+02  0.7816164E-02  0.1186339E+00
        -11   -1    0    0    0    0  0.00000000000E+00  0.00000000000E+00  0.45593999997E+02  0.45594000000E+02  0.51100000000E-03 0. -1.
         11   -1    0    0    0    0 -0.00000000000E+00 -0.00000000000E+00 -0.45593999997E+02  0.45594000000E+02  0.51100000000E-03 0.  1.
    9900012    2    1    2    0    0  0.75016008790E+00  0.83132197498E+00  0.37291736774E+00  0.90007786567E+02  0.90000048550E+02 0.  0.
        -12    1    1    2    0    0 -0.75016008790E+00 -0.83132197498E+00 -0.37291736774E+00  0.11802134327E+01  0.00000000000E+00 0.  1.
         11    1    3    3    0    0  0.13778644782E+02  0.29934994658E+02  0.12543732891E+02  0.35260462168E+02  0.51100000000E-03 0. -1.
        -11    1    3    3    0    0 -0.22863897789E+01  0.80315214619E+01  0.76318749731E+01  0.11312755238E+02  0.51100000000E-03 0.  1.
        -12    1    3    3    0    0 -0.10742094915E+02 -0.37135194145E+02 -0.19802690496E+02  0.43434569161E+02  0.00000000000E+00 0.  1.
</event>
<event>
 7    1  0.2405891E-015  0.9000781E+02  0.7816164E-02  0.1186339E+00
        -11   -1    0    0    0    0  0.00000000000E+00  0.00000000000E+00  0.45593999997E+02  0.45594000000E+02  0.51100000000E-03 0. -1.
         11   -1    0    0    0    0 -0.00000000000E+00 -0.00000000000E+00 -0.45593999997E+02  0.45594000000E+02  0.51100000000E-03 0.  1.
    9900012    2    1    2    0    0 -0.95905984485E+00 -0.63976855527E+00  0.25250531081E+00  0.90007805727E+02  0.90000067962E+02 0.  0.
        -12    1    1    2    0    0  0.95905984485E+00  0.63976855527E+00 -0.25250531081E+00  0.11801942731E+01  0.00000000000E+00 0.  1.
         11    1    3    3    0    0  0.10415941011E+02 -0.38400489393E+01  0.11360215889E+02  0.15883712045E+02  0.51100000000E-03 0. -1.
        -11    1    3    3    0    0 -0.39293994547E+02 -0.67692331853E+01  0.53281193977E+01  0.40227221902E+02  0.51100000000E-03 0.  1.
         12    1    3    3    0    0  0.27918993690E+02  0.99695135693E+01 -0.16435829976E+02  0.33896871781E+02  0.00000000000E+00 0. -1.
</event>
<event>
 7    1  0.2405891E-015  0.9000779E+02  0.7816164E-02  0.1186339E+00
        -11   -1    0    0    0    0  0.00000000000E+00  0.00000000000E+00  0.45593999997E+02  0.45594000000E+02  0.51100000000E-03 0.  1.
         11   -1    0    0    0    0 -0.00000000000E+00 -0.00000000000E+00 -0.45593999997E+02  0.45594000000E+02  0.51100000000E-03 0. -1.
    9900012    2    1    2    0    0  0.37489225434E+00 -0.94942696661E+00 -0.59240135047E+00  0.90007790219E+02  0.90000052250E+02 0.  0.
        -12    1    1    2    0    0 -0.37489225434E+00  0.94942696661E+00  0.59240135047E+00  0.11802097811E+01  0.00000000000E+00 0.  1.
         11    1    3    3    0    0 -0.71943927039E+01 -0.56107795379E+01  0.17688991144E+01  0.92934997574E+01  0.51100000000E-03 0. -1.
        -11    1    3    3    0    0 -0.19742629509E+02  0.23620963673E+02  0.23387942866E+02  0.38661572867E+02  0.51100000000E-03 0.  1.
         12    1    3    3    0    0  0.27311914467E+02 -0.18959611101E+02 -0.25749243331E+02  0.42052717595E+02  0.00000000000E+00 0. -1.
</event>
<event>
 7    1  0.2405891E-015  0.9000757E+02  0.7816164E-02  0.1186339E+00
        -11   -1    0    0    0    0  0.00000000000E+00  0.00000000000E+00  0.45593999997E+02  0.45594000000E+02  0.51100000000E-03 0. -1.
         11   -1    0    0    0    0 -0.00000000000E+00 -0.00000000000E+00 -0.45593999997E+02  0.45594000000E+02  0.51100000000E-03 0.  1.
    9900012    2    1    2    0    0 -0.81174496013E+00  0.81349581082E+00  0.26966567374E+00  0.90007565804E+02  0.89999824873E+02 0.  0.
        -12    1    1    2    0    0  0.81174496013E+00 -0.81349581082E+00 -0.26966567374E+00  0.11804341956E+01  0.00000000000E+00 0.  1.
         11    1    3    3    0    0 -0.25106137224E+02  0.16257433023E+02  0.20541934561E+02  0.36284891217E+02  0.51100000000E-03 0. -1.
        -11    1    3    3    0    0 -0.80867811331E+01 -0.15653116052E+01  0.56456912988E+01  0.99859931914E+01  0.51100000000E-03 0.  1.
        -12    1    3    3    0    0  0.32381173397E+02 -0.13878625607E+02 -0.25917960186E+02  0.43736681396E+02  0.00000000000E+00 0.  1.
</event>
<event>
 7    1  0.2405891E-015  0.9000778E+02  0.7816164E-02  0.1186339E+00
        -11   -1    0    0    0    0  0.00000000000E+00  0.00000000000E+00  0.45593999997E+02  0.45594000000E+02  0.51100000000E-03 0.  1.
         11   -1    0    0    0    0 -0.00000000000E+00 -0.00000000000E+00 -0.45593999997E+02  0.45594000000E+02  0.51100000000E-03 0. -1.
    9900012    2    1    2    0    0  0.11474140572E+01  0.27621578067E+00  0.81568520620E-02  0.90007779381E+02  0.90000041268E+02 0.  0.
        -12    1    1    2    0    0 -0.11474140572E+01 -0.27621578067E+00 -0.81568520620E-02  0.11802206193E+01  0.00000000000E+00 0.  1.
         11    1    3    3    0    0  0.48973616432E+01 -0.17963103386E+01 -0.90731610656E+01  0.10465807847E+02  0.51100000000E-03 0. -1.
        -11    1    3    3    0    0  0.24340251450E+02 -0.27425316936E+02  0.12313244063E+02  0.38680897473E+02  0.51100000000E-03 0.  1.
         12    1    3    3    0    0 -0.28090199036E+02  0.29497843055E+02 -0.32319261453E+01  0.40861074061E+02  0.00000000000E+00 0. -1.
</event>
<event>
 7    1  0.2405891E-015  0.9000774E+02  0.7816164E-02  0.1186339E+00
        -11   -1    0    0    0    0  0.00000000000E+00  0.00000000000E+00  0.45593999997E+02  0.45594000000E+02  0.51100000000E-03 0.  1.
         11   -1    0    0    0    0 -0.00000000000E+00 -0.00000000000E+00 -0.45593999997E+02  0.45594000000E+02  0.51100000000E-03 0. -1.
    9900012    2    1    2    0    0  0.40944609528E+00 -0.10991474158E+01  0.13134942664E+00  0.90007735700E+02  0.89999997011E+02 0.  0.
        -12    1    1    2    0    0 -0.40944609528E+00  0.10991474158E+01 -0.13134942664E+00  0.11802643002E+01  0.00000000000E+00 0.  1.
         11    1    3    3    0    0 -0.15596691761E+02  0.21491274788E+01  0.23366542566E+01  0.15916516459E+02  0.51100000000E-03 0. -1.
        -11    1    3    3    0    0 -0.28506085134E+02  0.22023539184E+01  0.38141664949E+01  0.28844325590E+02  0.51100000000E-03 0.  1.
         12    1    3    3    0    0  0.44512222990E+02 -0.54506288130E+01 -0.60194713249E+01  0.45246893651E+02  0.00000000000E+00 0. -1.
</event>
<event>
 7    1  0.2405891E-015  0.9000771E+02  0.7816164E-02  0.1186339E+00
        -11   -1    0    0    0    0  0.00000000000E+00  0.00000000000E+00  0.45593999997E+02  0.45594000000E+02  0.51100000000E-03 0. -1.
         11   -1    0    0    0    0 -0.00000000000E+00 -0.00000000000E+00 -0.45593999997E+02  0.45594000000E+02  0.51100000000E-03 0.  1.
    9900012    2    1    2    0    0 -0.67955566292E-02 -0.54505496116E-01  0.11790107834E+01  0.90007710435E+02  0.89999971413E+02 0.  0.
        -12    1    1    2    0    0  0.67955566292E-02  0.54505496116E-01 -0.11790107834E+01  0.11802895645E+01  0.00000000000E+00 0.  1.
         11    1    3    3    0    0  0.20161969380E+02  0.52526254473E+01 -0.29561298291E+02  0.36165804847E+02  0.51100000000E-03 0. -1.
        -11    1    3    3    0    0  0.41291291149E+01  0.92349619267E+01 -0.22520479099E+01  0.10363684146E+02  0.51100000000E-03 0.  1.
        -12    1    3    3    0    0 -0.24297894052E+02 -0.14542092870E+02  0.32992356984E+02  0.43478221442E+02  0.00000000000E+00 0.  1.
</event>
<event>
 7    1  0.2405891E-015  0.9000780E+02  0.7816164E-02  0.1186339E+00
        -11   -1    0    0    0    0  0.00000000000E+00  0.00000000000E+00  0.45593999997E+02  0.45594000000E+02  0.51100000000E-03 0.  1.
         11   -1    0    0    0    0 -0.00000000000E+00 -0.00000000000E+00 -0.45593999997E+02  0.45594000000E+02  0.51100000000E-03 0. -1.
    9900012    2    1    2    0    0  0.10680546183E+01  0.28844526437E+00 -0.41102123795E+00  0.90007796714E+02  0.90000058831E+02 0.  0.
        -12    1    1    2    0    0 -0.10680546183E+01 -0.28844526437E+00  0.41102123795E+00  0.11802032859E+01  0.00000000000E+00 0.  1.
         11    1    3    3    0    0  0.62284333082E+01 -0.21092518293E+02 -0.37967842439E+02  0.43877611252E+02  0.51100000000E-03 0. -1.
        -11    1    3    3    0    0  0.44785715796E+01  0.22092346415E+01  0.10241611054E+02  0.11394249354E+02  0.51100000000E-03 0.  1.
        -12    1    3    3    0    0 -0.96389502696E+01  0.19171728916E+02  0.27315210147E+02  0.34735936108E+02  0.00000000000E+00 0.  1.
</event>
<event>
 7    1  0.2405891E-015  0.9000768E+02  0.7816164E-02  0.1186339E+00
        -11   -1    0    0    0    0  0.00000000000E+00  0.00000000000E+00  0.45593999997E+02  0.45594000000E+02  0.51100000000E-03 0. -1.
         11   -1    0    0    0    0 -0.00000000000E+00 -0.00000000000E+00 -0.45593999997E+02  0.45594000000E+02  0.51100000000E-03 0.  1.
    9900012    2    1    2    0    0 -0.68440210221E+00  0.56776859208E+00  0.77612897911E+00  0.90007684956E+02  0.89999945597E+02 0.  0.
        -12    1    1    2    0    0  0.68440210221E+00 -0.56776859208E+00 -0.77612897911E+00  0.11803150443E+01  0.00000000000E+00 0.  1.
         11    1    3    3    0    0  0.18896362602E+01 -0.35534955147E+02  0.24649246142E+01  0.35670430557E+02  0.51100000000E-03 0. -1.
        -11    1    3    3    0    0  0.55870565577E+01 -0.73195103625E+01 -0.41201132332E+01  0.10087901974E+02  0.51100000000E-03 0.  1.
        -12    1    3    3    0    0 -0.81610949202E+01  0.43422234102E+02  0.24313175981E+01  0.44249352424E+02  0.00000000000E+00 0.  1.
</event>
<event>
 7    1  0.2405891E-015  0.9000774E+02  0.7816164E-02  0.1186339E+00
        -11   -1    0    0    0    0  0.00000000000E+00  0.00000000000E+00  0.45593999997E+02  0.45594000000E+02  0.51100000000E-03 0. -1.
         11   -1    0    0    0    0 -0.00000000000E+00 -0.00000000000E+00 -0.45593999997E+02  0.45594000000E+02  0.51100000000E-03 0.  1.
    9900012    2    1    2    0    0 -0.10614368739E+01  0.25929932551E+00  0.44624568209E+00  0.90007737493E+02  0.89999998828E+02 0.  0.
        -12    1    1    2    0    0  0.10614368739E+01 -0.25929932551E+00 -0.44624568209E+00  0.11802625074E+01  0.00000000000E+00 0.  1.
         11    1    3    3    0    0  0.37177088742E+02 -0.52160960272E+01  0.78987174444E+01  0.38363176650E+02  0.51100000000E-03 0. -1.
        -11    1    3    3    0    0 -0.29740447851E-02  0.42094706764E+01  0.90495696367E+01  0.99806995291E+01  0.51100000000E-03 0.  1.
        -12    1    3    3    0    0 -0.38235551571E+02  0.12659246764E+01 -0.16502041399E+02  0.41663861314E+02  0.00000000000E+00 0.  1.
</event>
<event>
 7    1  0.2405891E-015  0.9000770E+02  0.7816164E-02  0.1186339E+00
        -11   -1    0    0    0    0  0.00000000000E+00  0.00000000000E+00  0.45593999997E+02  0.45594000000E+02  0.51100000000E-03 0. -1.
         11   -1    0    0    0    0 -0.00000000000E+00 -0.00000000000E+00 -0.45593999997E+02  0.45594000000E+02  0.51100000000E-03 0.  1.
    9900012    2    1    2    0    0  0.23391260243E+00 -0.11369293320E+01  0.21397271178E+00  0.90007700151E+02  0.89999960993E+02 0.  0.
        -12    1    1    2    0    0 -0.23391260243E+00  0.11369293320E+01 -0.21397271178E+00  0.11802998487E+01  0.00000000000E+00 0.  1.
         11    1    3    3    0    0 -0.10944932525E+01 -0.30121566341E+01  0.79295390282E+01  0.85526950448E+01  0.51100000000E-03 0. -1.
        -11    1    3    3    0    0  0.16490008970E+02 -0.18651559750E+02 -0.35737649123E+02  0.43554341253E+02  0.51100000000E-03 0.  1.
         12    1    3    3    0    0 -0.15161603115E+02  0.20526787052E+02  0.28022082806E+02  0.37900663853E+02  0.00000000000E+00 0. -1.
</event>
<event>
 7    1  0.2405891E-015  0.9000772E+02  0.7816164E-02  0.1186339E+00
        -11   -1    0    0    0    0  0.00000000000E+00  0.00000000000E+00  0.45593999997E+02  0.45594000000E+02  0.51100000000E-03 0.  1.
         11   -1    0    0    0    0 -0.00000000000E+00 -0.00000000000E+00 -0.45593999997E+02  0.45594000000E+02  0.51100000000E-03 0. -1.
    9900012    2    1    2    0    0  0.39961420887E+00 -0.90708073787E+00 -0.64076251246E+00  0.90007718856E+02  0.89999979945E+02 0.  0.
        -12    1    1    2    0    0 -0.39961420887E+00  0.90708073787E+00  0.64076251246E+00  0.11802811438E+01  0.00000000000E+00 0.  1.
         11    1    3    3    0    0  0.28337577366E+02  0.13226606160E+01 -0.22266294969E+02  0.36063216911E+02  0.51100000000E-03 0. -1.
        -11    1    3    3    0    0  0.17262587372E+01  0.23725411982E+01 -0.99517912203E+01  0.10375310584E+02  0.51100000000E-03 0.  1.
        -12    1    3    3    0    0 -0.29664221894E+02 -0.46022825521E+01  0.31577323677E+02  0.43569191361E+02  0.00000000000E+00 0.  1.
</event>
<event>
 7    1  0.2405891E-015  0.9000782E+02  0.7816164E-02  0.1186339E+00
        -11   -1    0    0    0    0  0.00000000000E+00  0.00000000000E+00  0.45593999997E+02  0.45594000000E+02  0.51100000000E-03 0.  1.
         11   -1    0    0    0    0 -0.00000000000E+00 -0.00000000000E+00 -0.45593999997E+02  0.45594000000E+02  0.51100000000E-03 0. -1.
    9900012    2    1    2    0    0  0.24126607104E+00  0.11516506635E+01  0.91233538880E-01  0.90007816910E+02  0.90000079293E+02 0.  0.
        -12    1    1    2    0    0 -0.24126607104E+00 -0.11516506635E+01 -0.91233538880E-01  0.11801830902E+01  0.00000000000E+00 0.  1.
         11    1    3    3    0    0  0.27305513548E+01 -0.20005561342E+02 -0.33497759244E+02  0.39112380008E+02  0.51100000000E-03 0. -1.
        -11    1    3    3    0    0  0.95281890550E+01 -0.14814676075E+01  0.13924209311E+01  0.97426879890E+01  0.51100000000E-03 0.  1.
        -12    1    3    3    0    0 -0.12017474339E+02  0.22638679613E+02  0.32196571851E+02  0.41152748913E+02  0.00000000000E+00 0.  1.
</event>
<event>
 7    1  0.2405891E-015  0.9000779E+02  0.7816164E-02  0.1186339E+00
        -11   -1    0    0    0    0  0.00000000000E+00  0.00000000000E+00  0.45593999997E+02  0.45594000000E+02  0.51100000000E-03 0.  1.
         11   -1    0    0    0    0 -0.00000000000E+00 -0.00000000000E+00 -0.45593999997E+02  0.45594000000E+02  0.51100000000E-03 0. -1.
    9900012    2    1    2    0    0  0.33792838136E+00 -0.15129032923E-01 -0.11306969923E+01  0.90007788084E+02  0.90000050087E+02 0.  0.
        -12    1    1    2    0    0 -0.33792838136E+00  0.15129032923E-01  0.11306969923E+01  0.11802119161E+01  0.00000000000E+00 0.  1.
         11    1    3    3    0    0  0.17172872725E+02  0.30272095396E+02  0.13299832425E+02  0.37258460249E+02  0.51100000000E-03 0. -1.
        -11    1    3    3    0    0  0.45246446132E+00  0.82464424113E+01 -0.48670585454E+00  0.82731746858E+01  0.51100000000E-03 0.  1.
        -12    1    3    3    0    0 -0.17287408805E+02 -0.38533666841E+02 -0.13943823563E+02  0.44476153149E+02  0.00000000000E+00 0.  1.
</event>
<event>
 7    1  0.2405891E-015  0.9000776E+02  0.7816164E-02  0.1186339E+00
        -11   -1    0    0    0    0  0.00000000000E+00  0.00000000000E+00  0.45593999997E+02  0.45594000000E+02  0.51100000000E-03 0. -1.
         11   -1    0    0    0    0 -0.00000000000E+00 -0.00000000000E+00 -0.45593999997E+02  0.45594000000E+02  0.51100000000E-03 0.  1.
    9900012    2    1    2    0    0 -0.94367566832E+00  0.18463691957E+00  0.68435619039E+00  0.90007763602E+02  0.90000025282E+02 0.  0.
        -12    1    1    2    0    0  0.94367566832E+00 -0.18463691957E+00 -0.68435619039E+00  0.11802363977E+01  0.00000000000E+00 0.  1.
         11    1    3    3    0    0 -0.14235602946E+02 -0.86858281292E+01  0.32837656337E+02  0.36829440336E+02  0.51100000000E-03 0. -1.
        -11    1    3    3    0    0 -0.11522348340E+02 -0.21307536923E+01 -0.85425808567E+00  0.11748803330E+02  0.51100000000E-03 0.  1.
        -12    1    3    3    0    0  0.24814275618E+02  0.11001218741E+02 -0.31299042060E+02  0.41429519936E+02  0.00000000000E+00 0.  1.
</event>
<event>
 7    1  0.2405891E-015  0.9000782E+02  0.7816164E-02  0.1186339E+00
        -11   -1    0    0    0    0  0.00000000000E+00  0.00000000000E+00  0.45593999997E+02  0.45594000000E+02  0.51100000000E-03 0. -1.
         11   -1    0    0    0    0 -0.00000000000E+00 -0.00000000000E+00 -0.45593999997E+02  0.45594000000E+02  0.51100000000E-03 0.  1.
    9900012    2    1    2    0    0 -0.10303315516E+01  0.25380497252E+00  0.51655805645E+00  0.90007816838E+02  0.90000079220E+02 0.  0.
        -12    1    1    2    0    0  0.10303315516E+01 -0.25380497252E+00 -0.51655805645E+00  0.11801831621E+01  0.00000000000E+00 0.  1.
         11    1    3    3    0    0  0.58386123547E+01  0.75828068538E+01  0.40619675008E+01  0.10396534723E+02  0.51100000000E-03 0. -1.
        -11    1    3    3    0    0  0.17356418225E+02 -0.27042070094E+02 -0.25843353663E+02  0.41235879249E+02  0.51100000000E-03 0.  1.
         12    1    3    3    0    0 -0.24225362132E+02  0.19713068213E+02  0.22297944219E+02  0.38375402866E+02  0.00000000000E+00 0. -1.
</event>
<event>
 7    1  0.2405891E-015  0.9000778E+02  0.7816164E-02  0.1186339E+00
        -11   -1    0    0    0    0  0.00000000000E+00  0.00000000000E+00  0.45593999997E+02  0.45594000000E+02  0.51100000000E-03 0.  1.
         11   -1    0    0    0    0 -0.00000000000E+00 -0.00000000000E+00 -0.45593999997E+02  0.45594000000E+02  0.51100000000E-03 0. -1.
    9900012    2    1    2    0    0 -0.87589376654E+00  0.20907791728E-01 -0.79075074099E+00  0.90007782325E+02  0.90000044252E+02 0.  0.
        -12    1    1    2    0    0  0.87589376654E+00 -0.20907791728E-01  0.79075074099E+00  0.11802176750E+01  0.00000000000E+00 0.  1.
         11    1    3    3    0    0  0.70653441439E+01 -0.48389618215E+01  0.36580320000E+01  0.93121338991E+01  0.51100000000E-03 0. -1.
        -11    1    3    3    0    0  0.90970529326E+01 -0.18649241126E+02  0.29473377669E+02  0.36044840936E+02  0.51100000000E-03 0.  1.
         12    1    3    3    0    0 -0.17038290843E+02  0.23509110739E+02 -0.33922160410E+02  0.44650807490E+02  0.00000000000E+00 0. -1.
</event>
<event>
 7    1  0.2405891E-015  0.9000759E+02  0.7816164E-02  0.1186339E+00
        -11   -1    0    0    0    0  0.00000000000E+00  0.00000000000E+00  0.45593999997E+02  0.45594000000E+02  0.51100000000E-03 0. -1.
         11   -1    0    0    0    0 -0.00000000000E+00 -0.00000000000E+00 -0.45593999997E+02  0.45594000000E+02  0.51100000000E-03 0.  1.
    9900012    2    1    2    0    0 -0.76421382363E+00 -0.89963917586E+00  0.21725105768E-02  0.90007585609E+02  0.89999844939E+02 0.  0.
        -12    1    1    2    0    0  0.76421382363E+00  0.89963917586E+00 -0.21725105768E-02  0.11804143911E+01  0.00000000000E+00 0.  1.
         11    1    3    3    0    0  0.49599346580E+01 -0.27346336597E+01  0.72206806173E+01  0.91770039720E+01  0.51100000000E-03 0. -1.
        -11    1    3    3    0    0 -0.24615071080E+02  0.13154661093E+01  0.30156607840E+02  0.38949366774E+02  0.51100000000E-03 0.  1.
         12    1    3    3    0    0  0.18890922599E+02  0.51952837462E+00 -0.37375115947E+02  0.41881214863E+02  0.00000000000E+00 0. -1.
</event>
<event>
 7    1  0.2405891E-015  0.9000772E+02  0.7816164E-02  0.1186339E+00
        -11   -1    0    0    0    0  0.00000000000E+00  0.00000000000E+00  0.45593999997E+02  0.45594000000E+02  0.51100000000E-03 0.  1.
         11   -1    0    0    0    0 -0.00000000000E+00 -0.00000000000E+00 -0.45593999997E+02  0.45594000000E+02  0.51100000000E-03 0. -1.
    9900012    2    1    2    0    0  0.20079571282E+00 -0.17667384540E+00 -0.11495772104E+01  0.90007720233E+02  0.89999981340E+02 0.  0.
        -12    1    1    2    0    0 -0.20079571282E+00  0.17667384540E+00  0.11495772104E+01  0.11802797671E+01  0.00000000000E+00 0.  1.
         11    1    3    3    0    0  0.52056622962E+01 -0.49178330616E+01  0.66945312070E+01  0.98030990154E+01  0.51100000000E-03 0. -1.
        -11    1    3    3    0    0 -0.44787411336E+01  0.21586588803E+02  0.30897135700E+02  0.37956197558E+02  0.51100000000E-03 0.  1.
         12    1    3    3    0    0 -0.52612544976E+00 -0.16845429587E+02 -0.38741244118E+02  0.42248423660E+02  0.00000000000E+00 0. -1.
</event>
<event>
 7    1  0.2405891E-015  0.9000773E+02  0.7816164E-02  0.1186339E+00
        -11   -1    0    0    0    0  0.00000000000E+00  0.00000000000E+00  0.45593999997E+02  0.45594000000E+02  0.51100000000E-03 0. -1.
         11   -1    0    0    0    0 -0.00000000000E+00 -0.00000000000E+00 -0.45593999997E+02  0.45594000000E+02  0.51100000000E-03 0.  1.
    9900012    2    1    2    0    0  0.29217359874E+00 -0.88284324911E+00  0.72680986689E+00  0.90007732998E+02  0.89999994273E+02 0.  0.
        -12    1    1    2    0    0 -0.29217359874E+00  0.88284324911E+00 -0.72680986689E+00  0.11802670024E+01  0.00000000000E+00 0.  1.
         11    1    3    3    0    0 -0.30388091777E+02  0.17244316301E+02  0.13317284152E+02  0.37391879118E+02  0.51100000000E-03 0. -1.
        -11    1    3    3    0    0 -0.45246256283E+01  0.50409782223E+01 -0.75944307871E+01  0.10176398074E+02  0.51100000000E-03 0.  1.
        -12    1    3    3    0    0  0.35204891004E+02 -0.23168137772E+02 -0.49960434976E+01  0.42439455806E+02  0.00000000000E+00 0.  1.
</event>
<event>
 7    1  0.2405891E-015  0.9000783E+02  0.7816164E-02  0.1186339E+00
        -11   -1    0    0    0    0  0.00000000000E+00  0.00000000000E+00  0.45593999997E+02  0.45594000000E+02  0.51100000000E-03 0.  1.
         11   -1    0    0    0    0 -0.00000000000E+00 -0.00000000000E+00 -0.45593999997E+02  0.45594000000E+02  0.51100000000E-03 0. -1.
    9900012    2    1    2    0    0  0.10986224749E+01 -0.42323463904E+00  0.81932969589E-01  0.90007825473E+02  0.90000087970E+02 0.  0.
        -12    1    1    2    0    0 -0.10986224749E+01  0.42323463904E+00 -0.81932969589E-01  0.11801745267E+01  0.00000000000E+00 0.  1.
         11    1    3    3    0    0 -0.93240971995E+01  0.11504212847E+01  0.20861599933E-01  0.93948226799E+01  0.51100000000E-03 0. -1.
        -11    1    3    3    0    0 -0.12250409528E+02  0.16303608274E+02  0.31754821004E+02  0.37739221423E+02  0.51100000000E-03 0.  1.
         12    1    3    3    0    0  0.22673129203E+02 -0.17877264198E+02 -0.31693749635E+02  0.42873781370E+02  0.00000000000E+00 0. -1.
</event>
<event>
 7    1  0.2405891E-015  0.9000775E+02  0.7816164E-02  0.1186339E+00
        -11   -1    0    0    0    0  0.00000000000E+00  0.00000000000E+00  0.45593999997E+02  0.45594000000E+02  0.51100000000E-03 0.  1.
         11   -1    0    0    0    0 -0.00000000000E+00 -0.00000000000E+00 -0.45593999997E+02  0.45594000000E+02  0.51100000000E-03 0. -1.
    9900012    2    1    2    0    0 -0.32939320562E+00  0.92631750893E+00 -0.65302151325E+00  0.90007745321E+02  0.90000006759E+02 0.  0.
        -12    1    1    2    0    0  0.32939320562E+00 -0.92631750893E+00  0.65302151325E+00  0.11802546793E+01  0.00000000000E+00 0.  1.
         11    1    3    3    0    0 -0.38996764108E-02  0.47318592279E+01  0.63476429383E+01  0.79172645588E+01  0.51100000000E-03 0. -1.
        -11    1    3    3    0    0 -0.22843584674E+02  0.12147252460E+02  0.27601388421E+02  0.37831491461E+02  0.51100000000E-03 0.  1.
         12    1    3    3    0    0  0.22518091145E+02 -0.15952794179E+02 -0.34602052873E+02  0.44258989301E+02  0.00000000000E+00 0. -1.
</event>
<event>
 7    1  0.2405891E-015  0.9000755E+02  0.7816164E-02  0.1186339E+00
        -11   -1    0    0    0    0  0.00000000000E+00  0.00000000000E+00  0.45593999997E+02  0.45594000000E+02  0.51100000000E-03 0. -1.
         11   -1    0    0    0    0 -0.00000000000E+00 -0.00000000000E+00 -0.45593999997E+02  0.45594000000E+02  0.51100000000E-03 0.  1.
    9900012    2    1    2    0    0  0.18634741266E+00 -0.11585096484E+01 -0.12877419259E+00  0.90007554001E+02  0.89999812914E+02 0.  0.
        -12    1    1    2    0    0 -0.18634741266E+00  0.11585096484E+01  0.12877419259E+00  0.11804459989E+01  0.00000000000E+00 0.  1.
         11    1    3    3    0    0  0.86925096340E+01 -0.22670643885E+01 -0.10705359537E+01  0.90468421103E+01  0.51100000000E-03 0. -1.
        -11    1    3    3    0    0 -0.25849883592E+02  0.12321294344E+02 -0.31457095081E+02  0.42539153814E+02  0.51100000000E-03 0.  1.
         12    1    3    3    0    0  0.17343721370E+02 -0.11212739604E+02  0.32398856842E+02  0.38421558077E+02  0.00000000000E+00 0. -1.
</event>
<event>
 7    1  0.2405891E-015  0.9000785E+02  0.7816164E-02  0.1186339E+00
        -11   -1    0    0    0    0  0.00000000000E+00  0.00000000000E+00  0.45593999997E+02  0.45594000000E+02  0.51100000000E-03 0.  1.
         11   -1    0    0    0    0 -0.00000000000E+00 -0.00000000000E+00 -0.45593999997E+02  0.45594000000E+02  0.51100000000E-03 0. -1.
    9900012    2    1    2    0    0 -0.29570170609E+00 -0.65624848631E+00 -0.93522691711E+00  0.90007851297E+02  0.90000114134E+02 0.  0.
        -12    1    1    2    0    0  0.29570170609E+00  0.65624848631E+00  0.93522691711E+00  0.11801487030E+01  0.00000000000E+00 0.  1.
         11    1    3    3    0    0  0.19070450970E+02 -0.15762221898E+02  0.30318899289E+02  0.39132664025E+02  0.51100000000E-03 0. -1.
        -11    1    3    3    0    0  0.27999317379E+01  0.72301967403E+01  0.38197144065E+01  0.86432390368E+01  0.51100000000E-03 0.  1.
        -12    1    3    3    0    0 -0.22166084414E+02  0.78757766719E+01 -0.35073840612E+02  0.42231948235E+02  0.00000000000E+00 0.  1.
</event>
<event>
 7    1  0.2405891E-015  0.9000800E+02  0.7816164E-02  0.1186339E+00
        -11   -1    0    0    0    0  0.00000000000E+00  0.00000000000E+00  0.45593999997E+02  0.45594000000E+02  0.51100000000E-03 0.  1.
         11   -1    0    0    0    0 -0.00000000000E+00 -0.00000000000E+00 -0.45593999997E+02  0.45594000000E+02  0.51100000000E-03 0. -1.
    9900012    2    1    2    0    0  0.10546085470E+01 -0.36633409611E+00 -0.38210597135E+00  0.90007997953E+02  0.90000262726E+02 0.  0.
        -12    1    1    2    0    0 -0.10546085470E+01  0.36633409611E+00  0.38210597135E+00  0.11800020469E+01  0.00000000000E+00 0.  1.
         11    1    3    3    0    0 -0.53578500500E+01 -0.40957639411E+01  0.72904620238E+01  0.99313985017E+01  0.51100000000E-03 0. -1.
        -11    1    3    3    0    0 -0.52459000343E+01  0.40588932606E+01  0.35110902843E+02  0.35731912632E+02  0.51100000000E-03 0.  1.
         12    1    3    3    0    0  0.11658358631E+02 -0.32946341560E+00 -0.42783470838E+02  0.44344686819E+02  0.00000000000E+00 0. -1.
</event>
<event>
 7    1  0.2405891E-015  0.9000776E+02  0.7816164E-02  0.1186339E+00
        -11   -1    0    0    0    0  0.00000000000E+00  0.00000000000E+00  0.45593999997E+02  0.45594000000E+02  0.51100000000E-03 0.  1.
         11   -1    0    0    0    0 -0.00000000000E+00 -0.00000000000E+00 -0.45593999997E+02  0.45594000000E+02  0.51100000000E-03 0. -1.
    9900012    2    1    2    0    0 -0.96116626207E+00  0.68286276184E+00 -0.53091470104E-01  0.90007762380E+02  0.90000024044E+02 0.  0.
        -12    1    1    2    0    0  0.96116626207E+00 -0.68286276184E+00  0.53091470104E-01  0.11802376197E+01  0.00000000000E+00 0.  1.
         11    1    3    3    0    0  0.10845862440E+01  0.85453323790E+01 -0.22291926031E+01  0.88976588331E+01  0.51100000000E-03 0. -1.
        -11    1    3    3    0    0 -0.53804192402E+01  0.32307678726E+02  0.18506384190E+02  0.37619426789E+02  0.51100000000E-03 0.  1.
         12    1    3    3    0    0  0.33346667341E+01 -0.40170148343E+02 -0.16330283057E+02  0.43490676758E+02  0.00000000000E+00 0. -1.
</event>
<event>
 7    1  0.2405891E-015  0.9000792E+02  0.7816164E-02  0.1186339E+00
        -11   -1    0    0    0    0  0.00000000000E+00  0.00000000000E+00  0.45593999997E+02  0.45594000000E+02  0.51100000000E-03 0.  1.
         11   -1    0    0    0    0 -0.00000000000E+00 -0.00000000000E+00 -0.45593999997E+02  0.45594000000E+02  0.51100000000E-03 0. -1.
    9900012    2    1    2    0    0  0.11207372027E+01 -0.32130405757E+00 -0.18249744872E+00  0.90007918014E+02  0.90000181732E+02 0.  0.
        -12    1    1    2    0    0 -0.11207372027E+01  0.32130405757E+00  0.18249744872E+00  0.11800819860E+01  0.00000000000E+00 0.  1.
         11    1    3    3    0    0 -0.21420288211E+01 -0.10019556551E+02  0.14676313605E+02  0.17898993889E+02  0.51100000000E-03 0. -1.
        -11    1    3    3    0    0 -0.17524868122E+02  0.25458770170E+00  0.22380982069E+02  0.28426997313E+02  0.51100000000E-03 0.  1.
        -12    1    3    3    0    0  0.20787634146E+02  0.94436647913E+01 -0.37239793123E+02  0.43681926811E+02  0.00000000000E+00 0.  1.
</event>
<event>
 7    1  0.2405891E-015  0.9000777E+02  0.7816164E-02  0.1186339E+00
        -11   -1    0    0    0    0  0.00000000000E+00  0.00000000000E+00  0.45593999997E+02  0.45594000000E+02  0.51100000000E-03 0.  1.
         11   -1    0    0    0    0 -0.00000000000E+00 -0.00000000000E+00 -0.45593999997E+02  0.45594000000E+02  0.51100000000E-03 0. -1.
    9900012    2    1    2    0    0  0.29338113791E+00 -0.32701776215E+00 -0.10954092817E+01  0.90007773495E+02  0.90000035305E+02 0.  0.
        -12    1    1    2    0    0 -0.29338113791E+00  0.32701776215E+00  0.10954092817E+01  0.11802265051E+01  0.00000000000E+00 0.  1.
         11    1    3    3    0    0 -0.74180859534E+01  0.36832404753E+02 -0.11463354575E+02  0.39281834701E+02  0.51100000000E-03 0. -1.
        -11    1    3    3    0    0  0.91816008723E+01 -0.10769395020E+01 -0.60586772248E+01  0.11053016025E+02  0.51100000000E-03 0.  1.
        -12    1    3    3    0    0 -0.14701337809E+01 -0.36082483013E+02  0.16426622518E+02  0.39672922769E+02  0.00000000000E+00 0.  1.
</event>
<event>
 7    1  0.2847929E-015  0.9000772E+02  0.7816164E-02  0.1186339E+00
        -11   -1    0    0    0    0  0.00000000000E+00  0.00000000000E+00  0.45593999997E+02  0.45594000000E+02  0.51100000000E-03 0. -1.
         11   -1    0    0    0    0 -0.00000000000E+00 -0.00000000000E+00 -0.45593999997E+02  0.45594000000E+02  0.51100000000E-03 0.  1.
    9900012    2    1    2    0    0  0.72471896333E+00 -0.76890352664E-01  0.92840215108E+00  0.90007720264E+02  0.89999981371E+02 0.  0.
        -12    1    1    2    0    0 -0.72471896333E+00  0.76890352664E-01 -0.92840215108E+00  0.11802797364E+01  0.00000000000E+00 0.  1.
         11    1    3    3    0    0  0.99997211740E+01 -0.27883794675E+01  0.15875826912E+01  0.10501899955E+02  0.51100000000E-03 0. -1.
        -11    1    3    3    0    0 -0.15683550115E+02  0.15722872995E+02 -0.35439343889E+02  0.41822596464E+02  0.51100000000E-03 0.  1.
         12    1    3    3    0    0  0.64085479047E+01 -0.13011383880E+02  0.34780163349E+02  0.37683223844E+02  0.00000000000E+00 0. -1.
</event>
<event>
 7    1  0.2405891E-015  0.9000774E+02  0.7816164E-02  0.1186339E+00
        -11   -1    0    0    0    0  0.00000000000E+00  0.00000000000E+00  0.45593999997E+02  0.45594000000E+02  0.51100000000E-03 0. -1.
         11   -1    0    0    0    0 -0.00000000000E+00 -0.00000000000E+00 -0.45593999997E+02  0.45594000000E+02  0.51100000000E-03 0.  1.
    9900012    2    1    2    0    0  0.47145232393E+00  0.27145241014E+00  0.10474040880E+01  0.90007741965E+02  0.90000003359E+02 0.  0.
        -12    1    1    2    0    0 -0.47145232393E+00 -0.27145241014E+00 -0.10474040880E+01  0.11802580347E+01  0.00000000000E+00 0.  1.
         11    1    3    3    0    0  0.82725916251E+01 -0.55311532030E+01 -0.36464699748E+01  0.10598404195E+02  0.51100000000E-03 0. -1.
        -11    1    3    3    0    0 -0.36171351005E+01 -0.35136366339E+02 -0.82438100652E+01  0.36271315258E+02  0.51100000000E-03 0.  1.
         12    1    3    3    0    0 -0.41840042007E+01  0.40938971952E+02  0.12937684128E+02  0.43138022512E+02  0.00000000000E+00 0. -1.
</event>
<event>
 7    1  0.2405891E-015  0.9000777E+02  0.7816164E-02  0.1186339E+00
        -11   -1    0    0    0    0  0.00000000000E+00  0.00000000000E+00  0.45593999997E+02  0.45594000000E+02  0.51100000000E-03 0.  1.
         11   -1    0    0    0    0 -0.00000000000E+00 -0.00000000000E+00 -0.45593999997E+02  0.45594000000E+02  0.51100000000E-03 0. -1.
    9900012    2    1    2    0    0 -0.91494485150E+00  0.34451166303E+00 -0.66115554334E+00  0.90007771624E+02  0.90000033409E+02 0.  0.
        -12    1    1    2    0    0  0.91494485150E+00 -0.34451166303E+00  0.66115554334E+00  0.11802283761E+01  0.00000000000E+00 0.  1.
         11    1    3    3    0    0  0.29720785254E+02  0.16568129737E+02 -0.17112261345E+02  0.38087497787E+02  0.51100000000E-03 0. -1.
        -11    1    3    3    0    0 -0.49196887652E+01 -0.15457134971E+02 -0.64694872104E+01  0.17463694457E+02  0.51100000000E-03 0.  1.
        -12    1    3    3    0    0 -0.25716041340E+02 -0.76648310326E+00  0.22920593012E+02  0.34456579380E+02  0.00000000000E+00 0.  1.
</event>
<event>
 7    1  0.2405891E-015  0.9000778E+02  0.7816164E-02  0.1186339E+00
        -11   -1    0    0    0    0  0.00000000000E+00  0.00000000000E+00  0.45593999997E+02  0.45594000000E+02  0.51100000000E-03 0.  1.
         11   -1    0    0    0    0 -0.00000000000E+00 -0.00000000000E+00 -0.45593999997E+02  0.45594000000E+02  0.51100000000E-03 0. -1.
    9900012    2    1    2    0    0  0.11346936392E+01  0.20618437836E+00  0.25076481063E+00  0.90007777715E+02  0.90000039580E+02 0.  0.
        -12    1    1    2    0    0 -0.11346936392E+01 -0.20618437836E+00 -0.25076481063E+00  0.11802222854E+01  0.00000000000E+00 0.  1.
         11    1    3    3    0    0  0.36669692327E+02  0.27732343276E+01 -0.30724133153E+00  0.36775692536E+02  0.51100000000E-03 0. -1.
        -11    1    3    3    0    0  0.26175423423E+01 -0.11913118430E+02 -0.56873884847E+01  0.13458094466E+02  0.51100000000E-03 0.  1.
        -12    1    3    3    0    0 -0.38152541030E+02  0.93460684804E+01  0.62453946269E+01  0.39773990712E+02  0.00000000000E+00 0.  1.
</event>
<event>
 7    1  0.2405891E-015  0.9000847E+02  0.7816164E-02  0.1186338E+00
        -11   -1    0    0    0    0  0.00000000000E+00  0.00000000000E+00  0.45593999997E+02  0.45594000000E+02  0.51100000000E-03 0.  1.
         11   -1    0    0    0    0 -0.00000000000E+00 -0.00000000000E+00 -0.45593999997E+02  0.45594000000E+02  0.51100000000E-03 0. -1.
    9900012    2    1    2    0    0 -0.98476849305E+00  0.55064363686E+00  0.34397527447E+00  0.90008467724E+02  0.90000738695E+02 0.  0.
        -12    1    1    2    0    0  0.98476849305E+00 -0.55064363686E+00 -0.34397527447E+00  0.11795322756E+01  0.00000000000E+00 0.  1.
         11    1    3    3    0    0  0.21973183083E+02  0.36086691968E+02  0.35937255662E+01  0.42402652932E+02  0.51100000000E-03 0. -1.
        -11    1    3    3    0    0 -0.78664985959E+00 -0.22066068785E+01 -0.70179622237E+01  0.73986300051E+01  0.51100000000E-03 0.  1.
        -12    1    3    3    0    0 -0.22171301716E+02 -0.33329441453E+02  0.37682119320E+01  0.40207184787E+02  0.00000000000E+00 0.  1.
</event>
<event>
 7    1  0.2405891E-015  0.9000771E+02  0.7816164E-02  0.1186339E+00
        -11   -1    0    0    0    0  0.00000000000E+00  0.00000000000E+00  0.45593999997E+02  0.45594000000E+02  0.51100000000E-03 0.  1.
         11   -1    0    0    0    0 -0.00000000000E+00 -0.00000000000E+00 -0.45593999997E+02  0.45594000000E+02  0.51100000000E-03 0. -1.
    9900012    2    1    2    0    0 -0.91961802435E+00 -0.96423147366E-01 -0.73354926706E+00  0.90007707976E+02  0.89999968922E+02 0.  0.
        -12    1    1    2    0    0  0.91961802435E+00  0.96423147366E-01  0.73354926706E+00  0.11802920237E+01  0.00000000000E+00 0.  1.
         11    1    3    3    0    0 -0.18785019350E+02  0.34515507837E+02 -0.65501564674E+01  0.39838446045E+02  0.51100000000E-03 0. -1.
        -11    1    3    3    0    0  0.32080848641E+01  0.58516359937E+01 -0.40397102168E+00  0.66855549617E+01  0.51100000000E-03 0.  1.
        -12    1    3    3    0    0  0.14657316462E+02 -0.40463566978E+02  0.62205782220E+01  0.43483706970E+02  0.00000000000E+00 0.  1.
</event>
<event>
 7    1  0.2405891E-015  0.9000765E+02  0.7816164E-02  0.1186339E+00
        -11   -1    0    0    0    0  0.00000000000E+00  0.00000000000E+00  0.45593999997E+02  0.45594000000E+02  0.51100000000E-03 0.  1.
         11   -1    0    0    0    0 -0.00000000000E+00 -0.00000000000E+00 -0.45593999997E+02  0.45594000000E+02  0.51100000000E-03 0. -1.
    9900012    2    1    2    0    0 -0.78683492091E+00 -0.31959228714E+00 -0.81974137775E+00  0.90007650751E+02  0.89999910941E+02 0.  0.
        -12    1    1    2    0    0  0.78683492091E+00  0.31959228714E+00  0.81974137775E+00  0.11803492488E+01  0.00000000000E+00 0.  1.
         11    1    3    3    0    0  0.60959933576E+01 -0.26029533530E+01  0.55647553023E+01  0.86546521022E+01  0.51100000000E-03 0. -1.
        -11    1    3    3    0    0  0.13517622220E+02  0.37663984213E+02 -0.27321370678E-03  0.40016269411E+02  0.51100000000E-03 0.  1.
         12    1    3    3    0    0 -0.20400450499E+02 -0.35380623147E+02 -0.63842234664E+01  0.41336729238E+02  0.00000000000E+00 0. -1.
</event>
<event>
 7    1  0.2405891E-015  0.9000770E+02  0.7816164E-02  0.1186339E+00
        -11   -1    0    0    0    0  0.00000000000E+00  0.00000000000E+00  0.45593999997E+02  0.45594000000E+02  0.51100000000E-03 0.  1.
         11   -1    0    0    0    0 -0.00000000000E+00 -0.00000000000E+00 -0.45593999997E+02  0.45594000000E+02  0.51100000000E-03 0. -1.
    9900012    2    1    2    0    0 -0.69503808658E+00 -0.48490084753E+00 -0.82152833720E+00  0.90007696826E+02  0.89999957624E+02 0.  0.
        -12    1    1    2    0    0  0.69503808658E+00  0.48490084753E+00  0.82152833720E+00  0.11803031740E+01  0.00000000000E+00 0.  1.
         11    1    3    3    0    0  0.24849470376E+01  0.15168346622E+01  0.67191145064E+01  0.73227214329E+01  0.51100000000E-03 0. -1.
        -11    1    3    3    0    0 -0.16913172982E+02 -0.36319996066E+02  0.10694503056E+02  0.41467697434E+02  0.51100000000E-03 0.  1.
         12    1    3    3    0    0  0.13733187858E+02  0.34318260557E+02 -0.18235145900E+02  0.41217277959E+02  0.00000000000E+00 0. -1.
</event>
<event>
 7    1  0.2405891E-015  0.9000772E+02  0.7816164E-02  0.1186339E+00
        -11   -1    0    0    0    0  0.00000000000E+00  0.00000000000E+00  0.45593999997E+02  0.45594000000E+02  0.51100000000E-03 0. -1.
         11   -1    0    0    0    0 -0.00000000000E+00 -0.00000000000E+00 -0.45593999997E+02  0.45594000000E+02  0.51100000000E-03 0.  1.
    9900012    2    1    2    0    0  0.84186520438E+00  0.78061432451E+00  0.27379178566E+00  0.90007721352E+02  0.89999982473E+02 0.  0.
        -12    1    1    2    0    0 -0.84186520438E+00 -0.78061432451E+00 -0.27379178566E+00  0.11802786484E+01  0.00000000000E+00 0.  1.
         11    1    3    3    0    0  0.22332243074E+02  0.33419821723E+02  0.83230020122E+01  0.41047362004E+02  0.51100000000E-03 0. -1.
        -11    1    3    3    0    0 -0.26024228061E+01  0.21801658897E+01 -0.87038608400E+01  0.93425329302E+01  0.51100000000E-03 0.  1.
        -12    1    3    3    0    0 -0.18887955064E+02 -0.34819373288E+02  0.65465061345E+00  0.39617826418E+02  0.00000000000E+00 0.  1.
</event>
<event>
 7    1  0.2405891E-015  0.9000774E+02  0.7816164E-02  0.1186339E+00
        -11   -1    0    0    0    0  0.00000000000E+00  0.00000000000E+00  0.45593999997E+02  0.45594000000E+02  0.51100000000E-03 0.  1.
         11   -1    0    0    0    0 -0.00000000000E+00 -0.00000000000E+00 -0.45593999997E+02  0.45594000000E+02  0.51100000000E-03 0. -1.
    9900012    2    1    2    0    0  0.78990937902E+00 -0.53249676760E+00 -0.69677776253E+00  0.90007742026E+02  0.90000003421E+02 0.  0.
        -12    1    1    2    0    0 -0.78990937902E+00  0.53249676760E+00  0.69677776253E+00  0.11802579739E+01  0.00000000000E+00 0.  1.
         11    1    3    3    0    0 -0.14571023516E+02 -0.33607059450E+02  0.10922718505E+02  0.38223748521E+02  0.51100000000E-03 0. -1.
        -11    1    3    3    0    0  0.16938435728E+02  0.12408021820E+01  0.20431334035E+01  0.17106273391E+02  0.51100000000E-03 0.  1.
        -12    1    3    3    0    0 -0.15775028333E+01  0.31833760500E+02 -0.13662629671E+02  0.34677720114E+02  0.00000000000E+00 0.  1.
</event>
<event>
 7    1  0.2405891E-015  0.9000770E+02  0.7816164E-02  0.1186339E+00
        -11   -1    0    0    0    0  0.00000000000E+00  0.00000000000E+00  0.45593999997E+02  0.45594000000E+02  0.51100000000E-03 0. -1.
         11   -1    0    0    0    0 -0.00000000000E+00 -0.00000000000E+00 -0.45593999997E+02  0.45594000000E+02  0.51100000000E-03 0.  1.
    9900012    2    1    2    0    0  0.80408767588E+00  0.38399830293E+00  0.77400988746E+00  0.90007702159E+02  0.89999963028E+02 0.  0.
        -12    1    1    2    0    0 -0.80408767588E+00 -0.38399830293E+00 -0.77400988746E+00  0.11802978408E+01  0.00000000000E+00 0.  1.
         11    1    3    3    0    0 -0.42048435172E+01 -0.99160804863E+01  0.21439076004E+01  0.10982062706E+02  0.51100000000E-03 0. -1.
        -11    1    3    3    0    0 -0.34212661899E+02  0.72258463517E+01 -0.14059260856E+02  0.37687954386E+02  0.51100000000E-03 0.  1.
         12    1    3    3    0    0  0.39221593092E+02  0.30742324376E+01  0.12689363143E+02  0.41337685067E+02  0.00000000000E+00 0. -1.
</event>
<event>
 7    1  0.2405891E-015  0.9000768E+02  0.7816164E-02  0.1186339E+00
        -11   -1    0    0    0    0  0.00000000000E+00  0.00000000000E+00  0.45593999997E+02  0.45594000000E+02  0.51100000000E-03 0.  1.
         11   -1    0    0    0    0 -0.00000000000E+00 -0.00000000000E+00 -0.45593999997E+02  0.45594000000E+02  0.51100000000E-03 0. -1.
    9900012    2    1    2    0    0 -0.69459106041E+00 -0.92482426622E+00  0.23538360925E+00  0.90007677117E+02  0.89999937655E+02 0.  0.
        -12    1    1    2    0    0  0.69459106041E+00  0.92482426622E+00 -0.23538360925E+00  0.11803228830E+01  0.00000000000E+00 0.  1.
         11    1    3    3    0    0 -0.79079914186E+01 -0.15765705373E+01 -0.62653896204E+01  0.10211611542E+02  0.51100000000E-03 0. -1.
        -11    1    3    3    0    0 -0.15169845912E+02 -0.30549482509E+02 -0.13278114753E+02  0.36601959486E+02  0.51100000000E-03 0.  1.
         12    1    3    3    0    0  0.22383246270E+02  0.31201228780E+02  0.19778887983E+02  0.43194106089E+02  0.00000000000E+00 0. -1.
</event>
<event>
 7    1  0.2405891E-015  0.9000781E+02  0.7816164E-02  0.1186339E+00
        -11   -1    0    0    0    0  0.00000000000E+00  0.00000000000E+00  0.45593999997E+02  0.45594000000E+02  0.51100000000E-03 0.  1.
         11   -1    0    0    0    0 -0.00000000000E+00 -0.00000000000E+00 -0.45593999997E+02  0.45594000000E+02  0.51100000000E-03 0. -1.
    9900012    2    1    2    0    0 -0.67142118002E+00 -0.18127176928E+00 -0.95351549528E+00  0.90007806094E+02  0.90000068335E+02 0.  0.
        -12    1    1    2    0    0  0.67142118002E+00  0.18127176928E+00  0.95351549528E+00  0.11801939057E+01  0.00000000000E+00 0.  1.
         11    1    3    3    0    0  0.14598392813E+02  0.26750106889E+02 -0.26660626626E+02  0.40490372975E+02  0.51100000000E-03 0. -1.
        -11    1    3    3    0    0  0.69497011046E+01 -0.35885312632E+01 -0.70022839651E+00  0.78527843558E+01  0.51100000000E-03 0.  1.
        -12    1    3    3    0    0 -0.22219515097E+02 -0.23342847395E+02  0.26407339527E+02  0.41664648764E+02  0.00000000000E+00 0.  1.
</event>
<event>
 7    1  0.2405891E-015  0.9000780E+02  0.7816164E-02  0.1186339E+00
        -11   -1    0    0    0    0  0.00000000000E+00  0.00000000000E+00  0.45593999997E+02  0.45594000000E+02  0.51100000000E-03 0.  1.
         11   -1    0    0    0    0 -0.00000000000E+00 -0.00000000000E+00 -0.45593999997E+02  0.45594000000E+02  0.51100000000E-03 0. -1.
    9900012    2    1    2    0    0  0.82652665487E+00  0.69454624379E+00 -0.47678451316E+00  0.90007803293E+02  0.90000065496E+02 0.  0.
        -12    1    1    2    0    0 -0.82652665487E+00 -0.69454624379E+00  0.47678451316E+00  0.11801967073E+01  0.00000000000E+00 0.  1.
         11    1    3    3    0    0 -0.81436835231E+01  0.14877517644E+01  0.99189468492E+01  0.12919694017E+02  0.51100000000E-03 0. -1.
        -11    1    3    3    0    0  0.13928680998E+02 -0.22133948377E+02  0.24532219025E+02  0.35857350650E+02  0.51100000000E-03 0.  1.
         12    1    3    3    0    0 -0.49584708200E+01  0.21340742857E+02 -0.34927950388E+02  0.41230758625E+02  0.00000000000E+00 0. -1.
</event>
<event>
 7    1  0.2405891E-015  0.9000757E+02  0.7816164E-02  0.1186339E+00
        -11   -1    0    0    0    0  0.00000000000E+00  0.00000000000E+00  0.45593999997E+02  0.45594000000E+02  0.51100000000E-03 0.  1.
         11   -1    0    0    0    0 -0.00000000000E+00 -0.00000000000E+00 -0.45593999997E+02  0.45594000000E+02  0.51100000000E-03 0. -1.
    9900012    2    1    2    0    0 -0.54093254944E+00 -0.60587724307E+00 -0.85657718261E+00  0.90007567992E+02  0.89999827089E+02 0.  0.
        -12    1    1    2    0    0  0.54093254944E+00  0.60587724307E+00  0.85657718261E+00  0.11804320084E+01  0.00000000000E+00 0.  1.
         11    1    3    3    0    0  0.32538470255E+02  0.26287655017E+02 -0.71117629114E+01  0.42430767431E+02  0.51100000000E-03 0. -1.
        -11    1    3    3    0    0 -0.66581138246E+00 -0.92832995742E+01 -0.25536655017E+01  0.96511223978E+01  0.51100000000E-03 0.  1.
        -12    1    3    3    0    0 -0.32413591422E+02 -0.17610232686E+02  0.88088512305E+01  0.37925678163E+02  0.00000000000E+00 0.  1.
</event>
<event>
 7    1  0.2405891E-015  0.9000778E+02  0.7816164E-02  0.1186339E+00
        -11   -1    0    0    0    0  0.00000000000E+00  0.00000000000E+00  0.45593999997E+02  0.45594000000E+02  0.51100000000E-03 0.  1.
         11   -1    0    0    0    0 -0.00000000000E+00 -0.00000000000E+00 -0.45593999997E+02  0.45594000000E+02  0.51100000000E-03 0. -1.
    9900012    2    1    2    0    0 -0.98501062596E+00  0.21932621193E+00 -0.61202906467E+00  0.90007775658E+02  0.90000037497E+02 0.  0.
        -12    1    1    2    0    0  0.98501062596E+00 -0.21932621193E+00  0.61202906467E+00  0.11802243416E+01  0.00000000000E+00 0.  1.
         11    1    3    3    0    0  0.80805141794E+01  0.31203451804E+01 -0.16442733801E+01  0.88167396842E+01  0.51100000000E-03 0. -1.
        -11    1    3    3    0    0  0.17010524082E+02  0.25682739704E+02  0.21358991238E+02  0.37485564625E+02  0.51100000000E-03 0.  1.
         12    1    3    3    0    0 -0.26076048887E+02 -0.28583758673E+02 -0.20326746922E+02  0.43705471350E+02  0.00000000000E+00 0. -1.
</event>
<event>
 7    1  0.2405891E-015  0.9000754E+02  0.7816164E-02  0.1186339E+00
        -11   -1    0    0    0    0  0.00000000000E+00  0.00000000000E+00  0.45593999997E+02  0.45594000000E+02  0.51100000000E-03 0.  1.
         11   -1    0    0    0    0 -0.00000000000E+00 -0.00000000000E+00 -0.45593999997E+02  0.45594000000E+02  0.51100000000E-03 0. -1.
    9900012    2    1    2    0    0  0.10461280794E+01 -0.18277625178E+00  0.51544446100E+00  0.90007544957E+02  0.89999803750E+02 0.  0.
        -12    1    1    2    0    0 -0.10461280794E+01  0.18277625178E+00 -0.51544446100E+00  0.11804550433E+01  0.00000000000E+00 0.  1.
         11    1    3    3    0    0 -0.32416217932E+01 -0.18717111219E+01  0.80073780968E+01  0.88390903729E+01  0.51100000000E-03 0. -1.
        -11    1    3    3    0    0 -0.31740887549E+02 -0.16000318578E+02  0.10671500358E+02  0.37113003882E+02  0.51100000000E-03 0.  1.
         12    1    3    3    0    0  0.36028637422E+02  0.17689253448E+02 -0.18163433994E+02  0.44055450701E+02  0.00000000000E+00 0. -1.
</event>
<event>
 7    1  0.2405891E-015  0.9000776E+02  0.7816164E-02  0.1186339E+00
        -11   -1    0    0    0    0  0.00000000000E+00  0.00000000000E+00  0.45593999997E+02  0.45594000000E+02  0.51100000000E-03 0.  1.
         11   -1    0    0    0    0 -0.00000000000E+00 -0.00000000000E+00 -0.45593999997E+02  0.45594000000E+02  0.51100000000E-03 0. -1.
    9900012    2    1    2    0    0 -0.84990151670E+00  0.81786800501E+00 -0.41607231939E-01  0.90007757727E+02  0.90000019329E+02 0.  0.
        -12    1    1    2    0    0  0.84990151670E+00 -0.81786800501E+00  0.41607231939E-01  0.11802422732E+01  0.00000000000E+00 0.  1.
         11    1    3    3    0    0  0.14225779133E+02  0.15669690487E+02  0.78236937178E+01  0.22563735851E+02  0.51100000000E-03 0. -1.
        -11    1    3    3    0    0  0.21904575485E+02  0.52589077740E+00  0.93857902814E+01  0.23836527594E+02  0.51100000000E-03 0.  1.
         12    1    3    3    0    0 -0.36980256134E+02 -0.15377713260E+02 -0.17251091231E+02  0.43607494282E+02  0.00000000000E+00 0. -1.
</event>
<event>
 7    1  0.2405891E-015  0.9000778E+02  0.7816164E-02  0.1186339E+00
        -11   -1    0    0    0    0  0.00000000000E+00  0.00000000000E+00  0.45593999997E+02  0.45594000000E+02  0.51100000000E-03 0. -1.
         11   -1    0    0    0    0 -0.00000000000E+00 -0.00000000000E+00 -0.45593999997E+02  0.45594000000E+02  0.51100000000E-03 0.  1.
    9900012    2    1    2    0    0 -0.91074388195E+00 -0.46866458283E+00  0.58636399975E+00  0.90007778135E+02  0.90000040007E+02 0.  0.
        -12    1    1    2    0    0  0.91074388195E+00  0.46866458283E+00 -0.58636399975E+00  0.11802218647E+01  0.00000000000E+00 0.  1.
         11    1    3    3    0    0 -0.11449790517E+02  0.12557578289E+01 -0.23483497714E+01  0.11755397803E+02  0.51100000000E-03 0. -1.
        -11    1    3    3    0    0  0.22408332337E+02  0.43957721788E+01 -0.32878340969E+02  0.40030506821E+02  0.51100000000E-03 0.  1.
         12    1    3    3    0    0 -0.11869285702E+02 -0.61201945905E+01  0.35813054740E+02  0.38221873511E+02  0.00000000000E+00 0. -1.
</event>
<event>
 7    1  0.2405891E-015  0.9000766E+02  0.7816164E-02  0.1186339E+00
        -11   -1    0    0    0    0  0.00000000000E+00  0.00000000000E+00  0.45593999997E+02  0.45594000000E+02  0.51100000000E-03 0.  1.
         11   -1    0    0    0    0 -0.00000000000E+00 -0.00000000000E+00 -0.45593999997E+02  0.45594000000E+02  0.51100000000E-03 0. -1.
    9900012    2    1    2    0    0 -0.68980075381E-01 -0.10448063501E+01 -0.54480552302E+00  0.90007664616E+02  0.89999924989E+02 0.  0.
        -12    1    1    2    0    0  0.68980075381E-01  0.10448063501E+01  0.54480552302E+00  0.11803353837E+01  0.00000000000E+00 0.  1.
         11    1    3    3    0    0 -0.16332317821E+02 -0.26651234687E+02 -0.22007542711E+02  0.38227802084E+02  0.51100000000E-03 0. -1.
        -11    1    3    3    0    0  0.68675519644E+01 -0.73941472263E+01 -0.19006183336E+01  0.10268837982E+02  0.51100000000E-03 0.  1.
        -12    1    3    3    0    0  0.93957857812E+01  0.33000575564E+02  0.23363355522E+02  0.41511024550E+02  0.00000000000E+00 0.  1.
</event>
<event>
 7    1  0.2405891E-015  0.9000766E+02  0.7816164E-02  0.1186339E+00
        -11   -1    0    0    0    0  0.00000000000E+00  0.00000000000E+00  0.45593999997E+02  0.45594000000E+02  0.51100000000E-03 0. -1.
         11   -1    0    0    0    0 -0.00000000000E+00 -0.00000000000E+00 -0.45593999997E+02  0.45594000000E+02  0.51100000000E-03 0.  1.
    9900012    2    1    2    0    0 -0.43413023618E+00  0.50178776374E+00  0.97618541448E+00  0.90007661919E+02  0.89999922256E+02 0.  0.
        -12    1    1    2    0    0  0.43413023618E+00 -0.50178776374E+00 -0.97618541448E+00  0.11803380809E+01  0.00000000000E+00 0.  1.
         11    1    3    3    0    0  0.33304722065E+01 -0.10276323293E+02  0.14544858407E+01  0.10900018113E+02  0.51100000000E-03 0. -1.
        -11    1    3    3    0    0 -0.21822915076E+01  0.23755814984E+02 -0.34907110090E+02  0.42280107342E+02  0.51100000000E-03 0.  1.
         12    1    3    3    0    0 -0.15823109351E+01 -0.12977703927E+02  0.34428809664E+02  0.36827536464E+02  0.00000000000E+00 0. -1.
</event>
<event>
 7    1  0.2405891E-015  0.9000774E+02  0.7816164E-02  0.1186339E+00
        -11   -1    0    0    0    0  0.00000000000E+00  0.00000000000E+00  0.45593999997E+02  0.45594000000E+02  0.51100000000E-03 0.  1.
         11   -1    0    0    0    0 -0.00000000000E+00 -0.00000000000E+00 -0.45593999997E+02  0.45594000000E+02  0.51100000000E-03 0. -1.
    9900012    2    1    2    0    0  0.30442343530E+00 -0.10729712189E+01  0.38610770354E+00  0.90007737308E+02  0.89999998640E+02 0.  0.
        -12    1    1    2    0    0 -0.30442343530E+00  0.10729712189E+01 -0.38610770354E+00  0.11802626925E+01  0.00000000000E+00 0.  1.
         11    1    3    3    0    0 -0.34358290296E+01 -0.27226624734E+01 -0.76146858786E+01  0.87864243783E+01  0.51100000000E-03 0. -1.
        -11    1    3    3    0    0  0.40743799557E+02  0.14996903624E+01  0.15220441254E+02  0.43519743861E+02  0.51100000000E-03 0.  1.
         12    1    3    3    0    0 -0.37003547092E+02  0.15000089208E+00 -0.72196476721E+01  0.37701569068E+02  0.00000000000E+00 0. -1.
</event>
<event>
 7    1  0.2405891E-015  0.9000760E+02  0.7816164E-02  0.1186339E+00
        -11   -1    0    0    0    0  0.00000000000E+00  0.00000000000E+00  0.45593999997E+02  0.45594000000E+02  0.51100000000E-03 0.  1.
         11   -1    0    0    0    0 -0.00000000000E+00 -0.00000000000E+00 -0.45593999997E+02  0.45594000000E+02  0.51100000000E-03 0. -1.
    9900012    2    1    2    0    0 -0.11166689075E+01  0.48105281173E-01  0.37958470544E+00  0.90007598324E+02  0.89999857822E+02 0.  0.
        -12    1    1    2    0    0  0.11166689075E+01 -0.48105281173E-01 -0.37958470544E+00  0.11804016756E+01  0.00000000000E+00 0.  1.
         11    1    3    3    0    0  0.26142513024E+01 -0.20198774229E+00  0.99084870899E+01  0.10249547580E+02  0.51100000000E-03 0. -1.
        -11    1    3    3    0    0  0.69462359482E+01  0.36297784922E+02  0.87141515946E+01  0.37969933136E+02  0.51100000000E-03 0.  1.
         12    1    3    3    0    0 -0.10677156158E+02 -0.36047691898E+02 -0.18243053979E+02  0.41788117609E+02  0.00000000000E+00 0. -1.
</event>
<event>
 7    1  0.2405891E-015  0.9000813E+02  0.7816164E-02  0.1186338E+00
        -11   -1    0    0    0    0  0.00000000000E+00  0.00000000000E+00  0.45593999997E+02  0.45594000000E+02  0.51100000000E-03 0.  1.
         11   -1    0    0    0    0 -0.00000000000E+00 -0.00000000000E+00 -0.45593999997E+02  0.45594000000E+02  0.51100000000E-03 0. -1.
    9900012    2    1    2    0    0  0.64874973642E+00  0.56752764929E-01 -0.98386527434E+00  0.90008132221E+02  0.90000398766E+02 0.  0.
        -12    1    1    2    0    0 -0.64874973642E+00 -0.56752764929E-01  0.98386527434E+00  0.11798677786E+01  0.00000000000E+00 0.  1.
         11    1    3    3    0    0  0.44278303764E+01 -0.19297135670E+01  0.69417216308E+01  0.84567710004E+01  0.51100000000E-03 0. -1.
        -11    1    3    3    0    0  0.20976580765E+02  0.11985562125E+01  0.29775506545E+02  0.36442204487E+02  0.51100000000E-03 0.  1.
         12    1    3    3    0    0 -0.24755661405E+02  0.78791011944E+00 -0.37701093450E+02  0.45109156734E+02  0.00000000000E+00 0. -1.
</event>
<event>
 7    1  0.2405891E-015  0.9000774E+02  0.7816164E-02  0.1186339E+00
        -11   -1    0    0    0    0  0.00000000000E+00  0.00000000000E+00  0.45593999997E+02  0.45594000000E+02  0.51100000000E-03 0.  1.
         11   -1    0    0    0    0 -0.00000000000E+00 -0.00000000000E+00 -0.45593999997E+02  0.45594000000E+02  0.51100000000E-03 0. -1.
    9900012    2    1    2    0    0  0.56947574991E-01 -0.92077135582E+00 -0.73617156377E+00  0.90007740924E+02  0.90000002304E+02 0.  0.
        -12    1    1    2    0    0 -0.56947574991E-01  0.92077135582E+00  0.73617156377E+00  0.11802590763E+01  0.00000000000E+00 0.  1.
         11    1    3    3    0    0 -0.14001496667E+01  0.70077193857E+01  0.35403987154E+01  0.79751472339E+01  0.51100000000E-03 0. -1.
        -11    1    3    3    0    0  0.18316288560E+02  0.25129272813E+02  0.20651078549E+02  0.37328726528E+02  0.51100000000E-03 0.  1.
         12    1    3    3    0    0 -0.16859191319E+02 -0.33057763554E+02 -0.24927648828E+02  0.44703867162E+02  0.00000000000E+00 0. -1.
</event>
<event>
 7    1  0.2405891E-015  0.9000780E+02  0.7816164E-02  0.1186339E+00
        -11   -1    0    0    0    0  0.00000000000E+00  0.00000000000E+00  0.45593999997E+02  0.45594000000E+02  0.51100000000E-03 0. -1.
         11   -1    0    0    0    0 -0.00000000000E+00 -0.00000000000E+00 -0.45593999997E+02  0.45594000000E+02  0.51100000000E-03 0.  1.
    9900012    2    1    2    0    0 -0.24601831518E+00 -0.17087096779E+00  0.11415588349E+01  0.90007797275E+02  0.90000059399E+02 0.  0.
        -12    1    1    2    0    0  0.24601831518E+00  0.17087096779E+00 -0.11415588349E+01  0.11802027252E+01  0.00000000000E+00 0.  1.
         11    1    3    3    0    0 -0.13027671580E+01 -0.36469249742E+02  0.10243146137E+02  0.37902841873E+02  0.51100000000E-03 0. -1.
        -11    1    3    3    0    0  0.26811861869E+00 -0.11279359472E+01  0.10007965772E+02  0.10074894850E+02  0.51100000000E-03 0.  1.
        -12    1    3    3    0    0  0.78863022412E+00  0.37426314721E+02 -0.19109553074E+02  0.42030060551E+02  0.00000000000E+00 0.  1.
</event>
<event>
 7    1  0.2405891E-015  0.9000775E+02  0.7816164E-02  0.1186339E+00
        -11   -1    0    0    0    0  0.00000000000E+00  0.00000000000E+00  0.45593999997E+02  0.45594000000E+02  0.51100000000E-03 0. -1.
         11   -1    0    0    0    0 -0.00000000000E+00 -0.00000000000E+00 -0.45593999997E+02  0.45594000000E+02  0.51100000000E-03 0.  1.
    9900012    2    1    2    0    0  0.10297286319E+01 -0.32776479201E+00 -0.47457975386E+00  0.90007747164E+02  0.90000008627E+02 0.  0.
        -12    1    1    2    0    0 -0.10297286319E+01  0.32776479201E+00  0.47457975386E+00  0.11802528360E+01  0.00000000000E+00 0.  1.
         11    1    3    3    0    0 -0.73912223406E+01  0.27032681575E+02  0.18213655365E+02  0.33423543840E+02  0.51100000000E-03 0. -1.
        -11    1    3    3    0    0  0.54101299225E+01  0.83802422112E+01  0.72410220303E+01  0.12326003635E+02  0.51100000000E-03 0.  1.
        -12    1    3    3    0    0  0.30108210499E+01 -0.35740688578E+02 -0.25929257149E+02  0.44258199689E+02  0.00000000000E+00 0.  1.
</event>
<event>
 7    1  0.2405891E-015  0.9000770E+02  0.7816164E-02  0.1186339E+00
        -11   -1    0    0    0    0  0.00000000000E+00  0.00000000000E+00  0.45593999997E+02  0.45594000000E+02  0.51100000000E-03 0. -1.
         11   -1    0    0    0    0 -0.00000000000E+00 -0.00000000000E+00 -0.45593999997E+02  0.45594000000E+02  0.51100000000E-03 0.  1.
    9900012    2    1    2    0    0  0.44526660299E+00  0.96223874908E+00  0.51860426888E+00  0.90007696587E+02  0.89999957382E+02 0.  0.
        -12    1    1    2    0    0 -0.44526660299E+00 -0.96223874908E+00 -0.51860426888E+00  0.11803034125E+01  0.00000000000E+00 0.  1.
         11    1    3    3    0    0 -0.26657398977E+02  0.22598446751E+02  0.15635682576E+02  0.38285523186E+02  0.51100000000E-03 0. -1.
        -11    1    3    3    0    0  0.19574685640E+02  0.56757475395E+01 -0.19273658929E+01  0.20471862826E+02  0.51100000000E-03 0.  1.
        -12    1    3    3    0    0  0.75279799406E+01 -0.27311955541E+02 -0.13189712414E+02  0.31250310575E+02  0.00000000000E+00 0.  1.
</event>
<event>
 7    1  0.2405891E-015  0.9000779E+02  0.7816164E-02  0.1186339E+00
        -11   -1    0    0    0    0  0.00000000000E+00  0.00000000000E+00  0.45593999997E+02  0.45594000000E+02  0.51100000000E-03 0. -1.
         11   -1    0    0    0    0 -0.00000000000E+00 -0.00000000000E+00 -0.45593999997E+02  0.45594000000E+02  0.51100000000E-03 0.  1.
    9900012    2    1    2    0    0  0.87304478130E+00 -0.77787264260E+00 -0.15998123139E+00  0.90007793648E+02  0.90000055724E+02 0.  0.
        -12    1    1    2    0    0 -0.87304478130E+00  0.77787264260E+00  0.15998123139E+00  0.11802063517E+01  0.00000000000E+00 0.  1.
         11    1    3    3    0    0  0.14473009393E+01 -0.20565583080E+01 -0.50522039958E+01  0.56434809789E+01  0.51100000000E-03 0. -1.
        -11    1    3    3    0    0 -0.26004873100E+02 -0.32629195228E+02  0.23916433783E+00  0.41724992583E+02  0.51100000000E-03 0.  1.
         12    1    3    3    0    0  0.25430616942E+02  0.33907880894E+02  0.46530584266E+01  0.42639320087E+02  0.00000000000E+00 0. -1.
</event>
<event>
 7    1  0.2405891E-015  0.9000775E+02  0.7816164E-02  0.1186339E+00
        -11   -1    0    0    0    0  0.00000000000E+00  0.00000000000E+00  0.45593999997E+02  0.45594000000E+02  0.51100000000E-03 0.  1.
         11   -1    0    0    0    0 -0.00000000000E+00 -0.00000000000E+00 -0.45593999997E+02  0.45594000000E+02  0.51100000000E-03 0. -1.
    9900012    2    1    2    0    0  0.82518140025E+00  0.80774302034E+00  0.24417845626E+00  0.90007747379E+02  0.90000008845E+02 0.  0.
        -12    1    1    2    0    0 -0.82518140025E+00 -0.80774302034E+00 -0.24417845626E+00  0.11802526207E+01  0.00000000000E+00 0.  1.
         11    1    3    3    0    0  0.27184014047E+02 -0.19760901159E+02  0.21164968652E+02  0.39716743732E+02  0.51100000000E-03 0. -1.
        -11    1    3    3    0    0  0.21512576689E+01 -0.62217515448E+01 -0.36356466334E+01  0.75203742292E+01  0.51100000000E-03 0.  1.
        -12    1    3    3    0    0 -0.28510090316E+02  0.26790395724E+02 -0.17285143562E+02  0.42770629418E+02  0.00000000000E+00 0.  1.
</event>
<event>
 7    1  0.2405891E-015  0.9000771E+02  0.7816164E-02  0.1186339E+00
        -11   -1    0    0    0    0  0.00000000000E+00  0.00000000000E+00  0.45593999997E+02  0.45594000000E+02  0.51100000000E-03 0.  1.
         11   -1    0    0    0    0 -0.00000000000E+00 -0.00000000000E+00 -0.45593999997E+02  0.45594000000E+02  0.51100000000E-03 0. -1.
    9900012    2    1    2    0    0  0.82310390172E+00  0.33822628280E+00 -0.77536404232E+00  0.90007709167E+02  0.89999970128E+02 0.  0.
        -12    1    1    2    0    0 -0.82310390172E+00 -0.33822628280E+00  0.77536404232E+00  0.11802908326E+01  0.00000000000E+00 0.  1.
         11    1    3    3    0    0 -0.18073008630E+02 -0.32063293856E+02 -0.75172226138E+01  0.37565903289E+02  0.51100000000E-03 0. -1.
        -11    1    3    3    0    0 -0.95777767077E+01  0.10588667324E+01  0.18864836983E+01  0.98190542530E+01  0.51100000000E-03 0.  1.
        -12    1    3    3    0    0  0.28473889240E+02  0.31342653406E+02  0.48553748732E+01  0.42622751625E+02  0.00000000000E+00 0.  1.
</event>
<event>
 7    1  0.2405891E-015  0.9000774E+02  0.7816164E-02  0.1186339E+00
        -11   -1    0    0    0    0  0.00000000000E+00  0.00000000000E+00  0.45593999997E+02  0.45594000000E+02  0.51100000000E-03 0.  1.
         11   -1    0    0    0    0 -0.00000000000E+00 -0.00000000000E+00 -0.45593999997E+02  0.45594000000E+02  0.51100000000E-03 0. -1.
    9900012    2    1    2    0    0  0.40160554966E+00 -0.10432037054E+01 -0.37876442234E+00  0.90007735845E+02  0.89999997158E+02 0.  0.
        -12    1    1    2    0    0 -0.40160554966E+00  0.10432037054E+01  0.37876442234E+00  0.11802641553E+01  0.00000000000E+00 0.  1.
         11    1    3    3    0    0 -0.81648838717E+01  0.60496207879E+01 -0.18070528998E+01  0.10321273214E+02  0.51100000000E-03 0. -1.
        -11    1    3    3    0    0 -0.14204842682E+02  0.31651009592E+02  0.18909933764E+01  0.34743917741E+02  0.51100000000E-03 0.  1.
         12    1    3    3    0    0  0.22771332103E+02 -0.38743834085E+02 -0.46270489894E+00  0.44942544890E+02  0.00000000000E+00 0. -1.
</event>
<event>
 7    1  0.2405891E-015  0.9000776E+02  0.7816164E-02  0.1186339E+00
        -11   -1    0    0    0    0  0.00000000000E+00  0.00000000000E+00  0.45593999997E+02  0.45594000000E+02  0.51100000000E-03 0.  1.
         11   -1    0    0    0    0 -0.00000000000E+00 -0.00000000000E+00 -0.45593999997E+02  0.45594000000E+02  0.51100000000E-03 0. -1.
    9900012    2    1    2    0    0 -0.10465232041E+01  0.44392238550E+00 -0.31732968322E+00  0.90007755945E+02  0.90000017524E+02 0.  0.
        -12    1    1    2    0    0  0.10465232041E+01 -0.44392238550E+00  0.31732968322E+00  0.11802440548E+01  0.00000000000E+00 0.  1.
         11    1    3    3    0    0 -0.12437051461E+02 -0.25390903925E+02 -0.25635729646E+02  0.38165021760E+02  0.51100000000E-03 0. -1.
        -11    1    3    3    0    0  0.56613142123E+01 -0.73304678617E+01 -0.71955375634E+00  0.92899943784E+01  0.51100000000E-03 0.  1.
        -12    1    3    3    0    0  0.57292140450E+01  0.33165294173E+02  0.26037953720E+02  0.42552739806E+02  0.00000000000E+00 0.  1.
</event>
<event>
 7    1  0.2405891E-015  0.9000781E+02  0.7816164E-02  0.1186339E+00
        -11   -1    0    0    0    0  0.00000000000E+00  0.00000000000E+00  0.45593999997E+02  0.45594000000E+02  0.51100000000E-03 0.  1.
         11   -1    0    0    0    0 -0.00000000000E+00 -0.00000000000E+00 -0.45593999997E+02  0.45594000000E+02  0.51100000000E-03 0. -1.
    9900012    2    1    2    0    0  0.45430617337E+00 -0.36856345270E+00 -0.10249975560E+01  0.90007808021E+02  0.90000070287E+02 0.  0.
        -12    1    1    2    0    0 -0.45430617337E+00  0.36856345270E+00  0.10249975560E+01  0.11801919792E+01  0.00000000000E+00 0.  1.
         11    1    3    3    0    0 -0.15481172426E+02  0.33531747781E+02 -0.28754832603E+01  0.37044746094E+02  0.51100000000E-03 0. -1.
        -11    1    3    3    0    0 -0.82876594254E+01  0.26913383237E+01 -0.19058250057E+01  0.89196844080E+01  0.51100000000E-03 0.  1.
        -12    1    3    3    0    0  0.24223138025E+02 -0.36591649557E+02  0.37563107100E+01  0.44043377519E+02  0.00000000000E+00 0.  1.
</event>
<event>
 7    1  0.2405891E-015  0.9000770E+02  0.7816164E-02  0.1186339E+00
        -11   -1    0    0    0    0  0.00000000000E+00  0.00000000000E+00  0.45593999997E+02  0.45594000000E+02  0.51100000000E-03 0. -1.
         11   -1    0    0    0    0 -0.00000000000E+00 -0.00000000000E+00 -0.45593999997E+02  0.45594000000E+02  0.51100000000E-03 0.  1.
    9900012    2    1    2    0    0 -0.76788995398E+00  0.67765447518E+00  0.58672563124E+00  0.90007695999E+02  0.89999956786E+02 0.  0.
        -12    1    1    2    0    0  0.76788995398E+00 -0.67765447518E+00 -0.58672563124E+00  0.11803040013E+01  0.00000000000E+00 0.  1.
         11    1    3    3    0    0  0.19220993931E+02  0.13078889162E+02  0.29814265195E+02  0.37807332077E+02  0.51100000000E-03 0. -1.
        -11    1    3    3    0    0  0.75797715765E+01 -0.59926749066E+00  0.30041444253E+01  0.81753863925E+01  0.51100000000E-03 0.  1.
        -12    1    3    3    0    0 -0.27568655461E+02 -0.11801967196E+02 -0.32231683990E+02  0.44024977529E+02  0.00000000000E+00 0.  1.
</event>
<event>
 7    1  0.2405891E-015  0.9000780E+02  0.7816164E-02  0.1186339E+00
        -11   -1    0    0    0    0  0.00000000000E+00  0.00000000000E+00  0.45593999997E+02  0.45594000000E+02  0.51100000000E-03 0.  1.
         11   -1    0    0    0    0 -0.00000000000E+00 -0.00000000000E+00 -0.45593999997E+02  0.45594000000E+02  0.51100000000E-03 0. -1.
    9900012    2    1    2    0    0  0.14124365803E-01  0.87578510529E+00  0.79099787577E+00  0.90007798031E+02  0.90000060165E+02 0.  0.
        -12    1    1    2    0    0 -0.14124365803E-01 -0.87578510529E+00 -0.79099787577E+00  0.11802019691E+01  0.00000000000E+00 0.  1.
         11    1    3    3    0    0  0.97548039165E+01 -0.14066999452E+01 -0.23000520892E+01  0.10120535759E+02  0.51100000000E-03 0. -1.
        -11    1    3    3    0    0  0.21564513956E+02 -0.23872136259E+02  0.17502877852E+02  0.36623187806E+02  0.51100000000E-03 0.  1.
         12    1    3    3    0    0 -0.31305193506E+02  0.26154621309E+02 -0.14411827887E+02  0.43264074465E+02  0.00000000000E+00 0. -1.
</event>
<event>
 7    1  0.2405891E-015  0.9000773E+02  0.7816164E-02  0.1186339E+00
        -11   -1    0    0    0    0  0.00000000000E+00  0.00000000000E+00  0.45593999997E+02  0.45594000000E+02  0.51100000000E-03 0. -1.
         11   -1    0    0    0    0 -0.00000000000E+00 -0.00000000000E+00 -0.45593999997E+02  0.45594000000E+02  0.51100000000E-03 0.  1.
    9900012    2    1    2    0    0 -0.71922183387E+00 -0.81016966203E-01  0.93230545494E+00  0.90007730007E+02  0.89999991243E+02 0.  0.
        -12    1    1    2    0    0  0.71922183387E+00  0.81016966203E-01 -0.93230545494E+00  0.11802699930E+01  0.00000000000E+00 0.  1.
         11    1    3    3    0    0 -0.11754803892E+02 -0.42364266488E+00 -0.26941991918E+02  0.29397717877E+02  0.51100000000E-03 0. -1.
        -11    1    3    3    0    0  0.37079449769E+01  0.19825504633E+02 -0.58310711325E+01  0.20995258529E+02  0.51100000000E-03 0.  1.
         12    1    3    3    0    0  0.73276370811E+01 -0.19482878934E+02  0.33705368505E+02  0.39614753600E+02  0.00000000000E+00 0. -1.
</event>
<event>
 7    1  0.2405891E-015  0.9000769E+02  0.7816164E-02  0.1186339E+00
        -11   -1    0    0    0    0  0.00000000000E+00  0.00000000000E+00  0.45593999997E+02  0.45594000000E+02  0.51100000000E-03 0. -1.
         11   -1    0    0    0    0 -0.00000000000E+00 -0.00000000000E+00 -0.45593999997E+02  0.45594000000E+02  0.51100000000E-03 0.  1.
    9900012    2    1    2    0    0  0.17396559440E-01  0.97425366816E+00  0.66608174541E+00  0.90007687439E+02  0.89999948113E+02 0.  0.
        -12    1    1    2    0    0 -0.17396559440E-01 -0.97425366816E+00 -0.66608174541E+00  0.11803125610E+01  0.00000000000E+00 0.  1.
         11    1    3    3    0    0  0.97509620466E+01  0.33180691443E+02  0.11697069420E+02  0.36508368612E+02  0.51100000000E-03 0. -1.
        -11    1    3    3    0    0  0.83835604093E+01  0.16698796456E+01  0.70123259607E+01  0.11056459596E+02  0.51100000000E-03 0.  1.
        -12    1    3    3    0    0 -0.18117125897E+02 -0.33876317420E+02 -0.18043313635E+02  0.42442859230E+02  0.00000000000E+00 0.  1.
</event>
<event>
 7    1  0.2405891E-015  0.9000772E+02  0.7816164E-02  0.1186339E+00
        -11   -1    0    0    0    0  0.00000000000E+00  0.00000000000E+00  0.45593999997E+02  0.45594000000E+02  0.51100000000E-03 0.  1.
         11   -1    0    0    0    0 -0.00000000000E+00 -0.00000000000E+00 -0.45593999997E+02  0.45594000000E+02  0.51100000000E-03 0. -1.
    9900012    2    1    2    0    0 -0.77644502888E+00  0.11820591015E+00 -0.88104061283E+00  0.90007715254E+02  0.89999976295E+02 0.  0.
        -12    1    1    2    0    0  0.77644502888E+00 -0.11820591015E+00  0.88104061283E+00  0.11802847459E+01  0.00000000000E+00 0.  1.
         11    1    3    3    0    0 -0.12152673934E+01  0.78372575535E+01  0.49663428463E+01  0.93575660471E+01  0.51100000000E-03 0. -1.
        -11    1    3    3    0    0 -0.37411898464E+02 -0.16664893764E+02 -0.78662490053E+01  0.41704276813E+02  0.51100000000E-03 0.  1.
         12    1    3    3    0    0  0.37850720828E+02  0.89458421203E+01  0.20188655462E+01  0.38945872394E+02  0.00000000000E+00 0. -1.
</event>
<event>
 7    1  0.2405891E-015  0.9000769E+02  0.7816164E-02  0.1186339E+00
        -11   -1    0    0    0    0  0.00000000000E+00  0.00000000000E+00  0.45593999997E+02  0.45594000000E+02  0.51100000000E-03 0.  1.
         11   -1    0    0    0    0 -0.00000000000E+00 -0.00000000000E+00 -0.45593999997E+02  0.45594000000E+02  0.51100000000E-03 0. -1.
    9900012    2    1    2    0    0  0.11421908334E+01 -0.20168994083E+00 -0.21873291235E+00  0.90007693760E+02  0.89999954518E+02 0.  0.
        -12    1    1    2    0    0 -0.11421908334E+01  0.20168994083E+00  0.21873291235E+00  0.11803062396E+01  0.00000000000E+00 0.  1.
         11    1    3    3    0    0  0.29948260125E-01 -0.35772510327E+02  0.52273897958E+01  0.36152441084E+02  0.51100000000E-03 0. -1.
        -11    1    3    3    0    0  0.39431848515E+01 -0.84273205224E+01 -0.26656667804E+01  0.96785441883E+01  0.51100000000E-03 0.  1.
        -12    1    3    3    0    0 -0.28309422782E+01  0.43998140909E+02 -0.27804559278E+01  0.44176708488E+02  0.00000000000E+00 0.  1.
</event>
<event>
 7    1  0.2405891E-015  0.9000769E+02  0.7816164E-02  0.1186339E+00
        -11   -1    0    0    0    0  0.00000000000E+00  0.00000000000E+00  0.45593999997E+02  0.45594000000E+02  0.51100000000E-03 0. -1.
         11   -1    0    0    0    0 -0.00000000000E+00 -0.00000000000E+00 -0.45593999997E+02  0.45594000000E+02  0.51100000000E-03 0.  1.
    9900012    2    1    2    0    0  0.17927221579E+00  0.98791458262E+00  0.62049144979E+00  0.90007693519E+02  0.89999954273E+02 0.  0.
        -12    1    1    2    0    0 -0.17927221579E+00 -0.98791458262E+00 -0.62049144979E+00  0.11803064810E+01  0.00000000000E+00 0.  1.
         11    1    3    3    0    0 -0.17252190402E+01 -0.51645000044E+01 -0.36407019591E+01  0.65500497745E+01  0.51100000000E-03 0. -1.
        -11    1    3    3    0    0  0.18488112966E+02  0.14921853032E+02 -0.33630619501E+02  0.41176335282E+02  0.51100000000E-03 0.  1.
         12    1    3    3    0    0 -0.16583621710E+02 -0.87694384452E+01  0.37891812910E+02  0.42281308462E+02  0.00000000000E+00 0. -1.
</event>
<event>
 7    1  0.2405891E-015  0.9000778E+02  0.7816164E-02  0.1186339E+00
        -11   -1    0    0    0    0  0.00000000000E+00  0.00000000000E+00  0.45593999997E+02  0.45594000000E+02  0.51100000000E-03 0. -1.
         11   -1    0    0    0    0 -0.00000000000E+00 -0.00000000000E+00 -0.45593999997E+02  0.45594000000E+02  0.51100000000E-03 0.  1.
    9900012    2    1    2    0    0 -0.84427091073E+00  0.24345506912E+00  0.78795002241E+00  0.90007775878E+02  0.90000037719E+02 0.  0.
        -12    1    1    2    0    0  0.84427091073E+00 -0.24345506912E+00 -0.78795002241E+00  0.11802241224E+01  0.00000000000E+00 0.  1.
         11    1    3    3    0    0 -0.70401936262E+01  0.82750907426E+01 -0.36223293462E+00  0.10870725185E+02  0.51100000000E-03 0. -1.
        -11    1    3    3    0    0  0.36192629597E+01  0.31907685716E+02 -0.15660580116E+02  0.35727485805E+02  0.51100000000E-03 0.  1.
         12    1    3    3    0    0  0.25766597558E+01 -0.39939321390E+02  0.16810763073E+02  0.43409564887E+02  0.00000000000E+00 0. -1.
</event>
<event>
 7    1  0.2405891E-015  0.9000773E+02  0.7816164E-02  0.1186339E+00
        -11   -1    0    0    0    0  0.00000000000E+00  0.00000000000E+00  0.45593999997E+02  0.45594000000E+02  0.51100000000E-03 0.  1.
         11   -1    0    0    0    0 -0.00000000000E+00 -0.00000000000E+00 -0.45593999997E+02  0.45594000000E+02  0.51100000000E-03 0. -1.
    9900012    2    1    2    0    0  0.10560112992E+01 -0.24225508952E+00 -0.46817893353E+00  0.90007729308E+02  0.89999990535E+02 0.  0.
        -12    1    1    2    0    0 -0.10560112992E+01  0.24225508952E+00  0.46817893353E+00  0.11802706920E+01  0.00000000000E+00 0.  1.
         11    1    3    3    0    0  0.29569823887E+01 -0.93107047457E+01 -0.17694110215E+01  0.99279294585E+01  0.51100000000E-03 0. -1.
        -11    1    3    3    0    0 -0.18663998553E+00 -0.11342845528E+02  0.37121696633E+02  0.38816431319E+02  0.51100000000E-03 0.  1.
         12    1    3    3    0    0 -0.17143311040E+01  0.20411295184E+02 -0.35820464545E+02  0.41263368530E+02  0.00000000000E+00 0. -1.
</event>
<event>
 7    1  0.2695929E-015  0.9000772E+02  0.7816164E-02  0.1186339E+00
        -11   -1    0    0    0    0  0.00000000000E+00  0.00000000000E+00  0.45593999997E+02  0.45594000000E+02  0.51100000000E-03 0.  1.
         11   -1    0    0    0    0 -0.00000000000E+00 -0.00000000000E+00 -0.45593999997E+02  0.45594000000E+02  0.51100000000E-03 0. -1.
    9900012    2    1    2    0    0  0.27720548693E+00 -0.10061230029E+01 -0.55130506273E+00  0.90007718825E+02  0.89999979914E+02 0.  0.
        -12    1    1    2    0    0 -0.27720548693E+00  0.10061230029E+01  0.55130506273E+00  0.11802811746E+01  0.00000000000E+00 0.  1.
         11    1    3    3    0    0 -0.57446278418E+01 -0.66763913269E+01  0.35474858641E+01  0.94952412506E+01  0.51100000000E-03 0. -1.
        -11    1    3    3    0    0  0.27890467919E+02 -0.20997519860E+02  0.18273004596E+02  0.39404019316E+02  0.51100000000E-03 0.  1.
         12    1    3    3    0    0 -0.21868634590E+02  0.26667788184E+02 -0.22371795523E+02  0.41108458259E+02  0.00000000000E+00 0. -1.
</event>
<event>
 7    1  0.2405891E-015  0.9000784E+02  0.7816164E-02  0.1186339E+00
        -11   -1    0    0    0    0  0.00000000000E+00  0.00000000000E+00  0.45593999997E+02  0.45594000000E+02  0.51100000000E-03 0. -1.
         11   -1    0    0    0    0 -0.00000000000E+00 -0.00000000000E+00 -0.45593999997E+02  0.45594000000E+02  0.51100000000E-03 0.  1.
    9900012    2    1    2    0    0  0.10371780373E+01  0.53235051504E+00  0.18342496827E+00  0.90007838964E+02  0.90000101638E+02 0.  0.
        -12    1    1    2    0    0 -0.10371780373E+01 -0.53235051504E+00 -0.18342496827E+00  0.11801610360E+01  0.00000000000E+00 0.  1.
         11    1    3    3    0    0  0.18160538220E+02  0.66715195865E+01  0.31801194747E+02  0.37224055524E+02  0.51100000000E-03 0. -1.
        -11    1    3    3    0    0 -0.68748939620E+01 -0.23359795608E+01  0.85140999430E+01  0.11189766110E+02  0.51100000000E-03 0.  1.
        -12    1    3    3    0    0 -0.10248466220E+02 -0.38031895106E+01 -0.40131869722E+02  0.41594017330E+02  0.00000000000E+00 0.  1.
</event>
<event>
 7    1  0.2405891E-015  0.9000772E+02  0.7816164E-02  0.1186339E+00
        -11   -1    0    0    0    0  0.00000000000E+00  0.00000000000E+00  0.45593999997E+02  0.45594000000E+02  0.51100000000E-03 0. -1.
         11   -1    0    0    0    0 -0.00000000000E+00 -0.00000000000E+00 -0.45593999997E+02  0.45594000000E+02  0.51100000000E-03 0.  1.
    9900012    2    1    2    0    0 -0.66239697815E+00 -0.55446646365E+00  0.80427757857E+00  0.90007718153E+02  0.89999979232E+02 0.  0.
        -12    1    1    2    0    0  0.66239697815E+00  0.55446646365E+00 -0.80427757857E+00  0.11802818474E+01  0.00000000000E+00 0.  1.
         11    1    3    3    0    0  0.54192553529E+01  0.25940360901E+02  0.28841338988E+02  0.39167505500E+02  0.51100000000E-03 0. -1.
        -11    1    3    3    0    0  0.66454069287E+00  0.40716579346E+01  0.42133464595E+01  0.58968043309E+01  0.51100000000E-03 0.  1.
        -12    1    3    3    0    0 -0.67461930239E+01 -0.30566485299E+02 -0.32250407869E+02  0.44943408321E+02  0.00000000000E+00 0.  1.
</event>
<event>
 7    1  0.2405891E-015  0.9000775E+02  0.7816164E-02  0.1186339E+00
        -11   -1    0    0    0    0  0.00000000000E+00  0.00000000000E+00  0.45593999997E+02  0.45594000000E+02  0.51100000000E-03 0. -1.
         11   -1    0    0    0    0 -0.00000000000E+00 -0.00000000000E+00 -0.45593999997E+02  0.45594000000E+02  0.51100000000E-03 0.  1.
    9900012    2    1    2    0    0  0.49250374534E-01  0.10430244490E+01  0.55015997368E+00  0.90007745113E+02  0.90000006549E+02 0.  0.
        -12    1    1    2    0    0 -0.49250374534E-01 -0.10430244490E+01 -0.55015997368E+00  0.11802548866E+01  0.00000000000E+00 0.  1.
         11    1    3    3    0    0  0.36138372192E+01  0.72093475237E+01 -0.18141547223E+01  0.82659342352E+01  0.51100000000E-03 0. -1.
        -11    1    3    3    0    0 -0.14295959264E+02 -0.30840608367E+01  0.39944739942E+02  0.42537843526E+02  0.51100000000E-03 0.  1.
         12    1    3    3    0    0  0.10731372420E+02 -0.30822622379E+01 -0.37580425246E+02  0.39203967352E+02  0.00000000000E+00 0. -1.
</event>
<event>
 7    1  0.2405891E-015  0.9000771E+02  0.7816164E-02  0.1186339E+00
        -11   -1    0    0    0    0  0.00000000000E+00  0.00000000000E+00  0.45593999997E+02  0.45594000000E+02  0.51100000000E-03 0.  1.
         11   -1    0    0    0    0 -0.00000000000E+00 -0.00000000000E+00 -0.45593999997E+02  0.45594000000E+02  0.51100000000E-03 0. -1.
    9900012    2    1    2    0    0 -0.87684506208E+00  0.49172941054E+00 -0.61841529066E+00  0.90007706584E+02  0.89999967511E+02 0.  0.
        -12    1    1    2    0    0  0.87684506208E+00 -0.49172941054E+00  0.61841529066E+00  0.11802934160E+01  0.00000000000E+00 0.  1.
         11    1    3    3    0    0  0.24105748194E+01 -0.37624088742E+02 -0.24110328731E+01  0.37778247768E+02  0.51100000000E-03 0. -1.
        -11    1    3    3    0    0  0.75704590705E+01 -0.35094696498E+01 -0.31696591734E+01  0.89260835364E+01  0.51100000000E-03 0.  1.
        -12    1    3    3    0    0 -0.10857878952E+02  0.41625287803E+02  0.49622767558E+01  0.43303375280E+02  0.00000000000E+00 0.  1.
</event>
<event>
 7    1  0.2405891E-015  0.9000776E+02  0.7816164E-02  0.1186339E+00
        -11   -1    0    0    0    0  0.00000000000E+00  0.00000000000E+00  0.45593999997E+02  0.45594000000E+02  0.51100000000E-03 0.  1.
         11   -1    0    0    0    0 -0.00000000000E+00 -0.00000000000E+00 -0.45593999997E+02  0.45594000000E+02  0.51100000000E-03 0. -1.
    9900012    2    1    2    0    0 -0.24379135091E-01  0.26139486184E+00 -0.11506726793E+01  0.90007758825E+02  0.90000020442E+02 0.  0.
        -12    1    1    2    0    0  0.24379135091E-01 -0.26139486184E+00  0.11506726793E+01  0.11802411749E+01  0.00000000000E+00 0.  1.
         11    1    3    3    0    0  0.22080021580E+01 -0.52164686028E+01  0.75561281069E+01  0.94436163858E+01  0.51100000000E-03 0. -1.
        -11    1    3    3    0    0  0.22942952279E+02 -0.27347525414E+02  0.68862648775E+01  0.36355011343E+02  0.51100000000E-03 0.  1.
         12    1    3    3    0    0 -0.25175333572E+02  0.32825388879E+02 -0.15593065664E+02  0.44209131096E+02  0.00000000000E+00 0. -1.
</event>
<event>
 7    1  0.3786609E-015  0.9000781E+02  0.7816164E-02  0.1186339E+00
        -11   -1    0    0    0    0  0.00000000000E+00  0.00000000000E+00  0.45593999997E+02  0.45594000000E+02  0.51100000000E-03 0. -1.
         11   -1    0    0    0    0 -0.00000000000E+00 -0.00000000000E+00 -0.45593999997E+02  0.45594000000E+02  0.51100000000E-03 0.  1.
    9900012    2    1    2    0    0  0.54748250198E+00 -0.77083429196E+00  0.70634557827E+00  0.90007810748E+02  0.90000073049E+02 0.  0.
        -12    1    1    2    0    0 -0.54748250198E+00  0.77083429196E+00 -0.70634557827E+00  0.11801892524E+01  0.00000000000E+00 0.  1.
         11    1    3    3    0    0  0.76119320725E+01  0.57191584087E+01 -0.48526476754E+00  0.95334025896E+01  0.51100000000E-03 0. -1.
        -11    1    3    3    0    0 -0.54428849210E+00 -0.14000531173E+02 -0.37758635043E+02  0.40274379495E+02  0.51100000000E-03 0.  1.
         12    1    3    3    0    0 -0.65201610785E+01  0.75105384728E+01  0.38950245389E+02  0.40200028663E+02  0.00000000000E+00 0. -1.
</event>
<event>
 7    1  0.2405891E-015  0.9000775E+02  0.7816164E-02  0.1186339E+00
        -11   -1    0    0    0    0  0.00000000000E+00  0.00000000000E+00  0.45593999997E+02  0.45594000000E+02  0.51100000000E-03 0. -1.
         11   -1    0    0    0    0 -0.00000000000E+00 -0.00000000000E+00 -0.45593999997E+02  0.45594000000E+02  0.51100000000E-03 0.  1.
    9900012    2    1    2    0    0  0.10717603444E+01  0.62130503119E-01  0.49036473712E+00  0.90007750869E+02  0.90000012381E+02 0.  0.
        -12    1    1    2    0    0 -0.10717603444E+01 -0.62130503119E-01 -0.49036473712E+00  0.11802491307E+01  0.00000000000E+00 0.  1.
         11    1    3    3    0    0  0.39258032807E+01 -0.20593792802E+02 -0.12701562309E+02  0.24512158589E+02  0.51100000000E-03 0. -1.
        -11    1    3    3    0    0 -0.23779946207E+02  0.46141846015E+00 -0.12341634525E+02  0.26795796155E+02  0.51100000000E-03 0.  1.
        -12    1    3    3    0    0  0.20925903270E+02  0.20194504845E+02  0.25533561571E+02  0.38699796125E+02  0.00000000000E+00 0.  1.
</event>
<event>
 7    1  0.2405891E-015  0.9000776E+02  0.7816164E-02  0.1186339E+00
        -11   -1    0    0    0    0  0.00000000000E+00  0.00000000000E+00  0.45593999997E+02  0.45594000000E+02  0.51100000000E-03 0. -1.
         11   -1    0    0    0    0 -0.00000000000E+00 -0.00000000000E+00 -0.45593999997E+02  0.45594000000E+02  0.51100000000E-03 0.  1.
    9900012    2    1    2    0    0 -0.10751900897E+01 -0.21146040996E+00  0.43841813630E+00  0.90007762864E+02  0.90000024534E+02 0.  0.
        -12    1    1    2    0    0  0.10751900897E+01  0.21146040996E+00 -0.43841813630E+00  0.11802371356E+01  0.00000000000E+00 0.  1.
         11    1    3    3    0    0 -0.32977384332E+02 -0.18202802801E+02 -0.11517497383E+02  0.39389118464E+02  0.51100000000E-03 0. -1.
        -11    1    3    3    0    0 -0.62171959944E+01  0.54089165353E+01  0.56315294335E+01  0.99811837044E+01  0.51100000000E-03 0.  1.
        -12    1    3    3    0    0  0.38119390236E+02  0.12582425856E+02  0.63243860857E+01  0.40637460696E+02  0.00000000000E+00 0.  1.
</event>
<event>
 7    1  0.2405891E-015  0.9000760E+02  0.7816164E-02  0.1186339E+00
        -11   -1    0    0    0    0  0.00000000000E+00  0.00000000000E+00  0.45593999997E+02  0.45594000000E+02  0.51100000000E-03 0.  1.
         11   -1    0    0    0    0 -0.00000000000E+00 -0.00000000000E+00 -0.45593999997E+02  0.45594000000E+02  0.51100000000E-03 0. -1.
    9900012    2    1    2    0    0  0.27656753673E-04 -0.10316270477E+01 -0.57365839670E+00  0.90007602473E+02  0.89999862025E+02 0.  0.
        -12    1    1    2    0    0 -0.27656753674E-04  0.10316270477E+01  0.57365839670E+00  0.11803975273E+01  0.00000000000E+00 0.  1.
         11    1    3    3    0    0  0.82040535163E+01  0.14688062792E+02  0.45773931965E+01  0.17435544483E+02  0.51100000000E-03 0. -1.
        -11    1    3    3    0    0 -0.10711561960E+02  0.26000170322E+02 -0.11340992324E+02  0.30321024447E+02  0.51100000000E-03 0.  1.
         12    1    3    3    0    0  0.25075361003E+01 -0.41719860161E+02  0.61899407306E+01  0.42251033543E+02  0.00000000000E+00 0. -1.
</event>
<event>
 7    1  0.2405891E-015  0.9000756E+02  0.7816164E-02  0.1186339E+00
        -11   -1    0    0    0    0  0.00000000000E+00  0.00000000000E+00  0.45593999997E+02  0.45594000000E+02  0.51100000000E-03 0. -1.
         11   -1    0    0    0    0 -0.00000000000E+00 -0.00000000000E+00 -0.45593999997E+02  0.45594000000E+02  0.51100000000E-03 0.  1.
    9900012    2    1    2    0    0  0.68002389428E+00 -0.33038109244E+00  0.90656439045E+00  0.90007558067E+02  0.89999817033E+02 0.  0.
        -12    1    1    2    0    0 -0.68002389428E+00  0.33038109244E+00 -0.90656439045E+00  0.11804419330E+01  0.00000000000E+00 0.  1.
         11    1    3    3    0    0  0.16453226340E+01 -0.12552678953E+02 -0.21870409631E+01  0.12847567237E+02  0.51100000000E-03 0. -1.
        -11    1    3    3    0    0  0.22322597563E+02 -0.15082736947E+02 -0.20809064070E+02  0.34041217127E+02  0.51100000000E-03 0.  1.
         12    1    3    3    0    0 -0.23287896303E+02  0.27305034808E+02  0.23902669424E+02  0.43118773703E+02  0.00000000000E+00 0. -1.
</event>
<event>
 7    1  0.2405891E-015  0.9000766E+02  0.7816164E-02  0.1186339E+00
        -11   -1    0    0    0    0  0.00000000000E+00  0.00000000000E+00  0.45593999997E+02  0.45594000000E+02  0.51100000000E-03 0.  1.
         11   -1    0    0    0    0 -0.00000000000E+00 -0.00000000000E+00 -0.45593999997E+02  0.45594000000E+02  0.51100000000E-03 0. -1.
    9900012    2    1    2    0    0  0.29106611021E+00  0.10310213834E+01 -0.49546148333E+00  0.90007658247E+02  0.89999918535E+02 0.  0.
        -12    1    1    2    0    0 -0.29106611021E+00 -0.10310213834E+01  0.49546148333E+00  0.11803417535E+01  0.00000000000E+00 0.  1.
         11    1    3    3    0    0 -0.13833276385E+02  0.18018242720E+02  0.10095123687E+01  0.22738419509E+02  0.51100000000E-03 0. -1.
        -11    1    3    3    0    0 -0.19230855923E+02 -0.14230426328E+02  0.16694103806E+02  0.29172314875E+02  0.51100000000E-03 0.  1.
         12    1    3    3    0    0  0.33355198418E+02 -0.27567950093E+01 -0.18199077658E+02  0.38096923863E+02  0.00000000000E+00 0. -1.
</event>
<event>
 7    1  0.2628069E-015  0.9000758E+02  0.7816164E-02  0.1186339E+00
        -11   -1    0    0    0    0  0.00000000000E+00  0.00000000000E+00  0.45593999997E+02  0.45594000000E+02  0.51100000000E-03 0. -1.
         11   -1    0    0    0    0 -0.00000000000E+00 -0.00000000000E+00 -0.45593999997E+02  0.45594000000E+02  0.51100000000E-03 0.  1.
    9900012    2    1    2    0    0  0.45435396774E+00 -0.47120213603E+00  0.98229932883E+00  0.90007584415E+02  0.89999843730E+02 0.  0.
        -12    1    1    2    0    0 -0.45435396774E+00  0.47120213603E+00 -0.98229932883E+00  0.11804155846E+01  0.00000000000E+00 0.  1.
         11    1    3    3    0    0 -0.19099330466E+01  0.27435182883E+01 -0.88449520159E+01  0.94555757766E+01  0.51100000000E-03 0. -1.
        -11    1    3    3    0    0 -0.28558689113E+02 -0.16706867679E+02 -0.17230253600E+02  0.37304152461E+02  0.51100000000E-03 0.  1.
         12    1    3    3    0    0  0.30922976127E+02  0.13492147255E+02  0.27057504945E+02  0.43247856177E+02  0.00000000000E+00 0. -1.
</event>
<event>
 7    1  0.2405891E-015  0.9000778E+02  0.7816164E-02  0.1186339E+00
        -11   -1    0    0    0    0  0.00000000000E+00  0.00000000000E+00  0.45593999997E+02  0.45594000000E+02  0.51100000000E-03 0.  1.
         11   -1    0    0    0    0 -0.00000000000E+00 -0.00000000000E+00 -0.45593999997E+02  0.45594000000E+02  0.51100000000E-03 0. -1.
    9900012    2    1    2    0    0 -0.52100051528E+00 -0.52199156157E+00 -0.92141779844E+00  0.90007776510E+02  0.90000038360E+02 0.  0.
        -12    1    1    2    0    0  0.52100051528E+00  0.52199156157E+00  0.92141779844E+00  0.11802234901E+01  0.00000000000E+00 0.  1.
         11    1    3    3    0    0  0.36627207658E+02 -0.24283943366E+01 -0.20065445303E+01  0.36762421861E+02  0.51100000000E-03 0. -1.
        -11    1    3    3    0    0  0.57738722280E+01  0.36400521158E+01  0.71238058943E+01  0.98659105303E+01  0.51100000000E-03 0.  1.
        -12    1    3    3    0    0 -0.42922080401E+02 -0.17336493408E+01 -0.60386791624E+01  0.43379444119E+02  0.00000000000E+00 0.  1.
</event>
<event>
 7    1  0.2405891E-015  0.9000776E+02  0.7816164E-02  0.1186339E+00
        -11   -1    0    0    0    0  0.00000000000E+00  0.00000000000E+00  0.45593999997E+02  0.45594000000E+02  0.51100000000E-03 0. -1.
         11   -1    0    0    0    0 -0.00000000000E+00 -0.00000000000E+00 -0.45593999997E+02  0.45594000000E+02  0.51100000000E-03 0.  1.
    9900012    2    1    2    0    0 -0.59673243617E-01 -0.24553208567E+00  0.11528716990E+01  0.90007762712E+02  0.90000024380E+02 0.  0.
        -12    1    1    2    0    0  0.59673243617E-01  0.24553208567E+00 -0.11528716990E+01  0.11802372878E+01  0.00000000000E+00 0.  1.
         11    1    3    3    0    0 -0.27576420266E+02  0.19835358129E+02  0.16963264687E+02  0.37969102385E+02  0.51100000000E-03 0. -1.
        -11    1    3    3    0    0 -0.74302838710E+00  0.89987392803E+01 -0.28264878677E+01  0.94614181678E+01  0.51100000000E-03 0.  1.
        -12    1    3    3    0    0  0.28259775410E+02 -0.29079629495E+02 -0.12983905120E+02  0.42577242160E+02  0.00000000000E+00 0.  1.
</event>
<event>
 7    1  0.2405891E-015  0.9000775E+02  0.7816164E-02  0.1186339E+00
        -11   -1    0    0    0    0  0.00000000000E+00  0.00000000000E+00  0.45593999997E+02  0.45594000000E+02  0.51100000000E-03 0. -1.
         11   -1    0    0    0    0 -0.00000000000E+00 -0.00000000000E+00 -0.45593999997E+02  0.45594000000E+02  0.51100000000E-03 0.  1.
    9900012    2    1    2    0    0  0.10342548704E+01 -0.51515058100E+00  0.24068816401E+00  0.90007748311E+02  0.90000009788E+02 0.  0.
        -12    1    1    2    0    0 -0.10342548704E+01  0.51515058100E+00 -0.24068816401E+00  0.11802516894E+01  0.00000000000E+00 0.  1.
         11    1    3    3    0    0 -0.96129859857E+00  0.22918519023E+02  0.34163190161E+02  0.41149801597E+02  0.51100000000E-03 0. -1.
        -11    1    3    3    0    0 -0.36543251465E+01  0.48341012047E+01 -0.83894922476E+01  0.10349212877E+02  0.51100000000E-03 0.  1.
        -12    1    3    3    0    0  0.56498786154E+01 -0.28267770809E+02 -0.25533009749E+02  0.38508733837E+02  0.00000000000E+00 0.  1.
</event>
<event>
 7    1  0.2405891E-015  0.9000772E+02  0.7816164E-02  0.1186339E+00
        -11   -1    0    0    0    0  0.00000000000E+00  0.00000000000E+00  0.45593999997E+02  0.45594000000E+02  0.51100000000E-03 0. -1.
         11   -1    0    0    0    0 -0.00000000000E+00 -0.00000000000E+00 -0.45593999997E+02  0.45594000000E+02  0.51100000000E-03 0.  1.
    9900012    2    1    2    0    0 -0.96124430391E+00 -0.26121585973E+00 -0.63311059652E+00  0.90007723183E+02  0.89999984329E+02 0.  0.
        -12    1    1    2    0    0  0.96124430391E+00  0.26121585973E+00  0.63311059652E+00  0.11802768169E+01  0.00000000000E+00 0.  1.
         11    1    3    3    0    0  0.64719672245E+01  0.65429547450E+01  0.60284005621E+01  0.11001737597E+02  0.51100000000E-03 0. -1.
        -11    1    3    3    0    0  0.31417871949E+01  0.32365975704E+02  0.11583871743E+02  0.34519752243E+02  0.51100000000E-03 0.  1.
         12    1    3    3    0    0 -0.10574998723E+02 -0.39170146309E+02 -0.18245382902E+02  0.44486233344E+02  0.00000000000E+00 0. -1.
</event>
<event>
 7    1  0.2405891E-015  0.9000769E+02  0.7816164E-02  0.1186339E+00
        -11   -1    0    0    0    0  0.00000000000E+00  0.00000000000E+00  0.45593999997E+02  0.45594000000E+02  0.51100000000E-03 0. -1.
         11   -1    0    0    0    0 -0.00000000000E+00 -0.00000000000E+00 -0.45593999997E+02  0.45594000000E+02  0.51100000000E-03 0.  1.
    9900012    2    1    2    0    0 -0.16718224933E+00  0.10753898545E+01 -0.45686129736E+00  0.90007688393E+02  0.89999949080E+02 0.  0.
        -12    1    1    2    0    0  0.16718224933E+00 -0.10753898545E+01  0.45686129736E+00  0.11803116066E+01  0.00000000000E+00 0.  1.
         11    1    3    3    0    0  0.31751758050E+02 -0.63871959494E+01 -0.12969341062E+02  0.34888024009E+02  0.51100000000E-03 0. -1.
        -11    1    3    3    0    0  0.48987022178E+01 -0.10048514352E+02 -0.28748804053E+01  0.11542740649E+02  0.51100000000E-03 0.  1.
        -12    1    3    3    0    0 -0.36817642518E+02  0.17511100156E+02  0.15387360170E+02  0.43576923735E+02  0.00000000000E+00 0.  1.
</event>
<event>
 7    1  0.2405891E-015  0.9000786E+02  0.7816164E-02  0.1186339E+00
        -11   -1    0    0    0    0  0.00000000000E+00  0.00000000000E+00  0.45593999997E+02  0.45594000000E+02  0.51100000000E-03 0.  1.
         11   -1    0    0    0    0 -0.00000000000E+00 -0.00000000000E+00 -0.45593999997E+02  0.45594000000E+02  0.51100000000E-03 0. -1.
    9900012    2    1    2    0    0  0.22564381486E+00 -0.10009025537E+01  0.58310869311E+00  0.90007857296E+02  0.90000120213E+02 0.  0.
        -12    1    1    2    0    0 -0.22564381486E+00  0.10009025537E+01 -0.58310869311E+00  0.11801427037E+01  0.00000000000E+00 0.  1.
         11    1    3    3    0    0 -0.38579813779E+02  0.25598408756E+01  0.48827142875E+01  0.38971729697E+02  0.51100000000E-03 0. -1.
        -11    1    3    3    0    0 -0.22563070832E+01  0.48404812590E+01 -0.72675415765E+01  0.90187771511E+01  0.51100000000E-03 0.  1.
        -12    1    3    3    0    0  0.41061764677E+02 -0.84012246883E+01  0.29679359821E+01  0.42017350448E+02  0.00000000000E+00 0.  1.
</event>
<event>
 7    1  0.2405891E-015  0.9000778E+02  0.7816164E-02  0.1186339E+00
        -11   -1    0    0    0    0  0.00000000000E+00  0.00000000000E+00  0.45593999997E+02  0.45594000000E+02  0.51100000000E-03 0.  1.
         11   -1    0    0    0    0 -0.00000000000E+00 -0.00000000000E+00 -0.45593999997E+02  0.45594000000E+02  0.51100000000E-03 0. -1.
    9900012    2    1    2    0    0  0.37609248420E+00  0.10554547427E+01 -0.37080185285E+00  0.90007777866E+02  0.90000039734E+02 0.  0.
        -12    1    1    2    0    0 -0.37609248420E+00 -0.10554547427E+01  0.37080185285E+00  0.11802221336E+01  0.00000000000E+00 0.  1.
         11    1    3    3    0    0  0.12239150828E+01 -0.19553591842E+01  0.13933753134E+02  0.14123415816E+02  0.51100000000E-03 0. -1.
        -11    1    3    3    0    0 -0.28136673002E+02 -0.15251157645E+02  0.11619787769E+02  0.34048342768E+02  0.51100000000E-03 0.  1.
         12    1    3    3    0    0  0.27288850404E+02  0.18261971572E+02 -0.25924342756E+02  0.41836019282E+02  0.00000000000E+00 0. -1.
</event>
<event>
 7    1  0.2405891E-015  0.9000778E+02  0.7816164E-02  0.1186339E+00
        -11   -1    0    0    0    0  0.00000000000E+00  0.00000000000E+00  0.45593999997E+02  0.45594000000E+02  0.51100000000E-03 0.  1.
         11   -1    0    0    0    0 -0.00000000000E+00 -0.00000000000E+00 -0.45593999997E+02  0.45594000000E+02  0.51100000000E-03 0. -1.
    9900012    2    1    2    0    0  0.91706131681E+00 -0.67217140547E+00 -0.31638244107E+00  0.90007782348E+02  0.90000044275E+02 0.  0.
        -12    1    1    2    0    0 -0.91706131681E+00  0.67217140547E+00  0.31638244107E+00  0.11802176520E+01  0.00000000000E+00 0.  1.
         11    1    3    3    0    0 -0.19666503990E+01 -0.37949538383E+01 -0.14814475061E+02  0.15418756760E+02  0.51100000000E-03 0. -1.
        -11    1    3    3    0    0 -0.81859003248E+01  0.29501495402E+02 -0.14481378703E+02  0.33868237694E+02  0.51100000000E-03 0.  1.
         12    1    3    3    0    0  0.11069612041E+02 -0.26378712969E+02  0.28979471323E+02  0.40720787895E+02  0.00000000000E+00 0. -1.
</event>
<event>
 7    1  0.2405891E-015  0.9000767E+02  0.7816164E-02  0.1186339E+00
        -11   -1    0    0    0    0  0.00000000000E+00  0.00000000000E+00  0.45593999997E+02  0.45594000000E+02  0.51100000000E-03 0.  1.
         11   -1    0    0    0    0 -0.00000000000E+00 -0.00000000000E+00 -0.45593999997E+02  0.45594000000E+02  0.51100000000E-03 0. -1.
    9900012    2    1    2    0    0  0.63070178145E+00  0.80355246244E+00 -0.59136228436E+00  0.90007665027E+02  0.89999925405E+02 0.  0.
        -12    1    1    2    0    0 -0.63070178145E+00 -0.80355246244E+00  0.59136228436E+00  0.11803349730E+01  0.00000000000E+00 0.  1.
         11    1    3    3    0    0  0.76312329336E+01  0.30075769897E+02 -0.24099994817E+02  0.39288642143E+02  0.51100000000E-03 0. -1.
        -11    1    3    3    0    0 -0.13795104721E+02  0.89011242683E-01  0.25979025297E+01  0.14037875020E+02  0.51100000000E-03 0.  1.
        -12    1    3    3    0    0  0.67945735687E+01 -0.29361228677E+02  0.20910730003E+02  0.36681147864E+02  0.00000000000E+00 0.  1.
</event>
<event>
 7    1  0.2405891E-015  0.9000825E+02  0.7816164E-02  0.1186338E+00
        -11   -1    0    0    0    0  0.00000000000E+00  0.00000000000E+00  0.45593999997E+02  0.45594000000E+02  0.51100000000E-03 0. -1.
         11   -1    0    0    0    0 -0.00000000000E+00 -0.00000000000E+00 -0.45593999997E+02  0.45594000000E+02  0.51100000000E-03 0.  1.
    9900012    2    1    2    0    0 -0.64811255557E+00 -0.75791077572E+00  0.63034570426E+00  0.90008248189E+02  0.90000516264E+02 0.  0.
        -12    1    1    2    0    0  0.64811255557E+00  0.75791077572E+00 -0.63034570426E+00  0.11797518110E+01  0.00000000000E+00 0.  1.
         11    1    3    3    0    0 -0.86075533216E+01 -0.12721068436E+02  0.10183624904E+02  0.18428829935E+02  0.51100000000E-03 0. -1.
        -11    1    3    3    0    0  0.17795364705E+02 -0.25496090277E+02 -0.10562058623E+02  0.32837215275E+02  0.51100000000E-03 0.  1.
         12    1    3    3    0    0 -0.98359239391E+01  0.37459247937E+02  0.10087794232E+01  0.38742202979E+02  0.00000000000E+00 0. -1.
</event>
<event>
 7    1  0.2405891E-015  0.9000766E+02  0.7816164E-02  0.1186339E+00
        -11   -1    0    0    0    0  0.00000000000E+00  0.00000000000E+00  0.45593999997E+02  0.45594000000E+02  0.51100000000E-03 0. -1.
         11   -1    0    0    0    0 -0.00000000000E+00 -0.00000000000E+00 -0.45593999997E+02  0.45594000000E+02  0.51100000000E-03 0.  1.
    9900012    2    1    2    0    0 -0.90579786432E+00 -0.23048323783E+00  0.72083452093E+00  0.90007663311E+02  0.89999923666E+02 0.  0.
        -12    1    1    2    0    0  0.90579786432E+00  0.23048323783E+00 -0.72083452093E+00  0.11803366895E+01  0.00000000000E+00 0.  1.
         11    1    3    3    0    0  0.21434688051E+02  0.24807578605E+02  0.15098096754E+02  0.36094519445E+02  0.51100000000E-03 0. -1.
        -11    1    3    3    0    0  0.89607781928E+01 -0.56819484509E+01  0.56429315312E+01  0.12017602113E+02  0.51100000000E-03 0.  1.
        -12    1    3    3    0    0 -0.31301264108E+02 -0.19356113392E+02 -0.20020193764E+02  0.41895541753E+02  0.00000000000E+00 0.  1.
</event>
<event>
 7    1  0.2405891E-015  0.9000767E+02  0.7816164E-02  0.1186339E+00
        -11   -1    0    0    0    0  0.00000000000E+00  0.00000000000E+00  0.45593999997E+02  0.45594000000E+02  0.51100000000E-03 0. -1.
         11   -1    0    0    0    0 -0.00000000000E+00 -0.00000000000E+00 -0.45593999997E+02  0.45594000000E+02  0.51100000000E-03 0.  1.
    9900012    2    1    2    0    0  0.17693183550E+00  0.56694315564E+00  0.10200262067E+01  0.90007668318E+02  0.89999928740E+02 0.  0.
        -12    1    1    2    0    0 -0.17693183550E+00 -0.56694315564E+00 -0.10200262067E+01  0.11803316815E+01  0.00000000000E+00 0.  1.
         11    1    3    3    0    0 -0.28343694376E+02  0.24562240115E+02  0.74423679121E+01  0.38236860367E+02  0.51100000000E-03 0. -1.
        -11    1    3    3    0    0 -0.52986139327E+01  0.36276515758E+01 -0.49004781405E+01  0.80777380392E+01  0.51100000000E-03 0.  1.
        -12    1    3    3    0    0  0.33819240144E+02 -0.27622948535E+02 -0.15218635649E+01  0.43693069912E+02  0.00000000000E+00 0.  1.
</event>
<event>
 7    1  0.2405891E-015  0.9000766E+02  0.7816164E-02  0.1186339E+00
        -11   -1    0    0    0    0  0.00000000000E+00  0.00000000000E+00  0.45593999997E+02  0.45594000000E+02  0.51100000000E-03 0.  1.
         11   -1    0    0    0    0 -0.00000000000E+00 -0.00000000000E+00 -0.45593999997E+02  0.45594000000E+02  0.51100000000E-03 0. -1.
    9900012    2    1    2    0    0 -0.81071473015E+00 -0.55466780409E+00 -0.65443908992E+00  0.90007658834E+02  0.89999919130E+02 0.  0.
        -12    1    1    2    0    0  0.81071473015E+00  0.55466780409E+00  0.65443908992E+00  0.11803411664E+01  0.00000000000E+00 0.  1.
         11    1    3    3    0    0 -0.45783421268E+01  0.54772368015E+01  0.78408582333E+01  0.10603791666E+02  0.51100000000E-03 0. -1.
        -11    1    3    3    0    0  0.44289705475E+01 -0.15401281486E+02  0.33092499011E+02  0.36768583636E+02  0.51100000000E-03 0.  1.
         12    1    3    3    0    0 -0.66134315083E+00  0.93693768802E+01 -0.41587796334E+02  0.42635283532E+02  0.00000000000E+00 0. -1.
</event>
<event>
 7    1  0.2405891E-015  0.9000778E+02  0.7816164E-02  0.1186339E+00
        -11   -1    0    0    0    0  0.00000000000E+00  0.00000000000E+00  0.45593999997E+02  0.45594000000E+02  0.51100000000E-03 0.  1.
         11   -1    0    0    0    0 -0.00000000000E+00 -0.00000000000E+00 -0.45593999997E+02  0.45594000000E+02  0.51100000000E-03 0. -1.
    9900012    2    1    2    0    0  0.39052870642E+00 -0.11121125169E+01  0.60019476205E-01  0.90007784232E+02  0.90000046184E+02 0.  0.
        -12    1    1    2    0    0 -0.39052870642E+00  0.11121125169E+01 -0.60019476205E-01  0.11802157677E+01  0.00000000000E+00 0.  1.
         11    1    3    3    0    0 -0.30528535851E+02  0.20420635277E+02  0.12260249368E+02  0.38720893083E+02  0.51100000000E-03 0. -1.
        -11    1    3    3    0    0 -0.49611788128E+01 -0.52930511987E+01  0.44685867973E+01  0.85204433236E+01  0.51100000000E-03 0.  1.
        -12    1    3    3    0    0  0.35880243371E+02 -0.16239696595E+02 -0.16668816689E+02  0.42766447826E+02  0.00000000000E+00 0.  1.
</event>
<event>
 7    1  0.2405891E-015  0.9000785E+02  0.7816164E-02  0.1186339E+00
        -11   -1    0    0    0    0  0.00000000000E+00  0.00000000000E+00  0.45593999997E+02  0.45594000000E+02  0.51100000000E-03 0.  1.
         11   -1    0    0    0    0 -0.00000000000E+00 -0.00000000000E+00 -0.45593999997E+02  0.45594000000E+02  0.51100000000E-03 0. -1.
    9900012    2    1    2    0    0 -0.83378860614E+00  0.82099826778E+00 -0.15336190569E+00  0.90007846845E+02  0.90000109623E+02 0.  0.
        -12    1    1    2    0    0  0.83378860614E+00 -0.82099826778E+00  0.15336190569E+00  0.11801531551E+01  0.00000000000E+00 0.  1.
         11    1    3    3    0    0 -0.35361024188E+02  0.16786583034E+02 -0.85721825573E+01  0.40070858684E+02  0.51100000000E-03 0. -1.
        -11    1    3    3    0    0  0.52651982632E+01  0.60838075777E+01 -0.65331493110E+01  0.10364220548E+02  0.51100000000E-03 0.  1.
        -12    1    3    3    0    0  0.29262037319E+02 -0.22049392344E+02  0.14951969963E+02  0.39572767613E+02  0.00000000000E+00 0.  1.
</event>
<event>
 7    1  0.2405891E-015  0.9000786E+02  0.7816164E-02  0.1186339E+00
        -11   -1    0    0    0    0  0.00000000000E+00  0.00000000000E+00  0.45593999997E+02  0.45594000000E+02  0.51100000000E-03 0. -1.
         11   -1    0    0    0    0 -0.00000000000E+00 -0.00000000000E+00 -0.45593999997E+02  0.45594000000E+02  0.51100000000E-03 0.  1.
    9900012    2    1    2    0    0  0.55373860884E+00  0.83865380235E+00  0.61867085909E+00  0.90007864296E+02  0.90000127305E+02 0.  0.
        -12    1    1    2    0    0 -0.55373860884E+00 -0.83865380235E+00 -0.61867085909E+00  0.11801357036E+01  0.00000000000E+00 0.  1.
         11    1    3    3    0    0 -0.21029764080E+02  0.32619794835E+01  0.30780737240E+02  0.37421187484E+02  0.51100000000E-03 0. -1.
        -11    1    3    3    0    0  0.16939187212E+01  0.66074458008E+00  0.86645364285E+01  0.88532556620E+01  0.51100000000E-03 0.  1.
        -12    1    3    3    0    0  0.19889583968E+02 -0.30840702612E+01 -0.38826602809E+02  0.43733421150E+02  0.00000000000E+00 0.  1.
</event>
<event>
 7    1  0.2405891E-015  0.9000782E+02  0.7816164E-02  0.1186339E+00
        -11   -1    0    0    0    0  0.00000000000E+00  0.00000000000E+00  0.45593999997E+02  0.45594000000E+02  0.51100000000E-03 0.  1.
         11   -1    0    0    0    0 -0.00000000000E+00 -0.00000000000E+00 -0.45593999997E+02  0.45594000000E+02  0.51100000000E-03 0. -1.
    9900012    2    1    2    0    0  0.72080284825E+00 -0.92592167075E-01 -0.92989548459E+00  0.90007815409E+02  0.90000077773E+02 0.  0.
        -12    1    1    2    0    0 -0.72080284825E+00  0.92592167075E-01  0.92989548459E+00  0.11801845905E+01  0.00000000000E+00 0.  1.
         11    1    3    3    0    0 -0.20982000934E+02  0.18957922051E+02 -0.23669915770E+02  0.36876985838E+02  0.51100000000E-03 0. -1.
        -11    1    3    3    0    0 -0.90948741693E+01 -0.37854385299E+01 -0.28759853739E+01  0.10262435050E+02  0.51100000000E-03 0.  1.
        -12    1    3    3    0    0  0.30797677951E+02 -0.15265075688E+02  0.25616005659E+02  0.42868394522E+02  0.00000000000E+00 0.  1.
</event>
<event>
 7    1  0.2405891E-015  0.9000775E+02  0.7816164E-02  0.1186339E+00
        -11   -1    0    0    0    0  0.00000000000E+00  0.00000000000E+00  0.45593999997E+02  0.45594000000E+02  0.51100000000E-03 0.  1.
         11   -1    0    0    0    0 -0.00000000000E+00 -0.00000000000E+00 -0.45593999997E+02  0.45594000000E+02  0.51100000000E-03 0. -1.
    9900012    2    1    2    0    0  0.72766726185E+00 -0.71042758985E+00 -0.59897794949E+00  0.90007753590E+02  0.90000015137E+02 0.  0.
        -12    1    1    2    0    0 -0.72766726185E+00  0.71042758985E+00  0.59897794949E+00  0.11802464100E+01  0.00000000000E+00 0.  1.
         11    1    3    3    0    0 -0.26561212198E+02  0.26268906978E+02 -0.25459721026E+01  0.37443763719E+02  0.51100000000E-03 0. -1.
        -11    1    3    3    0    0  0.23238511483E+01  0.78469746567E+01 -0.43266044753E+01  0.92571486954E+01  0.51100000000E-03 0.  1.
        -12    1    3    3    0    0  0.24965028312E+02 -0.34826309225E+02  0.62735986284E+01  0.43306841175E+02  0.00000000000E+00 0.  1.
</event>
<event>
 7    1  0.2405891E-015  0.9000772E+02  0.7816164E-02  0.1186339E+00
        -11   -1    0    0    0    0  0.00000000000E+00  0.00000000000E+00  0.45593999997E+02  0.45594000000E+02  0.51100000000E-03 0. -1.
         11   -1    0    0    0    0 -0.00000000000E+00 -0.00000000000E+00 -0.45593999997E+02  0.45594000000E+02  0.51100000000E-03 0.  1.
    9900012    2    1    2    0    0  0.39667412766E+00  0.10866485574E+01  0.23433994260E+00  0.90007715856E+02  0.89999976906E+02 0.  0.
        -12    1    1    2    0    0 -0.39667412766E+00 -0.10866485574E+01 -0.23433994260E+00  0.11802841436E+01  0.00000000000E+00 0.  1.
         11    1    3    3    0    0 -0.33757346134E+01  0.90554624888E+01  0.24929464526E+01  0.99805694899E+01  0.51100000000E-03 0. -1.
        -11    1    3    3    0    0  0.18163679133E+02  0.83305653922E+01 -0.35246991669E+02  0.40517502161E+02  0.51100000000E-03 0.  1.
         12    1    3    3    0    0 -0.14391270392E+02 -0.16299379324E+02  0.32988385159E+02  0.39509644205E+02  0.00000000000E+00 0. -1.
</event>
<event>
 7    1  0.2405891E-015  0.9000774E+02  0.7816164E-02  0.1186339E+00
        -11   -1    0    0    0    0  0.00000000000E+00  0.00000000000E+00  0.45593999997E+02  0.45594000000E+02  0.51100000000E-03 0.  1.
         11   -1    0    0    0    0 -0.00000000000E+00 -0.00000000000E+00 -0.45593999997E+02  0.45594000000E+02  0.51100000000E-03 0. -1.
    9900012    2    1    2    0    0  0.43149709957E+00  0.80942686360E+00 -0.74273741130E+00  0.90007737124E+02  0.89999998454E+02 0.  0.
        -12    1    1    2    0    0 -0.43149709957E+00 -0.80942686360E+00  0.74273741130E+00  0.11802628761E+01  0.00000000000E+00 0.  1.
         11    1    3    3    0    0 -0.36503022238E+02 -0.20286067270E+01 -0.19087008527E+02  0.41241966158E+02  0.51100000000E-03 0. -1.
        -11    1    3    3    0    0  0.26439109498E+01 -0.58169876191E+00 -0.59940174574E+01  0.65769965866E+01  0.51100000000E-03 0.  1.
        -12    1    3    3    0    0  0.34290608388E+02  0.34197323525E+01  0.24338288573E+02  0.42188774380E+02  0.00000000000E+00 0.  1.
</event>
<event>
 7    1  0.2405891E-015  0.9000772E+02  0.7816164E-02  0.1186339E+00
        -11   -1    0    0    0    0  0.00000000000E+00  0.00000000000E+00  0.45593999997E+02  0.45594000000E+02  0.51100000000E-03 0.  1.
         11   -1    0    0    0    0 -0.00000000000E+00 -0.00000000000E+00 -0.45593999997E+02  0.45594000000E+02  0.51100000000E-03 0. -1.
    9900012    2    1    2    0    0  0.81142837563E+00  0.10269854361E+00 -0.85093678566E+00  0.90007721892E+02  0.89999983021E+02 0.  0.
        -12    1    1    2    0    0 -0.81142837563E+00 -0.10269854361E+00  0.85093678566E+00  0.11802781083E+01  0.00000000000E+00 0.  1.
         11    1    3    3    0    0 -0.25205759494E+02 -0.17617680922E+02  0.21129136567E+02  0.37311571999E+02  0.51100000000E-03 0. -1.
        -11    1    3    3    0    0 -0.54348807681E+00 -0.95704673093E+01 -0.24311583239E+01  0.98893758583E+01  0.51100000000E-03 0.  1.
        -12    1    3    3    0    0  0.26560675947E+02  0.27290846775E+02 -0.19548915028E+02  0.42806774034E+02  0.00000000000E+00 0.  1.
</event>
<event>
 7    1  0.2405891E-015  0.9000780E+02  0.7816164E-02  0.1186339E+00
        -11   -1    0    0    0    0  0.00000000000E+00  0.00000000000E+00  0.45593999997E+02  0.45594000000E+02  0.51100000000E-03 0. -1.
         11   -1    0    0    0    0 -0.00000000000E+00 -0.00000000000E+00 -0.45593999997E+02  0.45594000000E+02  0.51100000000E-03 0.  1.
    9900012    2    1    2    0    0  0.92195953958E+00 -0.43283325025E+00  0.59625127849E+00  0.90007801033E+02  0.90000063206E+02 0.  0.
        -12    1    1    2    0    0 -0.92195953958E+00  0.43283325025E+00 -0.59625127849E+00  0.11801989672E+01  0.00000000000E+00 0.  1.
         11    1    3    3    0    0 -0.82628718316E+01  0.51590449768E+00  0.64552624498E+01  0.10498172313E+02  0.51100000000E-03 0. -1.
        -11    1    3    3    0    0 -0.22520551861E+02  0.28201303595E+02 -0.36869545393E+00  0.36091892679E+02  0.51100000000E-03 0.  1.
         12    1    3    3    0    0  0.31705383232E+02 -0.29150041343E+02 -0.54903157173E+01  0.43417736040E+02  0.00000000000E+00 0. -1.
</event>
<event>
 7    1  0.2405891E-015  0.9000767E+02  0.7816164E-02  0.1186339E+00
        -11   -1    0    0    0    0  0.00000000000E+00  0.00000000000E+00  0.45593999997E+02  0.45594000000E+02  0.51100000000E-03 0. -1.
         11   -1    0    0    0    0 -0.00000000000E+00 -0.00000000000E+00 -0.45593999997E+02  0.45594000000E+02  0.51100000000E-03 0.  1.
    9900012    2    1    2    0    0  0.99067066650E+00  0.64116786870E+00 -0.25727252547E-01  0.90007666786E+02  0.89999927187E+02 0.  0.
        -12    1    1    2    0    0 -0.99067066650E+00 -0.64116786870E+00  0.25727252547E-01  0.11803332143E+01  0.00000000000E+00 0.  1.
         11    1    3    3    0    0  0.32220413765E+02 -0.18257192475E+02  0.44865980284E+00  0.37036217898E+02  0.51100000000E-03 0. -1.
        -11    1    3    3    0    0  0.50769812143E+01  0.15485933743E+01 -0.10266932390E+02  0.11557844983E+02  0.51100000000E-03 0.  1.
        -12    1    3    3    0    0 -0.36306724313E+02  0.17349766969E+02  0.97925453351E+01  0.41413603905E+02  0.00000000000E+00 0.  1.
</event>
<event>
 7    1  0.2405891E-015  0.9000787E+02  0.7816164E-02  0.1186339E+00
        -11   -1    0    0    0    0  0.00000000000E+00  0.00000000000E+00  0.45593999997E+02  0.45594000000E+02  0.51100000000E-03 0. -1.
         11   -1    0    0    0    0 -0.00000000000E+00 -0.00000000000E+00 -0.45593999997E+02  0.45594000000E+02  0.51100000000E-03 0.  1.
    9900012    2    1    2    0    0  0.24758232308E+00 -0.11046021889E+01  0.33357881994E+00  0.90007865333E+02  0.90000128356E+02 0.  0.
        -12    1    1    2    0    0 -0.24758232308E+00  0.11046021889E+01 -0.33357881994E+00  0.11801346667E+01  0.00000000000E+00 0.  1.
         11    1    3    3    0    0  0.21374165739E+02  0.11043628874E+02  0.11948599147E+02  0.26862347656E+02  0.51100000000E-03 0. -1.
        -11    1    3    3    0    0 -0.55178045107E+01 -0.18965302458E+02 -0.31364647010E+02  0.37065751662E+02  0.51100000000E-03 0.  1.
         12    1    3    3    0    0 -0.15608778905E+02  0.68170713951E+01  0.19749626683E+02  0.26079766015E+02  0.00000000000E+00 0. -1.
</event>
<event>
 7    1  0.2405891E-015  0.9000721E+02  0.7816164E-02  0.1186340E+00
        -11   -1    0    0    0    0  0.00000000000E+00  0.00000000000E+00  0.45593999997E+02  0.45594000000E+02  0.51100000000E-03 0. -1.
         11   -1    0    0    0    0 -0.00000000000E+00 -0.00000000000E+00 -0.45593999997E+02  0.45594000000E+02  0.51100000000E-03 0.  1.
    9900012    2    1    2    0    0  0.14813508317E+00  0.11658595753E+01  0.11445496740E+00  0.90007206838E+02  0.89999461167E+02 0.  0.
        -12    1    1    2    0    0 -0.14813508317E+00 -0.11658595753E+01 -0.11445496740E+00  0.11807931621E+01  0.00000000000E+00 0.  1.
         11    1    3    3    0    0  0.10112277699E+02 -0.21988033895E+02  0.28809517288E+02  0.37626055885E+02  0.51100000000E-03 0. -1.
        -11    1    3    3    0    0  0.29934492159E+01 -0.71071664981E+01  0.13307131086E+01  0.78258131512E+01  0.51100000000E-03 0.  1.
        -12    1    3    3    0    0 -0.12957591832E+02  0.30261059968E+02 -0.30025775429E+02  0.44555337802E+02  0.00000000000E+00 0.  1.
</event>
<event>
 7    1  0.2405891E-015  0.9000772E+02  0.7816164E-02  0.1186339E+00
        -11   -1    0    0    0    0  0.00000000000E+00  0.00000000000E+00  0.45593999997E+02  0.45594000000E+02  0.51100000000E-03 0.  1.
         11   -1    0    0    0    0 -0.00000000000E+00 -0.00000000000E+00 -0.45593999997E+02  0.45594000000E+02  0.51100000000E-03 0. -1.
    9900012    2    1    2    0    0  0.67597804660E+00  0.65893146845E+00 -0.70847378750E+00  0.90007715243E+02  0.89999976284E+02 0.  0.
        -12    1    1    2    0    0 -0.67597804660E+00 -0.65893146845E+00  0.70847378750E+00  0.11802847568E+01  0.00000000000E+00 0.  1.
         11    1    3    3    0    0 -0.41675051171E+01 -0.54309950863E+01 -0.39310230880E+02  0.39901855328E+02  0.51100000000E-03 0. -1.
        -11    1    3    3    0    0  0.62188623694E+01 -0.48326046841E+01 -0.19273609171E+01  0.81082080368E+01  0.51100000000E-03 0.  1.
        -12    1    3    3    0    0 -0.13753792057E+01  0.10922531239E+02  0.40529118010E+02  0.41997651878E+02  0.00000000000E+00 0.  1.
</event>
<event>
 7    1  0.2405891E-015  0.9000750E+02  0.7816164E-02  0.1186340E+00
        -11   -1    0    0    0    0  0.00000000000E+00  0.00000000000E+00  0.45593999997E+02  0.45594000000E+02  0.51100000000E-03 0.  1.
         11   -1    0    0    0    0 -0.00000000000E+00 -0.00000000000E+00 -0.45593999997E+02  0.45594000000E+02  0.51100000000E-03 0. -1.
    9900012    2    1    2    0    0  0.14923577151E+00 -0.69472251737E+00 -0.94269552108E+00  0.90007497761E+02  0.89999755931E+02 0.  0.
        -12    1    1    2    0    0 -0.14923577151E+00  0.69472251737E+00  0.94269552108E+00  0.11805022393E+01  0.00000000000E+00 0.  1.
         11    1    3    3    0    0  0.30313237280E+01  0.21234996843E+01 -0.11162866492E+02  0.11760432094E+02  0.51100000000E-03 0. -1.
        -11    1    3    3    0    0  0.14051240102E+02 -0.32683869771E+02 -0.11774083485E+02  0.37474014113E+02  0.51100000000E-03 0.  1.
         12    1    3    3    0    0 -0.16933328059E+02  0.29865647569E+02  0.21994254456E+02  0.40773051553E+02  0.00000000000E+00 0. -1.
</event>
<event>
 7    1  0.2405891E-015  0.9000776E+02  0.7816164E-02  0.1186339E+00
        -11   -1    0    0    0    0  0.00000000000E+00  0.00000000000E+00  0.45593999997E+02  0.45594000000E+02  0.51100000000E-03 0.  1.
         11   -1    0    0    0    0 -0.00000000000E+00 -0.00000000000E+00 -0.45593999997E+02  0.45594000000E+02  0.51100000000E-03 0. -1.
    9900012    2    1    2    0    0 -0.20241328367E+00 -0.43790913462E+00 -0.10771388036E+01  0.90007761232E+02  0.90000022880E+02 0.  0.
        -12    1    1    2    0    0  0.20241328367E+00  0.43790913462E+00  0.10771388036E+01  0.11802387681E+01  0.00000000000E+00 0.  1.
         11    1    3    3    0    0  0.89278011385E+01 -0.33164983272E+02  0.78625101426E+01  0.35234085977E+02  0.51100000000E-03 0. -1.
        -11    1    3    3    0    0 -0.11958330481E+01 -0.34023115186E+01  0.11818748649E+02  0.12356721258E+02  0.51100000000E-03 0.  1.
        -12    1    3    3    0    0 -0.79343813740E+01  0.36129385656E+02 -0.20758397595E+02  0.42416953997E+02  0.00000000000E+00 0.  1.
</event>
<event>
 7    1  0.2405891E-015  0.9000774E+02  0.7816164E-02  0.1186339E+00
        -11   -1    0    0    0    0  0.00000000000E+00  0.00000000000E+00  0.45593999997E+02  0.45594000000E+02  0.51100000000E-03 0.  1.
         11   -1    0    0    0    0 -0.00000000000E+00 -0.00000000000E+00 -0.45593999997E+02  0.45594000000E+02  0.51100000000E-03 0. -1.
    9900012    2    1    2    0    0 -0.78807881996E+00  0.45675931852E+00 -0.75054488960E+00  0.90007739464E+02  0.90000000825E+02 0.  0.
        -12    1    1    2    0    0  0.78807881996E+00 -0.45675931852E+00  0.75054488960E+00  0.11802605360E+01  0.00000000000E+00 0.  1.
         11    1    3    3    0    0 -0.18346106632E+01 -0.35106016188E+01 -0.86443730840E+01  0.95086963507E+01  0.51100000000E-03 0. -1.
        -11    1    3    3    0    0  0.26390238334E+02  0.29733021389E+02  0.16985552095E+02  0.43232004585E+02  0.51100000000E-03 0.  1.
         12    1    3    3    0    0 -0.25343706490E+02 -0.25765660451E+02 -0.90917239009E+01  0.37267038528E+02  0.00000000000E+00 0. -1.
</event>
<event>
 7    1  0.2405891E-015  0.9000757E+02  0.7816164E-02  0.1186339E+00
        -11   -1    0    0    0    0  0.00000000000E+00  0.00000000000E+00  0.45593999997E+02  0.45594000000E+02  0.51100000000E-03 0. -1.
         11   -1    0    0    0    0 -0.00000000000E+00 -0.00000000000E+00 -0.45593999997E+02  0.45594000000E+02  0.51100000000E-03 0.  1.
    9900012    2    1    2    0    0 -0.57004200257E-02  0.94945845520E+00  0.70136906138E+00  0.90007566854E+02  0.89999825936E+02 0.  0.
        -12    1    1    2    0    0  0.57004200257E-02 -0.94945845520E+00 -0.70136906138E+00  0.11804331464E+01  0.00000000000E+00 0.  1.
         11    1    3    3    0    0  0.93090096735E+01  0.39466328683E+00  0.34081434711E+01  0.99211321124E+01  0.51100000000E-03 0. -1.
        -11    1    3    3    0    0 -0.46919379705E+01  0.29407592917E+02 -0.28418973013E+02  0.41163804858E+02  0.51100000000E-03 0.  1.
         12    1    3    3    0    0 -0.46227721230E+01 -0.28852797748E+02  0.25712198603E+02  0.38922629883E+02  0.00000000000E+00 0. -1.
</event>
<event>
 7    1  0.2405891E-015  0.9000768E+02  0.7816164E-02  0.1186339E+00
        -11   -1    0    0    0    0  0.00000000000E+00  0.00000000000E+00  0.45593999997E+02  0.45594000000E+02  0.51100000000E-03 0.  1.
         11   -1    0    0    0    0 -0.00000000000E+00 -0.00000000000E+00 -0.45593999997E+02  0.45594000000E+02  0.51100000000E-03 0. -1.
    9900012    2    1    2    0    0 -0.53129613187E+00 -0.63576288478E+00  0.84064285174E+00  0.90007682064E+02  0.89999942667E+02 0.  0.
        -12    1    1    2    0    0  0.53129613187E+00  0.63576288478E+00 -0.84064285174E+00  0.11803179358E+01  0.00000000000E+00 0.  1.
         11    1    3    3    0    0 -0.72025695731E+01  0.17844650507E+02  0.30873938217E+02  0.36380058019E+02  0.51100000000E-03 0. -1.
        -11    1    3    3    0    0  0.33298636624E+01  0.19421786400E+01  0.88095855442E+01  0.96160723584E+01  0.51100000000E-03 0.  1.
        -12    1    3    3    0    0  0.33414097788E+01 -0.20422592032E+02 -0.38842880909E+02  0.44011551687E+02  0.00000000000E+00 0.  1.
</event>
<event>
 7    1  0.2405891E-015  0.9000788E+02  0.7816164E-02  0.1186339E+00
        -11   -1    0    0    0    0  0.00000000000E+00  0.00000000000E+00  0.45593999997E+02  0.45594000000E+02  0.51100000000E-03 0. -1.
         11   -1    0    0    0    0 -0.00000000000E+00 -0.00000000000E+00 -0.45593999997E+02  0.45594000000E+02  0.51100000000E-03 0.  1.
    9900012    2    1    2    0    0 -0.10843872696E+01  0.43392098617E+00 -0.16882963822E+00  0.90007878557E+02  0.90000141754E+02 0.  0.
        -12    1    1    2    0    0  0.10843872696E+01 -0.43392098617E+00  0.16882963822E+00  0.11801214427E+01  0.00000000000E+00 0.  1.
         11    1    3    3    0    0  0.57564227185E+01  0.37015175673E+01 -0.85049416830E+01  0.10916577674E+02  0.51100000000E-03 0. -1.
        -11    1    3    3    0    0  0.66456505792E+01  0.13407436220E+02 -0.30924639304E+02  0.34354873511E+02  0.51100000000E-03 0.  1.
         12    1    3    3    0    0 -0.13486460567E+02 -0.16675032801E+02  0.39260751349E+02  0.44736427372E+02  0.00000000000E+00 0. -1.
</event>
<event>
 7    1  0.2405891E-015  0.9000774E+02  0.7816164E-02  0.1186339E+00
        -11   -1    0    0    0    0  0.00000000000E+00  0.00000000000E+00  0.45593999997E+02  0.45594000000E+02  0.51100000000E-03 0.  1.
         11   -1    0    0    0    0 -0.00000000000E+00 -0.00000000000E+00 -0.45593999997E+02  0.45594000000E+02  0.51100000000E-03 0. -1.
    9900012    2    1    2    0    0  0.96182206082E+00  0.32773699017E+00 -0.60041679110E+00  0.90007740056E+02  0.90000001425E+02 0.  0.
        -12    1    1    2    0    0 -0.96182206082E+00 -0.32773699017E+00  0.60041679110E+00  0.11802599436E+01  0.00000000000E+00 0.  1.
         11    1    3    3    0    0 -0.76357896643E+01  0.14587742330E+02  0.89121086558E+01  0.18722531641E+02  0.51100000000E-03 0. -1.
        -11    1    3    3    0    0  0.38915815647E+01 -0.42156516655E+02 -0.48450762756E+01  0.42612100018E+02  0.51100000000E-03 0.  1.
         12    1    3    3    0    0  0.47060301604E+01  0.27896511315E+02 -0.46674491713E+01  0.28673108398E+02  0.00000000000E+00 0. -1.
</event>
<event>
 7    1  0.2405891E-015  0.9000776E+02  0.7816164E-02  0.1186339E+00
        -11   -1    0    0    0    0  0.00000000000E+00  0.00000000000E+00  0.45593999997E+02  0.45594000000E+02  0.51100000000E-03 0.  1.
         11   -1    0    0    0    0 -0.00000000000E+00 -0.00000000000E+00 -0.45593999997E+02  0.45594000000E+02  0.51100000000E-03 0. -1.
    9900012    2    1    2    0    0 -0.11170042398E+01 -0.14470138556E+00 -0.35259536532E+00  0.90007762543E+02  0.90000024209E+02 0.  0.
        -12    1    1    2    0    0  0.11170042398E+01  0.14470138556E+00  0.35259536532E+00  0.11802374567E+01  0.00000000000E+00 0.  1.
         11    1    3    3    0    0 -0.16879635027E+02 -0.26880915722E+02  0.26365594432E+02  0.41263183090E+02  0.51100000000E-03 0. -1.
        -11    1    3    3    0    0  0.85762816547E+01  0.14620269075E+01  0.28813907321E+01  0.91647445416E+01  0.51100000000E-03 0.  1.
        -12    1    3    3    0    0  0.71863491323E+01  0.25274187429E+02 -0.29599580530E+02  0.39579834911E+02  0.00000000000E+00 0.  1.
</event>
<event>
 7    1  0.2405891E-015  0.9000774E+02  0.7816164E-02  0.1186339E+00
        -11   -1    0    0    0    0  0.00000000000E+00  0.00000000000E+00  0.45593999997E+02  0.45594000000E+02  0.51100000000E-03 0.  1.
         11   -1    0    0    0    0 -0.00000000000E+00 -0.00000000000E+00 -0.45593999997E+02  0.45594000000E+02  0.51100000000E-03 0. -1.
    9900012    2    1    2    0    0  0.10146962414E+00  0.33368825549E+00 -0.11275477115E+01  0.90007742495E+02  0.90000003896E+02 0.  0.
        -12    1    1    2    0    0 -0.10146962414E+00 -0.33368825549E+00  0.11275477115E+01  0.11802575050E+01  0.00000000000E+00 0.  1.
         11    1    3    3    0    0  0.16581733372E+02  0.15130673694E+02 -0.51590008230E+01  0.23032725801E+02  0.51100000000E-03 0. -1.
        -11    1    3    3    0    0  0.16654211026E+02  0.13697300262E+02  0.82118149779E+01  0.23074069534E+02  0.51100000000E-03 0.  1.
        -12    1    3    3    0    0 -0.33134474774E+02 -0.28494285701E+02 -0.41803618664E+01  0.43900947160E+02  0.00000000000E+00 0.  1.
</event>
<event>
 7    1  0.2405891E-015  0.9000776E+02  0.7816164E-02  0.1186339E+00
        -11   -1    0    0    0    0  0.00000000000E+00  0.00000000000E+00  0.45593999997E+02  0.45594000000E+02  0.51100000000E-03 0.  1.
         11   -1    0    0    0    0 -0.00000000000E+00 -0.00000000000E+00 -0.45593999997E+02  0.45594000000E+02  0.51100000000E-03 0. -1.
    9900012    2    1    2    0    0  0.10330523875E+00 -0.87537145673E+00 -0.78486208548E+00  0.90007764577E+02  0.90000026270E+02 0.  0.
        -12    1    1    2    0    0 -0.10330523875E+00  0.87537145673E+00  0.78486208548E+00  0.11802354226E+01  0.00000000000E+00 0.  1.
         11    1    3    3    0    0  0.11369067085E+02 -0.11012107948E+01 -0.66236963719E+00  0.11441463429E+02  0.51100000000E-03 0. -1.
        -11    1    3    3    0    0  0.20527725109E+02 -0.50518358684E+01  0.28485005598E+02  0.35472582200E+02  0.51100000000E-03 0.  1.
         12    1    3    3    0    0 -0.31793486955E+02  0.52776752065E+01 -0.28607498046E+02  0.43093718948E+02  0.00000000000E+00 0. -1.
</event>
<event>
 7    1  0.2405891E-015  0.9000786E+02  0.7816164E-02  0.1186339E+00
        -11   -1    0    0    0    0  0.00000000000E+00  0.00000000000E+00  0.45593999997E+02  0.45594000000E+02  0.51100000000E-03 0.  1.
         11   -1    0    0    0    0 -0.00000000000E+00 -0.00000000000E+00 -0.45593999997E+02  0.45594000000E+02  0.51100000000E-03 0. -1.
    9900012    2    1    2    0    0  0.18561831524E+00 -0.35000716991E+00 -0.11116569391E+01  0.90007855802E+02  0.90000118698E+02 0.  0.
        -12    1    1    2    0    0 -0.18561831524E+00  0.35000716991E+00  0.11116569391E+01  0.11801441980E+01  0.00000000000E+00 0.  1.
         11    1    3    3    0    0  0.60747803776E+01  0.10922499574E+02 -0.35134134002E+02  0.37290901382E+02  0.51100000000E-03 0. -1.
        -11    1    3    3    0    0  0.13911424870E+02  0.91454280583E-01  0.30540920650E+01  0.14243018795E+02  0.51100000000E-03 0.  1.
        -12    1    3    3    0    0 -0.19800586933E+02 -0.11363961025E+02  0.30968384998E+02  0.38473935624E+02  0.00000000000E+00 0.  1.
</event>
<event>
 7    1  0.2405891E-015  0.9000774E+02  0.7816164E-02  0.1186339E+00
        -11   -1    0    0    0    0  0.00000000000E+00  0.00000000000E+00  0.45593999997E+02  0.45594000000E+02  0.51100000000E-03 0. -1.
         11   -1    0    0    0    0 -0.00000000000E+00 -0.00000000000E+00 -0.45593999997E+02  0.45594000000E+02  0.51100000000E-03 0.  1.
    9900012    2    1    2    0    0 -0.94634235193E+00 -0.21702837345E+00  0.67107806377E+00  0.90007741160E+02  0.90000002543E+02 0.  0.
        -12    1    1    2    0    0  0.94634235193E+00  0.21702837345E+00 -0.67107806377E+00  0.11802588401E+01  0.00000000000E+00 0.  1.
         11    1    3    3    0    0 -0.34604921897E+01  0.26803019458E+01  0.94756617277E+01  0.10437777070E+02  0.51100000000E-03 0. -1.
        -11    1    3    3    0    0  0.32398738179E+02 -0.88462996623E+01  0.18770444121E+02  0.38474209882E+02  0.51100000000E-03 0.  1.
         12    1    3    3    0    0 -0.29884588341E+02  0.59489693431E+01 -0.27575027785E+02  0.41095754208E+02  0.00000000000E+00 0. -1.
</event>
<event>
 7    1  0.2405891E-015  0.9000777E+02  0.7816164E-02  0.1186339E+00
        -11   -1    0    0    0    0  0.00000000000E+00  0.00000000000E+00  0.45593999997E+02  0.45594000000E+02  0.51100000000E-03 0. -1.
         11   -1    0    0    0    0 -0.00000000000E+00 -0.00000000000E+00 -0.45593999997E+02  0.45594000000E+02  0.51100000000E-03 0.  1.
    9900012    2    1    2    0    0 -0.75092921761E+00  0.83154739885E+00 -0.37091876164E+00  0.90007768457E+02  0.90000030201E+02 0.  0.
        -12    1    1    2    0    0  0.75092921761E+00 -0.83154739885E+00  0.37091876164E+00  0.11802315426E+01  0.00000000000E+00 0.  1.
         11    1    3    3    0    0 -0.31144672841E+02 -0.37069760737E+01 -0.47425461654E+00  0.31368092637E+02  0.51100000000E-03 0. -1.
        -11    1    3    3    0    0 -0.80391475036E+01  0.16200668107E+02  0.31624053601E+01  0.18360020360E+02  0.51100000000E-03 0.  1.
        -12    1    3    3    0    0  0.38432891127E+02 -0.11662144634E+02 -0.30590695052E+01  0.40279655461E+02  0.00000000000E+00 0.  1.
</event>
<event>
 7    1  0.2405891E-015  0.9000786E+02  0.7816164E-02  0.1186339E+00
        -11   -1    0    0    0    0  0.00000000000E+00  0.00000000000E+00  0.45593999997E+02  0.45594000000E+02  0.51100000000E-03 0. -1.
         11   -1    0    0    0    0 -0.00000000000E+00 -0.00000000000E+00 -0.45593999997E+02  0.45594000000E+02  0.51100000000E-03 0.  1.
    9900012    2    1    2    0    0  0.29247889266E+00 -0.10570436738E+01  0.43571358640E+00  0.90007859517E+02  0.90000122462E+02 0.  0.
        -12    1    1    2    0    0 -0.29247889266E+00  0.10570436738E+01 -0.43571358640E+00  0.11801404833E+01  0.00000000000E+00 0.  1.
         11    1    3    3    0    0  0.19341123019E+02 -0.46288556230E+01  0.32238075326E+02  0.37878738694E+02  0.51100000000E-03 0. -1.
        -11    1    3    3    0    0  0.28059988027E+01  0.78732368476E+01  0.45342361823E+01  0.95089844756E+01  0.51100000000E-03 0.  1.
        -12    1    3    3    0    0 -0.21854642929E+02 -0.43014248984E+01 -0.36336597922E+02  0.42620136347E+02  0.00000000000E+00 0.  1.
</event>
<event>
 7    1  0.2405891E-015  0.9000770E+02  0.7816164E-02  0.1186339E+00
        -11   -1    0    0    0    0  0.00000000000E+00  0.00000000000E+00  0.45593999997E+02  0.45594000000E+02  0.51100000000E-03 0. -1.
         11   -1    0    0    0    0 -0.00000000000E+00 -0.00000000000E+00 -0.45593999997E+02  0.45594000000E+02  0.51100000000E-03 0.  1.
    9900012    2    1    2    0    0 -0.94624059247E+00  0.64550505126E+00  0.28471849611E+00  0.90007698067E+02  0.89999958882E+02 0.  0.
        -12    1    1    2    0    0  0.94624059247E+00 -0.64550505126E+00 -0.28471849611E+00  0.11803019326E+01  0.00000000000E+00 0.  1.
         11    1    3    3    0    0  0.64203256807E+01  0.19588227973E+02  0.24283600386E+01  0.20756112104E+02  0.51100000000E-03 0. -1.
        -11    1    3    3    0    0 -0.17350074459E+02  0.21460542372E+02 -0.11820432019E+01  0.27622041725E+02  0.51100000000E-03 0.  1.
         12    1    3    3    0    0  0.99835081862E+01 -0.40403265294E+02 -0.96159834053E+00  0.41629544238E+02  0.00000000000E+00 0. -1.
</event>
<event>
 7    1  0.2405891E-015  0.9000789E+02  0.7816164E-02  0.1186339E+00
        -11   -1    0    0    0    0  0.00000000000E+00  0.00000000000E+00  0.45593999997E+02  0.45594000000E+02  0.51100000000E-03 0. -1.
         11   -1    0    0    0    0 -0.00000000000E+00 -0.00000000000E+00 -0.45593999997E+02  0.45594000000E+02  0.51100000000E-03 0.  1.
    9900012    2    1    2    0    0  0.30275877299E+00 -0.42282511996E+00  0.10593459274E+01  0.90007890789E+02  0.90000154147E+02 0.  0.
        -12    1    1    2    0    0 -0.30275877299E+00  0.42282511996E+00 -0.10593459274E+01  0.11801092113E+01  0.00000000000E+00 0.  1.
         11    1    3    3    0    0  0.16214201835E+02 -0.33657431084E+02 -0.14705314198E+02  0.40149337158E+02  0.51100000000E-03 0. -1.
        -11    1    3    3    0    0  0.61335381626E+01  0.57388276231E+01 -0.41607801620E+01  0.93737145624E+01  0.51100000000E-03 0.  1.
        -12    1    3    3    0    0 -0.22044981225E+02  0.27495778341E+02  0.19925440287E+02  0.40484839068E+02  0.00000000000E+00 0.  1.
</event>
<event>
 7    1  0.2405891E-015  0.9000674E+02  0.7816164E-02  0.1186341E+00
        -11   -1    0    0    0    0  0.00000000000E+00  0.00000000000E+00  0.45593999997E+02  0.45594000000E+02  0.51100000000E-03 0. -1.
         11   -1    0    0    0    0 -0.00000000000E+00 -0.00000000000E+00 -0.45593999997E+02  0.45594000000E+02  0.51100000000E-03 0.  1.
    9900012    2    1    2    0    0 -0.15006562251E+00  0.11081977146E+01  0.38045860801E+00  0.90006741934E+02  0.89998990122E+02 0.  0.
        -12    1    1    2    0    0  0.15006562251E+00 -0.11081977146E+01 -0.38045860801E+00  0.11812580658E+01  0.00000000000E+00 0.  1.
         11    1    3    3    0    0 -0.23138914786E+01  0.84580859505E+01  0.64662752667E+00  0.87926923715E+01  0.51100000000E-03 0. -1.
        -11    1    3    3    0    0 -0.26742656057E+02  0.21104349791E+02 -0.16089622667E+02  0.37675445464E+02  0.51100000000E-03 0.  1.
         12    1    3    3    0    0  0.28906481913E+02 -0.28454238027E+02  0.15823453749E+02  0.43538604098E+02  0.00000000000E+00 0. -1.
</event>
<event>
 7    1  0.2405891E-015  0.9000774E+02  0.7816164E-02  0.1186339E+00
        -11   -1    0    0    0    0  0.00000000000E+00  0.00000000000E+00  0.45593999997E+02  0.45594000000E+02  0.51100000000E-03 0.  1.
         11   -1    0    0    0    0 -0.00000000000E+00 -0.00000000000E+00 -0.45593999997E+02  0.45594000000E+02  0.51100000000E-03 0. -1.
    9900012    2    1    2    0    0 -0.88808942759E+00 -0.57147049507E+00 -0.52700204888E+00  0.90007740487E+02  0.90000001862E+02 0.  0.
        -12    1    1    2    0    0  0.88808942759E+00  0.57147049507E+00  0.52700204888E+00  0.11802595128E+01  0.00000000000E+00 0.  1.
         11    1    3    3    0    0  0.22892390459E+01 -0.19144905747E+01  0.85117200846E+01  0.90197155515E+01  0.51100000000E-03 0. -1.
        -11    1    3    3    0    0 -0.10858416326E+02 -0.32482019227E+02  0.16400381689E+02  0.37973139164E+02  0.51100000000E-03 0.  1.
         12    1    3    3    0    0  0.76810878527E+01  0.33825039306E+02 -0.25439103823E+02  0.43014885772E+02  0.00000000000E+00 0. -1.
</event>
<event>
 7    1  0.2405891E-015  0.9000772E+02  0.7816164E-02  0.1186339E+00
        -11   -1    0    0    0    0  0.00000000000E+00  0.00000000000E+00  0.45593999997E+02  0.45594000000E+02  0.51100000000E-03 0.  1.
         11   -1    0    0    0    0 -0.00000000000E+00 -0.00000000000E+00 -0.45593999997E+02  0.45594000000E+02  0.51100000000E-03 0. -1.
    9900012    2    1    2    0    0 -0.12003408010E+00 -0.11687152330E+01 -0.11294298515E+00  0.90007720544E+02  0.89999981655E+02 0.  0.
        -12    1    1    2    0    0  0.12003408010E+00  0.11687152330E+01  0.11294298515E+00  0.11802794559E+01  0.00000000000E+00 0.  1.
         11    1    3    3    0    0 -0.33538105770E+02 -0.13396535181E+02 -0.74566828510E+01  0.36876466925E+02  0.51100000000E-03 0. -1.
        -11    1    3    3    0    0 -0.74921046210E+01 -0.37315469384E+01  0.34258125682E+01  0.90439076852E+01  0.51100000000E-03 0.  1.
        -12    1    3    3    0    0  0.40910176311E+02  0.15959366886E+02  0.39179272977E+01  0.44087345934E+02  0.00000000000E+00 0.  1.
</event>
<event>
 7    1  0.2405891E-015  0.9000793E+02  0.7816164E-02  0.1186339E+00
        -11   -1    0    0    0    0  0.00000000000E+00  0.00000000000E+00  0.45593999997E+02  0.45594000000E+02  0.51100000000E-03 0. -1.
         11   -1    0    0    0    0 -0.00000000000E+00 -0.00000000000E+00 -0.45593999997E+02  0.45594000000E+02  0.51100000000E-03 0.  1.
    9900012    2    1    2    0    0  0.22405854202E+00  0.79801535322E+00  0.83995972220E+00  0.90007930905E+02  0.90000194793E+02 0.  0.
        -12    1    1    2    0    0 -0.22405854202E+00 -0.79801535322E+00 -0.83995972220E+00  0.11800690951E+01  0.00000000000E+00 0.  1.
         11    1    3    3    0    0 -0.22419870971E+02  0.24883130633E+02  0.38971435059E+01  0.33719557118E+02  0.51100000000E-03 0.  1.
        -11    1    3    3    0    0 -0.11972847270E+02 -0.45684159109E+01 -0.96027162402E+01  0.16013483542E+02  0.51100000000E-03 0. -1.
        -12    1    3    3    0    0  0.34616776784E+02 -0.19516699368E+02  0.65455324565E+01  0.40274890245E+02  0.00000000000E+00 0.  1.
</event>
<event>
 7    1  0.2405891E-015  0.9000786E+02  0.7816164E-02  0.1186339E+00
        -11   -1    0    0    0    0  0.00000000000E+00  0.00000000000E+00  0.45593999997E+02  0.45594000000E+02  0.51100000000E-03 0.  1.
         11   -1    0    0    0    0 -0.00000000000E+00 -0.00000000000E+00 -0.45593999997E+02  0.45594000000E+02  0.51100000000E-03 0. -1.
    9900012    2    1    2    0    0 -0.73800889728E+00  0.57382371907E+00 -0.72027992164E+00  0.90007858501E+02  0.90000121433E+02 0.  0.
        -12    1    1    2    0    0  0.73800889728E+00 -0.57382371907E+00  0.72027992164E+00  0.11801414994E+01  0.00000000000E+00 0.  1.
         11    1    3    3    0    0  0.76620939040E+01  0.43110618599E+01 -0.97345115666E-01  0.87921791204E+01  0.51100000000E-03 0. -1.
        -11    1    3    3    0    0  0.86951819259E+01  0.12848482745E+02  0.35045223734E+02  0.38325675524E+02  0.51100000000E-03 0.  1.
         12    1    3    3    0    0 -0.17095284727E+02 -0.16585720885E+02 -0.35668158540E+02  0.42890003856E+02  0.00000000000E+00 0. -1.
</event>
<event>
 7    1  0.2405891E-015  0.9000761E+02  0.7816164E-02  0.1186339E+00
        -11   -1    0    0    0    0  0.00000000000E+00  0.00000000000E+00  0.45593999997E+02  0.45594000000E+02  0.51100000000E-03 0. -1.
         11   -1    0    0    0    0 -0.00000000000E+00 -0.00000000000E+00 -0.45593999997E+02  0.45594000000E+02  0.51100000000E-03 0.  1.
    9900012    2    1    2    0    0 -0.54956655914E+00  0.17292027457E+00  0.10302423526E+01  0.90007608485E+02  0.89999868117E+02 0.  0.
        -12    1    1    2    0    0  0.54956655914E+00 -0.17292027457E+00 -0.10302423526E+01  0.11803915153E+01  0.00000000000E+00 0.  1.
         11    1    3    3    0    0 -0.19758360327E+02 -0.11746134638E+02  0.29488044172E+02  0.37388624354E+02  0.51100000000E-03 0. -1.
        -11    1    3    3    0    0 -0.39508475578E+01  0.74717186827E+01  0.63521096871E+01  0.10572846080E+02  0.51100000000E-03 0.  1.
        -12    1    3    3    0    0  0.23159641325E+02  0.44473362303E+01 -0.34809911506E+02  0.42046138050E+02  0.00000000000E+00 0.  1.
</event>
<event>
 7    1  0.2405891E-015  0.9000781E+02  0.7816164E-02  0.1186339E+00
        -11   -1    0    0    0    0  0.00000000000E+00  0.00000000000E+00  0.45593999997E+02  0.45594000000E+02  0.51100000000E-03 0.  1.
         11   -1    0    0    0    0 -0.00000000000E+00 -0.00000000000E+00 -0.45593999997E+02  0.45594000000E+02  0.51100000000E-03 0. -1.
    9900012    2    1    2    0    0 -0.36359307091E+00  0.78822486969E+00  0.79959318087E+00  0.90007810345E+02  0.90000072642E+02 0.  0.
        -12    1    1    2    0    0  0.36359307091E+00 -0.78822486969E+00 -0.79959318087E+00  0.11801896548E+01  0.00000000000E+00 0.  1.
         11    1    3    3    0    0  0.35831957045E+01 -0.15637792586E+00  0.89250360672E+01  0.96187324827E+01  0.51100000000E-03 0. -1.
        -11    1    3    3    0    0 -0.20928017789E+02  0.48377923968E+01  0.30910998558E+02  0.37641413310E+02  0.51100000000E-03 0.  1.
         12    1    3    3    0    0  0.16981229013E+02 -0.38931896013E+01 -0.39036441444E+02  0.42747664553E+02  0.00000000000E+00 0. -1.
</event>
<event>
 7    1  0.2405891E-015  0.9000772E+02  0.7816164E-02  0.1186339E+00
        -11   -1    0    0    0    0  0.00000000000E+00  0.00000000000E+00  0.45593999997E+02  0.45594000000E+02  0.51100000000E-03 0.  1.
         11   -1    0    0    0    0 -0.00000000000E+00 -0.00000000000E+00 -0.45593999997E+02  0.45594000000E+02  0.51100000000E-03 0. -1.
    9900012    2    1    2    0    0 -0.94756759486E-01  0.10957186609E+00 -0.11713552273E+01  0.90007721259E+02  0.89999982380E+02 0.  0.
        -12    1    1    2    0    0  0.94756759486E-01 -0.10957186609E+00  0.11713552273E+01  0.11802787407E+01  0.00000000000E+00 0.  1.
         11    1    3    3    0    0  0.89273847760E+01  0.76281007467E+01  0.16863897059E+01  0.11862968871E+02  0.51100000000E-03 0. -1.
        -11    1    3    3    0    0 -0.90882336294E+00 -0.23209531088E+02 -0.34685085630E+02  0.41744023029E+02  0.51100000000E-03 0.  1.
         12    1    3    3    0    0 -0.81133181725E+01  0.15691002208E+02  0.31827340697E+02  0.36400729359E+02  0.00000000000E+00 0. -1.
</event>
<event>
 7    1  0.2405891E-015  0.9000775E+02  0.7816164E-02  0.1186339E+00
        -11   -1    0    0    0    0  0.00000000000E+00  0.00000000000E+00  0.45593999997E+02  0.45594000000E+02  0.51100000000E-03 0.  1.
         11   -1    0    0    0    0 -0.00000000000E+00 -0.00000000000E+00 -0.45593999997E+02  0.45594000000E+02  0.51100000000E-03 0. -1.
    9900012    2    1    2    0    0 -0.40805259447E+00  0.49699378992E+00 -0.98968142317E+00  0.90007754658E+02  0.90000016220E+02 0.  0.
        -12    1    1    2    0    0  0.40805259447E+00 -0.49699378992E+00  0.98968142317E+00  0.11802453416E+01  0.00000000000E+00 0.  1.
         11    1    3    3    0    0 -0.11290941930E+01  0.79947620496E+01 -0.15062693576E-01  0.80741130208E+01  0.51100000000E-03 0. -1.
        -11    1    3    3    0    0  0.11880495076E+02  0.59049797480E+01  0.37453079477E+02  0.39733463373E+02  0.51100000000E-03 0.  1.
         12    1    3    3    0    0 -0.11159453478E+02 -0.13402748008E+02 -0.38427698206E+02  0.42200178264E+02  0.00000000000E+00 0. -1.
</event>
<event>
 7    1  0.2405891E-015  0.9000781E+02  0.7816164E-02  0.1186339E+00
        -11   -1    0    0    0    0  0.00000000000E+00  0.00000000000E+00  0.45593999997E+02  0.45594000000E+02  0.51100000000E-03 0. -1.
         11   -1    0    0    0    0 -0.00000000000E+00 -0.00000000000E+00 -0.45593999997E+02  0.45594000000E+02  0.51100000000E-03 0.  1.
    9900012    2    1    2    0    0  0.39899047022E+00  0.99867751726E+00  0.48610814313E+00  0.90007808784E+02  0.90000071060E+02 0.  0.
        -12    1    1    2    0    0 -0.39899047022E+00 -0.99867751726E+00 -0.48610814313E+00  0.11801912157E+01  0.00000000000E+00 0.  1.
         11    1    3    3    0    0  0.38285048959E+01 -0.47602421994E+01 -0.42787599582E+01  0.74582265034E+01  0.51100000000E-03 0. -1.
        -11    1    3    3    0    0 -0.62267090182E+01 -0.32588919198E+02 -0.18120756452E+02  0.37804383005E+02  0.51100000000E-03 0.  1.
         12    1    3    3    0    0  0.27971945926E+01  0.38347838915E+02  0.22885624554E+02  0.44745199276E+02  0.00000000000E+00 0. -1.
</event>
<event>
 7    1  0.2405891E-015  0.9000771E+02  0.7816164E-02  0.1186339E+00
        -11   -1    0    0    0    0  0.00000000000E+00  0.00000000000E+00  0.45593999997E+02  0.45594000000E+02  0.51100000000E-03 0.  1.
         11   -1    0    0    0    0 -0.00000000000E+00 -0.00000000000E+00 -0.45593999997E+02  0.45594000000E+02  0.51100000000E-03 0. -1.
    9900012    2    1    2    0    0 -0.79758660454E-01  0.40974319037E-01 -0.11768809135E+01  0.90007708077E+02  0.89999969024E+02 0.  0.
        -12    1    1    2    0    0  0.79758660454E-01 -0.40974319037E-01  0.11768809135E+01  0.11802919229E+01  0.00000000000E+00 0.  1.
         11    1    3    3    0    0  0.27867869905E+02  0.21437625939E+02 -0.60065303597E+01  0.35668871389E+02  0.51100000000E-03 0. -1.
        -11    1    3    3    0    0  0.19750298271E+01  0.93774111062E+01 -0.42212973221E+01  0.10471672895E+02  0.51100000000E-03 0.  1.
        -12    1    3    3    0    0 -0.29922658392E+02 -0.30774062726E+02  0.90509467683E+01  0.43867163794E+02  0.00000000000E+00 0.  1.
</event>
<event>
 7    1  0.2405891E-015  0.9000775E+02  0.7816164E-02  0.1186339E+00
        -11   -1    0    0    0    0  0.00000000000E+00  0.00000000000E+00  0.45593999997E+02  0.45594000000E+02  0.51100000000E-03 0.  1.
         11   -1    0    0    0    0 -0.00000000000E+00 -0.00000000000E+00 -0.45593999997E+02  0.45594000000E+02  0.51100000000E-03 0. -1.
    9900012    2    1    2    0    0 -0.70318332531E-01 -0.53186518629E+00 -0.10512702201E+01  0.90007748196E+02  0.90000009673E+02 0.  0.
        -12    1    1    2    0    0  0.70318332531E-01  0.53186518629E+00  0.10512702201E+01  0.11802518036E+01  0.00000000000E+00 0.  1.
         11    1    3    3    0    0 -0.33385567670E+02 -0.20395875283E+02 -0.41161550598E+01  0.39338665330E+02  0.51100000000E-03 0. -1.
        -11    1    3    3    0    0 -0.33795740744E+01  0.33641763112E+01 -0.76666964779E+01  0.90287008103E+01  0.51100000000E-03 0.  1.
        -12    1    3    3    0    0  0.36694823412E+02  0.16499833786E+02  0.10731581318E+02  0.41640382056E+02  0.00000000000E+00 0.  1.
</event>
<event>
 7    1  0.2405891E-015  0.9000792E+02  0.7816164E-02  0.1186339E+00
        -11   -1    0    0    0    0  0.00000000000E+00  0.00000000000E+00  0.45593999997E+02  0.45594000000E+02  0.51100000000E-03 0. -1.
         11   -1    0    0    0    0 -0.00000000000E+00 -0.00000000000E+00 -0.45593999997E+02  0.45594000000E+02  0.51100000000E-03 0.  1.
    9900012    2    1    2    0    0 -0.49750985079E+00  0.10670269228E+01 -0.80808758052E-01  0.90007918409E+02  0.90000182132E+02 0.  0.
        -12    1    1    2    0    0  0.49750985079E+00 -0.10670269228E+01  0.80808758052E-01  0.11800815908E+01  0.00000000000E+00 0.  1.
         11    1    3    3    0    0 -0.50460411950E+01 -0.35861911587E+01 -0.54907219710E+01  0.82747402855E+01  0.51100000000E-03 0. -1.
        -11    1    3    3    0    0  0.31234359433E+02 -0.24339467929E+02  0.12853593391E+02  0.41631836034E+02  0.51100000000E-03 0.  1.
         12    1    3    3    0    0 -0.26685828088E+02  0.28992686010E+02 -0.74436801780E+01  0.40101342090E+02  0.00000000000E+00 0. -1.
</event>
<event>
 7    1  0.2405891E-015  0.9000780E+02  0.7816164E-02  0.1186339E+00
        -11   -1    0    0    0    0  0.00000000000E+00  0.00000000000E+00  0.45593999997E+02  0.45594000000E+02  0.51100000000E-03 0. -1.
         11   -1    0    0    0    0 -0.00000000000E+00 -0.00000000000E+00 -0.45593999997E+02  0.45594000000E+02  0.51100000000E-03 0.  1.
    9900012    2    1    2    0    0  0.66326608095E+00 -0.50879570534E+00 -0.83311088037E+00  0.90007801414E+02  0.90000063592E+02 0.  0.
        -12    1    1    2    0    0 -0.66326608095E+00  0.50879570534E+00  0.83311088037E+00  0.11801985862E+01  0.00000000000E+00 0.  1.
         11    1    3    3    0    0  0.25079215891E+02  0.25482130729E+02 -0.91116697700E+01  0.36896186557E+02  0.51100000000E-03 0. -1.
        -11    1    3    3    0    0  0.96580360183E+01 -0.19171885877E+01 -0.22135974507E+01  0.10092238887E+02  0.51100000000E-03 0.  1.
        -12    1    3    3    0    0 -0.34073985829E+02 -0.24073737846E+02  0.10492156340E+02  0.43019375970E+02  0.00000000000E+00 0.  1.
</event>
<event>
 7    1  0.2405891E-015  0.9000775E+02  0.7816164E-02  0.1186339E+00
        -11   -1    0    0    0    0  0.00000000000E+00  0.00000000000E+00  0.45593999997E+02  0.45594000000E+02  0.51100000000E-03 0. -1.
         11   -1    0    0    0    0 -0.00000000000E+00 -0.00000000000E+00 -0.45593999997E+02  0.45594000000E+02  0.51100000000E-03 0.  1.
    9900012    2    1    2    0    0 -0.11274971782E+01  0.27360705136E+00  0.21649787635E+00  0.90007753400E+02  0.90000014945E+02 0.  0.
        -12    1    1    2    0    0  0.11274971782E+01 -0.27360705136E+00 -0.21649787635E+00  0.11802465996E+01  0.00000000000E+00 0.  1.
         11    1    3    3    0    0  0.44849248818E+00 -0.10165975747E+02 -0.22584857128E+01  0.10423481490E+02  0.51100000000E-03 0. -1.
        -11    1    3    3    0    0  0.22113337776E+02 -0.24796092046E+02 -0.11066072200E+02  0.35018621368E+02  0.51100000000E-03 0.  1.
         12    1    3    3    0    0 -0.23689327442E+02  0.35235674844E+02  0.13541055790E+02  0.44565650542E+02  0.00000000000E+00 0. -1.
</event>
<event>
 7    1  0.2405891E-015  0.9000763E+02  0.7816164E-02  0.1186339E+00
        -11   -1    0    0    0    0  0.00000000000E+00  0.00000000000E+00  0.45593999997E+02  0.45594000000E+02  0.51100000000E-03 0.  1.
         11   -1    0    0    0    0 -0.00000000000E+00 -0.00000000000E+00 -0.45593999997E+02  0.45594000000E+02  0.51100000000E-03 0. -1.
    9900012    2    1    2    0    0 -0.99900463821E+00  0.60302068341E-01 -0.62580322256E+00  0.90007628753E+02  0.89999888653E+02 0.  0.
        -12    1    1    2    0    0  0.99900463821E+00 -0.60302068341E-01  0.62580322256E+00  0.11803712467E+01  0.00000000000E+00 0.  1.
         11    1    3    3    0    0  0.15214489363E+02  0.25603805311E+02 -0.21746937136E+02  0.36877700688E+02  0.51100000000E-03 0. -1.
        -11    1    3    3    0    0  0.42128748508E+01  0.81890283891E+01  0.26465014220E+01  0.95818824092E+01  0.51100000000E-03 0.  1.
        -12    1    3    3    0    0 -0.20426368852E+02 -0.33732531632E+02  0.18474632491E+02  0.43548045656E+02  0.00000000000E+00 0.  1.
</event>
<event>
 7    1  0.2405891E-015  0.9000769E+02  0.7816164E-02  0.1186339E+00
        -11   -1    0    0    0    0  0.00000000000E+00  0.00000000000E+00  0.45593999997E+02  0.45594000000E+02  0.51100000000E-03 0. -1.
         11   -1    0    0    0    0 -0.00000000000E+00 -0.00000000000E+00 -0.45593999997E+02  0.45594000000E+02  0.51100000000E-03 0.  1.
    9900012    2    1    2    0    0  0.86190146224E-02  0.10457566701E+01  0.54722216898E+00  0.90007689277E+02  0.89999949976E+02 0.  0.
        -12    1    1    2    0    0 -0.86190146224E-02 -0.10457566701E+01 -0.54722216898E+00  0.11803107229E+01  0.00000000000E+00 0.  1.
         11    1    3    3    0    0 -0.42840534762E+01  0.34904064542E+01 -0.55865461263E+01  0.78578336255E+01  0.51100000000E-03 0. -1.
        -11    1    3    3    0    0 -0.25127591215E+02  0.29196850384E+02  0.57124238115E+01  0.38942055655E+02  0.51100000000E-03 0.  1.
         12    1    3    3    0    0  0.29420263705E+02 -0.31641500168E+02  0.42134448375E+00  0.43207799997E+02  0.00000000000E+00 0. -1.
</event>
<event>
 7    1  0.2405891E-015  0.9000771E+02  0.7816164E-02  0.1186339E+00
        -11   -1    0    0    0    0  0.00000000000E+00  0.00000000000E+00  0.45593999997E+02  0.45594000000E+02  0.51100000000E-03 0.  1.
         11   -1    0    0    0    0 -0.00000000000E+00 -0.00000000000E+00 -0.45593999997E+02  0.45594000000E+02  0.51100000000E-03 0. -1.
    9900012    2    1    2    0    0  0.25869669182E+00 -0.10650358163E+01 -0.43802917724E+00  0.90007705618E+02  0.89999966532E+02 0.  0.
        -12    1    1    2    0    0 -0.25869669182E+00  0.10650358163E+01  0.43802917724E+00  0.11802943821E+01  0.00000000000E+00 0.  1.
         11    1    3    3    0    0 -0.35161213510E+02  0.14529248908E+02  0.61455967545E+01  0.38538012002E+02  0.51100000000E-03 0. -1.
        -11    1    3    3    0    0 -0.15099671890E+01 -0.55798651568E+01  0.85510809272E+01  0.10321622032E+02  0.51100000000E-03 0.  1.
        -12    1    3    3    0    0  0.36929877391E+02 -0.10014419567E+02 -0.15134706859E+02  0.41148071584E+02  0.00000000000E+00 0.  1.
</event>
<event>
 7    1  0.2405891E-015  0.9000777E+02  0.7816164E-02  0.1186339E+00
        -11   -1    0    0    0    0  0.00000000000E+00  0.00000000000E+00  0.45593999997E+02  0.45594000000E+02  0.51100000000E-03 0.  1.
         11   -1    0    0    0    0 -0.00000000000E+00 -0.00000000000E+00 -0.45593999997E+02  0.45594000000E+02  0.51100000000E-03 0. -1.
    9900012    2    1    2    0    0  0.76910542922E+00 -0.71647625683E+00 -0.53672529256E+00  0.90007773146E+02  0.90000034951E+02 0.  0.
        -12    1    1    2    0    0 -0.76910542922E+00  0.71647625683E+00  0.53672529256E+00  0.11802268543E+01  0.00000000000E+00 0.  1.
         11    1    3    3    0    0  0.31448564701E+02 -0.25863088872E+02 -0.44286606740E+01  0.40957595429E+02  0.51100000000E-03 0. -1.
        -11    1    3    3    0    0  0.50585332162E+01  0.73699000041E+01 -0.67532878703E-01  0.89391691628E+01  0.51100000000E-03 0.  1.
        -12    1    3    3    0    0 -0.35737992488E+02  0.17776712611E+02  0.39594682602E+01  0.40111008554E+02  0.00000000000E+00 0.  1.
</event>
<event>
 7    1  0.2405891E-015  0.9000773E+02  0.7816164E-02  0.1186339E+00
        -11   -1    0    0    0    0  0.00000000000E+00  0.00000000000E+00  0.45593999997E+02  0.45594000000E+02  0.51100000000E-03 0.  1.
         11   -1    0    0    0    0 -0.00000000000E+00 -0.00000000000E+00 -0.45593999997E+02  0.45594000000E+02  0.51100000000E-03 0. -1.
    9900012    2    1    2    0    0  0.10399080228E+01  0.54144173945E+00 -0.13588195027E+00  0.90007732337E+02  0.89999993603E+02 0.  0.
        -12    1    1    2    0    0 -0.10399080228E+01 -0.54144173945E+00  0.13588195027E+00  0.11802676635E+01  0.00000000000E+00 0.  1.
         11    1    3    3    0    0  0.13648167437E+02  0.25871334463E+01 -0.20306981879E+01  0.14038855696E+02  0.51100000000E-03 0. -1.
        -11    1    3    3    0    0  0.11278586829E+02 -0.34105307630E+02 -0.38537154064E+00  0.35923906259E+02  0.51100000000E-03 0.  1.
         12    1    3    3    0    0 -0.23886846243E+02  0.32059615923E+02  0.22801877783E+01  0.40044970382E+02  0.00000000000E+00 0. -1.
</event>
<event>
 7    1  0.2405891E-015  0.9000784E+02  0.7816164E-02  0.1186339E+00
        -11   -1    0    0    0    0  0.00000000000E+00  0.00000000000E+00  0.45593999997E+02  0.45594000000E+02  0.51100000000E-03 0.  1.
         11   -1    0    0    0    0 -0.00000000000E+00 -0.00000000000E+00 -0.45593999997E+02  0.45594000000E+02  0.51100000000E-03 0. -1.
    9900012    2    1    2    0    0 -0.63695435741E+00 -0.66127312400E+00 -0.74147319877E+00  0.90007840900E+02  0.90000103599E+02 0.  0.
        -12    1    1    2    0    0  0.63695435741E+00  0.66127312400E+00  0.74147319877E+00  0.11801591005E+01  0.00000000000E+00 0.  1.
         11    1    3    3    0    0  0.10028957835E+02  0.16854768310E+02 -0.12927857869E+02  0.23490268610E+02  0.51100000000E-03 0. -1.
        -11    1    3    3    0    0 -0.92903282209E+01 -0.45913416619E+01 -0.25033394591E+02  0.27093568641E+02  0.51100000000E-03 0.  1.
        -12    1    3    3    0    0 -0.13755839712E+01 -0.12924699772E+02  0.37219779261E+02  0.39424003649E+02  0.00000000000E+00 0.  1.
</event>
<event>
 7    1  0.2405891E-015  0.9000767E+02  0.7816164E-02  0.1186339E+00
        -11   -1    0    0    0    0  0.00000000000E+00  0.00000000000E+00  0.45593999997E+02  0.45594000000E+02  0.51100000000E-03 0. -1.
         11   -1    0    0    0    0 -0.00000000000E+00 -0.00000000000E+00 -0.45593999997E+02  0.45594000000E+02  0.51100000000E-03 0.  1.
    9900012    2    1    2    0    0  0.94128200979E+00 -0.71039799065E+00  0.49936082727E-01  0.90007673461E+02  0.89999933950E+02 0.  0.
        -12    1    1    2    0    0 -0.94128200979E+00  0.71039799065E+00 -0.49936082727E-01  0.11803265393E+01  0.00000000000E+00 0.  1.
         11    1    3    3    0    0 -0.77025646920E+01  0.12123597855E+02  0.82638761791E+01  0.16571142916E+02  0.51100000000E-03 0. -1.
        -11    1    3    3    0    0 -0.27823701236E+02 -0.13645910413E+02  0.10134794556E+02  0.32604957942E+02  0.51100000000E-03 0.  1.
         12    1    3    3    0    0  0.36467547938E+02  0.81191456807E+00 -0.18348734652E+02  0.40831572602E+02  0.00000000000E+00 0. -1.
</event>
<event>
 7    1  0.2790159E-015  0.9000777E+02  0.7816164E-02  0.1186339E+00
        -11   -1    0    0    0    0  0.00000000000E+00  0.00000000000E+00  0.45593999997E+02  0.45594000000E+02  0.51100000000E-03 0. -1.
         11   -1    0    0    0    0 -0.00000000000E+00 -0.00000000000E+00 -0.45593999997E+02  0.45594000000E+02  0.51100000000E-03 0.  1.
    9900012    2    1    2    0    0  0.39776166591E+00  0.29084469614E+00  0.10724469972E+01  0.90007768014E+02  0.90000029751E+02 0.  0.
        -12    1    1    2    0    0 -0.39776166591E+00 -0.29084469614E+00 -0.10724469972E+01  0.11802319865E+01  0.00000000000E+00 0.  1.
         11    1    3    3    0    0 -0.51479567588E+01 -0.44100176029E+01 -0.67437814244E+01  0.95618147969E+01  0.51100000000E-03 0. -1.
        -11    1    3    3    0    0 -0.25392104851E+02 -0.14862849897E+02 -0.19040574699E+02  0.35045781215E+02  0.51100000000E-03 0.  1.
         12    1    3    3    0    0  0.30937823276E+02  0.19563712196E+02  0.26856803121E+02  0.45400172002E+02  0.00000000000E+00 0. -1.
</event>
<event>
 7    1  0.2405891E-015  0.9000794E+02  0.7816164E-02  0.1186339E+00
        -11   -1    0    0    0    0  0.00000000000E+00  0.00000000000E+00  0.45593999997E+02  0.45594000000E+02  0.51100000000E-03 0.  1.
         11   -1    0    0    0    0 -0.00000000000E+00 -0.00000000000E+00 -0.45593999997E+02  0.45594000000E+02  0.51100000000E-03 0. -1.
    9900012    2    1    2    0    0 -0.20116934819E+00 -0.10853606343E+01  0.41719823110E+00  0.90007944418E+02  0.90000208484E+02 0.  0.
        -12    1    1    2    0    0  0.20116934819E+00  0.10853606343E+01 -0.41719823110E+00  0.11800555822E+01  0.00000000000E+00 0.  1.
         11    1    3    3    0    0 -0.19114901056E+02 -0.74287765511E+00 -0.26660014348E+02  0.32812919329E+02  0.51100000000E-03 0. -1.
        -11    1    3    3    0    0 -0.33696384667E+01  0.68902054042E+01 -0.10445528257E+02  0.12959107019E+02  0.51100000000E-03 0.  1.
        -12    1    3    3    0    0  0.22283370174E+02 -0.72326883833E+01  0.37522740837E+02  0.44235918069E+02  0.00000000000E+00 0.  1.
</event>
<event>
 7    1  0.2405891E-015  0.9000772E+02  0.7816164E-02  0.1186339E+00
        -11   -1    0    0    0    0  0.00000000000E+00  0.00000000000E+00  0.45593999997E+02  0.45594000000E+02  0.51100000000E-03 0. -1.
         11   -1    0    0    0    0 -0.00000000000E+00 -0.00000000000E+00 -0.45593999997E+02  0.45594000000E+02  0.51100000000E-03 0.  1.
    9900012    2    1    2    0    0  0.23168678358E+00 -0.80411006108E+00  0.83234555398E+00  0.90007715764E+02  0.89999976812E+02 0.  0.
        -12    1    1    2    0    0 -0.23168678358E+00  0.80411006108E+00 -0.83234555398E+00  0.11802842358E+01  0.00000000000E+00 0.  1.
         11    1    3    3    0    0 -0.34046205552E+02  0.15538437936E+02  0.18915862666E+02  0.41933244885E+02  0.51100000000E-03 0. -1.
        -11    1    3    3    0    0 -0.90230655753E+00 -0.65224408855E+01 -0.76394888301E+01  0.10085543222E+02  0.51100000000E-03 0.  1.
        -12    1    3    3    0    0  0.35180198893E+02 -0.98201071113E+01 -0.10444028282E+02  0.37988927657E+02  0.00000000000E+00 0.  1.
</event>
<event>
 7    1  0.2405891E-015  0.9000776E+02  0.7816164E-02  0.1186339E+00
        -11   -1    0    0    0    0  0.00000000000E+00  0.00000000000E+00  0.45593999997E+02  0.45594000000E+02  0.51100000000E-03 0.  1.
         11   -1    0    0    0    0 -0.00000000000E+00 -0.00000000000E+00 -0.45593999997E+02  0.45594000000E+02  0.51100000000E-03 0. -1.
    9900012    2    1    2    0    0  0.34866244775E+00 -0.98993312532E+00 -0.53983816495E+00  0.90007763439E+02  0.90000025117E+02 0.  0.
        -12    1    1    2    0    0 -0.34866244775E+00  0.98993312532E+00  0.53983816495E+00  0.11802365608E+01  0.00000000000E+00 0.  1.
         11    1    3    3    0    0 -0.15474205418E+02 -0.23119337199E+01  0.10839024708E+01  0.15683459939E+02  0.51100000000E-03 0. -1.
        -11    1    3    3    0    0 -0.16723993618E+01  0.33762575081E+02 -0.12266895974E+02  0.35960883371E+02  0.51100000000E-03 0.  1.
         12    1    3    3    0    0  0.17495267228E+02 -0.32440574487E+02  0.10643155339E+02  0.38363420128E+02  0.00000000000E+00 0. -1.
</event>
<event>
 7    1  0.2405891E-015  0.9000782E+02  0.7816164E-02  0.1186339E+00
        -11   -1    0    0    0    0  0.00000000000E+00  0.00000000000E+00  0.45593999997E+02  0.45594000000E+02  0.51100000000E-03 0.  1.
         11   -1    0    0    0    0 -0.00000000000E+00 -0.00000000000E+00 -0.45593999997E+02  0.45594000000E+02  0.51100000000E-03 0. -1.
    9900012    2    1    2    0    0  0.72502255761E-01 -0.11729613046E+01  0.10828756790E+00  0.90007821625E+02  0.90000084071E+02 0.  0.
        -12    1    1    2    0    0 -0.72502255761E-01  0.11729613046E+01 -0.10828756790E+00  0.11801783749E+01  0.00000000000E+00 0.  1.
         11    1    3    3    0    0 -0.11115279328E+01  0.71061791871E+01  0.10558712035E+02  0.12775745657E+02  0.51100000000E-03 0. -1.
        -11    1    3    3    0    0  0.24334873650E+02  0.18761938068E+02  0.14283417851E+02  0.33885283256E+02  0.51100000000E-03 0.  1.
         12    1    3    3    0    0 -0.23150843461E+02 -0.27041078559E+02 -0.24733842318E+02  0.43346792712E+02  0.00000000000E+00 0. -1.
</event>
<event>
 7    1  0.2405891E-015  0.9000782E+02  0.7816164E-02  0.1186339E+00
        -11   -1    0    0    0    0  0.00000000000E+00  0.00000000000E+00  0.45593999997E+02  0.45594000000E+02  0.51100000000E-03 0.  1.
         11   -1    0    0    0    0 -0.00000000000E+00 -0.00000000000E+00 -0.45593999997E+02  0.45594000000E+02  0.51100000000E-03 0. -1.
    9900012    2    1    2    0    0  0.10133291258E+01  0.59436199847E+00  0.11282751795E+00  0.90007816899E+02  0.90000079282E+02 0.  0.
        -12    1    1    2    0    0 -0.10133291258E+01 -0.59436199847E+00 -0.11282751795E+00  0.11801831007E+01  0.00000000000E+00 0.  1.
         11    1    3    3    0    0 -0.31570159567E+01  0.39358711642E+02 -0.76246548900E+01  0.40214553265E+02  0.51100000000E-03 0. -1.
        -11    1    3    3    0    0 -0.11735911411E+02 -0.10217590945E+02 -0.20136854076E+01  0.15690306261E+02  0.51100000000E-03 0.  1.
        -12    1    3    3    0    0  0.15906256494E+02 -0.28546758699E+02  0.97511678156E+01  0.34102957373E+02  0.00000000000E+00 0.  1.
</event>
<event>
 7    1  0.2405891E-015  0.9000772E+02  0.7816164E-02  0.1186339E+00
        -11   -1    0    0    0    0  0.00000000000E+00  0.00000000000E+00  0.45593999997E+02  0.45594000000E+02  0.51100000000E-03 0.  1.
         11   -1    0    0    0    0 -0.00000000000E+00 -0.00000000000E+00 -0.45593999997E+02  0.45594000000E+02  0.51100000000E-03 0. -1.
    9900012    2    1    2    0    0  0.65926185123E+00  0.18340486040E+00 -0.96165860581E+00  0.90007724267E+02  0.89999985428E+02 0.  0.
        -12    1    1    2    0    0 -0.65926185123E+00 -0.18340486040E+00  0.96165860581E+00  0.11802757328E+01  0.00000000000E+00 0.  1.
         11    1    3    3    0    0 -0.39857625304E+01  0.30525370711E+02 -0.17108641633E+02  0.35219173454E+02  0.51100000000E-03 0. -1.
        -11    1    3    3    0    0  0.60115411754E+01  0.92358099750E+01 -0.20458095716E+01  0.11208217979E+02  0.51100000000E-03 0.  1.
        -12    1    3    3    0    0 -0.13665167938E+01 -0.39577775825E+02  0.18192792599E+02  0.43580332835E+02  0.00000000000E+00 0.  1.
</event>
<event>
 7    1  0.2405891E-015  0.9000766E+02  0.7816164E-02  0.1186339E+00
        -11   -1    0    0    0    0  0.00000000000E+00  0.00000000000E+00  0.45593999997E+02  0.45594000000E+02  0.51100000000E-03 0. -1.
         11   -1    0    0    0    0 -0.00000000000E+00 -0.00000000000E+00 -0.45593999997E+02  0.45594000000E+02  0.51100000000E-03 0.  1.
    9900012    2    1    2    0    0 -0.69847004590E+00 -0.93683101192E+00  0.16641165643E+00  0.90007658698E+02  0.89999918993E+02 0.  0.
        -12    1    1    2    0    0  0.69847004590E+00  0.93683101192E+00 -0.16641165643E+00  0.11803413020E+01  0.00000000000E+00 0.  1.
         11    1    3    3    0    0  0.70245355177E+01 -0.50575372159E+01 -0.69153855508E+01  0.11079049576E+02  0.51100000000E-03 0. -1.
        -11    1    3    3    0    0 -0.31928365424E+02  0.28862938523E+02 -0.21861674209E+01  0.43096044680E+02  0.51100000000E-03 0.  1.
         12    1    3    3    0    0  0.24205359861E+02 -0.24742232319E+02  0.92679646282E+01  0.35832564442E+02  0.00000000000E+00 0. -1.
</event>
<event>
 7    1  0.2405891E-015  0.9000776E+02  0.7816164E-02  0.1186339E+00
        -11   -1    0    0    0    0  0.00000000000E+00  0.00000000000E+00  0.45593999997E+02  0.45594000000E+02  0.51100000000E-03 0.  1.
         11   -1    0    0    0    0 -0.00000000000E+00 -0.00000000000E+00 -0.45593999997E+02  0.45594000000E+02  0.51100000000E-03 0. -1.
    9900012    2    1    2    0    0  0.68978895996E+00  0.68235412817E+00 -0.67197527689E+00  0.90007759881E+02  0.90000021512E+02 0.  0.
        -12    1    1    2    0    0 -0.68978895996E+00 -0.68235412817E+00  0.67197527689E+00  0.11802401189E+01  0.00000000000E+00 0.  1.
         11    1    3    3    0    0 -0.61088722377E+01  0.44476773829E+01  0.26741074965E+01  0.80156724785E+01  0.51100000000E-03 0. -1.
        -11    1    3    3    0    0  0.31441677665E+01  0.13321336915E+01  0.39017537768E+02  0.39166677481E+02  0.51100000000E-03 0.  1.
         12    1    3    3    0    0  0.36544934312E+01 -0.50974569462E+01 -0.42363620542E+02  0.42825409922E+02  0.00000000000E+00 0. -1.
</event>
<event>
 7    1  0.2405891E-015  0.9000777E+02  0.7816164E-02  0.1186339E+00
        -11   -1    0    0    0    0  0.00000000000E+00  0.00000000000E+00  0.45593999997E+02  0.45594000000E+02  0.51100000000E-03 0.  1.
         11   -1    0    0    0    0 -0.00000000000E+00 -0.00000000000E+00 -0.45593999997E+02  0.45594000000E+02  0.51100000000E-03 0. -1.
    9900012    2    1    2    0    0  0.50719877472E+00  0.91922697586E+00 -0.53917925204E+00  0.90007769897E+02  0.90000031660E+02 0.  0.
        -12    1    1    2    0    0 -0.50719877472E+00 -0.91922697586E+00  0.53917925204E+00  0.11802301030E+01  0.00000000000E+00 0.  1.
         11    1    3    3    0    0 -0.48679378347E+01  0.15277625095E+01 -0.64704995610E+01  0.82400389488E+01  0.51100000000E-03 0. -1.
        -11    1    3    3    0    0 -0.36666501104E+02  0.10176570363E+02  0.47586747669E+01  0.38348922715E+02  0.51100000000E-03 0.  1.
         12    1    3    3    0    0  0.42041637714E+02 -0.10785105897E+02  0.11726455420E+01  0.43418808233E+02  0.00000000000E+00 0. -1.
</event>
<event>
 7    1  0.2405891E-015  0.9000772E+02  0.7816164E-02  0.1186339E+00
        -11   -1    0    0    0    0  0.00000000000E+00  0.00000000000E+00  0.45593999997E+02  0.45594000000E+02  0.51100000000E-03 0.  1.
         11   -1    0    0    0    0 -0.00000000000E+00 -0.00000000000E+00 -0.45593999997E+02  0.45594000000E+02  0.51100000000E-03 0. -1.
    9900012    2    1    2    0    0 -0.93948023307E+00 -0.48181578354E+00 -0.52752544931E+00  0.90007723483E+02  0.89999984633E+02 0.  0.
        -12    1    1    2    0    0  0.93948023307E+00  0.48181578354E+00  0.52752544931E+00  0.11802765173E+01  0.00000000000E+00 0.  1.
         11    1    3    3    0    0 -0.28696613289E+02 -0.12179143144E+02 -0.19227450507E+02  0.36626793406E+02  0.51100000000E-03 0. -1.
        -11    1    3    3    0    0 -0.37115052896E+01 -0.90274827756E+01 -0.25949175171E+01  0.10099718509E+02  0.51100000000E-03 0.  1.
        -12    1    3    3    0    0  0.31468638345E+02  0.20724810136E+02  0.21294842574E+02  0.43281211568E+02  0.00000000000E+00 0.  1.
</event>
<event>
 7    1  0.2405891E-015  0.9000791E+02  0.7816164E-02  0.1186339E+00
        -11   -1    0    0    0    0  0.00000000000E+00  0.00000000000E+00  0.45593999997E+02  0.45594000000E+02  0.51100000000E-03 0. -1.
         11   -1    0    0    0    0 -0.00000000000E+00 -0.00000000000E+00 -0.45593999997E+02  0.45594000000E+02  0.51100000000E-03 0.  1.
    9900012    2    1    2    0    0  0.71613746338E+00 -0.82876610704E+00  0.43921125245E+00  0.90007909897E+02  0.90000173508E+02 0.  0.
        -12    1    1    2    0    0 -0.71613746338E+00  0.82876610704E+00 -0.43921125245E+00  0.11800901029E+01  0.00000000000E+00 0.  1.
         11    1    3    3    0    0 -0.36499234746E+02  0.30596411323E+01  0.14056793620E+02  0.39231989346E+02  0.51100000000E-03 0. -1.
        -11    1    3    3    0    0  0.40708282897E+00  0.27380125537E+01  0.73818428812E+01  0.78837829598E+01  0.51100000000E-03 0.  1.
        -12    1    3    3    0    0  0.36808289380E+02 -0.66264197931E+01 -0.20999425249E+02  0.42892137591E+02  0.00000000000E+00 0.  1.
</event>
<event>
 7    1  0.2405891E-015  0.9000774E+02  0.7816164E-02  0.1186339E+00
        -11   -1    0    0    0    0  0.00000000000E+00  0.00000000000E+00  0.45593999997E+02  0.45594000000E+02  0.51100000000E-03 0.  1.
         11   -1    0    0    0    0 -0.00000000000E+00 -0.00000000000E+00 -0.45593999997E+02  0.45594000000E+02  0.51100000000E-03 0. -1.
    9900012    2    1    2    0    0  0.95942941763E+00 -0.68492352350E-01 -0.68397651822E+00  0.90007737365E+02  0.89999998698E+02 0.  0.
        -12    1    1    2    0    0 -0.95942941763E+00  0.68492352350E-01  0.68397651822E+00  0.11802626348E+01  0.00000000000E+00 0.  1.
         11    1    3    3    0    0  0.22906344786E+01 -0.35333119265E+02  0.18119091170E+02  0.39774084381E+02  0.51100000000E-03 0. -1.
        -11    1    3    3    0    0  0.55210824365E+01  0.86033874334E+01  0.70909251177E+01  0.12441135233E+02  0.51100000000E-03 0.  1.
        -12    1    3    3    0    0 -0.68522874974E+01  0.26661239479E+02 -0.25893992806E+02  0.37792517751E+02  0.00000000000E+00 0.  1.
</event>
<event>
 7    1  0.2405891E-015  0.9000775E+02  0.7816164E-02  0.1186339E+00
        -11   -1    0    0    0    0  0.00000000000E+00  0.00000000000E+00  0.45593999997E+02  0.45594000000E+02  0.51100000000E-03 0.  1.
         11   -1    0    0    0    0 -0.00000000000E+00 -0.00000000000E+00 -0.45593999997E+02  0.45594000000E+02  0.51100000000E-03 0. -1.
    9900012    2    1    2    0    0  0.60719512705E+00  0.44490983297E+00 -0.90904699695E+00  0.90007747008E+02  0.90000008469E+02 0.  0.
        -12    1    1    2    0    0 -0.60719512705E+00 -0.44490983297E+00  0.90904699695E+00  0.11802529917E+01  0.00000000000E+00 0.  1.
         11    1    3    3    0    0 -0.24493158622E+01 -0.35934639859E+02  0.70274464960E+00  0.36024871135E+02  0.51100000000E-03 0. -1.
        -11    1    3    3    0    0 -0.27603508367E+01 -0.73821296831E+01  0.50151332803E+01  0.93416774446E+01  0.51100000000E-03 0.  1.
        -12    1    3    3    0    0  0.58168618259E+01  0.43761679375E+02 -0.66269249268E+01  0.44641198429E+02  0.00000000000E+00 0.  1.
</event>
<event>
 7    1  0.2910119E-015  0.9000759E+02  0.7816164E-02  0.1186339E+00
        -11   -1    0    0    0    0  0.00000000000E+00  0.00000000000E+00  0.45593999997E+02  0.45594000000E+02  0.51100000000E-03 0. -1.
         11   -1    0    0    0    0 -0.00000000000E+00 -0.00000000000E+00 -0.45593999997E+02  0.45594000000E+02  0.51100000000E-03 0.  1.
    9900012    2    1    2    0    0  0.15603520355E+00 -0.89833746960E+00  0.74967448366E+00  0.90007589467E+02  0.89999848848E+02 0.  0.
        -12    1    1    2    0    0 -0.15603520355E+00  0.89833746960E+00 -0.74967448366E+00  0.11804105326E+01  0.00000000000E+00 0.  1.
         11    1    3    3    0    0 -0.46389272685E+00  0.12830041925E+01 -0.88365745164E+01  0.89412720384E+01  0.51100000000E-03 0. -1.
        -11    1    3    3    0    0  0.19716593267E+02 -0.94865049714E+01 -0.29634133223E+02  0.36836390686E+02  0.51100000000E-03 0.  1.
         12    1    3    3    0    0 -0.19096665336E+02  0.73051633093E+01  0.39220382223E+02  0.44229926743E+02  0.00000000000E+00 0. -1.
</event>
<event>
 7    1  0.2405891E-015  0.9000766E+02  0.7816164E-02  0.1186339E+00
        -11   -1    0    0    0    0  0.00000000000E+00  0.00000000000E+00  0.45593999997E+02  0.45594000000E+02  0.51100000000E-03 0. -1.
         11   -1    0    0    0    0 -0.00000000000E+00 -0.00000000000E+00 -0.45593999997E+02  0.45594000000E+02  0.51100000000E-03 0.  1.
    9900012    2    1    2    0    0 -0.21061361974E+00  0.13691905650E+00  0.11533033536E+01  0.90007655326E+02  0.89999915576E+02 0.  0.
        -12    1    1    2    0    0  0.21061361974E+00 -0.13691905650E+00 -0.11533033536E+01  0.11803446744E+01  0.00000000000E+00 0.  1.
         11    1    3    3    0    0  0.40429996809E-01 -0.72188683957E+01  0.62043528108E+01  0.95188071501E+01  0.51100000000E-03 0. -1.
        -11    1    3    3    0    0 -0.23753136565E+02 -0.24951912714E+02  0.12772586545E+02  0.36741644112E+02  0.51100000000E-03 0.  1.
         12    1    3    3    0    0  0.23502092948E+02  0.32307700166E+02 -0.17823636002E+02  0.43747204063E+02  0.00000000000E+00 0. -1.
</event>
<event>
 7    1  0.2405891E-015  0.9000773E+02  0.7816164E-02  0.1186339E+00
        -11   -1    0    0    0    0  0.00000000000E+00  0.00000000000E+00  0.45593999997E+02  0.45594000000E+02  0.51100000000E-03 0.  1.
         11   -1    0    0    0    0 -0.00000000000E+00 -0.00000000000E+00 -0.45593999997E+02  0.45594000000E+02  0.51100000000E-03 0. -1.
    9900012    2    1    2    0    0 -0.88800414582E+00  0.54463102938E+00  0.55485502829E+00  0.90007729513E+02  0.89999990742E+02 0.  0.
        -12    1    1    2    0    0  0.88800414582E+00 -0.54463102938E+00 -0.55485502829E+00  0.11802704875E+01  0.00000000000E+00 0.  1.
         11    1    3    3    0    0 -0.91992686926E+01  0.45546760104E+01  0.82958818465E+00  0.10298535568E+02  0.51100000000E-03 0. -1.
        -11    1    3    3    0    0  0.27037252124E+02  0.40779560116E+01  0.31649289100E+02  0.41824875713E+02  0.51100000000E-03 0.  1.
         12    1    3    3    0    0 -0.18725987577E+02 -0.80880009926E+01 -0.31924022256E+02  0.37884318231E+02  0.00000000000E+00 0. -1.
</event>
<event>
 7    1  0.2405891E-015  0.9000773E+02  0.7816164E-02  0.1186339E+00
        -11   -1    0    0    0    0  0.00000000000E+00  0.00000000000E+00  0.45593999997E+02  0.45594000000E+02  0.51100000000E-03 0.  1.
         11   -1    0    0    0    0 -0.00000000000E+00 -0.00000000000E+00 -0.45593999997E+02  0.45594000000E+02  0.51100000000E-03 0. -1.
    9900012    2    1    2    0    0 -0.11302431079E+01  0.30150136224E+00  0.15711445882E+00  0.90007729901E+02  0.89999991135E+02 0.  0.
        -12    1    1    2    0    0  0.11302431079E+01 -0.30150136224E+00 -0.15711445882E+00  0.11802700994E+01  0.00000000000E+00 0.  1.
         11    1    3    3    0    0  0.57614371856E+01  0.50896105026E+01 -0.67976698827E+01  0.10261900877E+02  0.51100000000E-03 0. -1.
        -11    1    3    3    0    0  0.85767042973E+00  0.15898560275E+02  0.38254596754E+02  0.41435660854E+02  0.51100000000E-03 0.  1.
         12    1    3    3    0    0 -0.77493507232E+01 -0.20686669415E+02 -0.31299812412E+02  0.38310168169E+02  0.00000000000E+00 0. -1.
</event>
<event>
 7    1  0.2483428E-015  0.9000787E+02  0.7816164E-02  0.1186339E+00
        -11   -1    0    0    0    0  0.00000000000E+00  0.00000000000E+00  0.45593999997E+02  0.45594000000E+02  0.51100000000E-03 0. -1.
         11   -1    0    0    0    0 -0.00000000000E+00 -0.00000000000E+00 -0.45593999997E+02  0.45594000000E+02  0.51100000000E-03 0.  1.
    9900012    2    1    2    0    0  0.11342064839E+01  0.25752326486E+00  0.19992371587E+00  0.90007867773E+02  0.90000130828E+02 0.  0.
        -12    1    1    2    0    0 -0.11342064839E+01 -0.25752326486E+00 -0.19992371587E+00  0.11801322266E+01  0.00000000000E+00 0.  1.
         11    1    3    3    0    0 -0.63254466756E+01 -0.48713817035E+01 -0.44564295904E+01  0.91433801354E+01  0.51100000000E-03 0. -1.
        -11    1    3    3    0    0 -0.35645022112E+02  0.97539846464E+01  0.62639441252E+01  0.37482593482E+02  0.51100000000E-03 0.  1.
         12    1    3    3    0    0  0.43104675272E+02 -0.46250796781E+01 -0.16075908190E+01  0.43381894156E+02  0.00000000000E+00 0. -1.
</event>
<event>
 7    1  0.2405891E-015  0.9000907E+02  0.7816164E-02  0.1186336E+00
        -11   -1    0    0    0    0  0.00000000000E+00  0.00000000000E+00  0.45593999997E+02  0.45594000000E+02  0.51100000000E-03 0.  1.
         11   -1    0    0    0    0 -0.00000000000E+00 -0.00000000000E+00 -0.45593999997E+02  0.45594000000E+02  0.51100000000E-03 0. -1.
    9900012    2    1    2    0    0  0.32672236565E+00  0.41357186969E+00 -0.10545571236E+01  0.90009068313E+02  0.90001347205E+02 0.  0.
        -12    1    1    2    0    0 -0.32672236565E+00 -0.41357186969E+00  0.10545571236E+01  0.11789316869E+01  0.00000000000E+00 0.  1.
         11    1    3    3    0    0  0.14994121535E+02  0.25728807779E+02 -0.23042116341E+02  0.37652813389E+02  0.51100000000E-03 0. -1.
        -11    1    3    3    0    0 -0.28469070446E+01  0.96257627460E+01  0.82559410088E+01  0.12996951580E+02  0.51100000000E-03 0.  1.
        -12    1    3    3    0    0 -0.11820492125E+02 -0.34940998656E+02  0.13731618209E+02  0.39359303344E+02  0.00000000000E+00 0.  1.
</event>
<event>
 7    1  0.2405891E-015  0.9000795E+02  0.7816164E-02  0.1186339E+00
        -11   -1    0    0    0    0  0.00000000000E+00  0.00000000000E+00  0.45593999997E+02  0.45594000000E+02  0.51100000000E-03 0.  1.
         11   -1    0    0    0    0 -0.00000000000E+00 -0.00000000000E+00 -0.45593999997E+02  0.45594000000E+02  0.51100000000E-03 0. -1.
    9900012    2    1    2    0    0 -0.85719496645E+00 -0.29830108556E+00 -0.75415055346E+00  0.90007953473E+02  0.90000217659E+02 0.  0.
        -12    1    1    2    0    0  0.85719496645E+00  0.29830108556E+00  0.75415055346E+00  0.11800465268E+01  0.00000000000E+00 0.  1.
         11    1    3    3    0    0  0.73669489115E+01 -0.25488328446E+02  0.10984799844E+01  0.26554349583E+02  0.51100000000E-03 0. -1.
        -11    1    3    3    0    0  0.49167762539E+01  0.36411733975E+01  0.25506780703E+02  0.26230301076E+02  0.51100000000E-03 0.  1.
         12    1    3    3    0    0 -0.13140920132E+02  0.21548853963E+02 -0.27359411241E+02  0.37223302815E+02  0.00000000000E+00 0. -1.
</event>
<event>
 7    1  0.2405891E-015  0.9000775E+02  0.7816164E-02  0.1186339E+00
        -11   -1    0    0    0    0  0.00000000000E+00  0.00000000000E+00  0.45593999997E+02  0.45594000000E+02  0.51100000000E-03 0. -1.
         11   -1    0    0    0    0 -0.00000000000E+00 -0.00000000000E+00 -0.45593999997E+02  0.45594000000E+02  0.51100000000E-03 0.  1.
    9900012    2    1    2    0    0 -0.97348263653E+00  0.21818977836E+00  0.63063724454E+00  0.90007754874E+02  0.90000016438E+02 0.  0.
        -12    1    1    2    0    0  0.97348263653E+00 -0.21818977836E+00 -0.63063724454E+00  0.11802451259E+01  0.00000000000E+00 0.  1.
         11    1    3    3    0    0 -0.34536434083E+02  0.92395636477E+01  0.12649813286E+02  0.37922982372E+02  0.51100000000E-03 0. -1.
        -11    1    3    3    0    0 -0.81100049393E+01 -0.46254958597E+00 -0.23628085225E+01  0.84598461340E+01  0.51100000000E-03 0.  1.
        -12    1    3    3    0    0  0.41672956385E+02 -0.85588242833E+01 -0.96563675185E+01  0.43624926369E+02  0.00000000000E+00 0.  1.
</event>
<event>
 7    1  0.2405891E-015  0.9000771E+02  0.7816164E-02  0.1186339E+00
        -11   -1    0    0    0    0  0.00000000000E+00  0.00000000000E+00  0.45593999997E+02  0.45594000000E+02  0.51100000000E-03 0.  1.
         11   -1    0    0    0    0 -0.00000000000E+00 -0.00000000000E+00 -0.45593999997E+02  0.45594000000E+02  0.51100000000E-03 0. -1.
    9900012    2    1    2    0    0 -0.69802040900E-02  0.10955393146E+01 -0.43911773034E+00  0.90007712114E+02  0.89999973114E+02 0.  0.
        -12    1    1    2    0    0  0.69802040900E-02 -0.10955393146E+01  0.43911773034E+00  0.11802878861E+01  0.00000000000E+00 0.  1.
         11    1    3    3    0    0  0.20663557492E+02  0.20912712386E+02 -0.13238300873E+02  0.32242468234E+02  0.51100000000E-03 0. -1.
        -11    1    3    3    0    0  0.27697382125E+01  0.74166750432E+01 -0.11806808575E+02  0.14215458045E+02  0.51100000000E-03 0.  1.
        -12    1    3    3    0    0 -0.23440275909E+02 -0.27233848115E+02  0.24605991717E+02  0.43549785834E+02  0.00000000000E+00 0.  1.
</event>
<event>
 7    1  0.2405891E-015  0.9000777E+02  0.7816164E-02  0.1186339E+00
        -11   -1    0    0    0    0  0.00000000000E+00  0.00000000000E+00  0.45593999997E+02  0.45594000000E+02  0.51100000000E-03 0.  1.
         11   -1    0    0    0    0 -0.00000000000E+00 -0.00000000000E+00 -0.45593999997E+02  0.45594000000E+02  0.51100000000E-03 0. -1.
    9900012    2    1    2    0    0 -0.38800428978E+00 -0.95427506668E+00 -0.57597911895E+00  0.90007771134E+02  0.90000032912E+02 0.  0.
        -12    1    1    2    0    0  0.38800428978E+00  0.95427506668E+00  0.57597911895E+00  0.11802288665E+01  0.00000000000E+00 0.  1.
         11    1    3    3    0    0  0.78837086477E+01 -0.37086930812E+01  0.60913112174E+00  0.87337453247E+01  0.51100000000E-03 0. -1.
        -11    1    3    3    0    0  0.26262674071E+02 -0.11911754740E+02  0.22783504415E+02  0.36751952656E+02  0.51100000000E-03 0.  1.
         12    1    3    3    0    0 -0.34534387008E+02  0.14666172754E+02 -0.23968614656E+02  0.44522073153E+02  0.00000000000E+00 0. -1.
</event>
<event>
 7    1  0.2405891E-015  0.9000761E+02  0.7816164E-02  0.1186339E+00
        -11   -1    0    0    0    0  0.00000000000E+00  0.00000000000E+00  0.45593999997E+02  0.45594000000E+02  0.51100000000E-03 0. -1.
         11   -1    0    0    0    0 -0.00000000000E+00 -0.00000000000E+00 -0.45593999997E+02  0.45594000000E+02  0.51100000000E-03 0.  1.
    9900012    2    1    2    0    0  0.11290006445E+01 -0.25976721855E+00 -0.22626472672E+00  0.90007611424E+02  0.89999871095E+02 0.  0.
        -12    1    1    2    0    0 -0.11290006445E+01  0.25976721855E+00  0.22626472672E+00  0.11803885757E+01  0.00000000000E+00 0.  1.
         11    1    3    3    0    0  0.88909860454E+01 -0.44960010353E+00 -0.69318578949E+01  0.11282837730E+02  0.51100000000E-03 0. -1.
        -11    1    3    3    0    0 -0.12940104126E+02  0.85834175140E+01  0.40577047085E+02  0.43446727165E+02  0.51100000000E-03 0.  1.
         12    1    3    3    0    0  0.51781187247E+01 -0.83935846290E+01 -0.33871453917E+02  0.35278046529E+02  0.00000000000E+00 0. -1.
</event>
<event>
 7    1  0.2405891E-015  0.9000768E+02  0.7816164E-02  0.1186339E+00
        -11   -1    0    0    0    0  0.00000000000E+00  0.00000000000E+00  0.45593999997E+02  0.45594000000E+02  0.51100000000E-03 0. -1.
         11   -1    0    0    0    0 -0.00000000000E+00 -0.00000000000E+00 -0.45593999997E+02  0.45594000000E+02  0.51100000000E-03 0.  1.
    9900012    2    1    2    0    0 -0.44034999434E+00 -0.27609475357E-01  0.10947502906E+01  0.90007682839E+02  0.89999943453E+02 0.  0.
        -12    1    1    2    0    0  0.44034999434E+00  0.27609475357E-01 -0.10947502906E+01  0.11803171606E+01  0.00000000000E+00 0.  1.
         11    1    3    3    0    0 -0.39377522689E+02  0.77767131329E+01 -0.90910462170E+01  0.41154752847E+02  0.51100000000E-03 0. -1.
        -11    1    3    3    0    0  0.12448643118E+00 -0.76974068973E+01 -0.23779292899E+01  0.80573021405E+01  0.51100000000E-03 0.  1.
        -12    1    3    3    0    0  0.38812686264E+02 -0.10691571101E+00  0.12563725798E+02  0.40795627852E+02  0.00000000000E+00 0.  1.
</event>
<event>
 7    1  0.2405891E-015  0.9000762E+02  0.7816164E-02  0.1186339E+00
        -11   -1    0    0    0    0  0.00000000000E+00  0.00000000000E+00  0.45593999997E+02  0.45594000000E+02  0.51100000000E-03 0. -1.
         11   -1    0    0    0    0 -0.00000000000E+00 -0.00000000000E+00 -0.45593999997E+02  0.45594000000E+02  0.51100000000E-03 0.  1.
    9900012    2    1    2    0    0 -0.45147691517E+00 -0.52481043585E+00  0.95604923577E+00  0.90007623984E+02  0.89999883820E+02 0.  0.
        -12    1    1    2    0    0  0.45147691517E+00  0.52481043585E+00 -0.95604923577E+00  0.11803760162E+01  0.00000000000E+00 0.  1.
         11    1    3    3    0    0  0.91595069759E+01 -0.89883561502E+00 -0.31222271955E+01  0.97186818256E+01  0.51100000000E-03 0. -1.
        -11    1    3    3    0    0 -0.11483752331E+01 -0.38945892564E+02 -0.43187920258E+01  0.39201444847E+02  0.51100000000E-03 0.  1.
         12    1    3    3    0    0 -0.84626086580E+01  0.39319917743E+02  0.83970684571E+01  0.41087497311E+02  0.00000000000E+00 0. -1.
</event>
<event>
 7    1  0.2405891E-015  0.9000771E+02  0.7816164E-02  0.1186339E+00
        -11   -1    0    0    0    0  0.00000000000E+00  0.00000000000E+00  0.45593999997E+02  0.45594000000E+02  0.51100000000E-03 0. -1.
         11   -1    0    0    0    0 -0.00000000000E+00 -0.00000000000E+00 -0.45593999997E+02  0.45594000000E+02  0.51100000000E-03 0.  1.
    9900012    2    1    2    0    0  0.56964056099E+00  0.98490656412E+00  0.31392139165E+00  0.90007712768E+02  0.89999973777E+02 0.  0.
        -12    1    1    2    0    0 -0.56964056099E+00 -0.98490656412E+00 -0.31392139165E+00  0.11802872315E+01  0.00000000000E+00 0.  1.
         11    1    3    3    0    0 -0.40494964491E+02  0.79828837699E+00  0.14497615309E+02  0.43019301056E+02  0.51100000000E-03 0. -1.
        -11    1    3    3    0    0  0.70095219777E+01 -0.69783837823E+01 -0.18216845076E+01  0.10057324360E+02  0.51100000000E-03 0.  1.
        -12    1    3    3    0    0  0.34055083074E+02  0.71650019694E+01 -0.12362009409E+02  0.36931087353E+02  0.00000000000E+00 0.  1.
</event>
<event>
 7    1  0.2405891E-015  0.9000772E+02  0.7816164E-02  0.1186339E+00
        -11   -1    0    0    0    0  0.00000000000E+00  0.00000000000E+00  0.45593999997E+02  0.45594000000E+02  0.51100000000E-03 0. -1.
         11   -1    0    0    0    0 -0.00000000000E+00 -0.00000000000E+00 -0.45593999997E+02  0.45594000000E+02  0.51100000000E-03 0.  1.
    9900012    2    1    2    0    0 -0.10502939960E+01  0.42482583558E+00  0.33084464423E+00  0.90007723487E+02  0.89999984637E+02 0.  0.
        -12    1    1    2    0    0  0.10502939960E+01 -0.42482583558E+00 -0.33084464423E+00  0.11802765130E+01  0.00000000000E+00 0.  1.
         11    1    3    3    0    0 -0.31330050898E+01  0.10101915546E+02  0.38288804873E+02  0.39722751635E+02  0.51100000000E-03 0. -1.
        -11    1    3    3    0    0 -0.24959885536E+01  0.87841075937E+01 -0.16262154005E+01  0.92755097902E+01  0.51100000000E-03 0.  1.
        -12    1    3    3    0    0  0.45786996473E+01 -0.18461197304E+02 -0.36331744828E+02  0.41009462062E+02  0.00000000000E+00 0.  1.
</event>
<event>
 7    1  0.2405891E-015  0.9000769E+02  0.7816164E-02  0.1186339E+00
        -11   -1    0    0    0    0  0.00000000000E+00  0.00000000000E+00  0.45593999997E+02  0.45594000000E+02  0.51100000000E-03 0.  1.
         11   -1    0    0    0    0 -0.00000000000E+00 -0.00000000000E+00 -0.45593999997E+02  0.45594000000E+02  0.51100000000E-03 0. -1.
    9900012    2    1    2    0    0  0.60313353767E+00  0.73886218475E+00 -0.69529345698E+00  0.90007694792E+02  0.89999955563E+02 0.  0.
        -12    1    1    2    0    0 -0.60313353767E+00 -0.73886218475E+00  0.69529345698E+00  0.11803052078E+01  0.00000000000E+00 0.  1.
         11    1    3    3    0    0 -0.17384881101E+02 -0.67502523222E+01 -0.27977490262E+02  0.33623503074E+02  0.51100000000E-03 0. -1.
        -11    1    3    3    0    0  0.11718469866E+02 -0.69815772647E+01 -0.93257864967E+01  0.16523778356E+02  0.51100000000E-03 0.  1.
        -12    1    3    3    0    0  0.62695447730E+01  0.14470691772E+02  0.36607983302E+02  0.39860413363E+02  0.00000000000E+00 0.  1.
</event>
<event>
 7    1  0.2405891E-015  0.9000773E+02  0.7816164E-02  0.1186339E+00
        -11   -1    0    0    0    0  0.00000000000E+00  0.00000000000E+00  0.45593999997E+02  0.45594000000E+02  0.51100000000E-03 0.  1.
         11   -1    0    0    0    0 -0.00000000000E+00 -0.00000000000E+00 -0.45593999997E+02  0.45594000000E+02  0.51100000000E-03 0. -1.
    9900012    2    1    2    0    0 -0.24109844130E+00 -0.47282530647E+00 -0.10542046254E+01  0.90007729005E+02  0.89999990228E+02 0.  0.
        -12    1    1    2    0    0  0.24109844130E+00  0.47282530647E+00  0.10542046254E+01  0.11802709948E+01  0.00000000000E+00 0.  1.
         11    1    3    3    0    0 -0.86911753343E+01 -0.93774078529E+00  0.34987709572E+01  0.94157997507E+01  0.51100000000E-03 0. -1.
        -11    1    3    3    0    0 -0.33694644365E+02  0.47781981510E+01 -0.14633029044E+02  0.37044375763E+02  0.51100000000E-03 0.  1.
         12    1    3    3    0    0  0.42144721258E+02 -0.43132826722E+01  0.10080053461E+02  0.43547553491E+02  0.00000000000E+00 0. -1.
</event>
<event>
 7    1  0.2405891E-015  0.9000775E+02  0.7816164E-02  0.1186339E+00
        -11   -1    0    0    0    0  0.00000000000E+00  0.00000000000E+00  0.45593999997E+02  0.45594000000E+02  0.51100000000E-03 0.  1.
         11   -1    0    0    0    0 -0.00000000000E+00 -0.00000000000E+00 -0.45593999997E+02  0.45594000000E+02  0.51100000000E-03 0. -1.
    9900012    2    1    2    0    0 -0.64153645132E+00 -0.75619431460E+00 -0.63999890823E+00  0.90007746865E+02  0.90000008324E+02 0.  0.
        -12    1    1    2    0    0  0.64153645132E+00  0.75619431460E+00  0.63999890823E+00  0.11802531349E+01  0.00000000000E+00 0.  1.
         11    1    3    3    0    0 -0.43351491823E+01  0.79908899463E+01 -0.23916284264E+01  0.94004110207E+01  0.51100000000E-03 0. -1.
        -11    1    3    3    0    0  0.41076403277E+02 -0.79624672566E+01  0.82751858176E+01  0.42651500461E+02  0.51100000000E-03 0.  1.
         12    1    3    3    0    0 -0.37382790546E+02 -0.78461700438E+00 -0.65235562994E+01  0.37955835383E+02  0.00000000000E+00 0. -1.
</event>
<event>
 7    1  0.2405891E-015  0.9000775E+02  0.7816164E-02  0.1186339E+00
        -11   -1    0    0    0    0  0.00000000000E+00  0.00000000000E+00  0.45593999997E+02  0.45594000000E+02  0.51100000000E-03 0.  1.
         11   -1    0    0    0    0 -0.00000000000E+00 -0.00000000000E+00 -0.45593999997E+02  0.45594000000E+02  0.51100000000E-03 0. -1.
    9900012    2    1    2    0    0 -0.11456547941E+01  0.33435132807E-01  0.28168319432E+00  0.90007750773E+02  0.90000012283E+02 0.  0.
        -12    1    1    2    0    0  0.11456547941E+01 -0.33435132807E-01 -0.28168319432E+00  0.11802492268E+01  0.00000000000E+00 0.  1.
         11    1    3    3    0    0  0.49187074583E+01  0.93452574741E+01 -0.40753568407E+01  0.11319719694E+02  0.51100000000E-03 0. -1.
        -11    1    3    3    0    0  0.32158583609E+02  0.48812791738E+01  0.16050326977E+02  0.36271398959E+02  0.51100000000E-03 0.  1.
         12    1    3    3    0    0 -0.38222945861E+02 -0.14193101515E+02 -0.11693286942E+02  0.42416632120E+02  0.00000000000E+00 0. -1.
</event>
<event>
 7    1  0.2405891E-015  0.9000779E+02  0.7816164E-02  0.1186339E+00
        -11   -1    0    0    0    0  0.00000000000E+00  0.00000000000E+00  0.45593999997E+02  0.45594000000E+02  0.51100000000E-03 0.  1.
         11   -1    0    0    0    0 -0.00000000000E+00 -0.00000000000E+00 -0.45593999997E+02  0.45594000000E+02  0.51100000000E-03 0. -1.
    9900012    2    1    2    0    0 -0.10298731797E+00 -0.11062295356E+01 -0.39816431668E+00  0.90007794511E+02  0.90000056599E+02 0.  0.
        -12    1    1    2    0    0  0.10298731797E+00  0.11062295356E+01  0.39816431668E+00  0.11802054890E+01  0.00000000000E+00 0.  1.
         11    1    3    3    0    0  0.75381528996E+01 -0.34957974316E+02  0.22857088585E+02  0.42442080725E+02  0.51100000000E-03 0. -1.
        -11    1    3    3    0    0  0.73451325652E+01  0.58035856404E+01 -0.28667546526E+01  0.97903453047E+01  0.51100000000E-03 0.  1.
        -12    1    3    3    0    0 -0.14986272783E+02  0.28048159140E+02 -0.20388498249E+02  0.37775368481E+02  0.00000000000E+00 0.  1.
</event>
<event>
 7    1  0.2405891E-015  0.9000773E+02  0.7816164E-02  0.1186339E+00
        -11   -1    0    0    0    0  0.00000000000E+00  0.00000000000E+00  0.45593999997E+02  0.45594000000E+02  0.51100000000E-03 0. -1.
         11   -1    0    0    0    0 -0.00000000000E+00 -0.00000000000E+00 -0.45593999997E+02  0.45594000000E+02  0.51100000000E-03 0.  1.
    9900012    2    1    2    0    0 -0.92740908376E+00  0.72590987889E+00 -0.77516520734E-01  0.90007728179E+02  0.89999989391E+02 0.  0.
        -12    1    1    2    0    0  0.92740908376E+00 -0.72590987889E+00  0.77516520734E-01  0.11802718212E+01  0.00000000000E+00 0.  1.
         11    1    3    3    0    0 -0.22226251737E+02  0.27871699179E+02 -0.12058591281E+02  0.37633063990E+02  0.51100000000E-03 0. -1.
        -11    1    3    3    0    0 -0.23604462568E+01  0.15985845268E+01 -0.91381636680E+01  0.95725239360E+01  0.51100000000E-03 0.  1.
        -12    1    3    3    0    0  0.23659288910E+02 -0.28744373827E+02  0.21119238428E+02  0.42802140252E+02  0.00000000000E+00 0.  1.
</event>
<event>
 7    1  0.2405891E-015  0.9000769E+02  0.7816164E-02  0.1186339E+00
        -11   -1    0    0    0    0  0.00000000000E+00  0.00000000000E+00  0.45593999997E+02  0.45594000000E+02  0.51100000000E-03 0.  1.
         11   -1    0    0    0    0 -0.00000000000E+00 -0.00000000000E+00 -0.45593999997E+02  0.45594000000E+02  0.51100000000E-03 0. -1.
    9900012    2    1    2    0    0  0.72841198273E-01  0.66900435952E+00 -0.96967043731E+00  0.90007689265E+02  0.89999949964E+02 0.  0.
        -12    1    1    2    0    0 -0.72841198273E-01 -0.66900435952E+00  0.96967043731E+00  0.11803107346E+01  0.00000000000E+00 0.  1.
         11    1    3    3    0    0  0.39257592794E+02 -0.17215587941E+02 -0.13964928934E+01  0.42889220707E+02  0.51100000000E-03 0. -1.
        -11    1    3    3    0    0 -0.65249717065E+01  0.10887353241E+02  0.45068146090E+01  0.13469264811E+02  0.51100000000E-03 0.  1.
        -12    1    3    3    0    0 -0.32659779889E+02  0.69972390595E+01 -0.40799921529E+01  0.33649203748E+02  0.00000000000E+00 0.  1.
</event>
<event>
 7    1  0.2405891E-015  0.9000801E+02  0.7816164E-02  0.1186339E+00
        -11   -1    0    0    0    0  0.00000000000E+00  0.00000000000E+00  0.45593999997E+02  0.45594000000E+02  0.51100000000E-03 0. -1.
         11   -1    0    0    0    0 -0.00000000000E+00 -0.00000000000E+00 -0.45593999997E+02  0.45594000000E+02  0.51100000000E-03 0.  1.
    9900012    2    1    2    0    0 -0.27482420561E-01 -0.55667859051E-01  0.11783566179E+01  0.90008009105E+02  0.90000274024E+02 0.  0.
        -12    1    1    2    0    0  0.27482420561E-01  0.55667859051E-01 -0.11783566179E+01  0.11799908953E+01  0.00000000000E+00 0.  1.
         11    1    3    3    0    0  0.14342108742E+01 -0.72286957710E+01 -0.12651154241E+02  0.14641130669E+02  0.51100000000E-03 0. -1.
        -11    1    3    3    0    0 -0.27632117504E+02 -0.17326468255E+02  0.21023413556E+02  0.38803663974E+02  0.51100000000E-03 0.  1.
         12    1    3    3    0    0  0.26170424209E+02  0.24499496167E+02 -0.71939026971E+01  0.36563214462E+02  0.00000000000E+00 0. -1.
</event>
<event>
 7    1  0.2617789E-015  0.9000778E+02  0.7816164E-02  0.1186339E+00
        -11   -1    0    0    0    0  0.00000000000E+00  0.00000000000E+00  0.45593999997E+02  0.45594000000E+02  0.51100000000E-03 0.  1.
         11   -1    0    0    0    0 -0.00000000000E+00 -0.00000000000E+00 -0.45593999997E+02  0.45594000000E+02  0.51100000000E-03 0. -1.
    9900012    2    1    2    0    0 -0.55975449030E+00  0.91597122934E+00  0.49051142604E+00  0.90007775512E+02  0.90000037349E+02 0.  0.
        -12    1    1    2    0    0  0.55975449030E+00 -0.91597122934E+00 -0.49051142604E+00  0.11802244877E+01  0.00000000000E+00 0.  1.
         11    1    3    3    0    0  0.73089482774E+00  0.70812673640E+00 -0.95817732790E+01  0.96356644895E+01  0.51100000000E-03 0. -1.
        -11    1    3    3    0    0 -0.19923036395E+02  0.34010638650E+02  0.13398081925E+02  0.41631232507E+02  0.51100000000E-03 0.  1.
         12    1    3    3    0    0  0.18632387077E+02 -0.33802794157E+02 -0.33257972198E+01  0.38740878515E+02  0.00000000000E+00 0. -1.
</event>
<event>
 7    1  0.2405891E-015  0.9000756E+02  0.7816164E-02  0.1186339E+00
        -11   -1    0    0    0    0  0.00000000000E+00  0.00000000000E+00  0.45593999997E+02  0.45594000000E+02  0.51100000000E-03 0.  1.
         11   -1    0    0    0    0 -0.00000000000E+00 -0.00000000000E+00 -0.45593999997E+02  0.45594000000E+02  0.51100000000E-03 0. -1.
    9900012    2    1    2    0    0 -0.40199998554E+00 -0.93429926886E+00 -0.59910139723E+00  0.90007558728E+02  0.89999817703E+02 0.  0.
        -12    1    1    2    0    0  0.40199998554E+00  0.93429926886E+00  0.59910139723E+00  0.11804412719E+01  0.00000000000E+00 0.  1.
         11    1    3    3    0    0 -0.18118950944E+01  0.32615935882E+02 -0.22398990219E+02  0.39608042117E+02  0.51100000000E-03 0. -1.
        -11    1    3    3    0    0  0.19209748783E+01 -0.35348267131E+01 -0.74621390767E+01  0.84775388076E+01  0.51100000000E-03 0.  1.
        -12    1    3    3    0    0 -0.51107976945E+00 -0.30015408438E+02  0.29262027898E+02  0.41921977803E+02  0.00000000000E+00 0.  1.
</event>
<event>
 7    1  0.2405891E-015  0.9000771E+02  0.7816164E-02  0.1186339E+00
        -11   -1    0    0    0    0  0.00000000000E+00  0.00000000000E+00  0.45593999997E+02  0.45594000000E+02  0.51100000000E-03 0. -1.
         11   -1    0    0    0    0 -0.00000000000E+00 -0.00000000000E+00 -0.45593999997E+02  0.45594000000E+02  0.51100000000E-03 0.  1.
    9900012    2    1    2    0    0  0.45522958069E+00  0.10679317810E+01 -0.21298358534E+00  0.90007714328E+02  0.89999975357E+02 0.  0.
        -12    1    1    2    0    0 -0.45522958069E+00 -0.10679317810E+01  0.21298358534E+00  0.11802856720E+01  0.00000000000E+00 0.  1.
         11    1    3    3    0    0  0.88894698610E+01 -0.52810738045E+01  0.41545770617E+01  0.11143290616E+02  0.51100000000E-03 0. -1.
        -11    1    3    3    0    0  0.34938403241E+02  0.50743088209E+01 -0.33154507794E+01  0.35460299564E+02  0.51100000000E-03 0.  1.
         12    1    3    3    0    0 -0.43372643521E+02  0.12746967646E+01 -0.10521098676E+01  0.43404124148E+02  0.00000000000E+00 0. -1.
</event>
<event>
 7    1  0.2405891E-015  0.9000796E+02  0.7816164E-02  0.1186339E+00
        -11   -1    0    0    0    0  0.00000000000E+00  0.00000000000E+00  0.45593999997E+02  0.45594000000E+02  0.51100000000E-03 0. -1.
         11   -1    0    0    0    0 -0.00000000000E+00 -0.00000000000E+00 -0.45593999997E+02  0.45594000000E+02  0.51100000000E-03 0.  1.
    9900012    2    1    2    0    0  0.56209585956E+00  0.96548262434E+00  0.37997860741E+00  0.90007960935E+02  0.90000225219E+02 0.  0.
        -12    1    1    2    0    0 -0.56209585956E+00 -0.96548262434E+00 -0.37997860741E+00  0.11800390652E+01  0.00000000000E+00 0.  1.
         11    1    3    3    0    0 -0.64605209355E+01  0.71294012068E+01  0.18953598403E+01  0.98060737052E+01  0.51100000000E-03 0. -1.
        -11    1    3    3    0    0 -0.35040871983E+02 -0.13203451261E+02  0.12203902079E+01  0.37465760196E+02  0.51100000000E-03 0.  1.
         12    1    3    3    0    0  0.42063488778E+02  0.70395326786E+01 -0.27357714408E+01  0.42736127034E+02  0.00000000000E+00 0. -1.
</event>
<event>
 7    1  0.2405891E-015  0.9000770E+02  0.7816164E-02  0.1186339E+00
        -11   -1    0    0    0    0  0.00000000000E+00  0.00000000000E+00  0.45593999997E+02  0.45594000000E+02  0.51100000000E-03 0.  1.
         11   -1    0    0    0    0 -0.00000000000E+00 -0.00000000000E+00 -0.45593999997E+02  0.45594000000E+02  0.51100000000E-03 0. -1.
    9900012    2    1    2    0    0  0.54619097695E+00  0.99208933843E+00  0.33249248999E+00  0.90007696185E+02  0.89999956975E+02 0.  0.
        -12    1    1    2    0    0 -0.54619097695E+00 -0.99208933843E+00 -0.33249248999E+00  0.11803038145E+01  0.00000000000E+00 0.  1.
         11    1    3    3    0    0  0.25376717598E+02  0.13437009093E+02 -0.21957634351E+02  0.36147872910E+02  0.51100000000E-03 0. -1.
        -11    1    3    3    0    0  0.51789894463E+01 -0.19303286466E+01 -0.81452698707E+01  0.98434507108E+01  0.51100000000E-03 0.  1.
        -12    1    3    3    0    0 -0.30009516067E+02 -0.10514591108E+02  0.30435396711E+02  0.44016372564E+02  0.00000000000E+00 0.  1.
</event>
<event>
 7    1  0.2405891E-015  0.9000774E+02  0.7816164E-02  0.1186339E+00
        -11   -1    0    0    0    0  0.00000000000E+00  0.00000000000E+00  0.45593999997E+02  0.45594000000E+02  0.51100000000E-03 0.  1.
         11   -1    0    0    0    0 -0.00000000000E+00 -0.00000000000E+00 -0.45593999997E+02  0.45594000000E+02  0.51100000000E-03 0. -1.
    9900012    2    1    2    0    0 -0.36247619477E+00 -0.66608290546E+00 -0.90440405657E+00  0.90007744889E+02  0.90000006322E+02 0.  0.
        -12    1    1    2    0    0  0.36247619477E+00  0.66608290546E+00  0.90440405657E+00  0.11802551107E+01  0.00000000000E+00 0.  1.
         11    1    3    3    0    0  0.54788881678E+00 -0.18586317373E+02 -0.24505267329E+02  0.30761331290E+02  0.51100000000E-03 0. -1.
        -11    1    3    3    0    0  0.35334957163E+01 -0.15590649380E+02 -0.29573181945E+01  0.16257295938E+02  0.51100000000E-03 0.  1.
        -12    1    3    3    0    0 -0.44438607279E+01  0.33510883848E+02  0.26558181466E+02  0.42989117660E+02  0.00000000000E+00 0.  1.
</event>
<event>
 7    1  0.2405891E-015  0.9000773E+02  0.7816164E-02  0.1186339E+00
        -11   -1    0    0    0    0  0.00000000000E+00  0.00000000000E+00  0.45593999997E+02  0.45594000000E+02  0.51100000000E-03 0.  1.
         11   -1    0    0    0    0 -0.00000000000E+00 -0.00000000000E+00 -0.45593999997E+02  0.45594000000E+02  0.51100000000E-03 0. -1.
    9900012    2    1    2    0    0 -0.52838344238E+00  0.28700249893E+00  0.10156142088E+01  0.90007732353E+02  0.89999993620E+02 0.  0.
        -12    1    1    2    0    0  0.52838344238E+00 -0.28700249893E+00 -0.10156142088E+01  0.11802676467E+01  0.00000000000E+00 0.  1.
         11    1    3    3    0    0 -0.47151699930E+01 -0.26493283424E+00 -0.15273987481E+02  0.15987423535E+02  0.51100000000E-03 0. -1.
        -11    1    3    3    0    0 -0.30112871867E+02 -0.67965966430E+01 -0.73334547752E+01  0.31729455357E+02  0.51100000000E-03 0.  1.
         12    1    3    3    0    0  0.34299658418E+02  0.73485319762E+01  0.23623056465E+02  0.42290853462E+02  0.00000000000E+00 0. -1.
</event>
<event>
 7    1  0.2405891E-015  0.9000775E+02  0.7816164E-02  0.1186339E+00
        -11   -1    0    0    0    0  0.00000000000E+00  0.00000000000E+00  0.45593999997E+02  0.45594000000E+02  0.51100000000E-03 0.  1.
         11   -1    0    0    0    0 -0.00000000000E+00 -0.00000000000E+00 -0.45593999997E+02  0.45594000000E+02  0.51100000000E-03 0. -1.
    9900012    2    1    2    0    0  0.24240242561E-01  0.76333976639E+00 -0.89983918763E+00  0.90007751826E+02  0.90000013350E+02 0.  0.
        -12    1    1    2    0    0 -0.24240242561E-01 -0.76333976639E+00  0.89983918763E+00  0.11802481739E+01  0.00000000000E+00 0.  1.
         11    1    3    3    0    0  0.11548974685E+02  0.47158917625E+01 -0.79876993673E+01  0.14812892791E+02  0.51100000000E-03 0. -1.
        -11    1    3    3    0    0  0.28329502614E+02  0.75364232420E+01  0.15062334292E+02  0.32958038598E+02  0.51100000000E-03 0.  1.
        -12    1    3    3    0    0 -0.39854237056E+02 -0.11488975238E+02 -0.79744741127E+01  0.42236820438E+02  0.00000000000E+00 0.  1.
</event>
<event>
 7    1 -0.2405891E-015  0.9000777E+02  0.7816164E-02  0.1186339E+00
        -11   -1    0    0    0    0  0.00000000000E+00  0.00000000000E+00  0.45593999997E+02  0.45594000000E+02  0.51100000000E-03 0. -1.
         11   -1    0    0    0    0 -0.00000000000E+00 -0.00000000000E+00 -0.45593999997E+02  0.45594000000E+02  0.51100000000E-03 0.  1.
    9900012    2    1    2    0    0 -0.10798512012E+01  0.40749464662E-01  0.47456515420E+00  0.90007766455E+02  0.90000028172E+02 0.  0.
        -12    1    1    2    0    0  0.10798512012E+01 -0.40749464662E-01 -0.47456515420E+00  0.11802335452E+01  0.00000000000E+00 0.  1.
         11    1    3    3    0    0  0.87204410100E+01  0.11848708036E+01 -0.90564238340E+00  0.88470446262E+01  0.51100000000E-03 0. -1.
        -11    1    3    3    0    0  0.28175867720E+02  0.80739706105E+01 -0.21065284932E+02  0.36094525245E+02  0.51100000000E-03 0.  1.
         12    1    3    3    0    0 -0.37976159931E+02 -0.92180919494E+01  0.22445492469E+02  0.45066196583E+02  0.00000000000E+00 0. -1.
</event>
<event>
 7    1  0.2405891E-015  0.9000778E+02  0.7816164E-02  0.1186339E+00
        -11   -1    0    0    0    0  0.00000000000E+00  0.00000000000E+00  0.45593999997E+02  0.45594000000E+02  0.51100000000E-03 0.  1.
         11   -1    0    0    0    0 -0.00000000000E+00 -0.00000000000E+00 -0.45593999997E+02  0.45594000000E+02  0.51100000000E-03 0. -1.
    9900012    2    1    2    0    0 -0.32549194309E+00  0.17026945818E-01 -0.11343219491E+01  0.90007779171E+02  0.90000041056E+02 0.  0.
        -12    1    1    2    0    0  0.32549194309E+00 -0.17026945818E-01  0.11343219491E+01  0.11802208294E+01  0.00000000000E+00 0.  1.
         11    1    3    3    0    0 -0.58618848177E+01 -0.62071382048E+01 -0.21033047682E+01  0.87928464970E+01  0.51100000000E-03 0. -1.
        -11    1    3    3    0    0 -0.37624345641E+02  0.55930753016E+01 -0.38907953806E-01  0.38037815268E+02  0.51100000000E-03 0.  1.
         12    1    3    3    0    0  0.43160738516E+02  0.63108984910E+00  0.10078907729E+01  0.43177117406E+02  0.00000000000E+00 0. -1.
</event>
<event>
 7    1  0.2405891E-015  0.9000772E+02  0.7816164E-02  0.1186339E+00
        -11   -1    0    0    0    0  0.00000000000E+00  0.00000000000E+00  0.45593999997E+02  0.45594000000E+02  0.51100000000E-03 0.  1.
         11   -1    0    0    0    0 -0.00000000000E+00 -0.00000000000E+00 -0.45593999997E+02  0.45594000000E+02  0.51100000000E-03 0. -1.
    9900012    2    1    2    0    0  0.10325919448E+01 -0.32719529568E+00 -0.46879209491E+00  0.90007716596E+02  0.89999977655E+02 0.  0.
        -12    1    1    2    0    0 -0.10325919448E+01  0.32719529568E+00  0.46879209491E+00  0.11802834042E+01  0.00000000000E+00 0.  1.
         11    1    3    3    0    0 -0.29673302447E+01  0.39850464530E+01  0.86155927453E+01  0.99455559235E+01  0.51100000000E-03 0. -1.
        -11    1    3    3    0    0  0.25343023918E+02 -0.87342570282E+01  0.26909865774E+02  0.37982851175E+02  0.51100000000E-03 0.  1.
         12    1    3    3    0    0 -0.21343101729E+02  0.44220152795E+01 -0.35994250614E+02  0.42079309497E+02  0.00000000000E+00 0. -1.
</event>
<event>
 7    1  0.2405891E-015  0.9000783E+02  0.7816164E-02  0.1186339E+00
        -11   -1    0    0    0    0  0.00000000000E+00  0.00000000000E+00  0.45593999997E+02  0.45594000000E+02  0.51100000000E-03 0. -1.
         11   -1    0    0    0    0 -0.00000000000E+00 -0.00000000000E+00 -0.45593999997E+02  0.45594000000E+02  0.51100000000E-03 0.  1.
    9900012    2    1    2    0    0 -0.10023353085E+01 -0.45385945856E-01  0.62134780545E+00  0.90007826686E+02  0.90000089199E+02 0.  0.
        -12    1    1    2    0    0  0.10023353085E+01  0.45385945856E-01 -0.62134780545E+00  0.11801733136E+01  0.00000000000E+00 0.  1.
         11    1    3    3    0    0  0.79095091602E+01 -0.95549422808E+01  0.61660986305E+00  0.12419237703E+02  0.51100000000E-03 0. -1.
        -11    1    3    3    0    0 -0.70048512402E+01 -0.20076682164E+02 -0.29101095062E+02  0.36041848478E+02  0.51100000000E-03 0.  1.
         12    1    3    3    0    0 -0.19069932285E+01  0.29586238499E+02  0.29105833005E+02  0.41546740505E+02  0.00000000000E+00 0. -1.
</event>
<event>
 7    1  0.2405891E-015  0.9000804E+02  0.7816164E-02  0.1186338E+00
        -11   -1    0    0    0    0  0.00000000000E+00  0.00000000000E+00  0.45593999997E+02  0.45594000000E+02  0.51100000000E-03 0. -1.
         11   -1    0    0    0    0 -0.00000000000E+00 -0.00000000000E+00 -0.45593999997E+02  0.45594000000E+02  0.51100000000E-03 0.  1.
    9900012    2    1    2    0    0 -0.72846170957E+00  0.29421580828E+00 -0.88038880111E+00  0.90008040744E+02  0.90000306082E+02 0.  0.
        -12    1    1    2    0    0  0.72846170957E+00 -0.29421580828E+00  0.88038880111E+00  0.11799592558E+01  0.00000000000E+00 0.  1.
         11    1    3    3    0    0 -0.57208350462E+01  0.80608552238E+01  0.22727696386E+02  0.24784138553E+02  0.51100000000E-03 0. -1.
        -11    1    3    3    0    0 -0.19012908445E+02  0.17176492556E+02 -0.57039054913E+01  0.26249897565E+02  0.51100000000E-03 0.  1.
        -12    1    3    3    0    0  0.24005281782E+02 -0.24943131971E+02 -0.17904179696E+02  0.38974004625E+02  0.00000000000E+00 0.  1.
</event>
<event>
 7    1  0.2405891E-015  0.9000764E+02  0.7816164E-02  0.1186339E+00
        -11   -1    0    0    0    0  0.00000000000E+00  0.00000000000E+00  0.45593999997E+02  0.45594000000E+02  0.51100000000E-03 0.  1.
         11   -1    0    0    0    0 -0.00000000000E+00 -0.00000000000E+00 -0.45593999997E+02  0.45594000000E+02  0.51100000000E-03 0. -1.
    9900012    2    1    2    0    0 -0.86919819887E+00 -0.73771884426E+00 -0.30580836970E+00  0.90007638462E+02  0.89999898489E+02 0.  0.
        -12    1    1    2    0    0  0.86919819887E+00  0.73771884426E+00  0.30580836970E+00  0.11803615383E+01  0.00000000000E+00 0.  1.
         11    1    3    3    0    0  0.37806342377E+01 -0.86830530177E+01 -0.22909058537E+01  0.97435545280E+01  0.51100000000E-03 0. -1.
        -11    1    3    3    0    0  0.19805840042E+02  0.89642785039E+01  0.33760250330E+02  0.40154502755E+02  0.51100000000E-03 0.  1.
         12    1    3    3    0    0 -0.24455672479E+02 -0.10189443304E+01 -0.31775152846E+02  0.40109581179E+02  0.00000000000E+00 0. -1.
</event>
<event>
 7    1  0.2405891E-015  0.9000775E+02  0.7816164E-02  0.1186339E+00
        -11   -1    0    0    0    0  0.00000000000E+00  0.00000000000E+00  0.45593999997E+02  0.45594000000E+02  0.51100000000E-03 0. -1.
         11   -1    0    0    0    0 -0.00000000000E+00 -0.00000000000E+00 -0.45593999997E+02  0.45594000000E+02  0.51100000000E-03 0.  1.
    9900012    2    1    2    0    0  0.23463681882E+00  0.93600325712E+00  0.67957538672E+00  0.90007754585E+02  0.90000016145E+02 0.  0.
        -12    1    1    2    0    0 -0.23463681882E+00 -0.93600325712E+00 -0.67957538672E+00  0.11802454153E+01  0.00000000000E+00 0.  1.
         11    1    3    3    0    0  0.22946675032E+01 -0.60534901246E+01 -0.31676120325E+01  0.72072191508E+01  0.51100000000E-03 0. -1.
        -11    1    3    3    0    0 -0.34874758493E+02 -0.12137060768E+02  0.19453605000E+02  0.41737270775E+02  0.51100000000E-03 0.  1.
         12    1    3    3    0    0  0.32814727808E+02  0.19126554149E+02 -0.15606417581E+02  0.41063264659E+02  0.00000000000E+00 0. -1.
</event>
<event>
 7    1  0.2516120E-015  0.9000774E+02  0.7816164E-02  0.1186339E+00
        -11   -1    0    0    0    0  0.00000000000E+00  0.00000000000E+00  0.45593999997E+02  0.45594000000E+02  0.51100000000E-03 0.  1.
         11   -1    0    0    0    0 -0.00000000000E+00 -0.00000000000E+00 -0.45593999997E+02  0.45594000000E+02  0.51100000000E-03 0. -1.
    9900012    2    1    2    0    0 -0.10991621450E+01  0.40763094333E+00 -0.13670526824E+00  0.90007742089E+02  0.90000003484E+02 0.  0.
        -12    1    1    2    0    0  0.10991621450E+01 -0.40763094333E+00  0.13670526824E+00  0.11802579113E+01  0.00000000000E+00 0.  1.
         11    1    3    3    0    0 -0.52574600019E+01 -0.10426303646E+01  0.75716534777E+01  0.92767397504E+01  0.51100000000E-03 0. -1.
        -11    1    3    3    0    0  0.10330945153E+02 -0.76007113037E+00  0.35524401736E+02  0.37003908643E+02  0.51100000000E-03 0.  1.
         12    1    3    3    0    0 -0.61726472959E+01  0.22103324383E+01 -0.43232760482E+02  0.43727093695E+02  0.00000000000E+00 0. -1.
</event>
<event>
 7    1  0.2405891E-015  0.9000776E+02  0.7816164E-02  0.1186339E+00
        -11   -1    0    0    0    0  0.00000000000E+00  0.00000000000E+00  0.45593999997E+02  0.45594000000E+02  0.51100000000E-03 0.  1.
         11   -1    0    0    0    0 -0.00000000000E+00 -0.00000000000E+00 -0.45593999997E+02  0.45594000000E+02  0.51100000000E-03 0. -1.
    9900012    2    1    2    0    0  0.11597212434E+01 -0.17992425480E+00 -0.12509228384E+00  0.90007756729E+02  0.90000018318E+02 0.  0.
        -12    1    1    2    0    0 -0.11597212434E+01  0.17992425480E+00  0.12509228384E+00  0.11802432712E+01  0.00000000000E+00 0.  1.
         11    1    3    3    0    0 -0.20341214329E+02 -0.24600084212E+02 -0.24270779662E+02  0.40099873931E+02  0.51100000000E-03 0. -1.
        -11    1    3    3    0    0 -0.44659173325E+01  0.94848423448E+01 -0.13513426179E+01  0.10570372702E+02  0.51100000000E-03 0.  1.
        -12    1    3    3    0    0  0.25966852905E+02  0.14935317612E+02  0.25497029996E+02  0.39337510096E+02  0.00000000000E+00 0.  1.
</event>
<event>
 7    1  0.2564177E-015  0.9000770E+02  0.7816164E-02  0.1186339E+00
        -11   -1    0    0    0    0  0.00000000000E+00  0.00000000000E+00  0.45593999997E+02  0.45594000000E+02  0.51100000000E-03 0.  1.
         11   -1    0    0    0    0 -0.00000000000E+00 -0.00000000000E+00 -0.45593999997E+02  0.45594000000E+02  0.51100000000E-03 0. -1.
    9900012    2    1    2    0    0  0.39669879741E+00  0.66648051831E+00 -0.88968763225E+00  0.90007699064E+02  0.89999959891E+02 0.  0.
        -12    1    1    2    0    0 -0.39669879741E+00 -0.66648051831E+00  0.88968763225E+00  0.11803009363E+01  0.00000000000E+00 0.  1.
         11    1    3    3    0    0  0.45582506044E+01  0.25199824264E+01  0.81172553903E+01  0.96445733619E+01  0.51100000000E-03 0. -1.
        -11    1    3    3    0    0  0.10523020978E+02  0.35392933115E+02  0.63803827525E+01  0.37471361990E+02  0.51100000000E-03 0.  1.
         12    1    3    3    0    0 -0.14684572785E+02 -0.37246435023E+02 -0.15387325775E+02  0.42891763712E+02  0.00000000000E+00 0. -1.
</event>
<event>
 7    1  0.2405891E-015  0.9000775E+02  0.7816164E-02  0.1186339E+00
        -11   -1    0    0    0    0  0.00000000000E+00  0.00000000000E+00  0.45593999997E+02  0.45594000000E+02  0.51100000000E-03 0. -1.
         11   -1    0    0    0    0 -0.00000000000E+00 -0.00000000000E+00 -0.45593999997E+02  0.45594000000E+02  0.51100000000E-03 0.  1.
    9900012    2    1    2    0    0 -0.49361074862E+00 -0.38777381329E-01  0.10713740246E+01  0.90007746825E+02  0.90000008283E+02 0.  0.
        -12    1    1    2    0    0  0.49361074862E+00  0.38777381329E-01 -0.10713740246E+01  0.11802531750E+01  0.00000000000E+00 0.  1.
         11    1    3    3    0    0  0.31826559747E+02 -0.31889766473E+01  0.25474116018E+02  0.40890464225E+02  0.51100000000E-03 0. -1.
        -11    1    3    3    0    0 -0.70459846662E+01  0.16011659723E+01  0.61124815958E+01  0.94642518937E+01  0.51100000000E-03 0.  1.
        -12    1    3    3    0    0 -0.25274185829E+02  0.15490332938E+01 -0.30515223590E+02  0.39653030706E+02  0.00000000000E+00 0.  1.
</event>
<event>
 7    1  0.2405891E-015  0.9000774E+02  0.7816164E-02  0.1186339E+00
        -11   -1    0    0    0    0  0.00000000000E+00  0.00000000000E+00  0.45593999997E+02  0.45594000000E+02  0.51100000000E-03 0.  1.
         11   -1    0    0    0    0 -0.00000000000E+00 -0.00000000000E+00 -0.45593999997E+02  0.45594000000E+02  0.51100000000E-03 0. -1.
    9900012    2    1    2    0    0 -0.87712884250E+00 -0.78804139857E+00  0.51584635829E-01  0.90007735103E+02  0.89999996406E+02 0.  0.
        -12    1    1    2    0    0  0.87712884250E+00  0.78804139857E+00 -0.51584635829E-01  0.11802648969E+01  0.00000000000E+00 0.  1.
         11    1    3    3    0    0  0.23608162915E+02 -0.23643952161E+02 -0.22157425816E+02  0.40091562068E+02  0.51100000000E-03 0. -1.
        -11    1    3    3    0    0  0.61916166471E+01  0.78587369763E+01  0.18909841815E+01  0.10181929336E+02  0.51100000000E-03 0.  1.
        -12    1    3    3    0    0 -0.30676908405E+02  0.14997173786E+02  0.20318026270E+02  0.39734243699E+02  0.00000000000E+00 0.  1.
</event>
<event>
 7    1  0.2405891E-015  0.9000845E+02  0.7816164E-02  0.1186338E+00
        -11   -1    0    0    0    0  0.00000000000E+00  0.00000000000E+00  0.45593999997E+02  0.45594000000E+02  0.51100000000E-03 0.  1.
         11   -1    0    0    0    0 -0.00000000000E+00 -0.00000000000E+00 -0.45593999997E+02  0.45594000000E+02  0.51100000000E-03 0. -1.
    9900012    2    1    2    0    0 -0.30504408676E+00  0.24298945887E+00 -0.11132132302E+01  0.90008449464E+02  0.90000720194E+02 0.  0.
        -12    1    1    2    0    0  0.30504408676E+00 -0.24298945887E+00  0.11132132302E+01  0.11795505364E+01  0.00000000000E+00 0.  1.
         11    1    3    3    0    0  0.57064050062E+00 -0.51537149036E+01 -0.58592578593E+01  0.78241492068E+01  0.51100000000E-03 0. -1.
        -11    1    3    3    0    0 -0.38388313740E+02 -0.12878575338E+01 -0.12454043548E+02  0.40378514210E+02  0.51100000000E-03 0.  1.
         12    1    3    3    0    0  0.37512629153E+02  0.66845618962E+01  0.17200088177E+02  0.41805786047E+02  0.00000000000E+00 0. -1.
</event>
<event>
 7    1  0.2405891E-015  0.9000780E+02  0.7816164E-02  0.1186339E+00
        -11   -1    0    0    0    0  0.00000000000E+00  0.00000000000E+00  0.45593999997E+02  0.45594000000E+02  0.51100000000E-03 0. -1.
         11   -1    0    0    0    0 -0.00000000000E+00 -0.00000000000E+00 -0.45593999997E+02  0.45594000000E+02  0.51100000000E-03 0.  1.
    9900012    2    1    2    0    0  0.92165480059E+00  0.64968927637E+00  0.34833387765E+00  0.90007796536E+02  0.90000058650E+02 0.  0.
        -12    1    1    2    0    0 -0.92165480059E+00 -0.64968927637E+00 -0.34833387765E+00  0.11802034645E+01  0.00000000000E+00 0.  1.
         11    1    3    3    0    0  0.19045097668E+02  0.11846133610E+02  0.29222859413E+02  0.36837781410E+02  0.51100000000E-03 0. -1.
        -11    1    3    3    0    0  0.67690924042E+01 -0.32319123680E+01  0.59884099589E+01  0.95982771177E+01  0.51100000000E-03 0.  1.
        -12    1    3    3    0    0 -0.24892535272E+02 -0.79645319661E+01 -0.34862935494E+02  0.43571738007E+02  0.00000000000E+00 0.  1.
</event>
<event>
 7    1  0.2405891E-015  0.9000769E+02  0.7816164E-02  0.1186339E+00
        -11   -1    0    0    0    0  0.00000000000E+00  0.00000000000E+00  0.45593999997E+02  0.45594000000E+02  0.51100000000E-03 0. -1.
         11   -1    0    0    0    0 -0.00000000000E+00 -0.00000000000E+00 -0.45593999997E+02  0.45594000000E+02  0.51100000000E-03 0.  1.
    9900012    2    1    2    0    0 -0.76188088711E+00 -0.89877915193E+00 -0.69741218893E-01  0.90007690597E+02  0.89999951312E+02 0.  0.
        -12    1    1    2    0    0  0.76188088711E+00  0.89877915193E+00  0.69741218893E-01  0.11803094034E+01  0.00000000000E+00 0.  1.
         11    1    3    3    0    0 -0.12451894166E+02  0.14747304506E+02  0.29886930080E+02  0.35577538538E+02  0.51100000000E-03 0. -1.
        -11    1    3    3    0    0 -0.81149758815E+01  0.18247251700E+01  0.56817146229E+01  0.10072950750E+02  0.51100000000E-03 0.  1.
        -12    1    3    3    0    0  0.19804989161E+02 -0.17470808828E+02 -0.35638385922E+02  0.44357201308E+02  0.00000000000E+00 0.  1.
</event>
<event>
 7    1  0.2405891E-015  0.9000784E+02  0.7816164E-02  0.1186339E+00
        -11   -1    0    0    0    0  0.00000000000E+00  0.00000000000E+00  0.45593999997E+02  0.45594000000E+02  0.51100000000E-03 0. -1.
         11   -1    0    0    0    0 -0.00000000000E+00 -0.00000000000E+00 -0.45593999997E+02  0.45594000000E+02  0.51100000000E-03 0.  1.
    9900012    2    1    2    0    0  0.65301984478E+00 -0.78250968843E+00  0.59500364311E+00  0.90007836594E+02  0.90000099237E+02 0.  0.
        -12    1    1    2    0    0 -0.65301984478E+00  0.78250968843E+00 -0.59500364311E+00  0.11801634063E+01  0.00000000000E+00 0.  1.
         11    1    3    3    0    0  0.65276188663E+01 -0.16250917127E+02 -0.21475741162E+02  0.27711181394E+02  0.51100000000E-03 0. -1.
        -11    1    3    3    0    0  0.13206679893E+02  0.13414633763E+02 -0.12611435046E+02  0.22658708854E+02  0.51100000000E-03 0.  1.
         12    1    3    3    0    0 -0.19081278914E+02  0.20537736763E+01  0.34682179850E+02  0.39637946346E+02  0.00000000000E+00 0. -1.
</event>
<event>
 7    1  0.2424158E-015  0.9000773E+02  0.7816164E-02  0.1186339E+00
        -11   -1    0    0    0    0  0.00000000000E+00  0.00000000000E+00  0.45593999997E+02  0.45594000000E+02  0.51100000000E-03 0.  1.
         11   -1    0    0    0    0 -0.00000000000E+00 -0.00000000000E+00 -0.45593999997E+02  0.45594000000E+02  0.51100000000E-03 0. -1.
    9900012    2    1    2    0    0 -0.98887085630E+00  0.62043173632E+00 -0.17390336622E+00  0.90007727366E+02  0.89999988567E+02 0.  0.
        -12    1    1    2    0    0  0.98887085630E+00 -0.62043173632E+00  0.17390336622E+00  0.11802726340E+01  0.00000000000E+00 0.  1.
         11    1    3    3    0    0 -0.80363827857E+01 -0.12364595802E+01  0.55200402551E+01  0.98276714053E+01  0.51100000000E-03 0. -1.
        -11    1    3    3    0    0 -0.12944365316E+02 -0.29269142752E+02  0.17540630563E+02  0.36495383704E+02  0.51100000000E-03 0.  1.
         12    1    3    3    0    0  0.19991877246E+02  0.31126034069E+02 -0.23234574184E+02  0.43684672257E+02  0.00000000000E+00 0. -1.
</event>
<event>
 7    1  0.2405891E-015  0.9000773E+02  0.7816164E-02  0.1186339E+00
        -11   -1    0    0    0    0  0.00000000000E+00  0.00000000000E+00  0.45593999997E+02  0.45594000000E+02  0.51100000000E-03 0. -1.
         11   -1    0    0    0    0 -0.00000000000E+00 -0.00000000000E+00 -0.45593999997E+02  0.45594000000E+02  0.51100000000E-03 0.  1.
    9900012    2    1    2    0    0 -0.44647202608E+00  0.67165144060E+00 -0.86173102454E+00  0.90007731689E+02  0.89999992947E+02 0.  0.
        -12    1    1    2    0    0  0.44647202608E+00 -0.67165144060E+00  0.86173102454E+00  0.11802683112E+01  0.00000000000E+00 0.  1.
         11    1    3    3    0    0  0.60188802193E+00  0.39251291924E+01 -0.77852035602E+01  0.87394681247E+01  0.51100000000E-03 0. -1.
        -11    1    3    3    0    0  0.21774517544E+02  0.28512308545E+00 -0.30389271623E+02  0.37386076813E+02  0.51100000000E-03 0.  1.
         12    1    3    3    0    0 -0.22822877592E+02 -0.35386008373E+01  0.37312744158E+02  0.43882186751E+02  0.00000000000E+00 0. -1.
</event>
<event>
 7    1  0.2405891E-015  0.9000775E+02  0.7816164E-02  0.1186339E+00
        -11   -1    0    0    0    0  0.00000000000E+00  0.00000000000E+00  0.45593999997E+02  0.45594000000E+02  0.51100000000E-03 0.  1.
         11   -1    0    0    0    0 -0.00000000000E+00 -0.00000000000E+00 -0.45593999997E+02  0.45594000000E+02  0.51100000000E-03 0. -1.
    9900012    2    1    2    0    0 -0.19783396924E-01  0.93570651920E+00 -0.71907125544E+00  0.90007745136E+02  0.90000006572E+02 0.  0.
        -12    1    1    2    0    0  0.19783396924E-01 -0.93570651920E+00  0.71907125544E+00  0.11802548637E+01  0.00000000000E+00 0.  1.
         11    1    3    3    0    0 -0.37675808060E+01 -0.67728217670E+01 -0.75302086595E+01  0.10806008631E+02  0.51100000000E-03 0. -1.
        -11    1    3    3    0    0  0.40713774830E+02  0.13588413832E+01  0.86680262270E+01  0.41648440424E+02  0.51100000000E-03 0.  1.
         12    1    3    3    0    0 -0.36965977421E+02  0.63496869030E+01 -0.18568888230E+01  0.37553296081E+02  0.00000000000E+00 0. -1.
</event>
<event>
 7    1  0.2405891E-015  0.9000774E+02  0.7816164E-02  0.1186339E+00
        -11   -1    0    0    0    0  0.00000000000E+00  0.00000000000E+00  0.45593999997E+02  0.45594000000E+02  0.51100000000E-03 0. -1.
         11   -1    0    0    0    0 -0.00000000000E+00 -0.00000000000E+00 -0.45593999997E+02  0.45594000000E+02  0.51100000000E-03 0.  1.
    9900012    2    1    2    0    0 -0.10847459219E+01  0.14402540589E+00  0.44225599249E+00  0.90007742657E+02  0.90000004060E+02 0.  0.
        -12    1    1    2    0    0  0.10847459219E+01 -0.14402540589E+00 -0.44225599249E+00  0.11802573429E+01  0.00000000000E+00 0.  1.
         11    1    3    3    0    0  0.47036002920E+01  0.37156943459E+00  0.84508901766E+01  0.96788152473E+01  0.51100000000E-03 0. -1.
        -11    1    3    3    0    0  0.28121655762E+02 -0.12022420298E+02  0.18460874413E+02  0.35723521621E+02  0.51100000000E-03 0.  1.
         12    1    3    3    0    0 -0.33910001976E+02  0.11794876270E+02 -0.26469508597E+02  0.44605405789E+02  0.00000000000E+00 0. -1.
</event>
<event>
 7    1  0.2405891E-015  0.9000782E+02  0.7816164E-02  0.1186339E+00
        -11   -1    0    0    0    0  0.00000000000E+00  0.00000000000E+00  0.45593999997E+02  0.45594000000E+02  0.51100000000E-03 0.  1.
         11   -1    0    0    0    0 -0.00000000000E+00 -0.00000000000E+00 -0.45593999997E+02  0.45594000000E+02  0.51100000000E-03 0. -1.
    9900012    2    1    2    0    0 -0.28982778530E+00 -0.70829008012E+00 -0.89842032058E+00  0.90007816093E+02  0.90000078465E+02 0.  0.
        -12    1    1    2    0    0  0.28982778530E+00  0.70829008012E+00  0.89842032058E+00  0.11801839073E+01  0.00000000000E+00 0.  1.
         11    1    3    3    0    0 -0.11607859495E+02 -0.10480348233E+00 -0.15698958603E+01  0.11714006961E+02  0.51100000000E-03 0. -1.
        -11    1    3    3    0    0 -0.15563094644E+01  0.33036480964E+02  0.18722109960E+02  0.38004586240E+02  0.51100000000E-03 0.  1.
         12    1    3    3    0    0  0.12874341174E+02 -0.33639967562E+02 -0.18050634420E+02  0.40289222891E+02  0.00000000000E+00 0. -1.
</event>
<event>
 7    1  0.2405891E-015  0.9000786E+02  0.7816164E-02  0.1186339E+00
        -11   -1    0    0    0    0  0.00000000000E+00  0.00000000000E+00  0.45593999997E+02  0.45594000000E+02  0.51100000000E-03 0.  1.
         11   -1    0    0    0    0 -0.00000000000E+00 -0.00000000000E+00 -0.45593999997E+02  0.45594000000E+02  0.51100000000E-03 0. -1.
    9900012    2    1    2    0    0 -0.11200164043E+01  0.75725511317E-01  0.36409779353E+00  0.90007856660E+02  0.90000119568E+02 0.  0.
        -12    1    1    2    0    0  0.11200164043E+01 -0.75725511317E-01 -0.36409779353E+00  0.11801433397E+01  0.00000000000E+00 0.  1.
         11    1    3    3    0    0  0.33060340753E+00 -0.35110405187E+02 -0.14130810471E+02  0.37848773505E+02  0.51100000000E-03 0. -1.
        -11    1    3    3    0    0 -0.21397615010E+01 -0.70823996565E+01  0.46994112731E+01  0.87648976463E+01  0.51100000000E-03 0.  1.
        -12    1    3    3    0    0  0.68914168918E+00  0.42268530355E+02  0.97954969916E+01  0.43394185509E+02  0.00000000000E+00 0.  1.
</event>
<event>
 7    1  0.2405891E-015  0.9000770E+02  0.7816164E-02  0.1186339E+00
        -11   -1    0    0    0    0  0.00000000000E+00  0.00000000000E+00  0.45593999997E+02  0.45594000000E+02  0.51100000000E-03 0. -1.
         11   -1    0    0    0    0 -0.00000000000E+00 -0.00000000000E+00 -0.45593999997E+02  0.45594000000E+02  0.51100000000E-03 0.  1.
    9900012    2    1    2    0    0  0.16955015645E+00 -0.92561678701E+00  0.71245811498E+00  0.90007699082E+02  0.89999959910E+02 0.  0.
        -12    1    1    2    0    0 -0.16955015645E+00  0.92561678701E+00 -0.71245811498E+00  0.11803009182E+01  0.00000000000E+00 0.  1.
         11    1    3    3    0    0  0.11505315471E+02 -0.13218535423E+01  0.15070544098E+01  0.11678646931E+02  0.51100000000E-03 0. -1.
        -11    1    3    3    0    0  0.10824687957E+02 -0.16551648708E+02 -0.31278305852E+02  0.37006261113E+02  0.51100000000E-03 0.  1.
         12    1    3    3    0    0 -0.22160453272E+02  0.16947885463E+02  0.30483709557E+02  0.41322791039E+02  0.00000000000E+00 0. -1.
</event>
<event>
 7    1  0.2405891E-015  0.9000764E+02  0.7816164E-02  0.1186339E+00
        -11   -1    0    0    0    0  0.00000000000E+00  0.00000000000E+00  0.45593999997E+02  0.45594000000E+02  0.51100000000E-03 0.  1.
         11   -1    0    0    0    0 -0.00000000000E+00 -0.00000000000E+00 -0.45593999997E+02  0.45594000000E+02  0.51100000000E-03 0. -1.
    9900012    2    1    2    0    0  0.43337163919E+00 -0.86356477927E+00  0.67799989515E+00  0.90007644561E+02  0.89999904669E+02 0.  0.
        -12    1    1    2    0    0 -0.43337163919E+00  0.86356477927E+00 -0.67799989515E+00  0.11803554395E+01  0.00000000000E+00 0.  1.
         11    1    3    3    0    0 -0.94101575197E+01 -0.33956894063E+02 -0.19937817892E+02  0.40486273001E+02  0.51100000000E-03 0. -1.
        -11    1    3    3    0    0  0.87333051194E+01 -0.85755860397E+00 -0.16175175115E+01  0.89231378017E+01  0.51100000000E-03 0.  1.
        -12    1    3    3    0    0  0.11102240395E+01  0.33950887888E+02  0.22233335298E+02  0.40598233758E+02  0.00000000000E+00 0.  1.
</event>
<event>
 7    1  0.2405891E-015  0.9000775E+02  0.7816164E-02  0.1186339E+00
        -11   -1    0    0    0    0  0.00000000000E+00  0.00000000000E+00  0.45593999997E+02  0.45594000000E+02  0.51100000000E-03 0.  1.
         11   -1    0    0    0    0 -0.00000000000E+00 -0.00000000000E+00 -0.45593999997E+02  0.45594000000E+02  0.51100000000E-03 0. -1.
    9900012    2    1    2    0    0  0.89674901439E+00 -0.44808000412E+00 -0.62294484217E+00  0.90007748009E+02  0.90000009483E+02 0.  0.
        -12    1    1    2    0    0 -0.89674901439E+00  0.44808000412E+00  0.62294484217E+00  0.11802519906E+01  0.00000000000E+00 0.  1.
         11    1    3    3    0    0  0.28381757470E+02 -0.22837724294E+01 -0.25281130677E+02  0.38077228656E+02  0.51100000000E-03 0. -1.
        -11    1    3    3    0    0  0.76608422992E+01 -0.58965072122E+01  0.62213410821E+01  0.11496190115E+02  0.51100000000E-03 0.  1.
        -12    1    3    3    0    0 -0.35145850754E+02  0.77321996375E+01  0.18436844753E+02  0.40434329238E+02  0.00000000000E+00 0.  1.
</event>
<event>
 7    1  0.2405891E-015  0.9000774E+02  0.7816164E-02  0.1186339E+00
        -11   -1    0    0    0    0  0.00000000000E+00  0.00000000000E+00  0.45593999997E+02  0.45594000000E+02  0.51100000000E-03 0.  1.
         11   -1    0    0    0    0 -0.00000000000E+00 -0.00000000000E+00 -0.45593999997E+02  0.45594000000E+02  0.51100000000E-03 0. -1.
    9900012    2    1    2    0    0  0.11289780288E+01 -0.34097470255E+00  0.46396155008E-01  0.90007742511E+02  0.90000003912E+02 0.  0.
        -12    1    1    2    0    0 -0.11289780288E+01  0.34097470255E+00 -0.46396155008E-01  0.11802574891E+01  0.00000000000E+00 0.  1.
         11    1    3    3    0    0 -0.32332454882E+02  0.17723763878E+02  0.12550388194E+02  0.38949090988E+02  0.51100000000E-03 0. -1.
        -11    1    3    3    0    0  0.77431099627E+01  0.91937832429E+01 -0.34248341247E+01  0.12498435552E+02  0.51100000000E-03 0.  1.
        -12    1    3    3    0    0  0.25718322948E+02 -0.27258521823E+02 -0.90791579142E+01  0.38560215971E+02  0.00000000000E+00 0.  1.
</event>
<event>
 7    1  0.2405891E-015  0.9000789E+02  0.7816164E-02  0.1186339E+00
        -11   -1    0    0    0    0  0.00000000000E+00  0.00000000000E+00  0.45593999997E+02  0.45594000000E+02  0.51100000000E-03 0.  1.
         11   -1    0    0    0    0 -0.00000000000E+00 -0.00000000000E+00 -0.45593999997E+02  0.45594000000E+02  0.51100000000E-03 0. -1.
    9900012    2    1    2    0    0 -0.29640417915E+00  0.98107560947E+00 -0.58505107100E+00  0.90007894266E+02  0.90000157670E+02 0.  0.
        -12    1    1    2    0    0  0.29640417915E+00 -0.98107560947E+00  0.58505107100E+00  0.11801057345E+01  0.00000000000E+00 0.  1.
         11    1    3    3    0    0 -0.35253002175E+02 -0.16211151431E+01 -0.79261710994E+01  0.36169412011E+02  0.51100000000E-03 0. -1.
        -11    1    3    3    0    0 -0.83337767425E+01  0.35353156250E+00  0.63416372220E+01  0.10478224195E+02  0.51100000000E-03 0.  1.
        -12    1    3    3    0    0  0.43290374738E+02  0.22486591901E+01  0.99948280641E+00  0.43360258060E+02  0.00000000000E+00 0.  1.
</event>
<event>
 7    1  0.2405891E-015  0.9000776E+02  0.7816164E-02  0.1186339E+00
        -11   -1    0    0    0    0  0.00000000000E+00  0.00000000000E+00  0.45593999997E+02  0.45594000000E+02  0.51100000000E-03 0.  1.
         11   -1    0    0    0    0 -0.00000000000E+00 -0.00000000000E+00 -0.45593999997E+02  0.45594000000E+02  0.51100000000E-03 0. -1.
    9900012    2    1    2    0    0  0.76152382118E+00  0.54038377114E+00 -0.72182882837E+00  0.90007758496E+02  0.90000020108E+02 0.  0.
        -12    1    1    2    0    0 -0.76152382118E+00 -0.54038377114E+00  0.72182882837E+00  0.11802415040E+01  0.00000000000E+00 0.  1.
         11    1    3    3    0    0  0.15586777978E+02 -0.29305447331E+01 -0.14426887873E+02  0.21439935497E+02  0.51100000000E-03 0. -1.
        -11    1    3    3    0    0 -0.61454511517E+01 -0.30132295695E+02 -0.12470419956E+01  0.30777864249E+02  0.51100000000E-03 0.  1.
        -12    1    3    3    0    0 -0.86798030054E+01  0.33603224199E+02  0.14952101040E+02  0.37789958750E+02  0.00000000000E+00 0.  1.
</event>
<event>
 7    1  0.2405891E-015  0.9000804E+02  0.7816164E-02  0.1186338E+00
        -11   -1    0    0    0    0  0.00000000000E+00  0.00000000000E+00  0.45593999997E+02  0.45594000000E+02  0.51100000000E-03 0. -1.
         11   -1    0    0    0    0 -0.00000000000E+00 -0.00000000000E+00 -0.45593999997E+02  0.45594000000E+02  0.51100000000E-03 0.  1.
    9900012    2    1    2    0    0 -0.67888032555E+00 -0.92433405150E+00  0.27756009399E+00  0.90008037483E+02  0.90000302778E+02 0.  0.
        -12    1    1    2    0    0  0.67888032555E+00  0.92433405150E+00 -0.27756009399E+00  0.11799625168E+01  0.00000000000E+00 0.  1.
         11    1    3    3    0    0  0.70861897747E+01 -0.47749558184E+01  0.21397251805E+01  0.88086725844E+01  0.51100000000E-03 0. -1.
        -11    1    3    3    0    0  0.34290397906E+02 -0.76127975475E+01  0.90337703996E+01  0.36268375797E+02  0.51100000000E-03 0.  1.
         12    1    3    3    0    0 -0.42055468006E+02  0.11463419314E+02 -0.10895935486E+02  0.44930989102E+02  0.00000000000E+00 0. -1.
</event>
<event>
 7    1  0.2405891E-015  0.9000783E+02  0.7816164E-02  0.1186339E+00
        -11   -1    0    0    0    0  0.00000000000E+00  0.00000000000E+00  0.45593999997E+02  0.45594000000E+02  0.51100000000E-03 0.  1.
         11   -1    0    0    0    0 -0.00000000000E+00 -0.00000000000E+00 -0.45593999997E+02  0.45594000000E+02  0.51100000000E-03 0. -1.
    9900012    2    1    2    0    0  0.10831063691E+01  0.36066109044E+00 -0.29935898444E+00  0.90007825593E+02  0.90000088091E+02 0.  0.
        -12    1    1    2    0    0 -0.10831063691E+01 -0.36066109044E+00  0.29935898444E+00  0.11801744068E+01  0.00000000000E+00 0.  1.
         11    1    3    3    0    0  0.86116160660E+01 -0.15701000024E+01  0.15409975856E+01  0.88881842412E+01  0.51100000000E-03 0. -1.
        -11    1    3    3    0    0  0.28910779678E+01  0.13129177044E+02  0.37004905895E+02  0.39371267217E+02  0.51100000000E-03 0.  1.
         12    1    3    3    0    0 -0.10419587665E+02 -0.11198415951E+02 -0.38845262465E+02  0.41748374135E+02  0.00000000000E+00 0. -1.
</event>
<event>
 7    1  0.2405891E-015  0.9000782E+02  0.7816164E-02  0.1186339E+00
        -11   -1    0    0    0    0  0.00000000000E+00  0.00000000000E+00  0.45593999997E+02  0.45594000000E+02  0.51100000000E-03 0.  1.
         11   -1    0    0    0    0 -0.00000000000E+00 -0.00000000000E+00 -0.45593999997E+02  0.45594000000E+02  0.51100000000E-03 0. -1.
    9900012    2    1    2    0    0  0.97615696068E+00  0.58627050396E+00 -0.31022643999E+00  0.90007815286E+02  0.90000077647E+02 0.  0.
        -12    1    1    2    0    0 -0.97615696068E+00 -0.58627050396E+00  0.31022643999E+00  0.11801847143E+01  0.00000000000E+00 0.  1.
         11    1    3    3    0    0 -0.36627254406E+02 -0.51781852561E+01  0.29509277006E+00  0.36992653972E+02  0.51100000000E-03 0. -1.
        -11    1    3    3    0    0 -0.58860744799E+01 -0.39368533958E+01  0.41434316250E+01  0.82044325419E+01  0.51100000000E-03 0.  1.
        -12    1    3    3    0    0  0.43489485847E+02  0.97013091559E+01 -0.47487508351E+01  0.44810728772E+02  0.00000000000E+00 0.  1.
</event>
<event>
 7    1  0.2405891E-015  0.9000772E+02  0.7816164E-02  0.1186339E+00
        -11   -1    0    0    0    0  0.00000000000E+00  0.00000000000E+00  0.45593999997E+02  0.45594000000E+02  0.51100000000E-03 0. -1.
         11   -1    0    0    0    0 -0.00000000000E+00 -0.00000000000E+00 -0.45593999997E+02  0.45594000000E+02  0.51100000000E-03 0.  1.
    9900012    2    1    2    0    0 -0.31427013503E+00 -0.97681521603E+00  0.58321280393E+00  0.90007715772E+02  0.89999976820E+02 0.  0.
        -12    1    1    2    0    0  0.31427013503E+00  0.97681521603E+00 -0.58321280393E+00  0.11802842279E+01  0.00000000000E+00 0.  1.
         11    1    3    3    0    0  0.76240210824E+00 -0.44579228652E+01 -0.97927138310E+01  0.10786638850E+02  0.51100000000E-03 0. -1.
        -11    1    3    3    0    0 -0.31739910821E+02  0.10015109398E+02 -0.17202992653E+02  0.37465548330E+02  0.51100000000E-03 0.  1.
         12    1    3    3    0    0  0.30663238578E+02 -0.65340017493E+01  0.27578919288E+02  0.41755528592E+02  0.00000000000E+00 0. -1.
</event>
<event>
 7    1  0.2405891E-015  0.9000814E+02  0.7816164E-02  0.1186338E+00
        -11   -1    0    0    0    0  0.00000000000E+00  0.00000000000E+00  0.45593999997E+02  0.45594000000E+02  0.51100000000E-03 0.  1.
         11   -1    0    0    0    0 -0.00000000000E+00 -0.00000000000E+00 -0.45593999997E+02  0.45594000000E+02  0.51100000000E-03 0. -1.
    9900012    2    1    2    0    0 -0.89996881842E-02  0.10583110589E+01 -0.52149335659E+00  0.90008144664E+02  0.90000411373E+02 0.  0.
        -12    1    1    2    0    0  0.89996881842E-02 -0.10583110589E+01  0.52149335659E+00  0.11798553355E+01  0.00000000000E+00 0.  1.
         11    1    3    3    0    0  0.17625494918E+02  0.55504865845E+01 -0.20212072783E+01  0.18589008891E+02  0.51100000000E-03 0. -1.
        -11    1    3    3    0    0  0.79879104527E+01  0.27632837290E+02  0.79063748823E+01  0.29831043799E+02  0.51100000000E-03 0.  1.
         12    1    3    3    0    0 -0.25622405059E+02 -0.32125012815E+02 -0.64066609606E+01  0.41588091974E+02  0.00000000000E+00 0. -1.
</event>
<event>
 7    1  0.2405891E-015  0.9000769E+02  0.7816164E-02  0.1186339E+00
        -11   -1    0    0    0    0  0.00000000000E+00  0.00000000000E+00  0.45593999997E+02  0.45594000000E+02  0.51100000000E-03 0. -1.
         11   -1    0    0    0    0 -0.00000000000E+00 -0.00000000000E+00 -0.45593999997E+02  0.45594000000E+02  0.51100000000E-03 0.  1.
    9900012    2    1    2    0    0  0.64810329791E+00 -0.79448812100E+00  0.58469743345E+00  0.90007694807E+02  0.89999955579E+02 0.  0.
        -12    1    1    2    0    0 -0.64810329791E+00  0.79448812100E+00 -0.58469743345E+00  0.11803051927E+01  0.00000000000E+00 0.  1.
         11    1    3    3    0    0  0.39680400121E+02 -0.11009746099E+02  0.55321770814E+01  0.41549412107E+02  0.51100000000E-03 0. -1.
        -11    1    3    3    0    0 -0.16915218114E+01  0.68498675367E+01  0.61484221313E+01  0.93586872089E+01  0.51100000000E-03 0.  1.
        -12    1    3    3    0    0 -0.37340775012E+02  0.33653904412E+01 -0.11095901779E+02  0.39099595491E+02  0.00000000000E+00 0.  1.
</event>
<event>
 7    1  0.2405891E-015  0.9000763E+02  0.7816164E-02  0.1186339E+00
        -11   -1    0    0    0    0  0.00000000000E+00  0.00000000000E+00  0.45593999997E+02  0.45594000000E+02  0.51100000000E-03 0. -1.
         11   -1    0    0    0    0 -0.00000000000E+00 -0.00000000000E+00 -0.45593999997E+02  0.45594000000E+02  0.51100000000E-03 0.  1.
    9900012    2    1    2    0    0 -0.86300082391E+00  0.19465642087E+00 -0.78141553296E+00  0.90007630660E+02  0.89999890584E+02 0.  0.
        -12    1    1    2    0    0  0.86300082391E+00 -0.19465642087E+00  0.78141553296E+00  0.11803693403E+01  0.00000000000E+00 0.  1.
         11    1    3    3    0    0  0.31406858582E+01 -0.21129153395E+01  0.11617027843E+02  0.12218169055E+02  0.51100000000E-03 0. -1.
        -11    1    3    3    0    0  0.75165028713E+01  0.37530531893E+02  0.12521333609E+01  0.38296298487E+02  0.51100000000E-03 0.  1.
         12    1    3    3    0    0 -0.11520189553E+02 -0.35222960132E+02 -0.13650576737E+02  0.39493163118E+02  0.00000000000E+00 0. -1.
</event>
<event>
 7    1  0.2405891E-015  0.9000779E+02  0.7816164E-02  0.1186339E+00
        -11   -1    0    0    0    0  0.00000000000E+00  0.00000000000E+00  0.45593999997E+02  0.45594000000E+02  0.51100000000E-03 0.  1.
         11   -1    0    0    0    0 -0.00000000000E+00 -0.00000000000E+00 -0.45593999997E+02  0.45594000000E+02  0.51100000000E-03 0. -1.
    9900012    2    1    2    0    0 -0.26390899580E+00 -0.10603857625E+01 -0.44591083069E+00  0.90007787141E+02  0.90000049131E+02 0.  0.
        -12    1    1    2    0    0  0.26390899580E+00  0.10603857625E+01  0.44591083069E+00  0.11802128589E+01  0.00000000000E+00 0.  1.
         11    1    3    3    0    0 -0.89790703820E+01  0.11944440168E+01  0.18721914755E+01  0.92496217553E+01  0.51100000000E-03 0. -1.
        -11    1    3    3    0    0 -0.31529446087E+02 -0.18794539496E+02  0.34445594938E+01  0.36867406686E+02  0.51100000000E-03 0.  1.
         12    1    3    3    0    0  0.40244607473E+02  0.16539709716E+02 -0.57626618000E+01  0.43890758699E+02  0.00000000000E+00 0. -1.
</event>
<event>
 7    1  0.2405891E-015  0.9000779E+02  0.7816164E-02  0.1186339E+00
        -11   -1    0    0    0    0  0.00000000000E+00  0.00000000000E+00  0.45593999997E+02  0.45594000000E+02  0.51100000000E-03 0.  1.
         11   -1    0    0    0    0 -0.00000000000E+00 -0.00000000000E+00 -0.45593999997E+02  0.45594000000E+02  0.51100000000E-03 0. -1.
    9900012    2    1    2    0    0 -0.50018151644E+00 -0.51172930552E+00 -0.93853813978E+00  0.90007787192E+02  0.90000049183E+02 0.  0.
        -12    1    1    2    0    0  0.50018151644E+00  0.51172930552E+00  0.93853813978E+00  0.11802128077E+01  0.00000000000E+00 0.  1.
         11    1    3    3    0    0 -0.15416286704E+02 -0.18747576767E+02 -0.23432872772E+02  0.33737709718E+02  0.51100000000E-03 0. -1.
        -11    1    3    3    0    0 -0.10902247701E+02 -0.51097347705E+01 -0.38232510090E+01  0.12632721120E+02  0.51100000000E-03 0.  1.
        -12    1    3    3    0    0  0.25818352889E+02  0.23345582232E+02  0.26317585641E+02  0.43637356355E+02  0.00000000000E+00 0.  1.
</event>
<event>
 7    1  0.2405891E-015  0.9000776E+02  0.7816164E-02  0.1186339E+00
        -11   -1    0    0    0    0  0.00000000000E+00  0.00000000000E+00  0.45593999997E+02  0.45594000000E+02  0.51100000000E-03 0.  1.
         11   -1    0    0    0    0 -0.00000000000E+00 -0.00000000000E+00 -0.45593999997E+02  0.45594000000E+02  0.51100000000E-03 0. -1.
    9900012    2    1    2    0    0 -0.15567432586E+00 -0.84914073726E+00  0.80479489579E+00  0.90007758791E+02  0.90000020407E+02 0.  0.
        -12    1    1    2    0    0  0.15567432586E+00  0.84914073726E+00 -0.80479489579E+00  0.11802412091E+01  0.00000000000E+00 0.  1.
         11    1    3    3    0    0 -0.96400735056E+01  0.10213986616E+02 -0.31249628747E+00  0.14048280819E+02  0.51100000000E-03 0. -1.
        -11    1    3    3    0    0  0.11643451795E+02  0.13556609458E+02  0.31850854167E+02  0.36521617450E+02  0.51100000000E-03 0.  1.
         12    1    3    3    0    0 -0.21590526154E+01 -0.24619736811E+02 -0.30733562984E+02  0.39437860522E+02  0.00000000000E+00 0. -1.
</event>
<event>
 7    1  0.2405891E-015  0.9000793E+02  0.7816164E-02  0.1186339E+00
        -11   -1    0    0    0    0  0.00000000000E+00  0.00000000000E+00  0.45593999997E+02  0.45594000000E+02  0.51100000000E-03 0.  1.
         11   -1    0    0    0    0 -0.00000000000E+00 -0.00000000000E+00 -0.45593999997E+02  0.45594000000E+02  0.51100000000E-03 0. -1.
    9900012    2    1    2    0    0 -0.75492159517E+00  0.88269933017E+00  0.20854386885E+00  0.90007934210E+02  0.90000198142E+02 0.  0.
        -12    1    1    2    0    0  0.75492159517E+00 -0.88269933017E+00 -0.20854386885E+00  0.11800657895E+01  0.00000000000E+00 0.  1.
         11    1    3    3    0    0  0.22070652893E+02  0.23305981717E+02 -0.19101194561E+02  0.37351547984E+02  0.51100000000E-03 0. -1.
        -11    1    3    3    0    0 -0.74985228241E+01  0.59346335488E+01 -0.63299104015E+01  0.11468020137E+02  0.51100000000E-03 0.  1.
        -12    1    3    3    0    0 -0.15327051664E+02 -0.28357915935E+02  0.25639648832E+02  0.41188366089E+02  0.00000000000E+00 0.  1.
</event>
<event>
 7    1  0.2405891E-015  0.9000784E+02  0.7816164E-02  0.1186339E+00
        -11   -1    0    0    0    0  0.00000000000E+00  0.00000000000E+00  0.45593999997E+02  0.45594000000E+02  0.51100000000E-03 0. -1.
         11   -1    0    0    0    0 -0.00000000000E+00 -0.00000000000E+00 -0.45593999997E+02  0.45594000000E+02  0.51100000000E-03 0.  1.
    9900012    2    1    2    0    0 -0.12696036318E+00 -0.22300339825E+00  0.11519283658E+01  0.90007835431E+02  0.90000098059E+02 0.  0.
        -12    1    1    2    0    0  0.12696036318E+00  0.22300339825E+00 -0.11519283658E+01  0.11801645687E+01  0.00000000000E+00 0.  1.
         11    1    3    3    0    0 -0.18335396659E+02  0.29642268577E+02 -0.14805148869E+02  0.37868764045E+02  0.51100000000E-03 0. -1.
        -11    1    3    3    0    0 -0.76470494682E+01 -0.14511769042E+00 -0.32535277906E+01  0.83116705937E+01  0.51100000000E-03 0.  1.
        -12    1    3    3    0    0  0.25855485764E+02 -0.29720154284E+02  0.19210605026E+02  0.43827400792E+02  0.00000000000E+00 0.  1.
</event>
<event>
 7    1  0.2405891E-015  0.9000774E+02  0.7816164E-02  0.1186339E+00
        -11   -1    0    0    0    0  0.00000000000E+00  0.00000000000E+00  0.45593999997E+02  0.45594000000E+02  0.51100000000E-03 0. -1.
         11   -1    0    0    0    0 -0.00000000000E+00 -0.00000000000E+00 -0.45593999997E+02  0.45594000000E+02  0.51100000000E-03 0.  1.
    9900012    2    1    2    0    0 -0.41431617661E+00  0.91877088319E+00  0.61418541705E+00  0.90007736658E+02  0.89999997982E+02 0.  0.
        -12    1    1    2    0    0  0.41431617661E+00 -0.91877088319E+00 -0.61418541705E+00  0.11802633420E+01  0.00000000000E+00 0.  1.
         11    1    3    3    0    0  0.13718681287E+01 -0.23374179492E+02 -0.28181069598E+02  0.36638872431E+02  0.51100000000E-03 0. -1.
        -11    1    3    3    0    0 -0.85636931194E+01  0.12834505610E+01 -0.64064323529E+01  0.10771557962E+02  0.51100000000E-03 0.  1.
        -12    1    3    3    0    0  0.67775088141E+01  0.23009499815E+02  0.35201687368E+02  0.42597306264E+02  0.00000000000E+00 0.  1.
</event>
<event>
 7    1  0.2405891E-015  0.9000759E+02  0.7816164E-02  0.1186339E+00
        -11   -1    0    0    0    0  0.00000000000E+00  0.00000000000E+00  0.45593999997E+02  0.45594000000E+02  0.51100000000E-03 0.  1.
         11   -1    0    0    0    0 -0.00000000000E+00 -0.00000000000E+00 -0.45593999997E+02  0.45594000000E+02  0.51100000000E-03 0. -1.
    9900012    2    1    2    0    0 -0.62448582807E+00  0.42343926041E+00 -0.90778689593E+00  0.90007593119E+02  0.89999852548E+02 0.  0.
        -12    1    1    2    0    0  0.62448582807E+00 -0.42343926041E+00  0.90778689593E+00  0.11804068812E+01  0.00000000000E+00 0.  1.
         11    1    3    3    0    0  0.66138545694E+00  0.72232412211E+01 -0.40259441048E+01  0.82958345365E+01  0.51100000000E-03 0. -1.
        -11    1    3    3    0    0  0.38537589783E+02 -0.13534122624E+02  0.56980926957E+01  0.41240593620E+02  0.51100000000E-03 0.  1.
         12    1    3    3    0    0 -0.39823461068E+02  0.67343206634E+01 -0.25799354868E+01  0.40471164962E+02  0.00000000000E+00 0. -1.
</event>
<event>
 7    1  0.2405891E-015  0.9000780E+02  0.7816164E-02  0.1186339E+00
        -11   -1    0    0    0    0  0.00000000000E+00  0.00000000000E+00  0.45593999997E+02  0.45594000000E+02  0.51100000000E-03 0.  1.
         11   -1    0    0    0    0 -0.00000000000E+00 -0.00000000000E+00 -0.45593999997E+02  0.45594000000E+02  0.51100000000E-03 0. -1.
    9900012    2    1    2    0    0 -0.11617058172E+01  0.16245280840E+00 -0.13007139915E+00  0.90007800911E+02  0.90000063083E+02 0.  0.
        -12    1    1    2    0    0  0.11617058172E+01 -0.16245280840E+00  0.13007139915E+00  0.11801990889E+01  0.00000000000E+00 0.  1.
         11    1    3    3    0    0 -0.65625592481E+01  0.18988551352E+01 -0.30892034680E+01  0.74977338601E+01  0.51100000000E-03 0. -1.
        -11    1    3    3    0    0  0.34560620201E+02 -0.10457953409E+02 -0.22742731191E+02  0.42673611055E+02  0.51100000000E-03 0.  1.
         12    1    3    3    0    0 -0.29159766770E+02  0.87215510826E+01  0.25701863259E+02  0.39836455996E+02  0.00000000000E+00 0. -1.
</event>
<event>
 7    1  0.2405891E-015  0.9000770E+02  0.7816164E-02  0.1186339E+00
        -11   -1    0    0    0    0  0.00000000000E+00  0.00000000000E+00  0.45593999997E+02  0.45594000000E+02  0.51100000000E-03 0.  1.
         11   -1    0    0    0    0 -0.00000000000E+00 -0.00000000000E+00 -0.45593999997E+02  0.45594000000E+02  0.51100000000E-03 0. -1.
    9900012    2    1    2    0    0 -0.11294903952E+01  0.31342696154E+00  0.13829406926E+00  0.90007699080E+02  0.89999959907E+02 0.  0.
        -12    1    1    2    0    0  0.11294903952E+01 -0.31342696154E+00 -0.13829406926E+00  0.11803009204E+01  0.00000000000E+00 0.  1.
         11    1    3    3    0    0  0.46409672629E+01  0.34948836185E+02 -0.15503776996E+01  0.35289706701E+02  0.51100000000E-03 0. -1.
        -11    1    3    3    0    0 -0.44738564196E+01  0.95174666429E+01  0.56811817000E+00  0.10531871680E+02  0.51100000000E-03 0.  1.
        -12    1    3    3    0    0 -0.12966012385E+01 -0.44152875866E+02  0.11205535989E+01  0.44186120699E+02  0.00000000000E+00 0.  1.
</event>
<event>
 7    1  0.2405891E-015  0.9000774E+02  0.7816164E-02  0.1186339E+00
        -11   -1    0    0    0    0  0.00000000000E+00  0.00000000000E+00  0.45593999997E+02  0.45594000000E+02  0.51100000000E-03 0. -1.
         11   -1    0    0    0    0 -0.00000000000E+00 -0.00000000000E+00 -0.45593999997E+02  0.45594000000E+02  0.51100000000E-03 0.  1.
    9900012    2    1    2    0    0  0.78421962686E+00  0.25650327229E+00  0.84393600186E+00  0.90007736332E+02  0.89999997651E+02 0.  0.
        -12    1    1    2    0    0 -0.78421962686E+00 -0.25650327229E+00 -0.84393600186E+00  0.11802636685E+01  0.00000000000E+00 0.  1.
         11    1    3    3    0    0  0.61070640166E+01  0.42966073166E+00 -0.59641719825E+01  0.85470572097E+01  0.51100000000E-03 0. -1.
        -11    1    3    3    0    0 -0.22505321619E+02 -0.11576742375E+02 -0.30012169737E+02  0.39258639785E+02  0.51100000000E-03 0.  1.
         12    1    3    3    0    0  0.17182477229E+02  0.11403584916E+02  0.36820277722E+02  0.42202039337E+02  0.00000000000E+00 0. -1.
</event>
<event>
 7    1  0.2405891E-015  0.9000774E+02  0.7816164E-02  0.1186339E+00
        -11   -1    0    0    0    0  0.00000000000E+00  0.00000000000E+00  0.45593999997E+02  0.45594000000E+02  0.51100000000E-03 0. -1.
         11   -1    0    0    0    0 -0.00000000000E+00 -0.00000000000E+00 -0.45593999997E+02  0.45594000000E+02  0.51100000000E-03 0.  1.
    9900012    2    1    2    0    0 -0.53371628904E+00  0.92071519976E+00  0.51032699980E+00  0.90007744433E+02  0.90000005860E+02 0.  0.
        -12    1    1    2    0    0  0.53371628904E+00 -0.92071519976E+00 -0.51032699980E+00  0.11802555668E+01  0.00000000000E+00 0.  1.
         11    1    3    3    0    0  0.37756253663E+02 -0.47344196683E+01  0.12418015357E+02  0.40026947497E+02  0.51100000000E-03 0. -1.
        -11    1    3    3    0    0 -0.39800103234E+00 -0.75410720254E+01 -0.55142001652E+01  0.93505387992E+01  0.51100000000E-03 0.  1.
        -12    1    3    3    0    0 -0.37891968920E+02  0.13196206893E+02 -0.63934881921E+01  0.40630258137E+02  0.00000000000E+00 0.  1.
</event>
<event>
 7    1  0.2405891E-015  0.9000772E+02  0.7816164E-02  0.1186339E+00
        -11   -1    0    0    0    0  0.00000000000E+00  0.00000000000E+00  0.45593999997E+02  0.45594000000E+02  0.51100000000E-03 0.  1.
         11   -1    0    0    0    0 -0.00000000000E+00 -0.00000000000E+00 -0.45593999997E+02  0.45594000000E+02  0.51100000000E-03 0. -1.
    9900012    2    1    2    0    0 -0.11149379987E+01  0.46771998062E-01  0.38441690346E+00  0.90007724305E+02  0.89999985466E+02 0.  0.
        -12    1    1    2    0    0  0.11149379987E+01 -0.46771998062E-01 -0.38441690346E+00  0.11802756951E+01  0.00000000000E+00 0.  1.
         11    1    3    3    0    0 -0.25153368474E+01 -0.51792277178E+01  0.74111216973E+01  0.93848838182E+01  0.51100000000E-03 0. -1.
        -11    1    3    3    0    0 -0.19208706405E+02  0.19300214284E+02  0.27051966311E+02  0.38383349967E+02  0.51100000000E-03 0.  1.
         12    1    3    3    0    0  0.20609105254E+02 -0.14074214568E+02 -0.34078671105E+02  0.42239490519E+02  0.00000000000E+00 0. -1.
</event>
<event>
 7    1  0.2405891E-015  0.9000776E+02  0.7816164E-02  0.1186339E+00
        -11   -1    0    0    0    0  0.00000000000E+00  0.00000000000E+00  0.45593999997E+02  0.45594000000E+02  0.51100000000E-03 0. -1.
         11   -1    0    0    0    0 -0.00000000000E+00 -0.00000000000E+00 -0.45593999997E+02  0.45594000000E+02  0.51100000000E-03 0.  1.
    9900012    2    1    2    0    0 -0.95906193452E+00 -0.37291493415E+00  0.57801732084E+00  0.90007758768E+02  0.90000020384E+02 0.  0.
        -12    1    1    2    0    0  0.95906193452E+00  0.37291493415E+00 -0.57801732084E+00  0.11802412319E+01  0.00000000000E+00 0.  1.
         11    1    3    3    0    0  0.14162053275E+01 -0.63273758906E+01  0.43761983149E+01  0.78225593729E+01  0.51100000000E-03 0. -1.
        -11    1    3    3    0    0 -0.19543960910E+02 -0.15643557798E+02 -0.33386192103E+02  0.41729188011E+02  0.51100000000E-03 0.  1.
         12    1    3    3    0    0  0.17168693648E+02  0.21598018755E+02  0.29588011109E+02  0.40456011384E+02  0.00000000000E+00 0. -1.
</event>
<event>
 7    1  0.2405891E-015  0.9000776E+02  0.7816164E-02  0.1186339E+00
        -11   -1    0    0    0    0  0.00000000000E+00  0.00000000000E+00  0.45593999997E+02  0.45594000000E+02  0.51100000000E-03 0.  1.
         11   -1    0    0    0    0 -0.00000000000E+00 -0.00000000000E+00 -0.45593999997E+02  0.45594000000E+02  0.51100000000E-03 0. -1.
    9900012    2    1    2    0    0  0.10125284592E+01 -0.40279489240E+00 -0.45333425575E+00  0.90007758688E+02  0.90000020303E+02 0.  0.
        -12    1    1    2    0    0 -0.10125284592E+01  0.40279489240E+00  0.45333425575E+00  0.11802413115E+01  0.00000000000E+00 0.  1.
         11    1    3    3    0    0  0.15710972620E+01 -0.70324627246E+01  0.43152502286E+01  0.83991227742E+01  0.51100000000E-03 0. -1.
        -11    1    3    3    0    0  0.30807403568E+02 -0.20157993324E+02  0.93957907441E+01  0.37996337894E+02  0.51100000000E-03 0.  1.
         12    1    3    3    0    0 -0.31365972370E+02  0.26787661156E+02 -0.14164375228E+02  0.43612298020E+02  0.00000000000E+00 0. -1.
</event>
<event>
 7    1  0.2405891E-015  0.9000769E+02  0.7816164E-02  0.1186339E+00
        -11   -1    0    0    0    0  0.00000000000E+00  0.00000000000E+00  0.45593999997E+02  0.45594000000E+02  0.51100000000E-03 0.  1.
         11   -1    0    0    0    0 -0.00000000000E+00 -0.00000000000E+00 -0.45593999997E+02  0.45594000000E+02  0.51100000000E-03 0. -1.
    9900012    2    1    2    0    0  0.10032999579E+01 -0.25074323674E-01  0.62119733518E+00  0.90007692559E+02  0.89999953300E+02 0.  0.
        -12    1    1    2    0    0 -0.10032999579E+01  0.25074323674E-01 -0.62119733518E+00  0.11803074415E+01  0.00000000000E+00 0.  1.
         11    1    3    3    0    0 -0.36763032198E+01 -0.69489020716E+01  0.29462044439E+01  0.83953895831E+01  0.51100000000E-03 0. -1.
        -11    1    3    3    0    0  0.28368253750E+02  0.33511937600E+02  0.77921709408E+01  0.44592888567E+02  0.51100000000E-03 0.  1.
         12    1    3    3    0    0 -0.23688650572E+02 -0.26588109852E+02 -0.10117178049E+02  0.37019414408E+02  0.00000000000E+00 0. -1.
</event>
<event>
 7    1  0.2405891E-015  0.9000772E+02  0.7816164E-02  0.1186339E+00
        -11   -1    0    0    0    0  0.00000000000E+00  0.00000000000E+00  0.45593999997E+02  0.45594000000E+02  0.51100000000E-03 0.  1.
         11   -1    0    0    0    0 -0.00000000000E+00 -0.00000000000E+00 -0.45593999997E+02  0.45594000000E+02  0.51100000000E-03 0. -1.
    9900012    2    1    2    0    0 -0.81677271687E+00 -0.44139214586E+00 -0.72876983391E+00  0.90007724537E+02  0.89999985701E+02 0.  0.
        -12    1    1    2    0    0  0.81677271687E+00  0.44139214586E+00  0.72876983391E+00  0.11802754629E+01  0.00000000000E+00 0.  1.
         11    1    3    3    0    0  0.17017797375E+02 -0.14877366206E+01 -0.32832042434E+02  0.37010293141E+02  0.51100000000E-03 0. -1.
        -11    1    3    3    0    0  0.97105791279E+01  0.39752532468E+01 -0.13428932596E+00  0.10493618025E+02  0.51100000000E-03 0.  1.
        -12    1    3    3    0    0 -0.27545149220E+02 -0.29289087720E+01  0.32237561926E+02  0.42503813371E+02  0.00000000000E+00 0.  1.
</event>
<event>
 7    1  0.2405891E-015  0.9000772E+02  0.7816164E-02  0.1186339E+00
        -11   -1    0    0    0    0  0.00000000000E+00  0.00000000000E+00  0.45593999997E+02  0.45594000000E+02  0.51100000000E-03 0.  1.
         11   -1    0    0    0    0 -0.00000000000E+00 -0.00000000000E+00 -0.45593999997E+02  0.45594000000E+02  0.51100000000E-03 0. -1.
    9900012    2    1    2    0    0 -0.59170540632E+00  0.32085958911E+00 -0.96953633688E+00  0.90007717461E+02  0.89999978531E+02 0.  0.
        -12    1    1    2    0    0  0.59170540632E+00 -0.32085958911E+00  0.96953633688E+00  0.11802825392E+01  0.00000000000E+00 0.  1.
         11    1    3    3    0    0 -0.31239151865E+01  0.33701689484E+01 -0.81056561617E+01  0.93176470692E+01  0.51100000000E-03 0. -1.
        -11    1    3    3    0    0 -0.32629754527E+02 -0.19965156591E+02  0.14634050339E+02  0.40956852758E+02  0.51100000000E-03 0.  1.
         12    1    3    3    0    0  0.35161964307E+02  0.16915847232E+02 -0.74979305144E+01  0.39733217634E+02  0.00000000000E+00 0. -1.
</event>
<event>
 7    1  0.2405891E-015  0.9000774E+02  0.7816164E-02  0.1186339E+00
        -11   -1    0    0    0    0  0.00000000000E+00  0.00000000000E+00  0.45593999997E+02  0.45594000000E+02  0.51100000000E-03 0.  1.
         11   -1    0    0    0    0 -0.00000000000E+00 -0.00000000000E+00 -0.45593999997E+02  0.45594000000E+02  0.51100000000E-03 0. -1.
    9900012    2    1    2    0    0  0.21616884351E+00 -0.11558368689E+01 -0.10166530489E+00  0.90007735762E+02  0.89999997074E+02 0.  0.
        -12    1    1    2    0    0 -0.21616884351E+00  0.11558368689E+01  0.10166530489E+00  0.11802642377E+01  0.00000000000E+00 0.  1.
         11    1    3    3    0    0  0.26768116234E-01 -0.83693928573E+01  0.53639088237E+01  0.99407731823E+01  0.51100000000E-03 0. -1.
        -11    1    3    3    0    0  0.32086958279E+02 -0.16807828980E+02 -0.14683985479E+02  0.39085744670E+02  0.51100000000E-03 0.  1.
         12    1    3    3    0    0 -0.31897557552E+02  0.24021384968E+02  0.92184113502E+01  0.40981217910E+02  0.00000000000E+00 0. -1.
</event>
<event>
 7    1  0.2405891E-015  0.9000768E+02  0.7816164E-02  0.1186339E+00
        -11   -1    0    0    0    0  0.00000000000E+00  0.00000000000E+00  0.45593999997E+02  0.45594000000E+02  0.51100000000E-03 0. -1.
         11   -1    0    0    0    0 -0.00000000000E+00 -0.00000000000E+00 -0.45593999997E+02  0.45594000000E+02  0.51100000000E-03 0.  1.
    9900012    2    1    2    0    0  0.90150479126E-01 -0.85038871546E+00  0.81355409866E+00  0.90007678710E+02  0.89999939269E+02 0.  0.
        -12    1    1    2    0    0 -0.90150479126E-01  0.85038871546E+00 -0.81355409866E+00  0.11803212900E+01  0.00000000000E+00 0.  1.
         11    1    3    3    0    0 -0.93285866352E+01  0.25713650258E+02  0.21955202392E+02  0.35074852110E+02  0.51100000000E-03 0. -1.
        -11    1    3    3    0    0  0.94872247099E+01  0.49121483626E+01  0.69490541870E+01  0.12744645487E+02  0.51100000000E-03 0.  1.
        -12    1    3    3    0    0 -0.68487595538E-01 -0.31476187336E+02 -0.28090702480E+02  0.42188181113E+02  0.00000000000E+00 0.  1.
</event>
<event>
 7    1  0.2405891E-015  0.9000783E+02  0.7816164E-02  0.1186339E+00
        -11   -1    0    0    0    0  0.00000000000E+00  0.00000000000E+00  0.45593999997E+02  0.45594000000E+02  0.51100000000E-03 0. -1.
         11   -1    0    0    0    0 -0.00000000000E+00 -0.00000000000E+00 -0.45593999997E+02  0.45594000000E+02  0.51100000000E-03 0.  1.
    9900012    2    1    2    0    0 -0.10098319887E+01 -0.12676401506E-01  0.61063088224E+00  0.90007834160E+02  0.90000096770E+02 0.  0.
        -12    1    1    2    0    0  0.10098319887E+01  0.12676401506E-01 -0.61063088224E+00  0.11801658404E+01  0.00000000000E+00 0.  1.
         11    1    3    3    0    0 -0.14033144555E+02 -0.35872169970E+01 -0.11072958368E+01  0.14526643666E+02  0.51100000000E-03 0. -1.
        -11    1    3    3    0    0 -0.21355320952E+02 -0.19822067982E+02 -0.12258333286E+02  0.31610612890E+02  0.51100000000E-03 0.  1.
         12    1    3    3    0    0  0.34378633518E+02  0.23396608578E+02  0.13976260005E+02  0.43870577603E+02  0.00000000000E+00 0. -1.
</event>
<event>
 7    1  0.2405891E-015  0.9000777E+02  0.7816164E-02  0.1186339E+00
        -11   -1    0    0    0    0  0.00000000000E+00  0.00000000000E+00  0.45593999997E+02  0.45594000000E+02  0.51100000000E-03 0.  1.
         11   -1    0    0    0    0 -0.00000000000E+00 -0.00000000000E+00 -0.45593999997E+02  0.45594000000E+02  0.51100000000E-03 0. -1.
    9900012    2    1    2    0    0 -0.99209658758E+00 -0.63810622538E+00 -0.38697195357E-01  0.90007774315E+02  0.90000036136E+02 0.  0.
        -12    1    1    2    0    0  0.99209658758E+00  0.63810622538E+00  0.38697195357E-01  0.11802256847E+01  0.00000000000E+00 0.  1.
         11    1    3    3    0    0  0.23946466246E+02 -0.19538888371E+01 -0.35302687380E+02  0.42702817984E+02  0.51100000000E-03 0. -1.
        -11    1    3    3    0    0 -0.41399353958E+01  0.76813578741E+01  0.50687742056E+01  0.10091322811E+02  0.51100000000E-03 0.  1.
        -12    1    3    3    0    0 -0.20798627438E+02 -0.63655752623E+01  0.30195215979E+02  0.37213633520E+02  0.00000000000E+00 0.  1.
</event>
<event>
 7    1  0.2564699E-015  0.9000777E+02  0.7816164E-02  0.1186339E+00
        -11   -1    0    0    0    0  0.00000000000E+00  0.00000000000E+00  0.45593999997E+02  0.45594000000E+02  0.51100000000E-03 0.  1.
         11   -1    0    0    0    0 -0.00000000000E+00 -0.00000000000E+00 -0.45593999997E+02  0.45594000000E+02  0.51100000000E-03 0. -1.
    9900012    2    1    2    0    0 -0.73737696406E+00 -0.53205260870E+00 -0.75242211735E+00  0.90007769595E+02  0.90000031354E+02 0.  0.
        -12    1    1    2    0    0  0.73737696406E+00  0.53205260870E+00  0.75242211735E+00  0.11802304047E+01  0.00000000000E+00 0.  1.
         11    1    3    3    0    0  0.51896066351E+01 -0.86099847257E+00  0.76414917571E+01  0.92771618468E+01  0.51100000000E-03 0. -1.
        -11    1    3    3    0    0  0.31737601235E+02  0.16840448886E+02  0.73898876950E+01  0.36680873643E+02  0.51100000000E-03 0.  1.
         12    1    3    3    0    0 -0.37664584834E+02 -0.16511503022E+02 -0.15783801569E+02  0.44049734105E+02  0.00000000000E+00 0. -1.
</event>
<event>
 7    1  0.2405891E-015  0.9000789E+02  0.7816164E-02  0.1186339E+00
        -11   -1    0    0    0    0  0.00000000000E+00  0.00000000000E+00  0.45593999997E+02  0.45594000000E+02  0.51100000000E-03 0. -1.
         11   -1    0    0    0    0 -0.00000000000E+00 -0.00000000000E+00 -0.45593999997E+02  0.45594000000E+02  0.51100000000E-03 0.  1.
    9900012    2    1    2    0    0 -0.56650632794E+00 -0.41719229934E+00  0.94746321048E+00  0.90007887561E+02  0.90000150876E+02 0.  0.
        -12    1    1    2    0    0  0.56650632794E+00  0.41719229934E+00 -0.94746321048E+00  0.11801124393E+01  0.00000000000E+00 0.  1.
         11    1    3    3    0    0  0.37916563862E+01 -0.96140138301E+01 -0.24166659907E+01  0.10613491172E+02  0.51100000000E-03 0. -1.
        -11    1    3    3    0    0  0.26799124410E+02 -0.68881286862E+01 -0.22630095960E+02  0.35745777784E+02  0.51100000000E-03 0.  1.
         12    1    3    3    0    0 -0.31157287124E+02  0.16084950217E+02  0.25994225161E+02  0.43648618605E+02  0.00000000000E+00 0. -1.
</event>
<event>
 7    1  0.2405891E-015  0.9000760E+02  0.7816164E-02  0.1186339E+00
        -11   -1    0    0    0    0  0.00000000000E+00  0.00000000000E+00  0.45593999997E+02  0.45594000000E+02  0.51100000000E-03 0. -1.
         11   -1    0    0    0    0 -0.00000000000E+00 -0.00000000000E+00 -0.45593999997E+02  0.45594000000E+02  0.51100000000E-03 0.  1.
    9900012    2    1    2    0    0  0.53144159539E-01 -0.95662724327E+00  0.68948627285E+00  0.90007596974E+02  0.89999856454E+02 0.  0.
        -12    1    1    2    0    0 -0.53144159539E-01  0.95662724327E+00 -0.68948627285E+00  0.11804030264E+01  0.00000000000E+00 0.  1.
         11    1    3    3    0    0  0.15528698409E+01  0.15209278446E+02  0.14269297035E+02  0.20912828448E+02  0.51100000000E-03 0. -1.
        -11    1    3    3    0    0 -0.17276608980E+02 -0.37215096945E+02 -0.11969372723E+02  0.42740034419E+02  0.51100000000E-03 0.  1.
         12    1    3    3    0    0  0.15776883299E+02  0.21049191256E+02 -0.16104380394E+01  0.26354734107E+02  0.00000000000E+00 0. -1.
</event>
<event>
 7    1  0.2405891E-015  0.9000775E+02  0.7816164E-02  0.1186339E+00
        -11   -1    0    0    0    0  0.00000000000E+00  0.00000000000E+00  0.45593999997E+02  0.45594000000E+02  0.51100000000E-03 0.  1.
         11   -1    0    0    0    0 -0.00000000000E+00 -0.00000000000E+00 -0.45593999997E+02  0.45594000000E+02  0.51100000000E-03 0. -1.
    9900012    2    1    2    0    0 -0.74386293573E+00  0.88613255827E+00 -0.23327565924E+00  0.90007754046E+02  0.90000015600E+02 0.  0.
        -12    1    1    2    0    0  0.74386293573E+00 -0.88613255827E+00  0.23327565924E+00  0.11802459537E+01  0.00000000000E+00 0.  1.
         11    1    3    3    0    0 -0.28183691639E+02  0.43551593752E+01 -0.18194179833E+02  0.33827741096E+02  0.51100000000E-03 0. -1.
        -11    1    3    3    0    0 -0.16712513270E+01  0.72551602598E+01 -0.11301327821E+02  0.13533308619E+02  0.51100000000E-03 0.  1.
        -12    1    3    3    0    0  0.29111080030E+02 -0.10724187077E+02  0.29262231995E+02  0.42646704331E+02  0.00000000000E+00 0.  1.
</event>
<event>
 7    1  0.2405891E-015  0.9000777E+02  0.7816164E-02  0.1186339E+00
        -11   -1    0    0    0    0  0.00000000000E+00  0.00000000000E+00  0.45593999997E+02  0.45594000000E+02  0.51100000000E-03 0.  1.
         11   -1    0    0    0    0 -0.00000000000E+00 -0.00000000000E+00 -0.45593999997E+02  0.45594000000E+02  0.51100000000E-03 0. -1.
    9900012    2    1    2    0    0 -0.76876224448E+00 -0.81357687034E+00 -0.37423179411E+00  0.90007766062E+02  0.90000027774E+02 0.  0.
        -12    1    1    2    0    0  0.76876224448E+00  0.81357687034E+00  0.37423179411E+00  0.11802339379E+01  0.00000000000E+00 0.  1.
         11    1    3    3    0    0 -0.78738896085E+00  0.95436438687E+00 -0.10024607940E+02  0.10100671135E+02  0.51100000000E-03 0. -1.
        -11    1    3    3    0    0 -0.29675310029E+02 -0.22682161914E+02 -0.99257415366E+01  0.38647442861E+02  0.51100000000E-03 0.  1.
         12    1    3    3    0    0  0.29693936745E+02  0.20914220657E+02  0.19576117683E+02  0.41259652066E+02  0.00000000000E+00 0. -1.
</event>
<event>
 7    1  0.2405891E-015  0.9000700E+02  0.7816164E-02  0.1186341E+00
        -11   -1    0    0    0    0  0.00000000000E+00  0.00000000000E+00  0.45593999997E+02  0.45594000000E+02  0.51100000000E-03 0. -1.
         11   -1    0    0    0    0 -0.00000000000E+00 -0.00000000000E+00 -0.45593999997E+02  0.45594000000E+02  0.51100000000E-03 0.  1.
    9900012    2    1    2    0    0 -0.41160905206E+00  0.51165193469E-01  0.11057688194E+01  0.90006998488E+02  0.89999250065E+02 0.  0.
        -12    1    1    2    0    0  0.41160905206E+00 -0.51165193469E-01 -0.11057688194E+01  0.11810015118E+01  0.00000000000E+00 0.  1.
         11    1    3    3    0    0  0.10640357947E+01  0.10015111612E+02 -0.19862506975E+01  0.10265467591E+02  0.51100000000E-03 0. -1.
        -11    1    3    3    0    0 -0.34960347781E+02  0.14780787496E+02 -0.41133489859E+00  0.37958751200E+02  0.51100000000E-03 0.  1.
         12    1    3    3    0    0  0.33484702934E+02 -0.24744733914E+02  0.35033544155E+01  0.41782779698E+02  0.00000000000E+00 0. -1.
</event>
<event>
 7    1  0.2405891E-015  0.9000765E+02  0.7816164E-02  0.1186339E+00
        -11   -1    0    0    0    0  0.00000000000E+00  0.00000000000E+00  0.45593999997E+02  0.45594000000E+02  0.51100000000E-03 0. -1.
         11   -1    0    0    0    0 -0.00000000000E+00 -0.00000000000E+00 -0.45593999997E+02  0.45594000000E+02  0.51100000000E-03 0.  1.
    9900012    2    1    2    0    0 -0.26485883910E+00 -0.11078343610E+01  0.30949732426E+00  0.90007645913E+02  0.89999906039E+02 0.  0.
        -12    1    1    2    0    0  0.26485883910E+00  0.11078343610E+01 -0.30949732426E+00  0.11803540866E+01  0.00000000000E+00 0.  1.
         11    1    3    3    0    0  0.12430199188E+00  0.36035308090E+01 -0.81048981828E+01  0.88707530735E+01  0.51100000000E-03 0. -1.
        -11    1    3    3    0    0  0.31595293126E+02  0.27330254406E+00 -0.20556880531E+02  0.37695126733E+02  0.51100000000E-03 0.  1.
         12    1    3    3    0    0 -0.31984453957E+02 -0.49846677141E+01  0.28971276038E+02  0.43441766106E+02  0.00000000000E+00 0. -1.
</event>
<event>
 7    1  0.2405891E-015  0.9000785E+02  0.7816164E-02  0.1186339E+00
        -11   -1    0    0    0    0  0.00000000000E+00  0.00000000000E+00  0.45593999997E+02  0.45594000000E+02  0.51100000000E-03 0. -1.
         11   -1    0    0    0    0 -0.00000000000E+00 -0.00000000000E+00 -0.45593999997E+02  0.45594000000E+02  0.51100000000E-03 0.  1.
    9900012    2    1    2    0    0 -0.48055517632E+00 -0.77644227837E+00  0.74764085780E+00  0.90007846306E+02  0.90000109077E+02 0.  0.
        -12    1    1    2    0    0  0.48055517632E+00  0.77644227837E+00 -0.74764085780E+00  0.11801536940E+01  0.00000000000E+00 0.  1.
         11    1    3    3    0    0 -0.30840538836E+02  0.68545552524E+01  0.19155778099E+02  0.36946821220E+02  0.51100000000E-03 0. -1.
        -11    1    3    3    0    0 -0.55266194362E+01  0.78467639238E+01  0.57033901576E+00  0.96145989684E+01  0.51100000000E-03 0.  1.
        -12    1    3    3    0    0  0.35886603096E+02 -0.15477761455E+02 -0.18978476257E+02  0.43446426118E+02  0.00000000000E+00 0.  1.
</event>
<event>
 7    1  0.2405891E-015  0.9000769E+02  0.7816164E-02  0.1186339E+00
        -11   -1    0    0    0    0  0.00000000000E+00  0.00000000000E+00  0.45593999997E+02  0.45594000000E+02  0.51100000000E-03 0.  1.
         11   -1    0    0    0    0 -0.00000000000E+00 -0.00000000000E+00 -0.45593999997E+02  0.45594000000E+02  0.51100000000E-03 0. -1.
    9900012    2    1    2    0    0  0.79605238967E+00 -0.86048221894E+00 -0.13789024764E+00  0.90007685306E+02  0.89999945952E+02 0.  0.
        -12    1    1    2    0    0 -0.79605238967E+00  0.86048221894E+00  0.13789024764E+00  0.11803146939E+01  0.00000000000E+00 0.  1.
         11    1    3    3    0    0  0.38314114756E+01 -0.21695163229E+02 -0.20366028157E+02  0.30002248659E+02  0.51100000000E-03 0. -1.
        -11    1    3    3    0    0 -0.91073424650E+01 -0.11457946384E+02 -0.80057920674E+01  0.16682953246E+02  0.51100000000E-03 0.  1.
        -12    1    3    3    0    0  0.60719833791E+01  0.32292627394E+02  0.28233929977E+02  0.43322483402E+02  0.00000000000E+00 0.  1.
</event>
<event>
 7    1  0.2405891E-015  0.9000772E+02  0.7816164E-02  0.1186339E+00
        -11   -1    0    0    0    0  0.00000000000E+00  0.00000000000E+00  0.45593999997E+02  0.45594000000E+02  0.51100000000E-03 0.  1.
         11   -1    0    0    0    0 -0.00000000000E+00 -0.00000000000E+00 -0.45593999997E+02  0.45594000000E+02  0.51100000000E-03 0. -1.
    9900012    2    1    2    0    0  0.11137269758E+01 -0.43844803478E-01  0.38827317369E+00  0.90007717745E+02  0.89999978820E+02 0.  0.
        -12    1    1    2    0    0 -0.11137269758E+01  0.43844803478E-01 -0.38827317369E+00  0.11802822547E+01  0.00000000000E+00 0.  1.
         11    1    3    3    0    0  0.26500318191E+02  0.57132797036E+01 -0.22110854998E+02  0.34982829190E+02  0.51100000000E-03 0. -1.
        -11    1    3    3    0    0  0.10823441826E+02  0.11150941153E+01 -0.15873295470E+01  0.10995905747E+02  0.51100000000E-03 0.  1.
        -12    1    3    3    0    0 -0.36210033041E+02 -0.68722186224E+01  0.24086457718E+02  0.44028982807E+02  0.00000000000E+00 0.  1.
</event>
<event>
 7    1  0.2405891E-015  0.9000808E+02  0.7816164E-02  0.1186338E+00
        -11   -1    0    0    0    0  0.00000000000E+00  0.00000000000E+00  0.45593999997E+02  0.45594000000E+02  0.51100000000E-03 0.  1.
         11   -1    0    0    0    0 -0.00000000000E+00 -0.00000000000E+00 -0.45593999997E+02  0.45594000000E+02  0.51100000000E-03 0. -1.
    9900012    2    1    2    0    0 -0.18951866826E+00 -0.70275040992E+00 -0.92866975796E+00  0.90008083484E+02  0.90000349386E+02 0.  0.
        -12    1    1    2    0    0  0.18951866826E+00  0.70275040992E+00  0.92866975796E+00  0.11799165155E+01  0.00000000000E+00 0.  1.
         11    1    3    3    0    0  0.81906130620E+01 -0.16993697093E+01  0.35031802582E+01  0.90689730357E+01  0.51100000000E-03 0. -1.
        -11    1    3    3    0    0 -0.41620353785E+02 -0.57584388321E+01  0.11357217220E+02  0.43524703908E+02  0.51100000000E-03 0.  1.
         12    1    3    3    0    0  0.33240222055E+02  0.67550581314E+01 -0.15789067236E+02  0.37414406541E+02  0.00000000000E+00 0. -1.
</event>
<event>
 7    1  0.2405891E-015  0.9000779E+02  0.7816164E-02  0.1186339E+00
        -11   -1    0    0    0    0  0.00000000000E+00  0.00000000000E+00  0.45593999997E+02  0.45594000000E+02  0.51100000000E-03 0. -1.
         11   -1    0    0    0    0 -0.00000000000E+00 -0.00000000000E+00 -0.45593999997E+02  0.45594000000E+02  0.51100000000E-03 0.  1.
    9900012    2    1    2    0    0 -0.11170967154E+01 -0.15903700476E+00  0.34595861726E+00  0.90007794422E+02  0.90000056509E+02 0.  0.
        -12    1    1    2    0    0  0.11170967154E+01  0.15903700476E+00 -0.34595861726E+00  0.11802055776E+01  0.00000000000E+00 0.  1.
         11    1    3    3    0    0 -0.85723745306E+01 -0.21419132140E+02 -0.32897387666E+00  0.23073210674E+02  0.51100000000E-03 0. -1.
        -11    1    3    3    0    0 -0.33852778258E+01 -0.11879766351E+01 -0.28405846385E+02  0.28631512422E+02  0.51100000000E-03 0.  1.
         12    1    3    3    0    0  0.10840555641E+02  0.22448071770E+02  0.29080778879E+02  0.38303071326E+02  0.00000000000E+00 0. -1.
</event>
<event>
 7    1  0.2405891E-015  0.9000777E+02  0.7816164E-02  0.1186339E+00
        -11   -1    0    0    0    0  0.00000000000E+00  0.00000000000E+00  0.45593999997E+02  0.45594000000E+02  0.51100000000E-03 0. -1.
         11   -1    0    0    0    0 -0.00000000000E+00 -0.00000000000E+00 -0.45593999997E+02  0.45594000000E+02  0.51100000000E-03 0.  1.
    9900012    2    1    2    0    0  0.10389467958E+01 -0.47406957735E+00  0.29797680023E+00  0.90007770115E+02  0.90000031880E+02 0.  0.
        -12    1    1    2    0    0 -0.10389467958E+01  0.47406957735E+00 -0.29797680023E+00  0.11802298853E+01  0.00000000000E+00 0.  1.
         11    1    3    3    0    0  0.30013973110E+00 -0.52074130219E+01  0.43087892502E+01  0.67655671827E+01  0.51100000000E-03 0. -1.
        -11    1    3    3    0    0  0.62598402712E+01 -0.19848707376E+02 -0.36567567049E+02  0.42075452997E+02  0.51100000000E-03 0.  1.
         12    1    3    3    0    0 -0.55210332065E+01  0.24582050820E+02  0.32556754599E+02  0.41166749935E+02  0.00000000000E+00 0. -1.
</event>
<event>
 7    1  0.2405891E-015  0.9000774E+02  0.7816164E-02  0.1186339E+00
        -11   -1    0    0    0    0  0.00000000000E+00  0.00000000000E+00  0.45593999997E+02  0.45594000000E+02  0.51100000000E-03 0. -1.
         11   -1    0    0    0    0 -0.00000000000E+00 -0.00000000000E+00 -0.45593999997E+02  0.45594000000E+02  0.51100000000E-03 0.  1.
    9900012    2    1    2    0    0  0.13685501773E+00  0.87491768451E+00  0.78026263977E+00  0.90007737301E+02  0.89999998634E+02 0.  0.
        -12    1    1    2    0    0 -0.13685501773E+00 -0.87491768451E+00 -0.78026263977E+00  0.11802626985E+01  0.00000000000E+00 0.  1.
         11    1    3    3    0    0 -0.85562914933E+01  0.47697670657E+01  0.22125083278E+01  0.10042708566E+02  0.51100000000E-03 0. -1.
        -11    1    3    3    0    0 -0.31574442529E+02 -0.24513312968E+01 -0.17966801919E+02  0.36410993087E+02  0.51100000000E-03 0.  1.
         12    1    3    3    0    0  0.40267589040E+02 -0.14435180844E+01  0.16534556231E+02  0.43554035649E+02  0.00000000000E+00 0. -1.
</event>
<event>
 7    1  0.2405891E-015  0.9000761E+02  0.7816164E-02  0.1186339E+00
        -11   -1    0    0    0    0  0.00000000000E+00  0.00000000000E+00  0.45593999997E+02  0.45594000000E+02  0.51100000000E-03 0. -1.
         11   -1    0    0    0    0 -0.00000000000E+00 -0.00000000000E+00 -0.45593999997E+02  0.45594000000E+02  0.51100000000E-03 0.  1.
    9900012    2    1    2    0    0 -0.41426416837E+00  0.10564904355E+01  0.32487541673E+00  0.90007605626E+02  0.89999865220E+02 0.  0.
        -12    1    1    2    0    0  0.41426416837E+00 -0.10564904355E+01 -0.32487541673E+00  0.11803943738E+01  0.00000000000E+00 0.  1.
         11    1    3    3    0    0  0.29406711092E+02 -0.10986666322E+02 -0.44848896081E+01  0.31710814073E+02  0.51100000000E-03 0. -1.
        -11    1    3    3    0    0 -0.16216973125E+01 -0.10378193283E+02 -0.14120867286E+02  0.17599309395E+02  0.51100000000E-03 0.  1.
        -12    1    3    3    0    0 -0.28199277948E+02  0.22421350040E+02  0.18930632311E+02  0.40697482159E+02  0.00000000000E+00 0.  1.
</event>
<event>
 7    1  0.2405891E-015  0.9000767E+02  0.7816164E-02  0.1186339E+00
        -11   -1    0    0    0    0  0.00000000000E+00  0.00000000000E+00  0.45593999997E+02  0.45594000000E+02  0.51100000000E-03 0.  1.
         11   -1    0    0    0    0 -0.00000000000E+00 -0.00000000000E+00 -0.45593999997E+02  0.45594000000E+02  0.51100000000E-03 0. -1.
    9900012    2    1    2    0    0 -0.66814921811E+00  0.84339535734E+00  0.48521370517E+00  0.90007673161E+02  0.89999933647E+02 0.  0.
        -12    1    1    2    0    0  0.66814921811E+00 -0.84339535734E+00 -0.48521370517E+00  0.11803268387E+01  0.00000000000E+00 0.  1.
         11    1    3    3    0    0  0.37768106815E+01 -0.20997788199E+01 -0.13642474858E+02  0.14310502805E+02  0.51100000000E-03 0. -1.
        -11    1    3    3    0    0 -0.11190660790E+02  0.96665160551E+01 -0.28451970887E+02  0.32065356214E+02  0.51100000000E-03 0.  1.
         12    1    3    3    0    0  0.67457008906E+01 -0.67233418779E+01  0.42579659449E+02  0.43631814142E+02  0.00000000000E+00 0. -1.
</event>
<event>
 7    1  0.2405891E-015  0.9000769E+02  0.7816164E-02  0.1186339E+00
        -11   -1    0    0    0    0  0.00000000000E+00  0.00000000000E+00  0.45593999997E+02  0.45594000000E+02  0.51100000000E-03 0.  1.
         11   -1    0    0    0    0 -0.00000000000E+00 -0.00000000000E+00 -0.45593999997E+02  0.45594000000E+02  0.51100000000E-03 0. -1.
    9900012    2    1    2    0    0 -0.14119524325E+00  0.10295852326E+01 -0.55959140433E+00  0.90007693096E+02  0.89999953845E+02 0.  0.
        -12    1    1    2    0    0  0.14119524325E+00 -0.10295852326E+01  0.55959140433E+00  0.11803069040E+01  0.00000000000E+00 0.  1.
         11    1    3    3    0    0  0.10583170381E+02  0.34259866300E+02 -0.14098724923E+02  0.38529417060E+02  0.51100000000E-03 0. -1.
        -11    1    3    3    0    0  0.44744733515E+01  0.17651967008E+01 -0.67321360664E+01  0.82739644333E+01  0.51100000000E-03 0.  1.
        -12    1    3    3    0    0 -0.15198838976E+02 -0.34995477769E+02  0.20271269586E+02  0.43204311603E+02  0.00000000000E+00 0.  1.
</event>
<event>
 7    1  0.2405891E-015  0.9000898E+02  0.7816164E-02  0.1186337E+00
        -11   -1    0    0    0    0  0.00000000000E+00  0.00000000000E+00  0.45593999997E+02  0.45594000000E+02  0.51100000000E-03 0. -1.
         11   -1    0    0    0    0 -0.00000000000E+00 -0.00000000000E+00 -0.45593999997E+02  0.45594000000E+02  0.51100000000E-03 0.  1.
    9900012    2    1    2    0    0  0.13559168197E+00  0.29452745552E+00  0.11335555503E+01  0.90008983583E+02  0.90001261357E+02 0.  0.
        -12    1    1    2    0    0 -0.13559168197E+00 -0.29452745552E+00 -0.11335555503E+01  0.11790164172E+01  0.00000000000E+00 0.  1.
         11    1    3    3    0    0 -0.23791860626E+01  0.78178325379E+01  0.38215176895E+01  0.90212543265E+01  0.51100000000E-03 0. -1.
        -11    1    3    3    0    0 -0.34295191296E+02  0.11670930460E+02 -0.12513598191E+02  0.38327025762E+02  0.51100000000E-03 0.  1.
         12    1    3    3    0    0  0.36809969041E+02 -0.19194235542E+02  0.98256360515E+01  0.42660703494E+02  0.00000000000E+00 0. -1.
</event>
<event>
 7    1  0.2405891E-015  0.9000770E+02  0.7816164E-02  0.1186339E+00
        -11   -1    0    0    0    0  0.00000000000E+00  0.00000000000E+00  0.45593999997E+02  0.45594000000E+02  0.51100000000E-03 0. -1.
         11   -1    0    0    0    0 -0.00000000000E+00 -0.00000000000E+00 -0.45593999997E+02  0.45594000000E+02  0.51100000000E-03 0.  1.
    9900012    2    1    2    0    0 -0.55276058049E-01 -0.26387026325E+00  0.11490953493E+01  0.90007702122E+02  0.89999962990E+02 0.  0.
        -12    1    1    2    0    0  0.55276058049E-01  0.26387026325E+00 -0.11490953493E+01  0.11802978777E+01  0.00000000000E+00 0.  1.
         11    1    3    3    0    0 -0.31612449544E+01 -0.20989625697E+01  0.32907675289E+02  0.33125733301E+02  0.51100000000E-03 0. -1.
        -11    1    3    3    0    0 -0.43936082349E+00 -0.49062248707E+00  0.12451560555E+02  0.12468965830E+02  0.51100000000E-03 0.  1.
        -12    1    3    3    0    0  0.35453297198E+01  0.23257147935E+01 -0.44210140495E+02  0.44413002991E+02  0.00000000000E+00 0.  1.
</event>
<event>
 7    1  0.2405891E-015  0.9000769E+02  0.7816164E-02  0.1186339E+00
        -11   -1    0    0    0    0  0.00000000000E+00  0.00000000000E+00  0.45593999997E+02  0.45594000000E+02  0.51100000000E-03 0.  1.
         11   -1    0    0    0    0 -0.00000000000E+00 -0.00000000000E+00 -0.45593999997E+02  0.45594000000E+02  0.51100000000E-03 0. -1.
    9900012    2    1    2    0    0  0.15772351619E+00 -0.97914336292E+00  0.63994001078E+00  0.90007694256E+02  0.89999955020E+02 0.  0.
        -12    1    1    2    0    0 -0.15772351619E+00  0.97914336292E+00 -0.63994001078E+00  0.11803057443E+01  0.00000000000E+00 0.  1.
         11    1    3    3    0    0  0.35086760906E+01  0.10852808342E+02  0.80639161830E+00  0.11434357198E+02  0.51100000000E-03 0. -1.
        -11    1    3    3    0    0 -0.11756649263E+02  0.26902417272E+02  0.18562651008E+02  0.34735153226E+02  0.51100000000E-03 0.  1.
         12    1    3    3    0    0  0.84056966881E+01 -0.38734368977E+02 -0.18729102615E+02  0.43838183832E+02  0.00000000000E+00 0. -1.
</event>
<event>
 7    1  0.2405891E-015  0.9000776E+02  0.7816164E-02  0.1186339E+00
        -11   -1    0    0    0    0  0.00000000000E+00  0.00000000000E+00  0.45593999997E+02  0.45594000000E+02  0.51100000000E-03 0. -1.
         11   -1    0    0    0    0 -0.00000000000E+00 -0.00000000000E+00 -0.45593999997E+02  0.45594000000E+02  0.51100000000E-03 0.  1.
    9900012    2    1    2    0    0  0.47697493218E+00  0.92747232990E+00 -0.55250221442E+00  0.90007759048E+02  0.90000020667E+02 0.  0.
        -12    1    1    2    0    0 -0.47697493218E+00 -0.92747232990E+00  0.55250221442E+00  0.11802409524E+01  0.00000000000E+00 0.  1.
         11    1    3    3    0    0  0.52557992141E+01 -0.10602617138E+02  0.34197342148E+02  0.36186974533E+02  0.51100000000E-03 0. -1.
        -11    1    3    3    0    0 -0.48901859253E+01 -0.12637746405E+02 -0.29312261135E+01  0.13864293685E+02  0.51100000000E-03 0.  1.
        -12    1    3    3    0    0  0.11136164342E+00  0.24167835873E+02 -0.31818618249E+02  0.39956490830E+02  0.00000000000E+00 0.  1.
</event>
<event>
 7    1  0.2405891E-015  0.9000784E+02  0.7816164E-02  0.1186339E+00
        -11   -1    0    0    0    0  0.00000000000E+00  0.00000000000E+00  0.45593999997E+02  0.45594000000E+02  0.51100000000E-03 0. -1.
         11   -1    0    0    0    0 -0.00000000000E+00 -0.00000000000E+00 -0.45593999997E+02  0.45594000000E+02  0.51100000000E-03 0.  1.
    9900012    2    1    2    0    0 -0.56224969621E+00 -0.68061348063E+00  0.78321397172E+00  0.90007837487E+02  0.90000100142E+02 0.  0.
        -12    1    1    2    0    0  0.56224969621E+00  0.68061348063E+00 -0.78321397172E+00  0.11801625127E+01  0.00000000000E+00 0.  1.
         11    1    3    3    0    0  0.36667782767E+02 -0.33332319446E+00 -0.33449550966E+01  0.36821544268E+02  0.51100000000E-03 0. -1.
        -11    1    3    3    0    0  0.30829233882E+01  0.50121343286E+01 -0.87355926779E+01  0.10532639120E+02  0.51100000000E-03 0.  1.
        -12    1    3    3    0    0 -0.40312955852E+02 -0.53594246148E+01  0.12863761746E+02  0.42653654099E+02  0.00000000000E+00 0.  1.
</event>
<event>
 7    1  0.2405891E-015  0.9000770E+02  0.7816164E-02  0.1186339E+00
        -11   -1    0    0    0    0  0.00000000000E+00  0.00000000000E+00  0.45593999997E+02  0.45594000000E+02  0.51100000000E-03 0.  1.
         11   -1    0    0    0    0 -0.00000000000E+00 -0.00000000000E+00 -0.45593999997E+02  0.45594000000E+02  0.51100000000E-03 0. -1.
    9900012    2    1    2    0    0 -0.11245335968E+01 -0.28279200808E+00 -0.22038333693E+00  0.90007696672E+02  0.89999957468E+02 0.  0.
        -12    1    1    2    0    0  0.11245335968E+01  0.28279200808E+00  0.22038333693E+00  0.11803033277E+01  0.00000000000E+00 0.  1.
         11    1    3    3    0    0 -0.46967661345E+01 -0.44456567959E+01  0.51987894513E+01  0.82976435504E+01  0.51100000000E-03 0. -1.
        -11    1    3    3    0    0 -0.88869298581E+01  0.20747193699E+01  0.36658272384E+02  0.37777121611E+02  0.51100000000E-03 0.  1.
         12    1    3    3    0    0  0.12459162396E+02  0.20881454179E+01 -0.42077445172E+02  0.43932931511E+02  0.00000000000E+00 0. -1.
</event>
<event>
 7    1  0.2405891E-015  0.9000767E+02  0.7816164E-02  0.1186339E+00
        -11   -1    0    0    0    0  0.00000000000E+00  0.00000000000E+00  0.45593999997E+02  0.45594000000E+02  0.51100000000E-03 0.  1.
         11   -1    0    0    0    0 -0.00000000000E+00 -0.00000000000E+00 -0.45593999997E+02  0.45594000000E+02  0.51100000000E-03 0. -1.
    9900012    2    1    2    0    0  0.85844061038E-01 -0.13300566975E+00 -0.11696621365E+01  0.90007674102E+02  0.89999934601E+02 0.  0.
        -12    1    1    2    0    0 -0.85844061038E-01  0.13300566975E+00  0.11696621365E+01  0.11803258976E+01  0.00000000000E+00 0.  1.
         11    1    3    3    0    0  0.61730028301E+01 -0.10318189174E+02 -0.12207337966E+02  0.17134470877E+02  0.51100000000E-03 0. -1.
        -11    1    3    3    0    0  0.10582787996E+01 -0.30573536785E+02  0.61665380666E+01  0.31207167407E+02  0.51100000000E-03 0.  1.
         12    1    3    3    0    0 -0.71454375687E+01  0.40758720289E+02  0.48711377632E+01  0.41666035818E+02  0.00000000000E+00 0. -1.
</event>
<event>
 7    1  0.2576159E-015  0.9000779E+02  0.7816164E-02  0.1186339E+00
        -11   -1    0    0    0    0  0.00000000000E+00  0.00000000000E+00  0.45593999997E+02  0.45594000000E+02  0.51100000000E-03 0.  1.
         11   -1    0    0    0    0 -0.00000000000E+00 -0.00000000000E+00 -0.45593999997E+02  0.45594000000E+02  0.51100000000E-03 0. -1.
    9900012    2    1    2    0    0 -0.77891719977E+00  0.78030500553E+00  0.42108649377E+00  0.90007787417E+02  0.90000049411E+02 0.  0.
        -12    1    1    2    0    0  0.77891719977E+00 -0.78030500553E+00 -0.42108649377E+00  0.11802125830E+01  0.00000000000E+00 0.  1.
         11    1    3    3    0    0 -0.50733370244E+01  0.76078794230E+01 -0.31178626913E+01  0.96612445317E+01  0.51100000000E-03 0. -1.
        -11    1    3    3    0    0 -0.28878433526E+02  0.21798957991E+02  0.48755647232E+01  0.36509308731E+02  0.51100000000E-03 0.  1.
         12    1    3    3    0    0  0.33172853350E+02 -0.28626532409E+02 -0.13366155381E+01  0.43837234154E+02  0.00000000000E+00 0. -1.
</event>
<event>
 7    1  0.2405891E-015  0.9000773E+02  0.7816164E-02  0.1186339E+00
        -11   -1    0    0    0    0  0.00000000000E+00  0.00000000000E+00  0.45593999997E+02  0.45594000000E+02  0.51100000000E-03 0.  1.
         11   -1    0    0    0    0 -0.00000000000E+00 -0.00000000000E+00 -0.45593999997E+02  0.45594000000E+02  0.51100000000E-03 0. -1.
    9900012    2    1    2    0    0 -0.63201184865E-01  0.77585265986E-02 -0.11785531790E+01  0.90007727921E+02  0.89999989130E+02 0.  0.
        -12    1    1    2    0    0  0.63201184865E-01 -0.77585265986E-02  0.11785531790E+01  0.11802720789E+01  0.00000000000E+00 0.  1.
         11    1    3    3    0    0  0.10300690712E+02  0.32120600732E+02  0.82551293296E+01  0.34727285829E+02  0.51100000000E-03 0. -1.
        -11    1    3    3    0    0  0.13260331970E+00  0.80246829218E+01 -0.11172884296E+02  0.13756687951E+02  0.51100000000E-03 0.  1.
        -12    1    3    3    0    0 -0.10496495216E+02 -0.40137525127E+02  0.17392017873E+01  0.41523754141E+02  0.00000000000E+00 0.  1.
</event>
<event>
 7    1  0.2405891E-015  0.9000769E+02  0.7816164E-02  0.1186339E+00
        -11   -1    0    0    0    0  0.00000000000E+00  0.00000000000E+00  0.45593999997E+02  0.45594000000E+02  0.51100000000E-03 0.  1.
         11   -1    0    0    0    0 -0.00000000000E+00 -0.00000000000E+00 -0.45593999997E+02  0.45594000000E+02  0.51100000000E-03 0. -1.
    9900012    2    1    2    0    0  0.23073430313E+00 -0.62462630120E+00 -0.97453910659E+00  0.90007693766E+02  0.89999954524E+02 0.  0.
        -12    1    1    2    0    0 -0.23073430313E+00  0.62462630120E+00  0.97453910659E+00  0.11803062336E+01  0.00000000000E+00 0.  1.
         11    1    3    3    0    0  0.61521080645E+01  0.24547775275E+02 -0.18885974186E+02  0.31577234296E+02  0.51100000000E-03 0. -1.
        -11    1    3    3    0    0 -0.12221280806E+02  0.12119783205E+02  0.17468316581E+01  0.17300296836E+02  0.51100000000E-03 0.  1.
        -12    1    3    3    0    0  0.62999070450E+01 -0.37292184781E+02  0.16164603422E+02  0.41130162634E+02  0.00000000000E+00 0.  1.
</event>
<event>
 7    1  0.2556237E-015  0.9000791E+02  0.7816164E-02  0.1186339E+00
        -11   -1    0    0    0    0  0.00000000000E+00  0.00000000000E+00  0.45593999997E+02  0.45594000000E+02  0.51100000000E-03 0.  1.
         11   -1    0    0    0    0 -0.00000000000E+00 -0.00000000000E+00 -0.45593999997E+02  0.45594000000E+02  0.51100000000E-03 0. -1.
    9900012    2    1    2    0    0  0.27147373745E+00  0.56760630437E+00 -0.99837293274E+00  0.90007905334E+02  0.90000168885E+02 0.  0.
        -12    1    1    2    0    0 -0.27147373745E+00 -0.56760630437E+00  0.99837293274E+00  0.11800946656E+01  0.00000000000E+00 0.  1.
         11    1    3    3    0    0 -0.94735283081E+01  0.29737692167E+01  0.48370928019E+00  0.99410772499E+01  0.51100000000E-03 0. -1.
        -11    1    3    3    0    0 -0.34250650638E+01  0.67213964303E+01  0.37326037627E+02  0.38080721183E+02  0.51100000000E-03 0.  1.
         12    1    3    3    0    0  0.13170067109E+02 -0.91275593426E+01 -0.38808119840E+02  0.41986106901E+02  0.00000000000E+00 0. -1.
</event>
<event>
 7    1  0.2405891E-015  0.9000761E+02  0.7816164E-02  0.1186339E+00
        -11   -1    0    0    0    0  0.00000000000E+00  0.00000000000E+00  0.45593999997E+02  0.45594000000E+02  0.51100000000E-03 0. -1.
         11   -1    0    0    0    0 -0.00000000000E+00 -0.00000000000E+00 -0.45593999997E+02  0.45594000000E+02  0.51100000000E-03 0.  1.
    9900012    2    1    2    0    0 -0.94494132285E+00  0.17682953299E+00  0.68493304974E+00  0.90007611899E+02  0.89999871576E+02 0.  0.
        -12    1    1    2    0    0  0.94494132285E+00 -0.17682953299E+00 -0.68493304974E+00  0.11803881014E+01  0.00000000000E+00 0.  1.
         11    1    3    3    0    0  0.36622191403E+01 -0.72432378207E+01 -0.74882453971E+01  0.11043104751E+02  0.51100000000E-03 0. -1.
        -11    1    3    3    0    0 -0.32111782122E+02 -0.17676514911E+02 -0.93266731731E+01  0.37823439336E+02  0.51100000000E-03 0.  1.
         12    1    3    3    0    0  0.27504621659E+02  0.25096582265E+02  0.17499851620E+02  0.41141067812E+02  0.00000000000E+00 0. -1.
</event>
<event>
 7    1  0.2405891E-015  0.9000771E+02  0.7816164E-02  0.1186339E+00
        -11   -1    0    0    0    0  0.00000000000E+00  0.00000000000E+00  0.45593999997E+02  0.45594000000E+02  0.51100000000E-03 0.  1.
         11   -1    0    0    0    0 -0.00000000000E+00 -0.00000000000E+00 -0.45593999997E+02  0.45594000000E+02  0.51100000000E-03 0. -1.
    9900012    2    1    2    0    0 -0.84552017897E+00  0.74797572941E+00  0.34453336003E+00  0.90007713890E+02  0.89999974914E+02 0.  0.
        -12    1    1    2    0    0  0.84552017897E+00 -0.74797572941E+00 -0.34453336003E+00  0.11802861098E+01  0.00000000000E+00 0.  1.
         11    1    3    3    0    0  0.23205712803E+02  0.23411841610E+02 -0.72221572283E+01  0.33745799584E+02  0.51100000000E-03 0. -1.
        -11    1    3    3    0    0  0.95637929579E+01 -0.18591526583E+02  0.80345527080E+01  0.22397880121E+02  0.51100000000E-03 0.  1.
        -12    1    3    3    0    0 -0.33615025940E+02 -0.40723392980E+01 -0.46786211962E+00  0.33864034185E+02  0.00000000000E+00 0.  1.
</event>
<event>
 7    1  0.2601932E-015  0.9000776E+02  0.7816164E-02  0.1186339E+00
        -11   -1    0    0    0    0  0.00000000000E+00  0.00000000000E+00  0.45593999997E+02  0.45594000000E+02  0.51100000000E-03 0.  1.
         11   -1    0    0    0    0 -0.00000000000E+00 -0.00000000000E+00 -0.45593999997E+02  0.45594000000E+02  0.51100000000E-03 0. -1.
    9900012    2    1    2    0    0 -0.10859869232E+01 -0.31690573950E+00  0.33640952757E+00  0.90007759255E+02  0.90000020877E+02 0.  0.
        -12    1    1    2    0    0  0.10859869232E+01  0.31690573950E+00 -0.33640952757E+00  0.11802407447E+01  0.00000000000E+00 0.  1.
         11    1    3    3    0    0  0.84166939662E+01 -0.52557057426E+01 -0.19124016252E+01  0.10105466858E+02  0.51100000000E-03 0. -1.
        -11    1    3    3    0    0  0.15157991835E+02 -0.31811147865E+02 -0.28460822458E+01  0.35352708940E+02  0.51100000000E-03 0.  1.
         12    1    3    3    0    0 -0.24660672724E+02  0.36749947868E+02  0.50948933985E+01  0.44549583458E+02  0.00000000000E+00 0. -1.
</event>
<event>
 7    1  0.2405891E-015  0.9000775E+02  0.7816164E-02  0.1186339E+00
        -11   -1    0    0    0    0  0.00000000000E+00  0.00000000000E+00  0.45593999997E+02  0.45594000000E+02  0.51100000000E-03 0.  1.
         11   -1    0    0    0    0 -0.00000000000E+00 -0.00000000000E+00 -0.45593999997E+02  0.45594000000E+02  0.51100000000E-03 0. -1.
    9900012    2    1    2    0    0 -0.11636391067E-01  0.11364407333E+01  0.31837393700E+00  0.90007747947E+02  0.90000009419E+02 0.  0.
        -12    1    1    2    0    0  0.11636391067E-01 -0.11364407333E+01 -0.31837393700E+00  0.11802520534E+01  0.00000000000E+00 0.  1.
         11    1    3    3    0    0  0.22441182354E+02 -0.22546392849E+02 -0.13182221023E+02  0.34434248174E+02  0.51100000000E-03 0. -1.
        -11    1    3    3    0    0  0.11840988322E+02 -0.11046377516E+00  0.48378320584E+00  0.11851381908E+02  0.51100000000E-03 0.  1.
        -12    1    3    3    0    0 -0.34293807067E+02  0.23793297357E+02  0.13016811754E+02  0.43722117864E+02  0.00000000000E+00 0.  1.
</event>
<event>
 7    1  0.2463105E-015  0.9000776E+02  0.7816164E-02  0.1186339E+00
        -11   -1    0    0    0    0  0.00000000000E+00  0.00000000000E+00  0.45593999997E+02  0.45594000000E+02  0.51100000000E-03 0.  1.
         11   -1    0    0    0    0 -0.00000000000E+00 -0.00000000000E+00 -0.45593999997E+02  0.45594000000E+02  0.51100000000E-03 0. -1.
    9900012    2    1    2    0    0  0.11207321148E+01 -0.23070886520E+00 -0.28931867257E+00  0.90007757505E+02  0.90000019104E+02 0.  0.
        -12    1    1    2    0    0 -0.11207321148E+01  0.23070886520E+00  0.28931867257E+00  0.11802424954E+01  0.00000000000E+00 0.  1.
         11    1    3    3    0    0  0.55239007692E+01  0.27308783434E+00  0.73872667457E+01  0.92282049667E+01  0.51100000000E-03 0. -1.
        -11    1    3    3    0    0  0.52180849666E+01  0.33060375996E+02  0.17466276665E+02  0.37752982564E+02  0.51100000000E-03 0.  1.
         12    1    3    3    0    0 -0.96212536210E+01 -0.33564172695E+02 -0.25142862084E+02  0.43026569974E+02  0.00000000000E+00 0. -1.
</event>
<event>
 7    1  0.2405891E-015  0.9000770E+02  0.7816164E-02  0.1186339E+00
        -11   -1    0    0    0    0  0.00000000000E+00  0.00000000000E+00  0.45593999997E+02  0.45594000000E+02  0.51100000000E-03 0. -1.
         11   -1    0    0    0    0 -0.00000000000E+00 -0.00000000000E+00 -0.45593999997E+02  0.45594000000E+02  0.51100000000E-03 0.  1.
    9900012    2    1    2    0    0  0.11056753294E+01 -0.42367182117E-01 -0.41084752423E+00  0.90007699784E+02  0.89999960621E+02 0.  0.
        -12    1    1    2    0    0 -0.11056753294E+01  0.42367182117E-01  0.41084752423E+00  0.11803002162E+01  0.00000000000E+00 0.  1.
         11    1    3    3    0    0  0.42903703051E+01 -0.50612600213E+01 -0.62304099712E+01  0.91017382421E+01  0.51100000000E-03 0. -1.
        -11    1    3    3    0    0 -0.11981927030E+02 -0.34237183442E+02 -0.10080739527E+02  0.37648009444E+02  0.51100000000E-03 0.  1.
         12    1    3    3    0    0  0.87972320541E+01  0.39256076281E+02  0.15900301974E+02  0.43257952098E+02  0.00000000000E+00 0. -1.
</event>
<event>
 7    1  0.2405891E-015  0.9000780E+02  0.7816164E-02  0.1186339E+00
        -11   -1    0    0    0    0  0.00000000000E+00  0.00000000000E+00  0.45593999997E+02  0.45594000000E+02  0.51100000000E-03 0. -1.
         11   -1    0    0    0    0 -0.00000000000E+00 -0.00000000000E+00 -0.45593999997E+02  0.45594000000E+02  0.51100000000E-03 0.  1.
    9900012    2    1    2    0    0  0.18353898448E+00  0.10581972045E+01  0.48929283130E+00  0.90007798595E+02  0.90000060736E+02 0.  0.
        -12    1    1    2    0    0 -0.18353898448E+00 -0.10581972045E+01 -0.48929283130E+00  0.11802014054E+01  0.00000000000E+00 0.  1.
         11    1    3    3    0    0 -0.17749068494E+02 -0.24708447458E+02  0.16306670539E+02  0.34517304537E+02  0.51100000000E-03 0. -1.
        -11    1    3    3    0    0 -0.52701365583E+01 -0.83613665980E+01  0.27180236851E+01  0.10250582605E+02  0.51100000000E-03 0.  1.
        -12    1    3    3    0    0  0.23202744037E+02  0.34128011260E+02 -0.18535401393E+02  0.45239911452E+02  0.00000000000E+00 0.  1.
</event>
<event>
 7    1  0.2405891E-015  0.9000782E+02  0.7816164E-02  0.1186339E+00
        -11   -1    0    0    0    0  0.00000000000E+00  0.00000000000E+00  0.45593999997E+02  0.45594000000E+02  0.51100000000E-03 0. -1.
         11   -1    0    0    0    0 -0.00000000000E+00 -0.00000000000E+00 -0.45593999997E+02  0.45594000000E+02  0.51100000000E-03 0.  1.
    9900012    2    1    2    0    0  0.40041439746E+00  0.11096315597E+01  0.34712057212E-01  0.90007822549E+02  0.90000085007E+02 0.  0.
        -12    1    1    2    0    0 -0.40041439746E+00 -0.11096315597E+01 -0.34712057212E-01  0.11801774506E+01  0.00000000000E+00 0.  1.
         11    1    3    3    0    0 -0.85627763555E+01 -0.11797321707E+01 -0.32978217976E+01  0.92514072324E+01  0.51100000000E-03 0. -1.
        -11    1    3    3    0    0 -0.89726409950E+01  0.38233089890E+02 -0.54189896125E+01  0.39643951590E+02  0.51100000000E-03 0.  1.
         12    1    3    3    0    0  0.17935831748E+02 -0.35943726160E+02  0.87515234673E+01  0.41112463727E+02  0.00000000000E+00 0. -1.
</event>
<event>
 7    1  0.2405891E-015  0.9000782E+02  0.7816164E-02  0.1186339E+00
        -11   -1    0    0    0    0  0.00000000000E+00  0.00000000000E+00  0.45593999997E+02  0.45594000000E+02  0.51100000000E-03 0. -1.
         11   -1    0    0    0    0 -0.00000000000E+00 -0.00000000000E+00 -0.45593999997E+02  0.45594000000E+02  0.51100000000E-03 0.  1.
    9900012    2    1    2    0    0 -0.36192913693E+00 -0.89635424233E+00  0.67704675193E+00  0.90007815297E+02  0.90000077659E+02 0.  0.
        -12    1    1    2    0    0  0.36192913693E+00  0.89635424233E+00 -0.67704675193E+00  0.11801847026E+01  0.00000000000E+00 0.  1.
         11    1    3    3    0    0 -0.17344144631E+02  0.12993749935E+02  0.16376133587E+02  0.27163111786E+02  0.51100000000E-03 0. -1.
        -11    1    3    3    0    0 -0.61641955134E+01  0.10933747574E+01  0.18142641811E+02  0.19192400236E+02  0.51100000000E-03 0.  1.
        -12    1    3    3    0    0  0.23146411007E+02 -0.14983478935E+02 -0.33841728646E+02  0.43652303276E+02  0.00000000000E+00 0.  1.
</event>
<event>
 7    1  0.2405891E-015  0.9000767E+02  0.7816164E-02  0.1186339E+00
        -11   -1    0    0    0    0  0.00000000000E+00  0.00000000000E+00  0.45593999997E+02  0.45594000000E+02  0.51100000000E-03 0. -1.
         11   -1    0    0    0    0 -0.00000000000E+00 -0.00000000000E+00 -0.45593999997E+02  0.45594000000E+02  0.51100000000E-03 0.  1.
    9900012    2    1    2    0    0  0.59210635401E+00  0.98598011004E+00 -0.26537448642E+00  0.90007673634E+02  0.89999934126E+02 0.  0.
        -12    1    1    2    0    0 -0.59210635401E+00 -0.98598011004E+00  0.26537448642E+00  0.11803263658E+01  0.00000000000E+00 0.  1.
         11    1    3    3    0    0 -0.15516377417E+02 -0.24756417159E+02  0.25394064084E+02  0.38710420428E+02  0.51100000000E-03 0. -1.
        -11    1    3    3    0    0  0.73208740246E+01  0.19104831372E+01  0.67367378388E+01  0.10130586324E+02  0.51100000000E-03 0.  1.
        -12    1    3    3    0    0  0.87876097468E+01  0.23831914132E+02 -0.32396176409E+02  0.41166666882E+02  0.00000000000E+00 0.  1.
</event>
<event>
 7    1  0.2405891E-015  0.9000774E+02  0.7816164E-02  0.1186339E+00
        -11   -1    0    0    0    0  0.00000000000E+00  0.00000000000E+00  0.45593999997E+02  0.45594000000E+02  0.51100000000E-03 0. -1.
         11   -1    0    0    0    0 -0.00000000000E+00 -0.00000000000E+00 -0.45593999997E+02  0.45594000000E+02  0.51100000000E-03 0.  1.
    9900012    2    1    2    0    0  0.55524979944E+00 -0.45154365265E+00  0.93852224064E+00  0.90007738162E+02  0.89999999506E+02 0.  0.
        -12    1    1    2    0    0 -0.55524979944E+00  0.45154365265E+00 -0.93852224064E+00  0.11802618380E+01  0.00000000000E+00 0.  1.
         11    1    3    3    0    0 -0.11251155056E+02  0.58360338575E+01  0.39980713428E+02  0.41941688423E+02  0.51100000000E-03 0. -1.
        -11    1    3    3    0    0 -0.56512935873E+01 -0.57361086216E+01 -0.41788249359E+01  0.90720802154E+01  0.51100000000E-03 0.  1.
        -12    1    3    3    0    0  0.17457698443E+02 -0.55146888855E+00 -0.34863366251E+02  0.38993969524E+02  0.00000000000E+00 0.  1.
</event>
<event>
 7    1  0.2405891E-015  0.9000782E+02  0.7816164E-02  0.1186339E+00
        -11   -1    0    0    0    0  0.00000000000E+00  0.00000000000E+00  0.45593999997E+02  0.45594000000E+02  0.51100000000E-03 0.  1.
         11   -1    0    0    0    0 -0.00000000000E+00 -0.00000000000E+00 -0.45593999997E+02  0.45594000000E+02  0.51100000000E-03 0. -1.
    9900012    2    1    2    0    0  0.87539224951E+00  0.62316537340E+00 -0.48803006607E+00  0.90007822039E+02  0.90000084490E+02 0.  0.
        -12    1    1    2    0    0 -0.87539224951E+00 -0.62316537340E+00  0.48803006607E+00  0.11801779605E+01  0.00000000000E+00 0.  1.
         11    1    3    3    0    0  0.44168270719E+01  0.32834097407E+01  0.88872731358E+01  0.10453361419E+02  0.51100000000E-03 0. -1.
        -11    1    3    3    0    0 -0.85078698604E+01  0.97085948779E+01  0.32839433640E+02  0.35285536217E+02  0.51100000000E-03 0.  1.
         12    1    3    3    0    0  0.49664350381E+01 -0.12368839245E+02 -0.42214736841E+02  0.44268924404E+02  0.00000000000E+00 0. -1.
</event>
<event>
 7    1  0.2405891E-015  0.9000756E+02  0.7816164E-02  0.1186339E+00
        -11   -1    0    0    0    0  0.00000000000E+00  0.00000000000E+00  0.45593999997E+02  0.45594000000E+02  0.51100000000E-03 0.  1.
         11   -1    0    0    0    0 -0.00000000000E+00 -0.00000000000E+00 -0.45593999997E+02  0.45594000000E+02  0.51100000000E-03 0. -1.
    9900012    2    1    2    0    0  0.79813268297E+00 -0.30238870507E+00 -0.81546421149E+00  0.90007560849E+02  0.89999819852E+02 0.  0.
        -12    1    1    2    0    0 -0.79813268297E+00  0.30238870507E+00  0.81546421149E+00  0.11804391508E+01  0.00000000000E+00 0.  1.
         11    1    3    3    0    0 -0.72521959836E+01  0.89656929313E+00  0.44682475349E+01  0.85652448520E+01  0.51100000000E-03 0. -1.
        -11    1    3    3    0    0 -0.89000022786E+01  0.33646458529E+02  0.14773811130E+02  0.37809518745E+02  0.51100000000E-03 0.  1.
         12    1    3    3    0    0  0.16950330945E+02 -0.34845416528E+02 -0.20057522876E+02  0.43632797252E+02  0.00000000000E+00 0. -1.
</event>
<event>
 7    1  0.2405891E-015  0.9000762E+02  0.7816164E-02  0.1186339E+00
        -11   -1    0    0    0    0  0.00000000000E+00  0.00000000000E+00  0.45593999997E+02  0.45594000000E+02  0.51100000000E-03 0. -1.
         11   -1    0    0    0    0 -0.00000000000E+00 -0.00000000000E+00 -0.45593999997E+02  0.45594000000E+02  0.51100000000E-03 0.  1.
    9900012    2    1    2    0    0 -0.20784857067E-01  0.11737060042E+01  0.12361865445E+00  0.90007618974E+02  0.89999878744E+02 0.  0.
        -12    1    1    2    0    0  0.20784857067E-01 -0.11737060042E+01 -0.12361865445E+00  0.11803810259E+01  0.00000000000E+00 0.  1.
         11    1    3    3    0    0  0.70667379734E+01 -0.10203707009E+02  0.17828377078E+02  0.21723384907E+02  0.51100000000E-03 0. -1.
        -11    1    3    3    0    0  0.25182988818E+02  0.13245771982E+02 -0.21602736342E+02  0.35725503760E+02  0.51100000000E-03 0.  1.
         12    1    3    3    0    0 -0.32270511649E+02 -0.18683589685E+01  0.38979779179E+01  0.32558730306E+02  0.00000000000E+00 0. -1.
</event>
<event>
 7    1  0.2405891E-015  0.9000773E+02  0.7816164E-02  0.1186339E+00
        -11   -1    0    0    0    0  0.00000000000E+00  0.00000000000E+00  0.45593999997E+02  0.45594000000E+02  0.51100000000E-03 0.  1.
         11   -1    0    0    0    0 -0.00000000000E+00 -0.00000000000E+00 -0.45593999997E+02  0.45594000000E+02  0.51100000000E-03 0. -1.
    9900012    2    1    2    0    0  0.75608623201E+00 -0.33652166365E+00  0.84150779938E+00  0.90007725203E+02  0.89999986376E+02 0.  0.
        -12    1    1    2    0    0 -0.75608623201E+00  0.33652166365E+00 -0.84150779938E+00  0.11802747971E+01  0.00000000000E+00 0.  1.
         11    1    3    3    0    0 -0.70161140358E+01 -0.99297710522E+00 -0.38213796141E+02  0.38865229646E+02  0.51100000000E-03 0. -1.
        -11    1    3    3    0    0 -0.77390478635E+01  0.62632301394E+01  0.14264217017E+01  0.10057613670E+02  0.51100000000E-03 0.  1.
        -12    1    3    3    0    0  0.15511248131E+02 -0.56067746978E+01  0.37628882238E+02  0.41084881886E+02  0.00000000000E+00 0.  1.
</event>
<event>
 7    1  0.2405891E-015  0.9000786E+02  0.7816164E-02  0.1186339E+00
        -11   -1    0    0    0    0  0.00000000000E+00  0.00000000000E+00  0.45593999997E+02  0.45594000000E+02  0.51100000000E-03 0.  1.
         11   -1    0    0    0    0 -0.00000000000E+00 -0.00000000000E+00 -0.45593999997E+02  0.45594000000E+02  0.51100000000E-03 0. -1.
    9900012    2    1    2    0    0  0.73779479031E+00 -0.60987084051E+00  0.69024865080E+00  0.90007861536E+02  0.90000124508E+02 0.  0.
        -12    1    1    2    0    0 -0.73779479031E+00  0.60987084051E+00 -0.69024865080E+00  0.11801384642E+01  0.00000000000E+00 0.  1.
         11    1    3    3    0    0  0.29522878968E+02 -0.20012652571E+02  0.14659595973E+02  0.38561773816E+02  0.51100000000E-03 0. -1.
        -11    1    3    3    0    0  0.79755050230E+01  0.46984025364E+01 -0.60815233416E+01  0.11075585455E+02  0.51100000000E-03 0.  1.
        -12    1    3    3    0    0 -0.36760589201E+02  0.14704379195E+02 -0.78878239807E+01  0.40370502264E+02  0.00000000000E+00 0.  1.
</event>
<event>
 7    1  0.2405891E-015  0.9000774E+02  0.7816164E-02  0.1186339E+00
        -11   -1    0    0    0    0  0.00000000000E+00  0.00000000000E+00  0.45593999997E+02  0.45594000000E+02  0.51100000000E-03 0. -1.
         11   -1    0    0    0    0 -0.00000000000E+00 -0.00000000000E+00 -0.45593999997E+02  0.45594000000E+02  0.51100000000E-03 0.  1.
    9900012    2    1    2    0    0 -0.95664584610E+00 -0.36067734188E+00  0.58970763944E+00  0.90007739639E+02  0.90000001002E+02 0.  0.
        -12    1    1    2    0    0  0.95664584610E+00  0.36067734188E+00 -0.58970763944E+00  0.11802603610E+01  0.00000000000E+00 0.  1.
         11    1    3    3    0    0  0.17859319034E+02  0.13374223184E+01 -0.36868027934E+02  0.40987747667E+02  0.51100000000E-03 0. -1.
        -11    1    3    3    0    0  0.25965521424E+01 -0.83883153626E+01  0.72131010011E+01  0.11363746916E+02  0.51100000000E-03 0.  1.
        -12    1    3    3    0    0 -0.21412517022E+02  0.66902157023E+01  0.30244634572E+02  0.37656245057E+02  0.00000000000E+00 0.  1.
</event>
<event>
 7    1  0.2405891E-015  0.9000784E+02  0.7816164E-02  0.1186339E+00
        -11   -1    0    0    0    0  0.00000000000E+00  0.00000000000E+00  0.45593999997E+02  0.45594000000E+02  0.51100000000E-03 0.  1.
         11   -1    0    0    0    0 -0.00000000000E+00 -0.00000000000E+00 -0.45593999997E+02  0.45594000000E+02  0.51100000000E-03 0. -1.
    9900012    2    1    2    0    0  0.10591080817E+00  0.98737529464E+00  0.63768366079E+00  0.90007844280E+02  0.90000107025E+02 0.  0.
        -12    1    1    2    0    0 -0.10591080817E+00 -0.98737529464E+00 -0.63768366079E+00  0.11801557198E+01  0.00000000000E+00 0.  1.
         11    1    3    3    0    0 -0.94124702893E+01  0.43772308313E+01 -0.10994927442E+01  0.10438564617E+02  0.51100000000E-03 0. -1.
        -11    1    3    3    0    0  0.21967462856E+02  0.25964129017E+02  0.23167940769E+02  0.41151657314E+02  0.51100000000E-03 0.  1.
         12    1    3    3    0    0 -0.12449081758E+02 -0.29353984554E+02 -0.21430764364E+02  0.38417622350E+02  0.00000000000E+00 0. -1.
</event>
<event>
 7    1  0.2405891E-015  0.9000777E+02  0.7816164E-02  0.1186339E+00
        -11   -1    0    0    0    0  0.00000000000E+00  0.00000000000E+00  0.45593999997E+02  0.45594000000E+02  0.51100000000E-03 0.  1.
         11   -1    0    0    0    0 -0.00000000000E+00 -0.00000000000E+00 -0.45593999997E+02  0.45594000000E+02  0.51100000000E-03 0. -1.
    9900012    2    1    2    0    0 -0.23227219969E+00  0.45795839157E+00  0.10626651617E+01  0.90007773958E+02  0.90000035775E+02 0.  0.
        -12    1    1    2    0    0  0.23227219969E+00 -0.45795839157E+00 -0.10626651617E+01  0.11802260415E+01  0.00000000000E+00 0.  1.
         11    1    3    3    0    0 -0.40836798516E+01  0.15987167868E+02 -0.19237544092E+01  0.16612248760E+02  0.51100000000E-03 0. -1.
        -11    1    3    3    0    0 -0.32403804164E+02  0.81346712203E+00 -0.51015944888E+01  0.32813023629E+02  0.51100000000E-03 0.  1.
        -12    1    3    3    0    0  0.36255211816E+02 -0.16342676599E+02  0.80880140597E+01  0.40582501570E+02  0.00000000000E+00 0.  1.
</event>
<event>
 7    1  0.2405891E-015  0.9000809E+02  0.7816164E-02  0.1186338E+00
        -11   -1    0    0    0    0  0.00000000000E+00  0.00000000000E+00  0.45593999997E+02  0.45594000000E+02  0.51100000000E-03 0. -1.
         11   -1    0    0    0    0 -0.00000000000E+00 -0.00000000000E+00 -0.45593999997E+02  0.45594000000E+02  0.51100000000E-03 0.  1.
    9900012    2    1    2    0    0  0.99995365968E+00 -0.57910065357E+00  0.23858383957E+00  0.90008090200E+02  0.90000356190E+02 0.  0.
        -12    1    1    2    0    0 -0.99995365968E+00  0.57910065357E+00 -0.23858383957E+00  0.11799098004E+01  0.00000000000E+00 0.  1.
         11    1    3    3    0    0 -0.25198406835E+02  0.15863898098E+02  0.25732249052E+02  0.39354435728E+02  0.51100000000E-03 0. -1.
        -11    1    3    3    0    0  0.63540349251E+01 -0.46672708864E+00  0.69332391694E+01  0.94160182479E+01  0.51100000000E-03 0.  1.
        -12    1    3    3    0    0  0.19844325570E+02 -0.15976271663E+02 -0.32426904382E+02  0.41237636224E+02  0.00000000000E+00 0.  1.
</event>
<event>
 7    1  0.2405891E-015  0.9000785E+02  0.7816164E-02  0.1186339E+00
        -11   -1    0    0    0    0  0.00000000000E+00  0.00000000000E+00  0.45593999997E+02  0.45594000000E+02  0.51100000000E-03 0.  1.
         11   -1    0    0    0    0 -0.00000000000E+00 -0.00000000000E+00 -0.45593999997E+02  0.45594000000E+02  0.51100000000E-03 0. -1.
    9900012    2    1    2    0    0  0.32682776350E+00  0.11219251684E+01 -0.16499949793E+00  0.90007848609E+02  0.90000111411E+02 0.  0.
        -12    1    1    2    0    0 -0.32682776350E+00 -0.11219251684E+01  0.16499949793E+00  0.11801513906E+01  0.00000000000E+00 0.  1.
         11    1    3    3    0    0  0.82512862622E+01 -0.29061907893E+02 -0.24716851598E+02  0.39033331507E+02  0.51100000000E-03 0. -1.
        -11    1    3    3    0    0 -0.68997769180E+01 -0.54911779712E+01  0.31739208825E+01  0.93719651653E+01  0.51100000000E-03 0.  1.
        -12    1    3    3    0    0 -0.10246815807E+01  0.35675011032E+02  0.21377931218E+02  0.41602551937E+02  0.00000000000E+00 0.  1.
</event>
<event>
 7    1  0.2405891E-015  0.9000780E+02  0.7816164E-02  0.1186339E+00
        -11   -1    0    0    0    0  0.00000000000E+00  0.00000000000E+00  0.45593999997E+02  0.45594000000E+02  0.51100000000E-03 0.  1.
         11   -1    0    0    0    0 -0.00000000000E+00 -0.00000000000E+00 -0.45593999997E+02  0.45594000000E+02  0.51100000000E-03 0. -1.
    9900012    2    1    2    0    0 -0.27122758803E+00 -0.11420249295E+01 -0.12285768150E+00  0.90007796901E+02  0.90000059020E+02 0.  0.
        -12    1    1    2    0    0  0.27122758803E+00  0.11420249295E+01  0.12285768150E+00  0.11802030986E+01  0.00000000000E+00 0.  1.
         11    1    3    3    0    0  0.14071761763E+02 -0.81418140498E+01 -0.38147134671E+02  0.41466944655E+02  0.51100000000E-03 0. -1.
        -11    1    3    3    0    0  0.60456270530E+01  0.17470320142E+01  0.19524373115E+02  0.20513480278E+02  0.51100000000E-03 0.  1.
        -12    1    3    3    0    0 -0.20388616404E+02  0.52527571060E+01  0.18499903875E+02  0.28027371968E+02  0.00000000000E+00 0.  1.
</event>
<event>
 7    1  0.2405891E-015  0.9000776E+02  0.7816164E-02  0.1186339E+00
        -11   -1    0    0    0    0  0.00000000000E+00  0.00000000000E+00  0.45593999997E+02  0.45594000000E+02  0.51100000000E-03 0.  1.
         11   -1    0    0    0    0 -0.00000000000E+00 -0.00000000000E+00 -0.45593999997E+02  0.45594000000E+02  0.51100000000E-03 0. -1.
    9900012    2    1    2    0    0  0.10109726393E+01 -0.22680544423E-01 -0.60860208930E+00  0.90007755708E+02  0.90000017284E+02 0.  0.
        -12    1    1    2    0    0 -0.10109726393E+01  0.22680544423E-01  0.60860208930E+00  0.11802442915E+01  0.00000000000E+00 0.  1.
         11    1    3    3    0    0 -0.22167390781E+02 -0.13482161520E+02 -0.28047697671E+02  0.38207790282E+02  0.51100000000E-03 0. -1.
        -11    1    3    3    0    0  0.38050348198E+01 -0.45414068762E+01 -0.64863316794E+01  0.87849396875E+01  0.51100000000E-03 0.  1.
        -12    1    3    3    0    0  0.19373328601E+02  0.18000887851E+02  0.33925427261E+02  0.43015025739E+02  0.00000000000E+00 0.  1.
</event>
<event>
 7    1  0.2405891E-015  0.9000800E+02  0.7816164E-02  0.1186339E+00
        -11   -1    0    0    0    0  0.00000000000E+00  0.00000000000E+00  0.45593999997E+02  0.45594000000E+02  0.51100000000E-03 0. -1.
         11   -1    0    0    0    0 -0.00000000000E+00 -0.00000000000E+00 -0.45593999997E+02  0.45594000000E+02  0.51100000000E-03 0.  1.
    9900012    2    1    2    0    0 -0.19140450007E+00 -0.10557569665E+01  0.49105457818E+00  0.90008002943E+02  0.90000267782E+02 0.  0.
        -12    1    1    2    0    0  0.19140450007E+00  0.10557569665E+01 -0.49105457818E+00  0.11799970567E+01  0.00000000000E+00 0.  1.
         11    1    3    3    0    0 -0.43389167338E+01 -0.66015520166E+01  0.71872152393E+01  0.10680016414E+02  0.51100000000E-03 0. -1.
        -11    1    3    3    0    0 -0.13107570809E+02 -0.18958986625E+02 -0.32456611374E+02  0.39808079689E+02  0.51100000000E-03 0.  1.
         12    1    3    3    0    0  0.17255083042E+02  0.24504781675E+02  0.25760450713E+02  0.39519906840E+02  0.00000000000E+00 0. -1.
</event>
<event>
 7    1  0.2600544E-015  0.9000772E+02  0.7816164E-02  0.1186339E+00
        -11   -1    0    0    0    0  0.00000000000E+00  0.00000000000E+00  0.45593999997E+02  0.45594000000E+02  0.51100000000E-03 0. -1.
         11   -1    0    0    0    0 -0.00000000000E+00 -0.00000000000E+00 -0.45593999997E+02  0.45594000000E+02  0.51100000000E-03 0.  1.
    9900012    2    1    2    0    0  0.11435412704E+01 -0.25253785508E+00 -0.14698996548E+00  0.90007716960E+02  0.89999978024E+02 0.  0.
        -12    1    1    2    0    0 -0.11435412704E+01  0.25253785508E+00  0.14698996548E+00  0.11802830403E+01  0.00000000000E+00 0.  1.
         11    1    3    3    0    0  0.81441751294E+01  0.10680288860E+01 -0.52034724642E+01  0.97233944786E+01  0.51100000000E-03 0. -1.
        -11    1    3    3    0    0  0.37486167577E+01  0.27632114066E+02 -0.24807699870E+02  0.37323020088E+02  0.51100000000E-03 0.  1.
         12    1    3    3    0    0 -0.10749250617E+02 -0.28952680807E+02  0.29864182369E+02  0.42961302393E+02  0.00000000000E+00 0. -1.
</event>
<event>
 7    1  0.2811203E-015  0.9000769E+02  0.7816164E-02  0.1186339E+00
        -11   -1    0    0    0    0  0.00000000000E+00  0.00000000000E+00  0.45593999997E+02  0.45594000000E+02  0.51100000000E-03 0. -1.
         11   -1    0    0    0    0 -0.00000000000E+00 -0.00000000000E+00 -0.45593999997E+02  0.45594000000E+02  0.51100000000E-03 0.  1.
    9900012    2    1    2    0    0 -0.20434403845E+00 -0.51888534986E+00  0.10402566050E+01  0.90007689746E+02  0.89999950450E+02 0.  0.
        -12    1    1    2    0    0  0.20434403845E+00  0.51888534986E+00 -0.10402566050E+01  0.11803102543E+01  0.00000000000E+00 0.  1.
         11    1    3    3    0    0 -0.73229340932E+00 -0.14454706235E+01  0.10512290976E+02  0.10636442111E+02  0.51100000000E-03 0. -1.
        -11    1    3    3    0    0 -0.25896360781E+02 -0.12725240712E+02 -0.31230633690E+02  0.42519474759E+02  0.51100000000E-03 0.  1.
         12    1    3    3    0    0  0.26424310152E+02  0.13651825985E+02  0.21758599319E+02  0.36851772876E+02  0.00000000000E+00 0. -1.
</event>
<event>
 7    1  0.2405891E-015  0.9000796E+02  0.7816164E-02  0.1186339E+00
        -11   -1    0    0    0    0  0.00000000000E+00  0.00000000000E+00  0.45593999997E+02  0.45594000000E+02  0.51100000000E-03 0. -1.
         11   -1    0    0    0    0 -0.00000000000E+00 -0.00000000000E+00 -0.45593999997E+02  0.45594000000E+02  0.51100000000E-03 0.  1.
    9900012    2    1    2    0    0 -0.31525462620E+00  0.79838448423E+00  0.80974589490E+00  0.90007961154E+02  0.90000225441E+02 0.  0.
        -12    1    1    2    0    0  0.31525462620E+00 -0.79838448423E+00 -0.80974589490E+00  0.11800388461E+01  0.00000000000E+00 0.  1.
         11    1    3    3    0    0 -0.21338481915E+02 -0.32170488473E+01 -0.16074084558E+01  0.21639407939E+02  0.51100000000E-03 0.  1.
        -11    1    3    3    0    0  0.86571584792E+01  0.42829875295E+00  0.33564053922E+02  0.34665192178E+02  0.51100000000E-03 0. -1.
         12    1    3    3    0    0  0.12366068810E+02  0.35871345785E+01 -0.31146899572E+02  0.33703361037E+02  0.00000000000E+00 0. -1.
</event>
<event>
 7    1  0.2405891E-015  0.9000775E+02  0.7816164E-02  0.1186339E+00
        -11   -1    0    0    0    0  0.00000000000E+00  0.00000000000E+00  0.45593999997E+02  0.45594000000E+02  0.51100000000E-03 0. -1.
         11   -1    0    0    0    0 -0.00000000000E+00 -0.00000000000E+00 -0.45593999997E+02  0.45594000000E+02  0.51100000000E-03 0.  1.
    9900012    2    1    2    0    0 -0.79132843607E+00  0.31107844873E+00  0.81855401044E+00  0.90007745297E+02  0.90000006735E+02 0.  0.
        -12    1    1    2    0    0  0.79132843607E+00 -0.31107844873E+00 -0.81855401044E+00  0.11802547026E+01  0.00000000000E+00 0.  1.
         11    1    3    3    0    0  0.18634146907E+01  0.11198692105E+02 -0.21087058906E+01  0.11546846321E+02  0.51100000000E-03 0. -1.
        -11    1    3    3    0    0  0.19380696152E+02 -0.71607588671E+01 -0.31347365596E+02  0.37543910038E+02  0.51100000000E-03 0.  1.
         12    1    3    3    0    0 -0.22035439279E+02 -0.37268547887E+01  0.34274625497E+02  0.40916988938E+02  0.00000000000E+00 0. -1.
</event>
<event>
 7    1  0.2405891E-015  0.9000781E+02  0.7816164E-02  0.1186339E+00
        -11   -1    0    0    0    0  0.00000000000E+00  0.00000000000E+00  0.45593999997E+02  0.45594000000E+02  0.51100000000E-03 0.  1.
         11   -1    0    0    0    0 -0.00000000000E+00 -0.00000000000E+00 -0.45593999997E+02  0.45594000000E+02  0.51100000000E-03 0. -1.
    9900012    2    1    2    0    0 -0.39304892916E+00  0.24180148242E+00 -0.10862240234E+01  0.90007814402E+02  0.90000076752E+02 0.  0.
        -12    1    1    2    0    0  0.39304892916E+00 -0.24180148242E+00  0.10862240234E+01  0.11801855984E+01  0.00000000000E+00 0.  1.
         11    1    3    3    0    0 -0.42941488380E+01 -0.81391592403E+01  0.77014261801E+00  0.92346492784E+01  0.51100000000E-03 0. -1.
        -11    1    3    3    0    0 -0.38143987677E+02  0.33151153580E+01  0.12692450140E+01  0.38308807980E+02  0.51100000000E-03 0.  1.
         12    1    3    3    0    0  0.42045087586E+02  0.50658453647E+01 -0.31256116554E+01  0.42464357143E+02  0.00000000000E+00 0. -1.
</event>
<event>
 7    1  0.2405891E-015  0.9000749E+02  0.7816164E-02  0.1186340E+00
        -11   -1    0    0    0    0  0.00000000000E+00  0.00000000000E+00  0.45593999997E+02  0.45594000000E+02  0.51100000000E-03 0. -1.
         11   -1    0    0    0    0 -0.00000000000E+00 -0.00000000000E+00 -0.45593999997E+02  0.45594000000E+02  0.51100000000E-03 0.  1.
    9900012    2    1    2    0    0 -0.28572808887E+00 -0.11359744257E+01 -0.14671746351E+00  0.90007489750E+02  0.89999747814E+02 0.  0.
        -12    1    1    2    0    0  0.28572808887E+00  0.11359744257E+01  0.14671746351E+00  0.11805102501E+01  0.00000000000E+00 0.  1.
         11    1    3    3    0    0 -0.36759738569E+02  0.75251223397E+01  0.23614741613E+02  0.44334657635E+02  0.51100000000E-03 0. -1.
        -11    1    3    3    0    0  0.50178893939E+01 -0.29422095482E+01 -0.83606836522E+01  0.10185128491E+02  0.51100000000E-03 0.  1.
        -12    1    3    3    0    0  0.31456121086E+02 -0.57188872172E+01 -0.15400775425E+02  0.35487703624E+02  0.00000000000E+00 0.  1.
</event>
<event>
 7    1  0.2405891E-015  0.9000786E+02  0.7816164E-02  0.1186339E+00
        -11   -1    0    0    0    0  0.00000000000E+00  0.00000000000E+00  0.45593999997E+02  0.45594000000E+02  0.51100000000E-03 0.  1.
         11   -1    0    0    0    0 -0.00000000000E+00 -0.00000000000E+00 -0.45593999997E+02  0.45594000000E+02  0.51100000000E-03 0. -1.
    9900012    2    1    2    0    0 -0.33430086193E+00  0.58274103667E+00 -0.97024782329E+00  0.90007862287E+02  0.90000125270E+02 0.  0.
        -12    1    1    2    0    0  0.33430086193E+00 -0.58274103667E+00  0.97024782329E+00  0.11801377126E+01  0.00000000000E+00 0.  1.
         11    1    3    3    0    0 -0.31163495317E+02  0.24426539173E+02 -0.14931978734E+02  0.42317646975E+02  0.51100000000E-03 0. -1.
        -11    1    3    3    0    0  0.13843341099E+02  0.26795870087E+01  0.40167302756E+01  0.14661255120E+02  0.51100000000E-03 0.  1.
        -12    1    3    3    0    0  0.16985853355E+02 -0.26523385145E+02  0.99450006349E+01  0.33028960192E+02  0.00000000000E+00 0.  1.
</event>
<event>
 7    1  0.2405891E-015  0.9000774E+02  0.7816164E-02  0.1186339E+00
        -11   -1    0    0    0    0  0.00000000000E+00  0.00000000000E+00  0.45593999997E+02  0.45594000000E+02  0.51100000000E-03 0. -1.
         11   -1    0    0    0    0 -0.00000000000E+00 -0.00000000000E+00 -0.45593999997E+02  0.45594000000E+02  0.51100000000E-03 0.  1.
    9900012    2    1    2    0    0 -0.11240301582E+01  0.95438384980E-01 -0.34707191613E+00  0.90007741047E+02  0.90000002428E+02 0.  0.
        -12    1    1    2    0    0  0.11240301582E+01 -0.95438384980E-01  0.34707191613E+00  0.11802589533E+01  0.00000000000E+00 0.  1.
         11    1    3    3    0    0  0.78218570235E+01 -0.28245782625E+01 -0.20081374737E-01  0.83162547568E+01  0.51100000000E-03 0. -1.
        -11    1    3    3    0    0 -0.16394572297E+02 -0.18991520033E+01 -0.38823501433E+02  0.42185934183E+02  0.51100000000E-03 0.  1.
         12    1    3    3    0    0  0.74486851156E+01  0.48191686509E+01  0.38496510891E+02  0.39505552107E+02  0.00000000000E+00 0. -1.
</event>
<event>
 7    1  0.2405891E-015  0.9000774E+02  0.7816164E-02  0.1186339E+00
        -11   -1    0    0    0    0  0.00000000000E+00  0.00000000000E+00  0.45593999997E+02  0.45594000000E+02  0.51100000000E-03 0. -1.
         11   -1    0    0    0    0 -0.00000000000E+00 -0.00000000000E+00 -0.45593999997E+02  0.45594000000E+02  0.51100000000E-03 0.  1.
    9900012    2    1    2    0    0  0.24131912033E-01  0.65244719959E+00  0.98323094846E+00  0.90007740369E+02  0.90000001742E+02 0.  0.
        -12    1    1    2    0    0 -0.24131912033E-01 -0.65244719959E+00 -0.98323094846E+00  0.11802596305E+01  0.00000000000E+00 0.  1.
         11    1    3    3    0    0 -0.98891864379E+01  0.73469578043E+01  0.39307993406E+02  0.41193350716E+02  0.51100000000E-03 0. -1.
        -11    1    3    3    0    0 -0.56453951561E+01  0.61637635143E+01 -0.46798016026E+01  0.95793011452E+01  0.51100000000E-03 0.  1.
        -12    1    3    3    0    0  0.15558713506E+02 -0.12858274119E+02 -0.33644960855E+02  0.39235088508E+02  0.00000000000E+00 0.  1.
</event>
<event>
 7    1  0.2408351E-015  0.9000761E+02  0.7816164E-02  0.1186339E+00
        -11   -1    0    0    0    0  0.00000000000E+00  0.00000000000E+00  0.45593999997E+02  0.45594000000E+02  0.51100000000E-03 0.  1.
         11   -1    0    0    0    0 -0.00000000000E+00 -0.00000000000E+00 -0.45593999997E+02  0.45594000000E+02  0.51100000000E-03 0. -1.
    9900012    2    1    2    0    0 -0.35303269414E+00 -0.83957826191E+00 -0.75085642907E+00  0.90007614843E+02  0.89999874559E+02 0.  0.
        -12    1    1    2    0    0  0.35303269414E+00  0.83957826191E+00  0.75085642907E+00  0.11803851567E+01  0.00000000000E+00 0.  1.
         11    1    3    3    0    0 -0.11366291259E+01 -0.20859354276E+01  0.89392643565E+01  0.92495134940E+01  0.51100000000E-03 0. -1.
        -11    1    3    3    0    0 -0.23584241439E+02  0.18055074065E+02  0.22323320976E+02  0.37155521842E+02  0.51100000000E-03 0.  1.
         12    1    3    3    0    0  0.24367837871E+02 -0.16808716899E+02 -0.32013441761E+02  0.43602579507E+02  0.00000000000E+00 0. -1.
</event>
<event>
 7    1  0.2405891E-015  0.9000771E+02  0.7816164E-02  0.1186339E+00
        -11   -1    0    0    0    0  0.00000000000E+00  0.00000000000E+00  0.45593999997E+02  0.45594000000E+02  0.51100000000E-03 0.  1.
         11   -1    0    0    0    0 -0.00000000000E+00 -0.00000000000E+00 -0.45593999997E+02  0.45594000000E+02  0.51100000000E-03 0. -1.
    9900012    2    1    2    0    0 -0.24459128552E+00  0.90644987071E+00  0.71526266724E+00  0.90007713192E+02  0.89999974207E+02 0.  0.
        -12    1    1    2    0    0  0.24459128552E+00 -0.90644987071E+00 -0.71526266724E+00  0.11802868076E+01  0.00000000000E+00 0.  1.
         11    1    3    3    0    0 -0.14612250247E+01 -0.20246018930E+01 -0.79212388637E+01  0.83054329686E+01  0.51100000000E-03 0. -1.
        -11    1    3    3    0    0 -0.39596549597E+02 -0.25984567346E+01  0.30975684827E+00  0.39682926643E+02  0.51100000000E-03 0.  1.
         12    1    3    3    0    0  0.40813183337E+02  0.55295084983E+01  0.83267446827E+01  0.42019353580E+02  0.00000000000E+00 0. -1.
</event>
<event>
 7    1  0.2405891E-015  0.9000771E+02  0.7816164E-02  0.1186339E+00
        -11   -1    0    0    0    0  0.00000000000E+00  0.00000000000E+00  0.45593999997E+02  0.45594000000E+02  0.51100000000E-03 0.  1.
         11   -1    0    0    0    0 -0.00000000000E+00 -0.00000000000E+00 -0.45593999997E+02  0.45594000000E+02  0.51100000000E-03 0. -1.
    9900012    2    1    2    0    0 -0.90194665984E+00  0.73406397331E+00  0.20181274559E+00  0.90007709325E+02  0.89999970288E+02 0.  0.
        -12    1    1    2    0    0  0.90194665984E+00 -0.73406397331E+00 -0.20181274559E+00  0.11802906754E+01  0.00000000000E+00 0.  1.
         11    1    3    3    0    0 -0.26851039825E+02 -0.21774443771E+02 -0.66866933745E+01  0.35211029661E+02  0.51100000000E-03 0. -1.
        -11    1    3    3    0    0 -0.67731353785E+01 -0.70783911405E+01 -0.14408718076E+01  0.99022773048E+01  0.51100000000E-03 0.  1.
        -12    1    3    3    0    0  0.32722228544E+02  0.29586898885E+02  0.83293779278E+01  0.44894402359E+02  0.00000000000E+00 0.  1.
</event>
<event>
 7    1  0.2405891E-015  0.9000773E+02  0.7816164E-02  0.1186339E+00
        -11   -1    0    0    0    0  0.00000000000E+00  0.00000000000E+00  0.45593999997E+02  0.45594000000E+02  0.51100000000E-03 0.  1.
         11   -1    0    0    0    0 -0.00000000000E+00 -0.00000000000E+00 -0.45593999997E+02  0.45594000000E+02  0.51100000000E-03 0. -1.
    9900012    2    1    2    0    0  0.37388495168E+00 -0.23195662316E+00 -0.10951868979E+01  0.90007733855E+02  0.89999995142E+02 0.  0.
        -12    1    1    2    0    0 -0.37388495168E+00  0.23195662316E+00  0.10951868979E+01  0.11802661451E+01  0.00000000000E+00 0.  1.
         11    1    3    3    0    0 -0.11595308076E+02 -0.29366027548E+02 -0.23901216471E+02  0.39599026407E+02  0.51100000000E-03 0. -1.
        -11    1    3    3    0    0 -0.62915116716E+01 -0.35810302394E+01  0.18172801282E+01  0.74638732582E+01  0.51100000000E-03 0.  1.
        -12    1    3    3    0    0  0.18260704699E+02  0.32715101164E+02  0.20988749445E+02  0.42944834190E+02  0.00000000000E+00 0.  1.
</event>
<event>
 7    1  0.2405891E-015  0.9000769E+02  0.7816164E-02  0.1186339E+00
        -11   -1    0    0    0    0  0.00000000000E+00  0.00000000000E+00  0.45593999997E+02  0.45594000000E+02  0.51100000000E-03 0.  1.
         11   -1    0    0    0    0 -0.00000000000E+00 -0.00000000000E+00 -0.45593999997E+02  0.45594000000E+02  0.51100000000E-03 0. -1.
    9900012    2    1    2    0    0 -0.39419126150E+00 -0.57132089021E+00 -0.95463988533E+00  0.90007690032E+02  0.89999950740E+02 0.  0.
        -12    1    1    2    0    0  0.39419126150E+00  0.57132089021E+00  0.95463988533E+00  0.11803099681E+01  0.00000000000E+00 0.  1.
         11    1    3    3    0    0 -0.95478216203E+01 -0.75943064067E+01  0.24231661372E+01  0.12438091569E+02  0.51100000000E-03 0. -1.
        -11    1    3    3    0    0 -0.36010794366E+01 -0.34138724609E+02  0.20062470014E+00  0.34328713078E+02  0.51100000000E-03 0.  1.
         12    1    3    3    0    0  0.12754709795E+02  0.41161710126E+02 -0.35784307227E+01  0.43240885385E+02  0.00000000000E+00 0. -1.
</event>
<event>
 7    1  0.2405891E-015  0.9000774E+02  0.7816164E-02  0.1186339E+00
        -11   -1    0    0    0    0  0.00000000000E+00  0.00000000000E+00  0.45593999997E+02  0.45594000000E+02  0.51100000000E-03 0. -1.
         11   -1    0    0    0    0 -0.00000000000E+00 -0.00000000000E+00 -0.45593999997E+02  0.45594000000E+02  0.51100000000E-03 0.  1.
    9900012    2    1    2    0    0 -0.30204320654E+00 -0.62405486054E+00  0.95516359648E+00  0.90007740679E+02  0.90000002056E+02 0.  0.
        -12    1    1    2    0    0  0.30204320654E+00  0.62405486054E+00 -0.95516359648E+00  0.11802593205E+01  0.00000000000E+00 0.  1.
         11    1    3    3    0    0 -0.10554005819E+02 -0.11671036211E+02  0.40418176745E+02  0.43373138424E+02  0.51100000000E-03 0. -1.
        -11    1    3    3    0    0  0.60815121347E+01 -0.29311081189E+01 -0.30490627849E+01  0.74076290927E+01  0.51100000000E-03 0.  1.
        -12    1    3    3    0    0  0.41704504775E+01  0.13978089470E+02 -0.36413950364E+02  0.39226973163E+02  0.00000000000E+00 0.  1.
</event>
<event>
 7    1  0.2405891E-015  0.9000772E+02  0.7816164E-02  0.1186339E+00
        -11   -1    0    0    0    0  0.00000000000E+00  0.00000000000E+00  0.45593999997E+02  0.45594000000E+02  0.51100000000E-03 0. -1.
         11   -1    0    0    0    0 -0.00000000000E+00 -0.00000000000E+00 -0.45593999997E+02  0.45594000000E+02  0.51100000000E-03 0.  1.
    9900012    2    1    2    0    0 -0.52803355623E+00  0.10306302969E+01  0.22813176380E+00  0.90007719378E+02  0.89999980474E+02 0.  0.
        -12    1    1    2    0    0  0.52803355623E+00 -0.10306302969E+01 -0.22813176380E+00  0.11802806221E+01  0.00000000000E+00 0.  1.
         11    1    3    3    0    0  0.79648890687E+01  0.21669320280E+01  0.77248221928E+01  0.11305216958E+02  0.51100000000E-03 0. -1.
        -11    1    3    3    0    0 -0.73684073125E+00 -0.26929673576E+02 -0.32319045179E+02  0.42074587754E+02  0.51100000000E-03 0.  1.
         12    1    3    3    0    0 -0.77560818937E+01  0.25793371844E+02  0.24822354750E+02  0.36627914666E+02  0.00000000000E+00 0. -1.
</event>
<event>
 7    1  0.2405891E-015  0.9000642E+02  0.7816164E-02  0.1186342E+00
        -11   -1    0    0    0    0  0.00000000000E+00  0.00000000000E+00  0.45593999997E+02  0.45594000000E+02  0.51100000000E-03 0.  1.
         11   -1    0    0    0    0 -0.00000000000E+00 -0.00000000000E+00 -0.45593999997E+02  0.45594000000E+02  0.51100000000E-03 0. -1.
    9900012    2    1    2    0    0  0.32733928680E+00  0.11347375689E+01  0.36690080239E-01  0.90006422021E+02  0.89998665982E+02 0.  0.
        -12    1    1    2    0    0 -0.32733928680E+00 -0.11347375689E+01 -0.36690080239E-01  0.11815779792E+01  0.00000000000E+00 0.  1.
         11    1    3    3    0    0 -0.14378267859E+02 -0.28539571296E+02  0.18819218412E+02  0.37086448984E+02  0.51100000000E-03 0. -1.
        -11    1    3    3    0    0 -0.54945054485E+01 -0.63424136389E+00  0.65354255484E+01  0.85617544692E+01  0.51100000000E-03 0.  1.
        -12    1    3    3    0    0  0.20200112594E+02  0.30308550229E+02 -0.25317953880E+02  0.44358218567E+02  0.00000000000E+00 0.  1.
</event>
<event>
 7    1  0.2405891E-015  0.9000651E+02  0.7816164E-02  0.1186342E+00
        -11   -1    0    0    0    0  0.00000000000E+00  0.00000000000E+00  0.45593999997E+02  0.45594000000E+02  0.51100000000E-03 0. -1.
         11   -1    0    0    0    0 -0.00000000000E+00 -0.00000000000E+00 -0.45593999997E+02  0.45594000000E+02  0.51100000000E-03 0.  1.
    9900012    2    1    2    0    0 -0.67362160645E+00 -0.56527773011E+00  0.78906549151E+00  0.90006505467E+02  0.89998750531E+02 0.  0.
        -12    1    1    2    0    0  0.67362160645E+00  0.56527773011E+00 -0.78906549151E+00  0.11814945327E+01  0.00000000000E+00 0.  1.
         11    1    3    3    0    0  0.67336788824E+01 -0.27775380614E+01  0.78146183347E+00  0.73258331834E+01  0.51100000000E-03 0. -1.
        -11    1    3    3    0    0  0.18724822719E+02 -0.30564652265E+02 -0.14002496103E+02  0.38482292698E+02  0.51100000000E-03 0.  1.
         12    1    3    3    0    0 -0.26132123208E+02  0.32776912596E+02  0.14010099761E+02  0.44198379586E+02  0.00000000000E+00 0. -1.
</event>
<event>
 7    1  0.2405891E-015  0.9000777E+02  0.7816164E-02  0.1186339E+00
        -11   -1    0    0    0    0  0.00000000000E+00  0.00000000000E+00  0.45593999997E+02  0.45594000000E+02  0.51100000000E-03 0. -1.
         11   -1    0    0    0    0 -0.00000000000E+00 -0.00000000000E+00 -0.45593999997E+02  0.45594000000E+02  0.51100000000E-03 0.  1.
    9900012    2    1    2    0    0 -0.10712847768E+01 -0.49517222645E+00 -0.93124005539E-02  0.90007774035E+02  0.90000035853E+02 0.  0.
        -12    1    1    2    0    0  0.10712847768E+01  0.49517222645E+00  0.93124005539E-02  0.11802259647E+01  0.00000000000E+00 0.  1.
         11    1    3    3    0    0 -0.33807429001E+01 -0.11995601333E+01 -0.94526718514E+01  0.10110458568E+02  0.51100000000E-03 0. -1.
        -11    1    3    3    0    0  0.22283982544E+01  0.20803528813E+02 -0.29445255518E+02  0.36121678292E+02  0.51100000000E-03 0.  1.
         12    1    3    3    0    0  0.81059868878E-01 -0.20099140906E+02  0.38888614969E+02  0.43775637175E+02  0.00000000000E+00 0. -1.
</event>
<event>
 7    1  0.2405891E-015  0.9000783E+02  0.7816164E-02  0.1186339E+00
        -11   -1    0    0    0    0  0.00000000000E+00  0.00000000000E+00  0.45593999997E+02  0.45594000000E+02  0.51100000000E-03 0.  1.
         11   -1    0    0    0    0 -0.00000000000E+00 -0.00000000000E+00 -0.45593999997E+02  0.45594000000E+02  0.51100000000E-03 0. -1.
    9900012    2    1    2    0    0  0.57455040715E+00 -0.72673066257E+00 -0.73113618568E+00  0.90007828085E+02  0.90000090616E+02 0.  0.
        -12    1    1    2    0    0 -0.57455040715E+00  0.72673066257E+00  0.73113618568E+00  0.11801719147E+01  0.00000000000E+00 0.  1.
         11    1    3    3    0    0  0.33976111069E+02 -0.25255826960E+02  0.19255116604E+01  0.42378538368E+02  0.51100000000E-03 0. -1.
        -11    1    3    3    0    0  0.10171074386E+01  0.49414255931E+01 -0.60554518395E+01  0.78816680770E+01  0.51100000000E-03 0.  1.
        -12    1    3    3    0    0 -0.34418668101E+02  0.19587670704E+02  0.33988039935E+01  0.39747621640E+02  0.00000000000E+00 0.  1.
</event>
<event>
 7    1  0.2405891E-015  0.9000773E+02  0.7816164E-02  0.1186339E+00
        -11   -1    0    0    0    0  0.00000000000E+00  0.00000000000E+00  0.45593999997E+02  0.45594000000E+02  0.51100000000E-03 0.  1.
         11   -1    0    0    0    0 -0.00000000000E+00 -0.00000000000E+00 -0.45593999997E+02  0.45594000000E+02  0.51100000000E-03 0. -1.
    9900012    2    1    2    0    0  0.63836947421E+00  0.83427050275E+00  0.53805802737E+00  0.90007733378E+02  0.89999994659E+02 0.  0.
        -12    1    1    2    0    0 -0.63836947421E+00 -0.83427050275E+00 -0.53805802737E+00  0.11802666217E+01  0.00000000000E+00 0.  1.
         11    1    3    3    0    0 -0.52316477992E+01  0.13574649761E+01 -0.11706221933E+02  0.12893738095E+02  0.51100000000E-03 0. -1.
        -11    1    3    3    0    0 -0.28713980599E+02 -0.20296393936E+02 -0.86883090211E+00  0.35173728208E+02  0.51100000000E-03 0.  1.
         12    1    3    3    0    0  0.34583997873E+02  0.19773199463E+02  0.13113110862E+02  0.41940267075E+02  0.00000000000E+00 0. -1.
</event>
<event>
 7    1  0.2405891E-015  0.9000771E+02  0.7816164E-02  0.1186339E+00
        -11   -1    0    0    0    0  0.00000000000E+00  0.00000000000E+00  0.45593999997E+02  0.45594000000E+02  0.51100000000E-03 0.  1.
         11   -1    0    0    0    0 -0.00000000000E+00 -0.00000000000E+00 -0.45593999997E+02  0.45594000000E+02  0.51100000000E-03 0. -1.
    9900012    2    1    2    0    0  0.86363228632E+00  0.73841261659E+00 -0.31931543838E+00  0.90007713481E+02  0.89999974499E+02 0.  0.
        -12    1    1    2    0    0 -0.86363228632E+00 -0.73841261659E+00  0.31931543838E+00  0.11802865192E+01  0.00000000000E+00 0.  1.
         11    1    3    3    0    0  0.35266059635E+01 -0.17869953373E+01 -0.61056767247E+01  0.72738978880E+01  0.51100000000E-03 0. -1.
        -11    1    3    3    0    0  0.31946214692E+02  0.56017560367E+01 -0.21192745107E+02  0.38743680120E+02  0.51100000000E-03 0.  1.
         12    1    3    3    0    0 -0.34609188369E+02 -0.30763480828E+01  0.26979106394E+02  0.43990135472E+02  0.00000000000E+00 0. -1.
</event>
<event>
 7    1  0.2405891E-015  0.9000776E+02  0.7816164E-02  0.1186339E+00
        -11   -1    0    0    0    0  0.00000000000E+00  0.00000000000E+00  0.45593999997E+02  0.45594000000E+02  0.51100000000E-03 0.  1.
         11   -1    0    0    0    0 -0.00000000000E+00 -0.00000000000E+00 -0.45593999997E+02  0.45594000000E+02  0.51100000000E-03 0. -1.
    9900012    2    1    2    0    0 -0.65166161152E-01 -0.11286978316E+01 -0.33877606590E+00  0.90007756531E+02  0.90000018117E+02 0.  0.
        -12    1    1    2    0    0  0.65166161152E-01  0.11286978316E+01  0.33877606590E+00  0.11802434691E+01  0.00000000000E+00 0.  1.
         11    1    3    3    0    0  0.19173245091E+01  0.27530982172E+01 -0.36291332867E+02  0.36446076944E+02  0.51100000000E-03 0. -1.
        -11    1    3    3    0    0 -0.11684530902E+02 -0.37776946944E+01 -0.36315827251E+01  0.12805765614E+02  0.51100000000E-03 0.  1.
        -12    1    3    3    0    0  0.97020402320E+01 -0.10410135440E+00  0.39584139526E+02  0.40755913973E+02  0.00000000000E+00 0.  1.
</event>
<event>
 7    1  0.2405891E-015  0.9000779E+02  0.7816164E-02  0.1186339E+00
        -11   -1    0    0    0    0  0.00000000000E+00  0.00000000000E+00  0.45593999997E+02  0.45594000000E+02  0.51100000000E-03 0.  1.
         11   -1    0    0    0    0 -0.00000000000E+00 -0.00000000000E+00 -0.45593999997E+02  0.45594000000E+02  0.51100000000E-03 0. -1.
    9900012    2    1    2    0    0 -0.29310708388E+00 -0.10254911016E+01 -0.50532165030E+00  0.90007790810E+02  0.90000052849E+02 0.  0.
        -12    1    1    2    0    0  0.29310708388E+00  0.10254911016E+01  0.50532165030E+00  0.11802091901E+01  0.00000000000E+00 0.  1.
         11    1    3    3    0    0  0.18525985543E+02  0.27061235000E+02  0.19050531028E+02  0.37926841587E+02  0.51100000000E-03 0. -1.
        -11    1    3    3    0    0 -0.99552713455E+01  0.47452872305E+01 -0.13676389400E+02  0.17568972814E+02  0.51100000000E-03 0.  1.
        -12    1    3    3    0    0 -0.88638212816E+01 -0.32832013332E+02 -0.58794632784E+01  0.34511976408E+02  0.00000000000E+00 0.  1.
</event>
<event>
 7    1  0.2879062E-015  0.9000771E+02  0.7816164E-02  0.1186339E+00
        -11   -1    0    0    0    0  0.00000000000E+00  0.00000000000E+00  0.45593999997E+02  0.45594000000E+02  0.51100000000E-03 0.  1.
         11   -1    0    0    0    0 -0.00000000000E+00 -0.00000000000E+00 -0.45593999997E+02  0.45594000000E+02  0.51100000000E-03 0. -1.
    9900012    2    1    2    0    0 -0.65252974151E+00  0.81484283281E+00 -0.55074069227E+00  0.90007712232E+02  0.89999973233E+02 0.  0.
        -12    1    1    2    0    0  0.65252974151E+00 -0.81484283281E+00  0.55074069227E+00  0.11802877682E+01  0.00000000000E+00 0.  1.
         11    1    3    3    0    0 -0.13995458182E+01  0.77687433182E+01  0.63100434426E+01  0.10105876991E+02  0.51100000000E-03 0. -1.
        -11    1    3    3    0    0  0.13946740785E+02  0.21432108921E+02  0.24626491059E+02  0.35500858208E+02  0.51100000000E-03 0.  1.
         12    1    3    3    0    0 -0.13199724708E+02 -0.28386009406E+02 -0.31487275194E+02  0.44400977034E+02  0.00000000000E+00 0. -1.
</event>
<event>
 7    1  0.2405891E-015  0.9000777E+02  0.7816164E-02  0.1186339E+00
        -11   -1    0    0    0    0  0.00000000000E+00  0.00000000000E+00  0.45593999997E+02  0.45594000000E+02  0.51100000000E-03 0.  1.
         11   -1    0    0    0    0 -0.00000000000E+00 -0.00000000000E+00 -0.45593999997E+02  0.45594000000E+02  0.51100000000E-03 0. -1.
    9900012    2    1    2    0    0  0.75330479417E+00 -0.33610659899E+00  0.84410415810E+00  0.90007767994E+02  0.90000029731E+02 0.  0.
        -12    1    1    2    0    0 -0.75330479417E+00  0.33610659899E+00 -0.84410415810E+00  0.11802320062E+01  0.00000000000E+00 0.  1.
         11    1    3    3    0    0  0.93427727375E+00  0.77962162742E+01 -0.19854593056E+02  0.21350848412E+02  0.51100000000E-03 0. -1.
        -11    1    3    3    0    0  0.38074359844E+01  0.24490032123E+02  0.25363600075E+02  0.35462239793E+02  0.51100000000E-03 0.  1.
        -12    1    3    3    0    0 -0.39884084640E+01 -0.32622354996E+02 -0.46649028607E+01  0.33194679789E+02  0.00000000000E+00 0.  1.
</event>
<event>
 7    1  0.2405891E-015  0.9000757E+02  0.7816164E-02  0.1186339E+00
        -11   -1    0    0    0    0  0.00000000000E+00  0.00000000000E+00  0.45593999997E+02  0.45594000000E+02  0.51100000000E-03 0. -1.
         11   -1    0    0    0    0 -0.00000000000E+00 -0.00000000000E+00 -0.45593999997E+02  0.45594000000E+02  0.51100000000E-03 0.  1.
    9900012    2    1    2    0    0  0.29772723820E+00  0.31248353040E+00  0.10986960388E+01  0.90007567685E+02  0.89999826778E+02 0.  0.
        -12    1    1    2    0    0 -0.29772723820E+00 -0.31248353040E+00 -0.10986960388E+01  0.11804323152E+01  0.00000000000E+00 0.  1.
         11    1    3    3    0    0 -0.49037295982E+01 -0.29905742436E+02  0.25672744277E+02  0.39717625729E+02  0.51100000000E-03 0. -1.
        -11    1    3    3    0    0  0.98456959224E+01 -0.15645475436E+01 -0.20445328133E+00  0.99713258205E+01  0.51100000000E-03 0.  1.
        -12    1    3    3    0    0 -0.46442390860E+01  0.31782773509E+02 -0.24369594957E+02  0.40318616135E+02  0.00000000000E+00 0.  1.
</event>
<event>
 7    1  0.2405891E-015  0.9000773E+02  0.7816164E-02  0.1186339E+00
        -11   -1    0    0    0    0  0.00000000000E+00  0.00000000000E+00  0.45593999997E+02  0.45594000000E+02  0.51100000000E-03 0.  1.
         11   -1    0    0    0    0 -0.00000000000E+00 -0.00000000000E+00 -0.45593999997E+02  0.45594000000E+02  0.51100000000E-03 0. -1.
    9900012    2    1    2    0    0  0.80957763596E+00 -0.85806344923E+00  0.36581146224E-01  0.90007734347E+02  0.89999995640E+02 0.  0.
        -12    1    1    2    0    0 -0.80957763596E+00  0.85806344923E+00 -0.36581146224E-01  0.11802656531E+01  0.00000000000E+00 0.  1.
         11    1    3    3    0    0  0.89634114182E+01  0.30499777670E+01  0.15497915405E+01  0.95941108348E+01  0.51100000000E-03 0. -1.
        -11    1    3    3    0    0 -0.21383653979E+02  0.32671266852E+02  0.91001175565E+01  0.40093446784E+02  0.51100000000E-03 0.  1.
         12    1    3    3    0    0  0.13229820197E+02 -0.36579308068E+02 -0.10613327951E+02  0.40320176728E+02  0.00000000000E+00 0. -1.
</event>
<event>
 7    1  0.2405891E-015  0.9000780E+02  0.7816164E-02  0.1186339E+00
        -11   -1    0    0    0    0  0.00000000000E+00  0.00000000000E+00  0.45593999997E+02  0.45594000000E+02  0.51100000000E-03 0. -1.
         11   -1    0    0    0    0 -0.00000000000E+00 -0.00000000000E+00 -0.45593999997E+02  0.45594000000E+02  0.51100000000E-03 0.  1.
    9900012    2    1    2    0    0  0.83983739023E+00  0.45225450958E+00 -0.69498230583E+00  0.90007804512E+02  0.90000066732E+02 0.  0.
        -12    1    1    2    0    0 -0.83983739023E+00 -0.45225450958E+00  0.69498230583E+00  0.11801954876E+01  0.00000000000E+00 0.  1.
         11    1    3    3    0    0  0.11364516239E+02  0.70222092083E+01  0.33149887134E+02  0.35740434647E+02  0.51100000000E-03 0. -1.
        -11    1    3    3    0    0 -0.72096158768E+01 -0.13351067399E+01  0.86406782540E+01  0.11332360392E+02  0.51100000000E-03 0.  1.
        -12    1    3    3    0    0 -0.33150629718E+01 -0.52348479588E+01 -0.42485547694E+02  0.42935009474E+02  0.00000000000E+00 0.  1.
</event>
<event>
 7    1  0.2405891E-015  0.9000772E+02  0.7816164E-02  0.1186339E+00
        -11   -1    0    0    0    0  0.00000000000E+00  0.00000000000E+00  0.45593999997E+02  0.45594000000E+02  0.51100000000E-03 0. -1.
         11   -1    0    0    0    0 -0.00000000000E+00 -0.00000000000E+00 -0.45593999997E+02  0.45594000000E+02  0.51100000000E-03 0.  1.
    9900012    2    1    2    0    0 -0.10053043304E+01  0.13486548650E+00  0.60352533414E+00  0.90007716845E+02  0.89999977908E+02 0.  0.
        -12    1    1    2    0    0  0.10053043304E+01 -0.13486548650E+00 -0.60352533414E+00  0.11802831546E+01  0.00000000000E+00 0.  1.
         11    1    3    3    0    0  0.11132856546E+02  0.33804964919E+02  0.88017271059E+01  0.36663149733E+02  0.51100000000E-03 0. -1.
        -11    1    3    3    0    0  0.51569105988E+01  0.68069145540E+01 -0.28546749262E+01  0.90042757546E+01  0.51100000000E-03 0.  1.
        -12    1    3    3    0    0 -0.17295071475E+02 -0.40477013986E+02 -0.53435268456E+01  0.44340291358E+02  0.00000000000E+00 0.  1.
</event>
<event>
 7    1  0.2405891E-015  0.9000779E+02  0.7816164E-02  0.1186339E+00
        -11   -1    0    0    0    0  0.00000000000E+00  0.00000000000E+00  0.45593999997E+02  0.45594000000E+02  0.51100000000E-03 0.  1.
         11   -1    0    0    0    0 -0.00000000000E+00 -0.00000000000E+00 -0.45593999997E+02  0.45594000000E+02  0.51100000000E-03 0. -1.
    9900012    2    1    2    0    0 -0.38964415040E+00  0.66172123768E+00 -0.89621183209E+00  0.90007791032E+02  0.90000053074E+02 0.  0.
        -12    1    1    2    0    0  0.38964415040E+00 -0.66172123768E+00  0.89621183209E+00  0.11802089681E+01  0.00000000000E+00 0.  1.
         11    1    3    3    0    0  0.10055668084E+02  0.56078011033E+01  0.71153061500E+00  0.11535604445E+02  0.51100000000E-03 0. -1.
        -11    1    3    3    0    0 -0.45229912358E+01 -0.31590658715E+02  0.24859079149E+02  0.40452453376E+02  0.51100000000E-03 0.  1.
         12    1    3    3    0    0 -0.59223209986E+01  0.26644578849E+02 -0.26466821596E+02  0.38019733211E+02  0.00000000000E+00 0. -1.
</event>
<event>
 7    1  0.2405891E-015  0.9000774E+02  0.7816164E-02  0.1186339E+00
        -11   -1    0    0    0    0  0.00000000000E+00  0.00000000000E+00  0.45593999997E+02  0.45594000000E+02  0.51100000000E-03 0.  1.
         11   -1    0    0    0    0 -0.00000000000E+00 -0.00000000000E+00 -0.45593999997E+02  0.45594000000E+02  0.51100000000E-03 0. -1.
    9900012    2    1    2    0    0  0.18155045149E+00  0.11380722630E+01  0.25465417440E+00  0.90007738253E+02  0.89999999598E+02 0.  0.
        -12    1    1    2    0    0 -0.18155045149E+00 -0.11380722630E+01 -0.25465417440E+00  0.11802617467E+01  0.00000000000E+00 0.  1.
         11    1    3    3    0    0  0.81588423428E+00  0.77333514149E+01 -0.70082342588E+01  0.10468320729E+02  0.51100000000E-03 0. -1.
        -11    1    3    3    0    0 -0.18977193552E+02  0.65359630705E+01  0.37071965897E+02  0.42156652430E+02  0.51100000000E-03 0.  1.
         12    1    3    3    0    0  0.18342859769E+02 -0.13131242222E+02 -0.29809077464E+02  0.37382765094E+02  0.00000000000E+00 0. -1.
</event>
<event>
 7    1  0.2405891E-015  0.9000778E+02  0.7816164E-02  0.1186339E+00
        -11   -1    0    0    0    0  0.00000000000E+00  0.00000000000E+00  0.45593999997E+02  0.45594000000E+02  0.51100000000E-03 0.  1.
         11   -1    0    0    0    0 -0.00000000000E+00 -0.00000000000E+00 -0.45593999997E+02  0.45594000000E+02  0.51100000000E-03 0. -1.
    9900012    2    1    2    0    0  0.40526537956E+00 -0.27159288106E+00 -0.10746721263E+01  0.90007778453E+02  0.90000040329E+02 0.  0.
        -12    1    1    2    0    0 -0.40526537956E+00  0.27159288106E+00  0.10746721263E+01  0.11802215470E+01  0.00000000000E+00 0.  1.
         11    1    3    3    0    0  0.98075224837E+01  0.26709272993E+01 -0.67634429390E+01  0.12209238738E+02  0.51100000000E-03 0. -1.
        -11    1    3    3    0    0  0.15075456843E+02  0.28065382684E+02  0.17781025289E+02  0.36484242693E+02  0.51100000000E-03 0.  1.
         12    1    3    3    0    0 -0.24477713948E+02 -0.31007902865E+02 -0.12092254476E+02  0.41314297023E+02  0.00000000000E+00 0. -1.
</event>
<event>
 7    1  0.2405891E-015  0.9000768E+02  0.7816164E-02  0.1186339E+00
        -11   -1    0    0    0    0  0.00000000000E+00  0.00000000000E+00  0.45593999997E+02  0.45594000000E+02  0.51100000000E-03 0.  1.
         11   -1    0    0    0    0 -0.00000000000E+00 -0.00000000000E+00 -0.45593999997E+02  0.45594000000E+02  0.51100000000E-03 0. -1.
    9900012    2    1    2    0    0  0.10555477925E+00  0.69451053712E-01 -0.11735393286E+01  0.90007678088E+02  0.89999938639E+02 0.  0.
        -12    1    1    2    0    0 -0.10555477925E+00 -0.69451053712E-01  0.11735393286E+01  0.11803219120E+01  0.00000000000E+00 0.  1.
         11    1    3    3    0    0 -0.86287104674E+01 -0.21224244995E+02 -0.28534996849E+02  0.36594661706E+02  0.51100000000E-03 0. -1.
        -11    1    3    3    0    0 -0.57576446068E+01 -0.61874228300E+00 -0.76791767789E+01  0.96178516153E+01  0.51100000000E-03 0.  1.
        -12    1    3    3    0    0  0.14491909854E+02  0.21912438332E+02  0.35040634299E+02  0.43795164767E+02  0.00000000000E+00 0.  1.
</event>
<event>
 7    1  0.2405891E-015  0.9000774E+02  0.7816164E-02  0.1186339E+00
        -11   -1    0    0    0    0  0.00000000000E+00  0.00000000000E+00  0.45593999997E+02  0.45594000000E+02  0.51100000000E-03 0. -1.
         11   -1    0    0    0    0 -0.00000000000E+00 -0.00000000000E+00 -0.45593999997E+02  0.45594000000E+02  0.51100000000E-03 0.  1.
    9900012    2    1    2    0    0 -0.34313955969E-02  0.25860761182E+00  0.11515777666E+01  0.90007736884E+02  0.89999998210E+02 0.  0.
        -12    1    1    2    0    0  0.34313955969E-02 -0.25860761182E+00 -0.11515777666E+01  0.11802631164E+01  0.00000000000E+00 0.  1.
         11    1    3    3    0    0 -0.43260747147E+02  0.17839296782E+01  0.10145565422E+02  0.44470295106E+02  0.51100000000E-03 0. -1.
        -11    1    3    3    0    0  0.86847621860E+01  0.53931022473E+00  0.24870402482E+01  0.90499347624E+01  0.51100000000E-03 0.  1.
        -12    1    3    3    0    0  0.34572553565E+02 -0.20646322911E+01 -0.11481027903E+02  0.36487507016E+02  0.00000000000E+00 0.  1.
</event>
<event>
 7    1  0.2405891E-015  0.9000703E+02  0.7816164E-02  0.1186340E+00
        -11   -1    0    0    0    0  0.00000000000E+00  0.00000000000E+00  0.45593999997E+02  0.45594000000E+02  0.51100000000E-03 0.  1.
         11   -1    0    0    0    0 -0.00000000000E+00 -0.00000000000E+00 -0.45593999997E+02  0.45594000000E+02  0.51100000000E-03 0. -1.
    9900012    2    1    2    0    0 -0.90281316091E+00  0.75940308713E+00  0.54046377463E-01  0.90007031896E+02  0.89999283914E+02 0.  0.
        -12    1    1    2    0    0  0.90281316091E+00 -0.75940308713E+00 -0.54046377463E-01  0.11809681042E+01  0.00000000000E+00 0.  1.
         11    1    3    3    0    0  0.12133113834E+02  0.38876819991E+02 -0.96648067383E+01  0.41857234422E+02  0.51100000000E-03 0. -1.
        -11    1    3    3    0    0  0.66093658421E+01 -0.50037416055E+01  0.40698014996E+01  0.92349570327E+01  0.51100000000E-03 0.  1.
        -12    1    3    3    0    0 -0.19645292837E+02 -0.33113675298E+02  0.56490516162E+01  0.38914840441E+02  0.00000000000E+00 0.  1.
</event>
<event>
 7    1  0.2405891E-015  0.9000772E+02  0.7816164E-02  0.1186339E+00
        -11   -1    0    0    0    0  0.00000000000E+00  0.00000000000E+00  0.45593999997E+02  0.45594000000E+02  0.51100000000E-03 0. -1.
         11   -1    0    0    0    0 -0.00000000000E+00 -0.00000000000E+00 -0.45593999997E+02  0.45594000000E+02  0.51100000000E-03 0.  1.
    9900012    2    1    2    0    0 -0.19979545483E+00 -0.73183571041E+00  0.90419025721E+00  0.90007719630E+02  0.89999980729E+02 0.  0.
        -12    1    1    2    0    0  0.19979545483E+00  0.73183571041E+00 -0.90419025721E+00  0.11802803701E+01  0.00000000000E+00 0.  1.
         11    1    3    3    0    0 -0.12396713941E+02 -0.59575792429E+00 -0.40531035573E+01  0.13056074936E+02  0.51100000000E-03 0. -1.
        -11    1    3    3    0    0  0.38197858884E+02 -0.17805459127E+02  0.13712559436E+02  0.44318676476E+02  0.51100000000E-03 0.  1.
         12    1    3    3    0    0 -0.26000940398E+02  0.17669381341E+02 -0.87552656218E+01  0.32632968218E+02  0.00000000000E+00 0. -1.
</event>
<event>
 7    1  0.2405891E-015  0.9000775E+02  0.7816164E-02  0.1186339E+00
        -11   -1    0    0    0    0  0.00000000000E+00  0.00000000000E+00  0.45593999997E+02  0.45594000000E+02  0.51100000000E-03 0.  1.
         11   -1    0    0    0    0 -0.00000000000E+00 -0.00000000000E+00 -0.45593999997E+02  0.45594000000E+02  0.51100000000E-03 0. -1.
    9900012    2    1    2    0    0  0.61311914730E+00 -0.52957675379E+00 -0.85826406475E+00  0.90007752640E+02  0.90000014174E+02 0.  0.
        -12    1    1    2    0    0 -0.61311914730E+00  0.52957675379E+00  0.85826406475E+00  0.11802473604E+01  0.00000000000E+00 0.  1.
         11    1    3    3    0    0 -0.17786799739E+02 -0.21567077221E+02 -0.29664309808E+02  0.40761260302E+02  0.51100000000E-03 0. -1.
        -11    1    3    3    0    0  0.13291363601E+02  0.34694420173E+01 -0.15286730037E+01  0.13821512786E+02  0.51100000000E-03 0.  1.
        -12    1    3    3    0    0  0.51085552856E+01  0.17568058450E+02  0.30334718747E+02  0.35424979552E+02  0.00000000000E+00 0.  1.
</event>
<event>
 7    1  0.2405891E-015  0.9000774E+02  0.7816164E-02  0.1186339E+00
        -11   -1    0    0    0    0  0.00000000000E+00  0.00000000000E+00  0.45593999997E+02  0.45594000000E+02  0.51100000000E-03 0.  1.
         11   -1    0    0    0    0 -0.00000000000E+00 -0.00000000000E+00 -0.45593999997E+02  0.45594000000E+02  0.51100000000E-03 0. -1.
    9900012    2    1    2    0    0 -0.77024130347E+00 -0.38811644690E+00 -0.80567657953E+00  0.90007736982E+02  0.89999998310E+02 0.  0.
        -12    1    1    2    0    0  0.77024130347E+00  0.38811644690E+00  0.80567657953E+00  0.11802630185E+01  0.00000000000E+00 0.  1.
         11    1    3    3    0    0  0.35734136079E+02  0.58571487941E+01  0.60577976403E+01  0.36714187800E+02  0.51100000000E-03 0. -1.
        -11    1    3    3    0    0  0.58720271523E+01  0.59780253108E+01 -0.34353961302E+01  0.90564582661E+01  0.51100000000E-03 0.  1.
        -12    1    3    3    0    0 -0.42376404535E+02 -0.12223290552E+02 -0.34280780897E+01  0.44237090915E+02  0.00000000000E+00 0.  1.
</event>
<event>
 7    1  0.2405891E-015  0.9000782E+02  0.7816164E-02  0.1186339E+00
        -11   -1    0    0    0    0  0.00000000000E+00  0.00000000000E+00  0.45593999997E+02  0.45594000000E+02  0.51100000000E-03 0. -1.
         11   -1    0    0    0    0 -0.00000000000E+00 -0.00000000000E+00 -0.45593999997E+02  0.45594000000E+02  0.51100000000E-03 0.  1.
    9900012    2    1    2    0    0  0.27827161639E+00  0.85177800155E+00  0.76802599754E+00  0.90007820018E+02  0.90000082442E+02 0.  0.
        -12    1    1    2    0    0 -0.27827161639E+00 -0.85177800155E+00 -0.76802599754E+00  0.11801799817E+01  0.00000000000E+00 0.  1.
         11    1    3    3    0    0  0.23202743856E+02  0.24145806269E+02  0.36458115753E+01  0.33685000002E+02  0.51100000000E-03 0. -1.
        -11    1    3    3    0    0 -0.38888183668E+01  0.13273404100E+02 -0.57907669606E+01  0.14994637273E+02  0.51100000000E-03 0.  1.
        -12    1    3    3    0    0 -0.19035653873E+02 -0.36567432367E+02  0.29129813829E+01  0.41328182743E+02  0.00000000000E+00 0.  1.
</event>
<event>
 7    1  0.2405891E-015  0.9000776E+02  0.7816164E-02  0.1186339E+00
        -11   -1    0    0    0    0  0.00000000000E+00  0.00000000000E+00  0.45593999997E+02  0.45594000000E+02  0.51100000000E-03 0. -1.
         11   -1    0    0    0    0 -0.00000000000E+00 -0.00000000000E+00 -0.45593999997E+02  0.45594000000E+02  0.51100000000E-03 0.  1.
    9900012    2    1    2    0    0 -0.98627081209E+00  0.56917305329E+00 -0.31027330166E+00  0.90007763752E+02  0.90000025434E+02 0.  0.
        -12    1    1    2    0    0  0.98627081209E+00 -0.56917305329E+00  0.31027330166E+00  0.11802362480E+01  0.00000000000E+00 0.  1.
         11    1    3    3    0    0  0.11242210162E+02  0.24170933709E+02 -0.30994735183E+02  0.40881474227E+02  0.51100000000E-03 0. -1.
        -11    1    3    3    0    0 -0.42137214889E+01 -0.79979808180E+01 -0.42846029712E+01  0.10004047623E+02  0.51100000000E-03 0.  1.
        -12    1    3    3    0    0 -0.80147594856E+01 -0.15603779838E+02  0.34969064852E+02  0.39122241902E+02  0.00000000000E+00 0.  1.
</event>
<event>
 7    1  0.2405891E-015  0.9000772E+02  0.7816164E-02  0.1186339E+00
        -11   -1    0    0    0    0  0.00000000000E+00  0.00000000000E+00  0.45593999997E+02  0.45594000000E+02  0.51100000000E-03 0. -1.
         11   -1    0    0    0    0 -0.00000000000E+00 -0.00000000000E+00 -0.45593999997E+02  0.45594000000E+02  0.51100000000E-03 0.  1.
    9900012    2    1    2    0    0  0.92108054917E+00 -0.26811079100E-01  0.73753327889E+00  0.90007718868E+02  0.89999979958E+02 0.  0.
        -12    1    1    2    0    0 -0.92108054917E+00  0.26811079100E-01 -0.73753327889E+00  0.11802811315E+01  0.00000000000E+00 0.  1.
         11    1    3    3    0    0 -0.31514289705E+01  0.88663649126E+01  0.36342619158E+01  0.10087209290E+02  0.51100000000E-03 0. -1.
        -11    1    3    3    0    0 -0.31293078746E+02  0.92241697874E+01  0.15515555063E+02  0.36125815351E+02  0.51100000000E-03 0.  1.
         12    1    3    3    0    0  0.35365588265E+02 -0.18117345779E+02 -0.18412283700E+02  0.43794694227E+02  0.00000000000E+00 0. -1.
</event>
<event>
 7    1  0.2405891E-015  0.9000780E+02  0.7816164E-02  0.1186339E+00
        -11   -1    0    0    0    0  0.00000000000E+00  0.00000000000E+00  0.45593999997E+02  0.45594000000E+02  0.51100000000E-03 0.  1.
         11   -1    0    0    0    0 -0.00000000000E+00 -0.00000000000E+00 -0.45593999997E+02  0.45594000000E+02  0.51100000000E-03 0. -1.
    9900012    2    1    2    0    0 -0.62526769571E+00  0.72824229324E-01 -0.99830577003E+00  0.90007797699E+02  0.90000059829E+02 0.  0.
        -12    1    1    2    0    0  0.62526769571E+00 -0.72824229324E-01  0.99830577003E+00  0.11802023005E+01  0.00000000000E+00 0.  1.
         11    1    3    3    0    0  0.13373780329E+01 -0.25972325951E+02 -0.28942695126E+02  0.38910537091E+02  0.51100000000E-03 0. -1.
        -11    1    3    3    0    0  0.30163042250E+01 -0.42915819689E+01 -0.41245425626E+01  0.66729018114E+01  0.51100000000E-03 0.  1.
        -12    1    3    3    0    0 -0.49789499535E+01  0.30336732149E+02  0.32068931919E+02  0.44424358797E+02  0.00000000000E+00 0.  1.
</event>
<event>
 7    1  0.2405891E-015  0.9000778E+02  0.7816164E-02  0.1186339E+00
        -11   -1    0    0    0    0  0.00000000000E+00  0.00000000000E+00  0.45593999997E+02  0.45594000000E+02  0.51100000000E-03 0.  1.
         11   -1    0    0    0    0 -0.00000000000E+00 -0.00000000000E+00 -0.45593999997E+02  0.45594000000E+02  0.51100000000E-03 0. -1.
    9900012    2    1    2    0    0  0.28138879406E+00 -0.99550200884E+00 -0.56807348682E+00  0.90007783329E+02  0.90000045269E+02 0.  0.
        -12    1    1    2    0    0 -0.28138879406E+00  0.99550200884E+00  0.56807348682E+00  0.11802166706E+01  0.00000000000E+00 0.  1.
         11    1    3    3    0    0  0.42991304129E+01 -0.25113339740E+02  0.89427622708E+01  0.27002506411E+02  0.51100000000E-03 0. -1.
        -11    1    3    3    0    0  0.16793241130E+02  0.17721770339E+02  0.16210869582E+02  0.29306422239E+02  0.51100000000E-03 0.  1.
         12    1    3    3    0    0 -0.20810982749E+02  0.63960673924E+01 -0.25721705340E+02  0.33698854679E+02  0.00000000000E+00 0. -1.
</event>
<event>
 7    1  0.2405891E-015  0.9000779E+02  0.7816164E-02  0.1186339E+00
        -11   -1    0    0    0    0  0.00000000000E+00  0.00000000000E+00  0.45593999997E+02  0.45594000000E+02  0.51100000000E-03 0.  1.
         11   -1    0    0    0    0 -0.00000000000E+00 -0.00000000000E+00 -0.45593999997E+02  0.45594000000E+02  0.51100000000E-03 0. -1.
    9900012    2    1    2    0    0 -0.19433666185E+00  0.79076546819E+00 -0.85429915547E+00  0.90007786540E+02  0.90000048522E+02 0.  0.
        -12    1    1    2    0    0  0.19433666185E+00 -0.79076546819E+00  0.85429915547E+00  0.11802134599E+01  0.00000000000E+00 0.  1.
         11    1    3    3    0    0 -0.14976255079E+02  0.59346386811E+01 -0.34828962622E+02  0.38374011910E+02  0.51100000000E-03 0. -1.
        -11    1    3    3    0    0  0.54379678258E+01 -0.69855392303E+01 -0.58993336212E+01  0.10638204259E+02  0.51100000000E-03 0.  1.
        -12    1    3    3    0    0  0.93439505918E+01  0.18416660173E+01  0.39873997087E+02  0.40995570372E+02  0.00000000000E+00 0.  1.
</event>
<event>
 7    1  0.2405891E-015  0.9000772E+02  0.7816164E-02  0.1186339E+00
        -11   -1    0    0    0    0  0.00000000000E+00  0.00000000000E+00  0.45593999997E+02  0.45594000000E+02  0.51100000000E-03 0. -1.
         11   -1    0    0    0    0 -0.00000000000E+00 -0.00000000000E+00 -0.45593999997E+02  0.45594000000E+02  0.51100000000E-03 0.  1.
    9900012    2    1    2    0    0 -0.50352298821E+00 -0.51835992444E+00  0.93318328491E+00  0.90007718909E+02  0.89999979998E+02 0.  0.
        -12    1    1    2    0    0  0.50352298821E+00  0.51835992444E+00 -0.93318328491E+00  0.11802810912E+01  0.00000000000E+00 0.  1.
         11    1    3    3    0    0  0.38235107532E+02  0.85407086664E+01 -0.92642182610E+01  0.40257830205E+02  0.51100000000E-03 0. -1.
        -11    1    3    3    0    0 -0.18215071804E+00 -0.75410774698E+01 -0.41174106848E+01  0.85938407769E+01  0.51100000000E-03 0.  1.
        -12    1    3    3    0    0 -0.38556479802E+02 -0.15179911211E+01  0.14314812231E+02  0.41156047927E+02  0.00000000000E+00 0.  1.
</event>
<event>
 7    1  0.2405891E-015  0.9000771E+02  0.7816164E-02  0.1186339E+00
        -11   -1    0    0    0    0  0.00000000000E+00  0.00000000000E+00  0.45593999997E+02  0.45594000000E+02  0.51100000000E-03 0.  1.
         11   -1    0    0    0    0 -0.00000000000E+00 -0.00000000000E+00 -0.45593999997E+02  0.45594000000E+02  0.51100000000E-03 0. -1.
    9900012    2    1    2    0    0 -0.27742797252E+00  0.47780069096E+00 -0.10429922646E+01  0.90007706543E+02  0.89999967470E+02 0.  0.
        -12    1    1    2    0    0  0.27742797252E+00 -0.47780069096E+00  0.10429922646E+01  0.11802934568E+01  0.00000000000E+00 0.  1.
         11    1    3    3    0    0  0.88061440151E+01 -0.12291442805E+02 -0.33744788893E+02  0.36977540701E+02  0.51100000000E-03 0. -1.
        -11    1    3    3    0    0  0.76254037721E+01 -0.76513469926E+01 -0.26378385427E+00  0.10805529865E+02  0.51100000000E-03 0.  1.
        -12    1    3    3    0    0 -0.16708975760E+02  0.20420590488E+02  0.32965580482E+02  0.42224635977E+02  0.00000000000E+00 0.  1.
</event>
<event>
 7    1  0.2405891E-015  0.9000788E+02  0.7816164E-02  0.1186339E+00
        -11   -1    0    0    0    0  0.00000000000E+00  0.00000000000E+00  0.45593999997E+02  0.45594000000E+02  0.51100000000E-03 0.  1.
         11   -1    0    0    0    0 -0.00000000000E+00 -0.00000000000E+00 -0.45593999997E+02  0.45594000000E+02  0.51100000000E-03 0. -1.
    9900012    2    1    2    0    0 -0.11251597155E+01  0.51746602363E-01 -0.35217841820E+00  0.90007876390E+02  0.90000139558E+02 0.  0.
        -12    1    1    2    0    0  0.11251597155E+01 -0.51746602363E-01  0.35217841820E+00  0.11801236099E+01  0.00000000000E+00 0.  1.
         11    1    3    3    0    0 -0.96250938093E+01 -0.31685385424E+02 -0.15580226324E+02  0.36597124653E+02  0.51100000000E-03 0. -1.
        -11    1    3    3    0    0  0.19872225826E+01 -0.23074058386E+01 -0.10056044284E+02  0.10507007290E+02  0.51100000000E-03 0.  1.
        -12    1    3    3    0    0  0.65127115112E+01  0.34044537865E+02  0.25284092189E+02  0.42903744447E+02  0.00000000000E+00 0.  1.
</event>
<event>
 7    1  0.2405891E-015  0.9000772E+02  0.7816164E-02  0.1186339E+00
        -11   -1    0    0    0    0  0.00000000000E+00  0.00000000000E+00  0.45593999997E+02  0.45594000000E+02  0.51100000000E-03 0.  1.
         11   -1    0    0    0    0 -0.00000000000E+00 -0.00000000000E+00 -0.45593999997E+02  0.45594000000E+02  0.51100000000E-03 0. -1.
    9900012    2    1    2    0    0 -0.36424031148E+00  0.82784236672E+00 -0.75833175075E+00  0.90007719935E+02  0.89999981038E+02 0.  0.
        -12    1    1    2    0    0  0.36424031148E+00 -0.82784236672E+00  0.75833175075E+00  0.11802800654E+01  0.00000000000E+00 0.  1.
         11    1    3    3    0    0 -0.19742623473E+02 -0.28046198418E+02 -0.20977987903E+02  0.40204930096E+02  0.51100000000E-03 0. -1.
        -11    1    3    3    0    0  0.10809630146E+02 -0.45634861593E+00 -0.32237237986E+01  0.11289320323E+02  0.51100000000E-03 0.  1.
        -12    1    3    3    0    0  0.85687530146E+01  0.29330389401E+02  0.23443379951E+02  0.38513469516E+02  0.00000000000E+00 0.  1.
</event>
<event>
 7    1  0.2405891E-015  0.9000774E+02  0.7816164E-02  0.1186339E+00
        -11   -1    0    0    0    0  0.00000000000E+00  0.00000000000E+00  0.45593999997E+02  0.45594000000E+02  0.51100000000E-03 0. -1.
         11   -1    0    0    0    0 -0.00000000000E+00 -0.00000000000E+00 -0.45593999997E+02  0.45594000000E+02  0.51100000000E-03 0.  1.
    9900012    2    1    2    0    0  0.37491530550E+00  0.11126241051E+01  0.12044916569E+00  0.90007744991E+02  0.90000006425E+02 0.  0.
        -12    1    1    2    0    0 -0.37491530550E+00 -0.11126241051E+01 -0.12044916569E+00  0.11802550093E+01  0.00000000000E+00 0.  1.
         11    1    3    3    0    0  0.22136719738E+02 -0.18191756825E+02  0.25862564286E+02  0.38598531175E+02  0.51100000000E-03 0. -1.
        -11    1    3    3    0    0  0.46161195302E+01  0.71389695250E+01  0.43794074774E+01  0.95630881785E+01  0.51100000000E-03 0.  1.
        -12    1    3    3    0    0 -0.26377923963E+02  0.12165411405E+02 -0.30121522598E+02  0.41846125637E+02  0.00000000000E+00 0.  1.
</event>
<event>
 7    1  0.2405891E-015  0.9000786E+02  0.7816164E-02  0.1186339E+00
        -11   -1    0    0    0    0  0.00000000000E+00  0.00000000000E+00  0.45593999997E+02  0.45594000000E+02  0.51100000000E-03 0.  1.
         11   -1    0    0    0    0 -0.00000000000E+00 -0.00000000000E+00 -0.45593999997E+02  0.45594000000E+02  0.51100000000E-03 0. -1.
    9900012    2    1    2    0    0  0.10684584571E+01 -0.32965977411E+00 -0.37741723192E+00  0.90007863225E+02  0.90000126219E+02 0.  0.
        -12    1    1    2    0    0 -0.10684584571E+01  0.32965977411E+00  0.37741723192E+00  0.11801367752E+01  0.00000000000E+00 0.  1.
         11    1    3    3    0    0 -0.66157757564E+00 -0.76420428089E+01  0.33519755810E+01  0.83710360015E+01  0.51100000000E-03 0. -1.
        -11    1    3    3    0    0 -0.60391457692E+01  0.34435901411E+02  0.23739372549E+02  0.42259441512E+02  0.51100000000E-03 0.  1.
         12    1    3    3    0    0  0.77691818019E+01 -0.27123518376E+02 -0.27468765362E+02  0.39377385712E+02  0.00000000000E+00 0. -1.
</event>
<event>
 7    1  0.2405891E-015  0.9000772E+02  0.7816164E-02  0.1186339E+00
        -11   -1    0    0    0    0  0.00000000000E+00  0.00000000000E+00  0.45593999997E+02  0.45594000000E+02  0.51100000000E-03 0.  1.
         11   -1    0    0    0    0 -0.00000000000E+00 -0.00000000000E+00 -0.45593999997E+02  0.45594000000E+02  0.51100000000E-03 0. -1.
    9900012    2    1    2    0    0  0.18285128750E+00 -0.10847002367E+01  0.42785654061E+00  0.90007715960E+02  0.89999977010E+02 0.  0.
        -12    1    1    2    0    0 -0.18285128750E+00  0.10847002367E+01 -0.42785654061E+00  0.11802840405E+01  0.00000000000E+00 0.  1.
         11    1    3    3    0    0 -0.36991913618E+02  0.94974882663E+01  0.12489519210E+02  0.40181986597E+02  0.51100000000E-03 0. -1.
        -11    1    3    3    0    0  0.26290426047E+01  0.68973489856E+01  0.34120596687E+01  0.81318779806E+01  0.51100000000E-03 0.  1.
        -12    1    3    3    0    0  0.34545722301E+02 -0.17479537489E+02 -0.15473722338E+02  0.41693851382E+02  0.00000000000E+00 0.  1.
</event>
<event>
 7    1  0.2405891E-015  0.9000772E+02  0.7816164E-02  0.1186339E+00
        -11   -1    0    0    0    0  0.00000000000E+00  0.00000000000E+00  0.45593999997E+02  0.45594000000E+02  0.51100000000E-03 0.  1.
         11   -1    0    0    0    0 -0.00000000000E+00 -0.00000000000E+00 -0.45593999997E+02  0.45594000000E+02  0.51100000000E-03 0. -1.
    9900012    2    1    2    0    0  0.47543736850E+00  0.10613139580E+01  0.20157908719E+00  0.90007719467E+02  0.89999980564E+02 0.  0.
        -12    1    1    2    0    0 -0.47543736850E+00 -0.10613139580E+01 -0.20157908719E+00  0.11802805333E+01  0.00000000000E+00 0.  1.
         11    1    3    3    0    0  0.87069968838E+01  0.38732196564E+02  0.37804669599E+01  0.39878399869E+02  0.51100000000E-03 0. -1.
        -11    1    3    3    0    0  0.86868025235E+01 -0.10637617573E+01 -0.43954895853E+01  0.97934904970E+01  0.51100000000E-03 0.  1.
        -12    1    3    3    0    0 -0.16918362039E+02 -0.36607120849E+02  0.81660171267E+00  0.40335829101E+02  0.00000000000E+00 0.  1.
</event>
<event>
 7    1  0.2405891E-015  0.9000778E+02  0.7816164E-02  0.1186339E+00
        -11   -1    0    0    0    0  0.00000000000E+00  0.00000000000E+00  0.45593999997E+02  0.45594000000E+02  0.51100000000E-03 0.  1.
         11   -1    0    0    0    0 -0.00000000000E+00 -0.00000000000E+00 -0.45593999997E+02  0.45594000000E+02  0.51100000000E-03 0. -1.
    9900012    2    1    2    0    0  0.65748793197E+00  0.61628050657E+00  0.76212273528E+00  0.90007778365E+02  0.90000040240E+02 0.  0.
        -12    1    1    2    0    0 -0.65748793197E+00 -0.61628050657E+00 -0.76212273528E+00  0.11802216347E+01  0.00000000000E+00 0.  1.
         11    1    3    3    0    0 -0.11719264874E+02  0.80860452543E+01 -0.25316519367E+01  0.14461485360E+02  0.51100000000E-03 0. -1.
        -11    1    3    3    0    0  0.13021886641E+02  0.31510309187E+02  0.10961999503E+02  0.35813887671E+02  0.51100000000E-03 0.  1.
         12    1    3    3    0    0 -0.64513383527E+00 -0.38980073934E+02 -0.76682248308E+01  0.39732405334E+02  0.00000000000E+00 0. -1.
</event>
<event>
 7    1  0.2405891E-015  0.9000761E+02  0.7816164E-02  0.1186339E+00
        -11   -1    0    0    0    0  0.00000000000E+00  0.00000000000E+00  0.45593999997E+02  0.45594000000E+02  0.51100000000E-03 0.  1.
         11   -1    0    0    0    0 -0.00000000000E+00 -0.00000000000E+00 -0.45593999997E+02  0.45594000000E+02  0.51100000000E-03 0. -1.
    9900012    2    1    2    0    0  0.35842755555E+00 -0.85125365163E+00 -0.73500279440E+00  0.90007605066E+02  0.89999864653E+02 0.  0.
        -12    1    1    2    0    0 -0.35842755555E+00  0.85125365163E+00  0.73500279440E+00  0.11803949338E+01  0.00000000000E+00 0.  1.
         11    1    3    3    0    0 -0.30063180695E+02 -0.13537090211E+02 -0.99694534145E+01  0.34444704187E+02  0.51100000000E-03 0. -1.
        -11    1    3    3    0    0 -0.63485245021E+01  0.54683139634E+00 -0.10362058290E+02  0.12164499176E+02  0.51100000000E-03 0.  1.
        -12    1    3    3    0    0  0.36770132752E+02  0.12139005163E+02  0.19596508910E+02  0.43398401704E+02  0.00000000000E+00 0.  1.
</event>
<event>
 7    1  0.2405891E-015  0.9000777E+02  0.7816164E-02  0.1186339E+00
        -11   -1    0    0    0    0  0.00000000000E+00  0.00000000000E+00  0.45593999997E+02  0.45594000000E+02  0.51100000000E-03 0. -1.
         11   -1    0    0    0    0 -0.00000000000E+00 -0.00000000000E+00 -0.45593999997E+02  0.45594000000E+02  0.51100000000E-03 0.  1.
    9900012    2    1    2    0    0 -0.64329292699E+00  0.77068852982E+00  0.62060034778E+00  0.90007774856E+02  0.90000036684E+02 0.  0.
        -12    1    1    2    0    0  0.64329292699E+00 -0.77068852982E+00 -0.62060034778E+00  0.11802251444E+01  0.00000000000E+00 0.  1.
         11    1    3    3    0    0 -0.18950862064E+02  0.24621872134E+01  0.19050171589E+02  0.26983450052E+02  0.51100000000E-03 0. -1.
        -11    1    3    3    0    0 -0.18385101333E+02 -0.11781550177E+02 -0.33538230290E+01  0.22092193299E+02  0.51100000000E-03 0.  1.
        -12    1    3    3    0    0  0.36692670470E+02  0.10090051494E+02 -0.15075748213E+02  0.40932131505E+02  0.00000000000E+00 0.  1.
</event>
<event>
 7    1  0.2405891E-015  0.9000772E+02  0.7816164E-02  0.1186339E+00
        -11   -1    0    0    0    0  0.00000000000E+00  0.00000000000E+00  0.45593999997E+02  0.45594000000E+02  0.51100000000E-03 0.  1.
         11   -1    0    0    0    0 -0.00000000000E+00 -0.00000000000E+00 -0.45593999997E+02  0.45594000000E+02  0.51100000000E-03 0. -1.
    9900012    2    1    2    0    0 -0.90112435404E+00  0.76195476898E+00  0.21546679863E-01  0.90007718495E+02  0.89999979579E+02 0.  0.
        -12    1    1    2    0    0  0.90112435404E+00 -0.76195476898E+00 -0.21546679863E-01  0.11802815049E+01  0.00000000000E+00 0.  1.
         11    1    3    3    0    0 -0.59410433674E+01  0.19776897347E+00 -0.37605582502E+01  0.70339823339E+01  0.51100000000E-03 0. -1.
        -11    1    3    3    0    0 -0.32469084039E+02 -0.20532306027E+02 -0.58906117377E+01  0.38865361390E+02  0.51100000000E-03 0.  1.
         12    1    3    3    0    0  0.37509003052E+02  0.21096491823E+02  0.96727166677E+01  0.44108374771E+02  0.00000000000E+00 0. -1.
</event>
<event>
 7    1  0.2405891E-015  0.9000772E+02  0.7816164E-02  0.1186339E+00
        -11   -1    0    0    0    0  0.00000000000E+00  0.00000000000E+00  0.45593999997E+02  0.45594000000E+02  0.51100000000E-03 0.  1.
         11   -1    0    0    0    0 -0.00000000000E+00 -0.00000000000E+00 -0.45593999997E+02  0.45594000000E+02  0.51100000000E-03 0. -1.
    9900012    2    1    2    0    0 -0.10971210079E+01 -0.38333018628E+00  0.20601978039E+00  0.90007720081E+02  0.89999981186E+02 0.  0.
        -12    1    1    2    0    0  0.10971210079E+01  0.38333018628E+00 -0.20601978039E+00  0.11802799192E+01  0.00000000000E+00 0.  1.
         11    1    3    3    0    0 -0.65178049846E+01 -0.11533946139E+01  0.56911030240E+01  0.87293043734E+01  0.51100000000E-03 0. -1.
        -11    1    3    3    0    0  0.33421815365E+02  0.42810888431E+01  0.23300940169E+02  0.40966807015E+02  0.51100000000E-03 0.  1.
         12    1    3    3    0    0 -0.28001131389E+02 -0.35110244155E+01 -0.28786023412E+02  0.40311608693E+02  0.00000000000E+00 0. -1.
</event>
<event>
 7    1  0.2405891E-015  0.9000774E+02  0.7816164E-02  0.1186339E+00
        -11   -1    0    0    0    0  0.00000000000E+00  0.00000000000E+00  0.45593999997E+02  0.45594000000E+02  0.51100000000E-03 0.  1.
         11   -1    0    0    0    0 -0.00000000000E+00 -0.00000000000E+00 -0.45593999997E+02  0.45594000000E+02  0.51100000000E-03 0. -1.
    9900012    2    1    2    0    0 -0.99362380919E+00 -0.59262352546E+00  0.23349612329E+00  0.90007740979E+02  0.90000002360E+02 0.  0.
        -12    1    1    2    0    0  0.99362380919E+00  0.59262352546E+00 -0.23349612329E+00  0.11802590210E+01  0.00000000000E+00 0.  1.
         11    1    3    3    0    0  0.15806282474E+02 -0.28067618360E+02 -0.25981282467E+02  0.41384257936E+02  0.51100000000E-03 0. -1.
        -11    1    3    3    0    0  0.61916752999E+01  0.25178648115E+01  0.67705412933E+01  0.95140273225E+01  0.51100000000E-03 0.  1.
        -12    1    3    3    0    0 -0.22991581583E+02  0.24957130023E+02  0.19444237297E+02  0.39109455720E+02  0.00000000000E+00 0.  1.
</event>
<event>
 7    1  0.2405891E-015  0.9000795E+02  0.7816164E-02  0.1186339E+00
        -11   -1    0    0    0    0  0.00000000000E+00  0.00000000000E+00  0.45593999997E+02  0.45594000000E+02  0.51100000000E-03 0. -1.
         11   -1    0    0    0    0 -0.00000000000E+00 -0.00000000000E+00 -0.45593999997E+02  0.45594000000E+02  0.51100000000E-03 0.  1.
    9900012    2    1    2    0    0 -0.77980792910E+00 -0.41841365149E-01  0.88468437888E+00  0.90007950189E+02  0.90000214331E+02 0.  0.
        -12    1    1    2    0    0  0.77980792910E+00  0.41841365149E-01 -0.88468437888E+00  0.11800498110E+01  0.00000000000E+00 0.  1.
         11    1    3    3    0    0  0.23671356564E+02 -0.10747571716E+02  0.22235013237E+02  0.34208759599E+02  0.51100000000E-03 0. -1.
        -11    1    3    3    0    0  0.12781626617E+02  0.56592509864E+01 -0.56112656590E+01  0.15062649277E+02  0.51100000000E-03 0.  1.
        -12    1    3    3    0    0 -0.37232791109E+02  0.50464793647E+01 -0.15739063199E+02  0.40736541313E+02  0.00000000000E+00 0.  1.
</event>
<event>
 7    1  0.2405891E-015  0.9000767E+02  0.7816164E-02  0.1186339E+00
        -11   -1    0    0    0    0  0.00000000000E+00  0.00000000000E+00  0.45593999997E+02  0.45594000000E+02  0.51100000000E-03 0.  1.
         11   -1    0    0    0    0 -0.00000000000E+00 -0.00000000000E+00 -0.45593999997E+02  0.45594000000E+02  0.51100000000E-03 0. -1.
    9900012    2    1    2    0    0 -0.11567868266E+01  0.12506438684E+00  0.19843391008E+00  0.90007672554E+02  0.89999933032E+02 0.  0.
        -12    1    1    2    0    0  0.11567868266E+01 -0.12506438684E+00 -0.19843391008E+00  0.11803274460E+01  0.00000000000E+00 0.  1.
         11    1    3    3    0    0  0.18733932554E+02  0.33008766336E+02  0.22439737448E+01  0.38020708862E+02  0.51100000000E-03 0. -1.
        -11    1    3    3    0    0 -0.48692986679E+01  0.66513422158E+01  0.41736103605E+01  0.92395587823E+01  0.51100000000E-03 0.  1.
        -12    1    3    3    0    0 -0.15021420713E+02 -0.39535044165E+02 -0.62191501952E+01  0.42747404910E+02  0.00000000000E+00 0.  1.
</event>
<event>
 7    1  0.2405891E-015  0.9000756E+02  0.7816164E-02  0.1186339E+00
        -11   -1    0    0    0    0  0.00000000000E+00  0.00000000000E+00  0.45593999997E+02  0.45594000000E+02  0.51100000000E-03 0. -1.
         11   -1    0    0    0    0 -0.00000000000E+00 -0.00000000000E+00 -0.45593999997E+02  0.45594000000E+02  0.51100000000E-03 0.  1.
    9900012    2    1    2    0    0 -0.23135065655E+00  0.64922818162E+00  0.95834351616E+00  0.90007558281E+02  0.89999817250E+02 0.  0.
        -12    1    1    2    0    0  0.23135065655E+00 -0.64922818162E+00 -0.95834351616E+00  0.11804417195E+01  0.00000000000E+00 0.  1.
         11    1    3    3    0    0 -0.30900249131E+01  0.85882331421E+01 -0.64620364720E+01  0.11183198026E+02  0.51100000000E-03 0. -1.
        -11    1    3    3    0    0 -0.22176747348E+02  0.27337717755E+02  0.25621716594E+01  0.35294810651E+02  0.51100000000E-03 0.  1.
         12    1    3    3    0    0  0.25035421605E+02 -0.35276722716E+02  0.48582083287E+01  0.43529549603E+02  0.00000000000E+00 0. -1.
</event>
<event>
 7    1  0.2405891E-015  0.9000775E+02  0.7816164E-02  0.1186339E+00
        -11   -1    0    0    0    0  0.00000000000E+00  0.00000000000E+00  0.45593999997E+02  0.45594000000E+02  0.51100000000E-03 0. -1.
         11   -1    0    0    0    0 -0.00000000000E+00 -0.00000000000E+00 -0.45593999997E+02  0.45594000000E+02  0.51100000000E-03 0.  1.
    9900012    2    1    2    0    0  0.11745769995E+00 -0.54913187487E+00 -0.10381000508E+01  0.90007748399E+02  0.90000009877E+02 0.  0.
        -12    1    1    2    0    0 -0.11745769995E+00  0.54913187487E+00  0.10381000508E+01  0.11802516014E+01  0.00000000000E+00 0.  1.
         11    1    3    3    0    0 -0.15629097468E+02 -0.30462527439E+02  0.14997030877E+02  0.37378405544E+02  0.51100000000E-03 0. -1.
        -11    1    3    3    0    0  0.37208679803E+01 -0.80412583056E+01  0.17363008214E+01  0.90289221099E+01  0.51100000000E-03 0.  1.
        -12    1    3    3    0    0  0.12025687188E+02  0.37954653869E+02 -0.17771431749E+02  0.43600420745E+02  0.00000000000E+00 0.  1.
</event>
<event>
 7    1  0.2405891E-015  0.9000770E+02  0.7816164E-02  0.1186339E+00
        -11   -1    0    0    0    0  0.00000000000E+00  0.00000000000E+00  0.45593999997E+02  0.45594000000E+02  0.51100000000E-03 0. -1.
         11   -1    0    0    0    0 -0.00000000000E+00 -0.00000000000E+00 -0.45593999997E+02  0.45594000000E+02  0.51100000000E-03 0.  1.
    9900012    2    1    2    0    0 -0.24050434585E+00  0.90753145866E+00  0.71530591616E+00  0.90007695699E+02  0.89999956482E+02 0.  0.
        -12    1    1    2    0    0  0.24050434585E+00 -0.90753145866E+00 -0.71530591616E+00  0.11803043008E+01  0.00000000000E+00 0.  1.
         11    1    3    3    0    0  0.49308336665E+01  0.59941134279E+01 -0.55914540371E+01  0.95659225871E+01  0.51100000000E-03 0. -1.
        -11    1    3    3    0    0 -0.29371510264E+01 -0.42180438020E+02 -0.21256852301E+01  0.42335974604E+02  0.51100000000E-03 0.  1.
         12    1    3    3    0    0 -0.22341869860E+01  0.37093856051E+02  0.84324451833E+01  0.38105798508E+02  0.00000000000E+00 0. -1.
</event>
<event>
 7    1  0.2405891E-015  0.9000768E+02  0.7816164E-02  0.1186339E+00
        -11   -1    0    0    0    0  0.00000000000E+00  0.00000000000E+00  0.45593999997E+02  0.45594000000E+02  0.51100000000E-03 0.  1.
         11   -1    0    0    0    0 -0.00000000000E+00 -0.00000000000E+00 -0.45593999997E+02  0.45594000000E+02  0.51100000000E-03 0. -1.
    9900012    2    1    2    0    0 -0.36994380361E+00 -0.11130134955E+01  0.13228677891E+00  0.90007679175E+02  0.89999939740E+02 0.  0.
        -12    1    1    2    0    0  0.36994380361E+00  0.11130134955E+01 -0.13228677891E+00  0.11803208254E+01  0.00000000000E+00 0.  1.
         11    1    3    3    0    0 -0.76406403792E+01  0.52365857790E+01 -0.69185350693E+00  0.92886962250E+01  0.51100000000E-03 0. -1.
        -11    1    3    3    0    0 -0.26938861991E+02  0.87957064035E+01  0.23635105024E+02  0.36901015246E+02  0.51100000000E-03 0.  1.
         12    1    3    3    0    0  0.34209558566E+02 -0.15145305678E+02 -0.22810964738E+02  0.43817967703E+02  0.00000000000E+00 0. -1.
</event>
<event>
 7    1  0.2405891E-015  0.9000773E+02  0.7816164E-02  0.1186339E+00
        -11   -1    0    0    0    0  0.00000000000E+00  0.00000000000E+00  0.45593999997E+02  0.45594000000E+02  0.51100000000E-03 0. -1.
         11   -1    0    0    0    0 -0.00000000000E+00 -0.00000000000E+00 -0.45593999997E+02  0.45594000000E+02  0.51100000000E-03 0.  1.
    9900012    2    1    2    0    0  0.10659320741E+01 -0.50442846670E+00  0.48799492944E-01  0.90007728567E+02  0.89999989784E+02 0.  0.
        -12    1    1    2    0    0 -0.10659320741E+01  0.50442846670E+00 -0.48799492944E-01  0.11802714328E+01  0.00000000000E+00 0.  1.
         11    1    3    3    0    0  0.20159234594E+02  0.14621055531E+02  0.36717380792E+02  0.44365933516E+02  0.51100000000E-03 0. -1.
        -11    1    3    3    0    0 -0.60647953400E+01 -0.60241914774E+01 -0.42704653921E+01  0.95556004730E+01  0.51100000000E-03 0.  1.
        -12    1    3    3    0    0 -0.13028507180E+02 -0.91012925205E+01 -0.32398115907E+02  0.36086194579E+02  0.00000000000E+00 0.  1.
</event>
<event>
 7    1  0.2589307E-015  0.9000784E+02  0.7816164E-02  0.1186339E+00
        -11   -1    0    0    0    0  0.00000000000E+00  0.00000000000E+00  0.45593999997E+02  0.45594000000E+02  0.51100000000E-03 0.  1.
         11   -1    0    0    0    0 -0.00000000000E+00 -0.00000000000E+00 -0.45593999997E+02  0.45594000000E+02  0.51100000000E-03 0. -1.
    9900012    2    1    2    0    0  0.89787500848E+00  0.67773858574E+00  0.35675609421E+00  0.90007837286E+02  0.90000099938E+02 0.  0.
        -12    1    1    2    0    0 -0.89787500848E+00 -0.67773858574E+00 -0.35675609421E+00  0.11801627143E+01  0.00000000000E+00 0.  1.
         11    1    3    3    0    0 -0.72177925847E+01  0.37676778780E+01 -0.54014730083E+01  0.97707644178E+01  0.51100000000E-03 0. -1.
        -11    1    3    3    0    0 -0.24784967882E+02 -0.25198981218E+02 -0.11265307726E+02  0.37097040929E+02  0.51100000000E-03 0.  1.
         12    1    3    3    0    0  0.32900635475E+02  0.22109041925E+02  0.17023536828E+02  0.43140031938E+02  0.00000000000E+00 0. -1.
</event>
<event>
 7    1  0.2405891E-015  0.9000773E+02  0.7816164E-02  0.1186339E+00
        -11   -1    0    0    0    0  0.00000000000E+00  0.00000000000E+00  0.45593999997E+02  0.45594000000E+02  0.51100000000E-03 0. -1.
         11   -1    0    0    0    0 -0.00000000000E+00 -0.00000000000E+00 -0.45593999997E+02  0.45594000000E+02  0.51100000000E-03 0.  1.
    9900012    2    1    2    0    0 -0.41291999091E+00  0.75967003089E+00  0.80338827928E+00  0.90007731301E+02  0.89999992554E+02 0.  0.
        -12    1    1    2    0    0  0.41291999091E+00 -0.75967003089E+00 -0.80338827928E+00  0.11802686991E+01  0.00000000000E+00 0.  1.
         11    1    3    3    0    0  0.35879999580E+02  0.17834738353E+02  0.21995923871E+00  0.40068699059E+02  0.51100000000E-03 0. -1.
        -11    1    3    3    0    0  0.74206559156E+00  0.54813033430E+01 -0.32350617478E+01  0.64078836173E+01  0.51100000000E-03 0.  1.
        -12    1    3    3    0    0 -0.37034985163E+02 -0.22556371665E+02  0.38184907883E+01  0.43531148624E+02  0.00000000000E+00 0.  1.
</event>
<event>
 7    1  0.2405891E-015  0.9000774E+02  0.7816164E-02  0.1186339E+00
        -11   -1    0    0    0    0  0.00000000000E+00  0.00000000000E+00  0.45593999997E+02  0.45594000000E+02  0.51100000000E-03 0. -1.
         11   -1    0    0    0    0 -0.00000000000E+00 -0.00000000000E+00 -0.45593999997E+02  0.45594000000E+02  0.51100000000E-03 0.  1.
    9900012    2    1    2    0    0 -0.29402441316E+00 -0.10621292305E+00  0.11381025609E+01  0.90007741986E+02  0.90000003380E+02 0.  0.
        -12    1    1    2    0    0  0.29402441316E+00  0.10621292305E+00 -0.11381025609E+01  0.11802580140E+01  0.00000000000E+00 0.  1.
         11    1    3    3    0    0 -0.31148647917E+01  0.18316204124E+01 -0.10368293948E+02  0.10979924210E+02  0.51100000000E-03 0. -1.
        -11    1    3    3    0    0  0.96723125161E+01  0.16074285791E+02 -0.28788631290E+02  0.34361629544E+02  0.51100000000E-03 0.  1.
         12    1    3    3    0    0 -0.68514721376E+01 -0.18012119127E+02  0.40295027799E+02  0.44666188232E+02  0.00000000000E+00 0. -1.
</event>
<event>
 7    1  0.2405891E-015  0.9000768E+02  0.7816164E-02  0.1186339E+00
        -11   -1    0    0    0    0  0.00000000000E+00  0.00000000000E+00  0.45593999997E+02  0.45594000000E+02  0.51100000000E-03 0.  1.
         11   -1    0    0    0    0 -0.00000000000E+00 -0.00000000000E+00 -0.45593999997E+02  0.45594000000E+02  0.51100000000E-03 0. -1.
    9900012    2    1    2    0    0  0.65406753762E-02  0.33066276671E+00 -0.11330335193E+01  0.90007684109E+02  0.89999944740E+02 0.  0.
        -12    1    1    2    0    0 -0.65406753762E-02 -0.33066276671E+00  0.11330335193E+01  0.11803158906E+01  0.00000000000E+00 0.  1.
         11    1    3    3    0    0 -0.20156202242E+02  0.24743413892E+02  0.21648375776E+02  0.38563728993E+02  0.51100000000E-03 0. -1.
        -11    1    3    3    0    0 -0.55949675441E+01 -0.41304137061E+01  0.49234843960E+01  0.85208378732E+01  0.51100000000E-03 0.  1.
        -12    1    3    3    0    0  0.25757710462E+02 -0.20282337419E+02 -0.27704893691E+02  0.42923117243E+02  0.00000000000E+00 0.  1.
</event>
<event>
 7    1  0.2405891E-015  0.9000773E+02  0.7816164E-02  0.1186339E+00
        -11   -1    0    0    0    0  0.00000000000E+00  0.00000000000E+00  0.45593999997E+02  0.45594000000E+02  0.51100000000E-03 0. -1.
         11   -1    0    0    0    0 -0.00000000000E+00 -0.00000000000E+00 -0.45593999997E+02  0.45594000000E+02  0.51100000000E-03 0.  1.
    9900012    2    1    2    0    0  0.12455703451E-01 -0.78558556049E+00 -0.88076256666E+00  0.90007727779E+02  0.89999988985E+02 0.  0.
        -12    1    1    2    0    0 -0.12455703451E-01  0.78558556049E+00  0.88076256666E+00  0.11802722212E+01  0.00000000000E+00 0.  1.
         11    1    3    3    0    0 -0.92333500500E+00  0.32981190030E+01 -0.80417850528E+01  0.87407347280E+01  0.51100000000E-03 0. -1.
        -11    1    3    3    0    0 -0.24559212159E+02  0.18940584229E+02 -0.20487077398E+02  0.37170162407E+02  0.51100000000E-03 0.  1.
         12    1    3    3    0    0  0.25495002867E+02 -0.23024288792E+02  0.27648099885E+02  0.44096830644E+02  0.00000000000E+00 0. -1.
</event>
<event>
 7    1  0.2405891E-015  0.9000771E+02  0.7816164E-02  0.1186339E+00
        -11   -1    0    0    0    0  0.00000000000E+00  0.00000000000E+00  0.45593999997E+02  0.45594000000E+02  0.51100000000E-03 0. -1.
         11   -1    0    0    0    0 -0.00000000000E+00 -0.00000000000E+00 -0.45593999997E+02  0.45594000000E+02  0.51100000000E-03 0.  1.
    9900012    2    1    2    0    0 -0.11410309100E+01 -0.18778448117E+00  0.23637760672E+00  0.90007708120E+02  0.89999969067E+02 0.  0.
        -12    1    1    2    0    0  0.11410309100E+01  0.18778448117E+00 -0.23637760672E+00  0.11802918799E+01  0.00000000000E+00 0.  1.
         11    1    3    3    0    0  0.69557737684E+01 -0.18966738822E+02  0.51621631832E+01  0.20851088683E+02  0.51100000000E-03 0. -1.
        -11    1    3    3    0    0 -0.12891157797E+02  0.21909489259E+02  0.26788203640E+02  0.36929873050E+02  0.51100000000E-03 0.  1.
        -12    1    3    3    0    0  0.47943531189E+01 -0.31305349180E+01 -0.31713989217E+02  0.32226746388E+02  0.00000000000E+00 0.  1.
</event>
<event>
 7    1  0.2405891E-015  0.9000768E+02  0.7816164E-02  0.1186339E+00
        -11   -1    0    0    0    0  0.00000000000E+00  0.00000000000E+00  0.45593999997E+02  0.45594000000E+02  0.51100000000E-03 0.  1.
         11   -1    0    0    0    0 -0.00000000000E+00 -0.00000000000E+00 -0.45593999997E+02  0.45594000000E+02  0.51100000000E-03 0. -1.
    9900012    2    1    2    0    0 -0.58552735738E+00  0.70615938182E+00 -0.74273841281E+00  0.90007676439E+02  0.89999936968E+02 0.  0.
        -12    1    1    2    0    0  0.58552735738E+00 -0.70615938182E+00  0.74273841281E+00  0.11803235610E+01  0.00000000000E+00 0.  1.
         11    1    3    3    0    0 -0.13175922822E+01  0.80487757823E+01  0.38284101920E+01  0.90097483803E+01  0.51100000000E-03 0. -1.
        -11    1    3    3    0    0 -0.36376015662E+02 -0.16287970588E+02  0.83076876781E+01  0.40712776571E+02  0.51100000000E-03 0.  1.
         12    1    3    3    0    0  0.37108080587E+02  0.89453541879E+01 -0.12878836283E+02  0.40285151488E+02  0.00000000000E+00 0. -1.
</event>
<event>
 7    1  0.2405891E-015  0.9000782E+02  0.7816164E-02  0.1186339E+00
        -11   -1    0    0    0    0  0.00000000000E+00  0.00000000000E+00  0.45593999997E+02  0.45594000000E+02  0.51100000000E-03 0. -1.
         11   -1    0    0    0    0 -0.00000000000E+00 -0.00000000000E+00 -0.45593999997E+02  0.45594000000E+02  0.51100000000E-03 0.  1.
    9900012    2    1    2    0    0  0.10410257107E+01 -0.20441981157E+00  0.51700539171E+00  0.90007823503E+02  0.90000085973E+02 0.  0.
        -12    1    1    2    0    0 -0.10410257107E+01  0.20441981157E+00 -0.51700539171E+00  0.11801764973E+01  0.00000000000E+00 0.  1.
         11    1    3    3    0    0 -0.27198499158E+02  0.15889093274E+02  0.28151284485E+01  0.31625094308E+02  0.51100000000E-03 0. -1.
        -11    1    3    3    0    0 -0.99356000290E+00 -0.25072980076E+02  0.76355915038E+01  0.26228681805E+02  0.51100000000E-03 0.  1.
        -12    1    3    3    0    0  0.29233084872E+02  0.89794669901E+01 -0.99337145606E+01  0.32154047389E+02  0.00000000000E+00 0.  1.
</event>
<event>
 7    1  0.2405891E-015  0.9000771E+02  0.7816164E-02  0.1186339E+00
        -11   -1    0    0    0    0  0.00000000000E+00  0.00000000000E+00  0.45593999997E+02  0.45594000000E+02  0.51100000000E-03 0. -1.
         11   -1    0    0    0    0 -0.00000000000E+00 -0.00000000000E+00 -0.45593999997E+02  0.45594000000E+02  0.51100000000E-03 0.  1.
    9900012    2    1    2    0    0 -0.11364900905E+01  0.31789570076E+00  0.20334641308E-01  0.90007711518E+02  0.89999972510E+02 0.  0.
        -12    1    1    2    0    0  0.11364900905E+01 -0.31789570076E+00 -0.20334641308E-01  0.11802884817E+01  0.00000000000E+00 0.  1.
         11    1    3    3    0    0  0.45968171757E+01  0.13207071418E+02  0.22091785511E+01  0.14157610452E+02  0.51100000000E-03 0. -1.
        -11    1    3    3    0    0  0.24107615231E+02  0.16476620833E+02 -0.13951864437E+02  0.32362179589E+02  0.51100000000E-03 0.  1.
         12    1    3    3    0    0 -0.29840922498E+02 -0.29365796550E+02  0.11763020527E+02  0.43487921477E+02  0.00000000000E+00 0. -1.
</event>
<event>
 7    1  0.2405891E-015  0.9000766E+02  0.7816164E-02  0.1186339E+00
        -11   -1    0    0    0    0  0.00000000000E+00  0.00000000000E+00  0.45593999997E+02  0.45594000000E+02  0.51100000000E-03 0.  1.
         11   -1    0    0    0    0 -0.00000000000E+00 -0.00000000000E+00 -0.45593999997E+02  0.45594000000E+02  0.51100000000E-03 0. -1.
    9900012    2    1    2    0    0  0.29458893884E+00  0.60052749338E+00 -0.97251356337E+00  0.90007661682E+02  0.89999922017E+02 0.  0.
        -12    1    1    2    0    0 -0.29458893884E+00 -0.60052749338E+00  0.97251356337E+00  0.11803383177E+01  0.00000000000E+00 0.  1.
         11    1    3    3    0    0  0.92265833912E+01  0.34269821970E+01  0.39373083961E+01  0.10600775713E+02  0.51100000000E-03 0. -1.
        -11    1    3    3    0    0 -0.28558498384E+02 -0.12489399078E+02  0.26647783146E+02  0.41008258512E+02  0.51100000000E-03 0.  1.
         12    1    3    3    0    0  0.19626503932E+02  0.96629443748E+01 -0.31557605106E+02  0.38398627457E+02  0.00000000000E+00 0. -1.
</event>
<event>
 7    1  0.3207561E-015  0.9000772E+02  0.7816164E-02  0.1186339E+00
        -11   -1    0    0    0    0  0.00000000000E+00  0.00000000000E+00  0.45593999997E+02  0.45594000000E+02  0.51100000000E-03 0.  1.
         11   -1    0    0    0    0 -0.00000000000E+00 -0.00000000000E+00 -0.45593999997E+02  0.45594000000E+02  0.51100000000E-03 0. -1.
    9900012    2    1    2    0    0  0.45598529382E+00  0.24485773009E+00 -0.10607488842E+01  0.90007717792E+02  0.89999978866E+02 0.  0.
        -12    1    1    2    0    0 -0.45598529382E+00 -0.24485773009E+00  0.10607488842E+01  0.11802822084E+01  0.00000000000E+00 0.  1.
         11    1    3    3    0    0  0.18442277445E+01  0.32173583614E+00  0.97047584092E+01  0.98836747197E+01  0.51100000000E-03 0. -1.
        -11    1    3    3    0    0  0.22090285076E+02  0.14882433959E+02  0.23815086832E+02  0.35729901991E+02  0.51100000000E-03 0.  1.
         12    1    3    3    0    0 -0.23478527526E+02 -0.14959312065E+02 -0.34580594125E+02  0.44394141081E+02  0.00000000000E+00 0. -1.
</event>
<event>
 7    1  0.2405891E-015  0.9000774E+02  0.7816164E-02  0.1186339E+00
        -11   -1    0    0    0    0  0.00000000000E+00  0.00000000000E+00  0.45593999997E+02  0.45594000000E+02  0.51100000000E-03 0.  1.
         11   -1    0    0    0    0 -0.00000000000E+00 -0.00000000000E+00 -0.45593999997E+02  0.45594000000E+02  0.51100000000E-03 0. -1.
    9900012    2    1    2    0    0 -0.69531573883E+00  0.29081966048E+00 -0.90827991284E+00  0.90007740515E+02  0.90000001890E+02 0.  0.
        -12    1    1    2    0    0  0.69531573883E+00 -0.29081966048E+00  0.90827991284E+00  0.11802594849E+01  0.00000000000E+00 0.  1.
         11    1    3    3    0    0 -0.29037813249E+02 -0.19746957750E+02 -0.83965392885E+01  0.36105938721E+02  0.51100000000E-03 0. -1.
        -11    1    3    3    0    0 -0.75756086883E+01  0.77170290812E+01 -0.74122264045E+01  0.13110434218E+02  0.51100000000E-03 0.  1.
        -12    1    3    3    0    0  0.35918106198E+02  0.12320748330E+02  0.14900485780E+02  0.40791367576E+02  0.00000000000E+00 0.  1.
</event>
<event>
 7    1  0.2405891E-015  0.9000776E+02  0.7816164E-02  0.1186339E+00
        -11   -1    0    0    0    0  0.00000000000E+00  0.00000000000E+00  0.45593999997E+02  0.45594000000E+02  0.51100000000E-03 0. -1.
         11   -1    0    0    0    0 -0.00000000000E+00 -0.00000000000E+00 -0.45593999997E+02  0.45594000000E+02  0.51100000000E-03 0.  1.
    9900012    2    1    2    0    0  0.10503756216E+01 -0.31429227628E+00 -0.43691600493E+00  0.90007760966E+02  0.90000022611E+02 0.  0.
        -12    1    1    2    0    0 -0.10503756216E+01  0.31429227628E+00  0.43691600493E+00  0.11802390338E+01  0.00000000000E+00 0.  1.
         11    1    3    3    0    0  0.64796560226E+01  0.13364708513E+02  0.33082161487E+02  0.36263353192E+02  0.51100000000E-03 0. -1.
        -11    1    3    3    0    0  0.66081881498E+01 -0.24465661789E+01  0.70463382591E+01  0.99651753529E+01  0.51100000000E-03 0.  1.
        -12    1    3    3    0    0 -0.12037468551E+02 -0.11232434610E+02 -0.40565415751E+02  0.43779232422E+02  0.00000000000E+00 0.  1.
</event>
<event>
 7    1  0.2405891E-015  0.9000776E+02  0.7816164E-02  0.1186339E+00
        -11   -1    0    0    0    0  0.00000000000E+00  0.00000000000E+00  0.45593999997E+02  0.45594000000E+02  0.51100000000E-03 0.  1.
         11   -1    0    0    0    0 -0.00000000000E+00 -0.00000000000E+00 -0.45593999997E+02  0.45594000000E+02  0.51100000000E-03 0. -1.
    9900012    2    1    2    0    0 -0.44588497736E+00  0.35714967222E+00 -0.10327592785E+01  0.90007762300E+02  0.90000023962E+02 0.  0.
        -12    1    1    2    0    0  0.44588497736E+00 -0.35714967222E+00  0.10327592785E+01  0.11802377001E+01  0.00000000000E+00 0.  1.
         11    1    3    3    0    0  0.12703163814E+02 -0.11637881534E+02 -0.36507396112E+02  0.40368312184E+02  0.51100000000E-03 0. -1.
        -11    1    3    3    0    0  0.16828526214E+01 -0.82334479856E+01  0.37655869908E+01  0.92087623665E+01  0.51100000000E-03 0.  1.
        -12    1    3    3    0    0 -0.14831901412E+02  0.20228479191E+02  0.31709049843E+02  0.40430687749E+02  0.00000000000E+00 0.  1.
</event>
<event>
 7    1  0.2405891E-015  0.9000763E+02  0.7816164E-02  0.1186339E+00
        -11   -1    0    0    0    0  0.00000000000E+00  0.00000000000E+00  0.45593999997E+02  0.45594000000E+02  0.51100000000E-03 0.  1.
         11   -1    0    0    0    0 -0.00000000000E+00 -0.00000000000E+00 -0.45593999997E+02  0.45594000000E+02  0.51100000000E-03 0. -1.
    9900012    2    1    2    0    0  0.27147158581E+00 -0.11415366801E+01  0.12837381298E+00  0.90007626055E+02  0.89999885919E+02 0.  0.
        -12    1    1    2    0    0 -0.27147158581E+00  0.11415366801E+01 -0.12837381298E+00  0.11803739449E+01  0.00000000000E+00 0.  1.
         11    1    3    3    0    0  0.22801045709E+01 -0.34582153002E+02 -0.18238564220E+02  0.39163368192E+02  0.51100000000E-03 0. -1.
        -11    1    3    3    0    0 -0.50126610470E+01  0.38886670160E+01 -0.86258054198E+01  0.10707615110E+02  0.51100000000E-03 0.  1.
        -12    1    3    3    0    0  0.30040280619E+01  0.29551949306E+02  0.26992743453E+02  0.40136642753E+02  0.00000000000E+00 0.  1.
</event>
<event>
 7    1  0.2405891E-015  0.9000777E+02  0.7816164E-02  0.1186339E+00
        -11   -1    0    0    0    0  0.00000000000E+00  0.00000000000E+00  0.45593999997E+02  0.45594000000E+02  0.51100000000E-03 0. -1.
         11   -1    0    0    0    0 -0.00000000000E+00 -0.00000000000E+00 -0.45593999997E+02  0.45594000000E+02  0.51100000000E-03 0.  1.
    9900012    2    1    2    0    0  0.43772340708E+00 -0.92986047175E-01  0.10921017210E+01  0.90007773600E+02  0.90000035412E+02 0.  0.
        -12    1    1    2    0    0 -0.43772340708E+00  0.92986047175E-01 -0.10921017210E+01  0.11802263999E+01  0.00000000000E+00 0.  1.
         11    1    3    3    0    0  0.63872947259E+01  0.49408699824E+01  0.37449456787E+02  0.38310201566E+02  0.51100000000E-03 0. -1.
        -11    1    3    3    0    0 -0.19448320355E+01 -0.83065807279E+01  0.50863505232E+01  0.99324023751E+01  0.51100000000E-03 0.  1.
        -12    1    3    3    0    0 -0.40047392833E+01  0.32727246983E+01 -0.41443705589E+02  0.41765169659E+02  0.00000000000E+00 0.  1.
</event>
<event>
 7    1  0.2405891E-015  0.9000776E+02  0.7816164E-02  0.1186339E+00
        -11   -1    0    0    0    0  0.00000000000E+00  0.00000000000E+00  0.45593999997E+02  0.45594000000E+02  0.51100000000E-03 0. -1.
         11   -1    0    0    0    0 -0.00000000000E+00 -0.00000000000E+00 -0.45593999997E+02  0.45594000000E+02  0.51100000000E-03 0.  1.
    9900012    2    1    2    0    0  0.72229391249E-01 -0.11766430301E+01 -0.57154734161E-01  0.90007757411E+02  0.90000019009E+02 0.  0.
        -12    1    1    2    0    0 -0.72229391249E-01  0.11766430301E+01  0.57154734161E-01  0.11802425890E+01  0.00000000000E+00 0.  1.
         11    1    3    3    0    0  0.21097245978E+01 -0.10200147558E+01 -0.87988159742E+01  0.91055219944E+01  0.51100000000E-03 0. -1.
        -11    1    3    3    0    0  0.36858404575E+02 -0.78629101805E+01  0.15367574514E+02  0.40700487602E+02  0.51100000000E-03 0.  1.
         12    1    3    3    0    0 -0.38895899782E+02  0.77062819062E+01 -0.66259132743E+01  0.40201747815E+02  0.00000000000E+00 0. -1.
</event>
<event>
 7    1  0.2405891E-015  0.9000727E+02  0.7816164E-02  0.1186340E+00
        -11   -1    0    0    0    0  0.00000000000E+00  0.00000000000E+00  0.45593999997E+02  0.45594000000E+02  0.51100000000E-03 0. -1.
         11   -1    0    0    0    0 -0.00000000000E+00 -0.00000000000E+00 -0.45593999997E+02  0.45594000000E+02  0.51100000000E-03 0.  1.
    9900012    2    1    2    0    0 -0.13106964939E-01  0.11262538537E+01  0.35426135206E+00  0.90007271140E+02  0.89999526318E+02 0.  0.
        -12    1    1    2    0    0  0.13106964939E-01 -0.11262538537E+01 -0.35426135206E+00  0.11807288601E+01  0.00000000000E+00 0.  1.
         11    1    3    3    0    0  0.16946712018E+02 -0.19748528547E+02  0.21616062306E+02  0.33829714422E+02  0.51100000000E-03 0. -1.
        -11    1    3    3    0    0  0.10131419378E+02 -0.66982634369E+01 -0.17860512288E+00  0.12146781127E+02  0.51100000000E-03 0.  1.
        -12    1    3    3    0    0 -0.27091238361E+02  0.27573045838E+02 -0.21083195831E+02  0.44030775591E+02  0.00000000000E+00 0.  1.
</event>
<event>
 7    1  0.2405891E-015  0.9000778E+02  0.7816164E-02  0.1186339E+00
        -11   -1    0    0    0    0  0.00000000000E+00  0.00000000000E+00  0.45593999997E+02  0.45594000000E+02  0.51100000000E-03 0.  1.
         11   -1    0    0    0    0 -0.00000000000E+00 -0.00000000000E+00 -0.45593999997E+02  0.45594000000E+02  0.51100000000E-03 0. -1.
    9900012    2    1    2    0    0  0.15423293158E+00 -0.10445448623E+01 -0.52730396883E+00  0.90007783392E+02  0.90000045333E+02 0.  0.
        -12    1    1    2    0    0 -0.15423293158E+00  0.10445448623E+01  0.52730396883E+00  0.11802166081E+01  0.00000000000E+00 0.  1.
         11    1    3    3    0    0  0.15319863020E+02  0.18649324273E+02 -0.26316675070E+02  0.35708022709E+02  0.51100000000E-03 0. -1.
        -11    1    3    3    0    0  0.97631891525E+01 -0.21400494134E+01 -0.48200652721E+01  0.11096517625E+02  0.51100000000E-03 0.  1.
        -12    1    3    3    0    0 -0.24928819241E+02 -0.17553819722E+02  0.30609436373E+02  0.43203243057E+02  0.00000000000E+00 0.  1.
</event>
<event>
 7    1  0.2405891E-015  0.9000759E+02  0.7816164E-02  0.1186339E+00
        -11   -1    0    0    0    0  0.00000000000E+00  0.00000000000E+00  0.45593999997E+02  0.45594000000E+02  0.51100000000E-03 0.  1.
         11   -1    0    0    0    0 -0.00000000000E+00 -0.00000000000E+00 -0.45593999997E+02  0.45594000000E+02  0.51100000000E-03 0. -1.
    9900012    2    1    2    0    0  0.24453711413E+00  0.95034815228E+00 -0.65605733691E+00  0.90007588529E+02  0.89999847898E+02 0.  0.
        -12    1    1    2    0    0 -0.24453711413E+00 -0.95034815228E+00  0.65605733691E+00  0.11804114706E+01  0.00000000000E+00 0.  1.
         11    1    3    3    0    0  0.39450070445E+02 -0.19084301386E-01  0.68578668939E+01  0.40041712762E+02  0.51100000000E-03 0. -1.
        -11    1    3    3    0    0 -0.12143742906E+01 -0.87428551864E+01 -0.60961007939E+01  0.10727286091E+02  0.51100000000E-03 0.  1.
        -12    1    3    3    0    0 -0.37991159041E+02  0.97122876400E+01 -0.14178234370E+01  0.39238589676E+02  0.00000000000E+00 0.  1.
</event>
<event>
 7    1  0.2405891E-015  0.9000770E+02  0.7816164E-02  0.1186339E+00
        -11   -1    0    0    0    0  0.00000000000E+00  0.00000000000E+00  0.45593999997E+02  0.45594000000E+02  0.51100000000E-03 0.  1.
         11   -1    0    0    0    0 -0.00000000000E+00 -0.00000000000E+00 -0.45593999997E+02  0.45594000000E+02  0.51100000000E-03 0. -1.
    9900012    2    1    2    0    0 -0.88526111034E+00 -0.60815400365E+00 -0.48945469090E+00  0.90007701555E+02  0.89999962415E+02 0.  0.
        -12    1    1    2    0    0  0.88526111034E+00  0.60815400365E+00  0.48945469090E+00  0.11802984453E+01  0.00000000000E+00 0.  1.
         11    1    3    3    0    0  0.81562985947E+01  0.11978524170E+01 -0.20856408006E+01  0.85035260327E+01  0.51100000000E-03 0. -1.
        -11    1    3    3    0    0  0.12659957724E+02 -0.19803320401E+02  0.32217881848E+02  0.39880295128E+02  0.51100000000E-03 0.  1.
         12    1    3    3    0    0 -0.21701517429E+02  0.17997313980E+02 -0.30621695738E+02  0.41623880394E+02  0.00000000000E+00 0. -1.
</event>
<event>
 7    1  0.2405891E-015  0.9000776E+02  0.7816164E-02  0.1186339E+00
        -11   -1    0    0    0    0  0.00000000000E+00  0.00000000000E+00  0.45593999997E+02  0.45594000000E+02  0.51100000000E-03 0.  1.
         11   -1    0    0    0    0 -0.00000000000E+00 -0.00000000000E+00 -0.45593999997E+02  0.45594000000E+02  0.51100000000E-03 0. -1.
    9900012    2    1    2    0    0  0.10923230120E+01  0.38184806641E+00 -0.23234055346E+00  0.90007762888E+02  0.90000024558E+02 0.  0.
        -12    1    1    2    0    0 -0.10923230120E+01 -0.38184806641E+00  0.23234055346E+00  0.11802371122E+01  0.00000000000E+00 0.  1.
         11    1    3    3    0    0  0.37474895156E+01  0.66729603531E+01  0.50371657281E+01  0.91621567536E+01  0.51100000000E-03 0. -1.
        -11    1    3    3    0    0  0.17789970246E+02 -0.24607980897E+02  0.25470603820E+02  0.39633160666E+02  0.51100000000E-03 0.  1.
         12    1    3    3    0    0 -0.20445136750E+02  0.18316868610E+02 -0.30740110101E+02  0.41212445468E+02  0.00000000000E+00 0. -1.
</event>
<event>
 7    1  0.2405891E-015  0.9000851E+02  0.7816164E-02  0.1186338E+00
        -11   -1    0    0    0    0  0.00000000000E+00  0.00000000000E+00  0.45593999997E+02  0.45594000000E+02  0.51100000000E-03 0.  1.
         11   -1    0    0    0    0 -0.00000000000E+00 -0.00000000000E+00 -0.45593999997E+02  0.45594000000E+02  0.51100000000E-03 0. -1.
    9900012    2    1    2    0    0 -0.17213583346E+00  0.34736808262E+00 -0.11139548636E+01  0.90008512498E+02  0.90000784059E+02 0.  0.
        -12    1    1    2    0    0  0.17213583346E+00 -0.34736808262E+00  0.11139548636E+01  0.11794875023E+01  0.00000000000E+00 0.  1.
         11    1    3    3    0    0  0.19110671967E+02 -0.31196494546E+02  0.85920633566E+01  0.37580082597E+02  0.51100000000E-03 0. -1.
        -11    1    3    3    0    0 -0.60447704793E+01 -0.74329912169E+01  0.16625116887E+01  0.97238137557E+01  0.51100000000E-03 0.  1.
        -12    1    3    3    0    0 -0.13238037321E+02  0.38976853846E+02 -0.11368529909E+02  0.42704616145E+02  0.00000000000E+00 0.  1.
</event>
<event>
 7    1  0.2405891E-015  0.9000771E+02  0.7816164E-02  0.1186339E+00
        -11   -1    0    0    0    0  0.00000000000E+00  0.00000000000E+00  0.45593999997E+02  0.45594000000E+02  0.51100000000E-03 0.  1.
         11   -1    0    0    0    0 -0.00000000000E+00 -0.00000000000E+00 -0.45593999997E+02  0.45594000000E+02  0.51100000000E-03 0. -1.
    9900012    2    1    2    0    0 -0.11690054507E+01  0.10559982826E+00 -0.12397159319E+00  0.90007705959E+02  0.89999966878E+02 0.  0.
        -12    1    1    2    0    0  0.11690054507E+01 -0.10559982826E+00  0.12397159319E+00  0.11802940411E+01  0.00000000000E+00 0.  1.
         11    1    3    3    0    0  0.26365009653E+02 -0.17097295417E+02 -0.21289579957E+02  0.37956257186E+02  0.51100000000E-03 0. -1.
        -11    1    3    3    0    0 -0.40364055072E+00 -0.92856422272E+01  0.17691778617E+01  0.94612931375E+01  0.51100000000E-03 0.  1.
        -12    1    3    3    0    0 -0.27130374553E+02  0.26488537472E+02  0.19396430502E+02  0.42590155635E+02  0.00000000000E+00 0.  1.
</event>
<event>
 7    1  0.2405891E-015  0.9000787E+02  0.7816164E-02  0.1186339E+00
        -11   -1    0    0    0    0  0.00000000000E+00  0.00000000000E+00  0.45593999997E+02  0.45594000000E+02  0.51100000000E-03 0.  1.
         11   -1    0    0    0    0 -0.00000000000E+00 -0.00000000000E+00 -0.45593999997E+02  0.45594000000E+02  0.51100000000E-03 0. -1.
    9900012    2    1    2    0    0 -0.45054079204E+00 -0.45237433554E+00  0.99251329044E+00  0.90007867729E+02  0.90000130783E+02 0.  0.
        -12    1    1    2    0    0  0.45054079204E+00  0.45237433554E+00 -0.99251329044E+00  0.11801322707E+01  0.00000000000E+00 0.  1.
         11    1    3    3    0    0  0.18108015417E+02  0.38746086890E+00  0.13231438592E+01  0.18160425606E+02  0.51100000000E-03 0. -1.
        -11    1    3    3    0    0  0.26196235901E+02 -0.54121540094E+01  0.17939086637E+01  0.26809556038E+02  0.51100000000E-03 0.  1.
         12    1    3    3    0    0 -0.44754792110E+02  0.45723188050E+01 -0.21245392325E+01  0.45037886085E+02  0.00000000000E+00 0. -1.
</event>
<event>
 7    1  0.2405891E-015  0.9000764E+02  0.7816164E-02  0.1186339E+00
        -11   -1    0    0    0    0  0.00000000000E+00  0.00000000000E+00  0.45593999997E+02  0.45594000000E+02  0.51100000000E-03 0.  1.
         11   -1    0    0    0    0 -0.00000000000E+00 -0.00000000000E+00 -0.45593999997E+02  0.45594000000E+02  0.51100000000E-03 0. -1.
    9900012    2    1    2    0    0 -0.14747467086E+00 -0.54542919095E-01 -0.11698373534E+01  0.90007642790E+02  0.89999902875E+02 0.  0.
        -12    1    1    2    0    0  0.14747467086E+00  0.54542919095E-01  0.11698373534E+01  0.11803572095E+01  0.00000000000E+00 0.  1.
         11    1    3    3    0    0  0.13436257546E+01  0.32036654226E+02 -0.16110337802E+02  0.35884474757E+02  0.51100000000E-03 0. -1.
        -11    1    3    3    0    0 -0.12100914210E+01  0.83324931170E+01 -0.41848751674E+01  0.94025498254E+01  0.51100000000E-03 0.  1.
        -12    1    3    3    0    0 -0.28100900445E+00 -0.40423690262E+02  0.19125375616E+02  0.44720618209E+02  0.00000000000E+00 0.  1.
</event>
<event>
 7    1  0.2405891E-015  0.9000779E+02  0.7816164E-02  0.1186339E+00
        -11   -1    0    0    0    0  0.00000000000E+00  0.00000000000E+00  0.45593999997E+02  0.45594000000E+02  0.51100000000E-03 0. -1.
         11   -1    0    0    0    0 -0.00000000000E+00 -0.00000000000E+00 -0.45593999997E+02  0.45594000000E+02  0.51100000000E-03 0.  1.
    9900012    2    1    2    0    0 -0.86388777692E+00  0.24939829776E+00  0.76444922422E+00  0.90007794841E+02  0.90000056932E+02 0.  0.
        -12    1    1    2    0    0  0.86388777692E+00 -0.24939829776E+00 -0.76444922422E+00  0.11802051595E+01  0.00000000000E+00 0.  1.
         11    1    3    3    0    0  0.27429823990E+02 -0.23213295319E+02  0.16836908369E+02  0.39682915812E+02  0.51100000000E-03 0. -1.
        -11    1    3    3    0    0  0.29580936173E+01 -0.20085955842E+01 -0.86101689172E+01  0.93230779850E+01  0.51100000000E-03 0.  1.
        -12    1    3    3    0    0 -0.31251805384E+02  0.25471289201E+02 -0.74622902272E+01  0.41001801043E+02  0.00000000000E+00 0.  1.
</event>
<event>
 7    1  0.2405891E-015  0.9000778E+02  0.7816164E-02  0.1186339E+00
        -11   -1    0    0    0    0  0.00000000000E+00  0.00000000000E+00  0.45593999997E+02  0.45594000000E+02  0.51100000000E-03 0. -1.
         11   -1    0    0    0    0 -0.00000000000E+00 -0.00000000000E+00 -0.45593999997E+02  0.45594000000E+02  0.51100000000E-03 0.  1.
    9900012    2    1    2    0    0 -0.15584002840E+00  0.62432114857E+00 -0.98937334579E+00  0.90007778568E+02  0.90000040445E+02 0.  0.
        -12    1    1    2    0    0  0.15584002840E+00 -0.62432114857E+00  0.98937334579E+00  0.11802214319E+01  0.00000000000E+00 0.  1.
         11    1    3    3    0    0  0.27315682014E+01  0.20087492135E+01 -0.82900605634E+01  0.89566535406E+01  0.51100000000E-03 0. -1.
        -11    1    3    3    0    0 -0.68397975725E+01  0.33558430951E+02 -0.17069501451E+02  0.38266421295E+02  0.51100000000E-03 0.  1.
         12    1    3    3    0    0  0.39523893427E+01 -0.34942859016E+02  0.24370188668E+02  0.42784703732E+02  0.00000000000E+00 0. -1.
</event>
<event>
 7    1  0.2405891E-015  0.9000776E+02  0.7816164E-02  0.1186339E+00
        -11   -1    0    0    0    0  0.00000000000E+00  0.00000000000E+00  0.45593999997E+02  0.45594000000E+02  0.51100000000E-03 0.  1.
         11   -1    0    0    0    0 -0.00000000000E+00 -0.00000000000E+00 -0.45593999997E+02  0.45594000000E+02  0.51100000000E-03 0. -1.
    9900012    2    1    2    0    0 -0.87448962004E-01 -0.88908257975E+00 -0.77126189580E+00  0.90007762708E+02  0.90000024375E+02 0.  0.
        -12    1    1    2    0    0  0.87448962004E-01  0.88908257975E+00  0.77126189580E+00  0.11802372924E+01  0.00000000000E+00 0.  1.
         11    1    3    3    0    0 -0.18507020870E+02  0.34625908133E+02 -0.17070656206E+02  0.42812038484E+02  0.51100000000E-03 0. -1.
        -11    1    3    3    0    0  0.87187584521E+01 -0.36763891760E+01 -0.12907573304E+01  0.95497979594E+01  0.51100000000E-03 0.  1.
        -12    1    3    3    0    0  0.97008134563E+01 -0.31838601537E+02  0.17590151641E+02  0.37645926264E+02  0.00000000000E+00 0.  1.
</event>
<event>
 7    1  0.2405891E-015  0.9000775E+02  0.7816164E-02  0.1186339E+00
        -11   -1    0    0    0    0  0.00000000000E+00  0.00000000000E+00  0.45593999997E+02  0.45594000000E+02  0.51100000000E-03 0.  1.
         11   -1    0    0    0    0 -0.00000000000E+00 -0.00000000000E+00 -0.45593999997E+02  0.45594000000E+02  0.51100000000E-03 0. -1.
    9900012    2    1    2    0    0 -0.10059835062E+00  0.11088551420E+01 -0.39153997501E+00  0.90007752862E+02  0.90000014400E+02 0.  0.
        -12    1    1    2    0    0  0.10059835062E+00 -0.11088551420E+01  0.39153997501E+00  0.11802471377E+01  0.00000000000E+00 0.  1.
         11    1    3    3    0    0 -0.14225275312E+02  0.16590968476E+02 -0.31942360089E+02  0.38703140195E+02  0.51100000000E-03 0. -1.
        -11    1    3    3    0    0 -0.42197732171E+01 -0.83032687721E+01 -0.44072877294E+01  0.10304122655E+02  0.51100000000E-03 0.  1.
        -12    1    3    3    0    0  0.18344450178E+02 -0.71788445619E+01  0.35958107843E+02  0.41000490012E+02  0.00000000000E+00 0.  1.
</event>
<event>
 7    1  0.2405891E-015  0.9000785E+02  0.7816164E-02  0.1186339E+00
        -11   -1    0    0    0    0  0.00000000000E+00  0.00000000000E+00  0.45593999997E+02  0.45594000000E+02  0.51100000000E-03 0.  1.
         11   -1    0    0    0    0 -0.00000000000E+00 -0.00000000000E+00 -0.45593999997E+02  0.45594000000E+02  0.51100000000E-03 0. -1.
    9900012    2    1    2    0    0 -0.11084247113E-01  0.11140360491E+01 -0.38930900696E+00  0.90007847178E+02  0.90000109961E+02 0.  0.
        -12    1    1    2    0    0  0.11084247113E-01 -0.11140360491E+01  0.38930900696E+00  0.11801528215E+01  0.00000000000E+00 0.  1.
         11    1    3    3    0    0 -0.14239477611E+02 -0.32379697385E+02  0.22501670644E+02  0.41922937724E+02  0.51100000000E-03 0. -1.
        -11    1    3    3    0    0  0.47335423860E+01  0.63199634244E+01  0.38597861278E+01  0.87889880202E+01  0.51100000000E-03 0.  1.
        -12    1    3    3    0    0  0.94948509783E+01  0.27173770009E+02 -0.26750765779E+02  0.39295921434E+02  0.00000000000E+00 0.  1.
</event>
<event>
 7    1  0.2405891E-015  0.9000777E+02  0.7816164E-02  0.1186339E+00
        -11   -1    0    0    0    0  0.00000000000E+00  0.00000000000E+00  0.45593999997E+02  0.45594000000E+02  0.51100000000E-03 0.  1.
         11   -1    0    0    0    0 -0.00000000000E+00 -0.00000000000E+00 -0.45593999997E+02  0.45594000000E+02  0.51100000000E-03 0. -1.
    9900012    2    1    2    0    0  0.14653802845E+00  0.19412561441E+00 -0.11548969560E+01  0.90007769037E+02  0.90000030788E+02 0.  0.
        -12    1    1    2    0    0 -0.14653802845E+00 -0.19412561441E+00  0.11548969560E+01  0.11802309634E+01  0.00000000000E+00 0.  1.
         11    1    3    3    0    0 -0.29898198691E+02  0.36991738560E+01 -0.19375505609E+02  0.35818938986E+02  0.51100000000E-03 0. -1.
        -11    1    3    3    0    0 -0.83579922267E+01 -0.85195538985E+01  0.15894033930E+01  0.12040142694E+02  0.51100000000E-03 0.  1.
        -12    1    3    3    0    0  0.38402728946E+02  0.50145056569E+01  0.16631205260E+02  0.42148687357E+02  0.00000000000E+00 0.  1.
</event>
<event>
 7    1  0.2405891E-015  0.9000776E+02  0.7816164E-02  0.1186339E+00
        -11   -1    0    0    0    0  0.00000000000E+00  0.00000000000E+00  0.45593999997E+02  0.45594000000E+02  0.51100000000E-03 0.  1.
         11   -1    0    0    0    0 -0.00000000000E+00 -0.00000000000E+00 -0.45593999997E+02  0.45594000000E+02  0.51100000000E-03 0. -1.
    9900012    2    1    2    0    0 -0.84434739103E+00 -0.33538609140E+00 -0.75337085484E+00  0.90007756808E+02  0.90000018398E+02 0.  0.
        -12    1    1    2    0    0  0.84434739103E+00  0.33538609140E+00  0.75337085484E+00  0.11802431919E+01  0.00000000000E+00 0.  1.
         11    1    3    3    0    0 -0.31963993618E+01  0.27094966164E+02 -0.10024601198E+02  0.29066248292E+02  0.51100000000E-03 0. -1.
        -11    1    3    3    0    0  0.10405410881E+02  0.43418135508E+01  0.22836625087E+02  0.25468320835E+02  0.51100000000E-03 0.  1.
         12    1    3    3    0    0 -0.80533589106E+01 -0.31772165806E+02 -0.13565394743E+02  0.35473187682E+02  0.00000000000E+00 0. -1.
</event>
<event>
 7    1  0.2405891E-015  0.9000766E+02  0.7816164E-02  0.1186339E+00
        -11   -1    0    0    0    0  0.00000000000E+00  0.00000000000E+00  0.45593999997E+02  0.45594000000E+02  0.51100000000E-03 0.  1.
         11   -1    0    0    0    0 -0.00000000000E+00 -0.00000000000E+00 -0.45593999997E+02  0.45594000000E+02  0.51100000000E-03 0. -1.
    9900012    2    1    2    0    0  0.80037277989E+00 -0.83162731455E+00 -0.24698248730E+00  0.90007660673E+02  0.89999920994E+02 0.  0.
        -12    1    1    2    0    0 -0.80037277989E+00  0.83162731455E+00  0.24698248730E+00  0.11803393267E+01  0.00000000000E+00 0.  1.
         11    1    3    3    0    0 -0.28158454236E+02 -0.15691711424E+02 -0.12671150816E+02  0.34636489655E+02  0.51100000000E-03 0. -1.
        -11    1    3    3    0    0 -0.57580219830E+01 -0.22989331852E+01 -0.91413290023E+01  0.11045533357E+02  0.51100000000E-03 0.  1.
        -12    1    3    3    0    0  0.34716848999E+02  0.17159017295E+02  0.21565497331E+02  0.44325637661E+02  0.00000000000E+00 0.  1.
</event>
<event>
 7    1  0.2405891E-015  0.9000773E+02  0.7816164E-02  0.1186339E+00
        -11   -1    0    0    0    0  0.00000000000E+00  0.00000000000E+00  0.45593999997E+02  0.45594000000E+02  0.51100000000E-03 0.  1.
         11   -1    0    0    0    0 -0.00000000000E+00 -0.00000000000E+00 -0.45593999997E+02  0.45594000000E+02  0.51100000000E-03 0. -1.
    9900012    2    1    2    0    0  0.76711069993E+00  0.86854085738E+00 -0.22411246416E+00  0.90007725268E+02  0.89999986441E+02 0.  0.
        -12    1    1    2    0    0 -0.76711069993E+00 -0.86854085738E+00  0.22411246416E+00  0.11802747322E+01  0.00000000000E+00 0.  1.
         11    1    3    3    0    0  0.66933412657E+01 -0.33999639829E+01 -0.48744527510E+01  0.89510257662E+01  0.51100000000E-03 0. -1.
        -11    1    3    3    0    0  0.32253496615E+02  0.20527760108E+01  0.21964377944E+02  0.39076026307E+02  0.51100000000E-03 0.  1.
         12    1    3    3    0    0 -0.38179727181E+02  0.22157288295E+01 -0.17314037657E+02  0.41980673194E+02  0.00000000000E+00 0. -1.
</event>
<event>
 7    1  0.2405891E-015  0.9000775E+02  0.7816164E-02  0.1186339E+00
        -11   -1    0    0    0    0  0.00000000000E+00  0.00000000000E+00  0.45593999997E+02  0.45594000000E+02  0.51100000000E-03 0.  1.
         11   -1    0    0    0    0 -0.00000000000E+00 -0.00000000000E+00 -0.45593999997E+02  0.45594000000E+02  0.51100000000E-03 0. -1.
    9900012    2    1    2    0    0  0.98243586262E+00  0.65338302353E+00  0.29888575980E-01  0.90007753023E+02  0.90000014563E+02 0.  0.
        -12    1    1    2    0    0 -0.98243586262E+00 -0.65338302353E+00 -0.29888575980E-01  0.11802469769E+01  0.00000000000E+00 0.  1.
         11    1    3    3    0    0  0.60867857920E+01 -0.33421839591E+01  0.47709239313E+01  0.84250145586E+01  0.51100000000E-03 0. -1.
        -11    1    3    3    0    0 -0.27854488314E+02 -0.14141680745E+02  0.24974623057E+02  0.39994892806E+02  0.51100000000E-03 0.  1.
         12    1    3    3    0    0  0.22750138384E+02  0.18137247727E+02 -0.29715658412E+02  0.41587845658E+02  0.00000000000E+00 0. -1.
</event>
<event>
 7    1  0.2405891E-015  0.9000713E+02  0.7816164E-02  0.1186340E+00
        -11   -1    0    0    0    0  0.00000000000E+00  0.00000000000E+00  0.45593999997E+02  0.45594000000E+02  0.51100000000E-03 0. -1.
         11   -1    0    0    0    0 -0.00000000000E+00 -0.00000000000E+00 -0.45593999997E+02  0.45594000000E+02  0.51100000000E-03 0.  1.
    9900012    2    1    2    0    0  0.66766177863E+00  0.92245324602E+00  0.31265267039E+00  0.90007134244E+02  0.89999387614E+02 0.  0.
        -12    1    1    2    0    0 -0.66766177863E+00 -0.92245324602E+00 -0.31265267039E+00  0.11808657561E+01  0.00000000000E+00 0.  1.
         11    1    3    3    0    0 -0.56866699806E+01  0.63607230676E+01  0.54198308185E+01  0.10107995834E+02  0.51100000000E-03 0. -1.
        -11    1    3    3    0    0  0.40475869705E+02 -0.95793815688E+01 -0.14862608057E+02  0.44169646796E+02  0.51100000000E-03 0.  1.
         12    1    3    3    0    0 -0.34121537946E+02  0.41411117473E+01  0.97554299086E+01  0.35729491614E+02  0.00000000000E+00 0. -1.
</event>
<event>
 7    1  0.2405891E-015  0.9000771E+02  0.7816164E-02  0.1186339E+00
        -11   -1    0    0    0    0  0.00000000000E+00  0.00000000000E+00  0.45593999997E+02  0.45594000000E+02  0.51100000000E-03 0. -1.
         11   -1    0    0    0    0 -0.00000000000E+00 -0.00000000000E+00 -0.45593999997E+02  0.45594000000E+02  0.51100000000E-03 0.  1.
    9900012    2    1    2    0    0  0.70582100059E+00  0.93484338438E+00  0.14483568457E+00  0.90007706471E+02  0.89999967397E+02 0.  0.
        -12    1    1    2    0    0 -0.70582100059E+00 -0.93484338438E+00 -0.14483568457E+00  0.11802935286E+01  0.00000000000E+00 0.  1.
         11    1    3    3    0    0 -0.25540759722E+02 -0.23136537590E+02  0.11527251154E+02  0.36338785041E+02  0.51100000000E-03 0. -1.
        -11    1    3    3    0    0 -0.65203635373E+01 -0.10885787713E+01  0.59255292902E+01  0.88776146588E+01  0.51100000000E-03 0.  1.
        -12    1    3    3    0    0  0.32766944260E+02  0.25159959746E+02 -0.17307944760E+02  0.44791306772E+02  0.00000000000E+00 0.  1.
</event>
<event>
 7    1  0.2405891E-015  0.9000768E+02  0.7816164E-02  0.1186339E+00
        -11   -1    0    0    0    0  0.00000000000E+00  0.00000000000E+00  0.45593999997E+02  0.45594000000E+02  0.51100000000E-03 0.  1.
         11   -1    0    0    0    0 -0.00000000000E+00 -0.00000000000E+00 -0.45593999997E+02  0.45594000000E+02  0.51100000000E-03 0. -1.
    9900012    2    1    2    0    0 -0.98916726372E+00  0.47840970869E+00 -0.43108444584E+00  0.90007677364E+02  0.89999937905E+02 0.  0.
        -12    1    1    2    0    0  0.98916726372E+00 -0.47840970869E+00  0.43108444584E+00  0.11803226357E+01  0.00000000000E+00 0.  1.
         11    1    3    3    0    0  0.32993372105E+01 -0.22638069739E+01 -0.97201634106E+01  0.10511518684E+02  0.51100000000E-03 0. -1.
        -11    1    3    3    0    0  0.31793888957E+02 -0.10408592182E+02 -0.12054088630E+02  0.35559685308E+02  0.51100000000E-03 0.  1.
         12    1    3    3    0    0 -0.36082393431E+02  0.13150808865E+02  0.21343167594E+02  0.43936473373E+02  0.00000000000E+00 0. -1.
</event>
<event>
 7    1  0.2405891E-015  0.9000765E+02  0.7816164E-02  0.1186339E+00
        -11   -1    0    0    0    0  0.00000000000E+00  0.00000000000E+00  0.45593999997E+02  0.45594000000E+02  0.51100000000E-03 0. -1.
         11   -1    0    0    0    0 -0.00000000000E+00 -0.00000000000E+00 -0.45593999997E+02  0.45594000000E+02  0.51100000000E-03 0.  1.
    9900012    2    1    2    0    0 -0.10423716002E+01 -0.38944533763E+00  0.39371605040E+00  0.90007653207E+02  0.89999913429E+02 0.  0.
        -12    1    1    2    0    0  0.10423716002E+01  0.38944533763E+00 -0.39371605040E+00  0.11803467933E+01  0.00000000000E+00 0.  1.
         11    1    3    3    0    0 -0.12981163303E+00  0.14442231746E+02 -0.11035373826E+02  0.18176203801E+02  0.51100000000E-03 0. -1.
        -11    1    3    3    0    0  0.31553347266E+01 -0.17184916054E+02 -0.27521030421E+02  0.32598843426E+02  0.51100000000E-03 0.  1.
         12    1    3    3    0    0 -0.40678946938E+01  0.23532389695E+01  0.38950120297E+02  0.39232605980E+02  0.00000000000E+00 0. -1.
</event>
<event>
 7    1  0.2405891E-015  0.9000777E+02  0.7816164E-02  0.1186339E+00
        -11   -1    0    0    0    0  0.00000000000E+00  0.00000000000E+00  0.45593999997E+02  0.45594000000E+02  0.51100000000E-03 0. -1.
         11   -1    0    0    0    0 -0.00000000000E+00 -0.00000000000E+00 -0.45593999997E+02  0.45594000000E+02  0.51100000000E-03 0.  1.
    9900012    2    1    2    0    0 -0.25578975908E+00  0.12170291109E-01  0.11521103324E+01  0.90007773439E+02  0.90000035249E+02 0.  0.
        -12    1    1    2    0    0  0.25578975908E+00 -0.12170291109E-01 -0.11521103324E+01  0.11802265608E+01  0.00000000000E+00 0.  1.
         11    1    3    3    0    0  0.85545313490E+01 -0.40965502451E+00 -0.30887768883E+01  0.91043048481E+01  0.51100000000E-03 0. -1.
        -11    1    3    3    0    0  0.35366863228E+02 -0.39726239700E+01  0.75634580162E+01  0.36384098907E+02  0.51100000000E-03 0.  1.
         12    1    3    3    0    0 -0.44177184336E+02  0.43944492857E+01 -0.33225707955E+01  0.44519369685E+02  0.00000000000E+00 0. -1.
</event>
<event>
 7    1  0.2405891E-015  0.9000781E+02  0.7816164E-02  0.1186339E+00
        -11   -1    0    0    0    0  0.00000000000E+00  0.00000000000E+00  0.45593999997E+02  0.45594000000E+02  0.51100000000E-03 0.  1.
         11   -1    0    0    0    0 -0.00000000000E+00 -0.00000000000E+00 -0.45593999997E+02  0.45594000000E+02  0.51100000000E-03 0. -1.
    9900012    2    1    2    0    0 -0.27000061486E+00  0.11209239583E+01  0.25196370629E+00  0.90007806558E+02  0.90000068804E+02 0.  0.
        -12    1    1    2    0    0  0.27000061486E+00 -0.11209239583E+01 -0.25196370629E+00  0.11801934424E+01  0.00000000000E+00 0.  1.
         11    1    3    3    0    0  0.45982142067E+01 -0.18226863344E+01 -0.35656240076E+02  0.35997683481E+02  0.51100000000E-03 0. -1.
        -11    1    3    3    0    0 -0.54565501159E+00  0.74767611946E+01 -0.72326877591E+01  0.10416883883E+02  0.51100000000E-03 0.  1.
        -12    1    3    3    0    0 -0.43225598100E+01 -0.45331509019E+01  0.43140891541E+02  0.43593239194E+02  0.00000000000E+00 0.  1.
</event>
<event>
 7    1  0.2405891E-015  0.9000800E+02  0.7816164E-02  0.1186339E+00
        -11   -1    0    0    0    0  0.00000000000E+00  0.00000000000E+00  0.45593999997E+02  0.45594000000E+02  0.51100000000E-03 0.  1.
         11   -1    0    0    0    0 -0.00000000000E+00 -0.00000000000E+00 -0.45593999997E+02  0.45594000000E+02  0.51100000000E-03 0. -1.
    9900012    2    1    2    0    0  0.11118962634E+01  0.62758875186E-02 -0.39504111434E+00  0.90007995691E+02  0.90000260434E+02 0.  0.
        -12    1    1    2    0    0 -0.11118962634E+01 -0.62758875186E-02  0.39504111434E+00  0.11800043090E+01  0.00000000000E+00 0.  1.
         11    1    3    3    0    0 -0.20294327684E+01 -0.33931120666E+02 -0.15893512876E+02  0.37523903033E+02  0.51100000000E-03 0. -1.
        -11    1    3    3    0    0  0.17903552783E+01 -0.27284521518E+01 -0.81863339001E+01  0.88128250949E+01  0.51100000000E-03 0.  1.
        -12    1    3    3    0    0  0.13509737535E+01  0.36665848705E+02  0.23684805662E+02  0.43671267563E+02  0.00000000000E+00 0.  1.
</event>
<event>
 7    1  0.2782768E-015  0.9000772E+02  0.7816164E-02  0.1186339E+00
        -11   -1    0    0    0    0  0.00000000000E+00  0.00000000000E+00  0.45593999997E+02  0.45594000000E+02  0.51100000000E-03 0. -1.
         11   -1    0    0    0    0 -0.00000000000E+00 -0.00000000000E+00 -0.45593999997E+02  0.45594000000E+02  0.51100000000E-03 0.  1.
    9900012    2    1    2    0    0  0.10709828022E+01  0.16020786553E+00  0.46945752521E+00  0.90007719910E+02  0.89999981013E+02 0.  0.
        -12    1    1    2    0    0 -0.10709828022E+01 -0.16020786553E+00 -0.46945752521E+00  0.11802800899E+01  0.00000000000E+00 0.  1.
         11    1    3    3    0    0 -0.13370034163E+01 -0.66253657003E+01 -0.69219209187E+01  0.96745045487E+01  0.51100000000E-03 0. -1.
        -11    1    3    3    0    0  0.19762606831E+02 -0.25707670116E+02 -0.16544038597E+02  0.36402611786E+02  0.51100000000E-03 0.  1.
         12    1    3    3    0    0 -0.17354620612E+02  0.32493243682E+02  0.23935417041E+02  0.43930603575E+02  0.00000000000E+00 0. -1.
</event>
<event>
 7    1  0.2405891E-015  0.9000773E+02  0.7816164E-02  0.1186339E+00
        -11   -1    0    0    0    0  0.00000000000E+00  0.00000000000E+00  0.45593999997E+02  0.45594000000E+02  0.51100000000E-03 0. -1.
         11   -1    0    0    0    0 -0.00000000000E+00 -0.00000000000E+00 -0.45593999997E+02  0.45594000000E+02  0.51100000000E-03 0.  1.
    9900012    2    1    2    0    0  0.12968982725E+00 -0.75606884780E+00  0.89698534031E+00  0.90007727890E+02  0.89999989098E+02 0.  0.
        -12    1    1    2    0    0 -0.12968982725E+00  0.75606884780E+00 -0.89698534031E+00  0.11802721104E+01  0.00000000000E+00 0.  1.
         11    1    3    3    0    0  0.21591914309E+01 -0.16545690167E+02 -0.32241609590E+02  0.36303489639E+02  0.51100000000E-03 0. -1.
        -11    1    3    3    0    0 -0.45380587994E+01 -0.12391676507E+02  0.15529344444E+02  0.20379110958E+02  0.51100000000E-03 0.  1.
        -12    1    3    3    0    0  0.25085571958E+01  0.28181297826E+02  0.17609250487E+02  0.33325127293E+02  0.00000000000E+00 0.  1.
</event>
<event>
 7    1  0.2405891E-015  0.9000781E+02  0.7816164E-02  0.1186339E+00
        -11   -1    0    0    0    0  0.00000000000E+00  0.00000000000E+00  0.45593999997E+02  0.45594000000E+02  0.51100000000E-03 0. -1.
         11   -1    0    0    0    0 -0.00000000000E+00 -0.00000000000E+00 -0.45593999997E+02  0.45594000000E+02  0.51100000000E-03 0.  1.
    9900012    2    1    2    0    0  0.54499449092E+00  0.97359468721E+00 -0.38462150763E+00  0.90007813865E+02  0.90000076208E+02 0.  0.
        -12    1    1    2    0    0 -0.54499449092E+00 -0.97359468721E+00  0.38462150763E+00  0.11801861354E+01  0.00000000000E+00 0.  1.
         11    1    3    3    0    0 -0.86883115608E+01  0.63754826195E+01  0.72617936601E+01  0.12994890682E+02  0.51100000000E-03 0. -1.
        -11    1    3    3    0    0 -0.27872747688E+02  0.10196748713E+02 -0.18939241500E+02  0.35207365946E+02  0.51100000000E-03 0.  1.
         12    1    3    3    0    0  0.37106053740E+02 -0.15598636646E+02  0.11292826332E+02  0.41805557237E+02  0.00000000000E+00 0. -1.
</event>
<event>
 7    1  0.2405891E-015  0.9000774E+02  0.7816164E-02  0.1186339E+00
        -11   -1    0    0    0    0  0.00000000000E+00  0.00000000000E+00  0.45593999997E+02  0.45594000000E+02  0.51100000000E-03 0.  1.
         11   -1    0    0    0    0 -0.00000000000E+00 -0.00000000000E+00 -0.45593999997E+02  0.45594000000E+02  0.51100000000E-03 0. -1.
    9900012    2    1    2    0    0  0.10099285243E+01 -0.59788214711E+00 -0.12483881396E+00  0.90007744343E+02  0.90000005768E+02 0.  0.
        -12    1    1    2    0    0 -0.10099285243E+01  0.59788214711E+00  0.12483881396E+00  0.11802556569E+01  0.00000000000E+00 0.  1.
         11    1    3    3    0    0 -0.14999197083E+01  0.80518165106E+01 -0.10000716559E+02  0.12926555620E+02  0.51100000000E-03 0. -1.
        -11    1    3    3    0    0  0.26374987034E+02  0.23576410035E+02  0.10741418195E+02  0.36971138963E+02  0.51100000000E-03 0.  1.
         12    1    3    3    0    0 -0.23865138801E+02 -0.32226108693E+02 -0.86554045040E+00  0.40110049760E+02  0.00000000000E+00 0. -1.
</event>
<event>
 7    1  0.2405891E-015  0.9000774E+02  0.7816164E-02  0.1186339E+00
        -11   -1    0    0    0    0  0.00000000000E+00  0.00000000000E+00  0.45593999997E+02  0.45594000000E+02  0.51100000000E-03 0. -1.
         11   -1    0    0    0    0 -0.00000000000E+00 -0.00000000000E+00 -0.45593999997E+02  0.45594000000E+02  0.51100000000E-03 0.  1.
    9900012    2    1    2    0    0  0.36962874065E+00 -0.11090727017E+01  0.16232954489E+00  0.90007737934E+02  0.89999999275E+02 0.  0.
        -12    1    1    2    0    0 -0.36962874065E+00  0.11090727017E+01 -0.16232954489E+00  0.11802620661E+01  0.00000000000E+00 0.  1.
         11    1    3    3    0    0 -0.68795636518E+01  0.45958577496E+01 -0.21153445503E+01  0.85396128321E+01  0.51100000000E-03 0. -1.
        -11    1    3    3    0    0 -0.44402344479E+01 -0.20577844529E+02 -0.34324961161E+02  0.40266193343E+02  0.51100000000E-03 0.  1.
         12    1    3    3    0    0  0.11689426840E+02  0.14872914077E+02  0.36602635256E+02  0.41201931759E+02  0.00000000000E+00 0. -1.
</event>
<event>
 7    1  0.2405891E-015  0.9000767E+02  0.7816164E-02  0.1186339E+00
        -11   -1    0    0    0    0  0.00000000000E+00  0.00000000000E+00  0.45593999997E+02  0.45594000000E+02  0.51100000000E-03 0. -1.
         11   -1    0    0    0    0 -0.00000000000E+00 -0.00000000000E+00 -0.45593999997E+02  0.45594000000E+02  0.51100000000E-03 0.  1.
    9900012    2    1    2    0    0 -0.10205951565E+01 -0.59284037134E+00 -0.10426433794E-01  0.90007668314E+02  0.89999928735E+02 0.  0.
        -12    1    1    2    0    0  0.10205951565E+01  0.59284037134E+00  0.10426433794E-01  0.11803316864E+01  0.00000000000E+00 0.  1.
         11    1    3    3    0    0  0.74863334557E+00 -0.42704034807E+01  0.11235688448E+02  0.12043151287E+02  0.51100000000E-03 0. -1.
        -11    1    3    3    0    0 -0.17833538767E+02 -0.13441673196E+02 -0.36936862605E+02  0.43163010815E+02  0.51100000000E-03 0.  1.
         12    1    3    3    0    0  0.16064310265E+02  0.17119236305E+02  0.25690747724E+02  0.34801506211E+02  0.00000000000E+00 0. -1.
</event>
<event>
 7    1  0.2405891E-015  0.9000787E+02  0.7816164E-02  0.1186339E+00
        -11   -1    0    0    0    0  0.00000000000E+00  0.00000000000E+00  0.45593999997E+02  0.45594000000E+02  0.51100000000E-03 0.  1.
         11   -1    0    0    0    0 -0.00000000000E+00 -0.00000000000E+00 -0.45593999997E+02  0.45594000000E+02  0.51100000000E-03 0. -1.
    9900012    2    1    2    0    0  0.52050331881E+00 -0.81251717337E+00  0.67941054492E+00  0.90007870113E+02  0.90000133198E+02 0.  0.
        -12    1    1    2    0    0 -0.52050331881E+00  0.81251717337E+00 -0.67941054492E+00  0.11801298871E+01  0.00000000000E+00 0.  1.
         11    1    3    3    0    0 -0.38998366821E+02 -0.61197468891E+01  0.99533232263E+01  0.40711086454E+02  0.51100000000E-03 0. -1.
        -11    1    3    3    0    0  0.37456959636E+01 -0.43233156473E+01  0.68233068646E+01  0.89038650747E+01  0.51100000000E-03 0.  1.
        -12    1    3    3    0    0  0.35773174177E+02  0.96305453630E+01 -0.16097219546E+02  0.40392918585E+02  0.00000000000E+00 0.  1.
</event>
<event>
 7    1  0.2405891E-015  0.9000785E+02  0.7816164E-02  0.1186339E+00
        -11   -1    0    0    0    0  0.00000000000E+00  0.00000000000E+00  0.45593999997E+02  0.45594000000E+02  0.51100000000E-03 0. -1.
         11   -1    0    0    0    0 -0.00000000000E+00 -0.00000000000E+00 -0.45593999997E+02  0.45594000000E+02  0.51100000000E-03 0.  1.
    9900012    2    1    2    0    0 -0.11995092971E+00 -0.10041792728E+01  0.60826798694E+00  0.90007849933E+02  0.90000112752E+02 0.  0.
        -12    1    1    2    0    0  0.11995092971E+00  0.10041792728E+01 -0.60826798694E+00  0.11801500673E+01  0.00000000000E+00 0.  1.
         11    1    3    3    0    0  0.34662487716E+01  0.10187221427E+01 -0.74832390210E+01  0.83097257389E+01  0.51100000000E-03 0. -1.
        -11    1    3    3    0    0 -0.16702087420E+02 -0.38075834429E+02  0.11621166853E+02  0.43171523148E+02  0.51100000000E-03 0.  1.
         12    1    3    3    0    0  0.13115887719E+02  0.36052933013E+02 -0.35296598452E+01  0.38526601046E+02  0.00000000000E+00 0. -1.
</event>
<event>
 7    1  0.2625176E-015  0.9000776E+02  0.7816164E-02  0.1186339E+00
        -11   -1    0    0    0    0  0.00000000000E+00  0.00000000000E+00  0.45593999997E+02  0.45594000000E+02  0.51100000000E-03 0. -1.
         11   -1    0    0    0    0 -0.00000000000E+00 -0.00000000000E+00 -0.45593999997E+02  0.45594000000E+02  0.51100000000E-03 0.  1.
    9900012    2    1    2    0    0 -0.36118743804E-01  0.17673982689E+00  0.11663714800E+01  0.90007761058E+02  0.90000022704E+02 0.  0.
        -12    1    1    2    0    0  0.36118743804E-01 -0.17673982689E+00 -0.11663714800E+01  0.11802389417E+01  0.00000000000E+00 0.  1.
         11    1    3    3    0    0  0.24776398346E+01 -0.54204214242E+01 -0.70689814953E+01  0.92460892927E+01  0.51100000000E-03 0. -1.
        -11    1    3    3    0    0 -0.49467283042E+01  0.40913039033E+02 -0.77278144726E+01  0.41929297641E+02  0.51100000000E-03 0.  1.
         12    1    3    3    0    0  0.24329697257E+01 -0.35315877782E+02  0.15963167448E+02  0.38832374125E+02  0.00000000000E+00 0. -1.
</event>
<event>
 7    1  0.2771885E-015  0.9000774E+02  0.7816164E-02  0.1186339E+00
        -11   -1    0    0    0    0  0.00000000000E+00  0.00000000000E+00  0.45593999997E+02  0.45594000000E+02  0.51100000000E-03 0. -1.
         11   -1    0    0    0    0 -0.00000000000E+00 -0.00000000000E+00 -0.45593999997E+02  0.45594000000E+02  0.51100000000E-03 0.  1.
    9900012    2    1    2    0    0  0.78684205341E+00  0.85373617918E+00  0.21220006239E+00  0.90007739543E+02  0.90000000905E+02 0.  0.
        -12    1    1    2    0    0 -0.78684205341E+00 -0.85373617918E+00 -0.21220006239E+00  0.11802604573E+01  0.00000000000E+00 0.  1.
         11    1    3    3    0    0  0.96939438268E+01  0.26729517805E+00 -0.80328688220E+00  0.97308408530E+01  0.51100000000E-03 0. -1.
        -11    1    3    3    0    0 -0.11151879769E+02  0.72447617356E+01 -0.38193914865E+02  0.40442874872E+02  0.51100000000E-03 0.  1.
         12    1    3    3    0    0  0.22447779959E+01 -0.66583207344E+01  0.39209401809E+02  0.39834023817E+02  0.00000000000E+00 0. -1.
</event>
<event>
 7    1  0.2405891E-015  0.9000777E+02  0.7816164E-02  0.1186339E+00
        -11   -1    0    0    0    0  0.00000000000E+00  0.00000000000E+00  0.45593999997E+02  0.45594000000E+02  0.51100000000E-03 0.  1.
         11   -1    0    0    0    0 -0.00000000000E+00 -0.00000000000E+00 -0.45593999997E+02  0.45594000000E+02  0.51100000000E-03 0. -1.
    9900012    2    1    2    0    0  0.17149018852E+00 -0.60326572278E+00 -0.99980229287E+00  0.90007769920E+02  0.90000031683E+02 0.  0.
        -12    1    1    2    0    0 -0.17149018852E+00  0.60326572278E+00  0.99980229287E+00  0.11802300801E+01  0.00000000000E+00 0.  1.
         11    1    3    3    0    0 -0.13863598447E+02 -0.33725481332E+02 -0.71817982812E+01  0.37164306529E+02  0.51100000000E-03 0. -1.
        -11    1    3    3    0    0 -0.83242163303E+01 -0.38714398197E+01  0.21587433258E+01  0.94308428467E+01  0.51100000000E-03 0.  1.
        -12    1    3    3    0    0  0.22359304966E+02  0.36993655429E+02  0.40232526625E+01  0.43412620544E+02  0.00000000000E+00 0.  1.
</event>
<event>
 7    1  0.2405891E-015  0.9000771E+02  0.7816164E-02  0.1186339E+00
        -11   -1    0    0    0    0  0.00000000000E+00  0.00000000000E+00  0.45593999997E+02  0.45594000000E+02  0.51100000000E-03 0.  1.
         11   -1    0    0    0    0 -0.00000000000E+00 -0.00000000000E+00 -0.45593999997E+02  0.45594000000E+02  0.51100000000E-03 0. -1.
    9900012    2    1    2    0    0  0.28245789959E+00 -0.68913109848E+00 -0.91564589094E+00  0.90007707014E+02  0.89999967946E+02 0.  0.
        -12    1    1    2    0    0 -0.28245789959E+00  0.68913109848E+00  0.91564589094E+00  0.11802929863E+01  0.00000000000E+00 0.  1.
         11    1    3    3    0    0  0.18536301357E+02  0.30982563846E+02 -0.10680010998E+02  0.37650715340E+02  0.51100000000E-03 0. -1.
        -11    1    3    3    0    0  0.87596989553E+01 -0.42476088930E+00 -0.27615386196E+01  0.91945007156E+01  0.51100000000E-03 0.  1.
        -12    1    3    3    0    0 -0.27013542412E+02 -0.31246934055E+02  0.12525903727E+02  0.43162490958E+02  0.00000000000E+00 0.  1.
</event>
<event>
 7    1  0.2405891E-015  0.9000771E+02  0.7816164E-02  0.1186339E+00
        -11   -1    0    0    0    0  0.00000000000E+00  0.00000000000E+00  0.45593999997E+02  0.45594000000E+02  0.51100000000E-03 0.  1.
         11   -1    0    0    0    0 -0.00000000000E+00 -0.00000000000E+00 -0.45593999997E+02  0.45594000000E+02  0.51100000000E-03 0. -1.
    9900012    2    1    2    0    0  0.99632488995E+00 -0.62895860413E+00 -0.69550762688E-01  0.90007707866E+02  0.89999968810E+02 0.  0.
        -12    1    1    2    0    0 -0.99632488995E+00  0.62895860413E+00  0.69550762688E-01  0.11802921336E+01  0.00000000000E+00 0.  1.
         11    1    3    3    0    0 -0.35542975613E+02 -0.85614154429E+01 -0.67554640136E+01  0.37178451341E+02  0.51100000000E-03 0. -1.
        -11    1    3    3    0    0 -0.21205725945E+01 -0.96106300389E+01  0.25975235279E+01  0.10178809685E+02  0.51100000000E-03 0.  1.
        -12    1    3    3    0    0  0.38659873098E+02  0.17543086878E+02  0.40883897230E+01  0.42650446840E+02  0.00000000000E+00 0.  1.
</event>
<event>
 7    1  0.2405891E-015  0.9000772E+02  0.7816164E-02  0.1186339E+00
        -11   -1    0    0    0    0  0.00000000000E+00  0.00000000000E+00  0.45593999997E+02  0.45594000000E+02  0.51100000000E-03 0.  1.
         11   -1    0    0    0    0 -0.00000000000E+00 -0.00000000000E+00 -0.45593999997E+02  0.45594000000E+02  0.51100000000E-03 0. -1.
    9900012    2    1    2    0    0 -0.10567329744E+01  0.91777201351E-01  0.51763751782E+00  0.90007721968E+02  0.89999983098E+02 0.  0.
        -12    1    1    2    0    0  0.10567329744E+01 -0.91777201351E-01 -0.51763751782E+00  0.11802780324E+01  0.00000000000E+00 0.  1.
         11    1    3    3    0    0 -0.14057123734E+01 -0.40999559510E+01 -0.10038213480E+02  0.10933956109E+02  0.51100000000E-03 0. -1.
        -11    1    3    3    0    0  0.38608043286E+02  0.48643066107E+01 -0.15364129116E+01  0.38943588049E+02  0.51100000000E-03 0.  1.
         12    1    3    3    0    0 -0.38259063887E+02 -0.67257345836E+00  0.12092263909E+02  0.40130177810E+02  0.00000000000E+00 0. -1.
</event>
<event>
 7    1  0.2505491E-015  0.9000763E+02  0.7816164E-02  0.1186339E+00
        -11   -1    0    0    0    0  0.00000000000E+00  0.00000000000E+00  0.45593999997E+02  0.45594000000E+02  0.51100000000E-03 0. -1.
         11   -1    0    0    0    0 -0.00000000000E+00 -0.00000000000E+00 -0.45593999997E+02  0.45594000000E+02  0.51100000000E-03 0.  1.
    9900012    2    1    2    0    0  0.70691741816E+00  0.51512718069E+00  0.79258053590E+00  0.90007630501E+02  0.89999890423E+02 0.  0.
        -12    1    1    2    0    0 -0.70691741816E+00 -0.51512718069E+00 -0.79258053590E+00  0.11803694990E+01  0.00000000000E+00 0.  1.
         11    1    3    3    0    0  0.11458811896E+00  0.83971180583E+01 -0.34329535004E+01  0.90724799321E+01  0.51100000000E-03 0. -1.
        -11    1    3    3    0    0  0.28142694717E+02  0.16007955159E+02 -0.19153877677E+02  0.37618305712E+02  0.51100000000E-03 0.  1.
         12    1    3    3    0    0 -0.27550365417E+02 -0.23889946037E+02  0.23379411714E+02  0.43316844857E+02  0.00000000000E+00 0. -1.
</event>
<event>
 7    1  0.2405891E-015  0.9000773E+02  0.7816164E-02  0.1186339E+00
        -11   -1    0    0    0    0  0.00000000000E+00  0.00000000000E+00  0.45593999997E+02  0.45594000000E+02  0.51100000000E-03 0.  1.
         11   -1    0    0    0    0 -0.00000000000E+00 -0.00000000000E+00 -0.45593999997E+02  0.45594000000E+02  0.51100000000E-03 0. -1.
    9900012    2    1    2    0    0 -0.22609246632E+00  0.45186322730E+00 -0.10666462276E+01  0.90007732084E+02  0.89999993347E+02 0.  0.
        -12    1    1    2    0    0  0.22609246632E+00 -0.45186322730E+00  0.10666462276E+01  0.11802679163E+01  0.00000000000E+00 0.  1.
         11    1    3    3    0    0 -0.37429214480E+01 -0.21442959740E+01 -0.37940395673E+02  0.38184828011E+02  0.51100000000E-03 0. -1.
        -11    1    3    3    0    0  0.44457931787E+01  0.10401462361E+02 -0.25729520920E+01  0.11600671488E+02  0.51100000000E-03 0.  1.
        -12    1    3    3    0    0 -0.92896419701E+00 -0.78053031600E+01  0.39446701537E+02  0.40222232584E+02  0.00000000000E+00 0.  1.
</event>
<event>
 7    1  0.2405891E-015  0.9000759E+02  0.7816164E-02  0.1186339E+00
        -11   -1    0    0    0    0  0.00000000000E+00  0.00000000000E+00  0.45593999997E+02  0.45594000000E+02  0.51100000000E-03 0. -1.
         11   -1    0    0    0    0 -0.00000000000E+00 -0.00000000000E+00 -0.45593999997E+02  0.45594000000E+02  0.51100000000E-03 0.  1.
    9900012    2    1    2    0    0  0.31408519198E+00 -0.11054234794E+01  0.26973696766E+00  0.90007589644E+02  0.89999849027E+02 0.  0.
        -12    1    1    2    0    0 -0.31408519198E+00  0.11054234794E+01 -0.26973696766E+00  0.11804103559E+01  0.00000000000E+00 0.  1.
         11    1    3    3    0    0 -0.49782636104E+01 -0.79490395296E+01  0.66338057213E+01  0.11488155493E+02  0.51100000000E-03 0. -1.
        -11    1    3    3    0    0 -0.12817550896E+02 -0.27698456249E+02 -0.20797536994E+02  0.36932798903E+02  0.51100000000E-03 0.  1.
         12    1    3    3    0    0  0.18109899698E+02  0.34542072299E+02  0.14433468240E+02  0.41586635248E+02  0.00000000000E+00 0. -1.
</event>
<event>
 7    1  0.2405891E-015  0.9000835E+02  0.7816164E-02  0.1186338E+00
        -11   -1    0    0    0    0  0.00000000000E+00  0.00000000000E+00  0.45593999997E+02  0.45594000000E+02  0.51100000000E-03 0.  1.
         11   -1    0    0    0    0 -0.00000000000E+00 -0.00000000000E+00 -0.45593999997E+02  0.45594000000E+02  0.51100000000E-03 0. -1.
    9900012    2    1    2    0    0 -0.11687486664E+01  0.12013363530E+00  0.10571957963E+00  0.90008346591E+02  0.90000615964E+02 0.  0.
        -12    1    1    2    0    0  0.11687486664E+01 -0.12013363530E+00 -0.10571957963E+00  0.11796534089E+01  0.00000000000E+00 0.  1.
         11    1    3    3    0    0 -0.39235379292E+01  0.47445694809E+01  0.58306406718E+01  0.84794728814E+01  0.51100000000E-03 0. -1.
        -11    1    3    3    0    0  0.34781110643E+02  0.18575010808E+02  0.68722485680E+01  0.40024798372E+02  0.51100000000E-03 0.  1.
         12    1    3    3    0    0 -0.32026321380E+02 -0.23199446654E+02 -0.12597169660E+02  0.41504075338E+02  0.00000000000E+00 0. -1.
</event>
<event>
 7    1  0.2405891E-015  0.9000764E+02  0.7816164E-02  0.1186339E+00
        -11   -1    0    0    0    0  0.00000000000E+00  0.00000000000E+00  0.45593999997E+02  0.45594000000E+02  0.51100000000E-03 0. -1.
         11   -1    0    0    0    0 -0.00000000000E+00 -0.00000000000E+00 -0.45593999997E+02  0.45594000000E+02  0.51100000000E-03 0.  1.
    9900012    2    1    2    0    0 -0.36487888158E+00  0.93985744193E+00  0.61382977496E+00  0.90007637512E+02  0.89999897528E+02 0.  0.
        -12    1    1    2    0    0  0.36487888158E+00 -0.93985744193E+00 -0.61382977496E+00  0.11803624875E+01  0.00000000000E+00 0.  1.
         11    1    3    3    0    0 -0.83567252600E+01 -0.99181602141E+01  0.30673252285E+02  0.33302449837E+02  0.51100000000E-03 0. -1.
        -11    1    3    3    0    0 -0.10684671650E+02 -0.10727501149E+01  0.74976256236E+01  0.13096846618E+02  0.51100000000E-03 0.  1.
        -12    1    3    3    0    0  0.18676518028E+02  0.11930767771E+02 -0.37557048134E+02  0.43608341058E+02  0.00000000000E+00 0.  1.
</event>
<event>
 7    1  0.2405891E-015  0.9000777E+02  0.7816164E-02  0.1186339E+00
        -11   -1    0    0    0    0  0.00000000000E+00  0.00000000000E+00  0.45593999997E+02  0.45594000000E+02  0.51100000000E-03 0.  1.
         11   -1    0    0    0    0 -0.00000000000E+00 -0.00000000000E+00 -0.45593999997E+02  0.45594000000E+02  0.51100000000E-03 0. -1.
    9900012    2    1    2    0    0 -0.63069395470E+00  0.93188621812E+00  0.35603048153E+00  0.90007769306E+02  0.90000031061E+02 0.  0.
        -12    1    1    2    0    0  0.63069395470E+00 -0.93188621812E+00 -0.35603048153E+00  0.11802306943E+01  0.00000000000E+00 0.  1.
         11    1    3    3    0    0 -0.27076187468E+02  0.10449623903E+02  0.23730519993E+02  0.37489360449E+02  0.51100000000E-03 0. -1.
        -11    1    3    3    0    0 -0.86599317810E+01  0.37711145767E+01 -0.37612882686E+01  0.10166760217E+02  0.51100000000E-03 0.  1.
        -12    1    3    3    0    0  0.35105425294E+02 -0.13288852261E+02 -0.19613201243E+02  0.42351648640E+02  0.00000000000E+00 0.  1.
</event>
<event>
 7    1  0.2426326E-015  0.9000791E+02  0.7816164E-02  0.1186339E+00
        -11   -1    0    0    0    0  0.00000000000E+00  0.00000000000E+00  0.45593999997E+02  0.45594000000E+02  0.51100000000E-03 0. -1.
         11   -1    0    0    0    0 -0.00000000000E+00 -0.00000000000E+00 -0.45593999997E+02  0.45594000000E+02  0.51100000000E-03 0.  1.
    9900012    2    1    2    0    0  0.84729707113E+00 -0.63539140050E+00  0.52055670362E+00  0.90007909393E+02  0.90000172997E+02 0.  0.
        -12    1    1    2    0    0 -0.84729707113E+00  0.63539140050E+00 -0.52055670362E+00  0.11800906068E+01  0.00000000000E+00 0.  1.
         11    1    3    3    0    0 -0.22525312975E+01  0.93971190131E+01 -0.15502414566E+01  0.97868785538E+01  0.51100000000E-03 0. -1.
        -11    1    3    3    0    0 -0.23396164121E+02 -0.18527870468E+01 -0.29828033699E+02  0.37954247589E+02  0.51100000000E-03 0.  1.
         12    1    3    3    0    0  0.26495992489E+02 -0.81797233668E+01  0.31898831860E+02  0.42266783251E+02  0.00000000000E+00 0. -1.
</event>
<event>
 7    1  0.2405891E-015  0.9000795E+02  0.7816164E-02  0.1186339E+00
        -11   -1    0    0    0    0  0.00000000000E+00  0.00000000000E+00  0.45593999997E+02  0.45594000000E+02  0.51100000000E-03 0.  1.
         11   -1    0    0    0    0 -0.00000000000E+00 -0.00000000000E+00 -0.45593999997E+02  0.45594000000E+02  0.51100000000E-03 0. -1.
    9900012    2    1    2    0    0 -0.17419567855E+00 -0.38028255949E+00 -0.11034271207E+01  0.90007953234E+02  0.90000217416E+02 0.  0.
        -12    1    1    2    0    0  0.17419567855E+00  0.38028255949E+00  0.11034271207E+01  0.11800467661E+01  0.00000000000E+00 0.  1.
         11    1    3    3    0    0  0.13345794804E+02  0.12533921471E+01  0.50121333907E+01  0.14310929816E+02  0.51100000000E-03 0. -1.
        -11    1    3    3    0    0 -0.65009202304E+01  0.31358124580E+02  0.15557752292E+02  0.35603898630E+02  0.51100000000E-03 0.  1.
         12    1    3    3    0    0 -0.70190702518E+01 -0.32991799286E+02 -0.21673312804E+02  0.40093124788E+02  0.00000000000E+00 0. -1.
</event>
<event>
 7    1  0.2405891E-015  0.9000778E+02  0.7816164E-02  0.1186339E+00
        -11   -1    0    0    0    0  0.00000000000E+00  0.00000000000E+00  0.45593999997E+02  0.45594000000E+02  0.51100000000E-03 0. -1.
         11   -1    0    0    0    0 -0.00000000000E+00 -0.00000000000E+00 -0.45593999997E+02  0.45594000000E+02  0.51100000000E-03 0.  1.
    9900012    2    1    2    0    0  0.18578337801E+00  0.11467888661E+01 -0.20804681760E+00  0.90007778137E+02  0.90000040009E+02 0.  0.
        -12    1    1    2    0    0 -0.18578337801E+00 -0.11467888661E+01  0.20804681760E+00  0.11802218627E+01  0.00000000000E+00 0.  1.
         11    1    3    3    0    0  0.35248181471E+01  0.48820752413E+01 -0.81384993231E+01  0.10123940593E+02  0.51100000000E-03 0. -1.
        -11    1    3    3    0    0  0.22952119697E+02  0.27764964796E+02 -0.60685080552E+01  0.36531080726E+02  0.51100000000E-03 0.  1.
         12    1    3    3    0    0 -0.26291154466E+02 -0.31500251171E+02  0.13998960561E+02  0.43352756819E+02  0.00000000000E+00 0. -1.
</event>
<event>
 7    1  0.2405891E-015  0.9000775E+02  0.7816164E-02  0.1186339E+00
        -11   -1    0    0    0    0  0.00000000000E+00  0.00000000000E+00  0.45593999997E+02  0.45594000000E+02  0.51100000000E-03 0.  1.
         11   -1    0    0    0    0 -0.00000000000E+00 -0.00000000000E+00 -0.45593999997E+02  0.45594000000E+02  0.51100000000E-03 0. -1.
    9900012    2    1    2    0    0  0.62417434388E+00 -0.82456007563E+00 -0.56877839030E+00  0.90007745033E+02  0.90000006467E+02 0.  0.
        -12    1    1    2    0    0 -0.62417434388E+00  0.82456007563E+00  0.56877839030E+00  0.11802549670E+01  0.00000000000E+00 0.  1.
         11    1    3    3    0    0 -0.80465399401E+01  0.16768781114E+01 -0.83588907258E+01  0.11723044811E+02  0.51100000000E-03 0. -1.
        -11    1    3    3    0    0 -0.33619680702E+02  0.24175668605E+01  0.11336284694E+02  0.35561761921E+02  0.51100000000E-03 0.  1.
         12    1    3    3    0    0  0.42290394986E+02 -0.49190050475E+01 -0.35461723584E+01  0.42722938301E+02  0.00000000000E+00 0. -1.
</event>
<event>
 7    1  0.2405891E-015  0.9000730E+02  0.7816164E-02  0.1186340E+00
        -11   -1    0    0    0    0  0.00000000000E+00  0.00000000000E+00  0.45593999997E+02  0.45594000000E+02  0.51100000000E-03 0.  1.
         11   -1    0    0    0    0 -0.00000000000E+00 -0.00000000000E+00 -0.45593999997E+02  0.45594000000E+02  0.51100000000E-03 0. -1.
    9900012    2    1    2    0    0  0.70079070547E+00 -0.73234256608E+00  0.60549949479E+00  0.90007295598E+02  0.89999551099E+02 0.  0.
        -12    1    1    2    0    0 -0.70079070547E+00  0.73234256608E+00 -0.60549949479E+00  0.11807044021E+01  0.00000000000E+00 0.  1.
         11    1    3    3    0    0 -0.54301721250E+01  0.23472971355E+01 -0.36440694986E+02  0.36917757576E+02  0.51100000000E-03 0. -1.
        -11    1    3    3    0    0 -0.83638111178E+00  0.86718729367E+01 -0.41768694813E+01  0.96616330151E+01  0.51100000000E-03 0.  1.
        -12    1    3    3    0    0  0.69673439423E+01 -0.11751512638E+02  0.41223063962E+02  0.43427905007E+02  0.00000000000E+00 0.  1.
</event>
<event>
 7    1  0.2405891E-015  0.9000787E+02  0.7816164E-02  0.1186339E+00
        -11   -1    0    0    0    0  0.00000000000E+00  0.00000000000E+00  0.45593999997E+02  0.45594000000E+02  0.51100000000E-03 0.  1.
         11   -1    0    0    0    0 -0.00000000000E+00 -0.00000000000E+00 -0.45593999997E+02  0.45594000000E+02  0.51100000000E-03 0. -1.
    9900012    2    1    2    0    0 -0.29738730530E+00  0.42994379037E+00 -0.10580189854E+01  0.90007874987E+02  0.90000138137E+02 0.  0.
        -12    1    1    2    0    0  0.29738730530E+00 -0.42994379037E+00  0.10580189854E+01  0.11801250127E+01  0.00000000000E+00 0.  1.
         11    1    3    3    0    0  0.33362806102E+01  0.86719228958E+01 -0.27461845515E+01  0.96888877005E+01  0.51100000000E-03 0. -1.
        -11    1    3    3    0    0 -0.79431360211E+01  0.35109631415E+02  0.61769457229E+01  0.36523065132E+02  0.51100000000E-03 0.  1.
         12    1    3    3    0    0  0.43094681056E+01 -0.43351610520E+02 -0.44887801568E+01  0.43795922154E+02  0.00000000000E+00 0. -1.
</event>
<event>
 7    1  0.2405891E-015  0.9000751E+02  0.7816164E-02  0.1186339E+00
        -11   -1    0    0    0    0  0.00000000000E+00  0.00000000000E+00  0.45593999997E+02  0.45594000000E+02  0.51100000000E-03 0.  1.
         11   -1    0    0    0    0 -0.00000000000E+00 -0.00000000000E+00 -0.45593999997E+02  0.45594000000E+02  0.51100000000E-03 0. -1.
    9900012    2    1    2    0    0 -0.40221513870E+00 -0.61526708849E+00 -0.92369692383E+00  0.90007514246E+02  0.89999772634E+02 0.  0.
        -12    1    1    2    0    0  0.40221513870E+00  0.61526708849E+00  0.92369692383E+00  0.11804857539E+01  0.00000000000E+00 0.  1.
         11    1    3    3    0    0 -0.19900859619E+02  0.19830845052E+02 -0.22114524822E+02  0.35754144339E+02  0.51100000000E-03 0. -1.
        -11    1    3    3    0    0  0.20579382198E+01  0.12375374491E+02  0.31294569523E+01  0.12929752688E+02  0.51100000000E-03 0.  1.
        -12    1    3    3    0    0  0.17440706261E+02 -0.32821486632E+02  0.18061370946E+02  0.41323617219E+02  0.00000000000E+00 0.  1.
</event>
<event>
 7    1  0.2405891E-015  0.9000770E+02  0.7816164E-02  0.1186339E+00
        -11   -1    0    0    0    0  0.00000000000E+00  0.00000000000E+00  0.45593999997E+02  0.45594000000E+02  0.51100000000E-03 0.  1.
         11   -1    0    0    0    0 -0.00000000000E+00 -0.00000000000E+00 -0.45593999997E+02  0.45594000000E+02  0.51100000000E-03 0. -1.
    9900012    2    1    2    0    0  0.92052286915E+00 -0.86659387159E-01 -0.73363771112E+00  0.90007704913E+02  0.89999965818E+02 0.  0.
        -12    1    1    2    0    0 -0.92052286915E+00  0.86659387159E-01  0.73363771112E+00  0.11802950873E+01  0.00000000000E+00 0.  1.
         11    1    3    3    0    0  0.23330955216E-01  0.72787613791E+00  0.87627082317E+01  0.87929178218E+01  0.51100000000E-03 0. -1.
        -11    1    3    3    0    0  0.57784218617E+01  0.26330262821E+02  0.25193640740E+02  0.36897051825E+02  0.51100000000E-03 0.  1.
         12    1    3    3    0    0 -0.48812299477E+01 -0.27144798346E+02 -0.34689986683E+02  0.44317735266E+02  0.00000000000E+00 0. -1.
</event>
<event>
 7    1  0.2405891E-015  0.9000784E+02  0.7816164E-02  0.1186339E+00
        -11   -1    0    0    0    0  0.00000000000E+00  0.00000000000E+00  0.45593999997E+02  0.45594000000E+02  0.51100000000E-03 0.  1.
         11   -1    0    0    0    0 -0.00000000000E+00 -0.00000000000E+00 -0.45593999997E+02  0.45594000000E+02  0.51100000000E-03 0. -1.
    9900012    2    1    2    0    0  0.34744700846E+00 -0.22236091925E+00 -0.11057234393E+01  0.90007835551E+02  0.90000098180E+02 0.  0.
        -12    1    1    2    0    0 -0.34744700846E+00  0.22236091925E+00  0.11057234393E+01  0.11801644489E+01  0.00000000000E+00 0.  1.
         11    1    3    3    0    0  0.35134590702E+02  0.18963957134E+02  0.12222975426E+02  0.41754907047E+02  0.51100000000E-03 0. -1.
        -11    1    3    3    0    0  0.17076504359E+00 -0.38381377073E+01 -0.90541658063E+01  0.98355671148E+01  0.51100000000E-03 0.  1.
        -12    1    3    3    0    0 -0.34957908737E+02 -0.15348180346E+02 -0.42745330594E+01  0.38417361389E+02  0.00000000000E+00 0.  1.
</event>
<event>
 7    1  0.2405891E-015  0.9000790E+02  0.7816164E-02  0.1186339E+00
        -11   -1    0    0    0    0  0.00000000000E+00  0.00000000000E+00  0.45593999997E+02  0.45594000000E+02  0.51100000000E-03 0.  1.
         11   -1    0    0    0    0 -0.00000000000E+00 -0.00000000000E+00 -0.45593999997E+02  0.45594000000E+02  0.51100000000E-03 0. -1.
    9900012    2    1    2    0    0 -0.13659678163E+00 -0.66143753639E+00 -0.96771716024E+00  0.90007900514E+02  0.90000164000E+02 0.  0.
        -12    1    1    2    0    0  0.13659678163E+00  0.66143753639E+00  0.96771716024E+00  0.11800994863E+01  0.00000000000E+00 0.  1.
         11    1    3    3    0    0 -0.24920443239E+02 -0.27847401420E+02 -0.20525375754E+02  0.42635634241E+02  0.51100000000E-03 0. -1.
        -11    1    3    3    0    0 -0.35046089910E+01  0.85831325227E+01  0.36395364499E+01  0.99598531070E+01  0.51100000000E-03 0.  1.
        -12    1    3    3    0    0  0.28288455448E+02  0.18602831361E+02  0.15918122144E+02  0.37412413165E+02  0.00000000000E+00 0.  1.
</event>
<event>
 7    1  0.2405891E-015  0.9000775E+02  0.7816164E-02  0.1186339E+00
        -11   -1    0    0    0    0  0.00000000000E+00  0.00000000000E+00  0.45593999997E+02  0.45594000000E+02  0.51100000000E-03 0.  1.
         11   -1    0    0    0    0 -0.00000000000E+00 -0.00000000000E+00 -0.45593999997E+02  0.45594000000E+02  0.51100000000E-03 0. -1.
    9900012    2    1    2    0    0 -0.25615984248E+00  0.53951069013E+00 -0.10179896438E+01  0.90007748940E+02  0.90000010426E+02 0.  0.
        -12    1    1    2    0    0  0.25615984248E+00 -0.53951069013E+00  0.10179896438E+01  0.11802510600E+01  0.00000000000E+00 0.  1.
         11    1    3    3    0    0  0.10187154607E+02 -0.82078953295E+00 -0.53511067413E+01  0.11536297415E+02  0.51100000000E-03 0. -1.
        -11    1    3    3    0    0  0.16046011244E+01 -0.37026119470E+02 -0.43412310113E+01  0.37314267442E+02  0.51100000000E-03 0.  1.
         12    1    3    3    0    0 -0.12047915573E+02  0.38386419693E+02  0.86743481087E+01  0.41157184083E+02  0.00000000000E+00 0. -1.
</event>
<event>
 7    1  0.2405891E-015  0.9000757E+02  0.7816164E-02  0.1186339E+00
        -11   -1    0    0    0    0  0.00000000000E+00  0.00000000000E+00  0.45593999997E+02  0.45594000000E+02  0.51100000000E-03 0.  1.
         11   -1    0    0    0    0 -0.00000000000E+00 -0.00000000000E+00 -0.45593999997E+02  0.45594000000E+02  0.51100000000E-03 0. -1.
    9900012    2    1    2    0    0  0.87980599115E-01 -0.11120553934E+01 -0.38601486993E+00  0.90007569882E+02  0.89999829004E+02 0.  0.
        -12    1    1    2    0    0 -0.87980599115E-01  0.11120553934E+01  0.38601486993E+00  0.11804301180E+01  0.00000000000E+00 0.  1.
         11    1    3    3    0    0 -0.10813057153E+02 -0.68225842250E+01 -0.42779834369E+02  0.44649569868E+02  0.51100000000E-03 0. -1.
        -11    1    3    3    0    0  0.44048218300E+01 -0.15730061833E+01  0.56229791567E+01  0.73140070184E+01  0.51100000000E-03 0.  1.
        -12    1    3    3    0    0  0.64962159222E+01  0.72835350149E+01  0.36770840342E+02  0.38043992996E+02  0.00000000000E+00 0.  1.
</event>
<event>
 7    1  0.2405891E-015  0.9000762E+02  0.7816164E-02  0.1186339E+00
        -11   -1    0    0    0    0  0.00000000000E+00  0.00000000000E+00  0.45593999997E+02  0.45594000000E+02  0.51100000000E-03 0.  1.
         11   -1    0    0    0    0 -0.00000000000E+00 -0.00000000000E+00 -0.45593999997E+02  0.45594000000E+02  0.51100000000E-03 0. -1.
    9900012    2    1    2    0    0 -0.96087681324E+00  0.37266498980E-01 -0.68456773644E+00  0.90007616152E+02  0.89999875885E+02 0.  0.
        -12    1    1    2    0    0  0.96087681324E+00 -0.37266498980E-01  0.68456773644E+00  0.11803838477E+01  0.00000000000E+00 0.  1.
         11    1    3    3    0    0  0.41775594921E+01 -0.25702720989E+02 -0.30413471476E+02  0.40038245679E+02  0.51100000000E-03 0. -1.
        -11    1    3    3    0    0  0.19751535220E+01 -0.66810498892E+01  0.54468375787E+01  0.88433986073E+01  0.51100000000E-03 0.  1.
        -12    1    3    3    0    0 -0.71135898273E+01  0.32421037377E+02  0.24282066161E+02  0.41125971866E+02  0.00000000000E+00 0.  1.
</event>
<event>
 7    1  0.2405891E-015  0.9000759E+02  0.7816164E-02  0.1186339E+00
        -11   -1    0    0    0    0  0.00000000000E+00  0.00000000000E+00  0.45593999997E+02  0.45594000000E+02  0.51100000000E-03 0.  1.
         11   -1    0    0    0    0 -0.00000000000E+00 -0.00000000000E+00 -0.45593999997E+02  0.45594000000E+02  0.51100000000E-03 0. -1.
    9900012    2    1    2    0    0 -0.30221250300E+00  0.10163478844E+01  0.51871763325E+00  0.90007591849E+02  0.89999851262E+02 0.  0.
        -12    1    1    2    0    0  0.30221250300E+00 -0.10163478844E+01 -0.51871763325E+00  0.11804081507E+01  0.00000000000E+00 0.  1.
         11    1    3    3    0    0 -0.98907739337E+01 -0.30668186450E+02 -0.25773102200E+01  0.32326577260E+02  0.51100000000E-03 0. -1.
        -11    1    3    3    0    0 -0.47682694536E+01 -0.11304658847E+02  0.98799646613E+00  0.12308852201E+02  0.51100000000E-03 0.  1.
        -12    1    3    3    0    0  0.14356830884E+02  0.42989193181E+02  0.21080313871E+01  0.45372162388E+02  0.00000000000E+00 0.  1.
</event>
<event>
 7    1  0.2405891E-015  0.9000779E+02  0.7816164E-02  0.1186339E+00
        -11   -1    0    0    0    0  0.00000000000E+00  0.00000000000E+00  0.45593999997E+02  0.45594000000E+02  0.51100000000E-03 0.  1.
         11   -1    0    0    0    0 -0.00000000000E+00 -0.00000000000E+00 -0.45593999997E+02  0.45594000000E+02  0.51100000000E-03 0. -1.
    9900012    2    1    2    0    0  0.20414708585E+00 -0.49561487262E+00 -0.10514639757E+01  0.90007793820E+02  0.90000055899E+02 0.  0.
        -12    1    1    2    0    0 -0.20414708585E+00  0.49561487262E+00  0.10514639757E+01  0.11802061798E+01  0.00000000000E+00 0.  1.
         11    1    3    3    0    0 -0.35633869093E+02 -0.72729950557E+01 -0.19577936303E+01  0.36421175705E+02  0.51100000000E-03 0. -1.
        -11    1    3    3    0    0 -0.37197758704E+01  0.34073326608E+01 -0.11031001317E+02  0.12129700685E+02  0.51100000000E-03 0.  1.
         12    1    3    3    0    0  0.39557792049E+02  0.33700475223E+01  0.11937330972E+02  0.41456917430E+02  0.00000000000E+00 0. -1.
</event>
<event>
 7    1  0.2405891E-015  0.9000768E+02  0.7816164E-02  0.1186339E+00
        -11   -1    0    0    0    0  0.00000000000E+00  0.00000000000E+00  0.45593999997E+02  0.45594000000E+02  0.51100000000E-03 0.  1.
         11   -1    0    0    0    0 -0.00000000000E+00 -0.00000000000E+00 -0.45593999997E+02  0.45594000000E+02  0.51100000000E-03 0. -1.
    9900012    2    1    2    0    0 -0.10794739358E+01  0.47015040521E+00  0.82737725607E-01  0.90007681859E+02  0.89999942460E+02 0.  0.
        -12    1    1    2    0    0  0.10794739358E+01 -0.47015040521E+00 -0.82737725607E-01  0.11803181406E+01  0.00000000000E+00 0.  1.
         11    1    3    3    0    0  0.18943078592E+01 -0.89996032711E+01 -0.18306450135E+01  0.93772342793E+01  0.51100000000E-03 0. -1.
        -11    1    3    3    0    0 -0.36002916762E+02 -0.14734042742E+02  0.64482605903E+01  0.39431993303E+02  0.51100000000E-03 0.  1.
         12    1    3    3    0    0  0.33029134967E+02  0.24203796418E+02 -0.45348778512E+01  0.41198454278E+02  0.00000000000E+00 0. -1.
</event>
<event>
 7    1  0.2405891E-015  0.9000773E+02  0.7816164E-02  0.1186339E+00
        -11   -1    0    0    0    0  0.00000000000E+00  0.00000000000E+00  0.45593999997E+02  0.45594000000E+02  0.51100000000E-03 0. -1.
         11   -1    0    0    0    0 -0.00000000000E+00 -0.00000000000E+00 -0.45593999997E+02  0.45594000000E+02  0.51100000000E-03 0.  1.
    9900012    2    1    2    0    0 -0.85003666267E+00 -0.15188909932E+00  0.80461364555E+00  0.90007730647E+02  0.89999991892E+02 0.  0.
        -12    1    1    2    0    0  0.85003666267E+00  0.15188909932E+00 -0.80461364555E+00  0.11802693527E+01  0.00000000000E+00 0.  1.
         11    1    3    3    0    0  0.26679869157E+02 -0.22143875735E+02 -0.20939281224E+02  0.40504569485E+02  0.51100000000E-03 0. -1.
        -11    1    3    3    0    0 -0.51094584682E+01  0.44189701169E+00 -0.59543641630E+01  0.78585171409E+01  0.51100000000E-03 0.  1.
        -12    1    3    3    0    0 -0.22420447351E+02  0.21550089624E+02  0.27698259032E+02  0.41644644021E+02  0.00000000000E+00 0.  1.
</event>
<event>
 7    1  0.2405891E-015  0.9000783E+02  0.7816164E-02  0.1186339E+00
        -11   -1    0    0    0    0  0.00000000000E+00  0.00000000000E+00  0.45593999997E+02  0.45594000000E+02  0.51100000000E-03 0. -1.
         11   -1    0    0    0    0 -0.00000000000E+00 -0.00000000000E+00 -0.45593999997E+02  0.45594000000E+02  0.51100000000E-03 0.  1.
    9900012    2    1    2    0    0  0.62092305982E+00 -0.63507330937E+00  0.77712868598E+00  0.90007833677E+02  0.90000096282E+02 0.  0.
        -12    1    1    2    0    0 -0.62092305982E+00  0.63507330937E+00 -0.77712868598E+00  0.11801663226E+01  0.00000000000E+00 0.  1.
         11    1    3    3    0    0 -0.79862731089E+01  0.38610939530E+01  0.33172565863E+02  0.34338138140E+02  0.51100000000E-03 0. -1.
        -11    1    3    3    0    0  0.43257487548E+01  0.26383672924E+01  0.10667812414E+02  0.11809966393E+02  0.51100000000E-03 0.  1.
        -12    1    3    3    0    0  0.42814474140E+01 -0.71345345548E+01 -0.43063249591E+02  0.43859729144E+02  0.00000000000E+00 0.  1.
</event>
<event>
 7    1  0.2405891E-015  0.9000711E+02  0.7816164E-02  0.1186340E+00
        -11   -1    0    0    0    0  0.00000000000E+00  0.00000000000E+00  0.45593999997E+02  0.45594000000E+02  0.51100000000E-03 0.  1.
         11   -1    0    0    0    0 -0.00000000000E+00 -0.00000000000E+00 -0.45593999997E+02  0.45594000000E+02  0.51100000000E-03 0. -1.
    9900012    2    1    2    0    0 -0.38490316847E+00  0.10393367514E+01  0.40758804828E+00  0.90007110780E+02  0.89999363840E+02 0.  0.
        -12    1    1    2    0    0  0.38490316847E+00 -0.10393367514E+01 -0.40758804828E+00  0.11808892197E+01  0.00000000000E+00 0.  1.
         11    1    3    3    0    0  0.20070346486E+02  0.27397207647E+02 -0.13328510662E+02  0.36483900444E+02  0.51100000000E-03 0. -1.
        -11    1    3    3    0    0  0.25130227747E+01  0.60468624303E+01 -0.62560978007E+01  0.90564114676E+01  0.51100000000E-03 0.  1.
        -12    1    3    3    0    0 -0.22968272429E+02 -0.32404733326E+02  0.19992196511E+02  0.44466798868E+02  0.00000000000E+00 0.  1.
</event>
<event>
 7    1  0.2405891E-015  0.9000745E+02  0.7816164E-02  0.1186340E+00
        -11   -1    0    0    0    0  0.00000000000E+00  0.00000000000E+00  0.45593999997E+02  0.45594000000E+02  0.51100000000E-03 0. -1.
         11   -1    0    0    0    0 -0.00000000000E+00 -0.00000000000E+00 -0.45593999997E+02  0.45594000000E+02  0.51100000000E-03 0.  1.
    9900012    2    1    2    0    0 -0.96408036359E+00 -0.19219162213E+00  0.65369312716E+00  0.90007447895E+02  0.89999705407E+02 0.  0.
        -12    1    1    2    0    0  0.96408036359E+00  0.19219162213E+00 -0.65369312716E+00  0.11805521046E+01  0.00000000000E+00 0.  1.
         11    1    3    3    0    0  0.17888374347E+01 -0.11594140012E+01 -0.79595020361E+01  0.82400153591E+01  0.51100000000E-03 0. -1.
        -11    1    3    3    0    0 -0.16258545562E+02  0.15173056511E+02 -0.30659058415E+02  0.37875319284E+02  0.51100000000E-03 0.  1.
         12    1    3    3    0    0  0.13505627764E+02 -0.14205834132E+02  0.39272253578E+02  0.43892113253E+02  0.00000000000E+00 0. -1.
</event>
<event>
 7    1  0.2405891E-015  0.9000742E+02  0.7816164E-02  0.1186340E+00
        -11   -1    0    0    0    0  0.00000000000E+00  0.00000000000E+00  0.45593999997E+02  0.45594000000E+02  0.51100000000E-03 0.  1.
         11   -1    0    0    0    0 -0.00000000000E+00 -0.00000000000E+00 -0.45593999997E+02  0.45594000000E+02  0.51100000000E-03 0. -1.
    9900012    2    1    2    0    0  0.99122780457E+00 -0.64090177071E+00 -0.21877092672E-01  0.90007421224E+02  0.89999678383E+02 0.  0.
        -12    1    1    2    0    0 -0.99122780457E+00  0.64090177071E+00  0.21877092672E-01  0.11805787765E+01  0.00000000000E+00 0.  1.
         11    1    3    3    0    0  0.54573690486E+00  0.28411119661E+01 -0.90535256239E+01  0.95045290497E+01  0.51100000000E-03 0. -1.
        -11    1    3    3    0    0  0.38449212831E+02 -0.22333810074E+01 -0.71615363790E+01  0.39174195099E+02  0.51100000000E-03 0.  1.
         12    1    3    3    0    0 -0.38003721932E+02 -0.12486327294E+01  0.16193184910E+02  0.41328697075E+02  0.00000000000E+00 0. -1.
</event>
<event>
 7    1  0.2405891E-015  0.9000773E+02  0.7816164E-02  0.1186339E+00
        -11   -1    0    0    0    0  0.00000000000E+00  0.00000000000E+00  0.45593999997E+02  0.45594000000E+02  0.51100000000E-03 0.  1.
         11   -1    0    0    0    0 -0.00000000000E+00 -0.00000000000E+00 -0.45593999997E+02  0.45594000000E+02  0.51100000000E-03 0. -1.
    9900012    2    1    2    0    0 -0.29914710776E+00 -0.46946895689E+00 -0.10407388467E+01  0.90007734165E+02  0.89999995456E+02 0.  0.
        -12    1    1    2    0    0  0.29914710776E+00  0.46946895689E+00  0.10407388467E+01  0.11802658347E+01  0.00000000000E+00 0.  1.
         11    1    3    3    0    0 -0.38191051540E+01  0.85644402913E+01  0.54975931500E+01  0.10870084286E+02  0.51100000000E-03 0. -1.
        -11    1    3    3    0    0 -0.11381627585E+02 -0.21166278943E+02  0.29648492894E+02  0.38165245210E+02  0.51100000000E-03 0.  1.
         12    1    3    3    0    0  0.14901585631E+02  0.12132369694E+02 -0.36186824891E+02  0.40972404670E+02  0.00000000000E+00 0. -1.
</event>
<event>
 7    1  0.2405891E-015  0.9000763E+02  0.7816164E-02  0.1186339E+00
        -11   -1    0    0    0    0  0.00000000000E+00  0.00000000000E+00  0.45593999997E+02  0.45594000000E+02  0.51100000000E-03 0.  1.
         11   -1    0    0    0    0 -0.00000000000E+00 -0.00000000000E+00 -0.45593999997E+02  0.45594000000E+02  0.51100000000E-03 0. -1.
    9900012    2    1    2    0    0  0.75576556753E+00  0.52876222308E-01 -0.90515400784E+00  0.90007626641E+02  0.89999886513E+02 0.  0.
        -12    1    1    2    0    0 -0.75576556753E+00 -0.52876222308E-01  0.90515400784E+00  0.11803733587E+01  0.00000000000E+00 0.  1.
         11    1    3    3    0    0 -0.12350719153E+02 -0.17456918544E+02 -0.30685292147E+02  0.37401489583E+02  0.51100000000E-03 0. -1.
        -11    1    3    3    0    0  0.71531193562E+01 -0.85069963704E+01 -0.17990069901E+01  0.11259330805E+02  0.51100000000E-03 0.  1.
        -12    1    3    3    0    0  0.59533653643E+01  0.26016791137E+02  0.31579145129E+02  0.41346806253E+02  0.00000000000E+00 0.  1.
</event>
<event>
 7    1  0.2405891E-015  0.9000782E+02  0.7816164E-02  0.1186339E+00
        -11   -1    0    0    0    0  0.00000000000E+00  0.00000000000E+00  0.45593999997E+02  0.45594000000E+02  0.51100000000E-03 0.  1.
         11   -1    0    0    0    0 -0.00000000000E+00 -0.00000000000E+00 -0.45593999997E+02  0.45594000000E+02  0.51100000000E-03 0. -1.
    9900012    2    1    2    0    0 -0.66027994308E+00 -0.75418544279E+00 -0.62293734168E+00  0.90007823650E+02  0.90000086122E+02 0.  0.
        -12    1    1    2    0    0  0.66027994308E+00  0.75418544279E+00  0.62293734168E+00  0.11801763500E+01  0.00000000000E+00 0.  1.
         11    1    3    3    0    0  0.19082090953E+02 -0.26377506151E+01  0.42100267143E+00  0.19268138648E+02  0.51100000000E-03 0. -1.
        -11    1    3    3    0    0  0.16216767897E+02  0.16565616805E+02 -0.17001815881E+02  0.28748303683E+02  0.51100000000E-03 0.  1.
        -12    1    3    3    0    0 -0.35959138793E+02 -0.14682051633E+02  0.15957875868E+02  0.41991381319E+02  0.00000000000E+00 0.  1.
</event>
<event>
 7    1  0.2405891E-015  0.9000761E+02  0.7816164E-02  0.1186339E+00
        -11   -1    0    0    0    0  0.00000000000E+00  0.00000000000E+00  0.45593999997E+02  0.45594000000E+02  0.51100000000E-03 0.  1.
         11   -1    0    0    0    0 -0.00000000000E+00 -0.00000000000E+00 -0.45593999997E+02  0.45594000000E+02  0.51100000000E-03 0. -1.
    9900012    2    1    2    0    0 -0.11058172321E+01 -0.28524893545E+00 -0.29854726019E+00  0.90007606348E+02  0.89999865952E+02 0.  0.
        -12    1    1    2    0    0  0.11058172321E+01  0.28524893545E+00  0.29854726019E+00  0.11803936515E+01  0.00000000000E+00 0.  1.
         11    1    3    3    0    0  0.32374186243E+01 -0.85050785994E+01  0.24813729430E+01  0.94326270611E+01  0.51100000000E-03 0. -1.
        -11    1    3    3    0    0 -0.11598346435E+01 -0.32486963088E+02 -0.17808407389E+02  0.37065986579E+02  0.51100000000E-03 0.  1.
         12    1    3    3    0    0 -0.31834012128E+01  0.40706792752E+02  0.15028487186E+02  0.43508992709E+02  0.00000000000E+00 0. -1.
</event>
<event>
 7    1  0.2405891E-015  0.9000780E+02  0.7816164E-02  0.1186339E+00
        -11   -1    0    0    0    0  0.00000000000E+00  0.00000000000E+00  0.45593999997E+02  0.45594000000E+02  0.51100000000E-03 0. -1.
         11   -1    0    0    0    0 -0.00000000000E+00 -0.00000000000E+00 -0.45593999997E+02  0.45594000000E+02  0.51100000000E-03 0.  1.
    9900012    2    1    2    0    0 -0.46853088753E+00  0.42647306645E+00  0.99572393498E+00  0.90007802295E+02  0.90000064485E+02 0.  0.
        -12    1    1    2    0    0  0.46853088753E+00 -0.42647306645E+00 -0.99572393498E+00  0.11801977053E+01  0.00000000000E+00 0.  1.
         11    1    3    3    0    0  0.66793704756E+01 -0.37402491754E+00  0.24468625095E+02  0.25366661169E+02  0.51100000000E-03 0. -1.
        -11    1    3    3    0    0 -0.18009795777E+02  0.14500330672E+02  0.11288896556E+02  0.25730361817E+02  0.51100000000E-03 0.  1.
         12    1    3    3    0    0  0.10861894414E+02 -0.13699832688E+02 -0.34761797716E+02  0.38910779308E+02  0.00000000000E+00 0. -1.
</event>
<event>
 7    1  0.2405891E-015  0.9000837E+02  0.7816164E-02  0.1186338E+00
        -11   -1    0    0    0    0  0.00000000000E+00  0.00000000000E+00  0.45593999997E+02  0.45594000000E+02  0.51100000000E-03 0.  1.
         11   -1    0    0    0    0 -0.00000000000E+00 -0.00000000000E+00 -0.45593999997E+02  0.45594000000E+02  0.51100000000E-03 0. -1.
    9900012    2    1    2    0    0 -0.40845043153E+00 -0.10964678648E+01 -0.14982717318E+00  0.90008372213E+02  0.90000641924E+02 0.  0.
        -12    1    1    2    0    0  0.40845043153E+00  0.10964678648E+01  0.14982717318E+00  0.11796277868E+01  0.00000000000E+00 0.  1.
         11    1    3    3    0    0 -0.28607957294E+02 -0.23595732929E+02  0.57727504986E+01  0.37529967780E+02  0.51100000000E-03 0. -1.
        -11    1    3    3    0    0  0.16438012475E+01 -0.10022483481E+02 -0.10962020565E+01  0.10215376492E+02  0.51100000000E-03 0.  1.
        -12    1    3    3    0    0  0.26555705615E+02  0.32521748545E+02 -0.48263756153E+01  0.42263027941E+02  0.00000000000E+00 0.  1.
</event>
<event>
 7    1  0.2405891E-015  0.9000783E+02  0.7816164E-02  0.1186339E+00
        -11   -1    0    0    0    0  0.00000000000E+00  0.00000000000E+00  0.45593999997E+02  0.45594000000E+02  0.51100000000E-03 0.  1.
         11   -1    0    0    0    0 -0.00000000000E+00 -0.00000000000E+00 -0.45593999997E+02  0.45594000000E+02  0.51100000000E-03 0. -1.
    9900012    2    1    2    0    0  0.11755806126E+01  0.38516812766E-02 -0.10385666605E+00  0.90007834410E+02  0.90000097024E+02 0.  0.
        -12    1    1    2    0    0 -0.11755806126E+01 -0.38516812766E-02  0.10385666605E+00  0.11801655898E+01  0.00000000000E+00 0.  1.
         11    1    3    3    0    0 -0.11245502603E+01 -0.38459819545E+02  0.33625674866E+01  0.38622910210E+02  0.51100000000E-03 0. -1.
        -11    1    3    3    0    0  0.74836605196E+01 -0.33579502086E+01 -0.42455160682E+01  0.92360928603E+01  0.51100000000E-03 0.  1.
        -12    1    3    3    0    0 -0.51835296467E+01  0.41821621435E+02  0.77909191558E+00  0.42148831340E+02  0.00000000000E+00 0.  1.
</event>
<event>
 7    1  0.2405891E-015  0.9000731E+02  0.7816164E-02  0.1186340E+00
        -11   -1    0    0    0    0  0.00000000000E+00  0.00000000000E+00  0.45593999997E+02  0.45594000000E+02  0.51100000000E-03 0. -1.
         11   -1    0    0    0    0 -0.00000000000E+00 -0.00000000000E+00 -0.45593999997E+02  0.45594000000E+02  0.51100000000E-03 0.  1.
    9900012    2    1    2    0    0 -0.75159724270E-01  0.70335539979E+00  0.94533940114E+00  0.90007311902E+02  0.89999567618E+02 0.  0.
        -12    1    1    2    0    0  0.75159724270E-01 -0.70335539979E+00 -0.94533940114E+00  0.11806880985E+01  0.00000000000E+00 0.  1.
         11    1    3    3    0    0  0.46177443367E+00 -0.89528310175E+01  0.29834377859E+01  0.94481384483E+01  0.51100000000E-03 0. -1.
        -11    1    3    3    0    0  0.31684702314E+02  0.28473526309E+02  0.38949449353E+01  0.42776543310E+02  0.51100000000E-03 0.  1.
         12    1    3    3    0    0 -0.32221636472E+02 -0.18817339892E+02 -0.59330433201E+01  0.37782630144E+02  0.00000000000E+00 0. -1.
</event>
<event>
 7    1  0.2405891E-015  0.9000768E+02  0.7816164E-02  0.1186339E+00
        -11   -1    0    0    0    0  0.00000000000E+00  0.00000000000E+00  0.45593999997E+02  0.45594000000E+02  0.51100000000E-03 0.  1.
         11   -1    0    0    0    0 -0.00000000000E+00 -0.00000000000E+00 -0.45593999997E+02  0.45594000000E+02  0.51100000000E-03 0. -1.
    9900012    2    1    2    0    0 -0.69000690246E+00  0.42201836175E+00 -0.85961759107E+00  0.90007681642E+02  0.89999942240E+02 0.  0.
        -12    1    1    2    0    0  0.69000690246E+00 -0.42201836175E+00  0.85961759107E+00  0.11803183579E+01  0.00000000000E+00 0.  1.
         11    1    3    3    0    0 -0.22247048705E+01  0.72584353173E+01  0.18555811457E+02  0.20048748942E+02  0.51100000000E-03 0. -1.
        -11    1    3    3    0    0 -0.13227098734E+02 -0.86696837745E+01  0.21346992367E+02  0.26567153424E+02  0.51100000000E-03 0.  1.
         12    1    3    3    0    0  0.14761796703E+02  0.18332668190E+01 -0.40762421416E+02  0.43391779276E+02  0.00000000000E+00 0. -1.
</event>
<event>
 7    1  0.2405891E-015  0.9000749E+02  0.7816164E-02  0.1186340E+00
        -11   -1    0    0    0    0  0.00000000000E+00  0.00000000000E+00  0.45593999997E+02  0.45594000000E+02  0.51100000000E-03 0.  1.
         11   -1    0    0    0    0 -0.00000000000E+00 -0.00000000000E+00 -0.45593999997E+02  0.45594000000E+02  0.51100000000E-03 0. -1.
    9900012    2    1    2    0    0  0.26024029354E+00  0.10145413104E+01 -0.54460266900E+00  0.90007486913E+02  0.89999744940E+02 0.  0.
        -12    1    1    2    0    0 -0.26024029354E+00 -0.10145413104E+01  0.54460266900E+00  0.11805130868E+01  0.00000000000E+00 0.  1.
         11    1    3    3    0    0 -0.96259768353E+01 -0.61560386700E+01 -0.34579867026E+02  0.36418723838E+02  0.51100000000E-03 0. -1.
        -11    1    3    3    0    0 -0.10663811116E+02 -0.64666819450E+01  0.12091011793E+01  0.12529835147E+02  0.51100000000E-03 0.  1.
        -12    1    3    3    0    0  0.20550028244E+02  0.13637261925E+02  0.32826163178E+02  0.41058927929E+02  0.00000000000E+00 0.  1.
</event>
<event>
 7    1  0.2405891E-015  0.9000765E+02  0.7816164E-02  0.1186339E+00
        -11   -1    0    0    0    0  0.00000000000E+00  0.00000000000E+00  0.45593999997E+02  0.45594000000E+02  0.51100000000E-03 0.  1.
         11   -1    0    0    0    0 -0.00000000000E+00 -0.00000000000E+00 -0.45593999997E+02  0.45594000000E+02  0.51100000000E-03 0. -1.
    9900012    2    1    2    0    0  0.20095466400E+00  0.43840137812E+00 -0.10773329176E+01  0.90007650577E+02  0.89999910764E+02 0.  0.
        -12    1    1    2    0    0 -0.20095466400E+00 -0.43840137812E+00  0.10773329176E+01  0.11803494232E+01  0.00000000000E+00 0.  1.
         11    1    3    3    0    0  0.28686016041E+02 -0.19186820265E+02 -0.53126214903E+00  0.34515269489E+02  0.51100000000E-03 0. -1.
        -11    1    3    3    0    0  0.73367770108E+01 -0.46815955791E+01  0.74664877124E+01  0.11467086513E+02  0.51100000000E-03 0.  1.
        -12    1    3    3    0    0 -0.35821838388E+02  0.24306817222E+02 -0.80125584810E+01  0.44025294575E+02  0.00000000000E+00 0.  1.
</event>
<event>
 7    1  0.2405891E-015  0.9000773E+02  0.7816164E-02  0.1186339E+00
        -11   -1    0    0    0    0  0.00000000000E+00  0.00000000000E+00  0.45593999997E+02  0.45594000000E+02  0.51100000000E-03 0. -1.
         11   -1    0    0    0    0 -0.00000000000E+00 -0.00000000000E+00 -0.45593999997E+02  0.45594000000E+02  0.51100000000E-03 0.  1.
    9900012    2    1    2    0    0 -0.50501565972E+00 -0.87035624671E+00  0.61682699779E+00  0.90007730388E+02  0.89999991629E+02 0.  0.
        -12    1    1    2    0    0  0.50501565972E+00  0.87035624671E+00 -0.61682699779E+00  0.11802696124E+01  0.00000000000E+00 0.  1.
         11    1    3    3    0    0 -0.21292312164E+02  0.24462516267E+02 -0.27006755670E+02  0.42203579368E+02  0.51100000000E-03 0. -1.
        -11    1    3    3    0    0  0.53293736245E+01  0.27207358456E+01  0.88323625350E+01  0.10668423266E+02  0.51100000000E-03 0.  1.
        -12    1    3    3    0    0  0.15457922880E+02 -0.28053608359E+02  0.18791220132E+02  0.37135727754E+02  0.00000000000E+00 0.  1.
</event>
<event>
 7    1  0.2405891E-015  0.9000773E+02  0.7816164E-02  0.1186339E+00
        -11   -1    0    0    0    0  0.00000000000E+00  0.00000000000E+00  0.45593999997E+02  0.45594000000E+02  0.51100000000E-03 0. -1.
         11   -1    0    0    0    0 -0.00000000000E+00 -0.00000000000E+00 -0.45593999997E+02  0.45594000000E+02  0.51100000000E-03 0.  1.
    9900012    2    1    2    0    0  0.34877847088E+00 -0.45823657651E-01  0.11266256117E+01  0.90007732446E+02  0.89999993715E+02 0.  0.
        -12    1    1    2    0    0 -0.34877847088E+00  0.45823657651E-01 -0.11266256117E+01  0.11802675537E+01  0.00000000000E+00 0.  1.
         11    1    3    3    0    0 -0.28045708005E+01 -0.62231096501E+01  0.44724774181E+01  0.81606228689E+01  0.51100000000E-03 0. -1.
        -11    1    3    3    0    0 -0.33910179034E+02  0.10245327461E+02  0.17086572814E+02  0.39329606503E+02  0.51100000000E-03 0.  1.
         12    1    3    3    0    0  0.37063528305E+02 -0.40680414688E+01 -0.20432424620E+02  0.42517503074E+02  0.00000000000E+00 0. -1.
</event>
<event>
 7    1  0.2405891E-015  0.9000789E+02  0.7816164E-02  0.1186339E+00
        -11   -1    0    0    0    0  0.00000000000E+00  0.00000000000E+00  0.45593999997E+02  0.45594000000E+02  0.51100000000E-03 0. -1.
         11   -1    0    0    0    0 -0.00000000000E+00 -0.00000000000E+00 -0.45593999997E+02  0.45594000000E+02  0.51100000000E-03 0.  1.
    9900012    2    1    2    0    0  0.60473630534E-01  0.93715060899E+00  0.71467473453E+00  0.90007886319E+02  0.90000149618E+02 0.  0.
        -12    1    1    2    0    0 -0.60473630534E-01 -0.93715060899E+00 -0.71467473453E+00  0.11801136810E+01  0.00000000000E+00 0.  1.
         11    1    3    3    0    0  0.28668187264E+02  0.18991966845E+02  0.98251553935E+01  0.35764415896E+02  0.51100000000E-03 0. -1.
        -11    1    3    3    0    0  0.37092715542E+01  0.10005574982E+02 -0.16004628484E+01  0.10790352532E+02  0.51100000000E-03 0.  1.
        -12    1    3    3    0    0 -0.32316985188E+02 -0.28060391218E+02 -0.75100178106E+01  0.43453117891E+02  0.00000000000E+00 0.  1.
</event>
<event>
 7    1  0.2405891E-015  0.9000767E+02  0.7816164E-02  0.1186339E+00
        -11   -1    0    0    0    0  0.00000000000E+00  0.00000000000E+00  0.45593999997E+02  0.45594000000E+02  0.51100000000E-03 0.  1.
         11   -1    0    0    0    0 -0.00000000000E+00 -0.00000000000E+00 -0.45593999997E+02  0.45594000000E+02  0.51100000000E-03 0. -1.
    9900012    2    1    2    0    0  0.84221188510E+00  0.67231557223E+00 -0.48150693078E+00  0.90007670380E+02  0.89999930829E+02 0.  0.
        -12    1    1    2    0    0 -0.84221188510E+00 -0.67231557223E+00  0.48150693078E+00  0.11803296203E+01  0.00000000000E+00 0.  1.
         11    1    3    3    0    0  0.40666769076E+01  0.57132553514E+01  0.69202303005E+01  0.98523466977E+01  0.51100000000E-03 0. -1.
        -11    1    3    3    0    0 -0.31567478041E+02 -0.19811935668E+02  0.15983753825E+02  0.40552421030E+02  0.51100000000E-03 0.  1.
         12    1    3    3    0    0  0.28343013019E+02  0.14770995889E+02 -0.23385491056E+02  0.39602902652E+02  0.00000000000E+00 0. -1.
</event>
<event>
 7    1  0.2405891E-015  0.9000773E+02  0.7816164E-02  0.1186339E+00
        -11   -1    0    0    0    0  0.00000000000E+00  0.00000000000E+00  0.45593999997E+02  0.45594000000E+02  0.51100000000E-03 0.  1.
         11   -1    0    0    0    0 -0.00000000000E+00 -0.00000000000E+00 -0.45593999997E+02  0.45594000000E+02  0.51100000000E-03 0. -1.
    9900012    2    1    2    0    0 -0.10018385718E+01 -0.54177452518E+00  0.30958104899E+00  0.90007728596E+02  0.89999989814E+02 0.  0.
        -12    1    1    2    0    0  0.10018385718E+01  0.54177452518E+00 -0.30958104899E+00  0.11802714035E+01  0.00000000000E+00 0.  1.
         11    1    3    3    0    0 -0.32811148332E+02 -0.53629482491E+00 -0.16822276828E+02  0.36876117813E+02  0.51100000000E-03 0. -1.
        -11    1    3    3    0    0 -0.90651072062E+01 -0.19175493883E+01  0.45448994791E+01  0.10320333127E+02  0.51100000000E-03 0.  1.
        -12    1    3    3    0    0  0.40874416967E+02  0.19120696880E+01  0.12586958398E+02  0.42811277656E+02  0.00000000000E+00 0.  1.
</event>
<event>
 7    1  0.2405891E-015  0.9000771E+02  0.7816164E-02  0.1186339E+00
        -11   -1    0    0    0    0  0.00000000000E+00  0.00000000000E+00  0.45593999997E+02  0.45594000000E+02  0.51100000000E-03 0. -1.
         11   -1    0    0    0    0 -0.00000000000E+00 -0.00000000000E+00 -0.45593999997E+02  0.45594000000E+02  0.51100000000E-03 0.  1.
    9900012    2    1    2    0    0  0.42825914443E-01 -0.57384747528E+00  0.10305086441E+01  0.90007710608E+02  0.89999971588E+02 0.  0.
        -12    1    1    2    0    0 -0.42825914443E-01  0.57384747528E+00 -0.10305086441E+01  0.11802893922E+01  0.00000000000E+00 0.  1.
         11    1    3    3    0    0  0.48726746269E+01 -0.82170842224E+01 -0.15085174821E+00  0.95543805476E+01  0.51100000000E-03 0. -1.
        -11    1    3    3    0    0  0.66615252104E+01 -0.31744219035E+02  0.16828587157E+02  0.36541383474E+02  0.51100000000E-03 0.  1.
         12    1    3    3    0    0 -0.11491373923E+02  0.39387455782E+02 -0.15647226764E+02  0.43911946586E+02  0.00000000000E+00 0. -1.
</event>
<event>
 7    1  0.2405891E-015  0.9000762E+02  0.7816164E-02  0.1186339E+00
        -11   -1    0    0    0    0  0.00000000000E+00  0.00000000000E+00  0.45593999997E+02  0.45594000000E+02  0.51100000000E-03 0.  1.
         11   -1    0    0    0    0 -0.00000000000E+00 -0.00000000000E+00 -0.45593999997E+02  0.45594000000E+02  0.51100000000E-03 0. -1.
    9900012    2    1    2    0    0  0.59267345890E+00 -0.36134066642E+00 -0.95470518313E+00  0.90007622563E+02  0.89999882381E+02 0.  0.
        -12    1    1    2    0    0 -0.59267345890E+00  0.36134066642E+00  0.95470518313E+00  0.11803774366E+01  0.00000000000E+00 0.  1.
         11    1    3    3    0    0  0.28910096262E+02 -0.10564634262E+02 -0.18068321154E+02  0.35691306961E+02  0.51100000000E-03 0. -1.
        -11    1    3    3    0    0  0.24099150875E+01 -0.72587966495E+01 -0.79168401336E+01  0.11007914312E+02  0.51100000000E-03 0.  1.
        -12    1    3    3    0    0 -0.30727337891E+02  0.17462090246E+02  0.25030456104E+02  0.43308401291E+02  0.00000000000E+00 0.  1.
</event>
<event>
 7    1  0.2405891E-015  0.9000775E+02  0.7816164E-02  0.1186339E+00
        -11   -1    0    0    0    0  0.00000000000E+00  0.00000000000E+00  0.45593999997E+02  0.45594000000E+02  0.51100000000E-03 0. -1.
         11   -1    0    0    0    0 -0.00000000000E+00 -0.00000000000E+00 -0.45593999997E+02  0.45594000000E+02  0.51100000000E-03 0.  1.
    9900012    2    1    2    0    0 -0.36261475433E+00  0.57414263036E+00  0.96533459247E+00  0.90007745750E+02  0.90000007194E+02 0.  0.
        -12    1    1    2    0    0  0.36261475433E+00 -0.57414263036E+00 -0.96533459247E+00  0.11802542503E+01  0.00000000000E+00 0.  1.
         11    1    3    3    0    0  0.23204046966E+02  0.40618273930E+01  0.11906256560E+02  0.26394794618E+02  0.51100000000E-03 0. -1.
        -11    1    3    3    0    0  0.12590379146E+02  0.16884379992E+02 -0.19745605390E+01  0.21154168013E+02  0.51100000000E-03 0.  1.
        -12    1    3    3    0    0 -0.36157040867E+02 -0.20372064755E+02 -0.89663614285E+01  0.42458783118E+02  0.00000000000E+00 0.  1.
</event>
<event>
 7    1  0.2405891E-015  0.9000777E+02  0.7816164E-02  0.1186339E+00
        -11   -1    0    0    0    0  0.00000000000E+00  0.00000000000E+00  0.45593999997E+02  0.45594000000E+02  0.51100000000E-03 0.  1.
         11   -1    0    0    0    0 -0.00000000000E+00 -0.00000000000E+00 -0.45593999997E+02  0.45594000000E+02  0.51100000000E-03 0. -1.
    9900012    2    1    2    0    0 -0.59655954977E+00  0.97916160157E-01 -0.10136473849E+01  0.90007766171E+02  0.90000027884E+02 0.  0.
        -12    1    1    2    0    0  0.59655954977E+00 -0.97916160157E-01  0.10136473849E+01  0.11802338293E+01  0.00000000000E+00 0.  1.
         11    1    3    3    0    0  0.49011190139E+01  0.24726132162E+01 -0.98770949395E+01  0.11300079133E+02  0.51100000000E-03 0. -1.
        -11    1    3    3    0    0 -0.16756403316E+02  0.33118172553E+02 -0.77784295443E+01  0.37922214753E+02  0.51100000000E-03 0.  1.
         12    1    3    3    0    0  0.11258724752E+02 -0.35492869609E+02  0.16641877099E+02  0.40785472285E+02  0.00000000000E+00 0. -1.
</event>
<event>
 7    1  0.2405891E-015  0.9000771E+02  0.7816164E-02  0.1186339E+00
        -11   -1    0    0    0    0  0.00000000000E+00  0.00000000000E+00  0.45593999997E+02  0.45594000000E+02  0.51100000000E-03 0. -1.
         11   -1    0    0    0    0 -0.00000000000E+00 -0.00000000000E+00 -0.45593999997E+02  0.45594000000E+02  0.51100000000E-03 0.  1.
    9900012    2    1    2    0    0  0.27719507627E+00  0.92181538051E-01  0.11435683686E+01  0.90007710561E+02  0.89999971540E+02 0.  0.
        -12    1    1    2    0    0 -0.27719507627E+00 -0.92181538051E-01 -0.11435683686E+01  0.11802894391E+01  0.00000000000E+00 0.  1.
         11    1    3    3    0    0 -0.30040882819E+02  0.10002122398E+02  0.24478999992E+02  0.40021475909E+02  0.51100000000E-03 0. -1.
        -11    1    3    3    0    0 -0.48243089283E+01  0.26764909280E+01 -0.78004601683E+01  0.95543047586E+01  0.51100000000E-03 0.  1.
        -12    1    3    3    0    0  0.35142386824E+02 -0.12586431788E+02 -0.15534971455E+02  0.40431929894E+02  0.00000000000E+00 0.  1.
</event>
<event>
 7    1  0.2405891E-015  0.9000778E+02  0.7816164E-02  0.1186339E+00
        -11   -1    0    0    0    0  0.00000000000E+00  0.00000000000E+00  0.45593999997E+02  0.45594000000E+02  0.51100000000E-03 0.  1.
         11   -1    0    0    0    0 -0.00000000000E+00 -0.00000000000E+00 -0.45593999997E+02  0.45594000000E+02  0.51100000000E-03 0. -1.
    9900012    2    1    2    0    0  0.10925856309E+01 -0.34828660838E+00  0.27904744370E+00  0.90007782055E+02  0.90000043978E+02 0.  0.
        -12    1    1    2    0    0 -0.10925856309E+01  0.34828660838E+00 -0.27904744370E+00  0.11802179452E+01  0.00000000000E+00 0.  1.
         11    1    3    3    0    0 -0.58214343074E+00  0.60476293565E+01 -0.62227504910E+01  0.86968578085E+01  0.51100000000E-03 0. -1.
        -11    1    3    3    0    0 -0.69914451913E+01  0.35386929431E+02 -0.66062215371E+01  0.36670931862E+02  0.51100000000E-03 0.  1.
         12    1    3    3    0    0  0.86661742530E+01 -0.41782845396E+02  0.13108019472E+02  0.44639992384E+02  0.00000000000E+00 0. -1.
</event>
<event>
 7    1  0.2405891E-015  0.9000772E+02  0.7816164E-02  0.1186339E+00
        -11   -1    0    0    0    0  0.00000000000E+00  0.00000000000E+00  0.45593999997E+02  0.45594000000E+02  0.51100000000E-03 0. -1.
         11   -1    0    0    0    0 -0.00000000000E+00 -0.00000000000E+00 -0.45593999997E+02  0.45594000000E+02  0.51100000000E-03 0.  1.
    9900012    2    1    2    0    0  0.67306727941E+00  0.93884669942E+00  0.24209185901E+00  0.90007719882E+02  0.89999980985E+02 0.  0.
        -12    1    1    2    0    0 -0.67306727941E+00 -0.93884669942E+00 -0.24209185901E+00  0.11802801175E+01  0.00000000000E+00 0.  1.
         11    1    3    3    0    0 -0.18447629375E+02 -0.18798018586E+02 -0.26489621964E+02  0.37354793593E+02  0.51100000000E-03 0. -1.
        -11    1    3    3    0    0  0.21132332753E+01 -0.50704672505E+01 -0.60444797078E+01  0.81676880581E+01  0.51100000000E-03 0.  1.
        -12    1    3    3    0    0  0.17007463379E+02  0.24807332536E+02  0.32776193531E+02  0.44485238231E+02  0.00000000000E+00 0.  1.
</event>
<event>
 7    1  0.2405891E-015  0.9000759E+02  0.7816164E-02  0.1186339E+00
        -11   -1    0    0    0    0  0.00000000000E+00  0.00000000000E+00  0.45593999997E+02  0.45594000000E+02  0.51100000000E-03 0.  1.
         11   -1    0    0    0    0 -0.00000000000E+00 -0.00000000000E+00 -0.45593999997E+02  0.45594000000E+02  0.51100000000E-03 0. -1.
    9900012    2    1    2    0    0  0.90150639238E+00 -0.65100021683E+00 -0.39605760802E+00  0.90007586222E+02  0.89999845560E+02 0.  0.
        -12    1    1    2    0    0 -0.90150639238E+00  0.65100021683E+00  0.39605760802E+00  0.11804137777E+01  0.00000000000E+00 0.  1.
         11    1    3    3    0    0 -0.41148481737E+00 -0.38902001759E+00  0.94306253216E+01  0.94476108381E+01  0.51100000000E-03 0. -1.
        -11    1    3    3    0    0 -0.35568565565E+02 -0.17012444558E+02 -0.58243204871E+01  0.39855599802E+02  0.51100000000E-03 0.  1.
         12    1    3    3    0    0  0.36881556775E+02  0.16750464359E+02 -0.40023624426E+01  0.40704375582E+02  0.00000000000E+00 0. -1.
</event>
<event>
 7    1  0.2405891E-015  0.9000766E+02  0.7816164E-02  0.1186339E+00
        -11   -1    0    0    0    0  0.00000000000E+00  0.00000000000E+00  0.45593999997E+02  0.45594000000E+02  0.51100000000E-03 0. -1.
         11   -1    0    0    0    0 -0.00000000000E+00 -0.00000000000E+00 -0.45593999997E+02  0.45594000000E+02  0.51100000000E-03 0.  1.
    9900012    2    1    2    0    0  0.66744479589E+00  0.89369162949E+00 -0.38605857230E+00  0.90007657463E+02  0.89999917741E+02 0.  0.
        -12    1    1    2    0    0 -0.66744479589E+00 -0.89369162949E+00  0.38605857230E+00  0.11803425373E+01  0.00000000000E+00 0.  1.
         11    1    3    3    0    0  0.40103944531E+02 -0.67899399233E+01  0.10768098105E+02  0.42075902701E+02  0.51100000000E-03 0. -1.
        -11    1    3    3    0    0 -0.55975016292E+01  0.71532305536E+01  0.50683423892E+01  0.10401385806E+02  0.51100000000E-03 0.  1.
        -12    1    3    3    0    0 -0.33838998105E+02  0.53040099917E+00 -0.16222499066E+02  0.37530368956E+02  0.00000000000E+00 0.  1.
</event>
<event>
 7    1  0.2405891E-015  0.9000775E+02  0.7816164E-02  0.1186339E+00
        -11   -1    0    0    0    0  0.00000000000E+00  0.00000000000E+00  0.45593999997E+02  0.45594000000E+02  0.51100000000E-03 0. -1.
         11   -1    0    0    0    0 -0.00000000000E+00 -0.00000000000E+00 -0.45593999997E+02  0.45594000000E+02  0.51100000000E-03 0.  1.
    9900012    2    1    2    0    0  0.11445703908E+01 -0.27344575917E+00 -0.90458875055E-01  0.90007747158E+02  0.90000008621E+02 0.  0.
        -12    1    1    2    0    0 -0.11445703908E+01  0.27344575917E+00  0.90458875055E-01  0.11802528419E+01  0.00000000000E+00 0.  1.
         11    1    3    3    0    0 -0.57097457197E+01 -0.55478875644E+01  0.44508332009E+01  0.91208644905E+01  0.51100000000E-03 0. -1.
        -11    1    3    3    0    0  0.27778048021E-01 -0.34156360935E+02  0.13834983202E+02  0.36851927010E+02  0.51100000000E-03 0.  1.
         12    1    3    3    0    0  0.68265380625E+01  0.39430802740E+02 -0.18376275278E+02  0.44034955657E+02  0.00000000000E+00 0. -1.
</event>
<event>
 7    1  0.2405891E-015  0.9000772E+02  0.7816164E-02  0.1186339E+00
        -11   -1    0    0    0    0  0.00000000000E+00  0.00000000000E+00  0.45593999997E+02  0.45594000000E+02  0.51100000000E-03 0. -1.
         11   -1    0    0    0    0 -0.00000000000E+00 -0.00000000000E+00 -0.45593999997E+02  0.45594000000E+02  0.51100000000E-03 0.  1.
    9900012    2    1    2    0    0 -0.10384644583E+01 -0.38364025250E+00  0.40923185376E+00  0.90007720802E+02  0.89999981917E+02 0.  0.
        -12    1    1    2    0    0  0.10384644583E+01  0.38364025250E+00 -0.40923185376E+00  0.11802791977E+01  0.00000000000E+00 0.  1.
         11    1    3    3    0    0 -0.26934788042E+02  0.14638469378E+02  0.30215549183E+02  0.43043547777E+02  0.51100000000E-03 0. -1.
        -11    1    3    3    0    0  0.23532808599E+01  0.42409022911E+01 -0.86306800403E+01  0.99000919828E+01  0.51100000000E-03 0.  1.
        -12    1    3    3    0    0  0.23543042723E+02 -0.19263011921E+02 -0.21175637288E+02  0.37064081043E+02  0.00000000000E+00 0.  1.
</event>
<event>
 7    1  0.2405891E-015  0.9000780E+02  0.7816164E-02  0.1186339E+00
        -11   -1    0    0    0    0  0.00000000000E+00  0.00000000000E+00  0.45593999997E+02  0.45594000000E+02  0.51100000000E-03 0.  1.
         11   -1    0    0    0    0 -0.00000000000E+00 -0.00000000000E+00 -0.45593999997E+02  0.45594000000E+02  0.51100000000E-03 0. -1.
    9900012    2    1    2    0    0 -0.57712785003E+00 -0.91454943272E+00 -0.47265724067E+00  0.90007795743E+02  0.90000057847E+02 0.  0.
        -12    1    1    2    0    0  0.57712785003E+00  0.91454943272E+00  0.47265724067E+00  0.11802042566E+01  0.00000000000E+00 0.  1.
         11    1    3    3    0    0  0.42567095830E+01 -0.17309345297E+01 -0.80854836158E+01  0.93000406656E+01  0.51100000000E-03 0. -1.
        -11    1    3    3    0    0  0.67911658525E+01  0.30607903258E+02  0.28615941309E+02  0.42448036147E+02  0.51100000000E-03 0.  1.
         12    1    3    3    0    0 -0.11625003286E+02 -0.29791518161E+02 -0.21003114934E+02  0.38259718931E+02  0.00000000000E+00 0. -1.
</event>
<event>
 7    1  0.2405891E-015  0.9000771E+02  0.7816164E-02  0.1186339E+00
        -11   -1    0    0    0    0  0.00000000000E+00  0.00000000000E+00  0.45593999997E+02  0.45594000000E+02  0.51100000000E-03 0.  1.
         11   -1    0    0    0    0 -0.00000000000E+00 -0.00000000000E+00 -0.45593999997E+02  0.45594000000E+02  0.51100000000E-03 0. -1.
    9900012    2    1    2    0    0  0.62289358208E+00 -0.67123363054E+00 -0.74467188800E+00  0.90007708840E+02  0.89999969797E+02 0.  0.
        -12    1    1    2    0    0 -0.62289358208E+00  0.67123363054E+00  0.74467188800E+00  0.11802911599E+01  0.00000000000E+00 0.  1.
         11    1    3    3    0    0  0.82253453244E+01 -0.17813933734E+02 -0.36565286166E+02  0.41497140786E+02  0.51100000000E-03 0. -1.
        -11    1    3    3    0    0  0.31642751593E+01  0.83436975732E+01 -0.11633475702E+01  0.89990724137E+01  0.51100000000E-03 0.  1.
        -12    1    3    3    0    0 -0.10766726902E+02  0.87990025299E+01  0.36983961848E+02  0.39511495640E+02  0.00000000000E+00 0.  1.
</event>
<event>
 7    1  0.2405891E-015  0.9000776E+02  0.7816164E-02  0.1186339E+00
        -11   -1    0    0    0    0  0.00000000000E+00  0.00000000000E+00  0.45593999997E+02  0.45594000000E+02  0.51100000000E-03 0.  1.
         11   -1    0    0    0    0 -0.00000000000E+00 -0.00000000000E+00 -0.45593999997E+02  0.45594000000E+02  0.51100000000E-03 0. -1.
    9900012    2    1    2    0    0  0.22064422415E+00  0.11317505391E+01  0.25182328183E+00  0.90007763531E+02  0.90000025210E+02 0.  0.
        -12    1    1    2    0    0 -0.22064422415E+00 -0.11317505391E+01 -0.25182328183E+00  0.11802364685E+01  0.00000000000E+00 0.  1.
         11    1    3    3    0    0 -0.36079450540E+02 -0.95411164986E+01  0.19034197934E+02  0.41893440377E+02  0.51100000000E-03 0. -1.
        -11    1    3    3    0    0  0.10161784611E+02  0.78890482302E+01  0.38489134719E+01  0.13428070734E+02  0.51100000000E-03 0.  1.
        -12    1    3    3    0    0  0.26138310153E+02  0.27838188075E+01 -0.22631288124E+02  0.34686252421E+02  0.00000000000E+00 0.  1.
</event>
<event>
 7    1  0.2405891E-015  0.9000785E+02  0.7816164E-02  0.1186339E+00
        -11   -1    0    0    0    0  0.00000000000E+00  0.00000000000E+00  0.45593999997E+02  0.45594000000E+02  0.51100000000E-03 0.  1.
         11   -1    0    0    0    0 -0.00000000000E+00 -0.00000000000E+00 -0.45593999997E+02  0.45594000000E+02  0.51100000000E-03 0. -1.
    9900012    2    1    2    0    0 -0.35207026664E+00 -0.10126237526E+01 -0.49335330586E+00  0.90007848390E+02  0.90000111189E+02 0.  0.
        -12    1    1    2    0    0  0.35207026664E+00  0.10126237526E+01  0.49335330586E+00  0.11801516095E+01  0.00000000000E+00 0.  1.
         11    1    3    3    0    0 -0.10865289934E+01 -0.79783067625E+01  0.61994213332E+01  0.10162024856E+02  0.51100000000E-03 0. -1.
        -11    1    3    3    0    0  0.71329760607E+00  0.65195254018E+01  0.36281361293E+02  0.36869366450E+02  0.51100000000E-03 0.  1.
         12    1    3    3    0    0  0.21161120709E-01  0.44615760808E+00 -0.42974135932E+02  0.42976457084E+02  0.00000000000E+00 0. -1.
</event>
<event>
 7    1  0.2405891E-015  0.9000773E+02  0.7816164E-02  0.1186339E+00
        -11   -1    0    0    0    0  0.00000000000E+00  0.00000000000E+00  0.45593999997E+02  0.45594000000E+02  0.51100000000E-03 0. -1.
         11   -1    0    0    0    0 -0.00000000000E+00 -0.00000000000E+00 -0.45593999997E+02  0.45594000000E+02  0.51100000000E-03 0.  1.
    9900012    2    1    2    0    0 -0.65278007881E-01  0.10764168627E+01  0.47968881978E+00  0.90007730605E+02  0.89999991849E+02 0.  0.
        -12    1    1    2    0    0  0.65278007881E-01 -0.10764168627E+01 -0.47968881978E+00  0.11802693949E+01  0.00000000000E+00 0.  1.
         11    1    3    3    0    0  0.18686235139E+02  0.32971437625E+02  0.15458065948E+02  0.40929731074E+02  0.51100000000E-03 0. -1.
        -11    1    3    3    0    0 -0.49315732449E+01  0.36464142570E+01  0.31043064490E+01  0.68741159718E+01  0.51100000000E-03 0.  1.
        -12    1    3    3    0    0 -0.13819939902E+02 -0.35541435019E+02 -0.18082683577E+02  0.42203883559E+02  0.00000000000E+00 0.  1.
</event>
<event>
 7    1  0.2405891E-015  0.9000774E+02  0.7816164E-02  0.1186339E+00
        -11   -1    0    0    0    0  0.00000000000E+00  0.00000000000E+00  0.45593999997E+02  0.45594000000E+02  0.51100000000E-03 0. -1.
         11   -1    0    0    0    0 -0.00000000000E+00 -0.00000000000E+00 -0.45593999997E+02  0.45594000000E+02  0.51100000000E-03 0.  1.
    9900012    2    1    2    0    0 -0.44577792512E+00 -0.10203221091E+01  0.39146494871E+00  0.90007737330E+02  0.89999998662E+02 0.  0.
        -12    1    1    2    0    0  0.44577792512E+00  0.10203221091E+01 -0.39146494871E+00  0.11802626703E+01  0.00000000000E+00 0.  1.
         11    1    3    3    0    0 -0.16154296995E+00  0.17068298516E+02  0.32482040022E+02  0.36693811939E+02  0.51100000000E-03 0. -1.
        -11    1    3    3    0    0  0.51501976681E+01 -0.44343871834E+01  0.80690867164E+01  0.10549809781E+02  0.51100000000E-03 0.  1.
        -12    1    3    3    0    0 -0.54344326232E+01 -0.13654233441E+02 -0.40159661790E+02  0.42764115610E+02  0.00000000000E+00 0.  1.
</event>
<event>
 7    1  0.2405891E-015  0.9000782E+02  0.7816164E-02  0.1186339E+00
        -11   -1    0    0    0    0  0.00000000000E+00  0.00000000000E+00  0.45593999997E+02  0.45594000000E+02  0.51100000000E-03 0. -1.
         11   -1    0    0    0    0 -0.00000000000E+00 -0.00000000000E+00 -0.45593999997E+02  0.45594000000E+02  0.51100000000E-03 0.  1.
    9900012    2    1    2    0    0 -0.14846259316E+00 -0.76677716659E+00  0.88478221242E+00  0.90007818688E+02  0.90000081095E+02 0.  0.
        -12    1    1    2    0    0  0.14846259316E+00  0.76677716659E+00 -0.88478221242E+00  0.11801813116E+01  0.00000000000E+00 0.  1.
         11    1    3    3    0    0  0.39812771550E+01  0.25254157098E+02  0.30920567195E+02  0.40121122796E+02  0.51100000000E-03 0. -1.
        -11    1    3    3    0    0 -0.92769802596E+00 -0.67257894463E+01  0.58857243552E+01  0.89854670858E+01  0.51100000000E-03 0.  1.
        -12    1    3    3    0    0 -0.32020417222E+01 -0.19295144818E+02 -0.35921509338E+02  0.40901228806E+02  0.00000000000E+00 0.  1.
</event>
<event>
 7    1  0.2822224E-015  0.9000781E+02  0.7816164E-02  0.1186339E+00
        -11   -1    0    0    0    0  0.00000000000E+00  0.00000000000E+00  0.45593999997E+02  0.45594000000E+02  0.51100000000E-03 0. -1.
         11   -1    0    0    0    0 -0.00000000000E+00 -0.00000000000E+00 -0.45593999997E+02  0.45594000000E+02  0.51100000000E-03 0.  1.
    9900012    2    1    2    0    0 -0.24414097149E+00  0.60830707512E+00  0.98143308760E+00  0.90007807975E+02  0.90000070240E+02 0.  0.
        -12    1    1    2    0    0  0.24414097149E+00 -0.60830707512E+00 -0.98143308760E+00  0.11801920255E+01  0.00000000000E+00 0.  1.
         11    1    3    3    0    0 -0.35785887802E+00 -0.68052279570E+01 -0.50499373832E+01  0.84818074936E+01  0.51100000000E-03 0. -1.
        -11    1    3    3    0    0  0.55336830325E+01  0.10170496717E+02 -0.36638778934E+02  0.38424741683E+02  0.51100000000E-03 0.  1.
         12    1    3    3    0    0 -0.54199651259E+01 -0.27569616852E+01  0.42670149405E+02  0.43101258798E+02  0.00000000000E+00 0. -1.
</event>
<event>
 7    1  0.2405891E-015  0.9000774E+02  0.7816164E-02  0.1186339E+00
        -11   -1    0    0    0    0  0.00000000000E+00  0.00000000000E+00  0.45593999997E+02  0.45594000000E+02  0.51100000000E-03 0.  1.
         11   -1    0    0    0    0 -0.00000000000E+00 -0.00000000000E+00 -0.45593999997E+02  0.45594000000E+02  0.51100000000E-03 0. -1.
    9900012    2    1    2    0    0 -0.84241470344E-01 -0.11166723756E+01  0.37276542397E+00  0.90007742451E+02  0.90000003852E+02 0.  0.
        -12    1    1    2    0    0  0.84241470344E-01  0.11166723756E+01 -0.37276542397E+00  0.11802575486E+01  0.00000000000E+00 0.  1.
         11    1    3    3    0    0 -0.12386162369E+02 -0.93938521278E+01 -0.60198823437E+01  0.16670346718E+02  0.51100000000E-03 0. -1.
        -11    1    3    3    0    0 -0.16446437490E+02 -0.23186617250E+02 -0.57897224805E+01  0.29010780966E+02  0.51100000000E-03 0.  1.
         12    1    3    3    0    0  0.28748358388E+02  0.31463797003E+02  0.12182370248E+02  0.44326614767E+02  0.00000000000E+00 0. -1.
</event>
<event>
 7    1  0.2405891E-015  0.9000772E+02  0.7816164E-02  0.1186339E+00
        -11   -1    0    0    0    0  0.00000000000E+00  0.00000000000E+00  0.45593999997E+02  0.45594000000E+02  0.51100000000E-03 0. -1.
         11   -1    0    0    0    0 -0.00000000000E+00 -0.00000000000E+00 -0.45593999997E+02  0.45594000000E+02  0.51100000000E-03 0.  1.
    9900012    2    1    2    0    0 -0.10495144197E+01 -0.50216435348E+00 -0.19852571234E+00  0.90007719519E+02  0.89999980617E+02 0.  0.
        -12    1    1    2    0    0  0.10495144197E+01  0.50216435348E+00  0.19852571234E+00  0.11802804809E+01  0.00000000000E+00 0.  1.
         11    1    3    3    0    0  0.96659542113E+00 -0.43205650003E+01 -0.82564389850E+01  0.93685843970E+01  0.51100000000E-03 0. -1.
        -11    1    3    3    0    0  0.24899489280E+02 -0.14317828048E+02 -0.22172806251E+02  0.36285232585E+02  0.51100000000E-03 0.  1.
         12    1    3    3    0    0 -0.26915599121E+02  0.18136228695E+02  0.30230719524E+02  0.44353902537E+02  0.00000000000E+00 0. -1.
</event>
<event>
 7    1  0.2405891E-015  0.9000769E+02  0.7816164E-02  0.1186339E+00
        -11   -1    0    0    0    0  0.00000000000E+00  0.00000000000E+00  0.45593999997E+02  0.45594000000E+02  0.51100000000E-03 0.  1.
         11   -1    0    0    0    0 -0.00000000000E+00 -0.00000000000E+00 -0.45593999997E+02  0.45594000000E+02  0.51100000000E-03 0. -1.
    9900012    2    1    2    0    0  0.43355006453E+00 -0.98410181552E+00 -0.48652652493E+00  0.90007690676E+02  0.89999951393E+02 0.  0.
        -12    1    1    2    0    0 -0.43355006453E+00  0.98410181552E+00  0.48652652493E+00  0.11803093244E+01  0.00000000000E+00 0.  1.
         11    1    3    3    0    0  0.30439579872E+01 -0.65017710311E+01 -0.46646238717E+01  0.85613914111E+01  0.51100000000E-03 0. -1.
        -11    1    3    3    0    0  0.34091530414E+02  0.22546342550E+02  0.26144777883E+01  0.40956141209E+02  0.51100000000E-03 0.  1.
         12    1    3    3    0    0 -0.36701938337E+02 -0.17028673334E+02  0.15636195585E+01  0.40490158055E+02  0.00000000000E+00 0. -1.
</event>
<event>
 7    1  0.2405891E-015  0.9000677E+02  0.7816164E-02  0.1186341E+00
        -11   -1    0    0    0    0  0.00000000000E+00  0.00000000000E+00  0.45593999997E+02  0.45594000000E+02  0.51100000000E-03 0. -1.
         11   -1    0    0    0    0 -0.00000000000E+00 -0.00000000000E+00 -0.45593999997E+02  0.45594000000E+02  0.51100000000E-03 0.  1.
    9900012    2    1    2    0    0  0.29518065119E+00  0.11437532776E+01 -0.56046405616E-03  0.90006770348E+02  0.89999018911E+02 0.  0.
        -12    1    1    2    0    0 -0.29518065119E+00 -0.11437532776E+01  0.56046405616E-03  0.11812296521E+01  0.00000000000E+00 0.  1.
         11    1    3    3    0    0  0.12598092609E+02 -0.82797302560E+01  0.39268234701E+02  0.42062573950E+02  0.51100000000E-03 0. -1.
        -11    1    3    3    0    0  0.40702092591E+01 -0.40072869293E+01 -0.46654849299E+01  0.73750730057E+01  0.51100000000E-03 0.  1.
        -12    1    3    3    0    0 -0.16373121217E+02  0.13430770463E+02 -0.34603310235E+02  0.40569123392E+02  0.00000000000E+00 0.  1.
</event>
<event>
 7    1  0.2405891E-015  0.9000774E+02  0.7816164E-02  0.1186339E+00
        -11   -1    0    0    0    0  0.00000000000E+00  0.00000000000E+00  0.45593999997E+02  0.45594000000E+02  0.51100000000E-03 0.  1.
         11   -1    0    0    0    0 -0.00000000000E+00 -0.00000000000E+00 -0.45593999997E+02  0.45594000000E+02  0.51100000000E-03 0. -1.
    9900012    2    1    2    0    0 -0.57619923282E+00  0.53642650953E+00 -0.87935168073E+00  0.90007738023E+02  0.89999999365E+02 0.  0.
        -12    1    1    2    0    0  0.57619923282E+00 -0.53642650953E+00  0.87935168073E+00  0.11802619770E+01  0.00000000000E+00 0.  1.
         11    1    3    3    0    0 -0.27846808259E+02  0.19260041780E+02 -0.24177125893E+02  0.41604415106E+02  0.51100000000E-03 0. -1.
        -11    1    3    3    0    0  0.65019702836E+01 -0.44787803953E+01 -0.58915552780E+01  0.98511682177E+01  0.51100000000E-03 0.  1.
        -12    1    3    3    0    0  0.20768638743E+02 -0.14244834875E+02  0.29189329490E+02  0.38552154699E+02  0.00000000000E+00 0.  1.
</event>
<event>
 7    1  0.2405891E-015  0.9000781E+02  0.7816164E-02  0.1186339E+00
        -11   -1    0    0    0    0  0.00000000000E+00  0.00000000000E+00  0.45593999997E+02  0.45594000000E+02  0.51100000000E-03 0. -1.
         11   -1    0    0    0    0 -0.00000000000E+00 -0.00000000000E+00 -0.45593999997E+02  0.45594000000E+02  0.51100000000E-03 0.  1.
    9900012    2    1    2    0    0  0.85861001113E+00  0.74092848081E-01  0.80631007639E+00  0.90007814913E+02  0.90000077269E+02 0.  0.
        -12    1    1    2    0    0 -0.85861001113E+00 -0.74092848081E-01 -0.80631007639E+00  0.11801850875E+01  0.00000000000E+00 0.  1.
         11    1    3    3    0    0 -0.85373243821E+01 -0.10017100113E+02  0.33667332464E+02  0.36148547381E+02  0.51100000000E-03 0. -1.
        -11    1    3    3    0    0 -0.32406795037E+01 -0.74555569749E+01  0.55058924616E+01  0.98184614636E+01  0.51100000000E-03 0.  1.
        -12    1    3    3    0    0  0.12636613897E+02  0.17546749936E+02 -0.38366914849E+02  0.44040806068E+02  0.00000000000E+00 0.  1.
</event>
<event>
 7    1  0.2405891E-015  0.9000837E+02  0.7816164E-02  0.1186338E+00
        -11   -1    0    0    0    0  0.00000000000E+00  0.00000000000E+00  0.45593999997E+02  0.45594000000E+02  0.51100000000E-03 0.  1.
         11   -1    0    0    0    0 -0.00000000000E+00 -0.00000000000E+00 -0.45593999997E+02  0.45594000000E+02  0.51100000000E-03 0. -1.
    9900012    2    1    2    0    0  0.11191225803E+01 -0.30989704141E-01 -0.37164845272E+00  0.90008373668E+02  0.90000643398E+02 0.  0.
        -12    1    1    2    0    0 -0.11191225803E+01  0.30989704141E-01  0.37164845272E+00  0.11796263323E+01  0.00000000000E+00 0.  1.
         11    1    3    3    0    0  0.19228734354E+02 -0.20847340923E+02 -0.27537306312E+02  0.39530483018E+02  0.51100000000E-03 0. -1.
        -11    1    3    3    0    0 -0.53834500383E+01 -0.55301994012E+01  0.18369876218E+02  0.19925285249E+02  0.51100000000E-03 0.  1.
        -12    1    3    3    0    0 -0.12726161736E+02  0.26346550620E+02  0.87957816409E+01  0.30552605401E+02  0.00000000000E+00 0.  1.
</event>
<event>
 7    1  0.2405891E-015  0.9000776E+02  0.7816164E-02  0.1186339E+00
        -11   -1    0    0    0    0  0.00000000000E+00  0.00000000000E+00  0.45593999997E+02  0.45594000000E+02  0.51100000000E-03 0.  1.
         11   -1    0    0    0    0 -0.00000000000E+00 -0.00000000000E+00 -0.45593999997E+02  0.45594000000E+02  0.51100000000E-03 0. -1.
    9900012    2    1    2    0    0 -0.55665394152E+00 -0.67578168784E+00 -0.79147452239E+00  0.90007755780E+02  0.90000017356E+02 0.  0.
        -12    1    1    2    0    0  0.55665394152E+00  0.67578168784E+00  0.79147452239E+00  0.11802442204E+01  0.00000000000E+00 0.  1.
         11    1    3    3    0    0  0.29041159711E+01 -0.11461350613E+02 -0.52155014418E+01  0.12922766848E+02  0.51100000000E-03 0. -1.
        -11    1    3    3    0    0  0.56459840664E+01 -0.26678076988E+02  0.21687610045E+02  0.34841776039E+02  0.51100000000E-03 0.  1.
         12    1    3    3    0    0 -0.91067539790E+01  0.37463645913E+02 -0.17263583126E+02  0.42243212892E+02  0.00000000000E+00 0. -1.
</event>
<event>
 7    1  0.2405891E-015  0.9000763E+02  0.7816164E-02  0.1186339E+00
        -11   -1    0    0    0    0  0.00000000000E+00  0.00000000000E+00  0.45593999997E+02  0.45594000000E+02  0.51100000000E-03 0.  1.
         11   -1    0    0    0    0 -0.00000000000E+00 -0.00000000000E+00 -0.45593999997E+02  0.45594000000E+02  0.51100000000E-03 0. -1.
    9900012    2    1    2    0    0 -0.59894346320E-01  0.71761742331E+00 -0.93525653523E+00  0.90007632733E+02  0.89999892685E+02 0.  0.
        -12    1    1    2    0    0  0.59894346320E-01 -0.71761742331E+00  0.93525653523E+00  0.11803672673E+01  0.00000000000E+00 0.  1.
         11    1    3    3    0    0  0.36863754423E+02  0.11491156363E+02 -0.18281622917E+02  0.42722368865E+02  0.51100000000E-03 0. -1.
        -11    1    3    3    0    0 -0.18976803510E+01 -0.68405443079E+01 -0.15893932957E+01  0.72746414656E+01  0.51100000000E-03 0.  1.
        -12    1    3    3    0    0 -0.35025968418E+02 -0.39329946322E+01  0.18935759678E+02  0.40010622402E+02  0.00000000000E+00 0.  1.
</event>
<event>
 7    1  0.2405891E-015  0.9000774E+02  0.7816164E-02  0.1186339E+00
        -11   -1    0    0    0    0  0.00000000000E+00  0.00000000000E+00  0.45593999997E+02  0.45594000000E+02  0.51100000000E-03 0.  1.
         11   -1    0    0    0    0 -0.00000000000E+00 -0.00000000000E+00 -0.45593999997E+02  0.45594000000E+02  0.51100000000E-03 0. -1.
    9900012    2    1    2    0    0 -0.60206552832E+00  0.89973306926E+00 -0.47012481356E+00  0.90007737387E+02  0.89999998720E+02 0.  0.
        -12    1    1    2    0    0  0.60206552832E+00 -0.89973306926E+00  0.47012481356E+00  0.11802626134E+01  0.00000000000E+00 0.  1.
         11    1    3    3    0    0  0.98107481144E+01 -0.39092019270E+01 -0.45841230444E+01  0.11512898098E+02  0.51100000000E-03 0. -1.
        -11    1    3    3    0    0  0.33742355423E+02  0.56524628324E+01  0.24541209763E+01  0.34300431419E+02  0.51100000000E-03 0.  1.
         12    1    3    3    0    0 -0.44155169065E+02 -0.84352783613E+00  0.16598772546E+01  0.44194407869E+02  0.00000000000E+00 0. -1.
</event>
<event>
 7    1  0.2405891E-015  0.9000795E+02  0.7816164E-02  0.1186339E+00
        -11   -1    0    0    0    0  0.00000000000E+00  0.00000000000E+00  0.45593999997E+02  0.45594000000E+02  0.51100000000E-03 0.  1.
         11   -1    0    0    0    0 -0.00000000000E+00 -0.00000000000E+00 -0.45593999997E+02  0.45594000000E+02  0.51100000000E-03 0. -1.
    9900012    2    1    2    0    0 -0.20601784649E+00  0.10811488454E+01  0.42565609116E+00  0.90007953693E+02  0.90000217881E+02 0.  0.
        -12    1    1    2    0    0  0.20601784649E+00 -0.10811488454E+01 -0.42565609116E+00  0.11800463071E+01  0.00000000000E+00 0.  1.
         11    1    3    3    0    0  0.52793608006E+01 -0.82661773359E+01 -0.36772607396E+01  0.10474902626E+02  0.51100000000E-03 0. -1.
        -11    1    3    3    0    0 -0.11006362847E+02 -0.77428901812E+01  0.38470168379E+02  0.40755934867E+02  0.51100000000E-03 0.  1.
         12    1    3    3    0    0  0.55209842004E+01  0.17090216363E+02 -0.34367251548E+02  0.38777116201E+02  0.00000000000E+00 0. -1.
</event>
<event>
 7    1  0.2405891E-015  0.9000786E+02  0.7816164E-02  0.1186339E+00
        -11   -1    0    0    0    0  0.00000000000E+00  0.00000000000E+00  0.45593999997E+02  0.45594000000E+02  0.51100000000E-03 0.  1.
         11   -1    0    0    0    0 -0.00000000000E+00 -0.00000000000E+00 -0.45593999997E+02  0.45594000000E+02  0.51100000000E-03 0. -1.
    9900012    2    1    2    0    0  0.11458969966E+01 -0.23722572609E+00  0.15287130299E+00  0.90007862039E+02  0.90000125018E+02 0.  0.
        -12    1    1    2    0    0 -0.11458969966E+01  0.23722572609E+00 -0.15287130299E+00  0.11801379611E+01  0.00000000000E+00 0.  1.
         11    1    3    3    0    0 -0.22779521269E+02  0.27729821721E+02 -0.19025672097E+02  0.40618047724E+02  0.51100000000E-03 0. -1.
        -11    1    3    3    0    0 -0.38661283501E+01 -0.41642300232E+01  0.10257868009E+02  0.11726534716E+02  0.51100000000E-03 0.  1.
        -12    1    3    3    0    0  0.27791546616E+02 -0.23802817424E+02  0.89206753905E+01  0.37663279598E+02  0.00000000000E+00 0.  1.
</event>
<event>
 7    1  0.2405891E-015  0.9000790E+02  0.7816164E-02  0.1186339E+00
        -11   -1    0    0    0    0  0.00000000000E+00  0.00000000000E+00  0.45593999997E+02  0.45594000000E+02  0.51100000000E-03 0.  1.
         11   -1    0    0    0    0 -0.00000000000E+00 -0.00000000000E+00 -0.45593999997E+02  0.45594000000E+02  0.51100000000E-03 0. -1.
    9900012    2    1    2    0    0 -0.11534124901E+01 -0.14543087229E+00  0.20280807950E+00  0.90007897620E+02  0.90000161068E+02 0.  0.
        -12    1    1    2    0    0  0.11534124901E+01  0.14543087229E+00 -0.20280807950E+00  0.11801023803E+01  0.00000000000E+00 0.  1.
         11    1    3    3    0    0 -0.48216335937E+01 -0.19852524767E+00 -0.23148829852E+01  0.53522188186E+01  0.51100000000E-03 0. -1.
        -11    1    3    3    0    0 -0.25113640697E+02 -0.26903502639E+02  0.19580879120E+02  0.41688178549E+02  0.51100000000E-03 0.  1.
         12    1    3    3    0    0  0.28781861801E+02  0.26956597015E+02 -0.17063188055E+02  0.42967500252E+02  0.00000000000E+00 0. -1.
</event>
<event>
 7    1  0.2405891E-015  0.9000803E+02  0.7816164E-02  0.1186338E+00
        -11   -1    0    0    0    0  0.00000000000E+00  0.00000000000E+00  0.45593999997E+02  0.45594000000E+02  0.51100000000E-03 0.  1.
         11   -1    0    0    0    0 -0.00000000000E+00 -0.00000000000E+00 -0.45593999997E+02  0.45594000000E+02  0.51100000000E-03 0. -1.
    9900012    2    1    2    0    0  0.99264836331E+00 -0.36788174106E+00  0.52118942157E+00  0.90008031288E+02  0.90000296500E+02 0.  0.
        -12    1    1    2    0    0 -0.99264836331E+00  0.36788174106E+00 -0.52118942157E+00  0.11799687122E+01  0.00000000000E+00 0.  1.
         11    1    3    3    0    0 -0.19512230548E+02 -0.11506893434E+02 -0.42086779496E+01  0.23040154249E+02  0.51100000000E-03 0. -1.
        -11    1    3    3    0    0  0.23986534851E+02 -0.22420421883E+02  0.50951792415E+01  0.33226345320E+02  0.51100000000E-03 0.  1.
         12    1    3    3    0    0 -0.34816559398E+01  0.33559433576E+02 -0.36531187034E+00  0.33741531720E+02  0.00000000000E+00 0. -1.
</event>
<event>
 7    1  0.2405891E-015  0.9000758E+02  0.7816164E-02  0.1186339E+00
        -11   -1    0    0    0    0  0.00000000000E+00  0.00000000000E+00  0.45593999997E+02  0.45594000000E+02  0.51100000000E-03 0. -1.
         11   -1    0    0    0    0 -0.00000000000E+00 -0.00000000000E+00 -0.45593999997E+02  0.45594000000E+02  0.51100000000E-03 0.  1.
    9900012    2    1    2    0    0 -0.36937110648E+00  0.56485915905E+00  0.96844280893E+00  0.90007583820E+02  0.89999843126E+02 0.  0.
        -12    1    1    2    0    0  0.36937110648E+00 -0.56485915905E+00 -0.96844280893E+00  0.11804161800E+01  0.00000000000E+00 0.  1.
         11    1    3    3    0    0 -0.82470470693E+01  0.14302842935E+02  0.25558033527E+02  0.30426931811E+02  0.51100000000E-03 0. -1.
        -11    1    3    3    0    0 -0.18672741671E+02  0.76364076972E+01 -0.85686544610E+01  0.21918208037E+02  0.51100000000E-03 0.  1.
        -12    1    3    3    0    0  0.26550417634E+02 -0.21374391473E+02 -0.16020936257E+02  0.37662443972E+02  0.00000000000E+00 0.  1.
</event>
<event>
 7    1  0.2405891E-015  0.9000748E+02  0.7816164E-02  0.1186340E+00
        -11   -1    0    0    0    0  0.00000000000E+00  0.00000000000E+00  0.45593999997E+02  0.45594000000E+02  0.51100000000E-03 0.  1.
         11   -1    0    0    0    0 -0.00000000000E+00 -0.00000000000E+00 -0.45593999997E+02  0.45594000000E+02  0.51100000000E-03 0. -1.
    9900012    2    1    2    0    0  0.60935795838E+00 -0.97950332641E+00 -0.25074406297E+00  0.90007484658E+02  0.89999742655E+02 0.  0.
        -12    1    1    2    0    0 -0.60935795838E+00  0.97950332641E+00  0.25074406297E+00  0.11805153421E+01  0.00000000000E+00 0.  1.
         11    1    3    3    0    0 -0.18766787473E+02 -0.18998380105E+02 -0.27981162909E+02  0.38679144726E+02  0.51100000000E-03 0. -1.
        -11    1    3    3    0    0 -0.88618662715E+01  0.19858255173E+00  0.17844622366E+01  0.90419253800E+01  0.51100000000E-03 0.  1.
        -12    1    3    3    0    0  0.28238011703E+02  0.17820294227E+02  0.25945956610E+02  0.42286414552E+02  0.00000000000E+00 0.  1.
</event>
<event>
 7    1  0.2405891E-015  0.9000776E+02  0.7816164E-02  0.1186339E+00
        -11   -1    0    0    0    0  0.00000000000E+00  0.00000000000E+00  0.45593999997E+02  0.45594000000E+02  0.51100000000E-03 0.  1.
         11   -1    0    0    0    0 -0.00000000000E+00 -0.00000000000E+00 -0.45593999997E+02  0.45594000000E+02  0.51100000000E-03 0. -1.
    9900012    2    1    2    0    0 -0.48614939164E+00  0.96177298496E+00 -0.48125794976E+00  0.90007763702E+02  0.90000025383E+02 0.  0.
        -12    1    1    2    0    0  0.48614939164E+00 -0.96177298496E+00  0.48125794976E+00  0.11802362983E+01  0.00000000000E+00 0.  1.
         11    1    3    3    0    0 -0.13508653839E+02  0.53214889230E+01  0.80995916016E+01  0.16625443070E+02  0.51100000000E-03 0. -1.
        -11    1    3    3    0    0 -0.95900011628E+01 -0.29814400791E+02  0.12066618251E+02  0.33562924383E+02  0.51100000000E-03 0.  1.
         12    1    3    3    0    0  0.22612505611E+02  0.25454684853E+02 -0.20647467802E+02  0.39819396249E+02  0.00000000000E+00 0. -1.
</event>
<event>
 7    1  0.2405891E-015  0.9000770E+02  0.7816164E-02  0.1186339E+00
        -11   -1    0    0    0    0  0.00000000000E+00  0.00000000000E+00  0.45593999997E+02  0.45594000000E+02  0.51100000000E-03 0.  1.
         11   -1    0    0    0    0 -0.00000000000E+00 -0.00000000000E+00 -0.45593999997E+02  0.45594000000E+02  0.51100000000E-03 0. -1.
    9900012    2    1    2    0    0 -0.64992354268E+00  0.55537271220E+00 -0.81380190331E+00  0.90007697921E+02  0.89999958733E+02 0.  0.
        -12    1    1    2    0    0  0.64992354268E+00 -0.55537271220E+00  0.81380190331E+00  0.11803020794E+01  0.00000000000E+00 0.  1.
         11    1    3    3    0    0  0.92322980366E+01  0.26820677606E+01  0.27224905379E+01  0.99920353031E+01  0.51100000000E-03 0. -1.
        -11    1    3    3    0    0 -0.75675622876E+01 -0.22861660271E+02  0.31250012874E+02  0.39452335980E+02  0.51100000000E-03 0.  1.
         12    1    3    3    0    0 -0.23146592917E+01  0.20734965223E+02 -0.34786305315E+02  0.40563326638E+02  0.00000000000E+00 0. -1.
</event>
<event>
 7    1  0.2405891E-015  0.9000781E+02  0.7816164E-02  0.1186339E+00
        -11   -1    0    0    0    0  0.00000000000E+00  0.00000000000E+00  0.45593999997E+02  0.45594000000E+02  0.51100000000E-03 0. -1.
         11   -1    0    0    0    0 -0.00000000000E+00 -0.00000000000E+00 -0.45593999997E+02  0.45594000000E+02  0.51100000000E-03 0.  1.
    9900012    2    1    2    0    0 -0.57670926846E+00 -0.95061902725E-01  0.10252877637E+01  0.90007811310E+02  0.90000073619E+02 0.  0.
        -12    1    1    2    0    0  0.57670926846E+00  0.95061902725E-01 -0.10252877637E+01  0.11801886901E+01  0.00000000000E+00 0.  1.
         11    1    3    3    0    0  0.15787515302E+01 -0.44324722327E+00  0.87153447230E+01  0.88682669331E+01  0.51100000000E-03 0. -1.
        -11    1    3    3    0    0 -0.18429081339E+02  0.29269647680E+02  0.18167720269E+02  0.39069289402E+02  0.51100000000E-03 0.  1.
         12    1    3    3    0    0  0.16273620540E+02 -0.28921462359E+02 -0.25857777229E+02  0.42070254975E+02  0.00000000000E+00 0. -1.
</event>
<event>
 7    1  0.2405891E-015  0.9000775E+02  0.7816164E-02  0.1186339E+00
        -11   -1    0    0    0    0  0.00000000000E+00  0.00000000000E+00  0.45593999997E+02  0.45594000000E+02  0.51100000000E-03 0. -1.
         11   -1    0    0    0    0 -0.00000000000E+00 -0.00000000000E+00 -0.45593999997E+02  0.45594000000E+02  0.51100000000E-03 0.  1.
    9900012    2    1    2    0    0 -0.16457579429E+00  0.11585638915E+01 -0.15374707299E+00  0.90007748482E+02  0.90000009962E+02 0.  0.
        -12    1    1    2    0    0  0.16457579429E+00 -0.11585638915E+01  0.15374707299E+00  0.11802515178E+01  0.00000000000E+00 0.  1.
         11    1    3    3    0    0  0.10521931177E+02  0.21034476600E+02  0.28135316321E+02  0.36670918536E+02  0.51100000000E-03 0. -1.
        -11    1    3    3    0    0  0.65473630833E+01  0.63828746184E+01  0.23688129487E+01  0.94456512103E+01  0.51100000000E-03 0.  1.
        -12    1    3    3    0    0 -0.17233870055E+02 -0.26258787327E+02 -0.30657876343E+02  0.43891178736E+02  0.00000000000E+00 0.  1.
</event>
<event>
 7    1  0.2405891E-015  0.9000775E+02  0.7816164E-02  0.1186339E+00
        -11   -1    0    0    0    0  0.00000000000E+00  0.00000000000E+00  0.45593999997E+02  0.45594000000E+02  0.51100000000E-03 0. -1.
         11   -1    0    0    0    0 -0.00000000000E+00 -0.00000000000E+00 -0.45593999997E+02  0.45594000000E+02  0.51100000000E-03 0.  1.
    9900012    2    1    2    0    0 -0.48427890168E+00 -0.87390188589E+00  0.62829811807E+00  0.90007750414E+02  0.90000011919E+02 0.  0.
        -12    1    1    2    0    0  0.48427890168E+00  0.87390188589E+00 -0.62829811807E+00  0.11802495863E+01  0.00000000000E+00 0.  1.
         11    1    3    3    0    0  0.31395943693E+02 -0.53475862884E+01 -0.19674422739E+02  0.37435075395E+02  0.51100000000E-03 0. -1.
        -11    1    3    3    0    0  0.51658247200E+01 -0.71839810522E+01  0.22155395431E+00  0.88512380610E+01  0.51100000000E-03 0.  1.
        -12    1    3    3    0    0 -0.37046047314E+02  0.11657665455E+02  0.20081166902E+02  0.43721436958E+02  0.00000000000E+00 0.  1.
</event>
<event>
 7    1  0.2405891E-015  0.9000776E+02  0.7816164E-02  0.1186339E+00
        -11   -1    0    0    0    0  0.00000000000E+00  0.00000000000E+00  0.45593999997E+02  0.45594000000E+02  0.51100000000E-03 0.  1.
         11   -1    0    0    0    0 -0.00000000000E+00 -0.00000000000E+00 -0.45593999997E+02  0.45594000000E+02  0.51100000000E-03 0. -1.
    9900012    2    1    2    0    0  0.75681700689E+00  0.43083056620E+00 -0.79660279823E+00  0.90007761475E+02  0.90000023126E+02 0.  0.
        -12    1    1    2    0    0 -0.75681700689E+00 -0.43083056620E+00  0.79660279823E+00  0.11802385254E+01  0.00000000000E+00 0.  1.
         11    1    3    3    0    0  0.27732233011E+02  0.13425066393E+01 -0.24954754437E+02  0.37331204656E+02  0.51100000000E-03 0. -1.
        -11    1    3    3    0    0  0.72468514728E+01 -0.90856418842E+01  0.62818929613E+01  0.13210901716E+02  0.51100000000E-03 0.  1.
        -12    1    3    3    0    0 -0.34222267477E+02  0.81739658111E+01  0.17876258677E+02  0.39465655102E+02  0.00000000000E+00 0.  1.
</event>
<event>
 7    1  0.2405891E-015  0.9000814E+02  0.7816164E-02  0.1186338E+00
        -11   -1    0    0    0    0  0.00000000000E+00  0.00000000000E+00  0.45593999997E+02  0.45594000000E+02  0.51100000000E-03 0. -1.
         11   -1    0    0    0    0 -0.00000000000E+00 -0.00000000000E+00 -0.45593999997E+02  0.45594000000E+02  0.51100000000E-03 0.  1.
    9900012    2    1    2    0    0 -0.52805347135E+00 -0.79268073772E+00  0.69633558940E+00  0.90008141333E+02  0.90000407998E+02 0.  0.
        -12    1    1    2    0    0  0.52805347135E+00  0.79268073772E+00 -0.69633558940E+00  0.11798586668E+01  0.00000000000E+00 0.  1.
         11    1    3    3    0    0  0.60164514557E+01  0.23447802718E+01 -0.65034920150E+01  0.91646653672E+01  0.51100000000E-03 0. -1.
        -11    1    3    3    0    0  0.36215301939E+02 -0.90831800007E+01  0.25867710736E+01  0.37426509834E+02  0.51100000000E-03 0.  1.
         12    1    3    3    0    0 -0.42759806866E+02  0.59457189911E+01  0.46130565308E+01  0.43416966132E+02  0.00000000000E+00 0. -1.
</event>
<event>
 7    1  0.2405891E-015  0.9000778E+02  0.7816164E-02  0.1186339E+00
        -11   -1    0    0    0    0  0.00000000000E+00  0.00000000000E+00  0.45593999997E+02  0.45594000000E+02  0.51100000000E-03 0. -1.
         11   -1    0    0    0    0 -0.00000000000E+00 -0.00000000000E+00 -0.45593999997E+02  0.45594000000E+02  0.51100000000E-03 0.  1.
    9900012    2    1    2    0    0  0.77560741016E+00 -0.88870737862E+00 -0.39435276730E-01  0.90007778495E+02  0.90000040371E+02 0.  0.
        -12    1    1    2    0    0 -0.77560741016E+00  0.88870737862E+00  0.39435276730E-01  0.11802215049E+01  0.00000000000E+00 0.  1.
         11    1    3    3    0    0 -0.35567024097E+02  0.50996836903E+01  0.13980007116E+02  0.38554644027E+02  0.51100000000E-03 0. -1.
        -11    1    3    3    0    0 -0.27570341840E+01  0.76060281721E+01 -0.28437935165E+01  0.85755503539E+01  0.51100000000E-03 0.  1.
        -12    1    3    3    0    0  0.39099665691E+02 -0.13594419241E+02 -0.11175648876E+02  0.42877584114E+02  0.00000000000E+00 0.  1.
</event>
<event>
 7    1  0.2405891E-015  0.9000773E+02  0.7816164E-02  0.1186339E+00
        -11   -1    0    0    0    0  0.00000000000E+00  0.00000000000E+00  0.45593999997E+02  0.45594000000E+02  0.51100000000E-03 0. -1.
         11   -1    0    0    0    0 -0.00000000000E+00 -0.00000000000E+00 -0.45593999997E+02  0.45594000000E+02  0.51100000000E-03 0.  1.
    9900012    2    1    2    0    0  0.89920844243E+00  0.73323671780E+00  0.21637130036E+00  0.90007733739E+02  0.89999995024E+02 0.  0.
        -12    1    1    2    0    0 -0.89920844243E+00 -0.73323671780E+00 -0.21637130036E+00  0.11802662610E+01  0.00000000000E+00 0.  1.
         11    1    3    3    0    0  0.58147475211E+01 -0.26013680432E+02 -0.11441828005E+02  0.29007555683E+02  0.51100000000E-03 0.  1.
        -11    1    3    3    0    0 -0.15209289356E+02 -0.98936688696E+01  0.13927977083E+02  0.22873471803E+02  0.51100000000E-03 0. -1.
         12    1    3    3    0    0  0.10293750277E+02  0.36640586019E+02 -0.22697777784E+01  0.38126706254E+02  0.00000000000E+00 0. -1.
</event>
<event>
 7    1  0.2405891E-015  0.9000719E+02  0.7816164E-02  0.1186340E+00
        -11   -1    0    0    0    0  0.00000000000E+00  0.00000000000E+00  0.45593999997E+02  0.45594000000E+02  0.51100000000E-03 0. -1.
         11   -1    0    0    0    0 -0.00000000000E+00 -0.00000000000E+00 -0.45593999997E+02  0.45594000000E+02  0.51100000000E-03 0.  1.
    9900012    2    1    2    0    0 -0.66564898110E+00 -0.79546836755E+00  0.56432660627E+00  0.90007185447E+02  0.89999439493E+02 0.  0.
        -12    1    1    2    0    0  0.66564898110E+00  0.79546836755E+00 -0.56432660627E+00  0.11808145529E+01  0.00000000000E+00 0.  1.
         11    1    3    3    0    0 -0.30617906280E+00 -0.54398473555E+01 -0.90920403633E+01  0.10599569949E+02  0.51100000000E-03 0. -1.
        -11    1    3    3    0    0 -0.11501094032E+02 -0.34023994949E+02 -0.56430313974E+01  0.36355896355E+02  0.51100000000E-03 0.  1.
         12    1    3    3    0    0  0.11141624113E+02  0.38668373937E+02  0.15299398367E+02  0.43051719143E+02  0.00000000000E+00 0. -1.
</event>
<event>
 7    1  0.2405891E-015  0.9000780E+02  0.7816164E-02  0.1186339E+00
        -11   -1    0    0    0    0  0.00000000000E+00  0.00000000000E+00  0.45593999997E+02  0.45594000000E+02  0.51100000000E-03 0. -1.
         11   -1    0    0    0    0 -0.00000000000E+00 -0.00000000000E+00 -0.45593999997E+02  0.45594000000E+02  0.51100000000E-03 0.  1.
    9900012    2    1    2    0    0 -0.17530846066E+00  0.22064724058E+00  0.11460646872E+01  0.90007795557E+02  0.90000057658E+02 0.  0.
        -12    1    1    2    0    0  0.17530846066E+00 -0.22064724058E+00 -0.11460646872E+01  0.11802044434E+01  0.00000000000E+00 0.  1.
         11    1    3    3    0    0  0.84180873559E+01  0.90130429348E+01 -0.67821822673E+01  0.14074698371E+02  0.51100000000E-03 0. -1.
        -11    1    3    3    0    0 -0.18458417793E+02  0.30116340285E+02  0.51612730248E+01  0.35697981443E+02  0.51100000000E-03 0.  1.
         12    1    3    3    0    0  0.98650219764E+01 -0.38908735979E+02  0.27669739297E+01  0.40235115743E+02  0.00000000000E+00 0. -1.
</event>
<event>
 7    1  0.2405891E-015  0.9000758E+02  0.7816164E-02  0.1186339E+00
        -11   -1    0    0    0    0  0.00000000000E+00  0.00000000000E+00  0.45593999997E+02  0.45594000000E+02  0.51100000000E-03 0.  1.
         11   -1    0    0    0    0 -0.00000000000E+00 -0.00000000000E+00 -0.45593999997E+02  0.45594000000E+02  0.51100000000E-03 0. -1.
    9900012    2    1    2    0    0 -0.58645389350E+00 -0.10175057522E+01  0.11890256570E+00  0.90007583148E+02  0.89999842445E+02 0.  0.
        -12    1    1    2    0    0  0.58645389350E+00  0.10175057522E+01 -0.11890256570E+00  0.11804168523E+01  0.00000000000E+00 0.  1.
         11    1    3    3    0    0  0.22285610852E+02  0.28696737613E+02  0.18628178662E+02  0.40830873628E+02  0.51100000000E-03 0. -1.
        -11    1    3    3    0    0 -0.18707201277E+02 -0.41414827910E+01 -0.11457404432E+02  0.22324501695E+02  0.51100000000E-03 0.  1.
        -12    1    3    3    0    0 -0.41648634683E+01 -0.25572760574E+02 -0.70518716641E+01  0.26852207825E+02  0.00000000000E+00 0.  1.
</event>
<event>
 7    1  0.2405891E-015  0.9000772E+02  0.7816164E-02  0.1186339E+00
        -11   -1    0    0    0    0  0.00000000000E+00  0.00000000000E+00  0.45593999997E+02  0.45594000000E+02  0.51100000000E-03 0.  1.
         11   -1    0    0    0    0 -0.00000000000E+00 -0.00000000000E+00 -0.45593999997E+02  0.45594000000E+02  0.51100000000E-03 0. -1.
    9900012    2    1    2    0    0  0.46391470490E+00 -0.21651635384E+00 -0.10634674650E+01  0.90007720697E+02  0.89999981810E+02 0.  0.
        -12    1    1    2    0    0 -0.46391470490E+00  0.21651635384E+00  0.10634674650E+01  0.11802793034E+01  0.00000000000E+00 0.  1.
         11    1    3    3    0    0  0.78578010761E+00 -0.21397477769E+01  0.81384448557E+01  0.84516421988E+01  0.51100000000E-03 0. -1.
        -11    1    3    3    0    0 -0.32348630190E+02  0.20177185931E+02  0.10786682803E+02  0.39622029648E+02  0.51100000000E-03 0.  1.
         12    1    3    3    0    0  0.32026764787E+02 -0.18253954508E+02 -0.19988595123E+02  0.41934048850E+02  0.00000000000E+00 0. -1.
</event>
<event>
 7    1  0.2405891E-015  0.9000773E+02  0.7816164E-02  0.1186339E+00
        -11   -1    0    0    0    0  0.00000000000E+00  0.00000000000E+00  0.45593999997E+02  0.45594000000E+02  0.51100000000E-03 0.  1.
         11   -1    0    0    0    0 -0.00000000000E+00 -0.00000000000E+00 -0.45593999997E+02  0.45594000000E+02  0.51100000000E-03 0. -1.
    9900012    2    1    2    0    0 -0.59004155633E+00 -0.89515141400E+00  0.49356151225E+00  0.90007725431E+02  0.89999986607E+02 0.  0.
        -12    1    1    2    0    0  0.59004155633E+00  0.89515141400E+00 -0.49356151225E+00  0.11802745691E+01  0.00000000000E+00 0.  1.
         11    1    3    3    0    0 -0.16648247346E+02 -0.13293859334E+02 -0.28796305356E+02  0.35820637042E+02  0.51100000000E-03 0. -1.
        -11    1    3    3    0    0 -0.15713591949E+01  0.70551976020E+01 -0.90909949272E+01  0.11614265881E+02  0.51100000000E-03 0.  1.
        -12    1    3    3    0    0  0.17629564985E+02  0.53435103181E+01  0.38380861796E+02  0.42572822508E+02  0.00000000000E+00 0.  1.
</event>
<event>
 7    1  0.2405891E-015  0.9000727E+02  0.7816164E-02  0.1186340E+00
        -11   -1    0    0    0    0  0.00000000000E+00  0.00000000000E+00  0.45593999997E+02  0.45594000000E+02  0.51100000000E-03 0.  1.
         11   -1    0    0    0    0 -0.00000000000E+00 -0.00000000000E+00 -0.45593999997E+02  0.45594000000E+02  0.51100000000E-03 0. -1.
    9900012    2    1    2    0    0  0.30103143020E+00 -0.10915147341E+01 -0.33482779506E+00  0.90007265488E+02  0.89999520591E+02 0.  0.
        -12    1    1    2    0    0 -0.30103143020E+00  0.10915147341E+01  0.33482779506E+00  0.11807345125E+01  0.00000000000E+00 0.  1.
         11    1    3    3    0    0 -0.11952431621E+02 -0.18227801503E+02 -0.35602193773E+02  0.41744814900E+02  0.51100000000E-03 0. -1.
        -11    1    3    3    0    0  0.52566302619E+01 -0.57020506121E+01  0.34786231327E+01  0.84997860004E+01  0.51100000000E-03 0.  1.
        -12    1    3    3    0    0  0.69968327892E+01  0.22838337381E+02  0.31788742846E+02  0.39762664587E+02  0.00000000000E+00 0.  1.
</event>
<event>
 7    1  0.2405891E-015  0.9000781E+02  0.7816164E-02  0.1186339E+00
        -11   -1    0    0    0    0  0.00000000000E+00  0.00000000000E+00  0.45593999997E+02  0.45594000000E+02  0.51100000000E-03 0.  1.
         11   -1    0    0    0    0 -0.00000000000E+00 -0.00000000000E+00 -0.45593999997E+02  0.45594000000E+02  0.51100000000E-03 0. -1.
    9900012    2    1    2    0    0  0.94844013413E+00 -0.40975956960E+00  0.57045296693E+00  0.90007805872E+02  0.90000068109E+02 0.  0.
        -12    1    1    2    0    0 -0.94844013413E+00  0.40975956960E+00 -0.57045296693E+00  0.11801941283E+01  0.00000000000E+00 0.  1.
         11    1    3    3    0    0 -0.33834403152E+02 -0.15552852563E+02 -0.15327674158E+02  0.40269040898E+02  0.51100000000E-03 0. -1.
        -11    1    3    3    0    0  0.81369289415E+01 -0.48704961959E+01  0.13270205054E+02  0.16310416556E+02  0.51100000000E-03 0.  1.
        -12    1    3    3    0    0  0.26645914345E+02  0.20013589189E+02  0.26279220706E+01  0.33428348417E+02  0.00000000000E+00 0.  1.
</event>
<event>
 7    1  0.2405891E-015  0.9000778E+02  0.7816164E-02  0.1186339E+00
        -11   -1    0    0    0    0  0.00000000000E+00  0.00000000000E+00  0.45593999997E+02  0.45594000000E+02  0.51100000000E-03 0.  1.
         11   -1    0    0    0    0 -0.00000000000E+00 -0.00000000000E+00 -0.45593999997E+02  0.45594000000E+02  0.51100000000E-03 0. -1.
    9900012    2    1    2    0    0 -0.11257151423E+00 -0.11676124780E+01 -0.13015233416E+00  0.90007775075E+02  0.90000036906E+02 0.  0.
        -12    1    1    2    0    0  0.11257151423E+00  0.11676124780E+01  0.13015233416E+00  0.11802249254E+01  0.00000000000E+00 0.  1.
         11    1    3    3    0    0  0.51078049635E+01  0.30426589411E+02  0.92111924485E+00  0.30866089413E+02  0.51100000000E-03 0. -1.
        -11    1    3    3    0    0  0.10359415651E+02  0.97449900511E+01  0.37370355192E+01  0.14705364955E+02  0.51100000000E-03 0.  1.
        -12    1    3    3    0    0 -0.15579792128E+02 -0.41339191940E+02 -0.47883070982E+01  0.44436320706E+02  0.00000000000E+00 0.  1.
</event>
<event>
 7    1  0.2405891E-015  0.9000776E+02  0.7816164E-02  0.1186339E+00
        -11   -1    0    0    0    0  0.00000000000E+00  0.00000000000E+00  0.45593999997E+02  0.45594000000E+02  0.51100000000E-03 0.  1.
         11   -1    0    0    0    0 -0.00000000000E+00 -0.00000000000E+00 -0.45593999997E+02  0.45594000000E+02  0.51100000000E-03 0. -1.
    9900012    2    1    2    0    0 -0.54184327512E+00  0.27320708536E+00 -0.10122878876E+01  0.90007761459E+02  0.90000023110E+02 0.  0.
        -12    1    1    2    0    0  0.54184327512E+00 -0.27320708536E+00  0.10122878876E+01  0.11802385410E+01  0.00000000000E+00 0.  1.
         11    1    3    3    0    0  0.82125372895E+01  0.21746348267E+02 -0.27841626751E+02  0.36269899532E+02  0.51100000000E-03 0. -1.
        -11    1    3    3    0    0  0.72079525402E+01  0.21717528274E+01 -0.64435291298E+01  0.99090947151E+01  0.51100000000E-03 0.  1.
        -12    1    3    3    0    0 -0.15962333105E+02 -0.23644894009E+02  0.33272867993E+02  0.43828767212E+02  0.00000000000E+00 0.  1.
</event>
<event>
 7    1  0.2405891E-015  0.9000767E+02  0.7816164E-02  0.1186339E+00
        -11   -1    0    0    0    0  0.00000000000E+00  0.00000000000E+00  0.45593999997E+02  0.45594000000E+02  0.51100000000E-03 0.  1.
         11   -1    0    0    0    0 -0.00000000000E+00 -0.00000000000E+00 -0.45593999997E+02  0.45594000000E+02  0.51100000000E-03 0. -1.
    9900012    2    1    2    0    0  0.35756127311E+00  0.11107490752E+01 -0.17765031521E+00  0.90007672416E+02  0.89999932891E+02 0.  0.
        -12    1    1    2    0    0 -0.35756127311E+00 -0.11107490752E+01  0.17765031521E+00  0.11803275845E+01  0.00000000000E+00 0.  1.
         11    1    3    3    0    0 -0.14848633511E+02  0.21362241208E+02 -0.27073476425E+02  0.37547308725E+02  0.51100000000E-03 0. -1.
        -11    1    3    3    0    0 -0.69960353721E+01  0.59901819743E+01  0.68913885370E+00  0.92358921407E+01  0.51100000000E-03 0.  1.
        -12    1    3    3    0    0  0.22202230156E+02 -0.26241674107E+02  0.26206687256E+02  0.43224471549E+02  0.00000000000E+00 0.  1.
</event>
<event>
 7    1  0.2405891E-015  0.9000774E+02  0.7816164E-02  0.1186339E+00
        -11   -1    0    0    0    0  0.00000000000E+00  0.00000000000E+00  0.45593999997E+02  0.45594000000E+02  0.51100000000E-03 0.  1.
         11   -1    0    0    0    0 -0.00000000000E+00 -0.00000000000E+00 -0.45593999997E+02  0.45594000000E+02  0.51100000000E-03 0. -1.
    9900012    2    1    2    0    0 -0.41196886793E+00  0.10908953127E+01  0.18234238428E+00  0.90007737454E+02  0.89999998789E+02 0.  0.
        -12    1    1    2    0    0  0.41196886793E+00 -0.10908953127E+01 -0.18234238428E+00  0.11802625456E+01  0.00000000000E+00 0.  1.
         11    1    3    3    0    0 -0.12000298828E+01 -0.40660641328E+01  0.10148682985E+02  0.10998577901E+02  0.51100000000E-03 0. -1.
        -11    1    3    3    0    0  0.36833996636E+02  0.12310570188E+02  0.53358946489E+01  0.39201597143E+02  0.51100000000E-03 0.  1.
         12    1    3    3    0    0 -0.36045935621E+02 -0.71536107429E+01 -0.15302235249E+02  0.39807562411E+02  0.00000000000E+00 0. -1.
</event>
<event>
 7    1  0.2405891E-015  0.9000772E+02  0.7816164E-02  0.1186339E+00
        -11   -1    0    0    0    0  0.00000000000E+00  0.00000000000E+00  0.45593999997E+02  0.45594000000E+02  0.51100000000E-03 0.  1.
         11   -1    0    0    0    0 -0.00000000000E+00 -0.00000000000E+00 -0.45593999997E+02  0.45594000000E+02  0.51100000000E-03 0. -1.
    9900012    2    1    2    0    0  0.91701955091E+00  0.26959469292E+00 -0.69243036757E+00  0.90007717843E+02  0.89999978919E+02 0.  0.
        -12    1    1    2    0    0 -0.91701955091E+00 -0.26959469292E+00  0.69243036757E+00  0.11802821566E+01  0.00000000000E+00 0.  1.
         11    1    3    3    0    0 -0.30538140309E+01 -0.84710951268E+01 -0.31251429073E+01  0.95316185003E+01  0.51100000000E-03 0. -1.
        -11    1    3    3    0    0 -0.30930032463E+02 -0.12551485221E+02  0.16506974842E+02  0.37238245234E+02  0.51100000000E-03 0.  1.
         12    1    3    3    0    0  0.34900866044E+02  0.21292175041E+02 -0.14074262302E+02  0.43237854109E+02  0.00000000000E+00 0. -1.
</event>
<event>
 7    1  0.2405891E-015  0.9000772E+02  0.7816164E-02  0.1186339E+00
        -11   -1    0    0    0    0  0.00000000000E+00  0.00000000000E+00  0.45593999997E+02  0.45594000000E+02  0.51100000000E-03 0.  1.
         11   -1    0    0    0    0 -0.00000000000E+00 -0.00000000000E+00 -0.45593999997E+02  0.45594000000E+02  0.51100000000E-03 0. -1.
    9900012    2    1    2    0    0 -0.58367144974E+00  0.58229092492E+00  0.84458147446E+00  0.90007723359E+02  0.89999984507E+02 0.  0.
        -12    1    1    2    0    0  0.58367144974E+00 -0.58229092492E+00 -0.84458147446E+00  0.11802766411E+01  0.00000000000E+00 0.  1.
         11    1    3    3    0    0  0.58341303322E+01 -0.31401579899E+01  0.12506231800E+02  0.14152862009E+02  0.51100000000E-03 0. -1.
        -11    1    3    3    0    0  0.37334863367E+01  0.29354297691E+02  0.18574202168E+02  0.34937296684E+02  0.51100000000E-03 0.  1.
         12    1    3    3    0    0 -0.10151288119E+02 -0.25631848776E+02 -0.30235852494E+02  0.40917564666E+02  0.00000000000E+00 0. -1.
</event>
<event>
 7    1  0.2405891E-015  0.9000773E+02  0.7816164E-02  0.1186339E+00
        -11   -1    0    0    0    0  0.00000000000E+00  0.00000000000E+00  0.45593999997E+02  0.45594000000E+02  0.51100000000E-03 0.  1.
         11   -1    0    0    0    0 -0.00000000000E+00 -0.00000000000E+00 -0.45593999997E+02  0.45594000000E+02  0.51100000000E-03 0. -1.
    9900012    2    1    2    0    0 -0.83415711396E+00  0.59830336033E+00  0.58246184503E+00  0.90007725963E+02  0.89999987146E+02 0.  0.
        -12    1    1    2    0    0  0.83415711396E+00 -0.59830336033E+00 -0.58246184503E+00  0.11802740371E+01  0.00000000000E+00 0.  1.
         11    1    3    3    0    0 -0.19291159805E+02  0.21948167378E+02  0.24650784399E+02  0.38229989140E+02  0.51100000000E-03 0. -1.
        -11    1    3    3    0    0 -0.82702114009E+00  0.94388383035E+01 -0.41205073351E+01  0.10332193061E+02  0.51100000000E-03 0.  1.
        -12    1    3    3    0    0  0.19284023831E+02 -0.30788702322E+02 -0.19947815219E+02  0.41445543762E+02  0.00000000000E+00 0.  1.
</event>
<event>
 7    1  0.2405891E-015  0.9000775E+02  0.7816164E-02  0.1186339E+00
        -11   -1    0    0    0    0  0.00000000000E+00  0.00000000000E+00  0.45593999997E+02  0.45594000000E+02  0.51100000000E-03 0. -1.
         11   -1    0    0    0    0 -0.00000000000E+00 -0.00000000000E+00 -0.45593999997E+02  0.45594000000E+02  0.51100000000E-03 0.  1.
    9900012    2    1    2    0    0  0.77946432313E+00  0.88448003578E+00  0.55823959973E-01  0.90007751772E+02  0.90000013296E+02 0.  0.
        -12    1    1    2    0    0 -0.77946432313E+00 -0.88448003578E+00 -0.55823959973E-01  0.11802482278E+01  0.00000000000E+00 0.  1.
         11    1    3    3    0    0 -0.25512936034E+01 -0.15606477491E+02  0.35484857201E+02  0.38849019673E+02  0.51100000000E-03 0. -1.
        -11    1    3    3    0    0  0.59114628228E+00  0.11023181276E+02  0.36325162630E+01  0.11621323247E+02  0.51100000000E-03 0.  1.
        -12    1    3    3    0    0  0.27396116443E+01  0.54677762514E+01 -0.39061549504E+02  0.39537408852E+02  0.00000000000E+00 0.  1.
</event>
<event>
 7    1  0.2405891E-015  0.9000755E+02  0.7816164E-02  0.1186339E+00
        -11   -1    0    0    0    0  0.00000000000E+00  0.00000000000E+00  0.45593999997E+02  0.45594000000E+02  0.51100000000E-03 0.  1.
         11   -1    0    0    0    0 -0.00000000000E+00 -0.00000000000E+00 -0.45593999997E+02  0.45594000000E+02  0.51100000000E-03 0. -1.
    9900012    2    1    2    0    0 -0.44407436210E+00  0.10902129270E+01  0.87708831124E-01  0.90007551312E+02  0.89999810189E+02 0.  0.
        -12    1    1    2    0    0  0.44407436210E+00 -0.10902129270E+01 -0.87708831124E-01  0.11804486878E+01  0.00000000000E+00 0.  1.
         11    1    3    3    0    0 -0.22788917451E+02  0.12665677639E+02 -0.30756540927E+02  0.40320205340E+02  0.51100000000E-03 0. -1.
        -11    1    3    3    0    0  0.14617098711E+02  0.77761332089E+01  0.68765392587E+01  0.17928039906E+02  0.51100000000E-03 0.  1.
        -12    1    3    3    0    0  0.77277443776E+01 -0.19351597921E+02  0.23967710499E+02  0.31759306066E+02  0.00000000000E+00 0.  1.
</event>
<event>
 7    1  0.2405891E-015  0.9000762E+02  0.7816164E-02  0.1186339E+00
        -11   -1    0    0    0    0  0.00000000000E+00  0.00000000000E+00  0.45593999997E+02  0.45594000000E+02  0.51100000000E-03 0.  1.
         11   -1    0    0    0    0 -0.00000000000E+00 -0.00000000000E+00 -0.45593999997E+02  0.45594000000E+02  0.51100000000E-03 0. -1.
    9900012    2    1    2    0    0  0.29283503920E+00 -0.64245067414E+00 -0.94593896306E+00  0.90007620506E+02  0.89999880296E+02 0.  0.
        -12    1    1    2    0    0 -0.29283503920E+00  0.64245067414E+00  0.94593896306E+00  0.11803794944E+01  0.00000000000E+00 0.  1.
         11    1    3    3    0    0 -0.51712587003E+01 -0.27173477178E+02 -0.23994259676E+02  0.36617813645E+02  0.51100000000E-03 0. -1.
        -11    1    3    3    0    0 -0.10398447447E+02  0.81812714227E+00 -0.55272132660E+01  0.11804538452E+02  0.51100000000E-03 0.  1.
        -12    1    3    3    0    0  0.15862541186E+02  0.25712899361E+02  0.28575533979E+02  0.41585268409E+02  0.00000000000E+00 0.  1.
</event>
<event>
 7    1  0.2405891E-015  0.9000778E+02  0.7816164E-02  0.1186339E+00
        -11   -1    0    0    0    0  0.00000000000E+00  0.00000000000E+00  0.45593999997E+02  0.45594000000E+02  0.51100000000E-03 0.  1.
         11   -1    0    0    0    0 -0.00000000000E+00 -0.00000000000E+00 -0.45593999997E+02  0.45594000000E+02  0.51100000000E-03 0. -1.
    9900012    2    1    2    0    0 -0.10417928450E+01  0.10901324241E+00 -0.54378722631E+00  0.90007779357E+02  0.90000041244E+02 0.  0.
        -12    1    1    2    0    0  0.10417928450E+01 -0.10901324241E+00  0.54378722631E+00  0.11802206431E+01  0.00000000000E+00 0.  1.
         11    1    3    3    0    0 -0.36320137280E+02  0.93702939872E+01 -0.19786709054E+02  0.42408355743E+02  0.51100000000E-03 0. -1.
        -11    1    3    3    0    0  0.89727623586E+01 -0.46006959351E-01 -0.53339728487E+01  0.10438574979E+02  0.51100000000E-03 0.  1.
        -12    1    3    3    0    0  0.26305582076E+02 -0.92152737855E+01  0.24576894676E+02  0.37160848634E+02  0.00000000000E+00 0.  1.
</event>
<event>
 7    1  0.2405891E-015  0.9000780E+02  0.7816164E-02  0.1186339E+00
        -11   -1    0    0    0    0  0.00000000000E+00  0.00000000000E+00  0.45593999997E+02  0.45594000000E+02  0.51100000000E-03 0. -1.
         11   -1    0    0    0    0 -0.00000000000E+00 -0.00000000000E+00 -0.45593999997E+02  0.45594000000E+02  0.51100000000E-03 0.  1.
    9900012    2    1    2    0    0  0.22062995230E+00  0.46943089695E+00  0.10601038139E+01  0.90007803813E+02  0.90000066024E+02 0.  0.
        -12    1    1    2    0    0 -0.22062995230E+00 -0.46943089695E+00 -0.10601038139E+01  0.11801961867E+01  0.00000000000E+00 0.  1.
         11    1    3    3    0    0  0.22299567252E+01  0.18221572736E+02 -0.33464582874E+01  0.18660042961E+02  0.51100000000E-03 0. -1.
        -11    1    3    3    0    0 -0.38821912897E+00  0.23790120104E+02 -0.12006814835E+02  0.26651156286E+02  0.51100000000E-03 0.  1.
         12    1    3    3    0    0 -0.16211076439E+01 -0.41542261943E+02  0.16413376936E+02  0.44696604566E+02  0.00000000000E+00 0. -1.
</event>
<event>
 7    1  0.2405891E-015  0.9000771E+02  0.7816164E-02  0.1186339E+00
        -11   -1    0    0    0    0  0.00000000000E+00  0.00000000000E+00  0.45593999997E+02  0.45594000000E+02  0.51100000000E-03 0.  1.
         11   -1    0    0    0    0 -0.00000000000E+00 -0.00000000000E+00 -0.45593999997E+02  0.45594000000E+02  0.51100000000E-03 0. -1.
    9900012    2    1    2    0    0  0.10480457958E+01  0.24125903826E+00 -0.48629767962E+00  0.90007707093E+02  0.89999968026E+02 0.  0.
        -12    1    1    2    0    0 -0.10480457958E+01 -0.24125903826E+00  0.48629767962E+00  0.11802929072E+01  0.00000000000E+00 0.  1.
         11    1    3    3    0    0 -0.34513829686E+02  0.98075951944E+01 -0.49248782506E+01  0.36216678328E+02  0.51100000000E-03 0. -1.
        -11    1    3    3    0    0  0.45861487962E+01 -0.16879811105E+01 -0.15410788691E+02  0.16167079185E+02  0.51100000000E-03 0.  1.
        -12    1    3    3    0    0  0.30975726685E+02 -0.78783550456E+01  0.19849369262E+02  0.37623949580E+02  0.00000000000E+00 0.  1.
</event>
<event>
 7    1  0.2405891E-015  0.9000790E+02  0.7816164E-02  0.1186339E+00
        -11   -1    0    0    0    0  0.00000000000E+00  0.00000000000E+00  0.45593999997E+02  0.45594000000E+02  0.51100000000E-03 0. -1.
         11   -1    0    0    0    0 -0.00000000000E+00 -0.00000000000E+00 -0.45593999997E+02  0.45594000000E+02  0.51100000000E-03 0.  1.
    9900012    2    1    2    0    0  0.36713488311E+00 -0.99655428840E+00  0.51451811559E+00  0.90007899427E+02  0.90000162899E+02 0.  0.
        -12    1    1    2    0    0 -0.36713488311E+00  0.99655428840E+00 -0.51451811559E+00  0.11801005734E+01  0.00000000000E+00 0.  1.
         11    1    3    3    0    0 -0.30641321279E+01  0.63968888633E+01  0.60862975889E+01  0.93462351472E+01  0.51100000000E-03 0. -1.
        -11    1    3    3    0    0 -0.22121891397E+02 -0.14245847855E+02  0.27666024073E+02  0.38180245525E+02  0.51100000000E-03 0.  1.
         12    1    3    3    0    0  0.25553158408E+02  0.68524047037E+01 -0.33237803546E+02  0.42481418754E+02  0.00000000000E+00 0. -1.
</event>
<event>
 7    1  0.2405891E-015  0.9000765E+02  0.7816164E-02  0.1186339E+00
        -11   -1    0    0    0    0  0.00000000000E+00  0.00000000000E+00  0.45593999997E+02  0.45594000000E+02  0.51100000000E-03 0.  1.
         11   -1    0    0    0    0 -0.00000000000E+00 -0.00000000000E+00 -0.45593999997E+02  0.45594000000E+02  0.51100000000E-03 0. -1.
    9900012    2    1    2    0    0 -0.29943759547E+00 -0.52387075997E+00 -0.10144621541E+01  0.90007645431E+02  0.89999905550E+02 0.  0.
        -12    1    1    2    0    0  0.29943759547E+00  0.52387075997E+00  0.10144621541E+01  0.11803545691E+01  0.00000000000E+00 0.  1.
         11    1    3    3    0    0 -0.81817109737E+01  0.76106602483E+01 -0.39728528369E+02  0.41270067973E+02  0.51100000000E-03 0. -1.
        -11    1    3    3    0    0  0.44146882899E+01  0.82906911183E+01  0.40623901322E+01  0.10233672154E+02  0.51100000000E-03 0.  1.
        -12    1    3    3    0    0  0.34675850883E+01 -0.16425222127E+02  0.34651676083E+02  0.38503905303E+02  0.00000000000E+00 0.  1.
</event>
<event>
 7    1  0.2405891E-015  0.9000770E+02  0.7816164E-02  0.1186339E+00
        -11   -1    0    0    0    0  0.00000000000E+00  0.00000000000E+00  0.45593999997E+02  0.45594000000E+02  0.51100000000E-03 0.  1.
         11   -1    0    0    0    0 -0.00000000000E+00 -0.00000000000E+00 -0.45593999997E+02  0.45594000000E+02  0.51100000000E-03 0. -1.
    9900012    2    1    2    0    0  0.33615224722E+00 -0.45965867344E+00 -0.10338414389E+01  0.90007698111E+02  0.89999958926E+02 0.  0.
        -12    1    1    2    0    0 -0.33615224722E+00  0.45965867344E+00  0.10338414389E+01  0.11803018894E+01  0.00000000000E+00 0.  1.
         11    1    3    3    0    0 -0.77779194611E+01  0.10313843823E+01  0.68093699305E+01  0.10388806669E+02  0.51100000000E-03 0. -1.
        -11    1    3    3    0    0  0.17307692038E+02  0.18025062107E+02  0.28158830522E+02  0.37648091642E+02  0.51100000000E-03 0.  1.
         12    1    3    3    0    0 -0.91936203299E+01 -0.19516105163E+02 -0.36002041891E+02  0.41970799800E+02  0.00000000000E+00 0. -1.
</event>
<event>
 7    1  0.2405891E-015  0.9000775E+02  0.7816164E-02  0.1186339E+00
        -11   -1    0    0    0    0  0.00000000000E+00  0.00000000000E+00  0.45593999997E+02  0.45594000000E+02  0.51100000000E-03 0. -1.
         11   -1    0    0    0    0 -0.00000000000E+00 -0.00000000000E+00 -0.45593999997E+02  0.45594000000E+02  0.51100000000E-03 0.  1.
    9900012    2    1    2    0    0 -0.72920612146E-01  0.99003340032E+00  0.63835964564E+00  0.90007751473E+02  0.90000012992E+02 0.  0.
        -12    1    1    2    0    0  0.72920612146E-01 -0.99003340032E+00 -0.63835964564E+00  0.11802485275E+01  0.00000000000E+00 0.  1.
         11    1    3    3    0    0  0.14450079146E+00 -0.83540683046E+01  0.53795938600E+01  0.99373722923E+01  0.51100000000E-03 0. -1.
        -11    1    3    3    0    0 -0.42651116432E+01 -0.23127181578E+02 -0.30437527674E+02  0.38464279484E+02  0.51100000000E-03 0.  1.
         12    1    3    3    0    0  0.40476902396E+01  0.32471283283E+02  0.25696293460E+02  0.41606099696E+02  0.00000000000E+00 0. -1.
</event>
<event>
 7    1  0.2405891E-015  0.9000773E+02  0.7816164E-02  0.1186339E+00
        -11   -1    0    0    0    0  0.00000000000E+00  0.00000000000E+00  0.45593999997E+02  0.45594000000E+02  0.51100000000E-03 0.  1.
         11   -1    0    0    0    0 -0.00000000000E+00 -0.00000000000E+00 -0.45593999997E+02  0.45594000000E+02  0.51100000000E-03 0. -1.
    9900012    2    1    2    0    0  0.11091461700E+01  0.40225638183E+00  0.32027060234E-01  0.90007728355E+02  0.89999989569E+02 0.  0.
        -12    1    1    2    0    0 -0.11091461700E+01 -0.40225638183E+00 -0.32027060234E-01  0.11802716449E+01  0.00000000000E+00 0.  1.
         11    1    3    3    0    0  0.37360145482E+02  0.68472718852E+01 -0.12294394727E+02  0.39922647015E+02  0.51100000000E-03 0. -1.
        -11    1    3    3    0    0  0.37481537932E+01  0.10320723160E+01  0.83358939386E+01  0.91978779150E+01  0.51100000000E-03 0.  1.
        -12    1    3    3    0    0 -0.39999153105E+02 -0.74770878194E+01  0.39905278487E+01  0.40887203425E+02  0.00000000000E+00 0.  1.
</event>
<event>
 7    1  0.2652708E-015  0.9000759E+02  0.7816164E-02  0.1186339E+00
        -11   -1    0    0    0    0  0.00000000000E+00  0.00000000000E+00  0.45593999997E+02  0.45594000000E+02  0.51100000000E-03 0. -1.
         11   -1    0    0    0    0 -0.00000000000E+00 -0.00000000000E+00 -0.45593999997E+02  0.45594000000E+02  0.51100000000E-03 0.  1.
    9900012    2    1    2    0    0 -0.80461276098E+00  0.85267856964E+00  0.13746450509E+00  0.90007593744E+02  0.89999853182E+02 0.  0.
        -12    1    1    2    0    0  0.80461276098E+00 -0.85267856964E+00 -0.13746450509E+00  0.11804062557E+01  0.00000000000E+00 0.  1.
         11    1    3    3    0    0 -0.34582934285E+01  0.41706571312E+01  0.76280428852E+01  0.93563461278E+01  0.51100000000E-03 0. -1.
        -11    1    3    3    0    0 -0.15011725168E+02 -0.34452884010E+02  0.12555666019E+02  0.39623198490E+02  0.51100000000E-03 0.  1.
         12    1    3    3    0    0  0.17665405835E+02  0.31134905449E+02 -0.20046244399E+02  0.41028049127E+02  0.00000000000E+00 0. -1.
</event>
<event>
 7    1  0.2405891E-015  0.9000759E+02  0.7816164E-02  0.1186339E+00
        -11   -1    0    0    0    0  0.00000000000E+00  0.00000000000E+00  0.45593999997E+02  0.45594000000E+02  0.51100000000E-03 0. -1.
         11   -1    0    0    0    0 -0.00000000000E+00 -0.00000000000E+00 -0.45593999997E+02  0.45594000000E+02  0.51100000000E-03 0.  1.
    9900012    2    1    2    0    0  0.51244558899E+00 -0.20338376291E+00  0.10437486551E+01  0.90007586220E+02  0.89999845558E+02 0.  0.
        -12    1    1    2    0    0 -0.51244558899E+00  0.20338376291E+00 -0.10437486551E+01  0.11804137799E+01  0.00000000000E+00 0.  1.
         11    1    3    3    0    0 -0.75531658997E+01  0.79733426653E+01 -0.67424697413E+00  0.11003595667E+02  0.51100000000E-03 0. -1.
        -11    1    3    3    0    0 -0.23993693126E+02 -0.14540371091E+01  0.28075340524E+02  0.36959928024E+02  0.51100000000E-03 0.  1.
         12    1    3    3    0    0  0.32059304615E+02 -0.67226893190E+01 -0.26357344894E+02  0.42044062529E+02  0.00000000000E+00 0. -1.
</event>
<event>
 7    1  0.2405891E-015  0.9000773E+02  0.7816164E-02  0.1186339E+00
        -11   -1    0    0    0    0  0.00000000000E+00  0.00000000000E+00  0.45593999997E+02  0.45594000000E+02  0.51100000000E-03 0. -1.
         11   -1    0    0    0    0 -0.00000000000E+00 -0.00000000000E+00 -0.45593999997E+02  0.45594000000E+02  0.51100000000E-03 0.  1.
    9900012    2    1    2    0    0  0.61805502354E+00  0.29279685019E+00  0.96193352362E+00  0.90007729645E+02  0.89999990876E+02 0.  0.
        -12    1    1    2    0    0 -0.61805502354E+00 -0.29279685019E+00 -0.96193352362E+00  0.11802703552E+01  0.00000000000E+00 0.  1.
         11    1    3    3    0    0 -0.68820813919E+01  0.14132992926E+02  0.38367928803E+02  0.41463266806E+02  0.51100000000E-03 0. -1.
        -11    1    3    3    0    0  0.27041589312E+01 -0.68161821520E+01  0.24959526700E+01  0.77461341743E+01  0.51100000000E-03 0.  1.
        -12    1    3    3    0    0  0.47959774842E+01 -0.70240139236E+01 -0.39901947950E+02  0.40798328664E+02  0.00000000000E+00 0.  1.
</event>
<event>
 7    1  0.2405891E-015  0.9000774E+02  0.7816164E-02  0.1186339E+00
        -11   -1    0    0    0    0  0.00000000000E+00  0.00000000000E+00  0.45593999997E+02  0.45594000000E+02  0.51100000000E-03 0. -1.
         11   -1    0    0    0    0 -0.00000000000E+00 -0.00000000000E+00 -0.45593999997E+02  0.45594000000E+02  0.51100000000E-03 0.  1.
    9900012    2    1    2    0    0 -0.65138277891E+00  0.26363372516E+00  0.94826658407E+00  0.90007740800E+02  0.90000002178E+02 0.  0.
        -12    1    1    2    0    0  0.65138277891E+00 -0.26363372516E+00 -0.94826658407E+00  0.11802592004E+01  0.00000000000E+00 0.  1.
         11    1    3    3    0    0  0.31169819737E+02 -0.23663995066E+02  0.10423962600E+02  0.40499399026E+02  0.51100000000E-03 0. -1.
        -11    1    3    3    0    0  0.24328838490E+01  0.71924101354E+01  0.45904808074E+01  0.88725532786E+01  0.51100000000E-03 0.  1.
        -12    1    3    3    0    0 -0.34254086365E+02  0.16735218656E+02 -0.14066176823E+02  0.40635788495E+02  0.00000000000E+00 0.  1.
</event>
<event>
 7    1  0.2405891E-015  0.9000771E+02  0.7816164E-02  0.1186339E+00
        -11   -1    0    0    0    0  0.00000000000E+00  0.00000000000E+00  0.45593999997E+02  0.45594000000E+02  0.51100000000E-03 0. -1.
         11   -1    0    0    0    0 -0.00000000000E+00 -0.00000000000E+00 -0.45593999997E+02  0.45594000000E+02  0.51100000000E-03 0.  1.
    9900012    2    1    2    0    0  0.97859408543E-01  0.72075025439E+00  0.92952537032E+00  0.90007714099E+02  0.89999975126E+02 0.  0.
        -12    1    1    2    0    0 -0.97859408543E-01 -0.72075025439E+00 -0.92952537032E+00  0.11802859006E+01  0.00000000000E+00 0.  1.
         11    1    3    3    0    0  0.13135988390E+02  0.16636837744E+01 -0.31054587146E+01  0.13600217232E+02  0.51100000000E-03 0. -1.
        -11    1    3    3    0    0  0.79705216022E+01  0.15406119075E+02 -0.29115896914E+02  0.33891196098E+02  0.51100000000E-03 0.  1.
         12    1    3    3    0    0 -0.21008650583E+02 -0.16349052595E+02  0.33150880999E+02  0.42516300769E+02  0.00000000000E+00 0. -1.
</event>
<event>
 7    1  0.2405891E-015  0.9000816E+02  0.7816164E-02  0.1186338E+00
        -11   -1    0    0    0    0  0.00000000000E+00  0.00000000000E+00  0.45593999997E+02  0.45594000000E+02  0.51100000000E-03 0. -1.
         11   -1    0    0    0    0 -0.00000000000E+00 -0.00000000000E+00 -0.45593999997E+02  0.45594000000E+02  0.51100000000E-03 0.  1.
    9900012    2    1    2    0    0  0.46074242807E-01  0.82250617371E+00 -0.84462348442E+00  0.90008157607E+02  0.90000424487E+02 0.  0.
        -12    1    1    2    0    0 -0.46074242807E-01 -0.82250617371E+00  0.84462348442E+00  0.11798423929E+01  0.00000000000E+00 0.  1.
         11    1    3    3    0    0 -0.29565468905E+02  0.53605578147E+01  0.14957774375E+02  0.33564677060E+02  0.51100000000E-03 0. -1.
        -11    1    3    3    0    0 -0.40961624187E+01 -0.14438486031E+01  0.11922544784E+02  0.12688984188E+02  0.51100000000E-03 0.  1.
        -12    1    3    3    0    0  0.33707705567E+02 -0.30942030380E+01 -0.27724942643E+02  0.43754496358E+02  0.00000000000E+00 0.  1.
</event>
<event>
 7    1  0.2405891E-015  0.9000765E+02  0.7816164E-02  0.1186339E+00
        -11   -1    0    0    0    0  0.00000000000E+00  0.00000000000E+00  0.45593999997E+02  0.45594000000E+02  0.51100000000E-03 0.  1.
         11   -1    0    0    0    0 -0.00000000000E+00 -0.00000000000E+00 -0.45593999997E+02  0.45594000000E+02  0.51100000000E-03 0. -1.
    9900012    2    1    2    0    0  0.90828665319E+00 -0.11922637374E+00  0.74433159931E+00  0.90007648738E+02  0.89999908901E+02 0.  0.
        -12    1    1    2    0    0 -0.90828665319E+00  0.11922637374E+00 -0.74433159931E+00  0.11803512623E+01  0.00000000000E+00 0.  1.
         11    1    3    3    0    0  0.13351933091E+01  0.67306276308E+01 -0.72650545401E+01  0.99932530844E+01  0.51100000000E-03 0. -1.
        -11    1    3    3    0    0  0.40231929448E+01  0.20190108592E+02  0.35602080724E+02  0.41125840035E+02  0.51100000000E-03 0.  1.
         12    1    3    3    0    0 -0.44500996007E+01 -0.27039962596E+02 -0.27592694585E+02  0.38888555619E+02  0.00000000000E+00 0. -1.
</event>
<event>
 7    1  0.2405891E-015  0.9000777E+02  0.7816164E-02  0.1186339E+00
        -11   -1    0    0    0    0  0.00000000000E+00  0.00000000000E+00  0.45593999997E+02  0.45594000000E+02  0.51100000000E-03 0. -1.
         11   -1    0    0    0    0 -0.00000000000E+00 -0.00000000000E+00 -0.45593999997E+02  0.45594000000E+02  0.51100000000E-03 0.  1.
    9900012    2    1    2    0    0 -0.98045486290E+00 -0.63116529482E-01  0.65396611535E+00  0.90007768195E+02  0.90000029935E+02 0.  0.
        -12    1    1    2    0    0  0.98045486290E+00  0.63116529482E-01 -0.65396611535E+00  0.11802318054E+01  0.00000000000E+00 0.  1.
         11    1    3    3    0    0  0.29721805160E+02 -0.86254922130E+01  0.11957083006E+02  0.33177652903E+02  0.51100000000E-03 0. -1.
        -11    1    3    3    0    0  0.84631220279E+01  0.64516589065E+01  0.78086508702E+01  0.13199369901E+02  0.51100000000E-03 0.  1.
        -12    1    3    3    0    0 -0.39165382050E+02  0.21107167771E+01 -0.19111767760E+02  0.43630745391E+02  0.00000000000E+00 0.  1.
</event>
<event>
 7    1  0.2405891E-015  0.9000773E+02  0.7816164E-02  0.1186339E+00
        -11   -1    0    0    0    0  0.00000000000E+00  0.00000000000E+00  0.45593999997E+02  0.45594000000E+02  0.51100000000E-03 0.  1.
         11   -1    0    0    0    0 -0.00000000000E+00 -0.00000000000E+00 -0.45593999997E+02  0.45594000000E+02  0.51100000000E-03 0. -1.
    9900012    2    1    2    0    0 -0.89076712238E+00 -0.77369748116E+00  0.31029283630E-01  0.90007730253E+02  0.89999991493E+02 0.  0.
        -12    1    1    2    0    0  0.89076712238E+00  0.77369748116E+00 -0.31029283630E-01  0.11802697468E+01  0.00000000000E+00 0.  1.
         11    1    3    3    0    0 -0.99072388370E+00  0.85175106483E+01  0.66262548342E+01  0.10836824943E+02  0.51100000000E-03 0. -1.
        -11    1    3    3    0    0  0.32274596768E+02 -0.22921195551E+02  0.94844938067E+01  0.40706098131E+02  0.51100000000E-03 0.  1.
         12    1    3    3    0    0 -0.32174640007E+02  0.13629987422E+02 -0.16079719357E+02  0.38464807179E+02  0.00000000000E+00 0. -1.
</event>
<event>
 7    1  0.2405891E-015  0.9000836E+02  0.7816164E-02  0.1186338E+00
        -11   -1    0    0    0    0  0.00000000000E+00  0.00000000000E+00  0.45593999997E+02  0.45594000000E+02  0.51100000000E-03 0.  1.
         11   -1    0    0    0    0 -0.00000000000E+00 -0.00000000000E+00 -0.45593999997E+02  0.45594000000E+02  0.51100000000E-03 0. -1.
    9900012    2    1    2    0    0  0.92037922982E+00 -0.54597737619E+00 -0.49634703220E+00  0.90008360395E+02  0.90000629950E+02 0.  0.
        -12    1    1    2    0    0 -0.92037922982E+00  0.54597737619E+00  0.49634703220E+00  0.11796396053E+01  0.00000000000E+00 0.  1.
         11    1    3    3    0    0  0.86938896700E+01 -0.25491501763E+02 -0.28418770606E+02  0.39153887454E+02  0.51100000000E-03 0. -1.
        -11    1    3    3    0    0 -0.80397332728E+01 -0.78323991093E+00 -0.46693220749E+01  0.93302381940E+01  0.51100000000E-03 0.  1.
        -12    1    3    3    0    0  0.26622283264E+00  0.25728764298E+02  0.32591745649E+02  0.41524234747E+02  0.00000000000E+00 0.  1.
</event>
<event>
 7    1  0.2405891E-015  0.9000775E+02  0.7816164E-02  0.1186339E+00
        -11   -1    0    0    0    0  0.00000000000E+00  0.00000000000E+00  0.45593999997E+02  0.45594000000E+02  0.51100000000E-03 0.  1.
         11   -1    0    0    0    0 -0.00000000000E+00 -0.00000000000E+00 -0.45593999997E+02  0.45594000000E+02  0.51100000000E-03 0. -1.
    9900012    2    1    2    0    0 -0.55159939160E+00  0.41244311639E+00 -0.95844874833E+00  0.90007747817E+02  0.90000009288E+02 0.  0.
        -12    1    1    2    0    0  0.55159939160E+00 -0.41244311639E+00  0.95844874833E+00  0.11802521833E+01  0.00000000000E+00 0.  1.
         11    1    3    3    0    0  0.25979444931E+01  0.76827275348E+01 -0.40581276480E+01  0.90687385138E+01  0.51100000000E-03 0. -1.
        -11    1    3    3    0    0 -0.29418103753E+02 -0.43483132418E+01 -0.27500567149E+02  0.40504491730E+02  0.51100000000E-03 0.  1.
         12    1    3    3    0    0  0.26268559869E+02 -0.29219711766E+01  0.30600246049E+02  0.40434517573E+02  0.00000000000E+00 0. -1.
</event>
<event>
 7    1  0.2405891E-015  0.9000776E+02  0.7816164E-02  0.1186339E+00
        -11   -1    0    0    0    0  0.00000000000E+00  0.00000000000E+00  0.45593999997E+02  0.45594000000E+02  0.51100000000E-03 0. -1.
         11   -1    0    0    0    0 -0.00000000000E+00 -0.00000000000E+00 -0.45593999997E+02  0.45594000000E+02  0.51100000000E-03 0.  1.
    9900012    2    1    2    0    0 -0.84585713083E+00  0.76784157013E+00  0.29649395040E+00  0.90007761200E+02  0.90000022848E+02 0.  0.
        -12    1    1    2    0    0  0.84585713083E+00 -0.76784157013E+00 -0.29649395040E+00  0.11802388001E+01  0.00000000000E+00 0.  1.
         11    1    3    3    0    0 -0.13819361322E+01 -0.20711748570E+02  0.65175850304E+01  0.21756957305E+02  0.51100000000E-03 0. -1.
        -11    1    3    3    0    0  0.16367552432E+02 -0.15128921189E+02  0.10942161494E+02  0.24829658221E+02  0.51100000000E-03 0.  1.
         12    1    3    3    0    0 -0.15831473431E+02  0.36608511329E+02 -0.17163252574E+02  0.43421145674E+02  0.00000000000E+00 0. -1.
</event>
<event>
 7    1  0.2405891E-015  0.9000772E+02  0.7816164E-02  0.1186339E+00
        -11   -1    0    0    0    0  0.00000000000E+00  0.00000000000E+00  0.45593999997E+02  0.45594000000E+02  0.51100000000E-03 0. -1.
         11   -1    0    0    0    0 -0.00000000000E+00 -0.00000000000E+00 -0.45593999997E+02  0.45594000000E+02  0.51100000000E-03 0.  1.
    9900012    2    1    2    0    0 -0.84609154597E-02 -0.10430002298E+01  0.55239682919E+00  0.90007718964E+02  0.89999980055E+02 0.  0.
        -12    1    1    2    0    0  0.84609154597E-02  0.10430002298E+01 -0.55239682919E+00  0.11802810357E+01  0.00000000000E+00 0.  1.
         11    1    3    3    0    0 -0.22066962062E+01  0.24119386515E+02  0.26953720660E+02  0.36236961402E+02  0.51100000000E-03 0. -1.
        -11    1    3    3    0    0  0.70926309782E+01  0.77796961488E+01  0.10931770874E+01  0.10584144876E+02  0.51100000000E-03 0.  1.
        -12    1    3    3    0    0 -0.48943956874E+01 -0.32942082893E+02 -0.27494500918E+02  0.43186612685E+02  0.00000000000E+00 0.  1.
</event>
<event>
 7    1  0.2405891E-015  0.9000769E+02  0.7816164E-02  0.1186339E+00
        -11   -1    0    0    0    0  0.00000000000E+00  0.00000000000E+00  0.45593999997E+02  0.45594000000E+02  0.51100000000E-03 0. -1.
         11   -1    0    0    0    0 -0.00000000000E+00 -0.00000000000E+00 -0.45593999997E+02  0.45594000000E+02  0.51100000000E-03 0.  1.
    9900012    2    1    2    0    0 -0.72996572335E+00 -0.74609137391E+00  0.55102686976E+00  0.90007689487E+02  0.89999950188E+02 0.  0.
        -12    1    1    2    0    0  0.72996572335E+00  0.74609137391E+00 -0.55102686976E+00  0.11803105128E+01  0.00000000000E+00 0.  1.
         11    1    3    3    0    0 -0.19396847893E+02  0.22389993882E+02  0.22983826248E+02  0.37494076912E+02  0.51100000000E-03 0. -1.
        -11    1    3    3    0    0  0.28780666908E+01  0.89355364560E+01  0.14827404772E+01  0.95039780732E+01  0.51100000000E-03 0.  1.
        -12    1    3    3    0    0  0.15788815478E+02 -0.32071621712E+02 -0.23915539855E+02  0.43009634502E+02  0.00000000000E+00 0.  1.
</event>
<event>
 7    1  0.2405891E-015  0.9000759E+02  0.7816164E-02  0.1186339E+00
        -11   -1    0    0    0    0  0.00000000000E+00  0.00000000000E+00  0.45593999997E+02  0.45594000000E+02  0.51100000000E-03 0.  1.
         11   -1    0    0    0    0 -0.00000000000E+00 -0.00000000000E+00 -0.45593999997E+02  0.45594000000E+02  0.51100000000E-03 0. -1.
    9900012    2    1    2    0    0 -0.31475465389E+00  0.10642487093E+01 -0.40207317082E+00  0.90007593866E+02  0.89999853305E+02 0.  0.
        -12    1    1    2    0    0  0.31475465389E+00 -0.10642487093E+01  0.40207317082E+00  0.11804061344E+01  0.00000000000E+00 0.  1.
         11    1    3    3    0    0  0.11293045432E+02  0.21199344144E+01 -0.26709296114E+01  0.11796646231E+02  0.51100000000E-03 0. -1.
        -11    1    3    3    0    0 -0.12162303032E+02  0.36090637165E+02  0.11774899012E+02  0.39863566737E+02  0.51100000000E-03 0.  1.
         12    1    3    3    0    0  0.55450294556E+00 -0.37146322870E+02 -0.95060425715E+01  0.38347380897E+02  0.00000000000E+00 0. -1.
</event>
<event>
 7    1  0.2405891E-015  0.9000871E+02  0.7816164E-02  0.1186337E+00
        -11   -1    0    0    0    0  0.00000000000E+00  0.00000000000E+00  0.45593999997E+02  0.45594000000E+02  0.51100000000E-03 0.  1.
         11   -1    0    0    0    0 -0.00000000000E+00 -0.00000000000E+00 -0.45593999997E+02  0.45594000000E+02  0.51100000000E-03 0. -1.
    9900012    2    1    2    0    0 -0.11476489385E+01 -0.24037829502E+00 -0.12591945916E+00  0.90008705499E+02  0.90000979606E+02 0.  0.
        -12    1    1    2    0    0  0.11476489385E+01  0.24037829502E+00  0.12591945916E+00  0.11792945014E+01  0.00000000000E+00 0.  1.
         11    1    3    3    0    0 -0.96122692483E+01 -0.87108113246E+01 -0.11328947424E+02  0.17222630578E+02  0.51100000000E-03 0. -1.
        -11    1    3    3    0    0  0.23833525227E+02 -0.20170478539E+02  0.22378520115E+02  0.38414623414E+02  0.51100000000E-03 0.  1.
        -12    1    3    3    0    0 -0.15368904918E+02  0.28640911569E+02 -0.11175492150E+02  0.34371451506E+02  0.00000000000E+00 0.  1.
</event>
<event>
 7    1  0.2405891E-015  0.9000778E+02  0.7816164E-02  0.1186339E+00
        -11   -1    0    0    0    0  0.00000000000E+00  0.00000000000E+00  0.45593999997E+02  0.45594000000E+02  0.51100000000E-03 0. -1.
         11   -1    0    0    0    0 -0.00000000000E+00 -0.00000000000E+00 -0.45593999997E+02  0.45594000000E+02  0.51100000000E-03 0.  1.
    9900012    2    1    2    0    0  0.11324153851E+00  0.33676630443E+00  0.11254747930E+01  0.90007775996E+02  0.90000037839E+02 0.  0.
        -12    1    1    2    0    0 -0.11324153851E+00 -0.33676630443E+00 -0.11254747930E+01  0.11802240040E+01  0.00000000000E+00 0.  1.
         11    1    3    3    0    0  0.38568586879E+02  0.88373721628E+01 -0.13927854285E+01  0.39592611585E+02  0.51100000000E-03 0. -1.
        -11    1    3    3    0    0  0.36403188434E+00 -0.49381862573E+00 -0.90924243115E+01  0.91130980555E+01  0.51100000000E-03 0.  1.
        -12    1    3    3    0    0 -0.38819377225E+02 -0.80067872326E+01  0.11610684533E+02  0.41302066356E+02  0.00000000000E+00 0.  1.
</event>
<event>
 7    1  0.2405891E-015  0.9000803E+02  0.7816164E-02  0.1186338E+00
        -11   -1    0    0    0    0  0.00000000000E+00  0.00000000000E+00  0.45593999997E+02  0.45594000000E+02  0.51100000000E-03 0. -1.
         11   -1    0    0    0    0 -0.00000000000E+00 -0.00000000000E+00 -0.45593999997E+02  0.45594000000E+02  0.51100000000E-03 0.  1.
    9900012    2    1    2    0    0  0.30503475946E-01  0.11103748355E+01  0.39807059254E+00  0.90008032656E+02  0.90000297886E+02 0.  0.
        -12    1    1    2    0    0 -0.30503475946E-01 -0.11103748355E+01 -0.39807059254E+00  0.11799673445E+01  0.00000000000E+00 0.  1.
         11    1    3    3    0    0 -0.83455114488E+00  0.41301849001E+02 -0.42243160039E+01  0.41525703516E+02  0.51100000000E-03 0. -1.
        -11    1    3    3    0    0  0.77760988147E+01 -0.40821705792E+00  0.18781437577E+01  0.80101047545E+01  0.51100000000E-03 0.  1.
        -12    1    3    3    0    0 -0.69110441939E+01 -0.39783257108E+02  0.27442428387E+01  0.40472224385E+02  0.00000000000E+00 0.  1.
</event>
<event>
 7    1  0.2405891E-015  0.9000835E+02  0.7816164E-02  0.1186338E+00
        -11   -1    0    0    0    0  0.00000000000E+00  0.00000000000E+00  0.45593999997E+02  0.45594000000E+02  0.51100000000E-03 0. -1.
         11   -1    0    0    0    0 -0.00000000000E+00 -0.00000000000E+00 -0.45593999997E+02  0.45594000000E+02  0.51100000000E-03 0.  1.
    9900012    2    1    2    0    0 -0.10183206627E+01  0.32350619608E+00  0.49994643234E+00  0.90008347650E+02  0.90000617037E+02 0.  0.
        -12    1    1    2    0    0  0.10183206627E+01 -0.32350619608E+00 -0.49994643234E+00  0.11796523497E+01  0.00000000000E+00 0.  1.
         11    1    3    3    0    0 -0.18141277251E+02  0.21432640913E+02  0.23434691020E+02  0.36573881122E+02  0.51100000000E-03 0. -1.
        -11    1    3    3    0    0 -0.86253341923E+01  0.12838422523E+01  0.43487476003E+01  0.97445495950E+01  0.51100000000E-03 0.  1.
        -12    1    3    3    0    0  0.25748290780E+02 -0.22392976970E+02 -0.27283492188E+02  0.43689916934E+02  0.00000000000E+00 0.  1.
</event>
<event>
 7    1  0.2405891E-015  0.9000778E+02  0.7816164E-02  0.1186339E+00
        -11   -1    0    0    0    0  0.00000000000E+00  0.00000000000E+00  0.45593999997E+02  0.45594000000E+02  0.51100000000E-03 0.  1.
         11   -1    0    0    0    0 -0.00000000000E+00 -0.00000000000E+00 -0.45593999997E+02  0.45594000000E+02  0.51100000000E-03 0. -1.
    9900012    2    1    2    0    0 -0.51612987157E+00 -0.22450332265E+00 -0.10373711860E+01  0.90007775122E+02  0.90000036953E+02 0.  0.
        -12    1    1    2    0    0  0.51612987157E+00  0.22450332265E+00  0.10373711860E+01  0.11802248784E+01  0.00000000000E+00 0.  1.
         11    1    3    3    0    0  0.91122030727E+01 -0.57267632415E+01 -0.36962841300E+02  0.38497788239E+02  0.51100000000E-03 0. -1.
        -11    1    3    3    0    0  0.84675926745E+01  0.27434953303E+00 -0.24004496710E+01  0.88055409971E+01  0.51100000000E-03 0.  1.
        -12    1    3    3    0    0 -0.18095925619E+02  0.52279103858E+01  0.38325919785E+02  0.42704445885E+02  0.00000000000E+00 0.  1.
</event>
<event>
 7    1  0.2405891E-015  0.9000774E+02  0.7816164E-02  0.1186339E+00
        -11   -1    0    0    0    0  0.00000000000E+00  0.00000000000E+00  0.45593999997E+02  0.45594000000E+02  0.51100000000E-03 0.  1.
         11   -1    0    0    0    0 -0.00000000000E+00 -0.00000000000E+00 -0.45593999997E+02  0.45594000000E+02  0.51100000000E-03 0. -1.
    9900012    2    1    2    0    0 -0.85208617109E+00  0.78441880619E-02  0.81663678668E+00  0.90007742394E+02  0.90000003794E+02 0.  0.
        -12    1    1    2    0    0  0.85208617109E+00 -0.78441880619E-02 -0.81663678668E+00  0.11802576056E+01  0.00000000000E+00 0.  1.
         11    1    3    3    0    0  0.58058789348E+01  0.15587520416E+02  0.12531786191E+01  0.16680811726E+02  0.51100000000E-03 0. -1.
        -11    1    3    3    0    0  0.21011972352E+02 -0.76084655730E+01  0.25966938640E+02  0.34258920490E+02  0.51100000000E-03 0.  1.
         12    1    3    3    0    0 -0.27669937458E+02 -0.79712106551E+01 -0.26403480473E+02  0.39068010179E+02  0.00000000000E+00 0. -1.
</event>
<event>
 7    1  0.2405891E-015  0.9000772E+02  0.7816164E-02  0.1186339E+00
        -11   -1    0    0    0    0  0.00000000000E+00  0.00000000000E+00  0.45593999997E+02  0.45594000000E+02  0.51100000000E-03 0.  1.
         11   -1    0    0    0    0 -0.00000000000E+00 -0.00000000000E+00 -0.45593999997E+02  0.45594000000E+02  0.51100000000E-03 0. -1.
    9900012    2    1    2    0    0  0.28536859156E+00  0.31292051093E+00 -0.11016841193E+01  0.90007719365E+02  0.89999980460E+02 0.  0.
        -12    1    1    2    0    0 -0.28536859156E+00 -0.31292051093E+00  0.11016841193E+01  0.11802806352E+01  0.00000000000E+00 0.  1.
         11    1    3    3    0    0  0.11563249663E+02 -0.55382647800E+00 -0.58513908183E+01  0.12971285260E+02  0.51100000000E-03 0. -1.
        -11    1    3    3    0    0  0.19124929802E+02 -0.22817316441E+02  0.19699099593E+02  0.35699403280E+02  0.51100000000E-03 0.  1.
         12    1    3    3    0    0 -0.30402810873E+02  0.23684063430E+02 -0.14949392894E+02  0.41337030825E+02  0.00000000000E+00 0. -1.
</event>
<event>
 7    1  0.2405891E-015  0.9000773E+02  0.7816164E-02  0.1186339E+00
        -11   -1    0    0    0    0  0.00000000000E+00  0.00000000000E+00  0.45593999997E+02  0.45594000000E+02  0.51100000000E-03 0.  1.
         11   -1    0    0    0    0 -0.00000000000E+00 -0.00000000000E+00 -0.45593999997E+02  0.45594000000E+02  0.51100000000E-03 0. -1.
    9900012    2    1    2    0    0  0.69266626336E-01 -0.11757440028E+01  0.76533882365E-01  0.90007733394E+02  0.89999994675E+02 0.  0.
        -12    1    1    2    0    0 -0.69266626336E-01  0.11757440028E+01 -0.76533882365E-01  0.11802666058E+01  0.00000000000E+00 0.  1.
         11    1    3    3    0    0  0.20157429757E+02  0.34093981831E+02 -0.35194908832E+01  0.39763153645E+02  0.51100000000E-03 0. -1.
        -11    1    3    3    0    0 -0.67209062938E+01  0.38220044623E+01 -0.32140215416E+01  0.83730660006E+01  0.51100000000E-03 0.  1.
        -12    1    3    3    0    0 -0.13367256837E+02 -0.39091730296E+02  0.68100463071E+01  0.41871513748E+02  0.00000000000E+00 0.  1.
</event>
<event>
 7    1  0.2405891E-015  0.9000886E+02  0.7816164E-02  0.1186337E+00
        -11   -1    0    0    0    0  0.00000000000E+00  0.00000000000E+00  0.45593999997E+02  0.45594000000E+02  0.51100000000E-03 0.  1.
         11   -1    0    0    0    0 -0.00000000000E+00 -0.00000000000E+00 -0.45593999997E+02  0.45594000000E+02  0.51100000000E-03 0. -1.
    9900012    2    1    2    0    0 -0.72776740861E+00 -0.92418694823E+00  0.81326630454E-01  0.90008855845E+02  0.90001131936E+02 0.  0.
        -12    1    1    2    0    0  0.72776740861E+00  0.92418694823E+00 -0.81326630454E-01  0.11791441545E+01  0.00000000000E+00 0.  1.
         11    1    3    3    0    0 -0.19315647209E+02  0.27714029637E+02 -0.25716224467E+02  0.42455692986E+02  0.51100000000E-03 0. -1.
        -11    1    3    3    0    0  0.49564035311E+01  0.24101468491E+01  0.11428868288E+01  0.56285819140E+01  0.51100000000E-03 0.  1.
        -12    1    3    3    0    0  0.13631476269E+02 -0.31048363434E+02  0.24654664269E+02  0.41924580945E+02  0.00000000000E+00 0.  1.
</event>
<event>
 7    1  0.2405891E-015  0.9000794E+02  0.7816164E-02  0.1186339E+00
        -11   -1    0    0    0    0  0.00000000000E+00  0.00000000000E+00  0.45593999997E+02  0.45594000000E+02  0.51100000000E-03 0.  1.
         11   -1    0    0    0    0 -0.00000000000E+00 -0.00000000000E+00 -0.45593999997E+02  0.45594000000E+02  0.51100000000E-03 0. -1.
    9900012    2    1    2    0    0  0.50387375261E-01 -0.80713733981E+00 -0.85938117212E+00  0.90007938319E+02  0.90000202304E+02 0.  0.
        -12    1    1    2    0    0 -0.50387375261E-01  0.80713733981E+00  0.85938117212E+00  0.11800616814E+01  0.00000000000E+00 0.  1.
         11    1    3    3    0    0 -0.33525353814E+02 -0.14208132255E+02  0.11129384431E+02  0.38074710355E+02  0.51100000000E-03 0. -1.
        -11    1    3    3    0    0 -0.64921903125E+01  0.22676985897E+01 -0.73885369806E+01  0.10093635169E+02  0.51100000000E-03 0.  1.
        -12    1    3    3    0    0  0.40067931501E+02  0.11133296326E+02 -0.46002286223E+01  0.41839592795E+02  0.00000000000E+00 0.  1.
</event>
<event>
 7    1  0.2405891E-015  0.9000831E+02  0.7816164E-02  0.1186338E+00
        -11   -1    0    0    0    0  0.00000000000E+00  0.00000000000E+00  0.45593999997E+02  0.45594000000E+02  0.51100000000E-03 0. -1.
         11   -1    0    0    0    0 -0.00000000000E+00 -0.00000000000E+00 -0.45593999997E+02  0.45594000000E+02  0.51100000000E-03 0.  1.
    9900012    2    1    2    0    0  0.21260891510E+00 -0.17442409085E+00  0.11471936404E+01  0.90008305310E+02  0.90000574138E+02 0.  0.
        -12    1    1    2    0    0 -0.21260891510E+00  0.17442409085E+00 -0.11471936404E+01  0.11796946905E+01  0.00000000000E+00 0.  1.
         11    1    3    3    0    0  0.10500584769E+01  0.96855607573E+01  0.34672899753E+02  0.36015589507E+02  0.51100000000E-03 0. -1.
        -11    1    3    3    0    0  0.57132692577E+01 -0.77842299849E+01  0.76055017825E+01  0.12291433590E+02  0.51100000000E-03 0.  1.
        -12    1    3    3    0    0 -0.65507188195E+01 -0.20757548632E+01 -0.41131207895E+02  0.41701282213E+02  0.00000000000E+00 0.  1.
</event>
<event>
 7    1  0.2405891E-015  0.9000776E+02  0.7816164E-02  0.1186339E+00
        -11   -1    0    0    0    0  0.00000000000E+00  0.00000000000E+00  0.45593999997E+02  0.45594000000E+02  0.51100000000E-03 0. -1.
         11   -1    0    0    0    0 -0.00000000000E+00 -0.00000000000E+00 -0.45593999997E+02  0.45594000000E+02  0.51100000000E-03 0.  1.
    9900012    2    1    2    0    0  0.53884021575E+00 -0.92406898935E+00  0.49871774345E+00  0.90007757795E+02  0.90000019398E+02 0.  0.
        -12    1    1    2    0    0 -0.53884021575E+00  0.92406898935E+00 -0.49871774345E+00  0.11802422052E+01  0.00000000000E+00 0.  1.
         11    1    3    3    0    0 -0.65504709052E+01 -0.10167501995E+01 -0.52765861601E+01  0.84725918003E+01  0.51100000000E-03 0. -1.
        -11    1    3    3    0    0 -0.10162029412E+02 -0.38081451749E+02  0.38132008487E+01  0.39598034169E+02  0.51100000000E-03 0.  1.
         12    1    3    3    0    0  0.17251340533E+02  0.38174132959E+02  0.19621030548E+01  0.41937131826E+02  0.00000000000E+00 0. -1.
</event>
<event>
 7    1  0.2405891E-015  0.9000745E+02  0.7816164E-02  0.1186340E+00
        -11   -1    0    0    0    0  0.00000000000E+00  0.00000000000E+00  0.45593999997E+02  0.45594000000E+02  0.51100000000E-03 0. -1.
         11   -1    0    0    0    0 -0.00000000000E+00 -0.00000000000E+00 -0.45593999997E+02  0.45594000000E+02  0.51100000000E-03 0.  1.
    9900012    2    1    2    0    0 -0.78894924769E+00 -0.27427371330E+00  0.83429027279E+00  0.90007446213E+02  0.89999703702E+02 0.  0.
        -12    1    1    2    0    0  0.78894924769E+00  0.27427371330E+00 -0.83429027279E+00  0.11805537872E+01  0.00000000000E+00 0.  1.
         11    1    3    3    0    0 -0.25610712407E+01 -0.98967914528E+01  0.14358215298E+01  0.10323136669E+02  0.51100000000E-03 0. -1.
        -11    1    3    3    0    0 -0.36267113402E+02  0.16547950305E+02 -0.70592763127E+01  0.40484213666E+02  0.51100000000E-03 0.  1.
         12    1    3    3    0    0  0.38039235395E+02 -0.69254325655E+01  0.64577450556E+01  0.39200095878E+02  0.00000000000E+00 0. -1.
</event>
<event>
 7    1  0.2405891E-015  0.9000800E+02  0.7816164E-02  0.1186339E+00
        -11   -1    0    0    0    0  0.00000000000E+00  0.00000000000E+00  0.45593999997E+02  0.45594000000E+02  0.51100000000E-03 0. -1.
         11   -1    0    0    0    0 -0.00000000000E+00 -0.00000000000E+00 -0.45593999997E+02  0.45594000000E+02  0.51100000000E-03 0.  1.
    9900012    2    1    2    0    0  0.10244325207E+01  0.44292830256E+00  0.38308254193E+00  0.90008000125E+02  0.90000264926E+02 0.  0.
        -12    1    1    2    0    0 -0.10244325207E+01 -0.44292830256E+00 -0.38308254193E+00  0.11799998749E+01  0.00000000000E+00 0.  1.
         11    1    3    3    0    0  0.28348908241E+01 -0.30331291185E+02  0.23183686105E+02  0.38281942644E+02  0.51100000000E-03 0. -1.
        -11    1    3    3    0    0 -0.73300480575E+01  0.12981590580E+01  0.64387424693E+01  0.98423689381E+01  0.51100000000E-03 0.  1.
        -12    1    3    3    0    0  0.55195897542E+01  0.29476060430E+02 -0.29239346033E+02  0.41883688543E+02  0.00000000000E+00 0.  1.
</event>
<event>
 7    1  0.2405891E-015  0.9000774E+02  0.7816164E-02  0.1186339E+00
        -11   -1    0    0    0    0  0.00000000000E+00  0.00000000000E+00  0.45593999997E+02  0.45594000000E+02  0.51100000000E-03 0.  1.
         11   -1    0    0    0    0 -0.00000000000E+00 -0.00000000000E+00 -0.45593999997E+02  0.45594000000E+02  0.51100000000E-03 0. -1.
    9900012    2    1    2    0    0  0.80958152788E+00  0.62401261438E+00 -0.59009422947E+00  0.90007735118E+02  0.89999996421E+02 0.  0.
        -12    1    1    2    0    0 -0.80958152788E+00 -0.62401261438E+00  0.59009422947E+00  0.11802648825E+01  0.00000000000E+00 0.  1.
         11    1    3    3    0    0  0.87770294663E+01  0.21615714608E+01 -0.28449321346E+01  0.94764063096E+01  0.51100000000E-03 0. -1.
        -11    1    3    3    0    0 -0.19925095110E+02 -0.82653055188E+01  0.37192913805E+02  0.42995785003E+02  0.51100000000E-03 0.  1.
         12    1    3    3    0    0  0.11957647172E+02  0.67277466723E+01 -0.34938075900E+02  0.37535543805E+02  0.00000000000E+00 0. -1.
</event>
<event>
 7    1  0.2405891E-015  0.9000768E+02  0.7816164E-02  0.1186339E+00
        -11   -1    0    0    0    0  0.00000000000E+00  0.00000000000E+00  0.45593999997E+02  0.45594000000E+02  0.51100000000E-03 0.  1.
         11   -1    0    0    0    0 -0.00000000000E+00 -0.00000000000E+00 -0.45593999997E+02  0.45594000000E+02  0.51100000000E-03 0. -1.
    9900012    2    1    2    0    0  0.24707517996E+00 -0.67250136019E+00 -0.93799839169E+00  0.90007684277E+02  0.89999944909E+02 0.  0.
        -12    1    1    2    0    0 -0.24707517996E+00  0.67250136019E+00  0.93799839169E+00  0.11803157234E+01  0.00000000000E+00 0.  1.
         11    1    3    3    0    0  0.89964356266E+01 -0.57639454431E+01  0.50540623238E+00  0.10696464686E+02  0.51100000000E-03 0. -1.
        -11    1    3    3    0    0  0.10070620955E+02 -0.17062418908E+02  0.30342142788E+02  0.36237952131E+02  0.51100000000E-03 0.  1.
         12    1    3    3    0    0 -0.18819981401E+02  0.22153862991E+02 -0.31785547412E+02  0.43073267460E+02  0.00000000000E+00 0. -1.
</event>
<event>
 7    1  0.2405891E-015  0.9000762E+02  0.7816164E-02  0.1186339E+00
        -11   -1    0    0    0    0  0.00000000000E+00  0.00000000000E+00  0.45593999997E+02  0.45594000000E+02  0.51100000000E-03 0. -1.
         11   -1    0    0    0    0 -0.00000000000E+00 -0.00000000000E+00 -0.45593999997E+02  0.45594000000E+02  0.51100000000E-03 0.  1.
    9900012    2    1    2    0    0 -0.38323105031E+00 -0.89524017281E+00  0.66707307258E+00  0.90007615533E+02  0.89999875258E+02 0.  0.
        -12    1    1    2    0    0  0.38323105031E+00  0.89524017281E+00 -0.66707307258E+00  0.11803844666E+01  0.00000000000E+00 0.  1.
         11    1    3    3    0    0 -0.21392072977E+02 -0.31005308743E+02  0.21108497757E+01  0.37728048499E+02  0.51100000000E-03 0. -1.
        -11    1    3    3    0    0  0.16695398625E+01 -0.36149176461E+01 -0.11461201926E+02  0.12133183539E+02  0.51100000000E-03 0.  1.
        -12    1    3    3    0    0  0.19339302065E+02  0.33724986216E+02  0.10017425223E+02  0.40146383495E+02  0.00000000000E+00 0.  1.
</event>
<event>
 7    1  0.2405891E-015  0.9000775E+02  0.7816164E-02  0.1186339E+00
        -11   -1    0    0    0    0  0.00000000000E+00  0.00000000000E+00  0.45593999997E+02  0.45594000000E+02  0.51100000000E-03 0. -1.
         11   -1    0    0    0    0 -0.00000000000E+00 -0.00000000000E+00 -0.45593999997E+02  0.45594000000E+02  0.51100000000E-03 0.  1.
    9900012    2    1    2    0    0 -0.18486837814E+00 -0.11632209775E+01 -0.75768451631E-01  0.90007745698E+02  0.90000007141E+02 0.  0.
        -12    1    1    2    0    0  0.18486837814E+00  0.11632209775E+01  0.75768451631E-01  0.11802543023E+01  0.00000000000E+00 0.  1.
         11    1    3    3    0    0  0.14148311905E+02 -0.16751362595E+02 -0.95888197277E+01  0.23931743409E+02  0.51100000000E-03 0. -1.
        -11    1    3    3    0    0  0.11671104479E+02 -0.39859142686E+01  0.26596764563E+02  0.29317061207E+02  0.51100000000E-03 0.  1.
        -12    1    3    3    0    0 -0.26004284763E+02  0.19574055886E+02 -0.17083713287E+02  0.36758941082E+02  0.00000000000E+00 0.  1.
</event>
<event>
 7    1  0.2405891E-015  0.9000769E+02  0.7816164E-02  0.1186339E+00
        -11   -1    0    0    0    0  0.00000000000E+00  0.00000000000E+00  0.45593999997E+02  0.45594000000E+02  0.51100000000E-03 0.  1.
         11   -1    0    0    0    0 -0.00000000000E+00 -0.00000000000E+00 -0.45593999997E+02  0.45594000000E+02  0.51100000000E-03 0. -1.
    9900012    2    1    2    0    0  0.62810503223E+00  0.42559942198E+00 -0.90414228933E+00  0.90007693227E+02  0.89999953977E+02 0.  0.
        -12    1    1    2    0    0 -0.62810503223E+00 -0.42559942198E+00  0.90414228933E+00  0.11803067732E+01  0.00000000000E+00 0.  1.
         11    1    3    3    0    0 -0.68479704952E+01 -0.25801735504E+02 -0.33820039293E+02  0.43086184712E+02  0.51100000000E-03 0. -1.
        -11    1    3    3    0    0 -0.39974491206E+00  0.92115184260E+01  0.21051795327E+00  0.92225910555E+01  0.51100000000E-03 0.  1.
        -12    1    3    3    0    0  0.78758204395E+01  0.17015816500E+02  0.32705379051E+02  0.37698917460E+02  0.00000000000E+00 0.  1.
</event>
